 Entering Gaussian System, Link 0=g16
 Initial command:
 /sw/apps/gaussian-16.0/g16/l1.exe "/tmp/Gau-90257.inp" -scrdir="/tmp/"
 Entering Link 1 = /sw/apps/gaussian-16.0/g16/l1.exe PID=     90258.
  
 Copyright (c) 1988,1990,1992,1993,1995,1998,2003,2009,2016,
            Gaussian, Inc.  All Rights Reserved.
  
 This is part of the Gaussian(R) 16 program.  It is based on
 the Gaussian(R) 09 system (copyright 2009, Gaussian, Inc.),
 the Gaussian(R) 03 system (copyright 2003, Gaussian, Inc.),
 the Gaussian(R) 98 system (copyright 1998, Gaussian, Inc.),
 the Gaussian(R) 94 system (copyright 1995, Gaussian, Inc.),
 the Gaussian 92(TM) system (copyright 1992, Gaussian, Inc.),
 the Gaussian 90(TM) system (copyright 1990, Gaussian, Inc.),
 the Gaussian 88(TM) system (copyright 1988, Gaussian, Inc.),
 the Gaussian 86(TM) system (copyright 1986, Carnegie Mellon
 University), and the Gaussian 82(TM) system (copyright 1983,
 Carnegie Mellon University). Gaussian is a federally registered
 trademark of Gaussian, Inc.
  
 This software contains proprietary and confidential information,
 including trade secrets, belonging to Gaussian, Inc.
  
 This software is provided under written license and may be
 used, copied, transmitted, or stored only in accord with that
 written license.
  
 The following legend is applicable only to US Government
 contracts under FAR:
  
                    RESTRICTED RIGHTS LEGEND
  
 Use, reproduction and disclosure by the US Government is
 subject to restrictions as set forth in subparagraphs (a)
 and (c) of the Commercial Computer Software - Restricted
 Rights clause in FAR 52.227-19.
  
 Gaussian, Inc.
 340 Quinnipiac St., Bldg. 40, Wallingford CT 06492
  
  
 ---------------------------------------------------------------
 Warning -- This program may not be used in any manner that
 competes with the business of Gaussian, Inc. or will provide
 assistance to any competitor of Gaussian, Inc.  The licensee
 of this program is prohibited from giving any competitor of
 Gaussian, Inc. access to this program.  By using this program,
 the user acknowledges that Gaussian, Inc. is engaged in the
 business of creating and licensing software in the field of
 computational chemistry and represents and warrants to the
 licensee that it is not a competitor of Gaussian, Inc. and that
 it will not use this program in any manner prohibited above.
 ---------------------------------------------------------------
  

 Cite this work as:
 Gaussian 16, Revision A.03,
 M. J. Frisch, G. W. Trucks, H. B. Schlegel, G. E. Scuseria, 
 M. A. Robb, J. R. Cheeseman, G. Scalmani, V. Barone, 
 G. A. Petersson, H. Nakatsuji, X. Li, M. Caricato, A. V. Marenich, 
 J. Bloino, B. G. Janesko, R. Gomperts, B. Mennucci, H. P. Hratchian, 
 J. V. Ortiz, A. F. Izmaylov, J. L. Sonnenberg, D. Williams-Young, 
 F. Ding, F. Lipparini, F. Egidi, J. Goings, B. Peng, A. Petrone, 
 T. Henderson, D. Ranasinghe, V. G. Zakrzewski, J. Gao, N. Rega, 
 G. Zheng, W. Liang, M. Hada, M. Ehara, K. Toyota, R. Fukuda, 
 J. Hasegawa, M. Ishida, T. Nakajima, Y. Honda, O. Kitao, H. Nakai, 
 T. Vreven, K. Throssell, J. A. Montgomery, Jr., J. E. Peralta, 
 F. Ogliaro, M. J. Bearpark, J. J. Heyd, E. N. Brothers, K. N. Kudin, 
 V. N. Staroverov, T. A. Keith, R. Kobayashi, J. Normand, 
 K. Raghavachari, A. P. Rendell, J. C. Burant, S. S. Iyengar, 
 J. Tomasi, M. Cossi, J. M. Millam, M. Klene, C. Adamo, R. Cammi, 
 J. W. Ochterski, R. L. Martin, K. Morokuma, O. Farkas, 
 J. B. Foresman, and D. J. Fox, Gaussian, Inc., Wallingford CT, 2016.
 
 ******************************************
 Gaussian 16:  ES64L-G16RevA.03 25-Dec-2016
                 9-Sep-2021 
 ******************************************
 %nproc=24
 Will use up to   24 processors via shared memory.
 %mem=175gb
 -----------------------------------
 #p cam-b3lyp/Def2SVP td=(nstates=5)
 -----------------------------------
 1/38=1,172=1/1;
 2/12=2,17=6,18=5,40=1/2;
 3/5=43,7=101,11=9,25=1,30=1,74=-40/1,2,3,8;
 4//1;
 5/5=2,38=5/2;
 8/6=1,10=1,108=5/1;
 9/41=5,42=1,70=2/14;
 6/7=2,8=2,9=2,10=2/1;
 99/5=1,9=1/99;
 Leave Link    1 at Thu Sep  9 06:10:42 2021, MaxMem= 23488102400 cpu:               0.6 elap:               0.0
 (Enter /sw/apps/gaussian-16.0/g16/l101.exe)
 --------------------------------
 TDDFT excited states in gaussian
 --------------------------------
 Symbolic Z-matrix:
 Charge =  0 Multiplicity = 1
 Mg                    0.        0.        0. 
 C                    -0.217    -2.218     2.801 
 C                    -1.255     2.442     2.026 
 C                    -0.245     1.85     -2.564 
 C                     0.146    -2.824    -2.037 
 N                    -0.617    -0.009     2.126 
 C                    -0.594    -0.908     3.105 
 C                    -0.936    -0.309     4.502 
 C                    -1.773     0.964     4.032 
 C                    -1.155     1.168     2.66 
 C                    -3.263     0.685     3.863 
 C                     0.345     0.11      5.299 
 C                     0.124     0.397     6.787 
 H                     1.168     0.033     7.733 
 N                    -0.185     1.961    -0.152 
 C                    -0.703     2.8       0.777 
 C                    -0.62      4.156     0.193 
 C                    -0.187     4.015    -1.225 
 C                    -0.214     2.583    -1.38 
 C                    -0.887     5.406     0.974 
 C                     0.181     5.013    -2.277 
 O                     0.303     4.69     -3.508 
 C                     0.31      6.414    -1.837 
 N                    -0.265    -0.413    -2.029 
 C                    -0.279     0.569    -2.937 
 C                    -0.196     0.024    -4.332 
 C                     0.124    -1.533    -4.18 
 C                     0.086    -1.632    -2.635 
 C                    -1.451     0.205    -5.197 
 C                     1.373    -2.07     -4.923 
 C                     2.626    -1.49     -4.306 
 N                     0.15     -2.144     0.303 
 C                     0.173    -3.136    -0.688 
 C                     0.173    -4.438     0.004 
 C                     0.133    -4.111     1.358 
 C                     0.083    -2.695     1.502 
 C                     0.149    -5.715    -0.623 
 C                     0.096    -4.629     2.716 
 O                     0.208    -5.747     3.221 
 C                    -0.255    -3.428     3.701 
 C                     0.717    -3.482     4.848 
 O                     1.931    -3.255     4.669 
 O                     0.038    -3.556     6.003 
 C                     0.943    -3.583     7.183 
 H                    -1.859     3.22      2.497 
 H                    -0.218     2.453    -3.474 
 H                     0.276    -3.747    -2.605 
 H                    -1.554    -0.949     5.132 
 H                    -1.585     1.831     4.665 
 H                    -3.484    -0.377     3.969 
 H                    -3.511     1.027     2.858 
 H                    -3.852     1.301     4.543 
 H                     0.669     1.096     4.966 
 H                     1.13     -0.639     5.189 
 H                    -0.844     0.026     7.125 
 H                     0.062     1.477     6.921 
 H                    -1.344     5.186     1.938 
 H                    -1.651     5.963     0.432 
 H                     0.007     6.02      1.084 
 H                    -0.635     6.744    -1.405 
 H                     0.665     6.97     -2.704 
 H                     1.048     6.466    -1.036 
 H                     0.608     0.501    -4.891 
 H                    -0.692    -2.156    -4.547 
 H                    -1.267     0.74     -6.129 
 H                    -2.204     0.714    -4.596 
 H                    -1.967    -0.72     -5.453 
 H                     1.356    -1.759    -5.967 
 H                     1.452    -3.157    -4.902 
 H                     2.714    -0.522    -4.798 
 H                     3.487    -2.121    -4.529 
 H                     2.495    -1.303    -3.24 
 H                     0.867    -6.333    -0.084 
 H                     0.404    -5.642    -1.68 
 H                    -0.891    -5.999    -0.463 
 H                    -1.283    -3.581     4.028 
 H                     0.698    -4.478     7.755 
 H                     0.833    -2.619     7.68 
 H                     2.       -3.754     6.976 
 Mg                    7.88739   0.7146    0.60721 
 C                     7.04253  -1.57914   3.23476 
 C                     6.09428   3.07515   2.29456 
 C                     8.23342   2.62719  -1.90072 
 C                     8.61573  -2.05125  -1.38409 
 N                     6.76051   0.6373    2.5089 
 C                     6.56102  -0.27129   3.45177 
 C                     5.87278   0.27161   4.73284 
 C                     5.13335   1.54303   4.08816 
 C                     6.06853   1.79704   2.90765 
 C                     3.75159   1.22296   3.54262 
 C                     6.90787   0.70432   5.82982 
 C                     6.30962   0.95247   7.21628 
 H                     7.10101   0.59424   8.3901 
 N                     7.68663   2.6832    0.45601 
 C                     6.93658   3.48714   1.23857 
 C                     7.11121   4.84631   0.70346 
 C                     7.8944    4.75644  -0.55878 
 C                     7.95196   3.31875  -0.7315 
 C                     6.6273    6.07216   1.42216 
 C                     8.48194   5.79321  -1.46768 
 O                     8.91841   5.49549  -2.63545 
 C                     8.44585   7.18232  -0.9875 
 N                     8.15259   0.34548  -1.42152 
 C                     8.32971   1.35598  -2.29069 
 C                     8.77393   0.84345  -3.6399 
 C                     9.09308  -0.70895  -3.42595 
 C                     8.67453  -0.85175  -1.94615 
 C                     7.76537   1.00337  -4.77727 
 C                     10.50518  -1.20148  -3.84553 
 C                     11.5527  -0.6005   -2.93618 
 N                     8.02532  -1.42129   0.9022 
 C                     8.31908  -2.39979  -0.07264 
 C                     8.185    -3.71839   0.57985 
 C                     7.79703  -3.41389   1.89334 
 C                     7.6768   -2.00582   2.04296 
 C                     8.36591  -4.98122  -0.05154 
 C                     7.45153  -3.96393   3.18438 
 O                     7.46124  -5.09017   3.67959 
 C                     6.82488  -2.8065    4.07549 
 C                     7.48119  -2.85467   5.42807 
 O                     8.69306  -2.60434   5.55183 
 O                     6.53211  -2.97353   6.37437 
 C                     7.13318  -3.01437   7.7341 
 H                     5.37243   3.82312   2.62376 
 H                     8.46964   3.24614  -2.76938 
 H                     8.92097  -2.95815  -1.91043 
 H                     5.14438  -0.39723   5.17539 
 H                     5.13946   2.39053   4.76865 
 H                     3.54205   0.16402   3.57238 
 H                     3.74841   1.58071   2.52133 
 H                     2.9932    1.80901   4.06961 
 H                     7.27302   1.71343   5.59939 
 H                     7.70596  -0.00866   5.90296 
 H                     5.29139   0.55424   7.30315 
 H                     6.1888    2.02967   7.35436 
 H                     5.94365   5.81502   2.24063 
 H                     6.00608   6.63288   0.71538 
 H                     7.44482   6.71284   1.7596 
 H                     7.4152    7.47176  -0.79659 
 H                     8.99117   7.76366  -1.73352 
 H                     8.97039   7.23416  -0.02688 
 H                     9.6761    1.34592  -3.96657 
 H                     8.41339  -1.34864  -4.0079 
 H                     8.16364   1.57522  -5.6366 
 H                     6.87792   1.47959  -4.38209 
 H                     7.36892   0.07172  -5.17735 
 H                     10.73998  -0.86098  -4.85701 
 H                     10.60581  -2.28167  -3.83788 
 H                     11.72555   0.38588  -3.37694 
 H                     12.45952  -1.20184  -2.94653 
 H                     11.15512  -0.4453   -1.92649 
 H                     8.93993  -5.59196   0.63257 
 H                     8.86862  -4.87769  -1.01088 
 H                     7.32433  -5.29331  -0.16548 
 H                     5.75046  -2.98432   4.13523 
 H                     6.77674  -3.9313    8.21357 
 H                     6.85655  -2.05578   8.21193 
 H                     8.20699  -3.14295   7.80375 
 
 ITRead=  0  0  0  0  0  0  0  0  0  0  0  0  0  0  0  0  0  0  0  0
 ITRead=  0  0  0  0  0  0  0  0  0  0  0  0  0  0  0  0  0  0  0  0
 ITRead=  0  0  0  0  0  0  0  0  0  0  0  0  0  0  0  0  0  0  0  0
 ITRead=  0  0  0  0  0  0  0  0  0  0  0  0  0  0  0  0  0  0  0  0
 ITRead=  0  0  0  0  0  0  0  0  0  0  0  0  0  0  0  0  0  0  0  0
 ITRead=  0  0  0  0  0  0  0  0  0  0  0  0  0  0  0  0  0  0  0  0
 ITRead=  0  0  0  0  0  0  0  0  0  0  0  0  0  0  0  0  0  0  0  0
 ITRead=  0  0  0  0  0  0  0  0  0  0  0  0  0  0  0  0  0  0
 MicOpt= -1 -1 -1 -1 -1 -1 -1 -1 -1 -1 -1 -1 -1 -1 -1 -1 -1 -1 -1 -1
 MicOpt= -1 -1 -1 -1 -1 -1 -1 -1 -1 -1 -1 -1 -1 -1 -1 -1 -1 -1 -1 -1
 MicOpt= -1 -1 -1 -1 -1 -1 -1 -1 -1 -1 -1 -1 -1 -1 -1 -1 -1 -1 -1 -1
 MicOpt= -1 -1 -1 -1 -1 -1 -1 -1 -1 -1 -1 -1 -1 -1 -1 -1 -1 -1 -1 -1
 MicOpt= -1 -1 -1 -1 -1 -1 -1 -1 -1 -1 -1 -1 -1 -1 -1 -1 -1 -1 -1 -1
 MicOpt= -1 -1 -1 -1 -1 -1 -1 -1 -1 -1 -1 -1 -1 -1 -1 -1 -1 -1 -1 -1
 MicOpt= -1 -1 -1 -1 -1 -1 -1 -1 -1 -1 -1 -1 -1 -1 -1 -1 -1 -1 -1 -1
 MicOpt= -1 -1 -1 -1 -1 -1 -1 -1 -1 -1 -1 -1 -1 -1 -1 -1 -1 -1
 NAtoms=    158 NQM=      158 NQMF=       0 NMMI=      0 NMMIF=      0
                NMic=       0 NMicF=      0.
                    Isotopes and Nuclear Properties:
 (Nuclear quadrupole moments (NQMom) in fm**2, nuclear magnetic moments (NMagM)
  in nuclear magnetons)

  Atom         1           2           3           4           5           6           7           8           9          10
 IAtWgt=          24          12          12          12          12          14          12          12          12          12
 AtmWgt=  23.9850450  12.0000000  12.0000000  12.0000000  12.0000000  14.0030740  12.0000000  12.0000000  12.0000000  12.0000000
 NucSpn=           0           0           0           0           0           2           0           0           0           0
 AtZEff=  -0.0000000  -0.0000000  -0.0000000  -0.0000000  -0.0000000  -0.0000000  -0.0000000  -0.0000000  -0.0000000  -0.0000000
 NQMom=    0.0000000   0.0000000   0.0000000   0.0000000   0.0000000   2.0440000   0.0000000   0.0000000   0.0000000   0.0000000
 NMagM=    0.0000000   0.0000000   0.0000000   0.0000000   0.0000000   0.4037610   0.0000000   0.0000000   0.0000000   0.0000000
 AtZNuc=  12.0000000   6.0000000   6.0000000   6.0000000   6.0000000   7.0000000   6.0000000   6.0000000   6.0000000   6.0000000

  Atom        11          12          13          14          15          16          17          18          19          20
 IAtWgt=          12          12          12           1          14          12          12          12          12          12
 AtmWgt=  12.0000000  12.0000000  12.0000000   1.0078250  14.0030740  12.0000000  12.0000000  12.0000000  12.0000000  12.0000000
 NucSpn=           0           0           0           1           2           0           0           0           0           0
 AtZEff=  -0.0000000  -0.0000000  -0.0000000  -0.0000000  -0.0000000  -0.0000000  -0.0000000  -0.0000000  -0.0000000  -0.0000000
 NQMom=    0.0000000   0.0000000   0.0000000   0.0000000   2.0440000   0.0000000   0.0000000   0.0000000   0.0000000   0.0000000
 NMagM=    0.0000000   0.0000000   0.0000000   2.7928460   0.4037610   0.0000000   0.0000000   0.0000000   0.0000000   0.0000000
 AtZNuc=   6.0000000   6.0000000   6.0000000   1.0000000   7.0000000   6.0000000   6.0000000   6.0000000   6.0000000   6.0000000

  Atom        21          22          23          24          25          26          27          28          29          30
 IAtWgt=          12          16          12          14          12          12          12          12          12          12
 AtmWgt=  12.0000000  15.9949146  12.0000000  14.0030740  12.0000000  12.0000000  12.0000000  12.0000000  12.0000000  12.0000000
 NucSpn=           0           0           0           2           0           0           0           0           0           0
 AtZEff=  -0.0000000  -0.0000000  -0.0000000  -0.0000000  -0.0000000  -0.0000000  -0.0000000  -0.0000000  -0.0000000  -0.0000000
 NQMom=    0.0000000   0.0000000   0.0000000   2.0440000   0.0000000   0.0000000   0.0000000   0.0000000   0.0000000   0.0000000
 NMagM=    0.0000000   0.0000000   0.0000000   0.4037610   0.0000000   0.0000000   0.0000000   0.0000000   0.0000000   0.0000000
 AtZNuc=   6.0000000   8.0000000   6.0000000   7.0000000   6.0000000   6.0000000   6.0000000   6.0000000   6.0000000   6.0000000

  Atom        31          32          33          34          35          36          37          38          39          40
 IAtWgt=          12          14          12          12          12          12          12          12          16          12
 AtmWgt=  12.0000000  14.0030740  12.0000000  12.0000000  12.0000000  12.0000000  12.0000000  12.0000000  15.9949146  12.0000000
 NucSpn=           0           2           0           0           0           0           0           0           0           0
 AtZEff=  -0.0000000  -0.0000000  -0.0000000  -0.0000000  -0.0000000  -0.0000000  -0.0000000  -0.0000000  -0.0000000  -0.0000000
 NQMom=    0.0000000   2.0440000   0.0000000   0.0000000   0.0000000   0.0000000   0.0000000   0.0000000   0.0000000   0.0000000
 NMagM=    0.0000000   0.4037610   0.0000000   0.0000000   0.0000000   0.0000000   0.0000000   0.0000000   0.0000000   0.0000000
 AtZNuc=   6.0000000   7.0000000   6.0000000   6.0000000   6.0000000   6.0000000   6.0000000   6.0000000   8.0000000   6.0000000

  Atom        41          42          43          44          45          46          47          48          49          50
 IAtWgt=          12          16          16          12           1           1           1           1           1           1
 AtmWgt=  12.0000000  15.9949146  15.9949146  12.0000000   1.0078250   1.0078250   1.0078250   1.0078250   1.0078250   1.0078250
 NucSpn=           0           0           0           0           1           1           1           1           1           1
 AtZEff=  -0.0000000  -0.0000000  -0.0000000  -0.0000000  -0.0000000  -0.0000000  -0.0000000  -0.0000000  -0.0000000  -0.0000000
 NQMom=    0.0000000   0.0000000   0.0000000   0.0000000   0.0000000   0.0000000   0.0000000   0.0000000   0.0000000   0.0000000
 NMagM=    0.0000000   0.0000000   0.0000000   0.0000000   2.7928460   2.7928460   2.7928460   2.7928460   2.7928460   2.7928460
 AtZNuc=   6.0000000   8.0000000   8.0000000   6.0000000   1.0000000   1.0000000   1.0000000   1.0000000   1.0000000   1.0000000

  Atom        51          52          53          54          55          56          57          58          59          60
 IAtWgt=           1           1           1           1           1           1           1           1           1           1
 AtmWgt=   1.0078250   1.0078250   1.0078250   1.0078250   1.0078250   1.0078250   1.0078250   1.0078250   1.0078250   1.0078250
 NucSpn=           1           1           1           1           1           1           1           1           1           1
 AtZEff=  -0.0000000  -0.0000000  -0.0000000  -0.0000000  -0.0000000  -0.0000000  -0.0000000  -0.0000000  -0.0000000  -0.0000000
 NQMom=    0.0000000   0.0000000   0.0000000   0.0000000   0.0000000   0.0000000   0.0000000   0.0000000   0.0000000   0.0000000
 NMagM=    2.7928460   2.7928460   2.7928460   2.7928460   2.7928460   2.7928460   2.7928460   2.7928460   2.7928460   2.7928460
 AtZNuc=   1.0000000   1.0000000   1.0000000   1.0000000   1.0000000   1.0000000   1.0000000   1.0000000   1.0000000   1.0000000

  Atom        61          62          63          64          65          66          67          68          69          70
 IAtWgt=           1           1           1           1           1           1           1           1           1           1
 AtmWgt=   1.0078250   1.0078250   1.0078250   1.0078250   1.0078250   1.0078250   1.0078250   1.0078250   1.0078250   1.0078250
 NucSpn=           1           1           1           1           1           1           1           1           1           1
 AtZEff=  -0.0000000  -0.0000000  -0.0000000  -0.0000000  -0.0000000  -0.0000000  -0.0000000  -0.0000000  -0.0000000  -0.0000000
 NQMom=    0.0000000   0.0000000   0.0000000   0.0000000   0.0000000   0.0000000   0.0000000   0.0000000   0.0000000   0.0000000
 NMagM=    2.7928460   2.7928460   2.7928460   2.7928460   2.7928460   2.7928460   2.7928460   2.7928460   2.7928460   2.7928460
 AtZNuc=   1.0000000   1.0000000   1.0000000   1.0000000   1.0000000   1.0000000   1.0000000   1.0000000   1.0000000   1.0000000

  Atom        71          72          73          74          75          76          77          78          79          80
 IAtWgt=           1           1           1           1           1           1           1           1           1          24
 AtmWgt=   1.0078250   1.0078250   1.0078250   1.0078250   1.0078250   1.0078250   1.0078250   1.0078250   1.0078250  23.9850450
 NucSpn=           1           1           1           1           1           1           1           1           1           0
 AtZEff=  -0.0000000  -0.0000000  -0.0000000  -0.0000000  -0.0000000  -0.0000000  -0.0000000  -0.0000000  -0.0000000  -0.0000000
 NQMom=    0.0000000   0.0000000   0.0000000   0.0000000   0.0000000   0.0000000   0.0000000   0.0000000   0.0000000   0.0000000
 NMagM=    2.7928460   2.7928460   2.7928460   2.7928460   2.7928460   2.7928460   2.7928460   2.7928460   2.7928460   0.0000000
 AtZNuc=   1.0000000   1.0000000   1.0000000   1.0000000   1.0000000   1.0000000   1.0000000   1.0000000   1.0000000  12.0000000

  Atom        81          82          83          84          85          86          87          88          89          90
 IAtWgt=          12          12          12          12          14          12          12          12          12          12
 AtmWgt=  12.0000000  12.0000000  12.0000000  12.0000000  14.0030740  12.0000000  12.0000000  12.0000000  12.0000000  12.0000000
 NucSpn=           0           0           0           0           2           0           0           0           0           0
 AtZEff=  -0.0000000  -0.0000000  -0.0000000  -0.0000000  -0.0000000  -0.0000000  -0.0000000  -0.0000000  -0.0000000  -0.0000000
 NQMom=    0.0000000   0.0000000   0.0000000   0.0000000   2.0440000   0.0000000   0.0000000   0.0000000   0.0000000   0.0000000
 NMagM=    0.0000000   0.0000000   0.0000000   0.0000000   0.4037610   0.0000000   0.0000000   0.0000000   0.0000000   0.0000000
 AtZNuc=   6.0000000   6.0000000   6.0000000   6.0000000   7.0000000   6.0000000   6.0000000   6.0000000   6.0000000   6.0000000

  Atom        91          92          93          94          95          96          97          98          99         100
 IAtWgt=          12          12           1          14          12          12          12          12          12          12
 AtmWgt=  12.0000000  12.0000000   1.0078250  14.0030740  12.0000000  12.0000000  12.0000000  12.0000000  12.0000000  12.0000000
 NucSpn=           0           0           1           2           0           0           0           0           0           0
 AtZEff=  -0.0000000  -0.0000000  -0.0000000  -0.0000000  -0.0000000  -0.0000000  -0.0000000  -0.0000000  -0.0000000  -0.0000000
 NQMom=    0.0000000   0.0000000   0.0000000   2.0440000   0.0000000   0.0000000   0.0000000   0.0000000   0.0000000   0.0000000
 NMagM=    0.0000000   0.0000000   2.7928460   0.4037610   0.0000000   0.0000000   0.0000000   0.0000000   0.0000000   0.0000000
 AtZNuc=   6.0000000   6.0000000   1.0000000   7.0000000   6.0000000   6.0000000   6.0000000   6.0000000   6.0000000   6.0000000

  Atom       101         102         103         104         105         106         107         108         109         110
 IAtWgt=          16          12          14          12          12          12          12          12          12          12
 AtmWgt=  15.9949146  12.0000000  14.0030740  12.0000000  12.0000000  12.0000000  12.0000000  12.0000000  12.0000000  12.0000000
 NucSpn=           0           0           2           0           0           0           0           0           0           0
 AtZEff=  -0.0000000  -0.0000000  -0.0000000  -0.0000000  -0.0000000  -0.0000000  -0.0000000  -0.0000000  -0.0000000  -0.0000000
 NQMom=    0.0000000   0.0000000   2.0440000   0.0000000   0.0000000   0.0000000   0.0000000   0.0000000   0.0000000   0.0000000
 NMagM=    0.0000000   0.0000000   0.4037610   0.0000000   0.0000000   0.0000000   0.0000000   0.0000000   0.0000000   0.0000000
 AtZNuc=   8.0000000   6.0000000   7.0000000   6.0000000   6.0000000   6.0000000   6.0000000   6.0000000   6.0000000   6.0000000

  Atom       111         112         113         114         115         116         117         118         119         120
 IAtWgt=          14          12          12          12          12          12          12          16          12          12
 AtmWgt=  14.0030740  12.0000000  12.0000000  12.0000000  12.0000000  12.0000000  12.0000000  15.9949146  12.0000000  12.0000000
 NucSpn=           2           0           0           0           0           0           0           0           0           0
 AtZEff=  -0.0000000  -0.0000000  -0.0000000  -0.0000000  -0.0000000  -0.0000000  -0.0000000  -0.0000000  -0.0000000  -0.0000000
 NQMom=    2.0440000   0.0000000   0.0000000   0.0000000   0.0000000   0.0000000   0.0000000   0.0000000   0.0000000   0.0000000
 NMagM=    0.4037610   0.0000000   0.0000000   0.0000000   0.0000000   0.0000000   0.0000000   0.0000000   0.0000000   0.0000000
 AtZNuc=   7.0000000   6.0000000   6.0000000   6.0000000   6.0000000   6.0000000   6.0000000   8.0000000   6.0000000   6.0000000

  Atom       121         122         123         124         125         126         127         128         129         130
 IAtWgt=          16          16          12           1           1           1           1           1           1           1
 AtmWgt=  15.9949146  15.9949146  12.0000000   1.0078250   1.0078250   1.0078250   1.0078250   1.0078250   1.0078250   1.0078250
 NucSpn=           0           0           0           1           1           1           1           1           1           1
 AtZEff=  -0.0000000  -0.0000000  -0.0000000  -0.0000000  -0.0000000  -0.0000000  -0.0000000  -0.0000000  -0.0000000  -0.0000000
 NQMom=    0.0000000   0.0000000   0.0000000   0.0000000   0.0000000   0.0000000   0.0000000   0.0000000   0.0000000   0.0000000
 NMagM=    0.0000000   0.0000000   0.0000000   2.7928460   2.7928460   2.7928460   2.7928460   2.7928460   2.7928460   2.7928460
 AtZNuc=   8.0000000   8.0000000   6.0000000   1.0000000   1.0000000   1.0000000   1.0000000   1.0000000   1.0000000   1.0000000

  Atom       131         132         133         134         135         136         137         138         139         140
 IAtWgt=           1           1           1           1           1           1           1           1           1           1
 AtmWgt=   1.0078250   1.0078250   1.0078250   1.0078250   1.0078250   1.0078250   1.0078250   1.0078250   1.0078250   1.0078250
 NucSpn=           1           1           1           1           1           1           1           1           1           1
 AtZEff=  -0.0000000  -0.0000000  -0.0000000  -0.0000000  -0.0000000  -0.0000000  -0.0000000  -0.0000000  -0.0000000  -0.0000000
 NQMom=    0.0000000   0.0000000   0.0000000   0.0000000   0.0000000   0.0000000   0.0000000   0.0000000   0.0000000   0.0000000
 NMagM=    2.7928460   2.7928460   2.7928460   2.7928460   2.7928460   2.7928460   2.7928460   2.7928460   2.7928460   2.7928460
 AtZNuc=   1.0000000   1.0000000   1.0000000   1.0000000   1.0000000   1.0000000   1.0000000   1.0000000   1.0000000   1.0000000

  Atom       141         142         143         144         145         146         147         148         149         150
 IAtWgt=           1           1           1           1           1           1           1           1           1           1
 AtmWgt=   1.0078250   1.0078250   1.0078250   1.0078250   1.0078250   1.0078250   1.0078250   1.0078250   1.0078250   1.0078250
 NucSpn=           1           1           1           1           1           1           1           1           1           1
 AtZEff=  -0.0000000  -0.0000000  -0.0000000  -0.0000000  -0.0000000  -0.0000000  -0.0000000  -0.0000000  -0.0000000  -0.0000000
 NQMom=    0.0000000   0.0000000   0.0000000   0.0000000   0.0000000   0.0000000   0.0000000   0.0000000   0.0000000   0.0000000
 NMagM=    2.7928460   2.7928460   2.7928460   2.7928460   2.7928460   2.7928460   2.7928460   2.7928460   2.7928460   2.7928460
 AtZNuc=   1.0000000   1.0000000   1.0000000   1.0000000   1.0000000   1.0000000   1.0000000   1.0000000   1.0000000   1.0000000

  Atom       151         152         153         154         155         156         157         158
 IAtWgt=           1           1           1           1           1           1           1           1
 AtmWgt=   1.0078250   1.0078250   1.0078250   1.0078250   1.0078250   1.0078250   1.0078250   1.0078250
 NucSpn=           1           1           1           1           1           1           1           1
 AtZEff=  -0.0000000  -0.0000000  -0.0000000  -0.0000000  -0.0000000  -0.0000000  -0.0000000  -0.0000000
 NQMom=    0.0000000   0.0000000   0.0000000   0.0000000   0.0000000   0.0000000   0.0000000   0.0000000
 NMagM=    2.7928460   2.7928460   2.7928460   2.7928460   2.7928460   2.7928460   2.7928460   2.7928460
 AtZNuc=   1.0000000   1.0000000   1.0000000   1.0000000   1.0000000   1.0000000   1.0000000   1.0000000
 Leave Link  101 at Thu Sep  9 06:10:42 2021, MaxMem= 23488102400 cpu:               3.3 elap:               0.2
 (Enter /sw/apps/gaussian-16.0/g16/l202.exe)
 Stoichiometry    C68H72Mg2N8O8
 Framework group  C1[X(C68H72Mg2N8O8)]
 Deg. of freedom   468
 Full point group                 C1      NOp   1
 Largest Abelian subgroup         C1      NOp   1
 Largest concise Abelian subgroup C1      NOp   1
                         Standard orientation:                         
 ---------------------------------------------------------------------
 Center     Atomic      Atomic             Coordinates (Angstroms)
 Number     Number       Type             X           Y           Z
 ---------------------------------------------------------------------
      1         12           0       -3.380719   -1.845582    0.497498
      2          6           0       -4.625622    1.509432    0.576960
      3          6           0       -4.587530   -2.059743   -2.686966
      4          6           0       -2.698852   -4.941925    0.563355
      5          6           0       -3.302936   -1.742332    3.980162
      6          7           0       -4.450378   -0.391350   -0.783784
      7          6           0       -4.813676    0.881000   -0.656066
      8          6           0       -5.344569    1.507798   -1.979943
      9          6           0       -5.805742    0.174432   -2.722542
     10          6           0       -4.868631   -0.814024   -2.051199
     11          6           0       -7.244913   -0.227120   -2.415876
     12          6           0       -4.220713    2.249281   -2.779243
     13          6           0       -4.713658    3.159938   -3.907544
     14          1           0       -3.994107    4.396161   -4.174653
     15          7           0       -3.162848   -3.141146   -0.977933
     16          6           0       -3.712876   -3.061541   -2.213416
     17          6           0       -3.252805   -4.262943   -2.942559
     18          6           0       -2.545859   -5.142287   -1.970409
     19          6           0       -2.800315   -4.446936   -0.734643
     20          6           0       -3.453789   -4.459746   -4.413825
     21          6           0       -1.773794   -6.413926   -2.128465
     22          8           0       -1.439939   -7.135835   -1.127485
     23          6           0       -1.491458   -6.843644   -3.510012
     24          7           0       -3.254486   -3.239207    2.046533
     25          6           0       -2.883256   -4.502212    1.809907
     26          6           0       -2.590720   -5.233610    3.086394
     27          6           0       -2.605086   -4.130752    4.241060
     28          6           0       -3.006730   -2.901815    3.388614
     29          6           0       -3.564042   -6.363987    3.448201
     30          6           0       -1.341776   -4.029181    5.132211
     31          6           0       -0.174659   -3.526067    4.312568
     32          7           0       -3.699669   -0.339507    2.027548
     33          6           0       -3.637535   -0.522383    3.416566
     34          6           0       -4.032509    0.754811    4.038531
     35          6           0       -4.314791    1.592405    2.961221
     36          6           0       -4.134491    0.875475    1.743930
     37          6           0       -4.149549    1.000619    5.435068
     38          6           0       -4.750552    2.918911    2.555818
     39          8           0       -4.962494    3.979789    3.144978
     40          6           0       -5.086759    2.882082    0.999721
     41          6           0       -4.424230    4.073420    0.363263
     42          8           0       -3.180560    4.158253    0.304493
     43          8           0       -5.347050    4.803392   -0.281784
     44          6           0       -4.751081    5.985067   -0.960473
     45          1           0       -5.128189   -2.320807   -3.598818
     46          1           0       -2.357662   -5.977044    0.630854
     47          1           0       -3.220741   -1.609840    5.060506
     48          1           0       -6.195206    2.178278   -1.856256
     49          1           0       -5.608540    0.216112   -3.793568
     50          1           0       -7.675575    0.399462   -1.634950
     51          1           0       -7.193550   -1.264971   -2.086148
     52          1           0       -7.847971   -0.230805   -3.324218
     53          1           0       -3.654476    1.522365   -3.361507
     54          1           0       -3.582611    2.822660   -2.105902
     55          1           0       -5.784135    3.350880   -3.826738
     56          1           0       -4.604406    2.624713   -4.850835
     57          1           0       -4.148127   -3.727840   -4.824623
     58          1           0       -3.960652   -5.416130   -4.540821
     59          1           0       -2.510060   -4.468550   -4.959378
     60          1           0       -2.432082   -6.976377   -4.044948
     61          1           0       -0.854704   -7.723703   -3.427000
     62          1           0       -0.955622   -6.045992   -4.025357
     63          1           0       -1.608033   -5.702206    3.052215
     64          1           0       -3.418099   -4.290962    4.949591
     65          1           0       -3.080184   -7.331378    3.585095
     66          1           0       -4.325973   -6.414336    2.670886
     67          1           0       -4.170473   -6.178831    4.334416
     68          1           0       -1.066306   -5.012090    5.512937
     69          1           0       -1.470867   -3.366309    5.987891
     70          1           0        0.198151   -4.432878    3.837659
     71          1           0        0.583260   -3.084898    4.960749
     72          1           0       -0.505080   -2.855068    3.519430
     73          1           0       -3.697253    1.976372    5.611998
     74          1           0       -3.654661    0.223262    6.016793
     75          1           0       -5.232933    0.984430    5.552850
     76          1           0       -6.172075    2.922075    0.912482
     77          1           0       -5.278669    6.865696   -0.593898
     78          1           0       -4.790645    5.780474   -2.030511
     79          1           0       -3.724575    6.231338   -0.686656
     80         12           0        4.161931    0.497482   -0.344379
     81          6           0        2.341247    3.580992   -0.107463
     82          6           0        2.501283   -0.085376   -3.266213
     83          6           0        5.408285   -2.420383   -0.355192
     84          6           0        4.797398    0.771296    3.071304
     85          7           0        2.642182    1.671219   -1.442087
     86          6           0        2.072331    2.856859   -1.287603
     87          6           0        1.225837    3.326630   -2.500994
     88          6           0        0.896980    1.888709   -3.135907
     89          6           0        2.103790    1.110207   -2.616069
     90          6           0       -0.361584    1.253780   -2.568279
     91          6           0        2.049512    4.218624   -3.494936
     92          6           0        1.211232    4.964377   -4.535557
     93          1           0        1.638940    6.298465   -4.947569
     94          7           0        4.365939   -0.806404   -1.826545
     95          6           0        3.620305   -0.886138   -2.948582
     96          6           0        4.157659   -2.025337   -3.708619
     97          6           0        5.174125   -2.713154   -2.866943
     98          6           0        5.003520   -2.003576   -1.614949
     99          6           0        3.758662   -2.318916   -5.125665
    100          6           0        6.131258   -3.833770   -3.139543
    101          8           0        6.756482   -4.430537   -2.193079
    102          6           0        6.244403   -4.273789   -4.537786
    103          7           0        4.803534   -0.767305    1.175814
    104          6           0        5.354171   -1.961486    0.895332
    105          6           0        5.988052   -2.571661    2.122632
    106          6           0        5.959803   -1.424249    3.236287
    107          6           0        5.200592   -0.330504    2.453533
    108          6           0        5.307860   -3.827022    2.668330
    109          6           0        7.314714   -1.053213    3.899014
    110          6           0        8.223389   -0.397874    2.884010
    111          7           0        3.834723    1.989267    1.183882
    112          6           0        4.154805    1.889568    2.555625
    113          6           0        3.637349    3.107135    3.213042
    114          6           0        3.027049    3.825671    2.173939
    115          6           0        3.137424    3.097222    0.958751
    116          6           0        3.719984    3.400895    4.603365
    117          6           0        2.305226    5.029790    1.830766
    118          8           0        1.996085    6.058225    2.431179
    119          6           0        1.718321    4.866100    0.362720
    120          6           0        2.033651    6.119937   -0.406042
    121          8           0        3.211563    6.422612   -0.665892
    122          8           0        0.891016    6.637483   -0.892760
    123          6           0        1.153229    7.876563   -1.672340
    124          1           0        1.874180   -0.471983   -4.070064
    125          1           0        5.943329   -3.372302   -0.322831
    126          1           0        5.040887    0.977290    4.115791
    127          1           0        0.306359    3.838087   -2.242659
    128          1           0        0.905872    1.925179   -4.222163
    129          1           0       -0.763590    1.823547   -1.743717
    130          1           0       -0.069391    0.265440   -2.238378
    131          1           0       -1.097872    1.100969   -3.362545
    132          1           0        2.636336    3.568929   -4.156956
    133          1           0        2.665626    4.915374   -2.960538
    134          1           0        0.144094    4.964062   -4.282296
    135          1           0        1.262766    4.416819   -5.479775
    136          1           0        2.873298   -1.742892   -5.421841
    137          1           0        3.426128   -3.362200   -5.154630
    138          1           0        4.583022   -2.191049   -5.830474
    139          1           0        5.268515   -4.592714   -4.896104
    140          1           0        7.040762   -5.020533   -4.545622
    141          1           0        6.540088   -3.415737   -5.151739
    142          1           0        7.017175   -2.848480    1.929304
    143          1           0        5.322443   -1.699941    4.089290
    144          1           0        5.987213   -4.697751    2.734590
    145          1           0        4.457477   -4.055177    2.039590
    146          1           0        4.846972   -3.713702    3.648100
    147          1           0        7.829258   -1.955100    4.239613
    148          1           0        7.210573   -0.398198    4.757562
    149          1           0        8.669264   -1.251379    2.364571
    150          1           0        8.982842    0.202409    3.380931
    151          1           0        7.644672    0.170917    2.146993
    152          1           0        4.003241    4.441834    4.685341
    153          1           0        4.435589    2.752665    5.104841
    154          1           0        2.691458    3.190589    4.908616
    155          1           0        0.644056    4.702206    0.455778
    156          1           0        0.535753    8.666590   -1.233839
    157          1           0        0.957524    7.612054   -2.728500
    158          1           0        2.141477    8.315220   -1.598876
 ---------------------------------------------------------------------
 Rotational constants (GHZ):           0.0208801           0.0179430           0.0143984
 Leave Link  202 at Thu Sep  9 06:10:42 2021, MaxMem= 23488102400 cpu:               0.2 elap:               0.0
 (Enter /sw/apps/gaussian-16.0/g16/l301.exe)
 Standard basis: def2SVP (5D, 7F)
 Ernie: Thresh=  0.10000D-02 Tol=  0.10000D-05 Strict=F.
 There are  1658 symmetry adapted cartesian basis functions of A   symmetry.
 There are  1572 symmetry adapted basis functions of A   symmetry.
  1572 basis functions,  2678 primitive gaussians,  1658 cartesian basis functions
   312 alpha electrons      312 beta electrons
       nuclear repulsion energy     16073.3137368599 Hartrees.
 IExCor=20419 DFT=T Ex+Corr=CAM-B3LYP ExCW=0 ScaHFX=  1.000000
 ScaDFX=  1.000000  1.000000  1.000000  0.810000 ScalE2=  1.000000  1.000000
 IRadAn=      5 IRanWt=     -1 IRanGd=            0 ICorTp=0 IEmpDi=  4
 HFx  wShort=  0.000000 wLong=  0.330000 cFull=  0.190000 cShort=  0.000000 cLong=  0.460000
 DFx  wShort=  0.000000 wLong=  0.330000 cFull=  0.190000 cShort=  0.000000 cLong=  0.460000
 NAtoms=  158 NActive=  158 NUniq=  158 SFac= 1.00D+00 NAtFMM=   60 NAOKFM=T Big=T
 Integral buffers will be    131072 words long.
 Raffenetti 1 integral format.
 Two-electron integral symmetry is turned on.
 Leave Link  301 at Thu Sep  9 06:10:42 2021, MaxMem= 23488102400 cpu:               1.4 elap:               0.1
 (Enter /sw/apps/gaussian-16.0/g16/l302.exe)
 NPDir=0 NMtPBC=     1 NCelOv=     1 NCel=       1 NClECP=     1 NCelD=      1
         NCelK=      1 NCelE2=     1 NClLst=     1 CellRange=     0.0.
 One-electron integrals computed using PRISM.
 One-electron integral symmetry used in STVInt
   1 Symmetry operations used in ECPInt.
 ECPInt:  NShTT=  271216 NPrTT=  987664 LenC2=  165907 LenP2D=  348168.
 LDataN:  DoStor=T MaxTD1= 4 Len=   56
 NBasis=  1572 RedAO= T EigKep=  3.33D-04  NBF=  1572
 NBsUse=  1572 1.00D-06 EigRej= -1.00D+00 NBFU=  1572
 Precomputing XC quadrature grid using
 IXCGrd= 4 IRadAn=           5 IRanWt=          -1 IRanGd=           0 AccXCQ= 0.00D+00.
 Generated NRdTot=       0 NPtTot=           0 NUsed=           0 NTot=          32
 NSgBfM=  1405  1364  1380  1391  1405 MxSgAt=   158 MxSgA2=   158.
 Leave Link  302 at Thu Sep  9 06:10:48 2021, MaxMem= 23488102400 cpu:             136.0 elap:               5.7
 (Enter /sw/apps/gaussian-16.0/g16/l303.exe)
 DipDrv:  MaxL=1.
 Leave Link  303 at Thu Sep  9 06:10:48 2021, MaxMem= 23488102400 cpu:               9.6 elap:               0.5
 (Enter /sw/apps/gaussian-16.0/g16/l308.exe)
 Leave Link  308 at Thu Sep  9 06:10:49 2021, MaxMem= 23488102400 cpu:              13.5 elap:               0.7
 (Enter /sw/apps/gaussian-16.0/g16/l401.exe)
 ExpMin= 3.36D-02 ExpMax= 4.95D+03 ExpMxC= 7.45D+02 IAcc=3 IRadAn=         5 AccDes= 0.00D+00
 Harris functional with IExCor=20419 and IRadAn=       5 diagonalized for initial guess.
 HarFok:  IExCor=20419 AccDes= 0.00D+00 IRadAn=         5 IDoV= 1 UseB2=F ITyADJ=14
 ICtDFT=  3500011 ScaDFX=  1.000000  1.000000  1.000000  1.000000
 FoFCou: FMM=F IPFlag=           0 FMFlag=      100000 FMFlg1=        2001
         NFxFlg=           0 DoJE=T BraDBF=F KetDBF=T FulRan=T
         wScrn=  0.000000 ICntrl=       500 IOpCl=  0 I1Cent=   200000004 NGrid=           0
         NMat0=    1 NMatS0=      1 NMatT0=    0 NMatD0=    1 NMtDS0=    0 NMtDT0=    0
 Petite list used in FoFCou.
 Harris En= -3918.65916985220    
 JPrj=0 DoOrth=F DoCkMO=F.
 Leave Link  401 at Thu Sep  9 06:10:58 2021, MaxMem= 23488102400 cpu:             205.1 elap:               8.6
 (Enter /sw/apps/gaussian-16.0/g16/l502.exe)
 Integral symmetry usage will be decided dynamically.
 Closed shell SCF:
 Using DIIS extrapolation, IDIIS=  1040.
 NGot= 23488102400 LenX= 23482547354 LenY= 23479796732
 Requested convergence on RMS density matrix=1.00D-08 within 128 cycles.
 Requested convergence on MAX density matrix=1.00D-06.
 Requested convergence on             energy=1.00D-06.
 No special actions if energy rises.
 Fock matrices will be formed incrementally for  20 cycles.

 Cycle   1  Pass 1  IDiag  1:
 FoFJK:  IHMeth= 1 ICntrl=       0 DoSepK=T KAlg= 0 I1Cent=           0 FoldK=F
 IRaf=         1 NMat=       1 IRICut=       1 DoRegI=T DoRafI=F ISym2E= 0 IDoP0=0 IntGTp=1.
 FoFCou: FMM=T IPFlag=           0 FMFlag=      100000 FMFlg1=        2001
         NFxFlg=           0 DoJE=T BraDBF=F KetDBF=F FulRan=T
         wScrn=  0.000000 ICntrl=       500 IOpCl=  0 I1Cent=           0 NGrid=           0
         NMat0=    1 NMatS0=      1 NMatT0=    0 NMatD0=    1 NMtDS0=    0 NMtDT0=    0
 Symmetry not used in FoFCou.
 FMM levels:  10  Number of levels for PrismC:   9
 E= -4068.94768995925    
 DIIS: error= 1.94D-02 at cycle   1 NSaved=   1.
 NSaved= 1 IEnMin= 1 EnMin= -4068.94768995925     IErMin= 1 ErrMin= 1.94D-02
 ErrMax= 1.94D-02  0.00D+00 EMaxC= 1.00D-01 BMatC= 1.69D+00 BMatP= 1.69D+00
 IDIUse=3 WtCom= 8.06D-01 WtEn= 1.94D-01
 Coeff-Com:  0.100D+01
 Coeff-En:   0.100D+01
 Coeff:      0.100D+01
 Gap=     0.120 Goal=   None    Shift=    0.000
 GapD=    0.120 DampG=1.000 DampE=0.500 DampFc=0.5000 IDamp=-1.
 Damping current iteration by 5.00D-01
 RMSDP=1.58D-03 MaxDP=1.43D-01              OVMax= 2.14D-01

 Cycle   2  Pass 1  IDiag  1:
 RMSU=  7.74D-04    CP:  9.82D-01
 E= -4069.33634690356     Delta-E=       -0.388656944313 Rises=F Damp=T
 DIIS: error= 1.21D-02 at cycle   2 NSaved=   2.
 NSaved= 2 IEnMin= 2 EnMin= -4069.33634690356     IErMin= 2 ErrMin= 1.21D-02
 ErrMax= 1.21D-02  0.00D+00 EMaxC= 1.00D-01 BMatC= 3.07D-01 BMatP= 1.69D+00
 IDIUse=3 WtCom= 8.79D-01 WtEn= 1.21D-01
 Coeff-Com: -0.212D+00 0.121D+01
 Coeff-En:   0.000D+00 0.100D+01
 Coeff:     -0.187D+00 0.119D+01
 Gap=     0.133 Goal=   None    Shift=    0.000
 RMSDP=7.77D-04 MaxDP=9.87D-02 DE=-3.89D-01 OVMax= 1.98D-01

 Cycle   3  Pass 1  IDiag  1:
 RMSU=  7.46D-04    CP:  9.68D-01  1.23D+00
 E= -4069.61898787921     Delta-E=       -0.282640975645 Rises=F Damp=F
 DIIS: error= 1.52D-02 at cycle   3 NSaved=   3.
 NSaved= 3 IEnMin= 3 EnMin= -4069.61898787921     IErMin= 2 ErrMin= 1.21D-02
 ErrMax= 1.52D-02  0.00D+00 EMaxC= 1.00D-01 BMatC= 2.07D-01 BMatP= 3.07D-01
 IDIUse=3 WtCom= 8.48D-01 WtEn= 1.52D-01
 Coeff-Com: -0.268D+00 0.656D+00 0.612D+00
 Coeff-En:   0.000D+00 0.000D+00 0.100D+01
 Coeff:     -0.228D+00 0.556D+00 0.671D+00
 Gap=     0.118 Goal=   None    Shift=    0.000
 RMSDP=5.32D-04 MaxDP=4.67D-02 DE=-2.83D-01 OVMax= 1.65D-01

 Cycle   4  Pass 1  IDiag  1:
 RMSU=  2.75D-04    CP:  9.64D-01  1.55D+00  4.89D-01
 E= -4069.76074537707     Delta-E=       -0.141757497859 Rises=F Damp=F
 DIIS: error= 6.64D-03 at cycle   4 NSaved=   4.
 NSaved= 4 IEnMin= 4 EnMin= -4069.76074537707     IErMin= 4 ErrMin= 6.64D-03
 ErrMax= 6.64D-03  0.00D+00 EMaxC= 1.00D-01 BMatC= 5.20D-02 BMatP= 2.07D-01
 IDIUse=3 WtCom= 9.34D-01 WtEn= 6.64D-02
 Coeff-Com: -0.112D+00 0.233D+00 0.409D+00 0.470D+00
 Coeff-En:   0.000D+00 0.000D+00 0.230D+00 0.770D+00
 Coeff:     -0.104D+00 0.217D+00 0.397D+00 0.490D+00
 Gap=     0.118 Goal=   None    Shift=    0.000
 RMSDP=2.17D-04 MaxDP=1.74D-02 DE=-1.42D-01 OVMax= 7.92D-02

 Cycle   5  Pass 1  IDiag  1:
 RMSU=  8.48D-05    CP:  9.64D-01  1.48D+00  6.84D-01  5.31D-01
 E= -4069.81014537864     Delta-E=       -0.049400001575 Rises=F Damp=F
 DIIS: error= 6.50D-04 at cycle   5 NSaved=   5.
 NSaved= 5 IEnMin= 5 EnMin= -4069.81014537864     IErMin= 5 ErrMin= 6.50D-04
 ErrMax= 6.50D-04  0.00D+00 EMaxC= 1.00D-01 BMatC= 1.57D-03 BMatP= 5.20D-02
 IDIUse=3 WtCom= 9.93D-01 WtEn= 6.50D-03
 Coeff-Com: -0.416D-01 0.822D-01 0.183D+00 0.264D+00 0.512D+00
 Coeff-En:   0.000D+00 0.000D+00 0.000D+00 0.000D+00 0.100D+01
 Coeff:     -0.413D-01 0.817D-01 0.181D+00 0.263D+00 0.515D+00
 Gap=     0.117 Goal=   None    Shift=    0.000
 RMSDP=5.16D-05 MaxDP=5.17D-03 DE=-4.94D-02 OVMax= 2.51D-02

 Cycle   6  Pass 1  IDiag  1:
 RMSU=  3.57D-05    CP:  9.64D-01  1.49D+00  6.72D-01  6.15D-01  6.79D-01
 E= -4069.81168701302     Delta-E=       -0.001541634378 Rises=F Damp=F
 DIIS: error= 2.31D-04 at cycle   6 NSaved=   6.
 NSaved= 6 IEnMin= 6 EnMin= -4069.81168701302     IErMin= 6 ErrMin= 2.31D-04
 ErrMax= 2.31D-04  0.00D+00 EMaxC= 1.00D-01 BMatC= 2.48D-04 BMatP= 1.57D-03
 IDIUse=3 WtCom= 9.98D-01 WtEn= 2.31D-03
 Coeff-Com:  0.109D-02-0.452D-02 0.166D-01 0.466D-01 0.304D+00 0.636D+00
 Coeff-En:   0.000D+00 0.000D+00 0.000D+00 0.000D+00 0.136D+00 0.864D+00
 Coeff:      0.109D-02-0.451D-02 0.166D-01 0.464D-01 0.304D+00 0.636D+00
 Gap=     0.118 Goal=   None    Shift=    0.000
 RMSDP=1.97D-05 MaxDP=1.49D-03 DE=-1.54D-03 OVMax= 9.15D-03

 Cycle   7  Pass 1  IDiag  1:
 RMSU=  1.22D-05    CP:  9.64D-01  1.49D+00  6.79D-01  6.11D-01  8.06D-01
                    CP:  7.29D-01
 E= -4069.81197806077     Delta-E=       -0.000291047745 Rises=F Damp=F
 DIIS: error= 1.38D-04 at cycle   7 NSaved=   7.
 NSaved= 7 IEnMin= 7 EnMin= -4069.81197806077     IErMin= 7 ErrMin= 1.38D-04
 ErrMax= 1.38D-04  0.00D+00 EMaxC= 1.00D-01 BMatC= 3.29D-05 BMatP= 2.48D-04
 IDIUse=3 WtCom= 9.99D-01 WtEn= 1.38D-03
 Coeff-Com:  0.478D-02-0.106D-01-0.875D-02-0.277D-02 0.113D+00 0.346D+00
 Coeff-Com:  0.559D+00
 Coeff-En:   0.000D+00 0.000D+00 0.000D+00 0.000D+00 0.000D+00 0.000D+00
 Coeff-En:   0.100D+01
 Coeff:      0.477D-02-0.105D-01-0.874D-02-0.276D-02 0.112D+00 0.346D+00
 Coeff:      0.559D+00
 Gap=     0.118 Goal=   None    Shift=    0.000
 RMSDP=7.13D-06 MaxDP=1.13D-03 DE=-2.91D-04 OVMax= 3.48D-03

 Cycle   8  Pass 1  IDiag  1:
 RMSU=  5.18D-06    CP:  9.64D-01  1.49D+00  6.80D-01  6.16D-01  8.05D-01
                    CP:  8.40D-01  8.11D-01
 E= -4069.81201722324     Delta-E=       -0.000039162474 Rises=F Damp=F
 DIIS: error= 5.08D-05 at cycle   8 NSaved=   8.
 NSaved= 8 IEnMin= 8 EnMin= -4069.81201722324     IErMin= 8 ErrMin= 5.08D-05
 ErrMax= 5.08D-05  0.00D+00 EMaxC= 1.00D-01 BMatC= 5.10D-06 BMatP= 3.29D-05
 IDIUse=1 WtCom= 1.00D+00 WtEn= 0.00D+00
 Coeff-Com:  0.234D-02-0.466D-02-0.798D-02-0.121D-01-0.494D-02 0.323D-01
 Coeff-Com:  0.291D+00 0.704D+00
 Coeff:      0.234D-02-0.466D-02-0.798D-02-0.121D-01-0.494D-02 0.323D-01
 Coeff:      0.291D+00 0.704D+00
 Gap=     0.118 Goal=   None    Shift=    0.000
 RMSDP=3.61D-06 MaxDP=4.54D-04 DE=-3.92D-05 OVMax= 1.35D-03

 Cycle   9  Pass 1  IDiag  1:
 RMSU=  2.16D-06    CP:  9.64D-01  1.49D+00  6.80D-01  6.18D-01  8.21D-01
                    CP:  8.71D-01  9.93D-01  9.88D-01
 E= -4069.81202561747     Delta-E=       -0.000008394229 Rises=F Damp=F
 DIIS: error= 1.63D-05 at cycle   9 NSaved=   9.
 NSaved= 9 IEnMin= 9 EnMin= -4069.81202561747     IErMin= 9 ErrMin= 1.63D-05
 ErrMax= 1.63D-05  0.00D+00 EMaxC= 1.00D-01 BMatC= 9.86D-07 BMatP= 5.10D-06
 IDIUse=1 WtCom= 1.00D+00 WtEn= 0.00D+00
 Coeff-Com:  0.563D-03-0.956D-03-0.298D-02-0.639D-02-0.185D-01-0.419D-01
 Coeff-Com:  0.820D-01 0.371D+00 0.617D+00
 Coeff:      0.563D-03-0.956D-03-0.298D-02-0.639D-02-0.185D-01-0.419D-01
 Coeff:      0.820D-01 0.371D+00 0.617D+00
 Gap=     0.118 Goal=   None    Shift=    0.000
 RMSDP=1.60D-06 MaxDP=1.52D-04 DE=-8.39D-06 OVMax= 7.93D-04

 Cycle  10  Pass 1  IDiag  1:
 RMSU=  1.06D-06    CP:  9.64D-01  1.49D+00  6.80D-01  6.18D-01  8.25D-01
                    CP:  8.81D-01  1.04D+00  1.16D+00  1.03D+00
 E= -4069.81202770021     Delta-E=       -0.000002082736 Rises=F Damp=F
 DIIS: error= 8.89D-06 at cycle  10 NSaved=  10.
 NSaved=10 IEnMin=10 EnMin= -4069.81202770021     IErMin=10 ErrMin= 8.89D-06
 ErrMax= 8.89D-06  0.00D+00 EMaxC= 1.00D-01 BMatC= 2.05D-07 BMatP= 9.86D-07
 IDIUse=1 WtCom= 1.00D+00 WtEn= 0.00D+00
 Coeff-Com: -0.414D-03 0.884D-03 0.109D-02 0.728D-03-0.411D-02-0.328D-01
 Coeff-Com: -0.406D-01-0.464D-01 0.223D+00 0.898D+00
 Coeff:     -0.414D-03 0.884D-03 0.109D-02 0.728D-03-0.411D-02-0.328D-01
 Coeff:     -0.406D-01-0.464D-01 0.223D+00 0.898D+00
 Gap=     0.118 Goal=   None    Shift=    0.000
 RMSDP=1.33D-06 MaxDP=1.25D-04 DE=-2.08D-06 OVMax= 7.29D-04

 Cycle  11  Pass 1  IDiag  1:
 RMSU=  6.29D-07    CP:  9.64D-01  1.49D+00  6.80D-01  6.19D-01  8.27D-01
                    CP:  8.89D-01  1.08D+00  1.27D+00  1.37D+00  1.30D+00
 E= -4069.81202864311     Delta-E=       -0.000000942906 Rises=F Damp=F
 DIIS: error= 4.38D-06 at cycle  11 NSaved=  11.
 NSaved=11 IEnMin=11 EnMin= -4069.81202864311     IErMin=11 ErrMin= 4.38D-06
 ErrMax= 4.38D-06  0.00D+00 EMaxC= 1.00D-01 BMatC= 1.05D-07 BMatP= 2.05D-07
 IDIUse=1 WtCom= 1.00D+00 WtEn= 0.00D+00
 Coeff-Com: -0.392D-03 0.769D-03 0.148D-02 0.217D-02 0.391D-02-0.108D-01
 Coeff-Com: -0.422D-01-0.132D+00-0.489D-01 0.550D+00 0.675D+00
 Coeff:     -0.392D-03 0.769D-03 0.148D-02 0.217D-02 0.391D-02-0.108D-01
 Coeff:     -0.422D-01-0.132D+00-0.489D-01 0.550D+00 0.675D+00
 Gap=     0.118 Goal=   None    Shift=    0.000
 RMSDP=7.97D-07 MaxDP=7.76D-05 DE=-9.43D-07 OVMax= 4.39D-04

 Cycle  12  Pass 1  IDiag  1:
 RMSU=  3.07D-07    CP:  9.64D-01  1.49D+00  6.80D-01  6.19D-01  8.28D-01
                    CP:  8.92D-01  1.10D+00  1.34D+00  1.52D+00  1.71D+00
                    CP:  1.13D+00
 E= -4069.81202900774     Delta-E=       -0.000000364631 Rises=F Damp=F
 DIIS: error= 2.96D-06 at cycle  12 NSaved=  12.
 NSaved=12 IEnMin=12 EnMin= -4069.81202900774     IErMin=12 ErrMin= 2.96D-06
 ErrMax= 2.96D-06  0.00D+00 EMaxC= 1.00D-01 BMatC= 2.43D-08 BMatP= 1.05D-07
 IDIUse=1 WtCom= 1.00D+00 WtEn= 0.00D+00
 Coeff-Com: -0.580D-04 0.952D-04 0.405D-03 0.815D-03 0.409D-02 0.280D-02
 Coeff-Com: -0.316D-02-0.488D-01-0.905D-01 0.244D-01 0.269D+00 0.841D+00
 Coeff:     -0.580D-04 0.952D-04 0.405D-03 0.815D-03 0.409D-02 0.280D-02
 Coeff:     -0.316D-02-0.488D-01-0.905D-01 0.244D-01 0.269D+00 0.841D+00
 Gap=     0.118 Goal=   None    Shift=    0.000
 RMSDP=4.80D-07 MaxDP=2.68D-05 DE=-3.65D-07 OVMax= 2.72D-04

 Cycle  13  Pass 1  IDiag  1:
 RMSU=  1.79D-07    CP:  9.64D-01  1.49D+00  6.80D-01  6.19D-01  8.28D-01
                    CP:  8.92D-01  1.11D+00  1.37D+00  1.63D+00  1.92D+00
                    CP:  1.52D+00  1.22D+00
 E= -4069.81202913135     Delta-E=       -0.000000123608 Rises=F Damp=F
 DIIS: error= 1.66D-06 at cycle  13 NSaved=  13.
 NSaved=13 IEnMin=13 EnMin= -4069.81202913135     IErMin=13 ErrMin= 1.66D-06
 ErrMax= 1.66D-06  0.00D+00 EMaxC= 1.00D-01 BMatC= 1.13D-08 BMatP= 2.43D-08
 IDIUse=1 WtCom= 1.00D+00 WtEn= 0.00D+00
 Coeff-Com:  0.120D-03-0.248D-03-0.345D-03-0.406D-03 0.111D-02 0.483D-02
 Coeff-Com:  0.170D-01 0.227D-01-0.359D-01-0.219D+00-0.179D+00 0.510D+00
 Coeff-Com:  0.879D+00
 Coeff:      0.120D-03-0.248D-03-0.345D-03-0.406D-03 0.111D-02 0.483D-02
 Coeff:      0.170D-01 0.227D-01-0.359D-01-0.219D+00-0.179D+00 0.510D+00
 Coeff:      0.879D+00
 Gap=     0.118 Goal=   None    Shift=    0.000
 RMSDP=4.20D-07 MaxDP=2.28D-05 DE=-1.24D-07 OVMax= 2.64D-04

 Cycle  14  Pass 1  IDiag  1:
 RMSU=  8.81D-08    CP:  9.64D-01  1.49D+00  6.80D-01  6.19D-01  8.29D-01
                    CP:  8.93D-01  1.12D+00  1.40D+00  1.71D+00  2.14D+00
                    CP:  1.78D+00  1.75D+00  1.23D+00
 E= -4069.81202918666     Delta-E=       -0.000000055312 Rises=F Damp=F
 DIIS: error= 8.06D-07 at cycle  14 NSaved=  14.
 NSaved=14 IEnMin=14 EnMin= -4069.81202918666     IErMin=14 ErrMin= 8.06D-07
 ErrMax= 8.06D-07  0.00D+00 EMaxC= 1.00D-01 BMatC= 1.79D-09 BMatP= 1.13D-08
 IDIUse=1 WtCom= 1.00D+00 WtEn= 0.00D+00
 Coeff-Com:  0.763D-04-0.151D-03-0.273D-03-0.418D-03-0.332D-03 0.122D-02
 Coeff-Com:  0.985D-02 0.220D-01 0.628D-02-0.104D+00-0.154D+00 0.382D-01
 Coeff-Com:  0.429D+00 0.751D+00
 Coeff:      0.763D-04-0.151D-03-0.273D-03-0.418D-03-0.332D-03 0.122D-02
 Coeff:      0.985D-02 0.220D-01 0.628D-02-0.104D+00-0.154D+00 0.382D-01
 Coeff:      0.429D+00 0.751D+00
 Gap=     0.118 Goal=   None    Shift=    0.000
 RMSDP=1.39D-07 MaxDP=7.04D-06 DE=-5.53D-08 OVMax= 7.96D-05

 Cycle  15  Pass 1  IDiag  1:
 RMSU=  4.32D-08    CP:  9.64D-01  1.49D+00  6.80D-01  6.19D-01  8.29D-01
                    CP:  8.92D-01  1.12D+00  1.40D+00  1.73D+00  2.19D+00
                    CP:  1.90D+00  1.93D+00  1.49D+00  1.07D+00
 E= -4069.81202919310     Delta-E=       -0.000000006439 Rises=F Damp=F
 DIIS: error= 4.06D-07 at cycle  15 NSaved=  15.
 NSaved=15 IEnMin=15 EnMin= -4069.81202919310     IErMin=15 ErrMin= 4.06D-07
 ErrMax= 4.06D-07  0.00D+00 EMaxC= 1.00D-01 BMatC= 2.92D-10 BMatP= 1.79D-09
 IDIUse=1 WtCom= 1.00D+00 WtEn= 0.00D+00
 Coeff-Com:  0.116D-04-0.212D-04-0.548D-04-0.115D-03-0.298D-03-0.486D-03
 Coeff-Com:  0.152D-02 0.452D-02 0.935D-02-0.624D-02-0.335D-01-0.718D-01
 Coeff-Com:  0.485D-01 0.323D+00 0.726D+00
 Coeff:      0.116D-04-0.212D-04-0.548D-04-0.115D-03-0.298D-03-0.486D-03
 Coeff:      0.152D-02 0.452D-02 0.935D-02-0.624D-02-0.335D-01-0.718D-01
 Coeff:      0.485D-01 0.323D+00 0.726D+00
 Gap=     0.118 Goal=   None    Shift=    0.000
 RMSDP=3.88D-08 MaxDP=2.18D-06 DE=-6.44D-09 OVMax= 2.92D-05

 Cycle  16  Pass 1  IDiag  1:
 RMSU=  2.06D-08    CP:  9.64D-01  1.49D+00  6.80D-01  6.19D-01  8.29D-01
                    CP:  8.92D-01  1.12D+00  1.41D+00  1.73D+00  2.20D+00
                    CP:  1.92D+00  1.97D+00  1.57D+00  1.25D+00  1.12D+00
 E= -4069.81202919414     Delta-E=       -0.000000001044 Rises=F Damp=F
 DIIS: error= 1.88D-07 at cycle  16 NSaved=  16.
 NSaved=16 IEnMin=16 EnMin= -4069.81202919414     IErMin=16 ErrMin= 1.88D-07
 ErrMax= 1.88D-07  0.00D+00 EMaxC= 1.00D-01 BMatC= 1.08D-10 BMatP= 2.92D-10
 IDIUse=1 WtCom= 1.00D+00 WtEn= 0.00D+00
 Coeff-Com: -0.135D-04 0.275D-04 0.419D-04 0.431D-04-0.605D-04-0.625D-03
 Coeff-Com: -0.159D-02-0.386D-02 0.397D-02 0.224D-01 0.227D-01-0.530D-01
 Coeff-Com: -0.808D-01-0.359D-01 0.375D+00 0.752D+00
 Coeff:     -0.135D-04 0.275D-04 0.419D-04 0.431D-04-0.605D-04-0.625D-03
 Coeff:     -0.159D-02-0.386D-02 0.397D-02 0.224D-01 0.227D-01-0.530D-01
 Coeff:     -0.808D-01-0.359D-01 0.375D+00 0.752D+00
 Gap=     0.118 Goal=   None    Shift=    0.000
 RMSDP=2.60D-08 MaxDP=1.61D-06 DE=-1.04D-09 OVMax= 1.52D-05

 Cycle  17  Pass 1  IDiag  1:
 RMSU=  1.17D-08    CP:  9.64D-01  1.49D+00  6.80D-01  6.19D-01  8.29D-01
                    CP:  8.92D-01  1.12D+00  1.41D+00  1.74D+00  2.21D+00
                    CP:  1.93D+00  1.99D+00  1.62D+00  1.34D+00  1.41D+00
                    CP:  1.22D+00
 E= -4069.81202919420     Delta-E=       -0.000000000055 Rises=F Damp=F
 DIIS: error= 8.68D-08 at cycle  17 NSaved=  17.
 NSaved=17 IEnMin=17 EnMin= -4069.81202919420     IErMin=17 ErrMin= 8.68D-08
 ErrMax= 8.68D-08  0.00D+00 EMaxC= 1.00D-01 BMatC= 2.27D-11 BMatP= 1.08D-10
 IDIUse=1 WtCom= 1.00D+00 WtEn= 0.00D+00
 Coeff-Com: -0.867D-05 0.170D-04 0.322D-04 0.451D-04 0.669D-04-0.162D-03
 Coeff-Com: -0.915D-03-0.305D-02-0.151D-03 0.103D-01 0.189D-01-0.640D-02
 Coeff-Com: -0.403D-01-0.975D-01-0.142D-01 0.306D+00 0.827D+00
 Coeff:     -0.867D-05 0.170D-04 0.322D-04 0.451D-04 0.669D-04-0.162D-03
 Coeff:     -0.915D-03-0.305D-02-0.151D-03 0.103D-01 0.189D-01-0.640D-02
 Coeff:     -0.403D-01-0.975D-01-0.142D-01 0.306D+00 0.827D+00
 Gap=     0.118 Goal=   None    Shift=    0.000
 RMSDP=1.42D-08 MaxDP=8.88D-07 DE=-5.46D-11 OVMax= 9.97D-06

 Cycle  18  Pass 1  IDiag  1:
 RMSU=  5.73D-09    CP:  9.64D-01  1.49D+00  6.80D-01  6.19D-01  8.29D-01
                    CP:  8.92D-01  1.12D+00  1.41D+00  1.74D+00  2.21D+00
                    CP:  1.93D+00  2.00D+00  1.64D+00  1.40D+00  1.56D+00
                    CP:  1.59D+00  1.35D+00
 E= -4069.81202919441     Delta-E=       -0.000000000207 Rises=F Damp=F
 DIIS: error= 6.31D-08 at cycle  18 NSaved=  18.
 NSaved=18 IEnMin=18 EnMin= -4069.81202919441     IErMin=18 ErrMin= 6.31D-08
 ErrMax= 6.31D-08  0.00D+00 EMaxC= 1.00D-01 BMatC= 9.22D-12 BMatP= 2.27D-11
 IDIUse=1 WtCom= 1.00D+00 WtEn= 0.00D+00
 Coeff-Com:  0.419D-06-0.120D-05 0.144D-05 0.633D-05 0.685D-04 0.137D-03
 Coeff-Com:  0.189D-03-0.222D-03-0.118D-02-0.334D-02 0.161D-02 0.140D-01
 Coeff-Com:  0.123D-01-0.364D-01-0.141D+00-0.142D+00 0.398D+00 0.899D+00
 Coeff:      0.419D-06-0.120D-05 0.144D-05 0.633D-05 0.685D-04 0.137D-03
 Coeff:      0.189D-03-0.222D-03-0.118D-02-0.334D-02 0.161D-02 0.140D-01
 Coeff:      0.123D-01-0.364D-01-0.141D+00-0.142D+00 0.398D+00 0.899D+00
 Gap=     0.118 Goal=   None    Shift=    0.000
 RMSDP=1.12D-08 MaxDP=6.12D-07 DE=-2.07D-10 OVMax= 6.57D-06

 Cycle  19  Pass 1  IDiag  1:
 RMSU=  3.19D-09    CP:  9.64D-01  1.49D+00  6.80D-01  6.19D-01  8.29D-01
                    CP:  8.92D-01  1.12D+00  1.41D+00  1.74D+00  2.21D+00
                    CP:  1.94D+00  2.01D+00  1.65D+00  1.43D+00  1.69D+00
                    CP:  1.86D+00  1.86D+00  1.24D+00
 E= -4069.81202919430     Delta-E=        0.000000000106 Rises=F Damp=F
 DIIS: error= 3.10D-08 at cycle  19 NSaved=  19.
 NSaved=19 IEnMin=18 EnMin= -4069.81202919441     IErMin=19 ErrMin= 3.10D-08
 ErrMax= 3.10D-08  0.00D+00 EMaxC= 1.00D-01 BMatC= 2.45D-12 BMatP= 9.22D-12
 IDIUse=1 WtCom= 1.00D+00 WtEn= 0.00D+00
 Coeff-Com:  0.312D-05-0.633D-05-0.998D-05-0.117D-04 0.235D-04 0.133D-03
 Coeff-Com:  0.441D-03 0.860D-03-0.593D-03-0.592D-02-0.555D-02 0.100D-01
 Coeff-Com:  0.225D-01 0.118D-01-0.782D-01-0.197D+00-0.308D-01 0.506D+00
 Coeff-Com:  0.766D+00
 Coeff:      0.312D-05-0.633D-05-0.998D-05-0.117D-04 0.235D-04 0.133D-03
 Coeff:      0.441D-03 0.860D-03-0.593D-03-0.592D-02-0.555D-02 0.100D-01
 Coeff:      0.225D-01 0.118D-01-0.782D-01-0.197D+00-0.308D-01 0.506D+00
 Coeff:      0.766D+00
 Gap=     0.118 Goal=   None    Shift=    0.000
 RMSDP=6.27D-09 MaxDP=5.40D-07 DE= 1.06D-10 OVMax= 4.29D-06

 SCF Done:  E(RCAM-B3LYP) =  -4069.81202919     A.U. after   19 cycles
            NFock= 19  Conv=0.63D-08     -V/T= 2.0102
 KE= 4.028792255665D+03 PE=-4.162780739328D+04 EE= 1.745588937156D+04
 Leave Link  502 at Thu Sep  9 06:24:02 2021, MaxMem= 23488102400 cpu:           18157.0 elap:             784.1
 (Enter /sw/apps/gaussian-16.0/g16/l801.exe)
 DoSCS=F DFT=T ScalE2(SS,OS)=  1.000000  1.000000
 ExpMin= 3.36D-02 ExpMax= 4.95D+03 ExpMxC= 7.45D+02 IAcc=3 IRadAn=         5 AccDes= 0.00D+00
 HarFok:  IExCor=  205 AccDes= 0.00D+00 IRadAn=         5 IDoV=-2 UseB2=F ITyADJ=14
 ICtDFT= 12500011 ScaDFX=  1.000000  1.000000  1.000000  1.000000
 GSVD:  LWork=       -9588 too small for GESVD, short by       45590 words or       45590 for optimal perf.
 Largest valence mixing into a core orbital is  2.03D-04
 Largest core mixing into a valence orbital is  5.24D-05
 Range of M.O.s used for correlation:    95  1572
 NBasis=  1572 NAE=   312 NBE=   312 NFC=    94 NFV=     0
 NROrb=   1478 NOA=   218 NOB=   218 NVA=  1260 NVB=  1260
 Leave Link  801 at Thu Sep  9 06:24:02 2021, MaxMem= 23488102400 cpu:               8.4 elap:               0.4
 (Enter /sw/apps/gaussian-16.0/g16/l914.exe)
 RHF ground state
 Two-electron integrals replicated using symmetry.
 MDV= 23488102400 DFT=T DoStab=F Mixed=T DoRPA=T DoScal=F NonHer=T
 Making orbital integer symmetry assigments:
 Orbital symmetries:
       Occupied  (A) (A) (A) (A) (A) (A) (A) (A) (A) (A) (A) (A)
                 (A) (A) (A) (A) (A) (A) (A) (A) (A) (A) (A) (A)
                 (A) (A) (A) (A) (A) (A) (A) (A) (A) (A) (A) (A)
                 (A) (A) (A) (A) (A) (A) (A) (A) (A) (A) (A) (A)
                 (A) (A) (A) (A) (A) (A) (A) (A) (A) (A) (A) (A)
                 (A) (A) (A) (A) (A) (A) (A) (A) (A) (A) (A) (A)
                 (A) (A) (A) (A) (A) (A) (A) (A) (A) (A) (A) (A)
                 (A) (A) (A) (A) (A) (A) (A) (A) (A) (A) (A) (A)
                 (A) (A) (A) (A) (A) (A) (A) (A) (A) (A) (A) (A)
                 (A) (A) (A) (A) (A) (A) (A) (A) (A) (A) (A) (A)
                 (A) (A) (A) (A) (A) (A) (A) (A) (A) (A) (A) (A)
                 (A) (A) (A) (A) (A) (A) (A) (A) (A) (A) (A) (A)
                 (A) (A) (A) (A) (A) (A) (A) (A) (A) (A) (A) (A)
                 (A) (A) (A) (A) (A) (A) (A) (A) (A) (A) (A) (A)
                 (A) (A) (A) (A) (A) (A) (A) (A) (A) (A) (A) (A)
                 (A) (A) (A) (A) (A) (A) (A) (A) (A) (A) (A) (A)
                 (A) (A) (A) (A) (A) (A) (A) (A) (A) (A) (A) (A)
                 (A) (A) (A) (A) (A) (A) (A) (A) (A) (A) (A) (A)
                 (A) (A) (A) (A) (A) (A) (A) (A) (A) (A) (A) (A)
                 (A) (A) (A) (A) (A) (A) (A) (A) (A) (A) (A) (A)
                 (A) (A) (A) (A) (A) (A) (A) (A) (A) (A) (A) (A)
                 (A) (A) (A) (A) (A) (A) (A) (A) (A) (A) (A) (A)
                 (A) (A) (A) (A) (A) (A) (A) (A) (A) (A) (A) (A)
                 (A) (A) (A) (A) (A) (A) (A) (A) (A) (A) (A) (A)
                 (A) (A) (A) (A) (A) (A) (A) (A) (A) (A) (A) (A)
                 (A) (A) (A) (A) (A) (A) (A) (A) (A) (A) (A) (A)
       Virtual   (A) (A) (A) (A) (A) (A) (A) (A) (A) (A) (A) (A)
                 (A) (A) (A) (A) (A) (A) (A) (A) (A) (A) (A) (A)
                 (A) (A) (A) (A) (A) (A) (A) (A) (A) (A) (A) (A)
                 (A) (A) (A) (A) (A) (A) (A) (A) (A) (A) (A) (A)
                 (A) (A) (A) (A) (A) (A) (A) (A) (A) (A) (A) (A)
                 (A) (A) (A) (A) (A) (A) (A) (A) (A) (A) (A) (A)
                 (A) (A) (A) (A) (A) (A) (A) (A) (A) (A) (A) (A)
                 (A) (A) (A) (A) (A) (A) (A) (A) (A) (A) (A) (A)
                 (A) (A) (A) (A) (A) (A) (A) (A) (A) (A) (A) (A)
                 (A) (A) (A) (A) (A) (A) (A) (A) (A) (A) (A) (A)
                 (A) (A) (A) (A) (A) (A) (A) (A) (A) (A) (A) (A)
                 (A) (A) (A) (A) (A) (A) (A) (A) (A) (A) (A) (A)
                 (A) (A) (A) (A) (A) (A) (A) (A) (A) (A) (A) (A)
                 (A) (A) (A) (A) (A) (A) (A) (A) (A) (A) (A) (A)
                 (A) (A) (A) (A) (A) (A) (A) (A) (A) (A) (A) (A)
                 (A) (A) (A) (A) (A) (A) (A) (A) (A) (A) (A) (A)
                 (A) (A) (A) (A) (A) (A) (A) (A) (A) (A) (A) (A)
                 (A) (A) (A) (A) (A) (A) (A) (A) (A) (A) (A) (A)
                 (A) (A) (A) (A) (A) (A) (A) (A) (A) (A) (A) (A)
                 (A) (A) (A) (A) (A) (A) (A) (A) (A) (A) (A) (A)
                 (A) (A) (A) (A) (A) (A) (A) (A) (A) (A) (A) (A)
                 (A) (A) (A) (A) (A) (A) (A) (A) (A) (A) (A) (A)
                 (A) (A) (A) (A) (A) (A) (A) (A) (A) (A) (A) (A)
                 (A) (A) (A) (A) (A) (A) (A) (A) (A) (A) (A) (A)
                 (A) (A) (A) (A) (A) (A) (A) (A) (A) (A) (A) (A)
                 (A) (A) (A) (A) (A) (A) (A) (A) (A) (A) (A) (A)
                 (A) (A) (A) (A) (A) (A) (A) (A) (A) (A) (A) (A)
                 (A) (A) (A) (A) (A) (A) (A) (A) (A) (A) (A) (A)
                 (A) (A) (A) (A) (A) (A) (A) (A) (A) (A) (A) (A)
                 (A) (A) (A) (A) (A) (A) (A) (A) (A) (A) (A) (A)
                 (A) (A) (A) (A) (A) (A) (A) (A) (A) (A) (A) (A)
                 (A) (A) (A) (A) (A) (A) (A) (A) (A) (A) (A) (A)
                 (A) (A) (A) (A) (A) (A) (A) (A) (A) (A) (A) (A)
                 (A) (A) (A) (A) (A) (A) (A) (A) (A) (A) (A) (A)
                 (A) (A) (A) (A) (A) (A) (A) (A) (A) (A) (A) (A)
                 (A) (A) (A) (A) (A) (A) (A) (A) (A) (A) (A) (A)
                 (A) (A) (A) (A) (A) (A) (A) (A) (A) (A) (A) (A)
                 (A) (A) (A) (A) (A) (A) (A) (A) (A) (A) (A) (A)
                 (A) (A) (A) (A) (A) (A) (A) (A) (A) (A) (A) (A)
                 (A) (A) (A) (A) (A) (A) (A) (A) (A) (A) (A) (A)
                 (A) (A) (A) (A) (A) (A) (A) (A) (A) (A) (A) (A)
                 (A) (A) (A) (A) (A) (A) (A) (A) (A) (A) (A) (A)
                 (A) (A) (A) (A) (A) (A) (A) (A) (A) (A) (A) (A)
                 (A) (A) (A) (A) (A) (A) (A) (A) (A) (A) (A) (A)
                 (A) (A) (A) (A) (A) (A) (A) (A) (A) (A) (A) (A)
                 (A) (A) (A) (A) (A) (A) (A) (A) (A) (A) (A) (A)
                 (A) (A) (A) (A) (A) (A) (A) (A) (A) (A) (A) (A)
                 (A) (A) (A) (A) (A) (A) (A) (A) (A) (A) (A) (A)
                 (A) (A) (A) (A) (A) (A) (A) (A) (A) (A) (A) (A)
                 (A) (A) (A) (A) (A) (A) (A) (A) (A) (A) (A) (A)
                 (A) (A) (A) (A) (A) (A) (A) (A) (A) (A) (A) (A)
                 (A) (A) (A) (A) (A) (A) (A) (A) (A) (A) (A) (A)
                 (A) (A) (A) (A) (A) (A) (A) (A) (A) (A) (A) (A)
                 (A) (A) (A) (A) (A) (A) (A) (A) (A) (A) (A) (A)
                 (A) (A) (A) (A) (A) (A) (A) (A) (A) (A) (A) (A)
                 (A) (A) (A) (A) (A) (A) (A) (A) (A) (A) (A) (A)
                 (A) (A) (A) (A) (A) (A) (A) (A) (A) (A) (A) (A)
                 (A) (A) (A) (A) (A) (A) (A) (A) (A) (A) (A) (A)
                 (A) (A) (A) (A) (A) (A) (A) (A) (A) (A) (A) (A)
                 (A) (A) (A) (A) (A) (A) (A) (A) (A) (A) (A) (A)
                 (A) (A) (A) (A) (A) (A) (A) (A) (A) (A) (A) (A)
                 (A) (A) (A) (A) (A) (A) (A) (A) (A) (A) (A) (A)
                 (A) (A) (A) (A) (A) (A) (A) (A) (A) (A) (A) (A)
                 (A) (A) (A) (A) (A) (A) (A) (A) (A) (A) (A) (A)
                 (A) (A) (A) (A) (A) (A) (A) (A) (A) (A) (A) (A)
                 (A) (A) (A) (A) (A) (A) (A) (A) (A) (A) (A) (A)
                 (A) (A) (A) (A) (A) (A) (A) (A) (A) (A) (A) (A)
                 (A) (A) (A) (A) (A) (A) (A) (A) (A) (A) (A) (A)
                 (A) (A) (A) (A) (A) (A) (A) (A) (A) (A) (A) (A)
                 (A) (A) (A) (A) (A) (A) (A) (A) (A) (A) (A) (A)
                 (A) (A) (A) (A) (A) (A) (A) (A) (A) (A) (A) (A)
                 (A) (A) (A) (A) (A) (A) (A) (A) (A) (A) (A) (A)
                 (A) (A) (A) (A) (A) (A) (A) (A) (A) (A) (A) (A)
                 (A) (A) (A) (A) (A) (A) (A) (A) (A) (A) (A) (A)
                 (A) (A) (A) (A) (A) (A) (A) (A) (A) (A) (A) (A)
                 (A) (A) (A) (A) (A) (A) (A) (A) (A) (A) (A) (A)
                 (A) (A) (A) (A) (A) (A) (A) (A) (A) (A) (A) (A)
                 (A) (A) (A) (A) (A) (A) (A) (A) (A) (A) (A) (A)
                 (A) (A) (A) (A) (A) (A) (A) (A) (A) (A) (A) (A)
                 (A) (A) (A) (A) (A) (A) (A) (A) (A) (A) (A) (A)
                 (A) (A) (A) (A) (A) (A) (A) (A) (A) (A) (A) (A)
                 (A) (A) (A) (A) (A) (A) (A) (A) (A) (A) (A) (A)
                 (A) (A) (A) (A) (A) (A) (A) (A) (A) (A) (A) (A)
                 (A) (A) (A) (A) (A) (A) (A) (A) (A) (A) (A) (A)
                 (A) (A) (A) (A) (A) (A) (A) (A) (A) (A) (A) (A)
                 (A) (A) (A) (A) (A) (A) (A) (A) (A) (A) (A) (A)
                 (A) (A) (A) (A) (A) (A) (A) (A) (A) (A) (A) (A)
                 (A) (A) (A) (A) (A) (A) (A) (A) (A) (A) (A) (A)
                 (A) (A) (A) (A) (A) (A) (A) (A) (A) (A) (A) (A)
                 (A) (A) (A) (A) (A) (A) (A) (A) (A) (A) (A) (A)
                 (A) (A) (A) (A) (A) (A) (A) (A) (A) (A) (A) (A)
                 (A) (A) (A) (A) (A) (A) (A) (A) (A) (A) (A) (A)
                 (A) (A) (A) (A) (A) (A) (A) (A) (A) (A) (A) (A)
                 (A) (A) (A) (A) (A) (A) (A) (A) (A) (A) (A) (A)
                 (A) (A) (A) (A) (A) (A) (A) (A) (A) (A) (A) (A)
                 (A) (A) (A) (A) (A) (A) (A) (A) (A) (A) (A) (A)
                 (A) (A) (A) (A) (A) (A) (A) (A) (A) (A) (A) (A)
                 (A) (A) (A) (A) (A) (A) (A) (A) (A) (A) (A) (A)
                 (A) (A) (A) (A) (A) (A) (A) (A) (A) (A) (A) (A)
                 (A) (A) (A) (A) (A) (A) (A) (A) (A) (A) (A) (A)
                 (A) (A) (A) (A) (A) (A) (A) (A) (A) (A) (A) (A)
                 (A) (A) (A) (A) (A) (A) (A) (A) (A) (A) (A) (A)
                 (A) (A) (A) (A) (A) (A) (A) (A) (A) (A) (A) (A)
                 (A) (A) (A) (A) (A) (A) (A) (A) (A) (A) (A) (A)
                 (A) (A) (A) (A) (A) (A) (A) (A) (A) (A) (A) (A)
    20 initial guesses have been made.
 Convergence on wavefunction:    0.001000000000000
 Davidson Disk Diagonalization:  ConvIn= 1.00D-03 SkipCon=T Conv= 1.00D-03.
 Max sub-space:  2000 roots to seek:    20 dimension of matrix:       549360
 Iteration     1 Dimension    20 NMult     0 NNew     20
 CISAX will form    20 AO SS matrices at one time.
 NMat=    20 NSing=    20 JSym2X= 0.
 FoFJK:  IHMeth= 1 ICntrl=       0 DoSepK=T KAlg= 0 I1Cent=           0 FoldK=F
 IRaf=         1 NMat=      40 IRICut=       1 DoRegI=T DoRafI=F ISym2E= 0 IDoP0=3 IntGTp=3.
 FoFCou: FMM=T IPFlag=           0 FMFlag=      100000 FMFlg1=        2001
         NFxFlg=           0 DoJE=F BraDBF=F KetDBF=F FulRan=T
         wScrn=  0.000000 ICntrl=       500 IOpCl=  0 I1Cent=           0 NGrid=           0
         NMat0=   20 NMatS0=     20 NMatT0=    0 NMatD0=   20 NMtDS0=    0 NMtDT0=    0
 Symmetry not used in FoFCou.
 FMM levels:  10  Number of levels for PrismC:   9
 New state      2 was old state      4
 New state      3 was old state      2
 New state      4 was old state      7
 New state      5 was old state      6
 Excitation Energies [eV] at current iteration:
 Root      1 :     2.194952077961766
 Root      2 :     2.481482414628986
 Root      3 :     2.578565741471525
 Root      4 :     2.615216571927580
 Root      5 :     2.626116311341562
 Root      6 :     2.781072674740770
 Root      7 :     2.968586443778635
 Root      8 :     3.276009450728238
 Root      9 :     3.612262596887498
 Root     10 :     3.662816217878635
 Root     11 :     3.746298102317292
 Root     12 :     3.760734949636091
 Root     13 :     4.094789048791510
 Root     14 :     4.229648013635146
 Root     15 :     4.377508629017383
 Root     16 :     4.419326620989953
 Root     17 :     4.423251814351319
 Root     18 :     4.477635673387576
 Root     19 :     4.583607219075700
 Root     20 :     4.620464723402646
 Iteration     2 Dimension    30 NMult    20 NNew     10
 CISAX will form    10 AO SS matrices at one time.
 NMat=    10 NSing=    10 JSym2X= 0.
 New state      1 was old state      3
 Root      1 not converged, maximum delta is    0.221408959004138
 New state      2 was old state      1
 Root      2 not converged, maximum delta is    0.012639275496187
 New state      3 was old state      4
 Root      3 not converged, maximum delta is    0.180562991161733
 New state      4 was old state      5
 Root      4 not converged, maximum delta is    0.165315818759226
 New state      5 was old state      2
 Root      5 not converged, maximum delta is    0.013174573600691
 Excitation Energies [eV] at current iteration:
 Root      1 :     1.756942326126796   Change is   -0.821623415344729
 Root      2 :     2.192425791095131   Change is   -0.002526286866635
 Root      3 :     2.224109610638882   Change is   -0.391106961288698
 Root      4 :     2.245877579869539   Change is   -0.380238731472023
 Root      5 :     2.479361623504582   Change is   -0.002120791124404
 Iteration     3 Dimension    40 NMult    30 NNew     10
 CISAX will form    10 AO SS matrices at one time.
 NMat=    10 NSing=    10 JSym2X= 0.
 Root      1 not converged, maximum delta is    0.051874962200744
 No map to state      2
 Root      3 not converged, maximum delta is    0.058209953539517
 New state      4 was old state      2
 Root      4 not converged, maximum delta is    0.016952788538383
 New state      5 was old state      4
 Root      5 not converged, maximum delta is    0.061775059231561
 Excitation Energies [eV] at current iteration:
 Root      1 :     1.654663202325664   Change is   -0.102279123801132
 Root      2 :     1.800169021724943
 Root      3 :     2.184575276587932   Change is   -0.039534334050950
 Root      4 :     2.192438466094975   Change is    0.000012674999844
 Root      5 :     2.206233931405222   Change is   -0.039643648464317
 Iteration     4 Dimension    50 NMult    40 NNew     10
 CISAX will form    10 AO SS matrices at one time.
 NMat=    10 NSing=    10 JSym2X= 0.
 Root      1 not converged, maximum delta is    0.010248580882844
 Root      2 not converged, maximum delta is    0.030988756156085
 Root      3 not converged, maximum delta is    0.013744385399811
 Root      4 not converged, maximum delta is    0.012745034403242
 Root      5 not converged, maximum delta is    0.013444242069001
 Excitation Energies [eV] at current iteration:
 Root      1 :     1.638466110688690   Change is   -0.016197091636974
 Root      2 :     1.725916515185848   Change is   -0.074252506539095
 Root      3 :     2.177524949621439   Change is   -0.007050326966493
 Root      4 :     2.192427146074614   Change is   -0.000011320020361
 Root      5 :     2.198772147864922   Change is   -0.007461783540301
 Iteration     5 Dimension    60 NMult    50 NNew     10
 CISAX will form    10 AO SS matrices at one time.
 NMat=    10 NSing=    10 JSym2X= 0.
 Root      1 not converged, maximum delta is    0.001348992153147
 Root      2 not converged, maximum delta is    0.011554341982323
 Root      3 not converged, maximum delta is    0.002518686150580
 Root      4 not converged, maximum delta is    0.002337729847958
 Root      5 not converged, maximum delta is    0.003338850566892
 Excitation Energies [eV] at current iteration:
 Root      1 :     1.636811493352857   Change is   -0.001654617335833
 Root      2 :     1.713241833389040   Change is   -0.012674681796808
 Root      3 :     2.176710262828381   Change is   -0.000814686793058
 Root      4 :     2.192425560185532   Change is   -0.000001585889082
 Root      5 :     2.197956407469134   Change is   -0.000815740395787
 Iteration     6 Dimension    70 NMult    60 NNew     10
 CISAX will form    10 AO SS matrices at one time.
 NMat=    10 NSing=    10 JSym2X= 0.
 Root      1 has converged.
 Root      2 not converged, maximum delta is    0.001356685903985
 Root      3 has converged.
 Root      4 has converged.
 Root      5 has converged.
 Excitation Energies [eV] at current iteration:
 Root      1 :     1.636582548249218   Change is   -0.000228945103639
 Root      2 :     1.712066961298727   Change is   -0.001174872090313
 Root      3 :     2.176587934950722   Change is   -0.000122327877659
 Root      4 :     2.192425337245155   Change is   -0.000000222940378
 Root      5 :     2.197840954061363   Change is   -0.000115453407771
 Iteration     7 Dimension    72 NMult    70 NNew      2
 CISAX will form     2 AO SS matrices at one time.
 NMat=     2 NSing=     2 JSym2X= 0.
 Root      1 has converged.
 Root      2 has converged.
 Root      3 has converged.
 Root      4 has converged.
 Root      5 has converged.
 Excitation Energies [eV] at current iteration:
[...]
 Alpha virt. eigenvalues --    1.85326   1.85358   1.85395   1.85592   1.85763
 Alpha virt. eigenvalues --    1.86098   1.86252   1.86341   1.86483   1.86617
 Alpha virt. eigenvalues --    1.86653   1.86864   1.86977   1.87134   1.87230
 Alpha virt. eigenvalues --    1.87378   1.87549   1.87767   1.87819   1.87960
 Alpha virt. eigenvalues --    1.88076   1.88262   1.88341   1.88458   1.88581
 Alpha virt. eigenvalues --    1.88938   1.89123   1.89268   1.89466   1.89569
 Alpha virt. eigenvalues --    1.89758   1.89943   1.90113   1.90262   1.90667
 Alpha virt. eigenvalues --    1.90941   1.91120   1.91250   1.91649   1.91791
 Alpha virt. eigenvalues --    1.91989   1.92320   1.92335   1.92768   1.92913
 Alpha virt. eigenvalues --    1.93205   1.93267   1.93736   1.93897   1.94436
 Alpha virt. eigenvalues --    1.94551   1.94918   1.95114   1.95494   1.95692
 Alpha virt. eigenvalues --    1.95822   1.95917   1.96084   1.96144   1.96441
 Alpha virt. eigenvalues --    1.96526   1.96541   1.96746   1.97039   1.97278
 Alpha virt. eigenvalues --    1.97603   1.97740   1.97812   1.98109   1.98220
 Alpha virt. eigenvalues --    1.98536   1.98650   1.98908   1.99118   1.99451
 Alpha virt. eigenvalues --    1.99729   2.00302   2.00633   2.00886   2.01052
 Alpha virt. eigenvalues --    2.01322   2.01535   2.01588   2.01754   2.01818
 Alpha virt. eigenvalues --    2.01995   2.02386   2.02663   2.03017   2.03128
 Alpha virt. eigenvalues --    2.03295   2.03418   2.03475   2.03826   2.03911
 Alpha virt. eigenvalues --    2.04135   2.04346   2.04858   2.05230   2.05399
 Alpha virt. eigenvalues --    2.05934   2.05981   2.06603   2.06852   2.07129
 Alpha virt. eigenvalues --    2.07418   2.07662   2.08455   2.08754   2.08895
 Alpha virt. eigenvalues --    2.09306   2.09537   2.09904   2.10657   2.11030
 Alpha virt. eigenvalues --    2.11238   2.11406   2.11590   2.11703   2.11871
 Alpha virt. eigenvalues --    2.12293   2.12450   2.12647   2.12771   2.12890
 Alpha virt. eigenvalues --    2.13215   2.13514   2.13741   2.14059   2.14495
 Alpha virt. eigenvalues --    2.14779   2.15289   2.15674   2.15838   2.16421
 Alpha virt. eigenvalues --    2.16485   2.16670   2.17097   2.17323   2.17518
 Alpha virt. eigenvalues --    2.17609   2.17869   2.17992   2.18200   2.18303
 Alpha virt. eigenvalues --    2.18492   2.18849   2.19179   2.19492   2.19636
 Alpha virt. eigenvalues --    2.19934   2.20123   2.20318   2.20606   2.20933
 Alpha virt. eigenvalues --    2.21038   2.21425   2.21556   2.21612   2.22104
 Alpha virt. eigenvalues --    2.22212   2.22558   2.23158   2.23261   2.23653
 Alpha virt. eigenvalues --    2.24272   2.24672   2.24880   2.25235   2.26199
 Alpha virt. eigenvalues --    2.26636   2.26777   2.26998   2.27310   2.27670
 Alpha virt. eigenvalues --    2.27979   2.28893   2.29151   2.29692   2.29900
 Alpha virt. eigenvalues --    2.30288   2.30531   2.30928   2.31038   2.31203
 Alpha virt. eigenvalues --    2.31374   2.31590   2.32108   2.32523   2.33000
 Alpha virt. eigenvalues --    2.33389   2.33552   2.33779   2.34118   2.34458
 Alpha virt. eigenvalues --    2.35304   2.35678   2.35738   2.36250   2.36401
 Alpha virt. eigenvalues --    2.36505   2.36627   2.36692   2.37571   2.37922
 Alpha virt. eigenvalues --    2.38137   2.38648   2.38718   2.39101   2.39501
 Alpha virt. eigenvalues --    2.39992   2.40109   2.40375   2.40488   2.41137
 Alpha virt. eigenvalues --    2.41192   2.41555   2.41630   2.41879   2.41959
 Alpha virt. eigenvalues --    2.42484   2.42819   2.43024   2.43343   2.43422
 Alpha virt. eigenvalues --    2.44019   2.44314   2.44605   2.44752   2.45082
 Alpha virt. eigenvalues --    2.45370   2.45497   2.45835   2.46188   2.46362
 Alpha virt. eigenvalues --    2.46557   2.46692   2.46790   2.47113   2.47183
 Alpha virt. eigenvalues --    2.47583   2.47642   2.48138   2.49201   2.49580
 Alpha virt. eigenvalues --    2.49958   2.50089   2.50433   2.50662   2.51053
 Alpha virt. eigenvalues --    2.51633   2.51767   2.51864   2.52362   2.52635
 Alpha virt. eigenvalues --    2.52731   2.53532   2.53839   2.54011   2.54215
 Alpha virt. eigenvalues --    2.54481   2.54671   2.55117   2.55392   2.55992
 Alpha virt. eigenvalues --    2.57703   2.58345   2.58490   2.59304   2.60087
 Alpha virt. eigenvalues --    2.60399   2.60697   2.61317   2.61560   2.62138
 Alpha virt. eigenvalues --    2.62365   2.62759   2.62797   2.63429   2.63769
 Alpha virt. eigenvalues --    2.64135   2.64495   2.64622   2.64979   2.65361
 Alpha virt. eigenvalues --    2.65598   2.66125   2.66638   2.66730   2.67053
 Alpha virt. eigenvalues --    2.67403   2.67766   2.68289   2.68676   2.68854
 Alpha virt. eigenvalues --    2.69064   2.69247   2.69383   2.69824   2.69958
 Alpha virt. eigenvalues --    2.70381   2.70830   2.71399   2.71934   2.72155
 Alpha virt. eigenvalues --    2.72518   2.72670   2.72799   2.73064   2.73153
 Alpha virt. eigenvalues --    2.73346   2.73500   2.73811   2.74368   2.74794
 Alpha virt. eigenvalues --    2.74832   2.75334   2.76457   2.76770   2.77167
 Alpha virt. eigenvalues --    2.77313   2.77379   2.77875   2.78056   2.78521
 Alpha virt. eigenvalues --    2.78558   2.78933   2.78980   2.79438   2.80179
 Alpha virt. eigenvalues --    2.80380   2.80490   2.80992   2.81004   2.81432
 Alpha virt. eigenvalues --    2.81781   2.82210   2.82317   2.82601   2.83602
 Alpha virt. eigenvalues --    2.83653   2.84050   2.84268   2.84413   2.84743
 Alpha virt. eigenvalues --    2.84772   2.85124   2.85544   2.85898   2.86855
 Alpha virt. eigenvalues --    2.86902   2.87432   2.87522   2.88072   2.88359
 Alpha virt. eigenvalues --    2.88452   2.88790   2.88902   2.89126   2.90292
 Alpha virt. eigenvalues --    2.90947   2.91073   2.91328   2.93038   2.93640
 Alpha virt. eigenvalues --    2.94048   2.94110   2.94434   2.94773   2.95131
 Alpha virt. eigenvalues --    2.95817   2.96027   2.96207   2.96318   2.96618
 Alpha virt. eigenvalues --    2.97062   2.97242   2.97714   2.98034   2.98194
 Alpha virt. eigenvalues --    2.98275   2.98466   2.98697   2.98844   2.98871
 Alpha virt. eigenvalues --    2.99111   2.99222   2.99470   2.99872   2.99960
 Alpha virt. eigenvalues --    3.00061   3.00333   3.00412   3.00543   3.01390
 Alpha virt. eigenvalues --    3.01839   3.01889   3.02197   3.02479   3.02590
 Alpha virt. eigenvalues --    3.02905   3.03084   3.03164   3.03683   3.04052
 Alpha virt. eigenvalues --    3.04101   3.04371   3.04447   3.04670   3.04767
 Alpha virt. eigenvalues --    3.05036   3.05225   3.05560   3.06075   3.06403
 Alpha virt. eigenvalues --    3.07033   3.07520   3.08036   3.08143   3.09443
 Alpha virt. eigenvalues --    3.09546   3.10008   3.10318   3.10719   3.11167
 Alpha virt. eigenvalues --    3.11222   3.11683   3.11836   3.12043   3.12087
 Alpha virt. eigenvalues --    3.12800   3.13511   3.13754   3.13877   3.13990
 Alpha virt. eigenvalues --    3.14120   3.14975   3.15818   3.16126   3.17173
 Alpha virt. eigenvalues --    3.17829   3.17971   3.18060   3.18997   3.19251
 Alpha virt. eigenvalues --    3.22130   3.22962   3.23806   3.24558   3.24749
 Alpha virt. eigenvalues --    3.25550   3.26384   3.26921   3.27483   3.27701
 Alpha virt. eigenvalues --    3.28949   3.29605   3.31371   3.31675   3.33289
 Alpha virt. eigenvalues --    3.33434   3.40534   3.40649   3.42689   3.43028
 Alpha virt. eigenvalues --    3.48541   3.49022   3.49913   3.50544   3.51105
 Alpha virt. eigenvalues --    3.51332   3.56412   3.57254   3.58967   3.59568
 Alpha virt. eigenvalues --    3.62775   3.62833   3.66073   3.66302   3.67100
 Alpha virt. eigenvalues --    3.67921   3.73237   3.74423   3.76107   3.77074
          Condensed to atoms (all electrons):
 Mulliken charges:
               1
     1  Mg   0.835998
     2  C   -0.005102
     3  C   -0.095719
     4  C   -0.044718
     5  C   -0.063280
     6  N   -0.256507
     7  C   -0.054532
     8  C   -0.011245
     9  C   -0.087822
    10  C    0.045813
    11  C    0.104942
    12  C    0.041541
    13  C   -0.070043
    14  H    0.034666
    15  N   -0.433486
    16  C    0.167780
    17  C   -0.178540
    18  C   -0.003892
    19  C    0.149170
    20  C    0.110414
    21  C    0.013118
    22  O   -0.248283
    23  C    0.062734
    24  N   -0.340716
    25  C    0.040987
    26  C   -0.028355
    27  C   -0.024118
    28  C    0.075157
    29  C    0.075976
    30  C    0.034977
    31  C   -0.004884
    32  N   -0.310957
    33  C    0.081091
    34  C   -0.168809
    35  C    0.009432
    36  C    0.083138
    37  C    0.126899
    38  C    0.047051
    39  O   -0.185760
    40  C   -0.005742
    41  C    0.214646
    42  O   -0.259095
    43  O   -0.304564
    44  C    0.155433
    45  H   -0.018146
    46  H   -0.016141
    47  H   -0.040828
    48  H    0.001633
    49  H   -0.005241
    50  H    0.026036
    51  H    0.017303
    52  H    0.016745
    53  H    0.014913
    54  H    0.046048
    55  H    0.019535
    56  H    0.016432
    57  H    0.005256
    58  H    0.027569
    59  H    0.037093
    60  H    0.037329
    61  H    0.036750
    62  H    0.029289
    63  H    0.017240
    64  H    0.009874
    65  H    0.023728
    66  H    0.012575
    67  H    0.005014
    68  H    0.006626
    69  H    0.004834
    70  H    0.009383
    71  H    0.017212
    72  H    0.030074
    73  H    0.049462
    74  H    0.009245
    75  H    0.046409
    76  H    0.035721
    77  H    0.044538
    78  H    0.044870
    79  H    0.057165
    80  Mg   0.836327
    81  C   -0.015851
    82  C   -0.087939
    83  C   -0.045384
    84  C   -0.066249
    85  N   -0.254560
    86  C   -0.048257
    87  C   -0.015569
    88  C   -0.093642
    89  C    0.044628
    90  C    0.102513
    91  C    0.062907
    92  C   -0.076574
    93  H    0.033201
    94  N   -0.423416
    95  C    0.162653
    96  C   -0.175755
    97  C   -0.008133
    98  C    0.151724
    99  C    0.100223
   100  C    0.015263
   101  O   -0.253613
   102  C    0.061516
   103  N   -0.350288
   104  C    0.037101
   105  C   -0.019508
   106  C   -0.034649
   107  C    0.089570
   108  C    0.073645
   109  C    0.034922
   110  C   -0.007537
   111  N   -0.324659
   112  C    0.079428
   113  C   -0.163468
   114  C    0.004361
   115  C    0.095062
   116  C    0.131168
   117  C    0.045022
   118  O   -0.185880
   119  C   -0.002105
   120  C    0.209035
   121  O   -0.253240
   122  O   -0.302015
   123  C    0.152566
   124  H   -0.022217
   125  H   -0.016167
   126  H   -0.041430
   127  H    0.008056
   128  H   -0.007443
   129  H    0.041627
   130  H    0.014093
   131  H    0.014223
   132  H    0.012707
   133  H    0.037640
   134  H    0.019730
   135  H    0.017791
   136  H    0.006600
   137  H    0.023372
   138  H    0.038829
   139  H    0.037140
   140  H    0.035731
   141  H    0.033289
   142  H    0.013827
   143  H    0.011097
   144  H    0.024542
   145  H    0.013076
   146  H    0.004039
   147  H    0.005553
   148  H    0.003167
   149  H    0.010727
   150  H    0.017395
   151  H    0.030601
   152  H    0.045889
   153  H    0.007121
   154  H    0.048411
   155  H    0.053644
   156  H    0.042566
   157  H    0.047308
   158  H    0.052583
 Sum of Mulliken charges =  -0.00000
 Mulliken charges with hydrogens summed into heavy atoms:
               1
     1  Mg   0.835998
     2  C   -0.005102
     3  C   -0.113865
     4  C   -0.060859
     5  C   -0.104108
     6  N   -0.256507
     7  C   -0.054532
     8  C   -0.009612
     9  C   -0.093062
    10  C    0.045813
    11  C    0.165026
    12  C    0.102503
    13  C    0.000590
    15  N   -0.433486
    16  C    0.167780
    17  C   -0.178540
    18  C   -0.003892
    19  C    0.149170
    20  C    0.180332
    21  C    0.013118
    22  O   -0.248283
    23  C    0.166102
    24  N   -0.340716
    25  C    0.040987
    26  C   -0.011115
    27  C   -0.014244
    28  C    0.075157
    29  C    0.117292
    30  C    0.046438
    31  C    0.051786
    32  N   -0.310957
    33  C    0.081091
    34  C   -0.168809
    35  C    0.009432
    36  C    0.083138
    37  C    0.232015
    38  C    0.047051
    39  O   -0.185760
    40  C    0.029979
    41  C    0.214646
    42  O   -0.259095
    43  O   -0.304564
    44  C    0.302006
    80  Mg   0.836327
    81  C   -0.015851
    82  C   -0.110156
    83  C   -0.061551
    84  C   -0.107679
    85  N   -0.254560
    86  C   -0.048257
    87  C   -0.007513
    88  C   -0.101085
    89  C    0.044628
    90  C    0.172455
    91  C    0.113254
    92  C   -0.005851
    94  N   -0.423416
    95  C    0.162653
    96  C   -0.175755
    97  C   -0.008133
    98  C    0.151724
    99  C    0.169023
   100  C    0.015263
   101  O   -0.253613
   102  C    0.167676
   103  N   -0.350288
   104  C    0.037101
   105  C   -0.005682
   106  C   -0.023551
   107  C    0.089570
   108  C    0.115302
   109  C    0.043642
   110  C    0.051185
   111  N   -0.324659
   112  C    0.079428
   113  C   -0.163468
   114  C    0.004361
   115  C    0.095062
   116  C    0.232589
   117  C    0.045022
   118  O   -0.185880
   119  C    0.051539
   120  C    0.209035
   121  O   -0.253240
   122  O   -0.302015
   123  C    0.295023
 Electronic spatial extent (au):  <R**2>=          85906.2228
 Charge=              0.0000 electrons
 Dipole moment (field-independent basis, Debye):
    X=             -4.4142    Y=             -4.0024    Z=             -5.9748  Tot=              8.4382
 Quadrupole moment (field-independent basis, Debye-Ang):
   XX=           -513.2162   YY=           -557.8781   ZZ=           -450.2266
   XY=              3.2492   XZ=             30.1001   YZ=            -33.4080
 Traceless Quadrupole moment (field-independent basis, Debye-Ang):
   XX=             -6.1092   YY=            -50.7711   ZZ=             56.8804
   XY=              3.2492   XZ=             30.1001   YZ=            -33.4080
 Octapole moment (field-independent basis, Debye-Ang**2):
  XXX=           -178.1093  YYY=            253.2443  ZZZ=            -40.6473  XYY=           -198.8442
  XXY=             -2.2673  XXZ=            -26.5265  XZZ=             51.0317  YZZ=           -191.5899
  YYZ=           -223.6447  XYZ=             43.2364
 Hexadecapole moment (field-independent basis, Debye-Ang**3):
 XXXX=         -52308.6116 YYYY=         -41591.2322 ZZZZ=         -23258.9762 XXXY=            509.5233
 XXXZ=           1335.4955 YYYX=           -706.8549 YYYZ=          -1446.1284 ZZZX=           -124.8400
 ZZZY=            253.4365 XXYY=         -16602.1761 XXZZ=         -11721.6477 YYZZ=         -10331.8188
 XXYZ=           -375.0241 YYXZ=            362.4708 ZZXY=            199.5794
 N-N= 1.607331373686D+04 E-N=-4.162780738144D+04  KE= 4.028792255665D+03
 Leave Link  601 at Thu Sep  9 06:52:17 2021, MaxMem= 23488102400 cpu:              16.5 elap:               0.8
 (Enter /sw/apps/gaussian-16.0/g16/l9999.exe)
 1\1\GINC-BP1-COMPUTE00100\SP\RCAM-B3LYP TD-FC\def2SVP\C68H72Mg2N8O8\OF
 15641\09-Sep-2021\0\\#p cam-b3lyp/Def2SVP td=(nstates=5)\\TDDFT excite
 d states in gaussian\\0,1\Mg,0,0.,0.,0.\C,0,-0.217,-2.218,2.801\C,0,-1
 .255,2.442,2.026\C,0,-0.245,1.85,-2.564\C,0,0.146,-2.824,-2.037\N,0,-0
 .617,-0.009,2.126\C,0,-0.594,-0.908,3.105\C,0,-0.936,-0.309,4.502\C,0,
 -1.773,0.964,4.032\C,0,-1.155,1.168,2.66\C,0,-3.263,0.685,3.863\C,0,0.
 345,0.11,5.299\C,0,0.124,0.397,6.787\H,0,1.168,0.033,7.733\N,0,-0.185,
 1.961,-0.152\C,0,-0.703,2.8,0.777\C,0,-0.62,4.156,0.193\C,0,-0.187,4.0
 15,-1.225\C,0,-0.214,2.583,-1.38\C,0,-0.887,5.406,0.974\C,0,0.181,5.01
 3,-2.277\O,0,0.303,4.69,-3.508\C,0,0.31,6.414,-1.837\N,0,-0.265,-0.413
 ,-2.029\C,0,-0.279,0.569,-2.937\C,0,-0.196,0.024,-4.332\C,0,0.124,-1.5
 33,-4.18\C,0,0.086,-1.632,-2.635\C,0,-1.451,0.205,-5.197\C,0,1.373,-2.
 07,-4.923\C,0,2.626,-1.49,-4.306\N,0,0.15,-2.144,0.303\C,0,0.173,-3.13
 6,-0.688\C,0,0.173,-4.438,0.004\C,0,0.133,-4.111,1.358\C,0,0.083,-2.69
 5,1.502\C,0,0.149,-5.715,-0.623\C,0,0.096,-4.629,2.716\O,0,0.208,-5.74
 7,3.221\C,0,-0.255,-3.428,3.701\C,0,0.717,-3.482,4.848\O,0,1.931,-3.25
 5,4.669\O,0,0.038,-3.556,6.003\C,0,0.943,-3.583,7.183\H,0,-1.859,3.22,
 2.497\H,0,-0.218,2.453,-3.474\H,0,0.276,-3.747,-2.605\H,0,-1.554,-0.94
 9,5.132\H,0,-1.585,1.831,4.665\H,0,-3.484,-0.377,3.969\H,0,-3.511,1.02
 7,2.858\H,0,-3.852,1.301,4.543\H,0,0.669,1.096,4.966\H,0,1.13,-0.639,5
 .189\H,0,-0.844,0.026,7.125\H,0,0.062,1.477,6.921\H,0,-1.344,5.186,1.9
 38\H,0,-1.651,5.963,0.432\H,0,0.007,6.02,1.084\H,0,-0.635,6.744,-1.405
 \H,0,0.665,6.97,-2.704\H,0,1.048,6.466,-1.036\H,0,0.608,0.501,-4.891\H
 ,0,-0.692,-2.156,-4.547\H,0,-1.267,0.74,-6.129\H,0,-2.204,0.714,-4.596
 \H,0,-1.967,-0.72,-5.453\H,0,1.356,-1.759,-5.967\H,0,1.452,-3.157,-4.9
 02\H,0,2.714,-0.522,-4.798\H,0,3.487,-2.121,-4.529\H,0,2.495,-1.303,-3
 .24\H,0,0.867,-6.333,-0.084\H,0,0.404,-5.642,-1.68\H,0,-0.891,-5.999,-
 0.463\H,0,-1.283,-3.581,4.028\H,0,0.698,-4.478,7.755\H,0,0.833,-2.619,
 7.68\H,0,2.,-3.754,6.976\Mg,0,7.88739,0.7146,0.60721\C,0,7.04253,-1.57
 914,3.23476\C,0,6.09428,3.07515,2.29456\C,0,8.23342,2.62719,-1.90072\C
 ,0,8.61573,-2.05125,-1.38409\N,0,6.76051,0.6373,2.5089\C,0,6.56102,-0.
 27129,3.45177\C,0,5.87278,0.27161,4.73284\C,0,5.13335,1.54303,4.08816\
 C,0,6.06853,1.79704,2.90765\C,0,3.75159,1.22296,3.54262\C,0,6.90787,0.
 70432,5.82982\C,0,6.30962,0.95247,7.21628\H,0,7.10101,0.59424,8.3901\N
 ,0,7.68663,2.6832,0.45601\C,0,6.93658,3.48714,1.23857\C,0,7.11121,4.84
 631,0.70346\C,0,7.8944,4.75644,-0.55878\C,0,7.95196,3.31875,-0.7315\C,
 0,6.6273,6.07216,1.42216\C,0,8.48194,5.79321,-1.46768\O,0,8.91841,5.49
 549,-2.63545\C,0,8.44585,7.18232,-0.9875\N,0,8.15259,0.34548,-1.42152\
 C,0,8.32971,1.35598,-2.29069\C,0,8.77393,0.84345,-3.6399\C,0,9.09308,-
 0.70895,-3.42595\C,0,8.67453,-0.85175,-1.94615\C,0,7.76537,1.00337,-4.
 77727\C,0,10.50518,-1.20148,-3.84553\C,0,11.5527,-0.6005,-2.93618\N,0,
 8.02532,-1.42129,0.9022\C,0,8.31908,-2.39979,-0.07264\C,0,8.185,-3.718
 39,0.57985\C,0,7.79703,-3.41389,1.89334\C,0,7.6768,-2.00582,2.04296\C,
 0,8.36591,-4.98122,-0.05154\C,0,7.45153,-3.96393,3.18438\O,0,7.46124,-
 5.09017,3.67959\C,0,6.82488,-2.8065,4.07549\C,0,7.48119,-2.85467,5.428
 07\O,0,8.69306,-2.60434,5.55183\O,0,6.53211,-2.97353,6.37437\C,0,7.133
 18,-3.01437,7.7341\H,0,5.37243,3.82312,2.62376\H,0,8.46964,3.24614,-2.
 76938\H,0,8.92097,-2.95815,-1.91043\H,0,5.14438,-0.39723,5.17539\H,0,5
 .13946,2.39053,4.76865\H,0,3.54205,0.16402,3.57238\H,0,3.74841,1.58071
 ,2.52133\H,0,2.9932,1.80901,4.06961\H,0,7.27302,1.71343,5.59939\H,0,7.
 70596,-0.00866,5.90296\H,0,5.29139,0.55424,7.30315\H,0,6.1888,2.02967,
 7.35436\H,0,5.94365,5.81502,2.24063\H,0,6.00608,6.63288,0.71538\H,0,7.
 44482,6.71284,1.7596\H,0,7.4152,7.47176,-0.79659\H,0,8.99117,7.76366,-
 1.73352\H,0,8.97039,7.23416,-0.02688\H,0,9.6761,1.34592,-3.96657\H,0,8
 .41339,-1.34864,-4.0079\H,0,8.16364,1.57522,-5.6366\H,0,6.87792,1.4795
 9,-4.38209\H,0,7.36892,0.07172,-5.17735\H,0,10.73998,-0.86098,-4.85701
 \H,0,10.60581,-2.28167,-3.83788\H,0,11.72555,0.38588,-3.37694\H,0,12.4
 5952,-1.20184,-2.94653\H,0,11.15512,-0.4453,-1.92649\H,0,8.93993,-5.59
 196,0.63257\H,0,8.86862,-4.87769,-1.01088\H,0,7.32433,-5.29331,-0.1654
 8\H,0,5.75046,-2.98432,4.13523\H,0,6.77674,-3.9313,8.21357\H,0,6.85655
 ,-2.05578,8.21193\H,0,8.20699,-3.14295,7.80375\\Version=ES64L-G16RevA.
 03\State=1-A\HF=-4069.8120292\RMSD=6.275e-09\PG=C01 [X(C68H72Mg2N8O8)]
 \\@


 The earth never tires,
 The earth is rude, silent, incomprehensible at first,
 Nature is rude and incomprehensible at first,
 Be not discouraged, keep on,
 There are divine things well envelop'd,
 I swear to you there are divine things more beautiful than words can tell.
                                 -- Walt Whitman
 Job cpu time:       0 days 16 hours 20 minutes 55.1 seconds.
 Elapsed time:       0 days  0 hours 41 minutes 34.1 seconds.
 File lengths (MBytes):  RWF=  13225 Int=      0 D2E=      0 Chk=    574 Scr=      1
 Normal termination of Gaussian 16 at Thu Sep  9 06:52:18 2021.
