 Entering Gaussian System, Link 0=g16
 Initial command:
 /sw/apps/gaussian-16.0/g16/l1.exe "/tmp/Gau-131893.inp" -scrdir="/tmp/"
 Entering Link 1 = /sw/apps/gaussian-16.0/g16/l1.exe PID=    131894.
  
 Copyright (c) 1988,1990,1992,1993,1995,1998,2003,2009,2016,
            Gaussian, Inc.  All Rights Reserved.
  
 This is part of the Gaussian(R) 16 program.  It is based on
 the Gaussian(R) 09 system (copyright 2009, Gaussian, Inc.),
 the Gaussian(R) 03 system (copyright 2003, Gaussian, Inc.),
 the Gaussian(R) 98 system (copyright 1998, Gaussian, Inc.),
 the Gaussian(R) 94 system (copyright 1995, Gaussian, Inc.),
 the Gaussian 92(TM) system (copyright 1992, Gaussian, Inc.),
 the Gaussian 90(TM) system (copyright 1990, Gaussian, Inc.),
 the Gaussian 88(TM) system (copyright 1988, Gaussian, Inc.),
 the Gaussian 86(TM) system (copyright 1986, Carnegie Mellon
 University), and the Gaussian 82(TM) system (copyright 1983,
 Carnegie Mellon University). Gaussian is a federally registered
 trademark of Gaussian, Inc.
  
 This software contains proprietary and confidential information,
 including trade secrets, belonging to Gaussian, Inc.
  
 This software is provided under written license and may be
 used, copied, transmitted, or stored only in accord with that
 written license.
  
 The following legend is applicable only to US Government
 contracts under FAR:
  
                    RESTRICTED RIGHTS LEGEND
  
 Use, reproduction and disclosure by the US Government is
 subject to restrictions as set forth in subparagraphs (a)
 and (c) of the Commercial Computer Software - Restricted
 Rights clause in FAR 52.227-19.
  
 Gaussian, Inc.
 340 Quinnipiac St., Bldg. 40, Wallingford CT 06492
  
  
 ---------------------------------------------------------------
 Warning -- This program may not be used in any manner that
 competes with the business of Gaussian, Inc. or will provide
 assistance to any competitor of Gaussian, Inc.  The licensee
 of this program is prohibited from giving any competitor of
 Gaussian, Inc. access to this program.  By using this program,
 the user acknowledges that Gaussian, Inc. is engaged in the
 business of creating and licensing software in the field of
 computational chemistry and represents and warrants to the
 licensee that it is not a competitor of Gaussian, Inc. and that
 it will not use this program in any manner prohibited above.
 ---------------------------------------------------------------
  

 Cite this work as:
 Gaussian 16, Revision A.03,
 M. J. Frisch, G. W. Trucks, H. B. Schlegel, G. E. Scuseria, 
 M. A. Robb, J. R. Cheeseman, G. Scalmani, V. Barone, 
 G. A. Petersson, H. Nakatsuji, X. Li, M. Caricato, A. V. Marenich, 
 J. Bloino, B. G. Janesko, R. Gomperts, B. Mennucci, H. P. Hratchian, 
 J. V. Ortiz, A. F. Izmaylov, J. L. Sonnenberg, D. Williams-Young, 
 F. Ding, F. Lipparini, F. Egidi, J. Goings, B. Peng, A. Petrone, 
 T. Henderson, D. Ranasinghe, V. G. Zakrzewski, J. Gao, N. Rega, 
 G. Zheng, W. Liang, M. Hada, M. Ehara, K. Toyota, R. Fukuda, 
 J. Hasegawa, M. Ishida, T. Nakajima, Y. Honda, O. Kitao, H. Nakai, 
 T. Vreven, K. Throssell, J. A. Montgomery, Jr., J. E. Peralta, 
 F. Ogliaro, M. J. Bearpark, J. J. Heyd, E. N. Brothers, K. N. Kudin, 
 V. N. Staroverov, T. A. Keith, R. Kobayashi, J. Normand, 
 K. Raghavachari, A. P. Rendell, J. C. Burant, S. S. Iyengar, 
 J. Tomasi, M. Cossi, J. M. Millam, M. Klene, C. Adamo, R. Cammi, 
 J. W. Ochterski, R. L. Martin, K. Morokuma, O. Farkas, 
 J. B. Foresman, and D. J. Fox, Gaussian, Inc., Wallingford CT, 2016.
 
 ******************************************
 Gaussian 16:  ES64L-G16RevA.03 25-Dec-2016
                 4-Sep-2021 
 ******************************************
 %nproc=24
 Will use up to   24 processors via shared memory.
 %mem=175gb
 -----------------------------------
 #p cam-b3lyp/Def2SVP td=(nstates=5)
 -----------------------------------
 1/38=1,172=1/1;
 2/12=2,17=6,18=5,40=1/2;
 3/5=43,7=101,11=9,25=1,30=1,74=-40/1,2,3,8;
 4//1;
 5/5=2,38=5/2;
 8/6=1,10=1,108=5/1;
 9/41=5,42=1,70=2/14;
 6/7=2,8=2,9=2,10=2/1;
 99/5=1,9=1/99;
 Leave Link    1 at Sat Sep  4 17:52:34 2021, MaxMem= 23488102400 cpu:               0.8 elap:               0.0
 (Enter /sw/apps/gaussian-16.0/g16/l101.exe)
 --------------------------------
 TDDFT excited states in gaussian
 --------------------------------
 Symbolic Z-matrix:
 Charge =  0 Multiplicity = 1
 Mg                    0.        0.        0. 
 C                    -0.217    -2.218     2.801 
 C                    -1.255     2.442     2.026 
 C                    -0.245     1.85     -2.564 
 C                     0.146    -2.824    -2.037 
 N                    -0.617    -0.009     2.126 
 C                    -0.594    -0.908     3.105 
 C                    -0.936    -0.309     4.502 
 C                    -1.773     0.964     4.032 
 C                    -1.155     1.168     2.66 
 C                    -3.263     0.685     3.863 
 C                     0.345     0.11      5.299 
 C                     0.124     0.397     6.787 
 H                     1.168     0.033     7.733 
 N                    -0.185     1.961    -0.152 
 C                    -0.703     2.8       0.777 
 C                    -0.62      4.156     0.193 
 C                    -0.187     4.015    -1.225 
 C                    -0.214     2.583    -1.38 
 C                    -0.887     5.406     0.974 
 C                     0.181     5.013    -2.277 
 O                     0.303     4.69     -3.508 
 C                     0.31      6.414    -1.837 
 N                    -0.265    -0.413    -2.029 
 C                    -0.279     0.569    -2.937 
 C                    -0.196     0.024    -4.332 
 C                     0.124    -1.533    -4.18 
 C                     0.086    -1.632    -2.635 
 C                    -1.451     0.205    -5.197 
 C                     1.373    -2.07     -4.923 
 C                     2.626    -1.49     -4.306 
 N                     0.15     -2.144     0.303 
 C                     0.173    -3.136    -0.688 
 C                     0.173    -4.438     0.004 
 C                     0.133    -4.111     1.358 
 C                     0.083    -2.695     1.502 
 C                     0.149    -5.715    -0.623 
 C                     0.096    -4.629     2.716 
 O                     0.208    -5.747     3.221 
 C                    -0.255    -3.428     3.701 
 C                     0.717    -3.482     4.848 
 O                     1.931    -3.255     4.669 
 O                     0.038    -3.556     6.003 
 C                     0.943    -3.583     7.183 
 H                    -1.859     3.22      2.497 
 H                    -0.218     2.453    -3.474 
 H                     0.276    -3.747    -2.605 
 H                    -1.554    -0.949     5.132 
 H                    -1.585     1.831     4.665 
 H                    -3.484    -0.377     3.969 
 H                    -3.511     1.027     2.858 
 H                    -3.852     1.301     4.543 
 H                     0.669     1.096     4.966 
 H                     1.13     -0.639     5.189 
 H                    -0.844     0.026     7.125 
 H                     0.062     1.477     6.921 
 H                    -1.344     5.186     1.938 
 H                    -1.651     5.963     0.432 
 H                     0.007     6.02      1.084 
 H                    -0.635     6.744    -1.405 
 H                     0.665     6.97     -2.704 
 H                     1.048     6.466    -1.036 
 H                     0.608     0.501    -4.891 
 H                    -0.692    -2.156    -4.547 
 H                    -1.267     0.74     -6.129 
 H                    -2.204     0.714    -4.596 
 H                    -1.967    -0.72     -5.453 
 H                     1.356    -1.759    -5.967 
 H                     1.452    -3.157    -4.902 
 H                     2.714    -0.522    -4.798 
 H                     3.487    -2.121    -4.529 
 H                     2.495    -1.303    -3.24 
 H                     0.867    -6.333    -0.084 
 H                     0.404    -5.642    -1.68 
 H                    -0.891    -5.999    -0.463 
 H                    -1.283    -3.581     4.028 
 H                     0.698    -4.478     7.755 
 H                     0.833    -2.619     7.68 
 H                     2.       -3.754     6.976 
 Mg                    31.54029   2.84007   2.38818 
 C                     31.08931   6.28903   1.50483 
 C                     30.97433   2.08158  -0.88886 
 C                     31.48475  -0.22409   3.20996 
 C                     30.93764   3.75275   5.69719 
 N                     31.10064   4.1086    0.6304 
 C                     31.01461   5.41073   0.40372 
 C                     30.919    5.79748  -1.09656 
 C                     30.32114   4.41873  -1.66268 
 C                     30.85746   3.46424  -0.5978 
 C                     28.80279   4.36371  -1.63233 
 C                     32.32232   6.11503  -1.72256 
 C                     32.2763   6.79599  -3.09221 
 H                     33.30044   7.78671  -3.41172 
 N                     31.75519   1.20874   1.2786 
 C                     31.50145   1.08287  -0.04089 
 C                     31.79871  -0.31841  -0.37586 
 C                     32.09075  -1.05065   0.88638 
 C                     31.76065  -0.03299   1.86389 
 C                     31.86494  -0.82084  -1.78887 
 C                     32.57344  -2.44138   1.16757 
 O                     32.53007  -2.94382   2.34592 
 C                     33.01136  -3.23053   0.00699 
 N                     31.04563   1.86295   4.15536 
 C                     31.15807   0.52729   4.26164 
 C                     31.01441   0.08027   5.69688 
 C                     31.02325   1.42168   6.56759 
 C                     31.08345   2.46258   5.42817 
 C                     29.75735  -0.72727   6.01947 
 C                     32.07324   1.51319   7.70857 
 C                     33.46576   1.58209   7.12418 
 N                     31.27594   4.69324   3.46703 
 C                     31.00871   4.84736   4.84504 
 C                     30.79578   6.2888    5.08868 
 C                     30.93225   6.87527   3.82143 
 C                     31.19057   5.86797   2.85287 
 C                     30.47091   6.88166   6.34132 
 C                     30.90598   8.11623   3.08115 
 O                     30.81824   9.30585   3.38255 
 C                     30.88109   7.77789   1.52831 
 C                     31.90935   8.63995   0.84856 
 O                     33.1197   8.49174   1.0929 
 O                     31.31549   9.34346  -0.13265 
 C                     32.29697   10.20555  -0.8435 
 H                     30.58755   1.71732  -1.84101 
 H                     31.56252  -1.25411   3.56561 
 H                     30.8419   4.12904   6.71793 
 H                     30.24023   6.61372  -1.3129 
 H                     30.73914   4.17728  -2.63651 
 H                     28.37881   5.21678  -1.12375 
 H                     28.55193   3.44925  -1.11093 
 H                     28.40935   4.25001  -2.64654 
 H                     32.81321   5.17265  -1.99766 
 H                     32.91688   6.69993  -1.04801 
 H                     31.27812   7.18625  -3.32518 
 H                     32.45503   6.04074  -3.86142 
 H                     31.44223  -0.09474  -2.49421 
 H                     31.19386  -1.68421  -1.85304 
 H                     32.87073  -1.13274  -2.07831 
 H                     32.19187  -3.31409  -0.70288 
 H                     33.40413  -4.16231   0.41857 
 H                     33.81491  -2.68709  -0.50252 
 H                     31.85234  -0.53781   5.99513 
 H                     30.06547   1.57764   7.08543 
 H                     29.9763  -1.71846   6.45954 
 H                     29.17783  -0.8337    5.11207 
 H                     29.05199  -0.2364    6.68784 
 H                     32.04026   0.61265   8.32671 
 H                     31.92227   2.36177   8.36745 
 H                     33.70696   0.53149   6.93669 
 H                     34.15872   2.02508   7.83665 
 H                     33.46144   2.09707   6.15649 
 H                     31.07992   7.77126   6.43201 
 H                     30.64696   6.19274   7.16482 
 H                     29.40613   7.08029   6.19278 
 H                     29.87271   7.97998   1.16512 
 H                     31.91539   11.23017  -0.79617 
 H                     32.41513   9.75794  -1.84821 
 H                     33.27677   10.32386  -0.39577 
 
 ITRead=  0  0  0  0  0  0  0  0  0  0  0  0  0  0  0  0  0  0  0  0
 ITRead=  0  0  0  0  0  0  0  0  0  0  0  0  0  0  0  0  0  0  0  0
 ITRead=  0  0  0  0  0  0  0  0  0  0  0  0  0  0  0  0  0  0  0  0
 ITRead=  0  0  0  0  0  0  0  0  0  0  0  0  0  0  0  0  0  0  0  0
 ITRead=  0  0  0  0  0  0  0  0  0  0  0  0  0  0  0  0  0  0  0  0
 ITRead=  0  0  0  0  0  0  0  0  0  0  0  0  0  0  0  0  0  0  0  0
 ITRead=  0  0  0  0  0  0  0  0  0  0  0  0  0  0  0  0  0  0  0  0
 ITRead=  0  0  0  0  0  0  0  0  0  0  0  0  0  0  0  0  0  0
 MicOpt= -1 -1 -1 -1 -1 -1 -1 -1 -1 -1 -1 -1 -1 -1 -1 -1 -1 -1 -1 -1
 MicOpt= -1 -1 -1 -1 -1 -1 -1 -1 -1 -1 -1 -1 -1 -1 -1 -1 -1 -1 -1 -1
 MicOpt= -1 -1 -1 -1 -1 -1 -1 -1 -1 -1 -1 -1 -1 -1 -1 -1 -1 -1 -1 -1
 MicOpt= -1 -1 -1 -1 -1 -1 -1 -1 -1 -1 -1 -1 -1 -1 -1 -1 -1 -1 -1 -1
 MicOpt= -1 -1 -1 -1 -1 -1 -1 -1 -1 -1 -1 -1 -1 -1 -1 -1 -1 -1 -1 -1
 MicOpt= -1 -1 -1 -1 -1 -1 -1 -1 -1 -1 -1 -1 -1 -1 -1 -1 -1 -1 -1 -1
 MicOpt= -1 -1 -1 -1 -1 -1 -1 -1 -1 -1 -1 -1 -1 -1 -1 -1 -1 -1 -1 -1
 MicOpt= -1 -1 -1 -1 -1 -1 -1 -1 -1 -1 -1 -1 -1 -1 -1 -1 -1 -1
 NAtoms=    158 NQM=      158 NQMF=       0 NMMI=      0 NMMIF=      0
                NMic=       0 NMicF=      0.
                    Isotopes and Nuclear Properties:
 (Nuclear quadrupole moments (NQMom) in fm**2, nuclear magnetic moments (NMagM)
  in nuclear magnetons)

  Atom         1           2           3           4           5           6           7           8           9          10
 IAtWgt=          24          12          12          12          12          14          12          12          12          12
 AtmWgt=  23.9850450  12.0000000  12.0000000  12.0000000  12.0000000  14.0030740  12.0000000  12.0000000  12.0000000  12.0000000
 NucSpn=           0           0           0           0           0           2           0           0           0           0
 AtZEff=  -0.0000000  -0.0000000  -0.0000000  -0.0000000  -0.0000000  -0.0000000  -0.0000000  -0.0000000  -0.0000000  -0.0000000
 NQMom=    0.0000000   0.0000000   0.0000000   0.0000000   0.0000000   2.0440000   0.0000000   0.0000000   0.0000000   0.0000000
 NMagM=    0.0000000   0.0000000   0.0000000   0.0000000   0.0000000   0.4037610   0.0000000   0.0000000   0.0000000   0.0000000
 AtZNuc=  12.0000000   6.0000000   6.0000000   6.0000000   6.0000000   7.0000000   6.0000000   6.0000000   6.0000000   6.0000000

  Atom        11          12          13          14          15          16          17          18          19          20
 IAtWgt=          12          12          12           1          14          12          12          12          12          12
 AtmWgt=  12.0000000  12.0000000  12.0000000   1.0078250  14.0030740  12.0000000  12.0000000  12.0000000  12.0000000  12.0000000
 NucSpn=           0           0           0           1           2           0           0           0           0           0
 AtZEff=  -0.0000000  -0.0000000  -0.0000000  -0.0000000  -0.0000000  -0.0000000  -0.0000000  -0.0000000  -0.0000000  -0.0000000
 NQMom=    0.0000000   0.0000000   0.0000000   0.0000000   2.0440000   0.0000000   0.0000000   0.0000000   0.0000000   0.0000000
 NMagM=    0.0000000   0.0000000   0.0000000   2.7928460   0.4037610   0.0000000   0.0000000   0.0000000   0.0000000   0.0000000
 AtZNuc=   6.0000000   6.0000000   6.0000000   1.0000000   7.0000000   6.0000000   6.0000000   6.0000000   6.0000000   6.0000000

  Atom        21          22          23          24          25          26          27          28          29          30
 IAtWgt=          12          16          12          14          12          12          12          12          12          12
 AtmWgt=  12.0000000  15.9949146  12.0000000  14.0030740  12.0000000  12.0000000  12.0000000  12.0000000  12.0000000  12.0000000
 NucSpn=           0           0           0           2           0           0           0           0           0           0
 AtZEff=  -0.0000000  -0.0000000  -0.0000000  -0.0000000  -0.0000000  -0.0000000  -0.0000000  -0.0000000  -0.0000000  -0.0000000
 NQMom=    0.0000000   0.0000000   0.0000000   2.0440000   0.0000000   0.0000000   0.0000000   0.0000000   0.0000000   0.0000000
 NMagM=    0.0000000   0.0000000   0.0000000   0.4037610   0.0000000   0.0000000   0.0000000   0.0000000   0.0000000   0.0000000
 AtZNuc=   6.0000000   8.0000000   6.0000000   7.0000000   6.0000000   6.0000000   6.0000000   6.0000000   6.0000000   6.0000000

  Atom        31          32          33          34          35          36          37          38          39          40
 IAtWgt=          12          14          12          12          12          12          12          12          16          12
 AtmWgt=  12.0000000  14.0030740  12.0000000  12.0000000  12.0000000  12.0000000  12.0000000  12.0000000  15.9949146  12.0000000
 NucSpn=           0           2           0           0           0           0           0           0           0           0
 AtZEff=  -0.0000000  -0.0000000  -0.0000000  -0.0000000  -0.0000000  -0.0000000  -0.0000000  -0.0000000  -0.0000000  -0.0000000
 NQMom=    0.0000000   2.0440000   0.0000000   0.0000000   0.0000000   0.0000000   0.0000000   0.0000000   0.0000000   0.0000000
 NMagM=    0.0000000   0.4037610   0.0000000   0.0000000   0.0000000   0.0000000   0.0000000   0.0000000   0.0000000   0.0000000
 AtZNuc=   6.0000000   7.0000000   6.0000000   6.0000000   6.0000000   6.0000000   6.0000000   6.0000000   8.0000000   6.0000000

  Atom        41          42          43          44          45          46          47          48          49          50
 IAtWgt=          12          16          16          12           1           1           1           1           1           1
 AtmWgt=  12.0000000  15.9949146  15.9949146  12.0000000   1.0078250   1.0078250   1.0078250   1.0078250   1.0078250   1.0078250
 NucSpn=           0           0           0           0           1           1           1           1           1           1
 AtZEff=  -0.0000000  -0.0000000  -0.0000000  -0.0000000  -0.0000000  -0.0000000  -0.0000000  -0.0000000  -0.0000000  -0.0000000
 NQMom=    0.0000000   0.0000000   0.0000000   0.0000000   0.0000000   0.0000000   0.0000000   0.0000000   0.0000000   0.0000000
 NMagM=    0.0000000   0.0000000   0.0000000   0.0000000   2.7928460   2.7928460   2.7928460   2.7928460   2.7928460   2.7928460
 AtZNuc=   6.0000000   8.0000000   8.0000000   6.0000000   1.0000000   1.0000000   1.0000000   1.0000000   1.0000000   1.0000000

  Atom        51          52          53          54          55          56          57          58          59          60
 IAtWgt=           1           1           1           1           1           1           1           1           1           1
 AtmWgt=   1.0078250   1.0078250   1.0078250   1.0078250   1.0078250   1.0078250   1.0078250   1.0078250   1.0078250   1.0078250
 NucSpn=           1           1           1           1           1           1           1           1           1           1
 AtZEff=  -0.0000000  -0.0000000  -0.0000000  -0.0000000  -0.0000000  -0.0000000  -0.0000000  -0.0000000  -0.0000000  -0.0000000
 NQMom=    0.0000000   0.0000000   0.0000000   0.0000000   0.0000000   0.0000000   0.0000000   0.0000000   0.0000000   0.0000000
 NMagM=    2.7928460   2.7928460   2.7928460   2.7928460   2.7928460   2.7928460   2.7928460   2.7928460   2.7928460   2.7928460
 AtZNuc=   1.0000000   1.0000000   1.0000000   1.0000000   1.0000000   1.0000000   1.0000000   1.0000000   1.0000000   1.0000000

  Atom        61          62          63          64          65          66          67          68          69          70
 IAtWgt=           1           1           1           1           1           1           1           1           1           1
 AtmWgt=   1.0078250   1.0078250   1.0078250   1.0078250   1.0078250   1.0078250   1.0078250   1.0078250   1.0078250   1.0078250
 NucSpn=           1           1           1           1           1           1           1           1           1           1
 AtZEff=  -0.0000000  -0.0000000  -0.0000000  -0.0000000  -0.0000000  -0.0000000  -0.0000000  -0.0000000  -0.0000000  -0.0000000
 NQMom=    0.0000000   0.0000000   0.0000000   0.0000000   0.0000000   0.0000000   0.0000000   0.0000000   0.0000000   0.0000000
 NMagM=    2.7928460   2.7928460   2.7928460   2.7928460   2.7928460   2.7928460   2.7928460   2.7928460   2.7928460   2.7928460
 AtZNuc=   1.0000000   1.0000000   1.0000000   1.0000000   1.0000000   1.0000000   1.0000000   1.0000000   1.0000000   1.0000000

  Atom        71          72          73          74          75          76          77          78          79          80
 IAtWgt=           1           1           1           1           1           1           1           1           1          24
 AtmWgt=   1.0078250   1.0078250   1.0078250   1.0078250   1.0078250   1.0078250   1.0078250   1.0078250   1.0078250  23.9850450
 NucSpn=           1           1           1           1           1           1           1           1           1           0
 AtZEff=  -0.0000000  -0.0000000  -0.0000000  -0.0000000  -0.0000000  -0.0000000  -0.0000000  -0.0000000  -0.0000000  -0.0000000
 NQMom=    0.0000000   0.0000000   0.0000000   0.0000000   0.0000000   0.0000000   0.0000000   0.0000000   0.0000000   0.0000000
 NMagM=    2.7928460   2.7928460   2.7928460   2.7928460   2.7928460   2.7928460   2.7928460   2.7928460   2.7928460   0.0000000
 AtZNuc=   1.0000000   1.0000000   1.0000000   1.0000000   1.0000000   1.0000000   1.0000000   1.0000000   1.0000000  12.0000000

  Atom        81          82          83          84          85          86          87          88          89          90
 IAtWgt=          12          12          12          12          14          12          12          12          12          12
 AtmWgt=  12.0000000  12.0000000  12.0000000  12.0000000  14.0030740  12.0000000  12.0000000  12.0000000  12.0000000  12.0000000
 NucSpn=           0           0           0           0           2           0           0           0           0           0
 AtZEff=  -0.0000000  -0.0000000  -0.0000000  -0.0000000  -0.0000000  -0.0000000  -0.0000000  -0.0000000  -0.0000000  -0.0000000
 NQMom=    0.0000000   0.0000000   0.0000000   0.0000000   2.0440000   0.0000000   0.0000000   0.0000000   0.0000000   0.0000000
 NMagM=    0.0000000   0.0000000   0.0000000   0.0000000   0.4037610   0.0000000   0.0000000   0.0000000   0.0000000   0.0000000
 AtZNuc=   6.0000000   6.0000000   6.0000000   6.0000000   7.0000000   6.0000000   6.0000000   6.0000000   6.0000000   6.0000000

  Atom        91          92          93          94          95          96          97          98          99         100
 IAtWgt=          12          12           1          14          12          12          12          12          12          12
 AtmWgt=  12.0000000  12.0000000   1.0078250  14.0030740  12.0000000  12.0000000  12.0000000  12.0000000  12.0000000  12.0000000
 NucSpn=           0           0           1           2           0           0           0           0           0           0
 AtZEff=  -0.0000000  -0.0000000  -0.0000000  -0.0000000  -0.0000000  -0.0000000  -0.0000000  -0.0000000  -0.0000000  -0.0000000
 NQMom=    0.0000000   0.0000000   0.0000000   2.0440000   0.0000000   0.0000000   0.0000000   0.0000000   0.0000000   0.0000000
 NMagM=    0.0000000   0.0000000   2.7928460   0.4037610   0.0000000   0.0000000   0.0000000   0.0000000   0.0000000   0.0000000
 AtZNuc=   6.0000000   6.0000000   1.0000000   7.0000000   6.0000000   6.0000000   6.0000000   6.0000000   6.0000000   6.0000000

  Atom       101         102         103         104         105         106         107         108         109         110
 IAtWgt=          16          12          14          12          12          12          12          12          12          12
 AtmWgt=  15.9949146  12.0000000  14.0030740  12.0000000  12.0000000  12.0000000  12.0000000  12.0000000  12.0000000  12.0000000
 NucSpn=           0           0           2           0           0           0           0           0           0           0
 AtZEff=  -0.0000000  -0.0000000  -0.0000000  -0.0000000  -0.0000000  -0.0000000  -0.0000000  -0.0000000  -0.0000000  -0.0000000
 NQMom=    0.0000000   0.0000000   2.0440000   0.0000000   0.0000000   0.0000000   0.0000000   0.0000000   0.0000000   0.0000000
 NMagM=    0.0000000   0.0000000   0.4037610   0.0000000   0.0000000   0.0000000   0.0000000   0.0000000   0.0000000   0.0000000
 AtZNuc=   8.0000000   6.0000000   7.0000000   6.0000000   6.0000000   6.0000000   6.0000000   6.0000000   6.0000000   6.0000000

  Atom       111         112         113         114         115         116         117         118         119         120
 IAtWgt=          14          12          12          12          12          12          12          16          12          12
 AtmWgt=  14.0030740  12.0000000  12.0000000  12.0000000  12.0000000  12.0000000  12.0000000  15.9949146  12.0000000  12.0000000
 NucSpn=           2           0           0           0           0           0           0           0           0           0
 AtZEff=  -0.0000000  -0.0000000  -0.0000000  -0.0000000  -0.0000000  -0.0000000  -0.0000000  -0.0000000  -0.0000000  -0.0000000
 NQMom=    2.0440000   0.0000000   0.0000000   0.0000000   0.0000000   0.0000000   0.0000000   0.0000000   0.0000000   0.0000000
 NMagM=    0.4037610   0.0000000   0.0000000   0.0000000   0.0000000   0.0000000   0.0000000   0.0000000   0.0000000   0.0000000
 AtZNuc=   7.0000000   6.0000000   6.0000000   6.0000000   6.0000000   6.0000000   6.0000000   8.0000000   6.0000000   6.0000000

  Atom       121         122         123         124         125         126         127         128         129         130
 IAtWgt=          16          16          12           1           1           1           1           1           1           1
 AtmWgt=  15.9949146  15.9949146  12.0000000   1.0078250   1.0078250   1.0078250   1.0078250   1.0078250   1.0078250   1.0078250
 NucSpn=           0           0           0           1           1           1           1           1           1           1
 AtZEff=  -0.0000000  -0.0000000  -0.0000000  -0.0000000  -0.0000000  -0.0000000  -0.0000000  -0.0000000  -0.0000000  -0.0000000
 NQMom=    0.0000000   0.0000000   0.0000000   0.0000000   0.0000000   0.0000000   0.0000000   0.0000000   0.0000000   0.0000000
 NMagM=    0.0000000   0.0000000   0.0000000   2.7928460   2.7928460   2.7928460   2.7928460   2.7928460   2.7928460   2.7928460
 AtZNuc=   8.0000000   8.0000000   6.0000000   1.0000000   1.0000000   1.0000000   1.0000000   1.0000000   1.0000000   1.0000000

  Atom       131         132         133         134         135         136         137         138         139         140
 IAtWgt=           1           1           1           1           1           1           1           1           1           1
 AtmWgt=   1.0078250   1.0078250   1.0078250   1.0078250   1.0078250   1.0078250   1.0078250   1.0078250   1.0078250   1.0078250
 NucSpn=           1           1           1           1           1           1           1           1           1           1
 AtZEff=  -0.0000000  -0.0000000  -0.0000000  -0.0000000  -0.0000000  -0.0000000  -0.0000000  -0.0000000  -0.0000000  -0.0000000
 NQMom=    0.0000000   0.0000000   0.0000000   0.0000000   0.0000000   0.0000000   0.0000000   0.0000000   0.0000000   0.0000000
 NMagM=    2.7928460   2.7928460   2.7928460   2.7928460   2.7928460   2.7928460   2.7928460   2.7928460   2.7928460   2.7928460
 AtZNuc=   1.0000000   1.0000000   1.0000000   1.0000000   1.0000000   1.0000000   1.0000000   1.0000000   1.0000000   1.0000000

  Atom       141         142         143         144         145         146         147         148         149         150
 IAtWgt=           1           1           1           1           1           1           1           1           1           1
 AtmWgt=   1.0078250   1.0078250   1.0078250   1.0078250   1.0078250   1.0078250   1.0078250   1.0078250   1.0078250   1.0078250
 NucSpn=           1           1           1           1           1           1           1           1           1           1
 AtZEff=  -0.0000000  -0.0000000  -0.0000000  -0.0000000  -0.0000000  -0.0000000  -0.0000000  -0.0000000  -0.0000000  -0.0000000
 NQMom=    0.0000000   0.0000000   0.0000000   0.0000000   0.0000000   0.0000000   0.0000000   0.0000000   0.0000000   0.0000000
 NMagM=    2.7928460   2.7928460   2.7928460   2.7928460   2.7928460   2.7928460   2.7928460   2.7928460   2.7928460   2.7928460
 AtZNuc=   1.0000000   1.0000000   1.0000000   1.0000000   1.0000000   1.0000000   1.0000000   1.0000000   1.0000000   1.0000000

  Atom       151         152         153         154         155         156         157         158
 IAtWgt=           1           1           1           1           1           1           1           1
 AtmWgt=   1.0078250   1.0078250   1.0078250   1.0078250   1.0078250   1.0078250   1.0078250   1.0078250
 NucSpn=           1           1           1           1           1           1           1           1
 AtZEff=  -0.0000000  -0.0000000  -0.0000000  -0.0000000  -0.0000000  -0.0000000  -0.0000000  -0.0000000
 NQMom=    0.0000000   0.0000000   0.0000000   0.0000000   0.0000000   0.0000000   0.0000000   0.0000000
 NMagM=    2.7928460   2.7928460   2.7928460   2.7928460   2.7928460   2.7928460   2.7928460   2.7928460
 AtZNuc=   1.0000000   1.0000000   1.0000000   1.0000000   1.0000000   1.0000000   1.0000000   1.0000000
 Leave Link  101 at Sat Sep  4 17:52:34 2021, MaxMem= 23488102400 cpu:               3.1 elap:               0.2
 (Enter /sw/apps/gaussian-16.0/g16/l202.exe)
 Stoichiometry    C68H72Mg2N8O8
 Framework group  C1[X(C68H72Mg2N8O8)]
 Deg. of freedom   468
 Full point group                 C1      NOp   1
 Largest Abelian subgroup         C1      NOp   1
 Largest concise Abelian subgroup C1      NOp   1
                         Standard orientation:                         
 ---------------------------------------------------------------------
 Center     Atomic      Atomic             Coordinates (Angstroms)
 Number     Number       Type             X           Y           Z
 ---------------------------------------------------------------------
      1         12           0       15.774972    0.739258    0.319003
      2          6           0       16.148285   -2.688507   -0.641875
      3          6           0       16.624643    1.573332   -2.878722
      4          6           0       15.895621    3.766424    1.256194
      5          6           0       16.072962   -0.309716    3.629066
      6          7           0       16.296107   -0.491423   -1.445789
      7          6           0       16.344176   -1.795755   -1.697937
      8          6           0       16.547702   -2.126232   -3.206822
      9          6           0       17.237487   -0.766025   -3.671615
     10          6           0       16.658388    0.169873   -2.625352
     11          6           0       18.756623   -0.775606   -3.535100
     12          6           0       15.191078   -2.364263   -3.951566
     13          6           0       15.309980   -3.007324   -5.336372
     14          1           0       14.280270   -3.941684   -5.765342
     15          7           0       15.718361    2.409721   -0.734182
     16          6           0       16.086304    2.563685   -2.028863
     17          6           0       15.858721    3.988964   -2.350525
     18          6           0       15.508331    4.690814   -1.084536
     19          6           0       15.721779    3.642078   -0.120186
     20          6           0       15.932595    4.540588   -3.741210
     21          6           0       15.063427    6.088347   -0.789420
     22          8           0       15.036108    6.556602    0.399935
     23          6           0       14.740510    6.934404   -1.952586
     24          7           0       16.176890    1.641489    2.158045
     25          6           0       16.106410    2.969002    2.305447
     26          6           0       16.152713    3.360907    3.752584
     27          6           0       16.024735    2.002844    4.582667
     28          6           0       16.008330    1.003754    3.399527
     29          6           0       17.411070    4.116661    4.201343
     30          6           0       14.886303    1.923839    5.630593
     31          6           0       13.544940    1.923988    4.932134
     32          7           0       15.882777   -1.164883    1.355184
     33          6           0       16.027347   -1.366688    2.735419
     34          6           0       16.161229   -2.819617    2.947882
     35          6           0       16.101477   -3.364329    1.666647
     36          6           0       15.966831   -2.315998    0.712098
     37          6           0       16.372539   -3.462872    4.199283
     38          6           0       16.144803   -4.586334    0.880082
     39          8           0       16.152598   -5.789083    1.146217
     40          6           0       16.299310   -4.189367   -0.654314
     41          6           0       15.293338   -4.990856   -1.434663
     42          8           0       14.069273   -4.794126   -1.292084
     43          8           0       15.925896   -5.688737   -2.390369
     44          6           0       14.981515   -6.483335   -3.220377
     45          1           0       17.105209    1.958656   -3.780123
     46          1           0       15.832234    4.789436    1.632846
     47          1           0       16.084597   -0.717168    4.641637
     48          1           0       17.213554   -2.967012   -3.402152
     49          1           0       16.914914   -0.466065   -4.668456
     50          1           0       19.104602   -1.670218   -3.018862
     51          1           0       19.002698    0.116476   -2.958793
     52          1           0       19.233689   -0.645605   -4.506843
     53          1           0       14.760338   -1.402493   -4.229993
     54          1           0       14.511930   -2.955710   -3.336525
     55          1           0       16.301484   -3.432537   -5.494564
     56          1           0       15.229897   -2.220390   -6.086385
     57          1           0       16.371698    3.823508   -4.433691
     58          1           0       16.643134    5.366626   -3.718763
     59          1           0       14.964602    4.897781   -4.092968
     60          1           0       15.617049    7.011011   -2.596295
     61          1           0       14.356089    7.869498   -1.546791
     62          1           0       13.968034    6.441857   -2.543879
     63          1           0       15.319945    4.015121    4.007391
     64          1           0       16.927616    1.786109    5.154075
     65          1           0       17.201571    5.086696    4.652838
     66          1           0       18.067534    4.220774    3.337915
     67          1           0       18.049796    3.569897    4.894520
     68          1           0       14.909001    2.797067    6.281672
     69          1           0       14.943744    1.037445    6.262461
     70          1           0       13.357215    2.984141    4.765803
     71          1           0       12.780497    1.488533    5.576507
     72          1           0       13.605379    1.446386    3.954008
     73          1           0       15.715389   -4.332358    4.210121
     74          1           0       16.156128   -2.792393    5.030684
     75          1           0       17.432130   -3.706869    4.124530
     76          1           0       17.323350   -4.429430   -0.938626
     77          1           0       15.312227   -7.521166   -3.178281
     78          1           0       14.947960   -6.002242   -4.198041
     79          1           0       13.964295   -6.575831   -2.838215
     80         12           0      -15.945474   -0.795380    0.186795
     81          6           0      -15.894028    2.520029   -1.185951
     82          6           0      -15.148105    0.599187    3.195781
     83          6           0      -15.540613   -3.728620    1.326827
     84          6           0      -15.605355   -1.997912   -3.066504
     85          7           0      -15.593514    1.300586    0.799415
     86          6           0      -15.662177    2.482139    0.204820
     87          6           0      -15.551444    3.694329    1.168091
     88          6           0      -14.761193    2.976691    2.367832
     89          6           0      -15.218614    1.538089    2.135774
     90          6           0      -13.250697    3.028996    2.209716
     91          6           0      -16.955290    4.216114    1.636044
     92          6           0      -16.936316    5.581444    2.326898
     93          1           0      -18.062161    6.486189    2.111530
     94          7           0      -15.905628   -1.451269    2.059443
     95          6           0      -15.581510   -0.744457    3.162459
     96          6           0      -15.685560   -1.685584    4.288340
     97          6           0      -15.937302   -3.046227    3.740628
     98          6           0      -15.780140   -2.792744    2.322471
     99          6           0      -15.627212   -1.247667    5.722999
    100          6           0      -16.252991   -4.360961    4.387160
    101          8           0      -16.197573   -5.462748    3.734605
    102          6           0      -16.537861   -4.330757    5.829178
    103          7           0      -15.408446   -2.593915   -0.707213
    104          6           0      -15.356561   -3.732308    0.006435
    105          6           0      -15.219768   -4.935746   -0.895454
    106          6           0      -15.434641   -4.385502   -2.381609
    107          6           0      -15.576105   -2.878312   -2.075439
    108          6           0      -13.886228   -5.678529   -0.815908
    109          6           0      -16.535944   -5.073090   -3.234278
    110          6           0      -17.899619   -4.773879   -2.654421
    111          7           0      -15.962873    0.059715   -1.797278
    112          6           0      -15.776711   -0.620257   -3.020821
    113          6           0      -15.757359    0.401139   -4.087979
    114          6           0      -15.911787    1.616111   -3.403517
    115          6           0      -15.999493    1.370960   -2.006484
    116          6           0      -15.563824    0.150703   -5.475767
    117          6           0      -16.009880    3.051122   -3.544250
    118          8           0      -16.085439    3.827524   -4.495684
    119          6           0      -15.875828    3.710445   -2.104205
    120          6           0      -16.974074    4.727343   -1.954877
    121          8           0      -18.165579    4.371885   -1.930791
    122          8           0      -16.431676    5.919907   -1.648343
    123          6           0      -17.482222    6.958930   -1.479247
    124          1           0      -14.677973    0.906250    4.130426
    125          1           0      -15.503522   -4.769330    1.657014
    126          1           0      -15.601710   -2.299997   -4.115981
    127          1           0      -14.971988    4.526401    0.786428
    128          1           0      -15.103210    3.334143    3.335623
    129          1           0      -12.959609    3.438251    1.253725
    130          1           0      -12.909553    2.006296    2.303151
    131          1           0      -12.802790    3.573688    3.045800
    132          1           0      -17.311518    3.591041    2.464970
    133          1           0      -17.647144    4.235392    0.816537
    134          1           0      -15.986016    6.107391    2.174410
    135          1           0      -16.985404    5.424452    3.407164
    136          1           0      -15.269162   -0.214749    5.814044
    137          1           0      -14.850787   -1.848133    6.209290
    138          1           0      -16.572414   -1.399559    6.248538
    139          1           0      -15.684573   -3.911707    6.357154
    140          1           0      -16.827734   -5.350164    6.091212
    141          1           0      -17.380666   -3.653024    6.005183
    142          1           0      -15.985410   -5.670517   -0.678643
    143          1           0      -14.527253   -4.498169   -2.992983
    144          1           0      -13.997581   -6.749298   -0.560735
    145          1           0      -13.259403   -5.177820   -0.090011
    146          1           0      -13.277603   -5.632724   -1.717397
    147          1           0      -16.416663   -6.158875   -3.202661
    148          1           0      -16.521352   -4.777765   -4.278104
    149          1           0      -17.998540   -5.518885   -1.859266
    150          1           0      -18.672795   -4.897969   -3.409966
    151          1           0      -17.918415   -3.784325   -2.183171
    152          1           0      -16.283169    0.760945   -6.005535
    153          1           0      -15.687162   -0.904534   -5.710330
    154          1           0      -14.527061    0.478228   -5.590325
    155          1           0      -14.886158    4.164705   -2.042729
    156          1           0      -17.234867    7.777491   -2.162228
    157          1           0      -17.499812    7.192807   -0.398160
    158          1           0      -18.487482    6.712141   -1.800208
 ---------------------------------------------------------------------
 Rotational constants (GHZ):           0.0202778           0.0016409           0.0016116
 Leave Link  202 at Sat Sep  4 17:52:35 2021, MaxMem= 23488102400 cpu:               0.2 elap:               0.0
 (Enter /sw/apps/gaussian-16.0/g16/l301.exe)
 Standard basis: def2SVP (5D, 7F)
 Ernie: Thresh=  0.10000D-02 Tol=  0.10000D-05 Strict=F.
 There are  1658 symmetry adapted cartesian basis functions of A   symmetry.
 There are  1572 symmetry adapted basis functions of A   symmetry.
  1572 basis functions,  2678 primitive gaussians,  1658 cartesian basis functions
   312 alpha electrons      312 beta electrons
       nuclear repulsion energy     12305.2305021378 Hartrees.
 IExCor=20419 DFT=T Ex+Corr=CAM-B3LYP ExCW=0 ScaHFX=  1.000000
 ScaDFX=  1.000000  1.000000  1.000000  0.810000 ScalE2=  1.000000  1.000000
 IRadAn=      5 IRanWt=     -1 IRanGd=            0 ICorTp=0 IEmpDi=  4
 HFx  wShort=  0.000000 wLong=  0.330000 cFull=  0.190000 cShort=  0.000000 cLong=  0.460000
 DFx  wShort=  0.000000 wLong=  0.330000 cFull=  0.190000 cShort=  0.000000 cLong=  0.460000
 NAtoms=  158 NActive=  158 NUniq=  158 SFac= 1.00D+00 NAtFMM=   60 NAOKFM=T Big=T
 Integral buffers will be    131072 words long.
 Raffenetti 1 integral format.
 Two-electron integral symmetry is turned on.
 Leave Link  301 at Sat Sep  4 17:52:35 2021, MaxMem= 23488102400 cpu:               1.4 elap:               0.1
 (Enter /sw/apps/gaussian-16.0/g16/l302.exe)
 NPDir=0 NMtPBC=     1 NCelOv=     1 NCel=       1 NClECP=     1 NCelD=      1
         NCelK=      1 NCelE2=     1 NClLst=     1 CellRange=     0.0.
 One-electron integrals computed using PRISM.
 One-electron integral symmetry used in STVInt
   1 Symmetry operations used in ECPInt.
 ECPInt:  NShTT=  271216 NPrTT=  987664 LenC2=  103957 LenP2D=  239866.
 LDataN:  DoStor=T MaxTD1= 4 Len=   56
 NBasis=  1572 RedAO= T EigKep=  3.36D-04  NBF=  1572
 NBsUse=  1572 1.00D-06 EigRej= -1.00D+00 NBFU=  1572
 Precomputing XC quadrature grid using
 IXCGrd= 4 IRadAn=           5 IRanWt=          -1 IRanGd=           0 AccXCQ= 0.00D+00.
 Generated NRdTot=       0 NPtTot=           0 NUsed=           0 NTot=          32
 NSgBfM=   812   812   812   812   812 MxSgAt=   158 MxSgA2=    79.
 Leave Link  302 at Sat Sep  4 17:52:39 2021, MaxMem= 23488102400 cpu:             100.6 elap:               4.2
 (Enter /sw/apps/gaussian-16.0/g16/l303.exe)
 DipDrv:  MaxL=1.
 Leave Link  303 at Sat Sep  4 17:52:39 2021, MaxMem= 23488102400 cpu:               8.7 elap:               0.4
 (Enter /sw/apps/gaussian-16.0/g16/l308.exe)
 Leave Link  308 at Sat Sep  4 17:52:40 2021, MaxMem= 23488102400 cpu:              15.3 elap:               0.7
 (Enter /sw/apps/gaussian-16.0/g16/l401.exe)
 ExpMin= 3.36D-02 ExpMax= 4.95D+03 ExpMxC= 7.45D+02 IAcc=3 IRadAn=         5 AccDes= 0.00D+00
 Harris functional with IExCor=20419 and IRadAn=       5 diagonalized for initial guess.
 HarFok:  IExCor=20419 AccDes= 0.00D+00 IRadAn=         5 IDoV= 1 UseB2=F ITyADJ=14
 ICtDFT=  3500011 ScaDFX=  1.000000  1.000000  1.000000  1.000000
 FoFCou: FMM=F IPFlag=           0 FMFlag=      100000 FMFlg1=        2001
         NFxFlg=           0 DoJE=T BraDBF=F KetDBF=T FulRan=T
         wScrn=  0.000000 ICntrl=       500 IOpCl=  0 I1Cent=   200000004 NGrid=           0
         NMat0=    1 NMatS0=      1 NMatT0=    0 NMatD0=    1 NMtDS0=    0 NMtDT0=    0
 Petite list used in FoFCou.
 Harris En= -3918.65801438153    
 JPrj=0 DoOrth=F DoCkMO=F.
 Leave Link  401 at Sat Sep  4 17:52:47 2021, MaxMem= 23488102400 cpu:             157.0 elap:               6.6
 (Enter /sw/apps/gaussian-16.0/g16/l502.exe)
 Integral symmetry usage will be decided dynamically.
 Closed shell SCF:
 Using DIIS extrapolation, IDIIS=  1040.
 NGot= 23488102400 LenX= 23482547354 LenY= 23479796732
 Requested convergence on RMS density matrix=1.00D-08 within 128 cycles.
 Requested convergence on MAX density matrix=1.00D-06.
 Requested convergence on             energy=1.00D-06.
 No special actions if energy rises.
 Fock matrices will be formed incrementally for  20 cycles.

 Cycle   1  Pass 1  IDiag  1:
 FoFJK:  IHMeth= 1 ICntrl=       0 DoSepK=T KAlg= 0 I1Cent=           0 FoldK=F
 IRaf=         1 NMat=       1 IRICut=       1 DoRegI=T DoRafI=F ISym2E= 0 IDoP0=0 IntGTp=1.
 FoFCou: FMM=T IPFlag=           0 FMFlag=      100000 FMFlg1=        2001
         NFxFlg=           0 DoJE=T BraDBF=F KetDBF=F FulRan=T
         wScrn=  0.000000 ICntrl=       500 IOpCl=  0 I1Cent=           0 NGrid=           0
         NMat0=    1 NMatS0=      1 NMatT0=    0 NMatD0=    1 NMtDS0=    0 NMtDT0=    0
 Symmetry not used in FoFCou.
 FMM levels:  10  Number of levels for PrismC:   9
 E= -4068.94934625140    
 DIIS: error= 2.04D-02 at cycle   1 NSaved=   1.
 NSaved= 1 IEnMin= 1 EnMin= -4068.94934625140     IErMin= 1 ErrMin= 2.04D-02
 ErrMax= 2.04D-02  0.00D+00 EMaxC= 1.00D-01 BMatC= 1.69D+00 BMatP= 1.69D+00
 IDIUse=3 WtCom= 7.96D-01 WtEn= 2.04D-01
 Coeff-Com:  0.100D+01
 Coeff-En:   0.100D+01
 Coeff:      0.100D+01
 Gap=     0.120 Goal=   None    Shift=    0.000
 GapD=    0.120 DampG=1.000 DampE=0.500 DampFc=0.5000 IDamp=-1.
 Damping current iteration by 5.00D-01
 RMSDP=1.57D-03 MaxDP=1.35D-01              OVMax= 2.02D-01

 Cycle   2  Pass 1  IDiag  1:
 RMSU=  7.69D-04    CP:  9.82D-01
 E= -4069.33826882846     Delta-E=       -0.388922577058 Rises=F Damp=T
 DIIS: error= 1.27D-02 at cycle   2 NSaved=   2.
 NSaved= 2 IEnMin= 2 EnMin= -4069.33826882846     IErMin= 2 ErrMin= 1.27D-02
 ErrMax= 1.27D-02  0.00D+00 EMaxC= 1.00D-01 BMatC= 3.07D-01 BMatP= 1.69D+00
 IDIUse=3 WtCom= 8.73D-01 WtEn= 1.27D-01
 Coeff-Com: -0.213D+00 0.121D+01
 Coeff-En:   0.000D+00 0.100D+01
 Coeff:     -0.186D+00 0.119D+01
 Gap=     0.138 Goal=   None    Shift=    0.000
 RMSDP=7.64D-04 MaxDP=9.43D-02 DE=-3.89D-01 OVMax= 1.88D-01

 Cycle   3  Pass 1  IDiag  1:
 RMSU=  7.32D-04    CP:  9.68D-01  1.24D+00
 E= -4069.62814932396     Delta-E=       -0.289880495506 Rises=F Damp=F
 DIIS: error= 1.58D-02 at cycle   3 NSaved=   3.
 NSaved= 3 IEnMin= 3 EnMin= -4069.62814932396     IErMin= 2 ErrMin= 1.27D-02
 ErrMax= 1.58D-02  0.00D+00 EMaxC= 1.00D-01 BMatC= 2.02D-01 BMatP= 3.07D-01
 IDIUse=3 WtCom= 8.42D-01 WtEn= 1.58D-01
 Coeff-Com: -0.267D+00 0.652D+00 0.616D+00
 Coeff-En:   0.000D+00 0.000D+00 0.100D+01
 Coeff:     -0.225D+00 0.549D+00 0.676D+00
 Gap=     0.125 Goal=   None    Shift=    0.000
 RMSDP=5.07D-04 MaxDP=4.87D-02 DE=-2.90D-01 OVMax= 1.42D-01

 Cycle   4  Pass 1  IDiag  1:
 RMSU=  2.65D-04    CP:  9.65D-01  1.55D+00  5.06D-01
 E= -4069.76520072140     Delta-E=       -0.137051397438 Rises=F Damp=F
 DIIS: error= 7.32D-03 at cycle   4 NSaved=   4.
 NSaved= 4 IEnMin= 4 EnMin= -4069.76520072140     IErMin= 4 ErrMin= 7.32D-03
 ErrMax= 7.32D-03  0.00D+00 EMaxC= 1.00D-01 BMatC= 5.03D-02 BMatP= 2.02D-01
 IDIUse=3 WtCom= 9.27D-01 WtEn= 7.32D-02
 Coeff-Com: -0.109D+00 0.226D+00 0.409D+00 0.474D+00
 Coeff-En:   0.000D+00 0.000D+00 0.220D+00 0.780D+00
 Coeff:     -0.101D+00 0.209D+00 0.395D+00 0.497D+00
 Gap=     0.123 Goal=   None    Shift=    0.000
 RMSDP=1.99D-04 MaxDP=2.05D-02 DE=-1.37D-01 OVMax= 6.14D-02

 Cycle   5  Pass 1  IDiag  1:
 RMSU=  7.56D-05    CP:  9.64D-01  1.49D+00  6.89D-01  5.50D-01
 E= -4069.81056095225     Delta-E=       -0.045360230848 Rises=F Damp=F
 DIIS: error= 7.90D-04 at cycle   5 NSaved=   5.
 NSaved= 5 IEnMin= 5 EnMin= -4069.81056095225     IErMin= 5 ErrMin= 7.90D-04
 ErrMax= 7.90D-04  0.00D+00 EMaxC= 1.00D-01 BMatC= 1.16D-03 BMatP= 5.03D-02
 IDIUse=3 WtCom= 9.92D-01 WtEn= 7.90D-03
 Coeff-Com: -0.356D-01 0.699D-01 0.165D+00 0.249D+00 0.552D+00
 Coeff-En:   0.000D+00 0.000D+00 0.000D+00 0.000D+00 0.100D+01
 Coeff:     -0.354D-01 0.694D-01 0.163D+00 0.247D+00 0.556D+00
 Gap=     0.123 Goal=   None    Shift=    0.000
 RMSDP=4.05D-05 MaxDP=4.17D-03 DE=-4.54D-02 OVMax= 1.63D-02

 Cycle   6  Pass 1  IDiag  1:
 RMSU=  3.01D-05    CP:  9.64D-01  1.49D+00  6.81D-01  6.21D-01  7.61D-01
 E= -4069.81155863825     Delta-E=       -0.000997686000 Rises=F Damp=F
 DIIS: error= 2.21D-04 at cycle   6 NSaved=   6.
 NSaved= 6 IEnMin= 6 EnMin= -4069.81155863825     IErMin= 6 ErrMin= 2.21D-04
 ErrMax= 2.21D-04  0.00D+00 EMaxC= 1.00D-01 BMatC= 1.74D-04 BMatP= 1.16D-03
 IDIUse=3 WtCom= 9.98D-01 WtEn= 2.21D-03
 Coeff-Com:  0.233D-02-0.682D-02 0.107D-01 0.396D-01 0.306D+00 0.648D+00
 Coeff-En:   0.000D+00 0.000D+00 0.000D+00 0.000D+00 0.102D+00 0.898D+00
 Coeff:      0.233D-02-0.681D-02 0.107D-01 0.395D-01 0.306D+00 0.649D+00
 Gap=     0.123 Goal=   None    Shift=    0.000
 RMSDP=1.57D-05 MaxDP=1.24D-03 DE=-9.98D-04 OVMax= 7.20D-03

 Cycle   7  Pass 1  IDiag  1:
 RMSU=  1.06D-05    CP:  9.64D-01  1.50D+00  6.87D-01  6.21D-01  8.61D-01
                    CP:  7.51D-01
 E= -4069.81174528555     Delta-E=       -0.000186647296 Rises=F Damp=F
 DIIS: error= 8.34D-05 at cycle   7 NSaved=   7.
 NSaved= 7 IEnMin= 7 EnMin= -4069.81174528555     IErMin= 7 ErrMin= 8.34D-05
 ErrMax= 8.34D-05  0.00D+00 EMaxC= 1.00D-01 BMatC= 2.04D-05 BMatP= 1.74D-04
 IDIUse=1 WtCom= 1.00D+00 WtEn= 0.00D+00
 Coeff-Com:  0.445D-02-0.972D-02-0.900D-02-0.390D-02 0.101D+00 0.328D+00
 Coeff-Com:  0.589D+00
 Coeff:      0.445D-02-0.972D-02-0.900D-02-0.390D-02 0.101D+00 0.328D+00
 Coeff:      0.589D+00
 Gap=     0.123 Goal=   None    Shift=    0.000
 RMSDP=6.47D-06 MaxDP=1.12D-03 DE=-1.87D-04 OVMax= 3.41D-03

 Cycle   8  Pass 1  IDiag  1:
 RMSU=  4.65D-06    CP:  9.64D-01  1.50D+00  6.88D-01  6.26D-01  8.65D-01
                    CP:  8.77D-01  8.25D-01
 E= -4069.81177059997     Delta-E=       -0.000025314421 Rises=F Damp=F
 DIIS: error= 5.00D-05 at cycle   8 NSaved=   8.
 NSaved= 8 IEnMin= 8 EnMin= -4069.81177059997     IErMin= 8 ErrMin= 5.00D-05
 ErrMax= 5.00D-05  0.00D+00 EMaxC= 1.00D-01 BMatC= 4.78D-06 BMatP= 2.04D-05
 IDIUse=1 WtCom= 1.00D+00 WtEn= 0.00D+00
 Coeff-Com:  0.214D-02-0.424D-02-0.773D-02-0.121D-01-0.119D-01 0.334D-01
 Coeff-Com:  0.345D+00 0.655D+00
 Coeff:      0.214D-02-0.424D-02-0.773D-02-0.121D-01-0.119D-01 0.334D-01
 Coeff:      0.345D+00 0.655D+00
 Gap=     0.123 Goal=   None    Shift=    0.000
 RMSDP=3.25D-06 MaxDP=3.54D-04 DE=-2.53D-05 OVMax= 1.12D-03

 Cycle   9  Pass 1  IDiag  1:
 RMSU=  1.90D-06    CP:  9.64D-01  1.50D+00  6.88D-01  6.27D-01  8.82D-01
                    CP:  9.02D-01  1.02D+00  9.38D-01
 E= -4069.81177823990     Delta-E=       -0.000007639932 Rises=F Damp=F
 DIIS: error= 1.93D-05 at cycle   9 NSaved=   9.
 NSaved= 9 IEnMin= 9 EnMin= -4069.81177823990     IErMin= 9 ErrMin= 1.93D-05
 ErrMax= 1.93D-05  0.00D+00 EMaxC= 1.00D-01 BMatC= 6.81D-07 BMatP= 4.78D-06
 IDIUse=1 WtCom= 1.00D+00 WtEn= 0.00D+00
 Coeff-Com:  0.461D-03-0.765D-03-0.265D-02-0.597D-02-0.213D-01-0.384D-01
 Coeff-Com:  0.105D+00 0.325D+00 0.638D+00
 Coeff:      0.461D-03-0.765D-03-0.265D-02-0.597D-02-0.213D-01-0.384D-01
 Coeff:      0.105D+00 0.325D+00 0.638D+00
 Gap=     0.123 Goal=   None    Shift=    0.000
 RMSDP=1.41D-06 MaxDP=1.51D-04 DE=-7.64D-06 OVMax= 7.47D-04

 Cycle  10  Pass 1  IDiag  1:
 RMSU=  9.34D-07    CP:  9.64D-01  1.50D+00  6.88D-01  6.28D-01  8.85D-01
                    CP:  9.16D-01  1.07D+00  1.10D+00  1.05D+00
 E= -4069.81177981060     Delta-E=       -0.000001570697 Rises=F Damp=F
 DIIS: error= 1.03D-05 at cycle  10 NSaved=  10.
 NSaved=10 IEnMin=10 EnMin= -4069.81177981060     IErMin=10 ErrMin= 1.03D-05
 ErrMax= 1.03D-05  0.00D+00 EMaxC= 1.00D-01 BMatC= 1.70D-07 BMatP= 6.81D-07
 IDIUse=1 WtCom= 1.00D+00 WtEn= 0.00D+00
 Coeff-Com: -0.426D-03 0.893D-03 0.123D-02 0.113D-02-0.377D-02-0.309D-01
 Coeff-Com: -0.468D-01-0.763D-01 0.256D+00 0.899D+00
 Coeff:     -0.426D-03 0.893D-03 0.123D-02 0.113D-02-0.377D-02-0.309D-01
 Coeff:     -0.468D-01-0.763D-01 0.256D+00 0.899D+00
 Gap=     0.123 Goal=   None    Shift=    0.000
 RMSDP=1.22D-06 MaxDP=1.25D-04 DE=-1.57D-06 OVMax= 6.03D-04

 Cycle  11  Pass 1  IDiag  1:
 RMSU=  5.12D-07    CP:  9.64D-01  1.50D+00  6.88D-01  6.28D-01  8.88D-01
                    CP:  9.26D-01  1.12D+00  1.21D+00  1.39D+00  1.37D+00
 E= -4069.81178059074     Delta-E=       -0.000000780148 Rises=F Damp=F
 DIIS: error= 3.91D-06 at cycle  11 NSaved=  11.
 NSaved=11 IEnMin=11 EnMin= -4069.81178059074     IErMin=11 ErrMin= 3.91D-06
 ErrMax= 3.91D-06  0.00D+00 EMaxC= 1.00D-01 BMatC= 6.02D-08 BMatP= 1.70D-07
 IDIUse=1 WtCom= 1.00D+00 WtEn= 0.00D+00
 Coeff-Com: -0.325D-03 0.632D-03 0.132D-02 0.211D-02 0.441D-02-0.830D-02
 Coeff-Com: -0.437D-01-0.132D+00-0.224D-01 0.463D+00 0.735D+00
 Coeff:     -0.325D-03 0.632D-03 0.132D-02 0.211D-02 0.441D-02-0.830D-02
 Coeff:     -0.437D-01-0.132D+00-0.224D-01 0.463D+00 0.735D+00
 Gap=     0.123 Goal=   None    Shift=    0.000
 RMSDP=6.82D-07 MaxDP=5.70D-05 DE=-7.80D-07 OVMax= 3.67D-04

 Cycle  12  Pass 1  IDiag  1:
 RMSU=  2.61D-07    CP:  9.64D-01  1.50D+00  6.88D-01  6.28D-01  8.89D-01
                    CP:  9.29D-01  1.14D+00  1.28D+00  1.56D+00  1.76D+00
                    CP:  1.20D+00
 E= -4069.81178085059     Delta-E=       -0.000000259843 Rises=F Damp=F
 DIIS: error= 2.35D-06 at cycle  12 NSaved=  12.
 NSaved=12 IEnMin=12 EnMin= -4069.81178085059     IErMin=12 ErrMin= 2.35D-06
 ErrMax= 2.35D-06  0.00D+00 EMaxC= 1.00D-01 BMatC= 1.45D-08 BMatP= 6.02D-08
 IDIUse=1 WtCom= 1.00D+00 WtEn= 0.00D+00
 Coeff-Com:  0.180D-05-0.200D-04 0.171D-03 0.499D-03 0.327D-02 0.410D-02
 Coeff-Com:  0.300D-02-0.343D-01-0.676D-01-0.784D-01 0.248D+00 0.921D+00
 Coeff:      0.180D-05-0.200D-04 0.171D-03 0.499D-03 0.327D-02 0.410D-02
 Coeff:      0.300D-02-0.343D-01-0.676D-01-0.784D-01 0.248D+00 0.921D+00
 Gap=     0.123 Goal=   None    Shift=    0.000
 RMSDP=4.37D-07 MaxDP=3.10D-05 DE=-2.60D-07 OVMax= 2.47D-04

 Cycle  13  Pass 1  IDiag  1:
 RMSU=  1.64D-07    CP:  9.64D-01  1.50D+00  6.88D-01  6.28D-01  8.89D-01
                    CP:  9.29D-01  1.15D+00  1.31D+00  1.67D+00  1.99D+00
                    CP:  1.62D+00  1.28D+00
 E= -4069.81178094186     Delta-E=       -0.000000091270 Rises=F Damp=F
 DIIS: error= 1.25D-06 at cycle  13 NSaved=  13.
 NSaved=13 IEnMin=13 EnMin= -4069.81178094186     IErMin=13 ErrMin= 1.25D-06
 ErrMax= 1.25D-06  0.00D+00 EMaxC= 1.00D-01 BMatC= 8.01D-09 BMatP= 1.45D-08
 IDIUse=1 WtCom= 1.00D+00 WtEn= 0.00D+00
 Coeff-Com:  0.120D-03-0.245D-03-0.370D-03-0.458D-03 0.556D-03 0.508D-02
 Coeff-Com:  0.198D-01 0.228D-01-0.341D-01-0.241D+00-0.156D+00 0.601D+00
 Coeff-Com:  0.784D+00
 Coeff:      0.120D-03-0.245D-03-0.370D-03-0.458D-03 0.556D-03 0.508D-02
 Coeff:      0.198D-01 0.228D-01-0.341D-01-0.241D+00-0.156D+00 0.601D+00
 Coeff:      0.784D+00
 Gap=     0.123 Goal=   None    Shift=    0.000
 RMSDP=3.37D-07 MaxDP=2.26D-05 DE=-9.13D-08 OVMax= 1.93D-04

 Cycle  14  Pass 1  IDiag  1:
 RMSU=  7.56D-08    CP:  9.64D-01  1.50D+00  6.88D-01  6.28D-01  8.89D-01
                    CP:  9.30D-01  1.15D+00  1.33D+00  1.74D+00  2.18D+00
                    CP:  1.88D+00  1.79D+00  1.09D+00
 E= -4069.81178097718     Delta-E=       -0.000000035328 Rises=F Damp=F
 DIIS: error= 6.11D-07 at cycle  14 NSaved=  14.
 NSaved=14 IEnMin=14 EnMin= -4069.81178097718     IErMin=14 ErrMin= 6.11D-07
 ErrMax= 6.11D-07  0.00D+00 EMaxC= 1.00D-01 BMatC= 1.23D-09 BMatP= 8.01D-09
 IDIUse=1 WtCom= 1.00D+00 WtEn= 0.00D+00
 Coeff-Com:  0.659D-04-0.130D-03-0.245D-03-0.385D-03-0.487D-03 0.129D-02
 Coeff-Com:  0.108D-01 0.191D-01 0.360D-02-0.990D-01-0.142D+00 0.947D-01
 Coeff-Com:  0.403D+00 0.709D+00
 Coeff:      0.659D-04-0.130D-03-0.245D-03-0.385D-03-0.487D-03 0.129D-02
 Coeff:      0.108D-01 0.191D-01 0.360D-02-0.990D-01-0.142D+00 0.947D-01
 Coeff:      0.403D+00 0.709D+00
 Gap=     0.123 Goal=   None    Shift=    0.000
 RMSDP=1.00D-07 MaxDP=6.59D-06 DE=-3.53D-08 OVMax= 5.48D-05

 Cycle  15  Pass 1  IDiag  1:
 RMSU=  3.82D-08    CP:  9.64D-01  1.50D+00  6.88D-01  6.28D-01  8.89D-01
                    CP:  9.30D-01  1.15D+00  1.33D+00  1.76D+00  2.22D+00
                    CP:  1.98D+00  1.93D+00  1.32D+00  1.03D+00
 E= -4069.81178098108     Delta-E=       -0.000000003891 Rises=F Damp=F
 DIIS: error= 3.53D-07 at cycle  15 NSaved=  15.
 NSaved=15 IEnMin=15 EnMin= -4069.81178098108     IErMin=15 ErrMin= 3.53D-07
 ErrMax= 3.53D-07  0.00D+00 EMaxC= 1.00D-01 BMatC= 2.26D-10 BMatP= 1.23D-09
 IDIUse=1 WtCom= 1.00D+00 WtEn= 0.00D+00
 Coeff-Com:  0.510D-05-0.841D-05-0.317D-04-0.804D-04-0.300D-03-0.515D-03
 Coeff-Com:  0.111D-02 0.248D-02 0.875D-02 0.199D-02-0.308D-01-0.730D-01
 Coeff-Com:  0.278D-01 0.299D+00 0.763D+00
 Coeff:      0.510D-05-0.841D-05-0.317D-04-0.804D-04-0.300D-03-0.515D-03
 Coeff:      0.111D-02 0.248D-02 0.875D-02 0.199D-02-0.308D-01-0.730D-01
 Coeff:      0.278D-01 0.299D+00 0.763D+00
 Gap=     0.123 Goal=   None    Shift=    0.000
 RMSDP=4.08D-08 MaxDP=2.69D-06 DE=-3.89D-09 OVMax= 2.63D-05

 Cycle  16  Pass 1  IDiag  1:
 RMSU=  1.86D-08    CP:  9.64D-01  1.50D+00  6.88D-01  6.28D-01  8.89D-01
                    CP:  9.30D-01  1.15D+00  1.34D+00  1.76D+00  2.23D+00
                    CP:  2.01D+00  1.99D+00  1.40D+00  1.24D+00  1.14D+00
 E= -4069.81178098180     Delta-E=       -0.000000000720 Rises=F Damp=F
 DIIS: error= 1.80D-07 at cycle  16 NSaved=  16.
 NSaved=16 IEnMin=16 EnMin= -4069.81178098180     IErMin=16 ErrMin= 1.80D-07
 ErrMax= 1.80D-07  0.00D+00 EMaxC= 1.00D-01 BMatC= 8.02D-11 BMatP= 2.26D-10
 IDIUse=1 WtCom= 1.00D+00 WtEn= 0.00D+00
 Coeff-Com: -0.142D-04 0.288D-04 0.471D-04 0.540D-04-0.257D-04-0.633D-03
 Coeff-Com: -0.200D-02-0.426D-02 0.457D-02 0.256D-01 0.206D-01-0.646D-01
 Coeff-Com: -0.840D-01-0.357D-01 0.396D+00 0.744D+00
 Coeff:     -0.142D-04 0.288D-04 0.471D-04 0.540D-04-0.257D-04-0.633D-03
 Coeff:     -0.200D-02-0.426D-02 0.457D-02 0.256D-01 0.206D-01-0.646D-01
 Coeff:     -0.840D-01-0.357D-01 0.396D+00 0.744D+00
 Gap=     0.123 Goal=   None    Shift=    0.000
 RMSDP=2.28D-08 MaxDP=1.57D-06 DE=-7.20D-10 OVMax= 1.35D-05

 Cycle  17  Pass 1  IDiag  1:
 RMSU=  1.04D-08    CP:  9.64D-01  1.50D+00  6.88D-01  6.28D-01  8.89D-01
                    CP:  9.30D-01  1.15D+00  1.34D+00  1.76D+00  2.24D+00
                    CP:  2.02D+00  2.01D+00  1.45D+00  1.34D+00  1.44D+00
                    CP:  1.25D+00
 E= -4069.81178098214     Delta-E=       -0.000000000342 Rises=F Damp=F
 DIIS: error= 1.03D-07 at cycle  17 NSaved=  17.
 NSaved=17 IEnMin=17 EnMin= -4069.81178098214     IErMin=17 ErrMin= 1.03D-07
 ErrMax= 1.03D-07  0.00D+00 EMaxC= 1.00D-01 BMatC= 1.79D-11 BMatP= 8.02D-11
 IDIUse=1 WtCom= 1.00D+00 WtEn= 0.00D+00
 Coeff-Com: -0.723D-05 0.141D-04 0.287D-04 0.428D-04 0.842D-04-0.124D-03
 Coeff-Com: -0.979D-03-0.281D-02 0.167D-03 0.930D-02 0.175D-01-0.746D-02
 Coeff-Com: -0.377D-01-0.102D+00-0.323D-01 0.300D+00 0.856D+00
 Coeff:     -0.723D-05 0.141D-04 0.287D-04 0.428D-04 0.842D-04-0.124D-03
 Coeff:     -0.979D-03-0.281D-02 0.167D-03 0.930D-02 0.175D-01-0.746D-02
 Coeff:     -0.377D-01-0.102D+00-0.323D-01 0.300D+00 0.856D+00
 Gap=     0.123 Goal=   None    Shift=    0.000
 RMSDP=1.38D-08 MaxDP=1.07D-06 DE=-3.42D-10 OVMax= 8.60D-06

 Cycle  18  Pass 1  IDiag  1:
 RMSU=  4.86D-09    CP:  9.64D-01  1.50D+00  6.88D-01  6.28D-01  8.89D-01
                    CP:  9.30D-01  1.15D+00  1.34D+00  1.76D+00  2.24D+00
                    CP:  2.03D+00  2.02D+00  1.47D+00  1.41D+00  1.62D+00
                    CP:  1.66D+00  1.39D+00
 E= -4069.81178098219     Delta-E=       -0.000000000053 Rises=F Damp=F
 DIIS: error= 5.11D-08 at cycle  18 NSaved=  18.
 NSaved=18 IEnMin=18 EnMin= -4069.81178098219     IErMin=18 ErrMin= 5.11D-08
 ErrMax= 5.11D-08  0.00D+00 EMaxC= 1.00D-01 BMatC= 6.77D-12 BMatP= 1.79D-11
 IDIUse=1 WtCom= 1.00D+00 WtEn= 0.00D+00
 Coeff-Com:  0.202D-05-0.434D-05-0.445D-05-0.156D-05 0.592D-04 0.182D-03
 Coeff-Com:  0.400D-03 0.208D-03-0.128D-02-0.613D-02-0.136D-04 0.203D-01
 Coeff-Com:  0.182D-01-0.331D-01-0.162D+00-0.185D+00 0.348D+00 0.100D+01
 Coeff:      0.202D-05-0.434D-05-0.445D-05-0.156D-05 0.592D-04 0.182D-03
 Coeff:      0.400D-03 0.208D-03-0.128D-02-0.613D-02-0.136D-04 0.203D-01
 Coeff:      0.182D-01-0.331D-01-0.162D+00-0.185D+00 0.348D+00 0.100D+01
 Gap=     0.123 Goal=   None    Shift=    0.000
 RMSDP=1.16D-08 MaxDP=8.05D-07 DE=-5.28D-11 OVMax= 7.07D-06

 Cycle  19  Pass 1  IDiag  1:
 RMSU=  2.81D-09    CP:  9.64D-01  1.50D+00  6.88D-01  6.28D-01  8.89D-01
                    CP:  9.30D-01  1.15D+00  1.34D+00  1.76D+00  2.24D+00
                    CP:  2.03D+00  2.03D+00  1.48D+00  1.46D+00  1.77D+00
                    CP:  1.99D+00  1.93D+00  1.37D+00
 E= -4069.81178098233     Delta-E=       -0.000000000136 Rises=F Damp=F
 DIIS: error= 4.23D-08 at cycle  19 NSaved=  19.
 NSaved=19 IEnMin=19 EnMin= -4069.81178098233     IErMin=19 ErrMin= 4.23D-08
 ErrMax= 4.23D-08  0.00D+00 EMaxC= 1.00D-01 BMatC= 1.55D-12 BMatP= 6.77D-12
 IDIUse=1 WtCom= 1.00D+00 WtEn= 0.00D+00
 Coeff-Com:  0.294D-05-0.593D-05-0.100D-04-0.125D-04 0.115D-04 0.123D-03
 Coeff-Com:  0.487D-03 0.808D-03-0.632D-03-0.609D-02-0.487D-02 0.125D-01
 Coeff-Com:  0.205D-01 0.107D-01-0.726D-01-0.181D+00-0.343D-01 0.510D+00
 Coeff-Com:  0.745D+00
 Coeff:      0.294D-05-0.593D-05-0.100D-04-0.125D-04 0.115D-04 0.123D-03
 Coeff:      0.487D-03 0.808D-03-0.632D-03-0.609D-02-0.487D-02 0.125D-01
 Coeff:      0.205D-01 0.107D-01-0.726D-01-0.181D+00-0.343D-01 0.510D+00
 Coeff:      0.745D+00
 Gap=     0.123 Goal=   None    Shift=    0.000
 RMSDP=4.75D-09 MaxDP=3.29D-07 DE=-1.36D-10 OVMax= 2.75D-06

 SCF Done:  E(RCAM-B3LYP) =  -4069.81178098     A.U. after   19 cycles
            NFock= 19  Conv=0.47D-08     -V/T= 2.0102
 KE= 4.028801996504D+03 PE=-3.409128828529D+04 EE= 1.368744400566D+04
 Leave Link  502 at Sat Sep  4 18:00:59 2021, MaxMem= 23488102400 cpu:           11250.8 elap:             492.4
 (Enter /sw/apps/gaussian-16.0/g16/l801.exe)
 DoSCS=F DFT=T ScalE2(SS,OS)=  1.000000  1.000000
 ExpMin= 3.36D-02 ExpMax= 4.95D+03 ExpMxC= 7.45D+02 IAcc=3 IRadAn=         5 AccDes= 0.00D+00
 HarFok:  IExCor=  205 AccDes= 0.00D+00 IRadAn=         5 IDoV=-2 UseB2=F ITyADJ=14
 ICtDFT= 12500011 ScaDFX=  1.000000  1.000000  1.000000  1.000000
 GSVD:  LWork=       -9588 too small for GESVD, short by       45590 words or       45590 for optimal perf.
 Largest valence mixing into a core orbital is  2.03D-04
 Largest core mixing into a valence orbital is  5.24D-05
 Range of M.O.s used for correlation:    95  1572
 NBasis=  1572 NAE=   312 NBE=   312 NFC=    94 NFV=     0
 NROrb=   1478 NOA=   218 NOB=   218 NVA=  1260 NVB=  1260
 Leave Link  801 at Sat Sep  4 18:00:59 2021, MaxMem= 23488102400 cpu:               8.5 elap:               0.4
 (Enter /sw/apps/gaussian-16.0/g16/l914.exe)
 RHF ground state
 Two-electron integrals replicated using symmetry.
 MDV= 23488102400 DFT=T DoStab=F Mixed=T DoRPA=T DoScal=F NonHer=T
 Making orbital integer symmetry assigments:
 Orbital symmetries:
       Occupied  (A) (A) (A) (A) (A) (A) (A) (A) (A) (A) (A) (A)
                 (A) (A) (A) (A) (A) (A) (A) (A) (A) (A) (A) (A)
                 (A) (A) (A) (A) (A) (A) (A) (A) (A) (A) (A) (A)
                 (A) (A) (A) (A) (A) (A) (A) (A) (A) (A) (A) (A)
                 (A) (A) (A) (A) (A) (A) (A) (A) (A) (A) (A) (A)
                 (A) (A) (A) (A) (A) (A) (A) (A) (A) (A) (A) (A)
                 (A) (A) (A) (A) (A) (A) (A) (A) (A) (A) (A) (A)
                 (A) (A) (A) (A) (A) (A) (A) (A) (A) (A) (A) (A)
                 (A) (A) (A) (A) (A) (A) (A) (A) (A) (A) (A) (A)
                 (A) (A) (A) (A) (A) (A) (A) (A) (A) (A) (A) (A)
                 (A) (A) (A) (A) (A) (A) (A) (A) (A) (A) (A) (A)
                 (A) (A) (A) (A) (A) (A) (A) (A) (A) (A) (A) (A)
                 (A) (A) (A) (A) (A) (A) (A) (A) (A) (A) (A) (A)
                 (A) (A) (A) (A) (A) (A) (A) (A) (A) (A) (A) (A)
                 (A) (A) (A) (A) (A) (A) (A) (A) (A) (A) (A) (A)
                 (A) (A) (A) (A) (A) (A) (A) (A) (A) (A) (A) (A)
                 (A) (A) (A) (A) (A) (A) (A) (A) (A) (A) (A) (A)
                 (A) (A) (A) (A) (A) (A) (A) (A) (A) (A) (A) (A)
                 (A) (A) (A) (A) (A) (A) (A) (A) (A) (A) (A) (A)
                 (A) (A) (A) (A) (A) (A) (A) (A) (A) (A) (A) (A)
                 (A) (A) (A) (A) (A) (A) (A) (A) (A) (A) (A) (A)
                 (A) (A) (A) (A) (A) (A) (A) (A) (A) (A) (A) (A)
                 (A) (A) (A) (A) (A) (A) (A) (A) (A) (A) (A) (A)
                 (A) (A) (A) (A) (A) (A) (A) (A) (A) (A) (A) (A)
                 (A) (A) (A) (A) (A) (A) (A) (A) (A) (A) (A) (A)
                 (A) (A) (A) (A) (A) (A) (A) (A) (A) (A) (A) (A)
       Virtual   (A) (A) (A) (A) (A) (A) (A) (A) (A) (A) (A) (A)
                 (A) (A) (A) (A) (A) (A) (A) (A) (A) (A) (A) (A)
                 (A) (A) (A) (A) (A) (A) (A) (A) (A) (A) (A) (A)
                 (A) (A) (A) (A) (A) (A) (A) (A) (A) (A) (A) (A)
                 (A) (A) (A) (A) (A) (A) (A) (A) (A) (A) (A) (A)
                 (A) (A) (A) (A) (A) (A) (A) (A) (A) (A) (A) (A)
                 (A) (A) (A) (A) (A) (A) (A) (A) (A) (A) (A) (A)
                 (A) (A) (A) (A) (A) (A) (A) (A) (A) (A) (A) (A)
                 (A) (A) (A) (A) (A) (A) (A) (A) (A) (A) (A) (A)
                 (A) (A) (A) (A) (A) (A) (A) (A) (A) (A) (A) (A)
                 (A) (A) (A) (A) (A) (A) (A) (A) (A) (A) (A) (A)
                 (A) (A) (A) (A) (A) (A) (A) (A) (A) (A) (A) (A)
                 (A) (A) (A) (A) (A) (A) (A) (A) (A) (A) (A) (A)
                 (A) (A) (A) (A) (A) (A) (A) (A) (A) (A) (A) (A)
                 (A) (A) (A) (A) (A) (A) (A) (A) (A) (A) (A) (A)
                 (A) (A) (A) (A) (A) (A) (A) (A) (A) (A) (A) (A)
                 (A) (A) (A) (A) (A) (A) (A) (A) (A) (A) (A) (A)
                 (A) (A) (A) (A) (A) (A) (A) (A) (A) (A) (A) (A)
                 (A) (A) (A) (A) (A) (A) (A) (A) (A) (A) (A) (A)
                 (A) (A) (A) (A) (A) (A) (A) (A) (A) (A) (A) (A)
                 (A) (A) (A) (A) (A) (A) (A) (A) (A) (A) (A) (A)
                 (A) (A) (A) (A) (A) (A) (A) (A) (A) (A) (A) (A)
                 (A) (A) (A) (A) (A) (A) (A) (A) (A) (A) (A) (A)
                 (A) (A) (A) (A) (A) (A) (A) (A) (A) (A) (A) (A)
                 (A) (A) (A) (A) (A) (A) (A) (A) (A) (A) (A) (A)
                 (A) (A) (A) (A) (A) (A) (A) (A) (A) (A) (A) (A)
                 (A) (A) (A) (A) (A) (A) (A) (A) (A) (A) (A) (A)
                 (A) (A) (A) (A) (A) (A) (A) (A) (A) (A) (A) (A)
                 (A) (A) (A) (A) (A) (A) (A) (A) (A) (A) (A) (A)
                 (A) (A) (A) (A) (A) (A) (A) (A) (A) (A) (A) (A)
                 (A) (A) (A) (A) (A) (A) (A) (A) (A) (A) (A) (A)
                 (A) (A) (A) (A) (A) (A) (A) (A) (A) (A) (A) (A)
                 (A) (A) (A) (A) (A) (A) (A) (A) (A) (A) (A) (A)
                 (A) (A) (A) (A) (A) (A) (A) (A) (A) (A) (A) (A)
                 (A) (A) (A) (A) (A) (A) (A) (A) (A) (A) (A) (A)
                 (A) (A) (A) (A) (A) (A) (A) (A) (A) (A) (A) (A)
                 (A) (A) (A) (A) (A) (A) (A) (A) (A) (A) (A) (A)
                 (A) (A) (A) (A) (A) (A) (A) (A) (A) (A) (A) (A)
                 (A) (A) (A) (A) (A) (A) (A) (A) (A) (A) (A) (A)
                 (A) (A) (A) (A) (A) (A) (A) (A) (A) (A) (A) (A)
                 (A) (A) (A) (A) (A) (A) (A) (A) (A) (A) (A) (A)
                 (A) (A) (A) (A) (A) (A) (A) (A) (A) (A) (A) (A)
                 (A) (A) (A) (A) (A) (A) (A) (A) (A) (A) (A) (A)
                 (A) (A) (A) (A) (A) (A) (A) (A) (A) (A) (A) (A)
                 (A) (A) (A) (A) (A) (A) (A) (A) (A) (A) (A) (A)
                 (A) (A) (A) (A) (A) (A) (A) (A) (A) (A) (A) (A)
                 (A) (A) (A) (A) (A) (A) (A) (A) (A) (A) (A) (A)
                 (A) (A) (A) (A) (A) (A) (A) (A) (A) (A) (A) (A)
                 (A) (A) (A) (A) (A) (A) (A) (A) (A) (A) (A) (A)
                 (A) (A) (A) (A) (A) (A) (A) (A) (A) (A) (A) (A)
                 (A) (A) (A) (A) (A) (A) (A) (A) (A) (A) (A) (A)
                 (A) (A) (A) (A) (A) (A) (A) (A) (A) (A) (A) (A)
                 (A) (A) (A) (A) (A) (A) (A) (A) (A) (A) (A) (A)
                 (A) (A) (A) (A) (A) (A) (A) (A) (A) (A) (A) (A)
                 (A) (A) (A) (A) (A) (A) (A) (A) (A) (A) (A) (A)
                 (A) (A) (A) (A) (A) (A) (A) (A) (A) (A) (A) (A)
                 (A) (A) (A) (A) (A) (A) (A) (A) (A) (A) (A) (A)
                 (A) (A) (A) (A) (A) (A) (A) (A) (A) (A) (A) (A)
                 (A) (A) (A) (A) (A) (A) (A) (A) (A) (A) (A) (A)
                 (A) (A) (A) (A) (A) (A) (A) (A) (A) (A) (A) (A)
                 (A) (A) (A) (A) (A) (A) (A) (A) (A) (A) (A) (A)
                 (A) (A) (A) (A) (A) (A) (A) (A) (A) (A) (A) (A)
                 (A) (A) (A) (A) (A) (A) (A) (A) (A) (A) (A) (A)
                 (A) (A) (A) (A) (A) (A) (A) (A) (A) (A) (A) (A)
                 (A) (A) (A) (A) (A) (A) (A) (A) (A) (A) (A) (A)
                 (A) (A) (A) (A) (A) (A) (A) (A) (A) (A) (A) (A)
                 (A) (A) (A) (A) (A) (A) (A) (A) (A) (A) (A) (A)
                 (A) (A) (A) (A) (A) (A) (A) (A) (A) (A) (A) (A)
                 (A) (A) (A) (A) (A) (A) (A) (A) (A) (A) (A) (A)
                 (A) (A) (A) (A) (A) (A) (A) (A) (A) (A) (A) (A)
                 (A) (A) (A) (A) (A) (A) (A) (A) (A) (A) (A) (A)
                 (A) (A) (A) (A) (A) (A) (A) (A) (A) (A) (A) (A)
                 (A) (A) (A) (A) (A) (A) (A) (A) (A) (A) (A) (A)
                 (A) (A) (A) (A) (A) (A) (A) (A) (A) (A) (A) (A)
                 (A) (A) (A) (A) (A) (A) (A) (A) (A) (A) (A) (A)
                 (A) (A) (A) (A) (A) (A) (A) (A) (A) (A) (A) (A)
                 (A) (A) (A) (A) (A) (A) (A) (A) (A) (A) (A) (A)
                 (A) (A) (A) (A) (A) (A) (A) (A) (A) (A) (A) (A)
                 (A) (A) (A) (A) (A) (A) (A) (A) (A) (A) (A) (A)
                 (A) (A) (A) (A) (A) (A) (A) (A) (A) (A) (A) (A)
                 (A) (A) (A) (A) (A) (A) (A) (A) (A) (A) (A) (A)
                 (A) (A) (A) (A) (A) (A) (A) (A) (A) (A) (A) (A)
                 (A) (A) (A) (A) (A) (A) (A) (A) (A) (A) (A) (A)
                 (A) (A) (A) (A) (A) (A) (A) (A) (A) (A) (A) (A)
                 (A) (A) (A) (A) (A) (A) (A) (A) (A) (A) (A) (A)
                 (A) (A) (A) (A) (A) (A) (A) (A) (A) (A) (A) (A)
                 (A) (A) (A) (A) (A) (A) (A) (A) (A) (A) (A) (A)
                 (A) (A) (A) (A) (A) (A) (A) (A) (A) (A) (A) (A)
                 (A) (A) (A) (A) (A) (A) (A) (A) (A) (A) (A) (A)
                 (A) (A) (A) (A) (A) (A) (A) (A) (A) (A) (A) (A)
                 (A) (A) (A) (A) (A) (A) (A) (A) (A) (A) (A) (A)
                 (A) (A) (A) (A) (A) (A) (A) (A) (A) (A) (A) (A)
                 (A) (A) (A) (A) (A) (A) (A) (A) (A) (A) (A) (A)
                 (A) (A) (A) (A) (A) (A) (A) (A) (A) (A) (A) (A)
                 (A) (A) (A) (A) (A) (A) (A) (A) (A) (A) (A) (A)
                 (A) (A) (A) (A) (A) (A) (A) (A) (A) (A) (A) (A)
                 (A) (A) (A) (A) (A) (A) (A) (A) (A) (A) (A) (A)
                 (A) (A) (A) (A) (A) (A) (A) (A) (A) (A) (A) (A)
                 (A) (A) (A) (A) (A) (A) (A) (A) (A) (A) (A) (A)
                 (A) (A) (A) (A) (A) (A) (A) (A) (A) (A) (A) (A)
                 (A) (A) (A) (A) (A) (A) (A) (A) (A) (A) (A) (A)
                 (A) (A) (A) (A) (A) (A) (A) (A) (A) (A) (A) (A)
                 (A) (A) (A) (A) (A) (A) (A) (A) (A) (A) (A) (A)
                 (A) (A) (A) (A) (A) (A) (A) (A) (A) (A) (A) (A)
                 (A) (A) (A) (A) (A) (A) (A) (A) (A) (A) (A) (A)
    20 initial guesses have been made.
 Convergence on wavefunction:    0.001000000000000
 Davidson Disk Diagonalization:  ConvIn= 1.00D-03 SkipCon=T Conv= 1.00D-03.
 Max sub-space:  2000 roots to seek:    20 dimension of matrix:       549360
 Iteration     1 Dimension    20 NMult     0 NNew     20
 CISAX will form    20 AO SS matrices at one time.
 NMat=    20 NSing=    20 JSym2X= 0.
 FoFJK:  IHMeth= 1 ICntrl=       0 DoSepK=T KAlg= 0 I1Cent=           0 FoldK=F
 IRaf=         1 NMat=      40 IRICut=       1 DoRegI=T DoRafI=F ISym2E= 0 IDoP0=3 IntGTp=3.
 FoFCou: FMM=T IPFlag=           0 FMFlag=      100000 FMFlg1=        2001
         NFxFlg=           0 DoJE=F BraDBF=F KetDBF=F FulRan=T
         wScrn=  0.000000 ICntrl=       500 IOpCl=  0 I1Cent=           0 NGrid=           0
         NMat0=   20 NMatS0=     20 NMatT0=    0 NMatD0=   20 NMtDS0=    0 NMtDT0=    0
 Symmetry not used in FoFCou.
 FMM levels:  10  Number of levels for PrismC:   9
 New state      1 was old state      8
 New state      2 was old state      5
 New state      3 was old state      1
 New state      5 was old state      2
 Excitation Energies [eV] at current iteration:
 Root      1 :     2.614477069054797
 Root      2 :     2.619275091799399
 Root      3 :     2.680528176420936
 Root      4 :     2.690121530273573
 Root      5 :     3.065765302828564
 Root      6 :     3.067434703490378
 Root      7 :     3.629221437814287
 Root      8 :     3.669318544513878
 Root      9 :     3.735498728898838
 Root     10 :     3.759078143441874
 Root     11 :     3.861331149586718
 Root     12 :     3.869075707906160
 Root     13 :     4.303598369543883
 Root     14 :     4.306574552973887
 Root     15 :     4.978165421869554
 Root     16 :     5.000053328656628
 Root     17 :     5.272471508859613
 Root     18 :     5.294401339392182
 Root     19 :     5.304389834094498
 Root     20 :     5.328253474917370
 Iteration     2 Dimension    30 NMult    20 NNew     10
 CISAX will form    10 AO SS matrices at one time.
 NMat=    10 NSing=    10 JSym2X= 0.
 New state      1 was old state      3
 Root      1 not converged, maximum delta is    0.188608131185380
 New state      2 was old state      4
 Root      2 not converged, maximum delta is    0.189899519376085
 New state      3 was old state      2
 Root      3 not converged, maximum delta is    0.066626752310627
 New state      4 was old state      1
 Root      4 not converged, maximum delta is    0.089578442719447
 Root      5 has converged.
 Excitation Energies [eV] at current iteration:
 Root      1 :     1.801421519698774   Change is   -0.879106656722162
 Root      2 :     1.807380129165413   Change is   -0.882741401108160
 Root      3 :     2.235872681664409   Change is   -0.383402410134990
 Root      4 :     2.239135312840096   Change is   -0.375341756214701
 Root      5 :     3.065759102315853   Change is   -0.000006200512712
 Iteration     3 Dimension    38 NMult    30 NNew      8
 CISAX will form     8 AO SS matrices at one time.
 NMat=     8 NSing=     8 JSym2X= 0.
 Root      1 not converged, maximum delta is    0.070358066684405
 Root      2 not converged, maximum delta is    0.071517040574434
 Root      3 not converged, maximum delta is    0.043951775702571
 Root      4 not converged, maximum delta is    0.042563941368412
 Root      5 has converged.
 Excitation Energies [eV] at current iteration:
 Root      1 :     1.694177336856272   Change is   -0.107244182842502
 Root      2 :     1.698990519887177   Change is   -0.108389609278236
 Root      3 :     2.194433303618200   Change is   -0.041439378046209
 Root      4 :     2.200245192334606   Change is   -0.038890120505490
 Root      5 :     3.065759102315772   Change is   -0.000000000000080
 Iteration     4 Dimension    46 NMult    38 NNew      8
 CISAX will form     8 AO SS matrices at one time.
 NMat=     8 NSing=     8 JSym2X= 0.
 Root      1 not converged, maximum delta is    0.013173887650107
 Root      2 not converged, maximum delta is    0.013435764297803
 Root      3 not converged, maximum delta is    0.009717657903119
 Root      4 not converged, maximum delta is    0.008894727563965
 Root      5 has converged.
 Excitation Energies [eV] at current iteration:
 Root      1 :     1.677466585241028   Change is   -0.016710751615244
 Root      2 :     1.682108196681017   Change is   -0.016882323206160
 Root      3 :     2.187134907173540   Change is   -0.007298396444660
 Root      4 :     2.193470412590951   Change is   -0.006774779743655
 Root      5 :     3.065759102315853   Change is    0.000000000000080
 Iteration     5 Dimension    54 NMult    46 NNew      8
 CISAX will form     8 AO SS matrices at one time.
 NMat=     8 NSing=     8 JSym2X= 0.
 Root      1 not converged, maximum delta is    0.002189433943361
 Root      2 not converged, maximum delta is    0.002188102039365
 Root      3 not converged, maximum delta is    0.002500811679192
 Root      4 not converged, maximum delta is    0.002387195755913
 Root      5 has converged.
 Excitation Energies [eV] at current iteration:
 Root      1 :     1.675687947752794   Change is   -0.001778637488234
 Root      2 :     1.680335692306293   Change is   -0.001772504374724
 Root      3 :     2.186289292887910   Change is   -0.000845614285630
 Root      4 :     2.192694025896742   Change is   -0.000776386694208
 Root      5 :     3.065759102315906   Change is    0.000000000000054
 Iteration     6 Dimension    62 NMult    54 NNew      8
 CISAX will form     8 AO SS matrices at one time.
 NMat=     8 NSing=     8 JSym2X= 0.
 Root      1 not converged, maximum delta is    0.001372839375578
 Root      2 not converged, maximum delta is    0.001393973586473
 Root      3 not converged, maximum delta is    0.001068857852674
 Root      4 not converged, maximum delta is    0.001014573621328
 Root      5 has converged.
 Excitation Energies [eV] at current iteration:
 Root      1 :     1.675434162344023   Change is   -0.000253785408771
 Root      2 :     1.680080656490759   Change is   -0.000255035815534
 Root      3 :     2.186161170417003   Change is   -0.000128122470907
 Root      4 :     2.192576247311449   Change is   -0.000117778585293
 Root      5 :     3.065759102315879   Change is   -0.000000000000027
 Iteration     7 Dimension    70 NMult    62 NNew      8
 CISAX will form     8 AO SS matrices at one time.
 NMat=     8 NSing=     8 JSym2X= 0.
 Root      1 has converged.
 Root      2 has converged.
 Root      3 has converged.
 Root      4 has converged.
 Root      5 has converged.
 Excitation Energies [eV] at current iteration:
 Root      1 :     1.675409971388657   Change is   -0.000024190955365
 Root      2 :     1.680056908250484   Change is   -0.000023748240275
[...]
 Alpha virt. eigenvalues --    1.83472   1.83797   1.83848   1.84062   1.84158
 Alpha virt. eigenvalues --    1.84481   1.84487   1.84742   1.84849   1.85079
 Alpha virt. eigenvalues --    1.85138   1.85304   1.85312   1.85443   1.85522
 Alpha virt. eigenvalues --    1.85855   1.85905   1.86337   1.86397   1.86594
 Alpha virt. eigenvalues --    1.86607   1.86780   1.86820   1.86995   1.87075
 Alpha virt. eigenvalues --    1.87436   1.87483   1.87718   1.87724   1.87905
 Alpha virt. eigenvalues --    1.87969   1.88077   1.88132   1.88528   1.88574
 Alpha virt. eigenvalues --    1.88862   1.88892   1.89026   1.89161   1.89615
 Alpha virt. eigenvalues --    1.89664   1.89785   1.89832   1.90143   1.90157
 Alpha virt. eigenvalues --    1.90789   1.90847   1.91380   1.91387   1.91477
 Alpha virt. eigenvalues --    1.91543   1.92135   1.92191   1.92613   1.92665
 Alpha virt. eigenvalues --    1.93019   1.93103   1.93374   1.93456   1.94262
 Alpha virt. eigenvalues --    1.94318   1.94726   1.94769   1.95510   1.95546
 Alpha virt. eigenvalues --    1.95764   1.95765   1.96001   1.96033   1.96124
 Alpha virt. eigenvalues --    1.96188   1.96434   1.96631   1.96889   1.96937
 Alpha virt. eigenvalues --    1.97486   1.97493   1.97752   1.97871   1.98118
 Alpha virt. eigenvalues --    1.98208   1.98299   1.98714   1.99024   1.99174
 Alpha virt. eigenvalues --    1.99861   1.99883   2.00677   2.00696   2.01034
 Alpha virt. eigenvalues --    2.01047   2.01459   2.01519   2.01558   2.01709
 Alpha virt. eigenvalues --    2.01757   2.01775   2.02661   2.02823   2.03093
 Alpha virt. eigenvalues --    2.03271   2.03330   2.03442   2.03471   2.03522
 Alpha virt. eigenvalues --    2.03976   2.04073   2.04929   2.04996   2.05551
 Alpha virt. eigenvalues --    2.05582   2.06116   2.06238   2.06941   2.06981
 Alpha virt. eigenvalues --    2.07220   2.07297   2.08507   2.08623   2.08954
 Alpha virt. eigenvalues --    2.09019   2.09562   2.09628   2.10813   2.10985
 Alpha virt. eigenvalues --    2.11220   2.11357   2.11481   2.11577   2.11765
 Alpha virt. eigenvalues --    2.11816   2.12415   2.12503   2.12752   2.12818
 Alpha virt. eigenvalues --    2.12842   2.12871   2.13579   2.13806   2.14172
 Alpha virt. eigenvalues --    2.14203   2.15357   2.15373   2.15963   2.16030
 Alpha virt. eigenvalues --    2.16542   2.16558   2.16791   2.17120   2.17452
 Alpha virt. eigenvalues --    2.17600   2.17741   2.17882   2.17953   2.18104
 Alpha virt. eigenvalues --    2.18362   2.18620   2.18906   2.19182   2.19678
 Alpha virt. eigenvalues --    2.19767   2.20076   2.20190   2.20247   2.20386
 Alpha virt. eigenvalues --    2.21123   2.21184   2.21706   2.21711   2.21780
 Alpha virt. eigenvalues --    2.21822   2.22650   2.22716   2.23289   2.23348
 Alpha virt. eigenvalues --    2.24366   2.24430   2.24954   2.24992   2.26335
 Alpha virt. eigenvalues --    2.26387   2.26814   2.26956   2.27138   2.27149
 Alpha virt. eigenvalues --    2.28174   2.28261   2.29304   2.29384   2.29771
 Alpha virt. eigenvalues --    2.29825   2.30491   2.30567   2.30770   2.31118
 Alpha virt. eigenvalues --    2.31147   2.31217   2.32155   2.32188   2.33171
 Alpha virt. eigenvalues --    2.33180   2.33429   2.33496   2.34087   2.34173
 Alpha virt. eigenvalues --    2.35243   2.35406   2.35833   2.35855   2.36279
 Alpha virt. eigenvalues --    2.36385   2.36395   2.36659   2.37622   2.37691
 Alpha virt. eigenvalues --    2.38293   2.38329   2.38727   2.38894   2.39612
 Alpha virt. eigenvalues --    2.39646   2.40212   2.40215   2.40521   2.40772
 Alpha virt. eigenvalues --    2.41156   2.41305   2.41638   2.41720   2.42070
 Alpha virt. eigenvalues --    2.42074   2.42768   2.42976   2.43008   2.43569
 Alpha virt. eigenvalues --    2.43921   2.44204   2.44748   2.44766   2.44930
 Alpha virt. eigenvalues --    2.44938   2.45513   2.45580   2.46228   2.46336
 Alpha virt. eigenvalues --    2.46437   2.46512   2.46739   2.46834   2.47286
 Alpha virt. eigenvalues --    2.47318   2.47747   2.47827   2.49336   2.49343
 Alpha virt. eigenvalues --    2.49833   2.50100   2.50397   2.50581   2.51155
 Alpha virt. eigenvalues --    2.51205   2.51551   2.51920   2.52334   2.52474
 Alpha virt. eigenvalues --    2.52843   2.53101   2.53909   2.53951   2.54183
 Alpha virt. eigenvalues --    2.54225   2.54744   2.54820   2.55552   2.55604
 Alpha virt. eigenvalues --    2.57897   2.58015   2.58676   2.58840   2.60234
 Alpha virt. eigenvalues --    2.60240   2.60646   2.60858   2.61743   2.61757
 Alpha virt. eigenvalues --    2.62365   2.62566   2.62988   2.63059   2.63969
 Alpha virt. eigenvalues --    2.64152   2.64274   2.64361   2.65032   2.65111
 Alpha virt. eigenvalues --    2.65793   2.65821   2.66753   2.66808   2.66942
 Alpha virt. eigenvalues --    2.66989   2.67912   2.67940   2.68751   2.68890
 Alpha virt. eigenvalues --    2.68961   2.69056   2.69420   2.69524   2.70029
 Alpha virt. eigenvalues --    2.70068   2.70997   2.71011   2.71822   2.72086
 Alpha virt. eigenvalues --    2.72419   2.72662   2.72685   2.72861   2.73216
 Alpha virt. eigenvalues --    2.73305   2.73394   2.73564   2.74434   2.74542
 Alpha virt. eigenvalues --    2.74981   2.75006   2.76447   2.76621   2.76991
 Alpha virt. eigenvalues --    2.77264   2.77488   2.77533   2.78222   2.78225
 Alpha virt. eigenvalues --    2.78616   2.78761   2.79081   2.79165   2.80192
 Alpha virt. eigenvalues --    2.80377   2.80613   2.80621   2.81074   2.81146
 Alpha virt. eigenvalues --    2.81912   2.81966   2.82258   2.82372   2.83773
 Alpha virt. eigenvalues --    2.83783   2.83799   2.83826   2.84450   2.84575
 Alpha virt. eigenvalues --    2.84809   2.84912   2.85617   2.85699   2.86581
 Alpha virt. eigenvalues --    2.87026   2.87094   2.87639   2.88163   2.88187
 Alpha virt. eigenvalues --    2.88537   2.88538   2.88793   2.88965   2.90529
 Alpha virt. eigenvalues --    2.90580   2.90990   2.91217   2.93187   2.93242
 Alpha virt. eigenvalues --    2.93691   2.94230   2.94495   2.94587   2.95393
 Alpha virt. eigenvalues --    2.95400   2.95757   2.96234   2.96295   2.96470
 Alpha virt. eigenvalues --    2.96789   2.97209   2.97849   2.97955   2.98241
 Alpha virt. eigenvalues --    2.98276   2.98395   2.98493   2.98631   2.98696
 Alpha virt. eigenvalues --    2.98842   2.98914   2.99615   2.99722   2.99934
 Alpha virt. eigenvalues --    3.00064   3.00252   3.00258   3.00493   3.00912
 Alpha virt. eigenvalues --    3.01822   3.02018   3.02036   3.02066   3.02741
 Alpha virt. eigenvalues --    3.02766   3.03010   3.03238   3.03359   3.03627
 Alpha virt. eigenvalues --    3.03972   3.04199   3.04350   3.04479   3.04577
 Alpha virt. eigenvalues --    3.04643   3.05273   3.05326   3.06084   3.06144
 Alpha virt. eigenvalues --    3.06837   3.06856   3.07843   3.08177   3.09278
 Alpha virt. eigenvalues --    3.09435   3.09726   3.10350   3.10475   3.10657
 Alpha virt. eigenvalues --    3.11359   3.11401   3.11818   3.11977   3.12202
 Alpha virt. eigenvalues --    3.12221   3.13316   3.13566   3.13608   3.13670
 Alpha virt. eigenvalues --    3.14125   3.14389   3.15907   3.15949   3.17295
 Alpha virt. eigenvalues --    3.17435   3.17800   3.18110   3.18950   3.19159
 Alpha virt. eigenvalues --    3.22339   3.22512   3.23980   3.24354   3.24707
 Alpha virt. eigenvalues --    3.25107   3.26537   3.26573   3.27311   3.27654
 Alpha virt. eigenvalues --    3.29134   3.29136   3.31295   3.31558   3.33102
 Alpha virt. eigenvalues --    3.33452   3.40174   3.40665   3.42738   3.42851
 Alpha virt. eigenvalues --    3.48612   3.48693   3.50056   3.50198   3.50753
 Alpha virt. eigenvalues --    3.51509   3.56585   3.56922   3.59133   3.59257
 Alpha virt. eigenvalues --    3.62431   3.62871   3.66036   3.66221   3.67221
 Alpha virt. eigenvalues --    3.67456   3.73306   3.73934   3.76091   3.76593
          Condensed to atoms (all electrons):
 Mulliken charges:
               1
     1  Mg   0.838770
     2  C   -0.002915
     3  C   -0.094078
     4  C   -0.045874
     5  C   -0.063959
     6  N   -0.256779
     7  C   -0.052487
     8  C   -0.014017
     9  C   -0.087009
    10  C    0.046326
    11  C    0.104805
    12  C    0.053466
    13  C   -0.071839
    14  H    0.036178
    15  N   -0.433147
    16  C    0.168400
    17  C   -0.177114
    18  C   -0.004013
    19  C    0.148717
    20  C    0.110163
    21  C    0.012288
    22  O   -0.249654
    23  C    0.062473
    24  N   -0.341133
    25  C    0.041248
    26  C   -0.028194
    27  C   -0.023946
    28  C    0.074805
    29  C    0.076174
    30  C    0.035146
    31  C   -0.004490
    32  N   -0.310476
    33  C    0.080409
    34  C   -0.169744
    35  C    0.008366
    36  C    0.082954
    37  C    0.127317
    38  C    0.046095
    39  O   -0.188456
    40  C   -0.005334
    41  C    0.212887
    42  O   -0.257113
    43  O   -0.304799
    44  C    0.157694
    45  H   -0.017567
    46  H   -0.016857
    47  H   -0.041537
    48  H    0.000946
    49  H   -0.003990
    50  H    0.025471
    51  H    0.016435
    52  H    0.016691
    53  H    0.011224
    54  H    0.044119
    55  H    0.017872
    56  H    0.017988
    57  H    0.005910
    58  H    0.026842
    59  H    0.039605
    60  H    0.037368
    61  H    0.035649
    62  H    0.031537
    63  H    0.016526
    64  H    0.009444
    65  H    0.023187
    66  H    0.012568
    67  H    0.004739
    68  H    0.006320
    69  H    0.004700
    70  H    0.008763
    71  H    0.018079
    72  H    0.029021
    73  H    0.047545
    74  H    0.009070
    75  H    0.046003
    76  H    0.035159
    77  H    0.042946
    78  H    0.046430
    79  H    0.053686
    80  Mg   0.837905
    81  C   -0.016823
    82  C   -0.087781
    83  C   -0.045479
    84  C   -0.064876
    85  N   -0.254571
    86  C   -0.049860
    87  C   -0.015120
    88  C   -0.090505
    89  C    0.045772
    90  C    0.114367
    91  C    0.062534
    92  C   -0.077902
    93  H    0.034881
    94  N   -0.423502
    95  C    0.162936
    96  C   -0.174571
    97  C   -0.007763
    98  C    0.152116
    99  C    0.099336
   100  C    0.015592
   101  O   -0.253134
   102  C    0.061187
   103  N   -0.350071
   104  C    0.037529
   105  C   -0.019862
   106  C   -0.034804
   107  C    0.088911
   108  C    0.073628
   109  C    0.034733
   110  C   -0.007679
   111  N   -0.324107
   112  C    0.078435
   113  C   -0.163160
   114  C    0.002224
   115  C    0.096184
   116  C    0.131491
   117  C    0.042360
   118  O   -0.187941
   119  C    0.000935
   120  C    0.211223
   121  O   -0.251016
   122  O   -0.305624
   123  C    0.152030
   124  H   -0.019603
   125  H   -0.015519
   126  H   -0.040479
   127  H   -0.000655
   128  H   -0.004302
   129  H    0.022449
   130  H    0.014469
   131  H    0.016331
   132  H    0.013927
   133  H    0.037658
   134  H    0.020789
   135  H    0.019617
   136  H    0.008790
   137  H    0.026233
   138  H    0.039822
   139  H    0.038304
   140  H    0.036446
   141  H    0.033886
   142  H    0.014416
   143  H    0.012428
   144  H    0.025194
   145  H    0.011697
   146  H    0.005705
   147  H    0.006290
   148  H    0.003624
   149  H    0.010953
   150  H    0.017913
   151  H    0.030088
   152  H    0.045968
   153  H    0.008501
   154  H    0.046919
   155  H    0.035014
   156  H    0.043884
   157  H    0.049513
   158  H    0.053572
 Sum of Mulliken charges =  -0.00000
 Mulliken charges with hydrogens summed into heavy atoms:
               1
     1  Mg   0.838770
     2  C   -0.002915
     3  C   -0.111645
     4  C   -0.062731
     5  C   -0.105496
     6  N   -0.256779
     7  C   -0.052487
     8  C   -0.013072
     9  C   -0.090999
    10  C    0.046326
    11  C    0.163403
    12  C    0.108809
    13  C    0.000199
    15  N   -0.433147
    16  C    0.168400
    17  C   -0.177114
    18  C   -0.004013
    19  C    0.148717
    20  C    0.182520
    21  C    0.012288
    22  O   -0.249654
    23  C    0.167027
    24  N   -0.341133
    25  C    0.041248
    26  C   -0.011669
    27  C   -0.014502
    28  C    0.074805
    29  C    0.116669
    30  C    0.046165
    31  C    0.051372
    32  N   -0.310476
    33  C    0.080409
    34  C   -0.169744
    35  C    0.008366
    36  C    0.082954
    37  C    0.229935
    38  C    0.046095
    39  O   -0.188456
    40  C    0.029826
    41  C    0.212887
    42  O   -0.257113
    43  O   -0.304799
    44  C    0.300756
    80  Mg   0.837905
    81  C   -0.016823
    82  C   -0.107384
    83  C   -0.060998
    84  C   -0.105355
    85  N   -0.254571
    86  C   -0.049860
    87  C   -0.015774
    88  C   -0.094807
    89  C    0.045772
    90  C    0.167616
    91  C    0.114118
    92  C   -0.002615
    94  N   -0.423502
    95  C    0.162936
    96  C   -0.174571
    97  C   -0.007763
    98  C    0.152116
    99  C    0.174181
   100  C    0.015592
   101  O   -0.253134
   102  C    0.169824
   103  N   -0.350071
   104  C    0.037529
   105  C   -0.005446
   106  C   -0.022376
   107  C    0.088911
   108  C    0.116224
   109  C    0.044646
   110  C    0.051275
   111  N   -0.324107
   112  C    0.078435
   113  C   -0.163160
   114  C    0.002224
   115  C    0.096184
   116  C    0.232879
   117  C    0.042360
   118  O   -0.187941
   119  C    0.035949
   120  C    0.211223
   121  O   -0.251016
   122  O   -0.305624
   123  C    0.298999
 Electronic spatial extent (au):  <R**2>=         615269.0756
 Charge=             -0.0000 electrons
 Dipole moment (field-independent basis, Debye):
    X=              3.8636    Y=              2.8662    Z=              0.7238  Tot=              4.8648
 Quadrupole moment (field-independent basis, Debye-Ang):
   XX=           -518.8089   YY=           -540.3886   ZZ=           -458.3028
   XY=             38.2427   XZ=           -120.6640   YZ=             37.9710
 Traceless Quadrupole moment (field-independent basis, Debye-Ang):
   XX=            -12.9755   YY=            -34.5552   ZZ=             47.5306
   XY=             38.2427   XZ=           -120.6640   YZ=             37.9710
 Octapole moment (field-independent basis, Debye-Ang**2):
  XXX=           2953.9630  YYY=            185.9428  ZZZ=            178.5397  XYY=           -497.0930
  XXY=            607.3594  XXZ=            236.7080  XZZ=            491.5359  YZZ=            -90.0774
  YYZ=           -249.0165  XYZ=           -510.0064
 Hexadecapole moment (field-independent basis, Debye-Ang**3):
 XXXX=        -789333.1060 YYYY=         -40712.3880 ZZZZ=         -25703.9523 XXXY=           9748.8249
 XXXZ=         -33271.2504 YYYX=          -4689.9020 YYYZ=            807.5162 ZZZX=          -2224.9536
 ZZZY=            324.7299 XXYY=        -143103.8008 XXZZ=        -121199.4462 YYZZ=         -10973.2942
 XXYZ=           9454.6604 YYXZ=          -2048.4655 ZZXY=           1800.6954
 N-N= 1.230523050214D+04 E-N=-3.409128827791D+04  KE= 4.028801996504D+03
 Leave Link  601 at Sat Sep  4 18:17:58 2021, MaxMem= 23488102400 cpu:              15.4 elap:               0.8
 (Enter /sw/apps/gaussian-16.0/g16/l9999.exe)
 1\1\GINC-BP1-COMPUTE00084\SP\RCAM-B3LYP TD-FC\def2SVP\C68H72Mg2N8O8\OF
 15641\04-Sep-2021\0\\#p cam-b3lyp/Def2SVP td=(nstates=5)\\TDDFT excite
 d states in gaussian\\0,1\Mg,0,0.,0.,0.\C,0,-0.217,-2.218,2.801\C,0,-1
 .255,2.442,2.026\C,0,-0.245,1.85,-2.564\C,0,0.146,-2.824,-2.037\N,0,-0
 .617,-0.009,2.126\C,0,-0.594,-0.908,3.105\C,0,-0.936,-0.309,4.502\C,0,
 -1.773,0.964,4.032\C,0,-1.155,1.168,2.66\C,0,-3.263,0.685,3.863\C,0,0.
 345,0.11,5.299\C,0,0.124,0.397,6.787\H,0,1.168,0.033,7.733\N,0,-0.185,
 1.961,-0.152\C,0,-0.703,2.8,0.777\C,0,-0.62,4.156,0.193\C,0,-0.187,4.0
 15,-1.225\C,0,-0.214,2.583,-1.38\C,0,-0.887,5.406,0.974\C,0,0.181,5.01
 3,-2.277\O,0,0.303,4.69,-3.508\C,0,0.31,6.414,-1.837\N,0,-0.265,-0.413
 ,-2.029\C,0,-0.279,0.569,-2.937\C,0,-0.196,0.024,-4.332\C,0,0.124,-1.5
 33,-4.18\C,0,0.086,-1.632,-2.635\C,0,-1.451,0.205,-5.197\C,0,1.373,-2.
 07,-4.923\C,0,2.626,-1.49,-4.306\N,0,0.15,-2.144,0.303\C,0,0.173,-3.13
 6,-0.688\C,0,0.173,-4.438,0.004\C,0,0.133,-4.111,1.358\C,0,0.083,-2.69
 5,1.502\C,0,0.149,-5.715,-0.623\C,0,0.096,-4.629,2.716\O,0,0.208,-5.74
 7,3.221\C,0,-0.255,-3.428,3.701\C,0,0.717,-3.482,4.848\O,0,1.931,-3.25
 5,4.669\O,0,0.038,-3.556,6.003\C,0,0.943,-3.583,7.183\H,0,-1.859,3.22,
 2.497\H,0,-0.218,2.453,-3.474\H,0,0.276,-3.747,-2.605\H,0,-1.554,-0.94
 9,5.132\H,0,-1.585,1.831,4.665\H,0,-3.484,-0.377,3.969\H,0,-3.511,1.02
 7,2.858\H,0,-3.852,1.301,4.543\H,0,0.669,1.096,4.966\H,0,1.13,-0.639,5
 .189\H,0,-0.844,0.026,7.125\H,0,0.062,1.477,6.921\H,0,-1.344,5.186,1.9
 38\H,0,-1.651,5.963,0.432\H,0,0.007,6.02,1.084\H,0,-0.635,6.744,-1.405
 \H,0,0.665,6.97,-2.704\H,0,1.048,6.466,-1.036\H,0,0.608,0.501,-4.891\H
 ,0,-0.692,-2.156,-4.547\H,0,-1.267,0.74,-6.129\H,0,-2.204,0.714,-4.596
 \H,0,-1.967,-0.72,-5.453\H,0,1.356,-1.759,-5.967\H,0,1.452,-3.157,-4.9
 02\H,0,2.714,-0.522,-4.798\H,0,3.487,-2.121,-4.529\H,0,2.495,-1.303,-3
 .24\H,0,0.867,-6.333,-0.084\H,0,0.404,-5.642,-1.68\H,0,-0.891,-5.999,-
 0.463\H,0,-1.283,-3.581,4.028\H,0,0.698,-4.478,7.755\H,0,0.833,-2.619,
 7.68\H,0,2.,-3.754,6.976\Mg,0,31.54029,2.84007,2.38818\C,0,31.08931,6.
 28903,1.50483\C,0,30.97433,2.08158,-0.88886\C,0,31.48475,-0.22409,3.20
 996\C,0,30.93764,3.75275,5.69719\N,0,31.10064,4.1086,0.6304\C,0,31.014
 61,5.41073,0.40372\C,0,30.919,5.79748,-1.09656\C,0,30.32114,4.41873,-1
 .66268\C,0,30.85746,3.46424,-0.5978\C,0,28.80279,4.36371,-1.63233\C,0,
 32.32232,6.11503,-1.72256\C,0,32.2763,6.79599,-3.09221\H,0,33.30044,7.
 78671,-3.41172\N,0,31.75519,1.20874,1.2786\C,0,31.50145,1.08287,-0.040
 89\C,0,31.79871,-0.31841,-0.37586\C,0,32.09075,-1.05065,0.88638\C,0,31
 .76065,-0.03299,1.86389\C,0,31.86494,-0.82084,-1.78887\C,0,32.57344,-2
 .44138,1.16757\O,0,32.53007,-2.94382,2.34592\C,0,33.01136,-3.23053,0.0
 0699\N,0,31.04563,1.86295,4.15536\C,0,31.15807,0.52729,4.26164\C,0,31.
 01441,0.08027,5.69688\C,0,31.02325,1.42168,6.56759\C,0,31.08345,2.4625
 8,5.42817\C,0,29.75735,-0.72727,6.01947\C,0,32.07324,1.51319,7.70857\C
 ,0,33.46576,1.58209,7.12418\N,0,31.27594,4.69324,3.46703\C,0,31.00871,
 4.84736,4.84504\C,0,30.79578,6.2888,5.08868\C,0,30.93225,6.87527,3.821
 43\C,0,31.19057,5.86797,2.85287\C,0,30.47091,6.88166,6.34132\C,0,30.90
 598,8.11623,3.08115\O,0,30.81824,9.30585,3.38255\C,0,30.88109,7.77789,
 1.52831\C,0,31.90935,8.63995,0.84856\O,0,33.1197,8.49174,1.0929\O,0,31
 .31549,9.34346,-0.13265\C,0,32.29697,10.20555,-0.8435\H,0,30.58755,1.7
 1732,-1.84101\H,0,31.56252,-1.25411,3.56561\H,0,30.8419,4.12904,6.7179
 3\H,0,30.24023,6.61372,-1.3129\H,0,30.73914,4.17728,-2.63651\H,0,28.37
 881,5.21678,-1.12375\H,0,28.55193,3.44925,-1.11093\H,0,28.40935,4.2500
 1,-2.64654\H,0,32.81321,5.17265,-1.99766\H,0,32.91688,6.69993,-1.04801
 \H,0,31.27812,7.18625,-3.32518\H,0,32.45503,6.04074,-3.86142\H,0,31.44
 223,-0.09474,-2.49421\H,0,31.19386,-1.68421,-1.85304\H,0,32.87073,-1.1
 3274,-2.07831\H,0,32.19187,-3.31409,-0.70288\H,0,33.40413,-4.16231,0.4
 1857\H,0,33.81491,-2.68709,-0.50252\H,0,31.85234,-0.53781,5.99513\H,0,
 30.06547,1.57764,7.08543\H,0,29.9763,-1.71846,6.45954\H,0,29.17783,-0.
 8337,5.11207\H,0,29.05199,-0.2364,6.68784\H,0,32.04026,0.61265,8.32671
 \H,0,31.92227,2.36177,8.36745\H,0,33.70696,0.53149,6.93669\H,0,34.1587
 2,2.02508,7.83665\H,0,33.46144,2.09707,6.15649\H,0,31.07992,7.77126,6.
 43201\H,0,30.64696,6.19274,7.16482\H,0,29.40613,7.08029,6.19278\H,0,29
 .87271,7.97998,1.16512\H,0,31.91539,11.23017,-0.79617\H,0,32.41513,9.7
 5794,-1.84821\H,0,33.27677,10.32386,-0.39577\\Version=ES64L-G16RevA.03
 \State=1-A\HF=-4069.811781\RMSD=4.748e-09\PG=C01 [X(C68H72Mg2N8O8)]\\@


 KINETICS       FACT
 ---------  =  -------
 MECHANISM     FICTION
 Job cpu time:       0 days  9 hours 55 minutes 34.7 seconds.
 Elapsed time:       0 days  0 hours 25 minutes 24.0 seconds.
 File lengths (MBytes):  RWF=  13225 Int=      0 D2E=      0 Chk=    574 Scr=      1
 Normal termination of Gaussian 16 at Sat Sep  4 18:17:59 2021.
