 Entering Gaussian System, Link 0=g16
 Initial command:
 /sw/apps/gaussian-16.0/g16/l1.exe "/tmp/Gau-124884.inp" -scrdir="/tmp/"
 Entering Link 1 = /sw/apps/gaussian-16.0/g16/l1.exe PID=    124885.
  
 Copyright (c) 1988,1990,1992,1993,1995,1998,2003,2009,2016,
            Gaussian, Inc.  All Rights Reserved.
  
 This is part of the Gaussian(R) 16 program.  It is based on
 the Gaussian(R) 09 system (copyright 2009, Gaussian, Inc.),
 the Gaussian(R) 03 system (copyright 2003, Gaussian, Inc.),
 the Gaussian(R) 98 system (copyright 1998, Gaussian, Inc.),
 the Gaussian(R) 94 system (copyright 1995, Gaussian, Inc.),
 the Gaussian 92(TM) system (copyright 1992, Gaussian, Inc.),
 the Gaussian 90(TM) system (copyright 1990, Gaussian, Inc.),
 the Gaussian 88(TM) system (copyright 1988, Gaussian, Inc.),
 the Gaussian 86(TM) system (copyright 1986, Carnegie Mellon
 University), and the Gaussian 82(TM) system (copyright 1983,
 Carnegie Mellon University). Gaussian is a federally registered
 trademark of Gaussian, Inc.
  
 This software contains proprietary and confidential information,
 including trade secrets, belonging to Gaussian, Inc.
  
 This software is provided under written license and may be
 used, copied, transmitted, or stored only in accord with that
 written license.
  
 The following legend is applicable only to US Government
 contracts under FAR:
  
                    RESTRICTED RIGHTS LEGEND
  
 Use, reproduction and disclosure by the US Government is
 subject to restrictions as set forth in subparagraphs (a)
 and (c) of the Commercial Computer Software - Restricted
 Rights clause in FAR 52.227-19.
  
 Gaussian, Inc.
 340 Quinnipiac St., Bldg. 40, Wallingford CT 06492
  
  
 ---------------------------------------------------------------
 Warning -- This program may not be used in any manner that
 competes with the business of Gaussian, Inc. or will provide
 assistance to any competitor of Gaussian, Inc.  The licensee
 of this program is prohibited from giving any competitor of
 Gaussian, Inc. access to this program.  By using this program,
 the user acknowledges that Gaussian, Inc. is engaged in the
 business of creating and licensing software in the field of
 computational chemistry and represents and warrants to the
 licensee that it is not a competitor of Gaussian, Inc. and that
 it will not use this program in any manner prohibited above.
 ---------------------------------------------------------------
  

 Cite this work as:
 Gaussian 16, Revision A.03,
 M. J. Frisch, G. W. Trucks, H. B. Schlegel, G. E. Scuseria, 
 M. A. Robb, J. R. Cheeseman, G. Scalmani, V. Barone, 
 G. A. Petersson, H. Nakatsuji, X. Li, M. Caricato, A. V. Marenich, 
 J. Bloino, B. G. Janesko, R. Gomperts, B. Mennucci, H. P. Hratchian, 
 J. V. Ortiz, A. F. Izmaylov, J. L. Sonnenberg, D. Williams-Young, 
 F. Ding, F. Lipparini, F. Egidi, J. Goings, B. Peng, A. Petrone, 
 T. Henderson, D. Ranasinghe, V. G. Zakrzewski, J. Gao, N. Rega, 
 G. Zheng, W. Liang, M. Hada, M. Ehara, K. Toyota, R. Fukuda, 
 J. Hasegawa, M. Ishida, T. Nakajima, Y. Honda, O. Kitao, H. Nakai, 
 T. Vreven, K. Throssell, J. A. Montgomery, Jr., J. E. Peralta, 
 F. Ogliaro, M. J. Bearpark, J. J. Heyd, E. N. Brothers, K. N. Kudin, 
 V. N. Staroverov, T. A. Keith, R. Kobayashi, J. Normand, 
 K. Raghavachari, A. P. Rendell, J. C. Burant, S. S. Iyengar, 
 J. Tomasi, M. Cossi, J. M. Millam, M. Klene, C. Adamo, R. Cammi, 
 J. W. Ochterski, R. L. Martin, K. Morokuma, O. Farkas, 
 J. B. Foresman, and D. J. Fox, Gaussian, Inc., Wallingford CT, 2016.
 
 ******************************************
 Gaussian 16:  ES64L-G16RevA.03 25-Dec-2016
                 4-Sep-2021 
 ******************************************
 %nproc=24
 Will use up to   24 processors via shared memory.
 %mem=175gb
 -----------------------------------
 #p cam-b3lyp/Def2SVP td=(nstates=5)
 -----------------------------------
 1/38=1,172=1/1;
 2/12=2,17=6,18=5,40=1/2;
 3/5=43,7=101,11=9,25=1,30=1,74=-40/1,2,3,8;
 4//1;
 5/5=2,38=5/2;
 8/6=1,10=1,108=5/1;
 9/41=5,42=1,70=2/14;
 6/7=2,8=2,9=2,10=2/1;
 99/5=1,9=1/99;
 Leave Link    1 at Sat Sep  4 09:22:03 2021, MaxMem= 23488102400 cpu:               0.9 elap:               0.0
 (Enter /sw/apps/gaussian-16.0/g16/l101.exe)
 --------------------------------
 TDDFT excited states in gaussian
 --------------------------------
 Symbolic Z-matrix:
 Charge =  0 Multiplicity = 1
 Mg                    0.        0.        0. 
 C                    -0.217    -2.218     2.801 
 C                    -1.255     2.442     2.026 
 C                    -0.245     1.85     -2.564 
 C                     0.146    -2.824    -2.037 
 N                    -0.617    -0.009     2.126 
 C                    -0.594    -0.908     3.105 
 C                    -0.936    -0.309     4.502 
 C                    -1.773     0.964     4.032 
 C                    -1.155     1.168     2.66 
 C                    -3.263     0.685     3.863 
 C                     0.345     0.11      5.299 
 C                     0.124     0.397     6.787 
 H                     1.168     0.033     7.733 
 N                    -0.185     1.961    -0.152 
 C                    -0.703     2.8       0.777 
 C                    -0.62      4.156     0.193 
 C                    -0.187     4.015    -1.225 
 C                    -0.214     2.583    -1.38 
 C                    -0.887     5.406     0.974 
 C                     0.181     5.013    -2.277 
 O                     0.303     4.69     -3.508 
 C                     0.31      6.414    -1.837 
 N                    -0.265    -0.413    -2.029 
 C                    -0.279     0.569    -2.937 
 C                    -0.196     0.024    -4.332 
 C                     0.124    -1.533    -4.18 
 C                     0.086    -1.632    -2.635 
 C                    -1.451     0.205    -5.197 
 C                     1.373    -2.07     -4.923 
 C                     2.626    -1.49     -4.306 
 N                     0.15     -2.144     0.303 
 C                     0.173    -3.136    -0.688 
 C                     0.173    -4.438     0.004 
 C                     0.133    -4.111     1.358 
 C                     0.083    -2.695     1.502 
 C                     0.149    -5.715    -0.623 
 C                     0.096    -4.629     2.716 
 O                     0.208    -5.747     3.221 
 C                    -0.255    -3.428     3.701 
 C                     0.717    -3.482     4.848 
 O                     1.931    -3.255     4.669 
 O                     0.038    -3.556     6.003 
 C                     0.943    -3.583     7.183 
 H                    -1.859     3.22      2.497 
 H                    -0.218     2.453    -3.474 
 H                     0.276    -3.747    -2.605 
 H                    -1.554    -0.949     5.132 
 H                    -1.585     1.831     4.665 
 H                    -3.484    -0.377     3.969 
 H                    -3.511     1.027     2.858 
 H                    -3.852     1.301     4.543 
 H                     0.669     1.096     4.966 
 H                     1.13     -0.639     5.189 
 H                    -0.844     0.026     7.125 
 H                     0.062     1.477     6.921 
 H                    -1.344     5.186     1.938 
 H                    -1.651     5.963     0.432 
 H                     0.007     6.02      1.084 
 H                    -0.635     6.744    -1.405 
 H                     0.665     6.97     -2.704 
 H                     1.048     6.466    -1.036 
 H                     0.608     0.501    -4.891 
 H                    -0.692    -2.156    -4.547 
 H                    -1.267     0.74     -6.129 
 H                    -2.204     0.714    -4.596 
 H                    -1.967    -0.72     -5.453 
 H                     1.356    -1.759    -5.967 
 H                     1.452    -3.157    -4.902 
 H                     2.714    -0.522    -4.798 
 H                     3.487    -2.121    -4.529 
 H                     2.495    -1.303    -3.24 
 H                     0.867    -6.333    -0.084 
 H                     0.404    -5.642    -1.68 
 H                    -0.891    -5.999    -0.463 
 H                    -1.283    -3.581     4.028 
 H                     0.698    -4.478     7.755 
 H                     0.833    -2.619     7.68 
 H                     2.       -3.754     6.976 
 Mg                    13.14522   1.191     0.99685 
 C                     12.54349   3.00734   4.03295 
 C                     12.13959   3.97765  -0.69367 
 C                     13.23311  -0.51893  -1.67445 
 C                     12.99643  -1.73631   2.88218 
 N                     12.45495   3.17431   1.6913 
 C                     12.32593   3.77059   2.86695 
 C                     12.02041   5.29041   2.78721 
 C                     11.36339   5.32708   1.32234 
 C                     12.05073   4.1056    0.71552 
 C                     9.86437   5.07762   1.32868 
 C                     13.32075   6.16588   2.8556 
 C                     13.07955   7.65811   3.09396 
 H                     14.0402   8.39705   3.90856 
 N                     13.22055   1.77336  -0.89886 
 C                     12.7883   2.94623  -1.4076 
 C                     13.04992   2.87834  -2.85367 
 C                     13.52045   1.50502  -3.18126 
 C                     13.31869   0.84614  -1.9064 
 C                     12.92527   4.06856  -3.7599 
 C                     14.05068   0.88385  -4.43792 
 O                     14.17523  -0.38589  -4.56078 
 C                     14.33174   1.79911  -5.55362 
 N                     12.90868  -0.83865   0.61354 
 C                     13.04755  -1.32791  -0.63116 
 C                     13.10771  -2.83677  -0.62062 
 C                     13.22378  -3.25135   0.91959 
 C                     13.11609  -1.85318   1.56682 
 C                     11.91503  -3.55451  -1.25209 
 C                     14.4203  -4.1591    1.31582 
 C                     15.71809  -3.39957   1.16009 
 N                     13.01455   0.69811   3.09639 
 C                     12.93865  -0.5915    3.66669 
 C                     12.74756  -0.41393   5.12078 
 C                     12.70213   0.97763   5.29393 
 C                     12.83393   1.62156   4.03398 
 C                     12.59304  -1.46024   6.0734 
 C                     12.56198   2.04807   6.25477 
 O                     12.50526   2.11178   7.48215 
 C                     12.32621   3.40763   5.46584 
 C                     13.24245   4.44812   6.04928 
 O                     14.47631   4.33548   5.94197 
 O                     12.51208   5.50697   6.44394 
 C                     13.3777   6.57053   7.01958 
 H                     11.62858   4.71389  -1.31472 
 H                     13.36913  -1.15569  -2.55167 
 H                     13.03891  -2.59852   3.55111 
 H                     11.31046   5.65021   3.52225 
 H                     11.64525   6.22914   0.78549 
 H                     9.50649   4.7988    2.30864 
 H                     9.69669   4.27523   0.62222 
 H                     9.3358    5.94733   0.92798 
 H                     13.77799   6.20637   1.85859 
 H                     13.9971   5.78628   3.59661 
 H                     12.05506   7.86178   3.42845 
 H                     13.15762   8.17948   2.13683 
 H                     12.40228   4.89695  -3.26629 
 H                     12.26008   3.77767  -4.58013 
 H                     13.88442   4.38256  -4.17714 
 H                     13.42294   2.33347  -5.82007 
 H                     14.7865   1.18165  -6.33067 
 H                     15.052    2.55235  -5.21527 
 H                     13.98468  -3.19252  -1.14735 
 H                     12.3452  -3.82159   1.25538 
 H                     12.20216  -4.2402   -2.07152 
 H                     11.21684  -2.80842  -1.60764 
 H                     11.30402  -4.13153  -0.56006 
 H                     14.48163  -5.01926   0.64462 
 H                     14.35359  -4.5444    2.3278 
 H                     15.94118  -3.50807   0.09447 
 H                     16.49847  -3.84466   1.77404 
 H                     15.57526  -2.33123   1.35986 
 H                     13.20017  -1.19479   6.92865 
 H                     12.88771  -2.42206   5.65886 
 H                     11.5161  -1.40317   6.25283 
 H                     11.27545   3.67588   5.58213 
 H                     12.99648   6.78455   8.02285 
 H                     13.36032   7.39905   6.28677 
 H                     14.40874   6.31561   7.23504 
 
 ITRead=  0  0  0  0  0  0  0  0  0  0  0  0  0  0  0  0  0  0  0  0
 ITRead=  0  0  0  0  0  0  0  0  0  0  0  0  0  0  0  0  0  0  0  0
 ITRead=  0  0  0  0  0  0  0  0  0  0  0  0  0  0  0  0  0  0  0  0
 ITRead=  0  0  0  0  0  0  0  0  0  0  0  0  0  0  0  0  0  0  0  0
 ITRead=  0  0  0  0  0  0  0  0  0  0  0  0  0  0  0  0  0  0  0  0
 ITRead=  0  0  0  0  0  0  0  0  0  0  0  0  0  0  0  0  0  0  0  0
 ITRead=  0  0  0  0  0  0  0  0  0  0  0  0  0  0  0  0  0  0  0  0
 ITRead=  0  0  0  0  0  0  0  0  0  0  0  0  0  0  0  0  0  0
 MicOpt= -1 -1 -1 -1 -1 -1 -1 -1 -1 -1 -1 -1 -1 -1 -1 -1 -1 -1 -1 -1
 MicOpt= -1 -1 -1 -1 -1 -1 -1 -1 -1 -1 -1 -1 -1 -1 -1 -1 -1 -1 -1 -1
 MicOpt= -1 -1 -1 -1 -1 -1 -1 -1 -1 -1 -1 -1 -1 -1 -1 -1 -1 -1 -1 -1
 MicOpt= -1 -1 -1 -1 -1 -1 -1 -1 -1 -1 -1 -1 -1 -1 -1 -1 -1 -1 -1 -1
 MicOpt= -1 -1 -1 -1 -1 -1 -1 -1 -1 -1 -1 -1 -1 -1 -1 -1 -1 -1 -1 -1
 MicOpt= -1 -1 -1 -1 -1 -1 -1 -1 -1 -1 -1 -1 -1 -1 -1 -1 -1 -1 -1 -1
 MicOpt= -1 -1 -1 -1 -1 -1 -1 -1 -1 -1 -1 -1 -1 -1 -1 -1 -1 -1 -1 -1
 MicOpt= -1 -1 -1 -1 -1 -1 -1 -1 -1 -1 -1 -1 -1 -1 -1 -1 -1 -1
 NAtoms=    158 NQM=      158 NQMF=       0 NMMI=      0 NMMIF=      0
                NMic=       0 NMicF=      0.
                    Isotopes and Nuclear Properties:
 (Nuclear quadrupole moments (NQMom) in fm**2, nuclear magnetic moments (NMagM)
  in nuclear magnetons)

  Atom         1           2           3           4           5           6           7           8           9          10
 IAtWgt=          24          12          12          12          12          14          12          12          12          12
 AtmWgt=  23.9850450  12.0000000  12.0000000  12.0000000  12.0000000  14.0030740  12.0000000  12.0000000  12.0000000  12.0000000
 NucSpn=           0           0           0           0           0           2           0           0           0           0
 AtZEff=  -0.0000000  -0.0000000  -0.0000000  -0.0000000  -0.0000000  -0.0000000  -0.0000000  -0.0000000  -0.0000000  -0.0000000
 NQMom=    0.0000000   0.0000000   0.0000000   0.0000000   0.0000000   2.0440000   0.0000000   0.0000000   0.0000000   0.0000000
 NMagM=    0.0000000   0.0000000   0.0000000   0.0000000   0.0000000   0.4037610   0.0000000   0.0000000   0.0000000   0.0000000
 AtZNuc=  12.0000000   6.0000000   6.0000000   6.0000000   6.0000000   7.0000000   6.0000000   6.0000000   6.0000000   6.0000000

  Atom        11          12          13          14          15          16          17          18          19          20
 IAtWgt=          12          12          12           1          14          12          12          12          12          12
 AtmWgt=  12.0000000  12.0000000  12.0000000   1.0078250  14.0030740  12.0000000  12.0000000  12.0000000  12.0000000  12.0000000
 NucSpn=           0           0           0           1           2           0           0           0           0           0
 AtZEff=  -0.0000000  -0.0000000  -0.0000000  -0.0000000  -0.0000000  -0.0000000  -0.0000000  -0.0000000  -0.0000000  -0.0000000
 NQMom=    0.0000000   0.0000000   0.0000000   0.0000000   2.0440000   0.0000000   0.0000000   0.0000000   0.0000000   0.0000000
 NMagM=    0.0000000   0.0000000   0.0000000   2.7928460   0.4037610   0.0000000   0.0000000   0.0000000   0.0000000   0.0000000
 AtZNuc=   6.0000000   6.0000000   6.0000000   1.0000000   7.0000000   6.0000000   6.0000000   6.0000000   6.0000000   6.0000000

  Atom        21          22          23          24          25          26          27          28          29          30
 IAtWgt=          12          16          12          14          12          12          12          12          12          12
 AtmWgt=  12.0000000  15.9949146  12.0000000  14.0030740  12.0000000  12.0000000  12.0000000  12.0000000  12.0000000  12.0000000
 NucSpn=           0           0           0           2           0           0           0           0           0           0
 AtZEff=  -0.0000000  -0.0000000  -0.0000000  -0.0000000  -0.0000000  -0.0000000  -0.0000000  -0.0000000  -0.0000000  -0.0000000
 NQMom=    0.0000000   0.0000000   0.0000000   2.0440000   0.0000000   0.0000000   0.0000000   0.0000000   0.0000000   0.0000000
 NMagM=    0.0000000   0.0000000   0.0000000   0.4037610   0.0000000   0.0000000   0.0000000   0.0000000   0.0000000   0.0000000
 AtZNuc=   6.0000000   8.0000000   6.0000000   7.0000000   6.0000000   6.0000000   6.0000000   6.0000000   6.0000000   6.0000000

  Atom        31          32          33          34          35          36          37          38          39          40
 IAtWgt=          12          14          12          12          12          12          12          12          16          12
 AtmWgt=  12.0000000  14.0030740  12.0000000  12.0000000  12.0000000  12.0000000  12.0000000  12.0000000  15.9949146  12.0000000
 NucSpn=           0           2           0           0           0           0           0           0           0           0
 AtZEff=  -0.0000000  -0.0000000  -0.0000000  -0.0000000  -0.0000000  -0.0000000  -0.0000000  -0.0000000  -0.0000000  -0.0000000
 NQMom=    0.0000000   2.0440000   0.0000000   0.0000000   0.0000000   0.0000000   0.0000000   0.0000000   0.0000000   0.0000000
 NMagM=    0.0000000   0.4037610   0.0000000   0.0000000   0.0000000   0.0000000   0.0000000   0.0000000   0.0000000   0.0000000
 AtZNuc=   6.0000000   7.0000000   6.0000000   6.0000000   6.0000000   6.0000000   6.0000000   6.0000000   8.0000000   6.0000000

  Atom        41          42          43          44          45          46          47          48          49          50
 IAtWgt=          12          16          16          12           1           1           1           1           1           1
 AtmWgt=  12.0000000  15.9949146  15.9949146  12.0000000   1.0078250   1.0078250   1.0078250   1.0078250   1.0078250   1.0078250
 NucSpn=           0           0           0           0           1           1           1           1           1           1
 AtZEff=  -0.0000000  -0.0000000  -0.0000000  -0.0000000  -0.0000000  -0.0000000  -0.0000000  -0.0000000  -0.0000000  -0.0000000
 NQMom=    0.0000000   0.0000000   0.0000000   0.0000000   0.0000000   0.0000000   0.0000000   0.0000000   0.0000000   0.0000000
 NMagM=    0.0000000   0.0000000   0.0000000   0.0000000   2.7928460   2.7928460   2.7928460   2.7928460   2.7928460   2.7928460
 AtZNuc=   6.0000000   8.0000000   8.0000000   6.0000000   1.0000000   1.0000000   1.0000000   1.0000000   1.0000000   1.0000000

  Atom        51          52          53          54          55          56          57          58          59          60
 IAtWgt=           1           1           1           1           1           1           1           1           1           1
 AtmWgt=   1.0078250   1.0078250   1.0078250   1.0078250   1.0078250   1.0078250   1.0078250   1.0078250   1.0078250   1.0078250
 NucSpn=           1           1           1           1           1           1           1           1           1           1
 AtZEff=  -0.0000000  -0.0000000  -0.0000000  -0.0000000  -0.0000000  -0.0000000  -0.0000000  -0.0000000  -0.0000000  -0.0000000
 NQMom=    0.0000000   0.0000000   0.0000000   0.0000000   0.0000000   0.0000000   0.0000000   0.0000000   0.0000000   0.0000000
 NMagM=    2.7928460   2.7928460   2.7928460   2.7928460   2.7928460   2.7928460   2.7928460   2.7928460   2.7928460   2.7928460
 AtZNuc=   1.0000000   1.0000000   1.0000000   1.0000000   1.0000000   1.0000000   1.0000000   1.0000000   1.0000000   1.0000000

  Atom        61          62          63          64          65          66          67          68          69          70
 IAtWgt=           1           1           1           1           1           1           1           1           1           1
 AtmWgt=   1.0078250   1.0078250   1.0078250   1.0078250   1.0078250   1.0078250   1.0078250   1.0078250   1.0078250   1.0078250
 NucSpn=           1           1           1           1           1           1           1           1           1           1
 AtZEff=  -0.0000000  -0.0000000  -0.0000000  -0.0000000  -0.0000000  -0.0000000  -0.0000000  -0.0000000  -0.0000000  -0.0000000
 NQMom=    0.0000000   0.0000000   0.0000000   0.0000000   0.0000000   0.0000000   0.0000000   0.0000000   0.0000000   0.0000000
 NMagM=    2.7928460   2.7928460   2.7928460   2.7928460   2.7928460   2.7928460   2.7928460   2.7928460   2.7928460   2.7928460
 AtZNuc=   1.0000000   1.0000000   1.0000000   1.0000000   1.0000000   1.0000000   1.0000000   1.0000000   1.0000000   1.0000000

  Atom        71          72          73          74          75          76          77          78          79          80
 IAtWgt=           1           1           1           1           1           1           1           1           1          24
 AtmWgt=   1.0078250   1.0078250   1.0078250   1.0078250   1.0078250   1.0078250   1.0078250   1.0078250   1.0078250  23.9850450
 NucSpn=           1           1           1           1           1           1           1           1           1           0
 AtZEff=  -0.0000000  -0.0000000  -0.0000000  -0.0000000  -0.0000000  -0.0000000  -0.0000000  -0.0000000  -0.0000000  -0.0000000
 NQMom=    0.0000000   0.0000000   0.0000000   0.0000000   0.0000000   0.0000000   0.0000000   0.0000000   0.0000000   0.0000000
 NMagM=    2.7928460   2.7928460   2.7928460   2.7928460   2.7928460   2.7928460   2.7928460   2.7928460   2.7928460   0.0000000
 AtZNuc=   1.0000000   1.0000000   1.0000000   1.0000000   1.0000000   1.0000000   1.0000000   1.0000000   1.0000000  12.0000000

  Atom        81          82          83          84          85          86          87          88          89          90
 IAtWgt=          12          12          12          12          14          12          12          12          12          12
 AtmWgt=  12.0000000  12.0000000  12.0000000  12.0000000  14.0030740  12.0000000  12.0000000  12.0000000  12.0000000  12.0000000
 NucSpn=           0           0           0           0           2           0           0           0           0           0
 AtZEff=  -0.0000000  -0.0000000  -0.0000000  -0.0000000  -0.0000000  -0.0000000  -0.0000000  -0.0000000  -0.0000000  -0.0000000
 NQMom=    0.0000000   0.0000000   0.0000000   0.0000000   2.0440000   0.0000000   0.0000000   0.0000000   0.0000000   0.0000000
 NMagM=    0.0000000   0.0000000   0.0000000   0.0000000   0.4037610   0.0000000   0.0000000   0.0000000   0.0000000   0.0000000
 AtZNuc=   6.0000000   6.0000000   6.0000000   6.0000000   7.0000000   6.0000000   6.0000000   6.0000000   6.0000000   6.0000000

  Atom        91          92          93          94          95          96          97          98          99         100
 IAtWgt=          12          12           1          14          12          12          12          12          12          12
 AtmWgt=  12.0000000  12.0000000   1.0078250  14.0030740  12.0000000  12.0000000  12.0000000  12.0000000  12.0000000  12.0000000
 NucSpn=           0           0           1           2           0           0           0           0           0           0
 AtZEff=  -0.0000000  -0.0000000  -0.0000000  -0.0000000  -0.0000000  -0.0000000  -0.0000000  -0.0000000  -0.0000000  -0.0000000
 NQMom=    0.0000000   0.0000000   0.0000000   2.0440000   0.0000000   0.0000000   0.0000000   0.0000000   0.0000000   0.0000000
 NMagM=    0.0000000   0.0000000   2.7928460   0.4037610   0.0000000   0.0000000   0.0000000   0.0000000   0.0000000   0.0000000
 AtZNuc=   6.0000000   6.0000000   1.0000000   7.0000000   6.0000000   6.0000000   6.0000000   6.0000000   6.0000000   6.0000000

  Atom       101         102         103         104         105         106         107         108         109         110
 IAtWgt=          16          12          14          12          12          12          12          12          12          12
 AtmWgt=  15.9949146  12.0000000  14.0030740  12.0000000  12.0000000  12.0000000  12.0000000  12.0000000  12.0000000  12.0000000
 NucSpn=           0           0           2           0           0           0           0           0           0           0
 AtZEff=  -0.0000000  -0.0000000  -0.0000000  -0.0000000  -0.0000000  -0.0000000  -0.0000000  -0.0000000  -0.0000000  -0.0000000
 NQMom=    0.0000000   0.0000000   2.0440000   0.0000000   0.0000000   0.0000000   0.0000000   0.0000000   0.0000000   0.0000000
 NMagM=    0.0000000   0.0000000   0.4037610   0.0000000   0.0000000   0.0000000   0.0000000   0.0000000   0.0000000   0.0000000
 AtZNuc=   8.0000000   6.0000000   7.0000000   6.0000000   6.0000000   6.0000000   6.0000000   6.0000000   6.0000000   6.0000000

  Atom       111         112         113         114         115         116         117         118         119         120
 IAtWgt=          14          12          12          12          12          12          12          16          12          12
 AtmWgt=  14.0030740  12.0000000  12.0000000  12.0000000  12.0000000  12.0000000  12.0000000  15.9949146  12.0000000  12.0000000
 NucSpn=           2           0           0           0           0           0           0           0           0           0
 AtZEff=  -0.0000000  -0.0000000  -0.0000000  -0.0000000  -0.0000000  -0.0000000  -0.0000000  -0.0000000  -0.0000000  -0.0000000
 NQMom=    2.0440000   0.0000000   0.0000000   0.0000000   0.0000000   0.0000000   0.0000000   0.0000000   0.0000000   0.0000000
 NMagM=    0.4037610   0.0000000   0.0000000   0.0000000   0.0000000   0.0000000   0.0000000   0.0000000   0.0000000   0.0000000
 AtZNuc=   7.0000000   6.0000000   6.0000000   6.0000000   6.0000000   6.0000000   6.0000000   8.0000000   6.0000000   6.0000000

  Atom       121         122         123         124         125         126         127         128         129         130
 IAtWgt=          16          16          12           1           1           1           1           1           1           1
 AtmWgt=  15.9949146  15.9949146  12.0000000   1.0078250   1.0078250   1.0078250   1.0078250   1.0078250   1.0078250   1.0078250
 NucSpn=           0           0           0           1           1           1           1           1           1           1
 AtZEff=  -0.0000000  -0.0000000  -0.0000000  -0.0000000  -0.0000000  -0.0000000  -0.0000000  -0.0000000  -0.0000000  -0.0000000
 NQMom=    0.0000000   0.0000000   0.0000000   0.0000000   0.0000000   0.0000000   0.0000000   0.0000000   0.0000000   0.0000000
 NMagM=    0.0000000   0.0000000   0.0000000   2.7928460   2.7928460   2.7928460   2.7928460   2.7928460   2.7928460   2.7928460
 AtZNuc=   8.0000000   8.0000000   6.0000000   1.0000000   1.0000000   1.0000000   1.0000000   1.0000000   1.0000000   1.0000000

  Atom       131         132         133         134         135         136         137         138         139         140
 IAtWgt=           1           1           1           1           1           1           1           1           1           1
 AtmWgt=   1.0078250   1.0078250   1.0078250   1.0078250   1.0078250   1.0078250   1.0078250   1.0078250   1.0078250   1.0078250
 NucSpn=           1           1           1           1           1           1           1           1           1           1
 AtZEff=  -0.0000000  -0.0000000  -0.0000000  -0.0000000  -0.0000000  -0.0000000  -0.0000000  -0.0000000  -0.0000000  -0.0000000
 NQMom=    0.0000000   0.0000000   0.0000000   0.0000000   0.0000000   0.0000000   0.0000000   0.0000000   0.0000000   0.0000000
 NMagM=    2.7928460   2.7928460   2.7928460   2.7928460   2.7928460   2.7928460   2.7928460   2.7928460   2.7928460   2.7928460
 AtZNuc=   1.0000000   1.0000000   1.0000000   1.0000000   1.0000000   1.0000000   1.0000000   1.0000000   1.0000000   1.0000000

  Atom       141         142         143         144         145         146         147         148         149         150
 IAtWgt=           1           1           1           1           1           1           1           1           1           1
 AtmWgt=   1.0078250   1.0078250   1.0078250   1.0078250   1.0078250   1.0078250   1.0078250   1.0078250   1.0078250   1.0078250
 NucSpn=           1           1           1           1           1           1           1           1           1           1
 AtZEff=  -0.0000000  -0.0000000  -0.0000000  -0.0000000  -0.0000000  -0.0000000  -0.0000000  -0.0000000  -0.0000000  -0.0000000
 NQMom=    0.0000000   0.0000000   0.0000000   0.0000000   0.0000000   0.0000000   0.0000000   0.0000000   0.0000000   0.0000000
 NMagM=    2.7928460   2.7928460   2.7928460   2.7928460   2.7928460   2.7928460   2.7928460   2.7928460   2.7928460   2.7928460
 AtZNuc=   1.0000000   1.0000000   1.0000000   1.0000000   1.0000000   1.0000000   1.0000000   1.0000000   1.0000000   1.0000000

  Atom       151         152         153         154         155         156         157         158
 IAtWgt=           1           1           1           1           1           1           1           1
 AtmWgt=   1.0078250   1.0078250   1.0078250   1.0078250   1.0078250   1.0078250   1.0078250   1.0078250
 NucSpn=           1           1           1           1           1           1           1           1
 AtZEff=  -0.0000000  -0.0000000  -0.0000000  -0.0000000  -0.0000000  -0.0000000  -0.0000000  -0.0000000
 NQMom=    0.0000000   0.0000000   0.0000000   0.0000000   0.0000000   0.0000000   0.0000000   0.0000000
 NMagM=    2.7928460   2.7928460   2.7928460   2.7928460   2.7928460   2.7928460   2.7928460   2.7928460
 AtZNuc=   1.0000000   1.0000000   1.0000000   1.0000000   1.0000000   1.0000000   1.0000000   1.0000000
 Leave Link  101 at Sat Sep  4 09:22:04 2021, MaxMem= 23488102400 cpu:               3.1 elap:               0.2
 (Enter /sw/apps/gaussian-16.0/g16/l202.exe)
 Stoichiometry    C68H72Mg2N8O8
 Framework group  C1[X(C68H72Mg2N8O8)]
 Deg. of freedom   468
 Full point group                 C1      NOp   1
 Largest Abelian subgroup         C1      NOp   1
 Largest concise Abelian subgroup C1      NOp   1
                         Standard orientation:                         
 ---------------------------------------------------------------------
 Center     Atomic      Atomic             Coordinates (Angstroms)
 Number     Number       Type             X           Y           Z
 ---------------------------------------------------------------------
      1         12           0       -6.517342    0.650832    0.439465
      2          6           0       -6.894040   -2.180451   -1.717884
      3          6           0       -7.194847   -1.437079    3.051873
      4          6           0       -6.638788    3.208341    2.310566
      5          6           0       -6.994755    2.664876   -2.364348
      6          7           0       -6.968802   -1.514555    0.528513
      7          6           0       -7.023910   -2.498147   -0.364057
      8          6           0       -7.157343   -3.910378    0.280281
      9          6           0       -7.802725   -3.490164    1.676312
     10          6           0       -7.262195   -2.074712    1.777542
     11          6           0       -9.326732   -3.433278    1.650469
     12          6           0       -5.769205   -4.607435    0.477549
     13          6           0       -5.828975   -6.104679    0.793843
     14          1           0       -4.793427   -6.975433    0.258330
     15          7           0       -6.383504    0.808397    2.404181
     16          6           0       -6.684470   -0.147584    3.315667
     17          6           0       -6.419831    0.454373    4.640165
     18          6           0       -6.122111    1.898751    4.432247
     19          6           0       -6.398830    2.037118    3.025243
     20          6           0       -6.416389   -0.331583    5.915316
     21          6           0       -5.671429    2.984700    5.357305
     22          8           0       -5.696059    4.218052    5.021430
     23          6           0       -5.278581    2.569254    6.716024
     24          7           0       -6.996311    2.650836    0.081405
     25          6           0       -6.913282    3.565104    1.054135
     26          6           0       -7.025359    4.956952    0.506287
     27          6           0       -6.959104    4.813269   -1.082649
     28          6           0       -6.899094    3.268715   -1.177632
     29          6           0       -8.292912    5.729688    0.896413
     30          6           0       -5.875325    5.640176   -1.818902
     31          6           0       -4.501143    5.122184   -1.457787
     32          7           0       -6.704974    0.338301   -1.700200
     33          6           0       -6.920792    1.318420   -2.679722
     34          6           0       -7.086859    0.615359   -3.965099
     35          6           0       -6.971870   -0.734625   -3.639271
     36          6           0       -6.774340   -0.867808   -2.235157
     37          6           0       -7.369576    1.226202   -5.218645
     38          6           0       -6.994517   -2.096781   -4.147085
     39          8           0       -7.033566   -2.603338   -5.269301
     40          6           0       -7.066800   -3.092807   -2.906708
     41          6           0       -6.035546   -4.166193   -3.125036
     42          8           0       -4.817234   -3.896712   -3.103533
     43          8           0       -6.630374   -5.368401   -3.087383
     44          6           0       -5.658064   -6.479324   -3.267980
     45          1           0       -7.624300   -1.943198    3.918680
     46          1           0       -6.578781    4.123831    2.902777
     47          1           0       -7.062683    3.231652   -3.294726
     48          1           0       -7.825255   -4.590186   -0.249039
     49          1           0       -7.426670   -4.099082    2.498214
     50          1           0       -9.713275   -3.565698    0.640038
     51          1           0       -9.587634   -2.445737    2.031500
     52          1           0       -9.753041   -4.148343    2.354543
     53          1           0       -5.310790   -4.241862    1.396393
     54          1           0       -5.130340   -4.447818   -0.391761
     55          1           0       -6.817697   -6.516182    0.588898
     56          1           0       -5.700000   -6.232106    1.868705
     57          1           0       -6.831356   -1.328540    5.772405
     58          1           0       -7.114673    0.158651    6.593386
     59          1           0       -5.426892   -0.369851    6.371128
     60          1           0       -6.120888    2.072657    7.198164
     61          1           0       -4.900736    3.465363    7.207015
     62          1           0       -4.485237    1.824881    6.642118
     63          1           0       -6.196506    5.577924    0.843664
     64          1           0       -7.892350    5.113447   -1.559742
     65          1           0       -8.091495    6.677915    1.395413
     66          1           0       -8.904136    5.080361    1.522569
     67          1           0       -8.973354    5.938088    0.071195
     68          1           0       -5.917141    6.683183   -1.506919
     69          1           0       -5.977328    5.614198   -2.903878
     70          1           0       -4.289494    5.628899   -0.516895
     71          1           0       -3.776207    5.401220   -2.223175
     72          1           0       -4.520198    4.051373   -1.254102
     73          1           0       -6.726911    0.734992   -5.949168
     74          1           0       -7.184587    2.299683   -5.186711
     75          1           0       -8.427706    0.987817   -5.325360
     76          1           0       -8.078982   -3.495558   -2.886669
     77          1           0       -6.006014   -7.076568   -4.110870
     78          1           0       -5.568867   -6.973424   -2.300346
     79          1           0       -4.662541   -6.197349   -3.612600
     80         12           0        6.679673    0.629110   -0.583929
     81          6           0        6.614633   -2.424634    1.300079
     82          6           0        6.030884    2.269248    2.335589
     83          6           0        6.284111    3.282558   -2.278089
     84          6           0        6.184292   -1.291064   -3.449812
     85          7           0        6.382816   -0.094170    1.485127
     86          6           0        6.442026   -1.270118    2.091748
     87          6           0        6.389135   -1.197810    3.641434
     88          6           0        5.641265    0.215425    3.790838
     89          6           0        6.068713    0.858674    2.473190
     90          6           0        4.126237    0.097082    3.795205
     91          6           0        7.818689   -1.162289    4.287284
     92          6           0        7.847887   -1.402788    5.798261
     93          1           0        8.975682   -2.137625    6.364432
     94          7           0        6.711104    2.530953   -0.017767
     95          6           0        6.444142    3.018383    1.212040
     96          6           0        6.583473    4.478958    1.104893
     97          6           0        6.793010    4.826385   -0.326927
     98          6           0        6.578748    3.533702   -0.945927
     99          6           0        6.592551    5.385445    2.301393
    100          6           0        7.118168    6.112193   -1.024896
    101          8           0        7.019881    6.231195   -2.297305
    102          6           0        7.464877    7.254493   -0.166744
    103          7           0        6.080455    0.973912   -2.544645
    104          6           0        6.043684    2.220506   -3.047229
    105          6           0        5.852052    2.199388   -4.544967
    106          6           0        6.010583    0.667732   -4.976815
    107          6           0        6.185510    0.028297   -3.581857
    108          6           0        4.513148    2.734849   -5.051927
    109          6           0        7.064919    0.350990   -6.072588
    110          6           0        8.456117    0.608682   -5.540084
    111          7           0        6.623769   -1.479162   -1.053128
    112          6           0        6.376170   -2.066277   -2.313321
    113          6           0        6.325064   -3.528606   -2.109833
    114          6           0        6.525162   -3.690768   -0.730649
    115          6           0        6.669243   -2.418216   -0.114742
    116          6           0        6.068906   -4.500326   -3.117934
    117          6           0        6.636648   -4.648590    0.345848
    118          8           0        6.681967   -5.876140    0.415181
    119          6           0        6.573346   -3.865520    1.727584
    120          6           0        7.690712   -4.370073    2.599041
    121          8           0        8.877209   -4.174012    2.282186
    122          8           0        7.178202   -4.806501    3.764041
    123          6           0        8.249067   -5.306745    4.666717
    124          1           0        5.605407    2.858586    3.148322
    125          1           0        6.247032    4.160997   -2.926509
    126          1           0        6.131616   -1.963641   -4.308615
    127          1           0        5.805245   -1.979150    4.112974
    128          1           0        6.029225    0.780378    4.634449
    129          1           0        3.800099   -0.909133    3.577709
    130          1           0        3.775519    0.781388    3.033789
    131          1           0        3.721989    0.466714    4.741935
    132          1           0        8.201531   -0.134179    4.253246
    133          1           0        8.475037   -1.855631    3.798282
    134          1           0        6.899173   -1.809206    6.169356
    135          1           0        7.941025   -0.437376    6.301574
    136          1           0        6.252818    4.863199    3.204299
    137          1           0        5.829551    6.151942    2.127651
    138          1           0        7.557227    5.874760    2.451808
    139          1           0        6.640754    7.459121    0.512522
    140          1           0        7.751798    8.056519   -0.849606
    141          1           0        8.323590    6.977186    0.454817
    142          1           0        6.616193    2.785231   -5.040907
    143          1           0        5.076403    0.262986   -5.393130
    144          1           0        4.620749    3.566212   -5.773964
    145          1           0        3.924839    3.045829   -4.198862
    146          1           0        3.867181    1.994317   -5.520468
    147          1           0        6.932341    1.016292   -6.929293
    148          1           0        7.009680   -0.666940   -6.443771
    149          1           0        8.578835    1.686624   -5.681751
    150          1           0        9.194468    0.049004   -6.110724
    151          1           0        8.508520    0.409641   -4.463378
    152          1           0        6.773158   -5.306243   -2.959663
    153          1           0        6.167727   -4.074945   -4.114457
    154          1           0        5.032750   -4.757396   -2.882248
    155          1           0        5.593487   -4.055609    2.167264
    156          1           0        7.983865   -6.333012    4.938980
    157          1           0        8.316097   -4.568963    5.488266
    158          1           0        9.236213   -5.448811    4.242674
 ---------------------------------------------------------------------
 Rotational constants (GHZ):           0.0202727           0.0079035           0.0075980
 Leave Link  202 at Sat Sep  4 09:22:04 2021, MaxMem= 23488102400 cpu:               0.2 elap:               0.0
 (Enter /sw/apps/gaussian-16.0/g16/l301.exe)
 Standard basis: def2SVP (5D, 7F)
 Ernie: Thresh=  0.10000D-02 Tol=  0.10000D-05 Strict=F.
 There are  1658 symmetry adapted cartesian basis functions of A   symmetry.
 There are  1572 symmetry adapted basis functions of A   symmetry.
  1572 basis functions,  2678 primitive gaussians,  1658 cartesian basis functions
   312 alpha electrons      312 beta electrons
       nuclear repulsion energy     14242.8330117914 Hartrees.
 IExCor=20419 DFT=T Ex+Corr=CAM-B3LYP ExCW=0 ScaHFX=  1.000000
 ScaDFX=  1.000000  1.000000  1.000000  0.810000 ScalE2=  1.000000  1.000000
 IRadAn=      5 IRanWt=     -1 IRanGd=            0 ICorTp=0 IEmpDi=  4
 HFx  wShort=  0.000000 wLong=  0.330000 cFull=  0.190000 cShort=  0.000000 cLong=  0.460000
 DFx  wShort=  0.000000 wLong=  0.330000 cFull=  0.190000 cShort=  0.000000 cLong=  0.460000
 NAtoms=  158 NActive=  158 NUniq=  158 SFac= 1.00D+00 NAtFMM=   60 NAOKFM=T Big=T
 Integral buffers will be    131072 words long.
 Raffenetti 1 integral format.
 Two-electron integral symmetry is turned on.
 Leave Link  301 at Sat Sep  4 09:22:04 2021, MaxMem= 23488102400 cpu:               1.3 elap:               0.1
 (Enter /sw/apps/gaussian-16.0/g16/l302.exe)
 NPDir=0 NMtPBC=     1 NCelOv=     1 NCel=       1 NClECP=     1 NCelD=      1
         NCelK=      1 NCelE2=     1 NClLst=     1 CellRange=     0.0.
 One-electron integrals computed using PRISM.
 One-electron integral symmetry used in STVInt
   1 Symmetry operations used in ECPInt.
 ECPInt:  NShTT=  271216 NPrTT=  987664 LenC2=  116484 LenP2D=  254929.
 LDataN:  DoStor=T MaxTD1= 4 Len=   56
 NBasis=  1572 RedAO= T EigKep=  3.36D-04  NBF=  1572
 NBsUse=  1572 1.00D-06 EigRej= -1.00D+00 NBFU=  1572
 Precomputing XC quadrature grid using
 IXCGrd= 4 IRadAn=           5 IRanWt=          -1 IRanGd=           0 AccXCQ= 0.00D+00.
 Generated NRdTot=       0 NPtTot=           0 NUsed=           0 NTot=          32
 NSgBfM=   973   942   957   964   973 MxSgAt=   158 MxSgA2=   156.
 Leave Link  302 at Sat Sep  4 09:22:08 2021, MaxMem= 23488102400 cpu:             113.4 elap:               4.7
 (Enter /sw/apps/gaussian-16.0/g16/l303.exe)
 DipDrv:  MaxL=1.
 Leave Link  303 at Sat Sep  4 09:22:09 2021, MaxMem= 23488102400 cpu:               8.1 elap:               0.4
 (Enter /sw/apps/gaussian-16.0/g16/l308.exe)
 Leave Link  308 at Sat Sep  4 09:22:10 2021, MaxMem= 23488102400 cpu:              16.3 elap:               0.8
 (Enter /sw/apps/gaussian-16.0/g16/l401.exe)
 ExpMin= 3.36D-02 ExpMax= 4.95D+03 ExpMxC= 7.45D+02 IAcc=3 IRadAn=         5 AccDes= 0.00D+00
 Harris functional with IExCor=20419 and IRadAn=       5 diagonalized for initial guess.
 HarFok:  IExCor=20419 AccDes= 0.00D+00 IRadAn=         5 IDoV= 1 UseB2=F ITyADJ=14
 ICtDFT=  3500011 ScaDFX=  1.000000  1.000000  1.000000  1.000000
 FoFCou: FMM=F IPFlag=           0 FMFlag=      100000 FMFlg1=        2001
         NFxFlg=           0 DoJE=T BraDBF=F KetDBF=T FulRan=T
         wScrn=  0.000000 ICntrl=       500 IOpCl=  0 I1Cent=   200000004 NGrid=           0
         NMat0=    1 NMatS0=      1 NMatT0=    0 NMatD0=    1 NMtDS0=    0 NMtDT0=    0
 Petite list used in FoFCou.
 Harris En= -3918.65801220994    
 JPrj=0 DoOrth=F DoCkMO=F.
 Leave Link  401 at Sat Sep  4 09:22:17 2021, MaxMem= 23488102400 cpu:             165.1 elap:               6.9
 (Enter /sw/apps/gaussian-16.0/g16/l502.exe)
 Integral symmetry usage will be decided dynamically.
 Closed shell SCF:
 Using DIIS extrapolation, IDIIS=  1040.
 NGot= 23488102400 LenX= 23482547354 LenY= 23479796732
 Requested convergence on RMS density matrix=1.00D-08 within 128 cycles.
 Requested convergence on MAX density matrix=1.00D-06.
 Requested convergence on             energy=1.00D-06.
 No special actions if energy rises.
 Fock matrices will be formed incrementally for  20 cycles.

 Cycle   1  Pass 1  IDiag  1:
 FoFJK:  IHMeth= 1 ICntrl=       0 DoSepK=T KAlg= 0 I1Cent=           0 FoldK=F
 IRaf=         1 NMat=       1 IRICut=       1 DoRegI=T DoRafI=F ISym2E= 0 IDoP0=0 IntGTp=1.
 FoFCou: FMM=T IPFlag=           0 FMFlag=      100000 FMFlg1=        2001
         NFxFlg=           0 DoJE=T BraDBF=F KetDBF=F FulRan=T
         wScrn=  0.000000 ICntrl=       500 IOpCl=  0 I1Cent=           0 NGrid=           0
         NMat0=    1 NMatS0=      1 NMatT0=    0 NMatD0=    1 NMtDS0=    0 NMtDT0=    0
 Symmetry not used in FoFCou.
 FMM levels:  10  Number of levels for PrismC:   9
 E= -4068.94914167031    
 DIIS: error= 2.04D-02 at cycle   1 NSaved=   1.
 NSaved= 1 IEnMin= 1 EnMin= -4068.94914167031     IErMin= 1 ErrMin= 2.04D-02
 ErrMax= 2.04D-02  0.00D+00 EMaxC= 1.00D-01 BMatC= 1.69D+00 BMatP= 1.69D+00
 IDIUse=3 WtCom= 7.96D-01 WtEn= 2.04D-01
 Coeff-Com:  0.100D+01
 Coeff-En:   0.100D+01
 Coeff:      0.100D+01
 Gap=     0.120 Goal=   None    Shift=    0.000
 GapD=    0.120 DampG=1.000 DampE=0.500 DampFc=0.5000 IDamp=-1.
 Damping current iteration by 5.00D-01
 RMSDP=1.57D-03 MaxDP=1.35D-01              OVMax= 2.06D-01

 Cycle   2  Pass 1  IDiag  1:
 RMSU=  7.70D-04    CP:  9.82D-01
 E= -4069.33783644702     Delta-E=       -0.388694776710 Rises=F Damp=T
 DIIS: error= 1.27D-02 at cycle   2 NSaved=   2.
 NSaved= 2 IEnMin= 2 EnMin= -4069.33783644702     IErMin= 2 ErrMin= 1.27D-02
 ErrMax= 1.27D-02  0.00D+00 EMaxC= 1.00D-01 BMatC= 3.07D-01 BMatP= 1.69D+00
 IDIUse=3 WtCom= 8.73D-01 WtEn= 1.27D-01
 Coeff-Com: -0.213D+00 0.121D+01
 Coeff-En:   0.000D+00 0.100D+01
 Coeff:     -0.186D+00 0.119D+01
 Gap=     0.135 Goal=   None    Shift=    0.000
 RMSDP=7.66D-04 MaxDP=9.40D-02 DE=-3.89D-01 OVMax= 1.92D-01

 Cycle   3  Pass 1  IDiag  1:
 RMSU=  7.34D-04    CP:  9.68D-01  1.24D+00
 E= -4069.62660769121     Delta-E=       -0.288771244195 Rises=F Damp=F
 DIIS: error= 1.58D-02 at cycle   3 NSaved=   3.
 NSaved= 3 IEnMin= 3 EnMin= -4069.62660769121     IErMin= 2 ErrMin= 1.27D-02
 ErrMax= 1.58D-02  0.00D+00 EMaxC= 1.00D-01 BMatC= 2.03D-01 BMatP= 3.07D-01
 IDIUse=3 WtCom= 8.42D-01 WtEn= 1.58D-01
 Coeff-Com: -0.267D+00 0.652D+00 0.615D+00
 Coeff-En:   0.000D+00 0.000D+00 0.100D+01
 Coeff:     -0.225D+00 0.549D+00 0.676D+00
 Gap=     0.123 Goal=   None    Shift=    0.000
 RMSDP=5.11D-04 MaxDP=4.97D-02 DE=-2.89D-01 OVMax= 1.48D-01

 Cycle   4  Pass 1  IDiag  1:
 RMSU=  2.67D-04    CP:  9.65D-01  1.55D+00  5.04D-01
 E= -4069.76433312438     Delta-E=       -0.137725433164 Rises=F Damp=F
 DIIS: error= 7.29D-03 at cycle   4 NSaved=   4.
 NSaved= 4 IEnMin= 4 EnMin= -4069.76433312438     IErMin= 4 ErrMin= 7.29D-03
 ErrMax= 7.29D-03  0.00D+00 EMaxC= 1.00D-01 BMatC= 5.09D-02 BMatP= 2.03D-01
 IDIUse=3 WtCom= 9.27D-01 WtEn= 7.29D-02
 Coeff-Com: -0.109D+00 0.226D+00 0.409D+00 0.474D+00
 Coeff-En:   0.000D+00 0.000D+00 0.223D+00 0.777D+00
 Coeff:     -0.101D+00 0.210D+00 0.395D+00 0.496D+00
 Gap=     0.122 Goal=   None    Shift=    0.000
 RMSDP=2.02D-04 MaxDP=2.08D-02 DE=-1.38D-01 OVMax= 6.56D-02

 Cycle   5  Pass 1  IDiag  1:
 RMSU=  7.70D-05    CP:  9.64D-01  1.49D+00  6.89D-01  5.47D-01
 E= -4069.81052567443     Delta-E=       -0.046192550053 Rises=F Damp=F
 DIIS: error= 7.81D-04 at cycle   5 NSaved=   5.
 NSaved= 5 IEnMin= 5 EnMin= -4069.81052567443     IErMin= 5 ErrMin= 7.81D-04
 ErrMax= 7.81D-04  0.00D+00 EMaxC= 1.00D-01 BMatC= 1.22D-03 BMatP= 5.09D-02
 IDIUse=3 WtCom= 9.92D-01 WtEn= 7.81D-03
 Coeff-Com: -0.365D-01 0.716D-01 0.168D+00 0.251D+00 0.546D+00
 Coeff-En:   0.000D+00 0.000D+00 0.000D+00 0.000D+00 0.100D+01
 Coeff:     -0.362D-01 0.711D-01 0.166D+00 0.249D+00 0.549D+00
 Gap=     0.121 Goal=   None    Shift=    0.000
 RMSDP=4.21D-05 MaxDP=4.22D-03 DE=-4.62D-02 OVMax= 1.83D-02

 Cycle   6  Pass 1  IDiag  1:
 RMSU=  3.09D-05    CP:  9.64D-01  1.49D+00  6.80D-01  6.20D-01  7.47D-01
 E= -4069.81159551371     Delta-E=       -0.001069839280 Rises=F Damp=F
 DIIS: error= 2.03D-04 at cycle   6 NSaved=   6.
 NSaved= 6 IEnMin= 6 EnMin= -4069.81159551371     IErMin= 6 ErrMin= 2.03D-04
 ErrMax= 2.03D-04  0.00D+00 EMaxC= 1.00D-01 BMatC= 1.85D-04 BMatP= 1.22D-03
 IDIUse=3 WtCom= 9.98D-01 WtEn= 2.03D-03
 Coeff-Com:  0.218D-02-0.654D-02 0.116D-01 0.407D-01 0.306D+00 0.646D+00
 Coeff-En:   0.000D+00 0.000D+00 0.000D+00 0.000D+00 0.109D+00 0.891D+00
 Coeff:      0.217D-02-0.653D-02 0.115D-01 0.406D-01 0.306D+00 0.647D+00
 Gap=     0.122 Goal=   None    Shift=    0.000
 RMSDP=1.64D-05 MaxDP=1.22D-03 DE=-1.07D-03 OVMax= 7.86D-03

 Cycle   7  Pass 1  IDiag  1:
 RMSU=  1.09D-05    CP:  9.64D-01  1.50D+00  6.86D-01  6.19D-01  8.53D-01
                    CP:  7.45D-01
 E= -4069.81179680982     Delta-E=       -0.000201296112 Rises=F Damp=F
 DIIS: error= 9.28D-05 at cycle   7 NSaved=   7.
 NSaved= 7 IEnMin= 7 EnMin= -4069.81179680982     IErMin= 7 ErrMin= 9.28D-05
 ErrMax= 9.28D-05  0.00D+00 EMaxC= 1.00D-01 BMatC= 2.24D-05 BMatP= 1.85D-04
 IDIUse=1 WtCom= 1.00D+00 WtEn= 0.00D+00
 Coeff-Com:  0.450D-02-0.987D-02-0.893D-02-0.352D-02 0.104D+00 0.333D+00
 Coeff-Com:  0.580D+00
 Coeff:      0.450D-02-0.987D-02-0.893D-02-0.352D-02 0.104D+00 0.333D+00
 Coeff:      0.580D+00
 Gap=     0.122 Goal=   None    Shift=    0.000
 RMSDP=6.58D-06 MaxDP=1.14D-03 DE=-2.01D-04 OVMax= 3.62D-03

 Cycle   8  Pass 1  IDiag  1:
 RMSU=  4.72D-06    CP:  9.64D-01  1.50D+00  6.87D-01  6.24D-01  8.55D-01
                    CP:  8.69D-01  8.19D-01
 E= -4069.81182452090     Delta-E=       -0.000027711081 Rises=F Damp=F
 DIIS: error= 5.22D-05 at cycle   8 NSaved=   8.
 NSaved= 8 IEnMin= 8 EnMin= -4069.81182452090     IErMin= 8 ErrMin= 5.22D-05
 ErrMax= 5.22D-05  0.00D+00 EMaxC= 1.00D-01 BMatC= 4.87D-06 BMatP= 2.24D-05
 IDIUse=1 WtCom= 1.00D+00 WtEn= 0.00D+00
 Coeff-Com:  0.217D-02-0.430D-02-0.777D-02-0.121D-01-0.107D-01 0.329D-01
 Coeff-Com:  0.335D+00 0.665D+00
 Coeff:      0.217D-02-0.430D-02-0.777D-02-0.121D-01-0.107D-01 0.329D-01
 Coeff:      0.335D+00 0.665D+00
 Gap=     0.122 Goal=   None    Shift=    0.000
 RMSDP=3.32D-06 MaxDP=4.03D-04 DE=-2.77D-05 OVMax= 1.11D-03

 Cycle   9  Pass 1  IDiag  1:
 RMSU=  1.93D-06    CP:  9.64D-01  1.50D+00  6.87D-01  6.25D-01  8.72D-01
                    CP:  8.95D-01  1.01D+00  9.53D-01
 E= -4069.81183233729     Delta-E=       -0.000007816387 Rises=F Damp=F
 DIIS: error= 1.91D-05 at cycle   9 NSaved=   9.
 NSaved= 9 IEnMin= 9 EnMin= -4069.81183233729     IErMin= 9 ErrMin= 1.91D-05
 ErrMax= 1.91D-05  0.00D+00 EMaxC= 1.00D-01 BMatC= 7.12D-07 BMatP= 4.87D-06
 IDIUse=1 WtCom= 1.00D+00 WtEn= 0.00D+00
 Coeff-Com:  0.466D-03-0.772D-03-0.267D-02-0.600D-02-0.208D-01-0.395D-01
 Coeff-Com:  0.100D+00 0.330D+00 0.639D+00
 Coeff:      0.466D-03-0.772D-03-0.267D-02-0.600D-02-0.208D-01-0.395D-01
 Coeff:      0.100D+00 0.330D+00 0.639D+00
 Gap=     0.122 Goal=   None    Shift=    0.000
 RMSDP=1.43D-06 MaxDP=1.58D-04 DE=-7.82D-06 OVMax= 7.59D-04

 Cycle  10  Pass 1  IDiag  1:
 RMSU=  9.47D-07    CP:  9.64D-01  1.50D+00  6.87D-01  6.26D-01  8.76D-01
                    CP:  9.08D-01  1.06D+00  1.12D+00  1.06D+00
 E= -4069.81183397241     Delta-E=       -0.000001635119 Rises=F Damp=F
 DIIS: error= 1.02D-05 at cycle  10 NSaved=  10.
 NSaved=10 IEnMin=10 EnMin= -4069.81183397241     IErMin=10 ErrMin= 1.02D-05
 ErrMax= 1.02D-05  0.00D+00 EMaxC= 1.00D-01 BMatC= 1.73D-07 BMatP= 7.12D-07
 IDIUse=1 WtCom= 1.00D+00 WtEn= 0.00D+00
 Coeff-Com: -0.429D-03 0.899D-03 0.124D-02 0.111D-02-0.368D-02-0.310D-01
 Coeff-Com: -0.457D-01-0.758D-01 0.247D+00 0.906D+00
 Coeff:     -0.429D-03 0.899D-03 0.124D-02 0.111D-02-0.368D-02-0.310D-01
 Coeff:     -0.457D-01-0.758D-01 0.247D+00 0.906D+00
 Gap=     0.122 Goal=   None    Shift=    0.000
 RMSDP=1.24D-06 MaxDP=1.31D-04 DE=-1.64D-06 OVMax= 6.27D-04

 Cycle  11  Pass 1  IDiag  1:
 RMSU=  5.26D-07    CP:  9.64D-01  1.50D+00  6.87D-01  6.26D-01  8.78D-01
                    CP:  9.18D-01  1.11D+00  1.23D+00  1.40D+00  1.37D+00
 E= -4069.81183478023     Delta-E=       -0.000000807820 Rises=F Damp=F
 DIIS: error= 4.04D-06 at cycle  11 NSaved=  11.
 NSaved=11 IEnMin=11 EnMin= -4069.81183478023     IErMin=11 ErrMin= 4.04D-06
 ErrMax= 4.04D-06  0.00D+00 EMaxC= 1.00D-01 BMatC= 6.44D-08 BMatP= 1.73D-07
 IDIUse=1 WtCom= 1.00D+00 WtEn= 0.00D+00
 Coeff-Com: -0.331D-03 0.644D-03 0.134D-02 0.212D-02 0.440D-02-0.840D-02
 Coeff-Com: -0.426D-01-0.132D+00-0.297D-01 0.475D+00 0.730D+00
 Coeff:     -0.331D-03 0.644D-03 0.134D-02 0.212D-02 0.440D-02-0.840D-02
 Coeff:     -0.426D-01-0.132D+00-0.297D-01 0.475D+00 0.730D+00
 Gap=     0.122 Goal=   None    Shift=    0.000
 RMSDP=6.98D-07 MaxDP=6.01D-05 DE=-8.08D-07 OVMax= 3.77D-04

 Cycle  12  Pass 1  IDiag  1:
 RMSU=  2.67D-07    CP:  9.64D-01  1.50D+00  6.87D-01  6.26D-01  8.79D-01
                    CP:  9.21D-01  1.13D+00  1.30D+00  1.57D+00  1.76D+00
                    CP:  1.20D+00
 E= -4069.81183505193     Delta-E=       -0.000000271699 Rises=F Damp=F
 DIIS: error= 2.51D-06 at cycle  12 NSaved=  12.
 NSaved=12 IEnMin=12 EnMin= -4069.81183505193     IErMin=12 ErrMin= 2.51D-06
 ErrMax= 2.51D-06  0.00D+00 EMaxC= 1.00D-01 BMatC= 1.54D-08 BMatP= 6.44D-08
 IDIUse=1 WtCom= 1.00D+00 WtEn= 0.00D+00
 Coeff-Com: -0.339D-05-0.102D-04 0.195D-03 0.532D-03 0.337D-02 0.397D-02
 Coeff-Com:  0.241D-02-0.353D-01-0.712D-01-0.663D-01 0.253D+00 0.910D+00
 Coeff:     -0.339D-05-0.102D-04 0.195D-03 0.532D-03 0.337D-02 0.397D-02
 Coeff:      0.241D-02-0.353D-01-0.712D-01-0.663D-01 0.253D+00 0.910D+00
 Gap=     0.122 Goal=   None    Shift=    0.000
 RMSDP=4.42D-07 MaxDP=3.19D-05 DE=-2.72D-07 OVMax= 2.48D-04

 Cycle  13  Pass 1  IDiag  1:
 RMSU=  1.68D-07    CP:  9.64D-01  1.50D+00  6.87D-01  6.26D-01  8.79D-01
                    CP:  9.21D-01  1.14D+00  1.33D+00  1.68D+00  1.99D+00
                    CP:  1.61D+00  1.26D+00
 E= -4069.81183514661     Delta-E=       -0.000000094686 Rises=F Damp=F
 DIIS: error= 1.23D-06 at cycle  13 NSaved=  13.
 NSaved=13 IEnMin=13 EnMin= -4069.81183514661     IErMin=13 ErrMin= 1.23D-06
 ErrMax= 1.23D-06  0.00D+00 EMaxC= 1.00D-01 BMatC= 8.43D-09 BMatP= 1.54D-08
 IDIUse=1 WtCom= 1.00D+00 WtEn= 0.00D+00
 Coeff-Com:  0.121D-03-0.246D-03-0.370D-03-0.455D-03 0.619D-03 0.504D-02
 Coeff-Com:  0.192D-01 0.234D-01-0.342D-01-0.240D+00-0.158D+00 0.594D+00
 Coeff-Com:  0.791D+00
 Coeff:      0.121D-03-0.246D-03-0.370D-03-0.455D-03 0.619D-03 0.504D-02
 Coeff:      0.192D-01 0.234D-01-0.342D-01-0.240D+00-0.158D+00 0.594D+00
 Coeff:      0.791D+00
 Gap=     0.122 Goal=   None    Shift=    0.000
 RMSDP=3.48D-07 MaxDP=2.37D-05 DE=-9.47D-08 OVMax= 2.03D-04

 Cycle  14  Pass 1  IDiag  1:
 RMSU=  7.71D-08    CP:  9.64D-01  1.50D+00  6.87D-01  6.26D-01  8.79D-01
                    CP:  9.22D-01  1.14D+00  1.35D+00  1.75D+00  2.19D+00
                    CP:  1.87D+00  1.78D+00  1.10D+00
 E= -4069.81183518416     Delta-E=       -0.000000037548 Rises=F Damp=F
 DIIS: error= 6.38D-07 at cycle  14 NSaved=  14.
 NSaved=14 IEnMin=14 EnMin= -4069.81183518416     IErMin=14 ErrMin= 6.38D-07
 ErrMax= 6.38D-07  0.00D+00 EMaxC= 1.00D-01 BMatC= 1.29D-09 BMatP= 8.43D-09
 IDIUse=1 WtCom= 1.00D+00 WtEn= 0.00D+00
 Coeff-Com:  0.671D-04-0.132D-03-0.249D-03-0.389D-03-0.467D-03 0.127D-02
 Coeff-Com:  0.105D-01 0.197D-01 0.388D-02-0.100D+00-0.144D+00 0.911D-01
 Coeff-Com:  0.407D+00 0.712D+00
 Coeff:      0.671D-04-0.132D-03-0.249D-03-0.389D-03-0.467D-03 0.127D-02
 Coeff:      0.105D-01 0.197D-01 0.388D-02-0.100D+00-0.144D+00 0.911D-01
 Coeff:      0.407D+00 0.712D+00
 Gap=     0.122 Goal=   None    Shift=    0.000
 RMSDP=1.04D-07 MaxDP=6.92D-06 DE=-3.75D-08 OVMax= 5.51D-05

 Cycle  15  Pass 1  IDiag  1:
 RMSU=  3.88D-08    CP:  9.64D-01  1.50D+00  6.87D-01  6.26D-01  8.79D-01
                    CP:  9.21D-01  1.14D+00  1.35D+00  1.77D+00  2.23D+00
                    CP:  1.98D+00  1.92D+00  1.33D+00  1.03D+00
 E= -4069.81183518839     Delta-E=       -0.000000004227 Rises=F Damp=F
 DIIS: error= 3.34D-07 at cycle  15 NSaved=  15.
 NSaved=15 IEnMin=15 EnMin= -4069.81183518839     IErMin=15 ErrMin= 3.34D-07
 ErrMax= 3.34D-07  0.00D+00 EMaxC= 1.00D-01 BMatC= 2.23D-10 BMatP= 1.29D-09
 IDIUse=1 WtCom= 1.00D+00 WtEn= 0.00D+00
 Coeff-Com:  0.522D-05-0.863D-05-0.322D-04-0.810D-04-0.296D-03-0.525D-03
 Coeff-Com:  0.105D-02 0.258D-02 0.870D-02 0.199D-02-0.301D-01-0.731D-01
 Coeff-Com:  0.295D-01 0.292D+00 0.768D+00
 Coeff:      0.522D-05-0.863D-05-0.322D-04-0.810D-04-0.296D-03-0.525D-03
 Coeff:      0.105D-02 0.258D-02 0.870D-02 0.199D-02-0.301D-01-0.731D-01
 Coeff:      0.295D-01 0.292D+00 0.768D+00
 Gap=     0.122 Goal=   None    Shift=    0.000
 RMSDP=4.03D-08 MaxDP=2.76D-06 DE=-4.23D-09 OVMax= 2.76D-05

 Cycle  16  Pass 1  IDiag  1:
 RMSU=  1.90D-08    CP:  9.64D-01  1.50D+00  6.87D-01  6.26D-01  8.79D-01
                    CP:  9.21D-01  1.15D+00  1.36D+00  1.77D+00  2.24D+00
                    CP:  2.00D+00  1.98D+00  1.41D+00  1.24D+00  1.15D+00
 E= -4069.81183518909     Delta-E=       -0.000000000702 Rises=F Damp=F
 DIIS: error= 1.69D-07 at cycle  16 NSaved=  16.
 NSaved=16 IEnMin=16 EnMin= -4069.81183518909     IErMin=16 ErrMin= 1.69D-07
 ErrMax= 1.69D-07  0.00D+00 EMaxC= 1.00D-01 BMatC= 8.49D-11 BMatP= 2.23D-10
 IDIUse=1 WtCom= 1.00D+00 WtEn= 0.00D+00
 Coeff-Com: -0.143D-04 0.290D-04 0.470D-04 0.533D-04-0.316D-04-0.634D-03
 Coeff-Com: -0.194D-02-0.425D-02 0.439D-02 0.257D-01 0.208D-01-0.648D-01
 Coeff-Com: -0.823D-01-0.394D-01 0.405D+00 0.738D+00
 Coeff:     -0.143D-04 0.290D-04 0.470D-04 0.533D-04-0.316D-04-0.634D-03
 Coeff:     -0.194D-02-0.425D-02 0.439D-02 0.257D-01 0.208D-01-0.648D-01
 Coeff:     -0.823D-01-0.394D-01 0.405D+00 0.738D+00
 Gap=     0.122 Goal=   None    Shift=    0.000
 RMSDP=2.33D-08 MaxDP=1.61D-06 DE=-7.02D-10 OVMax= 1.24D-05

 Cycle  17  Pass 1  IDiag  1:
 RMSU=  1.05D-08    CP:  9.64D-01  1.50D+00  6.87D-01  6.26D-01  8.79D-01
                    CP:  9.21D-01  1.15D+00  1.36D+00  1.78D+00  2.25D+00
                    CP:  2.01D+00  2.00D+00  1.46D+00  1.34D+00  1.44D+00
                    CP:  1.24D+00
 E= -4069.81183518945     Delta-E=       -0.000000000360 Rises=F Damp=F
 DIIS: error= 9.03D-08 at cycle  17 NSaved=  17.
 NSaved=17 IEnMin=17 EnMin= -4069.81183518945     IErMin=17 ErrMin= 9.03D-08
 ErrMax= 9.03D-08  0.00D+00 EMaxC= 1.00D-01 BMatC= 1.76D-11 BMatP= 8.49D-11
 IDIUse=1 WtCom= 1.00D+00 WtEn= 0.00D+00
 Coeff-Com: -0.721D-05 0.140D-04 0.285D-04 0.422D-04 0.823D-04-0.120D-03
 Coeff-Com: -0.925D-03-0.279D-02 0.333D-04 0.928D-02 0.174D-01-0.712D-02
 Coeff-Com: -0.358D-01-0.101D+00-0.272D-01 0.285D+00 0.863D+00
 Coeff:     -0.721D-05 0.140D-04 0.285D-04 0.422D-04 0.823D-04-0.120D-03
 Coeff:     -0.925D-03-0.279D-02 0.333D-04 0.928D-02 0.174D-01-0.712D-02
 Coeff:     -0.358D-01-0.101D+00-0.272D-01 0.285D+00 0.863D+00
 Gap=     0.122 Goal=   None    Shift=    0.000
 RMSDP=1.38D-08 MaxDP=1.12D-06 DE=-3.60D-10 OVMax= 9.56D-06

 Cycle  18  Pass 1  IDiag  1:
 RMSU=  5.10D-09    CP:  9.64D-01  1.50D+00  6.87D-01  6.26D-01  8.79D-01
                    CP:  9.21D-01  1.15D+00  1.36D+00  1.78D+00  2.25D+00
                    CP:  2.02D+00  2.01D+00  1.47D+00  1.41D+00  1.61D+00
                    CP:  1.65D+00  1.38D+00
 E= -4069.81183518967     Delta-E=       -0.000000000218 Rises=F Damp=F
 DIIS: error= 6.09D-08 at cycle  18 NSaved=  18.
 NSaved=18 IEnMin=18 EnMin= -4069.81183518967     IErMin=18 ErrMin= 6.09D-08
 ErrMax= 6.09D-08  0.00D+00 EMaxC= 1.00D-01 BMatC= 7.58D-12 BMatP= 1.76D-11
 IDIUse=1 WtCom= 1.00D+00 WtEn= 0.00D+00
 Coeff-Com:  0.168D-05-0.368D-05-0.315D-05 0.370D-06 0.620D-04 0.175D-03
 Coeff-Com:  0.343D-03 0.119D-03-0.129D-02-0.561D-02 0.540D-03 0.192D-01
 Coeff-Com:  0.164D-01-0.364D-01-0.161D+00-0.181D+00 0.389D+00 0.959D+00
 Coeff:      0.168D-05-0.368D-05-0.315D-05 0.370D-06 0.620D-04 0.175D-03
 Coeff:      0.343D-03 0.119D-03-0.129D-02-0.561D-02 0.540D-03 0.192D-01
 Coeff:      0.164D-01-0.364D-01-0.161D+00-0.181D+00 0.389D+00 0.959D+00
 Gap=     0.122 Goal=   None    Shift=    0.000
 RMSDP=1.17D-08 MaxDP=8.17D-07 DE=-2.18D-10 OVMax= 6.11D-06

 Cycle  19  Pass 1  IDiag  1:
 RMSU=  3.04D-09    CP:  9.64D-01  1.50D+00  6.87D-01  6.26D-01  8.79D-01
                    CP:  9.21D-01  1.15D+00  1.36D+00  1.78D+00  2.25D+00
                    CP:  2.02D+00  2.02D+00  1.49D+00  1.46D+00  1.76D+00
                    CP:  1.97D+00  1.92D+00  1.29D+00
 E= -4069.81183518978     Delta-E=       -0.000000000109 Rises=F Damp=F
 DIIS: error= 2.95D-08 at cycle  19 NSaved=  19.
 NSaved=19 IEnMin=19 EnMin= -4069.81183518978     IErMin=19 ErrMin= 2.95D-08
 ErrMax= 2.95D-08  0.00D+00 EMaxC= 1.00D-01 BMatC= 1.73D-12 BMatP= 7.58D-12
 IDIUse=1 WtCom= 1.00D+00 WtEn= 0.00D+00
 Coeff-Com:  0.295D-05-0.597D-05-0.989D-05-0.121D-04 0.151D-04 0.127D-03
 Coeff-Com:  0.476D-03 0.803D-03-0.641D-03-0.612D-02-0.474D-02 0.128D-01
 Coeff-Com:  0.208D-01 0.964D-02-0.761D-01-0.186D+00-0.560D-02 0.514D+00
 Coeff-Com:  0.721D+00
 Coeff:      0.295D-05-0.597D-05-0.989D-05-0.121D-04 0.151D-04 0.127D-03
 Coeff:      0.476D-03 0.803D-03-0.641D-03-0.612D-02-0.474D-02 0.128D-01
 Coeff:      0.208D-01 0.964D-02-0.761D-01-0.186D+00-0.560D-02 0.514D+00
 Coeff:      0.721D+00
 Gap=     0.122 Goal=   None    Shift=    0.000
 RMSDP=4.70D-09 MaxDP=3.59D-07 DE=-1.09D-10 OVMax= 3.50D-06

 SCF Done:  E(RCAM-B3LYP) =  -4069.81183519     A.U. after   19 cycles
            NFock= 19  Conv=0.47D-08     -V/T= 2.0102
 KE= 4.028801902515D+03 PE=-3.796662287048D+04 EE= 1.562517612098D+04
 Leave Link  502 at Sat Sep  4 09:31:09 2021, MaxMem= 23488102400 cpu:           12195.9 elap:             532.4
 (Enter /sw/apps/gaussian-16.0/g16/l801.exe)
 DoSCS=F DFT=T ScalE2(SS,OS)=  1.000000  1.000000
 ExpMin= 3.36D-02 ExpMax= 4.95D+03 ExpMxC= 7.45D+02 IAcc=3 IRadAn=         5 AccDes= 0.00D+00
 HarFok:  IExCor=  205 AccDes= 0.00D+00 IRadAn=         5 IDoV=-2 UseB2=F ITyADJ=14
 ICtDFT= 12500011 ScaDFX=  1.000000  1.000000  1.000000  1.000000
 GSVD:  LWork=       -9588 too small for GESVD, short by       45590 words or       45590 for optimal perf.
 Largest valence mixing into a core orbital is  2.03D-04
 Largest core mixing into a valence orbital is  5.24D-05
 Range of M.O.s used for correlation:    95  1572
 NBasis=  1572 NAE=   312 NBE=   312 NFC=    94 NFV=     0
 NROrb=   1478 NOA=   218 NOB=   218 NVA=  1260 NVB=  1260
 Leave Link  801 at Sat Sep  4 09:31:09 2021, MaxMem= 23488102400 cpu:               9.0 elap:               0.4
 (Enter /sw/apps/gaussian-16.0/g16/l914.exe)
 RHF ground state
 Two-electron integrals replicated using symmetry.
 MDV= 23488102400 DFT=T DoStab=F Mixed=T DoRPA=T DoScal=F NonHer=T
 Making orbital integer symmetry assigments:
 Orbital symmetries:
       Occupied  (A) (A) (A) (A) (A) (A) (A) (A) (A) (A) (A) (A)
                 (A) (A) (A) (A) (A) (A) (A) (A) (A) (A) (A) (A)
                 (A) (A) (A) (A) (A) (A) (A) (A) (A) (A) (A) (A)
                 (A) (A) (A) (A) (A) (A) (A) (A) (A) (A) (A) (A)
                 (A) (A) (A) (A) (A) (A) (A) (A) (A) (A) (A) (A)
                 (A) (A) (A) (A) (A) (A) (A) (A) (A) (A) (A) (A)
                 (A) (A) (A) (A) (A) (A) (A) (A) (A) (A) (A) (A)
                 (A) (A) (A) (A) (A) (A) (A) (A) (A) (A) (A) (A)
                 (A) (A) (A) (A) (A) (A) (A) (A) (A) (A) (A) (A)
                 (A) (A) (A) (A) (A) (A) (A) (A) (A) (A) (A) (A)
                 (A) (A) (A) (A) (A) (A) (A) (A) (A) (A) (A) (A)
                 (A) (A) (A) (A) (A) (A) (A) (A) (A) (A) (A) (A)
                 (A) (A) (A) (A) (A) (A) (A) (A) (A) (A) (A) (A)
                 (A) (A) (A) (A) (A) (A) (A) (A) (A) (A) (A) (A)
                 (A) (A) (A) (A) (A) (A) (A) (A) (A) (A) (A) (A)
                 (A) (A) (A) (A) (A) (A) (A) (A) (A) (A) (A) (A)
                 (A) (A) (A) (A) (A) (A) (A) (A) (A) (A) (A) (A)
                 (A) (A) (A) (A) (A) (A) (A) (A) (A) (A) (A) (A)
                 (A) (A) (A) (A) (A) (A) (A) (A) (A) (A) (A) (A)
                 (A) (A) (A) (A) (A) (A) (A) (A) (A) (A) (A) (A)
                 (A) (A) (A) (A) (A) (A) (A) (A) (A) (A) (A) (A)
                 (A) (A) (A) (A) (A) (A) (A) (A) (A) (A) (A) (A)
                 (A) (A) (A) (A) (A) (A) (A) (A) (A) (A) (A) (A)
                 (A) (A) (A) (A) (A) (A) (A) (A) (A) (A) (A) (A)
                 (A) (A) (A) (A) (A) (A) (A) (A) (A) (A) (A) (A)
                 (A) (A) (A) (A) (A) (A) (A) (A) (A) (A) (A) (A)
       Virtual   (A) (A) (A) (A) (A) (A) (A) (A) (A) (A) (A) (A)
                 (A) (A) (A) (A) (A) (A) (A) (A) (A) (A) (A) (A)
                 (A) (A) (A) (A) (A) (A) (A) (A) (A) (A) (A) (A)
                 (A) (A) (A) (A) (A) (A) (A) (A) (A) (A) (A) (A)
                 (A) (A) (A) (A) (A) (A) (A) (A) (A) (A) (A) (A)
                 (A) (A) (A) (A) (A) (A) (A) (A) (A) (A) (A) (A)
                 (A) (A) (A) (A) (A) (A) (A) (A) (A) (A) (A) (A)
                 (A) (A) (A) (A) (A) (A) (A) (A) (A) (A) (A) (A)
                 (A) (A) (A) (A) (A) (A) (A) (A) (A) (A) (A) (A)
                 (A) (A) (A) (A) (A) (A) (A) (A) (A) (A) (A) (A)
                 (A) (A) (A) (A) (A) (A) (A) (A) (A) (A) (A) (A)
                 (A) (A) (A) (A) (A) (A) (A) (A) (A) (A) (A) (A)
                 (A) (A) (A) (A) (A) (A) (A) (A) (A) (A) (A) (A)
                 (A) (A) (A) (A) (A) (A) (A) (A) (A) (A) (A) (A)
                 (A) (A) (A) (A) (A) (A) (A) (A) (A) (A) (A) (A)
                 (A) (A) (A) (A) (A) (A) (A) (A) (A) (A) (A) (A)
                 (A) (A) (A) (A) (A) (A) (A) (A) (A) (A) (A) (A)
                 (A) (A) (A) (A) (A) (A) (A) (A) (A) (A) (A) (A)
                 (A) (A) (A) (A) (A) (A) (A) (A) (A) (A) (A) (A)
                 (A) (A) (A) (A) (A) (A) (A) (A) (A) (A) (A) (A)
                 (A) (A) (A) (A) (A) (A) (A) (A) (A) (A) (A) (A)
                 (A) (A) (A) (A) (A) (A) (A) (A) (A) (A) (A) (A)
                 (A) (A) (A) (A) (A) (A) (A) (A) (A) (A) (A) (A)
                 (A) (A) (A) (A) (A) (A) (A) (A) (A) (A) (A) (A)
                 (A) (A) (A) (A) (A) (A) (A) (A) (A) (A) (A) (A)
                 (A) (A) (A) (A) (A) (A) (A) (A) (A) (A) (A) (A)
                 (A) (A) (A) (A) (A) (A) (A) (A) (A) (A) (A) (A)
                 (A) (A) (A) (A) (A) (A) (A) (A) (A) (A) (A) (A)
                 (A) (A) (A) (A) (A) (A) (A) (A) (A) (A) (A) (A)
                 (A) (A) (A) (A) (A) (A) (A) (A) (A) (A) (A) (A)
                 (A) (A) (A) (A) (A) (A) (A) (A) (A) (A) (A) (A)
                 (A) (A) (A) (A) (A) (A) (A) (A) (A) (A) (A) (A)
                 (A) (A) (A) (A) (A) (A) (A) (A) (A) (A) (A) (A)
                 (A) (A) (A) (A) (A) (A) (A) (A) (A) (A) (A) (A)
                 (A) (A) (A) (A) (A) (A) (A) (A) (A) (A) (A) (A)
                 (A) (A) (A) (A) (A) (A) (A) (A) (A) (A) (A) (A)
                 (A) (A) (A) (A) (A) (A) (A) (A) (A) (A) (A) (A)
                 (A) (A) (A) (A) (A) (A) (A) (A) (A) (A) (A) (A)
                 (A) (A) (A) (A) (A) (A) (A) (A) (A) (A) (A) (A)
                 (A) (A) (A) (A) (A) (A) (A) (A) (A) (A) (A) (A)
                 (A) (A) (A) (A) (A) (A) (A) (A) (A) (A) (A) (A)
                 (A) (A) (A) (A) (A) (A) (A) (A) (A) (A) (A) (A)
                 (A) (A) (A) (A) (A) (A) (A) (A) (A) (A) (A) (A)
                 (A) (A) (A) (A) (A) (A) (A) (A) (A) (A) (A) (A)
                 (A) (A) (A) (A) (A) (A) (A) (A) (A) (A) (A) (A)
                 (A) (A) (A) (A) (A) (A) (A) (A) (A) (A) (A) (A)
                 (A) (A) (A) (A) (A) (A) (A) (A) (A) (A) (A) (A)
                 (A) (A) (A) (A) (A) (A) (A) (A) (A) (A) (A) (A)
                 (A) (A) (A) (A) (A) (A) (A) (A) (A) (A) (A) (A)
                 (A) (A) (A) (A) (A) (A) (A) (A) (A) (A) (A) (A)
                 (A) (A) (A) (A) (A) (A) (A) (A) (A) (A) (A) (A)
                 (A) (A) (A) (A) (A) (A) (A) (A) (A) (A) (A) (A)
                 (A) (A) (A) (A) (A) (A) (A) (A) (A) (A) (A) (A)
                 (A) (A) (A) (A) (A) (A) (A) (A) (A) (A) (A) (A)
                 (A) (A) (A) (A) (A) (A) (A) (A) (A) (A) (A) (A)
                 (A) (A) (A) (A) (A) (A) (A) (A) (A) (A) (A) (A)
                 (A) (A) (A) (A) (A) (A) (A) (A) (A) (A) (A) (A)
                 (A) (A) (A) (A) (A) (A) (A) (A) (A) (A) (A) (A)
                 (A) (A) (A) (A) (A) (A) (A) (A) (A) (A) (A) (A)
                 (A) (A) (A) (A) (A) (A) (A) (A) (A) (A) (A) (A)
                 (A) (A) (A) (A) (A) (A) (A) (A) (A) (A) (A) (A)
                 (A) (A) (A) (A) (A) (A) (A) (A) (A) (A) (A) (A)
                 (A) (A) (A) (A) (A) (A) (A) (A) (A) (A) (A) (A)
                 (A) (A) (A) (A) (A) (A) (A) (A) (A) (A) (A) (A)
                 (A) (A) (A) (A) (A) (A) (A) (A) (A) (A) (A) (A)
                 (A) (A) (A) (A) (A) (A) (A) (A) (A) (A) (A) (A)
                 (A) (A) (A) (A) (A) (A) (A) (A) (A) (A) (A) (A)
                 (A) (A) (A) (A) (A) (A) (A) (A) (A) (A) (A) (A)
                 (A) (A) (A) (A) (A) (A) (A) (A) (A) (A) (A) (A)
                 (A) (A) (A) (A) (A) (A) (A) (A) (A) (A) (A) (A)
                 (A) (A) (A) (A) (A) (A) (A) (A) (A) (A) (A) (A)
                 (A) (A) (A) (A) (A) (A) (A) (A) (A) (A) (A) (A)
                 (A) (A) (A) (A) (A) (A) (A) (A) (A) (A) (A) (A)
                 (A) (A) (A) (A) (A) (A) (A) (A) (A) (A) (A) (A)
                 (A) (A) (A) (A) (A) (A) (A) (A) (A) (A) (A) (A)
                 (A) (A) (A) (A) (A) (A) (A) (A) (A) (A) (A) (A)
                 (A) (A) (A) (A) (A) (A) (A) (A) (A) (A) (A) (A)
                 (A) (A) (A) (A) (A) (A) (A) (A) (A) (A) (A) (A)
                 (A) (A) (A) (A) (A) (A) (A) (A) (A) (A) (A) (A)
                 (A) (A) (A) (A) (A) (A) (A) (A) (A) (A) (A) (A)
                 (A) (A) (A) (A) (A) (A) (A) (A) (A) (A) (A) (A)
                 (A) (A) (A) (A) (A) (A) (A) (A) (A) (A) (A) (A)
                 (A) (A) (A) (A) (A) (A) (A) (A) (A) (A) (A) (A)
                 (A) (A) (A) (A) (A) (A) (A) (A) (A) (A) (A) (A)
                 (A) (A) (A) (A) (A) (A) (A) (A) (A) (A) (A) (A)
                 (A) (A) (A) (A) (A) (A) (A) (A) (A) (A) (A) (A)
                 (A) (A) (A) (A) (A) (A) (A) (A) (A) (A) (A) (A)
                 (A) (A) (A) (A) (A) (A) (A) (A) (A) (A) (A) (A)
                 (A) (A) (A) (A) (A) (A) (A) (A) (A) (A) (A) (A)
                 (A) (A) (A) (A) (A) (A) (A) (A) (A) (A) (A) (A)
                 (A) (A) (A) (A) (A) (A) (A) (A) (A) (A) (A) (A)
                 (A) (A) (A) (A) (A) (A) (A) (A) (A) (A) (A) (A)
                 (A) (A) (A) (A) (A) (A) (A) (A) (A) (A) (A) (A)
                 (A) (A) (A) (A) (A) (A) (A) (A) (A) (A) (A) (A)
                 (A) (A) (A) (A) (A) (A) (A) (A) (A) (A) (A) (A)
                 (A) (A) (A) (A) (A) (A) (A) (A) (A) (A) (A) (A)
                 (A) (A) (A) (A) (A) (A) (A) (A) (A) (A) (A) (A)
                 (A) (A) (A) (A) (A) (A) (A) (A) (A) (A) (A) (A)
                 (A) (A) (A) (A) (A) (A) (A) (A) (A) (A) (A) (A)
                 (A) (A) (A) (A) (A) (A) (A) (A) (A) (A) (A) (A)
                 (A) (A) (A) (A) (A) (A) (A) (A) (A) (A) (A) (A)
                 (A) (A) (A) (A) (A) (A) (A) (A) (A) (A) (A) (A)
                 (A) (A) (A) (A) (A) (A) (A) (A) (A) (A) (A) (A)
                 (A) (A) (A) (A) (A) (A) (A) (A) (A) (A) (A) (A)
                 (A) (A) (A) (A) (A) (A) (A) (A) (A) (A) (A) (A)
    20 initial guesses have been made.
 Convergence on wavefunction:    0.001000000000000
 Davidson Disk Diagonalization:  ConvIn= 1.00D-03 SkipCon=T Conv= 1.00D-03.
 Max sub-space:  2000 roots to seek:    20 dimension of matrix:       549360
 Iteration     1 Dimension    20 NMult     0 NNew     20
 CISAX will form    20 AO SS matrices at one time.
 NMat=    20 NSing=    20 JSym2X= 0.
 FoFJK:  IHMeth= 1 ICntrl=       0 DoSepK=T KAlg= 0 I1Cent=           0 FoldK=F
 IRaf=         1 NMat=      40 IRICut=       1 DoRegI=T DoRafI=F ISym2E= 0 IDoP0=3 IntGTp=3.
 FoFCou: FMM=T IPFlag=           0 FMFlag=      100000 FMFlg1=        2001
         NFxFlg=           0 DoJE=F BraDBF=F KetDBF=F FulRan=T
         wScrn=  0.000000 ICntrl=       500 IOpCl=  0 I1Cent=           0 NGrid=           0
         NMat0=   20 NMatS0=     20 NMatT0=    0 NMatD0=   20 NMtDS0=    0 NMtDT0=    0
 Symmetry not used in FoFCou.
 FMM levels:  10  Number of levels for PrismC:   9
 New state      1 was old state      7
 New state      2 was old state      6
 New state      3 was old state      1
 New state      4 was old state      2
 New state      5 was old state      3
 Excitation Energies [eV] at current iteration:
 Root      1 :     2.613723303958657
 Root      2 :     2.617665096972337
 Root      3 :     2.650460784332044
 Root      4 :     2.675425460258106
 Root      5 :     2.695350782749955
 Root      6 :     2.737978708071105
 Root      7 :     3.440096052948081
 Root      8 :     3.537535768154910
 Root      9 :     3.628309352730053
 Root     10 :     3.667703796917583
 Root     11 :     3.737423460217759
 Root     12 :     3.761260698498458
 Root     13 :     4.298249534066221
 Root     14 :     4.310144952831407
 Root     15 :     4.557068136969884
 Root     16 :     4.671257444439917
 Root     17 :     4.867177412314482
 Root     18 :     4.903605586531349
 Root     19 :     4.965926905715905
 Root     20 :     4.999090333516118
 Iteration     2 Dimension    30 NMult    20 NNew     10
 CISAX will form    10 AO SS matrices at one time.
 NMat=    10 NSing=    10 JSym2X= 0.
 New state      1 was old state      4
 Root      1 not converged, maximum delta is    0.164030422042109
 New state      2 was old state      5
 Root      2 not converged, maximum delta is    0.166229787852983
 New state      3 was old state      2
 Root      3 not converged, maximum delta is    0.091137055805578
 New state      4 was old state      1
 Root      4 not converged, maximum delta is    0.102751405602576
 New state      5 was old state      3
 Root      5 not converged, maximum delta is    0.001437107927015
 Excitation Energies [eV] at current iteration:
 Root      1 :     1.797799814315914   Change is   -0.877625645942192
 Root      2 :     1.808994826019460   Change is   -0.886355956730495
 Root      3 :     2.235202948607161   Change is   -0.382462148365176
 Root      4 :     2.238985888149737   Change is   -0.374737415808920
 Root      5 :     2.650280970898492   Change is   -0.000179813433552
 Iteration     3 Dimension    40 NMult    30 NNew     10
 CISAX will form    10 AO SS matrices at one time.
 NMat=    10 NSing=    10 JSym2X= 0.
 Root      1 not converged, maximum delta is    0.058472415491387
 Root      2 not converged, maximum delta is    0.059372212938403
 Root      3 not converged, maximum delta is    0.043855083174943
 Root      4 not converged, maximum delta is    0.043344205309213
 Root      5 has converged.
 Excitation Energies [eV] at current iteration:
 Root      1 :     1.690812767660796   Change is   -0.106987046655118
 Root      2 :     1.700581165714068   Change is   -0.108413660305392
 Root      3 :     2.193915577641181   Change is   -0.041287370965980
 Root      4 :     2.199536197913682   Change is   -0.039449690236055
 Root      5 :     2.650280103604568   Change is   -0.000000867293924
 Iteration     4 Dimension    48 NMult    40 NNew      8
 CISAX will form     8 AO SS matrices at one time.
 NMat=     8 NSing=     8 JSym2X= 0.
 Root      1 not converged, maximum delta is    0.011277749084648
 Root      2 not converged, maximum delta is    0.011399751463896
 Root      3 not converged, maximum delta is    0.009701875208910
 Root      4 not converged, maximum delta is    0.009070300348424
 Root      5 has converged.
 Excitation Energies [eV] at current iteration:
 Root      1 :     1.674077419901271   Change is   -0.016735347759525
 Root      2 :     1.683716994170092   Change is   -0.016864171543976
 Root      3 :     2.186630563002373   Change is   -0.007285014638808
 Root      4 :     2.192695003831767   Change is   -0.006841194081915
 Root      5 :     2.650280103603483   Change is   -0.000000000001086
 Iteration     5 Dimension    56 NMult    48 NNew      8
 CISAX will form     8 AO SS matrices at one time.
 NMat=     8 NSing=     8 JSym2X= 0.
 Root      1 not converged, maximum delta is    0.001881395311960
 Root      2 not converged, maximum delta is    0.001881996088106
 Root      3 not converged, maximum delta is    0.002487370974390
 Root      4 not converged, maximum delta is    0.002405762629736
 Root      5 has converged.
 Excitation Energies [eV] at current iteration:
 Root      1 :     1.672315862360755   Change is   -0.001761557540516
 Root      2 :     1.681928955912894   Change is   -0.001788038257198
 Root      3 :     2.185788890920799   Change is   -0.000841672081575
 Root      4 :     2.191907223761730   Change is   -0.000787780070037
 Root      5 :     2.650280103602986   Change is   -0.000000000000496
 Iteration     6 Dimension    64 NMult    56 NNew      8
 CISAX will form     8 AO SS matrices at one time.
 NMat=     8 NSing=     8 JSym2X= 0.
 Root      1 not converged, maximum delta is    0.001161698541701
 Root      2 not converged, maximum delta is    0.001185469729692
 Root      3 not converged, maximum delta is    0.001064000063493
 Root      4 not converged, maximum delta is    0.001026684327104
 Root      5 has converged.
 Excitation Energies [eV] at current iteration:
 Root      1 :     1.672064647983066   Change is   -0.000251214377690
 Root      2 :     1.681672440282373   Change is   -0.000256515630521
 Root      3 :     2.185660863920982   Change is   -0.000128026999817
 Root      4 :     2.191787517474502   Change is   -0.000119706287228
 Root      5 :     2.650280103602490   Change is   -0.000000000000497
 Iteration     7 Dimension    72 NMult    64 NNew      8
 CISAX will form     8 AO SS matrices at one time.
 NMat=     8 NSing=     8 JSym2X= 0.
 Root      1 has converged.
 Root      2 has converged.
 Root      3 has converged.
 Root      4 has converged.
 Root      5 has converged.
 Excitation Energies [eV] at current iteration:
[...]
 Alpha virt. eigenvalues --    1.83542   1.83747   1.83947   1.84008   1.84231
 Alpha virt. eigenvalues --    1.84436   1.84582   1.84790   1.84828   1.85096
 Alpha virt. eigenvalues --    1.85171   1.85256   1.85380   1.85427   1.85534
 Alpha virt. eigenvalues --    1.85853   1.85950   1.86342   1.86438   1.86529
 Alpha virt. eigenvalues --    1.86694   1.86771   1.86889   1.87038   1.87084
 Alpha virt. eigenvalues --    1.87439   1.87524   1.87674   1.87805   1.87854
 Alpha virt. eigenvalues --    1.88027   1.88072   1.88221   1.88520   1.88616
 Alpha virt. eigenvalues --    1.88819   1.88974   1.89116   1.89132   1.89597
 Alpha virt. eigenvalues --    1.89702   1.89717   1.89924   1.90104   1.90230
 Alpha virt. eigenvalues --    1.90747   1.90938   1.91344   1.91432   1.91491
 Alpha virt. eigenvalues --    1.91617   1.92145   1.92218   1.92637   1.92693
 Alpha virt. eigenvalues --    1.92967   1.93203   1.93320   1.93566   1.94273
 Alpha virt. eigenvalues --    1.94364   1.94666   1.94871   1.95458   1.95664
 Alpha virt. eigenvalues --    1.95726   1.95846   1.95995   1.96095   1.96139
 Alpha virt. eigenvalues --    1.96205   1.96530   1.96586   1.96884   1.96978
 Alpha virt. eigenvalues --    1.97441   1.97585   1.97828   1.97840   1.98165
 Alpha virt. eigenvalues --    1.98204   1.98374   1.98689   1.99122   1.99133
 Alpha virt. eigenvalues --    1.99822   1.99959   2.00645   2.00777   2.00989
 Alpha virt. eigenvalues --    2.01132   2.01486   2.01572   2.01630   2.01661
 Alpha virt. eigenvalues --    2.01715   2.01850   2.02750   2.02777   2.03204
 Alpha virt. eigenvalues --    2.03227   2.03396   2.03412   2.03484   2.03557
 Alpha virt. eigenvalues --    2.04029   2.04068   2.04937   2.05029   2.05491
 Alpha virt. eigenvalues --    2.05678   2.06056   2.06324   2.06906   2.07052
 Alpha virt. eigenvalues --    2.07176   2.07400   2.08545   2.08603   2.08967
 Alpha virt. eigenvalues --    2.09041   2.09583   2.09648   2.10757   2.11102
 Alpha virt. eigenvalues --    2.11169   2.11452   2.11545   2.11551   2.11710
 Alpha virt. eigenvalues --    2.11902   2.12461   2.12491   2.12784   2.12825
 Alpha virt. eigenvalues --    2.12852   2.12911   2.13646   2.13778   2.14118
 Alpha virt. eigenvalues --    2.14325   2.15318   2.15452   2.15921   2.16121
 Alpha virt. eigenvalues --    2.16501   2.16640   2.16742   2.17221   2.17403
 Alpha virt. eigenvalues --    2.17688   2.17712   2.17968   2.18053   2.18063
 Alpha virt. eigenvalues --    2.18319   2.18692   2.18870   2.19256   2.19634
 Alpha virt. eigenvalues --    2.19848   2.20031   2.20204   2.20282   2.20467
 Alpha virt. eigenvalues --    2.21126   2.21241   2.21648   2.21739   2.21803
 Alpha virt. eigenvalues --    2.21907   2.22665   2.22742   2.23299   2.23399
 Alpha virt. eigenvalues --    2.24370   2.24474   2.24933   2.25060   2.26294
 Alpha virt. eigenvalues --    2.26471   2.26762   2.27047   2.27096   2.27237
 Alpha virt. eigenvalues --    2.28128   2.28341   2.29250   2.29481   2.29725
 Alpha virt. eigenvalues --    2.29914   2.30453   2.30636   2.30826   2.31074
 Alpha virt. eigenvalues --    2.31193   2.31255   2.32095   2.32293   2.33124
 Alpha virt. eigenvalues --    2.33261   2.33451   2.33524   2.34129   2.34186
 Alpha virt. eigenvalues --    2.35315   2.35376   2.35786   2.35937   2.36327
 Alpha virt. eigenvalues --    2.36371   2.36510   2.36601   2.37639   2.37739
 Alpha virt. eigenvalues --    2.38221   2.38426   2.38793   2.38858   2.39594
 Alpha virt. eigenvalues --    2.39703   2.40167   2.40320   2.40481   2.40843
 Alpha virt. eigenvalues --    2.41227   2.41275   2.41667   2.41736   2.42039
 Alpha virt. eigenvalues --    2.42150   2.42880   2.42916   2.43045   2.43557
 Alpha virt. eigenvalues --    2.44005   2.44160   2.44713   2.44840   2.44892
 Alpha virt. eigenvalues --    2.45023   2.45528   2.45612   2.46262   2.46314
 Alpha virt. eigenvalues --    2.46462   2.46537   2.46784   2.46826   2.47239
 Alpha virt. eigenvalues --    2.47426   2.47694   2.47930   2.49279   2.49447
 Alpha virt. eigenvalues --    2.49943   2.50043   2.50492   2.50519   2.51116
 Alpha virt. eigenvalues --    2.51286   2.51642   2.51872   2.52397   2.52441
 Alpha virt. eigenvalues --    2.52799   2.53185   2.53896   2.54008   2.54102
 Alpha virt. eigenvalues --    2.54323   2.54768   2.54848   2.55488   2.55704
 Alpha virt. eigenvalues --    2.57835   2.58112   2.58625   2.58942   2.60200
 Alpha virt. eigenvalues --    2.60308   2.60608   2.60936   2.61684   2.61856
 Alpha virt. eigenvalues --    2.62453   2.62524   2.62942   2.63156   2.63921
 Alpha virt. eigenvalues --    2.64223   2.64236   2.64483   2.65065   2.65131
 Alpha virt. eigenvalues --    2.65780   2.65867   2.66755   2.66859   2.66892
 Alpha virt. eigenvalues --    2.67081   2.67888   2.68011   2.68836   2.68843
 Alpha virt. eigenvalues --    2.69016   2.69034   2.69373   2.69616   2.69984
 Alpha virt. eigenvalues --    2.70170   2.70968   2.71077   2.71903   2.72040
 Alpha virt. eigenvalues --    2.72496   2.72642   2.72737   2.72842   2.73250
 Alpha virt. eigenvalues --    2.73330   2.73453   2.73540   2.74494   2.74531
 Alpha virt. eigenvalues --    2.74960   2.75072   2.76551   2.76569   2.77085
 Alpha virt. eigenvalues --    2.77217   2.77426   2.77619   2.78142   2.78313
 Alpha virt. eigenvalues --    2.78715   2.78718   2.79114   2.79162   2.80278
 Alpha virt. eigenvalues --    2.80310   2.80583   2.80685   2.81096   2.81169
 Alpha virt. eigenvalues --    2.81917   2.81991   2.82319   2.82361   2.83719
 Alpha virt. eigenvalues --    2.83749   2.83866   2.83905   2.84520   2.84558
 Alpha virt. eigenvalues --    2.84856   2.84922   2.85631   2.85708   2.86666
 Alpha virt. eigenvalues --    2.86980   2.87157   2.87617   2.88110   2.88250
 Alpha virt. eigenvalues --    2.88495   2.88643   2.88894   2.88910   2.90492
 Alpha virt. eigenvalues --    2.90666   2.91098   2.91165   2.93143   2.93330
 Alpha virt. eigenvalues --    2.93788   2.94179   2.94520   2.94601   2.95372
 Alpha virt. eigenvalues --    2.95458   2.95802   2.96212   2.96386   2.96427
 Alpha virt. eigenvalues --    2.96851   2.97185   2.97819   2.98050   2.98176
 Alpha virt. eigenvalues --    2.98339   2.98348   2.98582   2.98587   2.98806
 Alpha virt. eigenvalues --    2.98854   2.98949   2.99552   2.99822   2.99998
 Alpha virt. eigenvalues --    3.00019   3.00213   3.00351   3.00453   3.00992
 Alpha virt. eigenvalues --    3.01926   3.01971   3.02002   3.02104   3.02734
 Alpha virt. eigenvalues --    3.02804   3.02981   3.03294   3.03318   3.03705
 Alpha virt. eigenvalues --    3.04061   3.04151   3.04433   3.04444   3.04532
 Alpha virt. eigenvalues --    3.04760   3.05266   3.05378   3.06095   3.06190
 Alpha virt. eigenvalues --    3.06805   3.06949   3.07942   3.08108   3.09390
 Alpha virt. eigenvalues --    3.09391   3.09689   3.10402   3.10434   3.10737
 Alpha virt. eigenvalues --    3.11300   3.11525   3.11941   3.11946   3.12151
 Alpha virt. eigenvalues --    3.12293   3.13274   3.13609   3.13641   3.13715
 Alpha virt. eigenvalues --    3.14103   3.14442   3.15893   3.16026   3.17243
 Alpha virt. eigenvalues --    3.17533   3.17894   3.18031   3.19050   3.19092
 Alpha virt. eigenvalues --    3.22313   3.22575   3.23926   3.24447   3.24664
 Alpha virt. eigenvalues --    3.25191   3.26484   3.26673   3.27406   3.27603
 Alpha virt. eigenvalues --    3.29111   3.29193   3.31390   3.31505   3.33202
 Alpha virt. eigenvalues --    3.33395   3.40217   3.40651   3.42775   3.42828
 Alpha virt. eigenvalues --    3.48643   3.48705   3.50003   3.50299   3.50849
 Alpha virt. eigenvalues --    3.51452   3.56524   3.57022   3.59076   3.59366
 Alpha virt. eigenvalues --    3.62526   3.62819   3.66124   3.66133   3.67199
 Alpha virt. eigenvalues --    3.67508   3.73277   3.73998   3.76056   3.76662
          Condensed to atoms (all electrons):
 Mulliken charges:
               1
     1  Mg   0.838538
     2  C   -0.002895
     3  C   -0.094071
     4  C   -0.046057
     5  C   -0.063969
     6  N   -0.256813
     7  C   -0.052306
     8  C   -0.013998
     9  C   -0.086995
    10  C    0.046312
    11  C    0.104791
    12  C    0.053443
    13  C   -0.072200
    14  H    0.037169
    15  N   -0.433082
    16  C    0.168264
    17  C   -0.177279
    18  C   -0.004297
    19  C    0.148615
    20  C    0.110175
    21  C    0.011871
    22  O   -0.249903
    23  C    0.062684
    24  N   -0.341136
    25  C    0.041258
    26  C   -0.028126
    27  C   -0.024021
    28  C    0.074905
    29  C    0.076169
    30  C    0.035121
    31  C   -0.004500
    32  N   -0.310502
    33  C    0.080500
    34  C   -0.169696
    35  C    0.008431
    36  C    0.083032
    37  C    0.127307
    38  C    0.046139
    39  O   -0.188197
    40  C   -0.005285
    41  C    0.212903
    42  O   -0.257098
    43  O   -0.304810
    44  C    0.157581
    45  H   -0.017521
    46  H   -0.017050
    47  H   -0.041387
    48  H    0.001114
    49  H   -0.003891
    50  H    0.025540
    51  H    0.016343
    52  H    0.016806
    53  H    0.011075
    54  H    0.044232
    55  H    0.017863
    56  H    0.018002
    57  H    0.006108
    58  H    0.026818
    59  H    0.038992
    60  H    0.037650
    61  H    0.035092
    62  H    0.030825
    63  H    0.016292
    64  H    0.009585
    65  H    0.023096
    66  H    0.012584
    67  H    0.004878
    68  H    0.006414
    69  H    0.004908
    70  H    0.008442
    71  H    0.018498
    72  H    0.028858
    73  H    0.047578
    74  H    0.009175
    75  H    0.046171
    76  H    0.035303
    77  H    0.043077
    78  H    0.046698
    79  H    0.053864
    80  Mg   0.838103
    81  C   -0.016959
    82  C   -0.087900
    83  C   -0.045386
    84  C   -0.063984
    85  N   -0.254540
    86  C   -0.049793
    87  C   -0.015066
    88  C   -0.090544
    89  C    0.045752
    90  C    0.114418
    91  C    0.062593
    92  C   -0.077658
    93  H    0.034570
    94  N   -0.423479
    95  C    0.162894
    96  C   -0.174644
    97  C   -0.007859
    98  C    0.152129
    99  C    0.099380
   100  C    0.015493
   101  O   -0.253267
   102  C    0.061226
   103  N   -0.349965
   104  C    0.037744
   105  C   -0.020006
   106  C   -0.035034
   107  C    0.088948
   108  C    0.073387
   109  C    0.034694
   110  C   -0.007640
   111  N   -0.324168
   112  C    0.078436
   113  C   -0.162639
   114  C    0.002196
   115  C    0.096344
   116  C    0.131430
   117  C    0.042462
   118  O   -0.188298
   119  C    0.000856
   120  C    0.211175
   121  O   -0.251040
   122  O   -0.305766
   123  C    0.152125
   124  H   -0.019810
   125  H   -0.015583
   126  H   -0.039899
   127  H   -0.001146
   128  H   -0.004641
   129  H    0.022268
   130  H    0.015097
   131  H    0.015530
   132  H    0.013978
   133  H    0.037658
   134  H    0.020337
   135  H    0.019493
   136  H    0.008619
   137  H    0.026241
   138  H    0.039511
   139  H    0.038276
   140  H    0.036186
   141  H    0.033751
   142  H    0.014131
   143  H    0.013655
   144  H    0.024759
   145  H    0.011830
   146  H    0.006926
   147  H    0.006346
   148  H    0.003892
   149  H    0.010768
   150  H    0.017737
   151  H    0.029897
   152  H    0.045577
   153  H    0.008772
   154  H    0.047942
   155  H    0.034771
   156  H    0.043535
   157  H    0.049302
   158  H    0.053570
 Sum of Mulliken charges =  -0.00000
 Mulliken charges with hydrogens summed into heavy atoms:
               1
     1  Mg   0.838538
     2  C   -0.002895
     3  C   -0.111592
     4  C   -0.063107
     5  C   -0.105356
     6  N   -0.256813
     7  C   -0.052306
     8  C   -0.012883
     9  C   -0.090886
    10  C    0.046312
    11  C    0.163479
    12  C    0.108750
    13  C    0.000834
    15  N   -0.433082
    16  C    0.168264
    17  C   -0.177279
    18  C   -0.004297
    19  C    0.148615
    20  C    0.182094
    21  C    0.011871
    22  O   -0.249903
    23  C    0.166250
    24  N   -0.341136
    25  C    0.041258
    26  C   -0.011834
    27  C   -0.014436
    28  C    0.074905
    29  C    0.116727
    30  C    0.046442
    31  C    0.051298
    32  N   -0.310502
    33  C    0.080500
    34  C   -0.169696
    35  C    0.008431
    36  C    0.083032
    37  C    0.230230
    38  C    0.046139
    39  O   -0.188197
    40  C    0.030017
    41  C    0.212903
    42  O   -0.257098
    43  O   -0.304810
    44  C    0.301220
    80  Mg   0.838103
    81  C   -0.016959
    82  C   -0.107710
    83  C   -0.060970
    84  C   -0.103884
    85  N   -0.254540
    86  C   -0.049793
    87  C   -0.016211
    88  C   -0.095184
    89  C    0.045752
    90  C    0.167313
    91  C    0.114229
    92  C   -0.003257
    94  N   -0.423479
    95  C    0.162894
    96  C   -0.174644
    97  C   -0.007859
    98  C    0.152129
    99  C    0.173751
   100  C    0.015493
   101  O   -0.253267
   102  C    0.169440
   103  N   -0.349965
   104  C    0.037744
   105  C   -0.005875
   106  C   -0.021379
   107  C    0.088948
   108  C    0.116902
   109  C    0.044932
   110  C    0.050763
   111  N   -0.324168
   112  C    0.078436
   113  C   -0.162639
   114  C    0.002196
   115  C    0.096344
   116  C    0.233721
   117  C    0.042462
   118  O   -0.188298
   119  C    0.035627
   120  C    0.211175
   121  O   -0.251040
   122  O   -0.305766
   123  C    0.298532
 Electronic spatial extent (au):  <R**2>=         150206.5050
 Charge=             -0.0000 electrons
 Dipole moment (field-independent basis, Debye):
    X=             -3.5532    Y=              1.9239    Z=              6.5374  Tot=              7.6853
 Quadrupole moment (field-independent basis, Debye-Ang):
   XX=           -518.8425   YY=           -518.1287   ZZ=           -480.8711
   XY=             32.3502   XZ=             -6.9533   YZ=            -17.5241
 Traceless Quadrupole moment (field-independent basis, Debye-Ang):
   XX=            -12.8951   YY=            -12.1813   ZZ=             25.0763
   XY=             32.3502   XZ=             -6.9533   YZ=            -17.5241
 Octapole moment (field-independent basis, Debye-Ang**2):
  XXX=           -476.1696  YYY=            -62.6841  ZZZ=            205.4115  XYY=           -292.8992
  XXY=            131.6964  XXZ=            311.6225  XZZ=            301.5515  YZZ=           -109.1843
  YYZ=             30.5404  XYZ=            317.6888
 Hexadecapole moment (field-independent basis, Debye-Ang**3):
 XXXX=        -140214.1801 YYYY=         -36373.1667 ZZZZ=         -29575.5121 XXXY=           1902.3404
 XXXZ=             99.3817 YYYX=           1402.1485 YYYZ=            512.3153 ZZZX=          -1108.7161
 ZZZY=           -867.5865 XXYY=         -29305.7158 XXZZ=         -26814.4157 YYZZ=         -11238.4801
 XXYZ=          -1076.3543 YYXZ=           1883.8873 ZZXY=           -896.7753
 N-N= 1.424283301179D+04 E-N=-3.796662286009D+04  KE= 4.028801902515D+03
 Leave Link  601 at Sat Sep  4 09:52:48 2021, MaxMem= 23488102400 cpu:              14.4 elap:               0.7
 (Enter /sw/apps/gaussian-16.0/g16/l9999.exe)
 1\1\GINC-BP1-COMPUTE00083\SP\RCAM-B3LYP TD-FC\def2SVP\C68H72Mg2N8O8\OF
 15641\04-Sep-2021\0\\#p cam-b3lyp/Def2SVP td=(nstates=5)\\TDDFT excite
 d states in gaussian\\0,1\Mg,0,0.,0.,0.\C,0,-0.217,-2.218,2.801\C,0,-1
 .255,2.442,2.026\C,0,-0.245,1.85,-2.564\C,0,0.146,-2.824,-2.037\N,0,-0
 .617,-0.009,2.126\C,0,-0.594,-0.908,3.105\C,0,-0.936,-0.309,4.502\C,0,
 -1.773,0.964,4.032\C,0,-1.155,1.168,2.66\C,0,-3.263,0.685,3.863\C,0,0.
 345,0.11,5.299\C,0,0.124,0.397,6.787\H,0,1.168,0.033,7.733\N,0,-0.185,
 1.961,-0.152\C,0,-0.703,2.8,0.777\C,0,-0.62,4.156,0.193\C,0,-0.187,4.0
 15,-1.225\C,0,-0.214,2.583,-1.38\C,0,-0.887,5.406,0.974\C,0,0.181,5.01
 3,-2.277\O,0,0.303,4.69,-3.508\C,0,0.31,6.414,-1.837\N,0,-0.265,-0.413
 ,-2.029\C,0,-0.279,0.569,-2.937\C,0,-0.196,0.024,-4.332\C,0,0.124,-1.5
 33,-4.18\C,0,0.086,-1.632,-2.635\C,0,-1.451,0.205,-5.197\C,0,1.373,-2.
 07,-4.923\C,0,2.626,-1.49,-4.306\N,0,0.15,-2.144,0.303\C,0,0.173,-3.13
 6,-0.688\C,0,0.173,-4.438,0.004\C,0,0.133,-4.111,1.358\C,0,0.083,-2.69
 5,1.502\C,0,0.149,-5.715,-0.623\C,0,0.096,-4.629,2.716\O,0,0.208,-5.74
 7,3.221\C,0,-0.255,-3.428,3.701\C,0,0.717,-3.482,4.848\O,0,1.931,-3.25
 5,4.669\O,0,0.038,-3.556,6.003\C,0,0.943,-3.583,7.183\H,0,-1.859,3.22,
 2.497\H,0,-0.218,2.453,-3.474\H,0,0.276,-3.747,-2.605\H,0,-1.554,-0.94
 9,5.132\H,0,-1.585,1.831,4.665\H,0,-3.484,-0.377,3.969\H,0,-3.511,1.02
 7,2.858\H,0,-3.852,1.301,4.543\H,0,0.669,1.096,4.966\H,0,1.13,-0.639,5
 .189\H,0,-0.844,0.026,7.125\H,0,0.062,1.477,6.921\H,0,-1.344,5.186,1.9
 38\H,0,-1.651,5.963,0.432\H,0,0.007,6.02,1.084\H,0,-0.635,6.744,-1.405
 \H,0,0.665,6.97,-2.704\H,0,1.048,6.466,-1.036\H,0,0.608,0.501,-4.891\H
 ,0,-0.692,-2.156,-4.547\H,0,-1.267,0.74,-6.129\H,0,-2.204,0.714,-4.596
 \H,0,-1.967,-0.72,-5.453\H,0,1.356,-1.759,-5.967\H,0,1.452,-3.157,-4.9
 02\H,0,2.714,-0.522,-4.798\H,0,3.487,-2.121,-4.529\H,0,2.495,-1.303,-3
 .24\H,0,0.867,-6.333,-0.084\H,0,0.404,-5.642,-1.68\H,0,-0.891,-5.999,-
 0.463\H,0,-1.283,-3.581,4.028\H,0,0.698,-4.478,7.755\H,0,0.833,-2.619,
 7.68\H,0,2.,-3.754,6.976\Mg,0,13.14522,1.191,0.99685\C,0,12.54349,3.00
 734,4.03295\C,0,12.13959,3.97765,-0.69367\C,0,13.23311,-0.51893,-1.674
 45\C,0,12.99643,-1.73631,2.88218\N,0,12.45495,3.17431,1.6913\C,0,12.32
 593,3.77059,2.86695\C,0,12.02041,5.29041,2.78721\C,0,11.36339,5.32708,
 1.32234\C,0,12.05073,4.1056,0.71552\C,0,9.86437,5.07762,1.32868\C,0,13
 .32075,6.16588,2.8556\C,0,13.07955,7.65811,3.09396\H,0,14.0402,8.39705
 ,3.90856\N,0,13.22055,1.77336,-0.89886\C,0,12.7883,2.94623,-1.4076\C,0
 ,13.04992,2.87834,-2.85367\C,0,13.52045,1.50502,-3.18126\C,0,13.31869,
 0.84614,-1.9064\C,0,12.92527,4.06856,-3.7599\C,0,14.05068,0.88385,-4.4
 3792\O,0,14.17523,-0.38589,-4.56078\C,0,14.33174,1.79911,-5.55362\N,0,
 12.90868,-0.83865,0.61354\C,0,13.04755,-1.32791,-0.63116\C,0,13.10771,
 -2.83677,-0.62062\C,0,13.22378,-3.25135,0.91959\C,0,13.11609,-1.85318,
 1.56682\C,0,11.91503,-3.55451,-1.25209\C,0,14.4203,-4.1591,1.31582\C,0
 ,15.71809,-3.39957,1.16009\N,0,13.01455,0.69811,3.09639\C,0,12.93865,-
 0.5915,3.66669\C,0,12.74756,-0.41393,5.12078\C,0,12.70213,0.97763,5.29
 393\C,0,12.83393,1.62156,4.03398\C,0,12.59304,-1.46024,6.0734\C,0,12.5
 6198,2.04807,6.25477\O,0,12.50526,2.11178,7.48215\C,0,12.32621,3.40763
 ,5.46584\C,0,13.24245,4.44812,6.04928\O,0,14.47631,4.33548,5.94197\O,0
 ,12.51208,5.50697,6.44394\C,0,13.3777,6.57053,7.01958\H,0,11.62858,4.7
 1389,-1.31472\H,0,13.36913,-1.15569,-2.55167\H,0,13.03891,-2.59852,3.5
 5111\H,0,11.31046,5.65021,3.52225\H,0,11.64525,6.22914,0.78549\H,0,9.5
 0649,4.7988,2.30864\H,0,9.69669,4.27523,0.62222\H,0,9.3358,5.94733,0.9
 2798\H,0,13.77799,6.20637,1.85859\H,0,13.9971,5.78628,3.59661\H,0,12.0
 5506,7.86178,3.42845\H,0,13.15762,8.17948,2.13683\H,0,12.40228,4.89695
 ,-3.26629\H,0,12.26008,3.77767,-4.58013\H,0,13.88442,4.38256,-4.17714\
 H,0,13.42294,2.33347,-5.82007\H,0,14.7865,1.18165,-6.33067\H,0,15.052,
 2.55235,-5.21527\H,0,13.98468,-3.19252,-1.14735\H,0,12.3452,-3.82159,1
 .25538\H,0,12.20216,-4.2402,-2.07152\H,0,11.21684,-2.80842,-1.60764\H,
 0,11.30402,-4.13153,-0.56006\H,0,14.48163,-5.01926,0.64462\H,0,14.3535
 9,-4.5444,2.3278\H,0,15.94118,-3.50807,0.09447\H,0,16.49847,-3.84466,1
 .77404\H,0,15.57526,-2.33123,1.35986\H,0,13.20017,-1.19479,6.92865\H,0
 ,12.88771,-2.42206,5.65886\H,0,11.5161,-1.40317,6.25283\H,0,11.27545,3
 .67588,5.58213\H,0,12.99648,6.78455,8.02285\H,0,13.36032,7.39905,6.286
 77\H,0,14.40874,6.31561,7.23504\\Version=ES64L-G16RevA.03\State=1-A\HF
 =-4069.8118352\RMSD=4.696e-09\PG=C01 [X(C68H72Mg2N8O8)]\\@


 YOU SHOULDN'T LET PEOPLE DRIVE YOU CRAZY
 WHEN YOU KNOW IT'S WITHIN WALKING DISTANCE.
 Job cpu time:       0 days 12 hours  3 minutes  8.4 seconds.
 Elapsed time:       0 days  0 hours 30 minutes 43.8 seconds.
 File lengths (MBytes):  RWF=  13225 Int=      0 D2E=      0 Chk=    574 Scr=      1
 Normal termination of Gaussian 16 at Sat Sep  4 09:52:49 2021.
