 Entering Gaussian System, Link 0=g16
 Initial command:
 /sw/apps/gaussian-16.0/g16/l1.exe "/tmp/Gau-73852.inp" -scrdir="/tmp/"
 Entering Link 1 = /sw/apps/gaussian-16.0/g16/l1.exe PID=     73853.
  
 Copyright (c) 1988,1990,1992,1993,1995,1998,2003,2009,2016,
            Gaussian, Inc.  All Rights Reserved.
  
 This is part of the Gaussian(R) 16 program.  It is based on
 the Gaussian(R) 09 system (copyright 2009, Gaussian, Inc.),
 the Gaussian(R) 03 system (copyright 2003, Gaussian, Inc.),
 the Gaussian(R) 98 system (copyright 1998, Gaussian, Inc.),
 the Gaussian(R) 94 system (copyright 1995, Gaussian, Inc.),
 the Gaussian 92(TM) system (copyright 1992, Gaussian, Inc.),
 the Gaussian 90(TM) system (copyright 1990, Gaussian, Inc.),
 the Gaussian 88(TM) system (copyright 1988, Gaussian, Inc.),
 the Gaussian 86(TM) system (copyright 1986, Carnegie Mellon
 University), and the Gaussian 82(TM) system (copyright 1983,
 Carnegie Mellon University). Gaussian is a federally registered
 trademark of Gaussian, Inc.
  
 This software contains proprietary and confidential information,
 including trade secrets, belonging to Gaussian, Inc.
  
 This software is provided under written license and may be
 used, copied, transmitted, or stored only in accord with that
 written license.
  
 The following legend is applicable only to US Government
 contracts under FAR:
  
                    RESTRICTED RIGHTS LEGEND
  
 Use, reproduction and disclosure by the US Government is
 subject to restrictions as set forth in subparagraphs (a)
 and (c) of the Commercial Computer Software - Restricted
 Rights clause in FAR 52.227-19.
  
 Gaussian, Inc.
 340 Quinnipiac St., Bldg. 40, Wallingford CT 06492
  
  
 ---------------------------------------------------------------
 Warning -- This program may not be used in any manner that
 competes with the business of Gaussian, Inc. or will provide
 assistance to any competitor of Gaussian, Inc.  The licensee
 of this program is prohibited from giving any competitor of
 Gaussian, Inc. access to this program.  By using this program,
 the user acknowledges that Gaussian, Inc. is engaged in the
 business of creating and licensing software in the field of
 computational chemistry and represents and warrants to the
 licensee that it is not a competitor of Gaussian, Inc. and that
 it will not use this program in any manner prohibited above.
 ---------------------------------------------------------------
  

 Cite this work as:
 Gaussian 16, Revision A.03,
 M. J. Frisch, G. W. Trucks, H. B. Schlegel, G. E. Scuseria, 
 M. A. Robb, J. R. Cheeseman, G. Scalmani, V. Barone, 
 G. A. Petersson, H. Nakatsuji, X. Li, M. Caricato, A. V. Marenich, 
 J. Bloino, B. G. Janesko, R. Gomperts, B. Mennucci, H. P. Hratchian, 
 J. V. Ortiz, A. F. Izmaylov, J. L. Sonnenberg, D. Williams-Young, 
 F. Ding, F. Lipparini, F. Egidi, J. Goings, B. Peng, A. Petrone, 
 T. Henderson, D. Ranasinghe, V. G. Zakrzewski, J. Gao, N. Rega, 
 G. Zheng, W. Liang, M. Hada, M. Ehara, K. Toyota, R. Fukuda, 
 J. Hasegawa, M. Ishida, T. Nakajima, Y. Honda, O. Kitao, H. Nakai, 
 T. Vreven, K. Throssell, J. A. Montgomery, Jr., J. E. Peralta, 
 F. Ogliaro, M. J. Bearpark, J. J. Heyd, E. N. Brothers, K. N. Kudin, 
 V. N. Staroverov, T. A. Keith, R. Kobayashi, J. Normand, 
 K. Raghavachari, A. P. Rendell, J. C. Burant, S. S. Iyengar, 
 J. Tomasi, M. Cossi, J. M. Millam, M. Klene, C. Adamo, R. Cammi, 
 J. W. Ochterski, R. L. Martin, K. Morokuma, O. Farkas, 
 J. B. Foresman, and D. J. Fox, Gaussian, Inc., Wallingford CT, 2016.
 
 ******************************************
 Gaussian 16:  ES64L-G16RevA.03 25-Dec-2016
                 8-Sep-2021 
 ******************************************
 %nproc=24
 Will use up to   24 processors via shared memory.
 %mem=175gb
 -----------------------------------
 #p cam-b3lyp/Def2SVP td=(nstates=5)
 -----------------------------------
 1/38=1,172=1/1;
 2/12=2,17=6,18=5,40=1/2;
 3/5=43,7=101,11=9,25=1,30=1,74=-40/1,2,3,8;
 4//1;
 5/5=2,38=5/2;
 8/6=1,10=1,108=5/1;
 9/41=5,42=1,70=2/14;
 6/7=2,8=2,9=2,10=2/1;
 99/5=1,9=1/99;
 Leave Link    1 at Wed Sep  8 21:25:06 2021, MaxMem= 23488102400 cpu:               0.9 elap:               0.0
 (Enter /sw/apps/gaussian-16.0/g16/l101.exe)
 --------------------------------
 TDDFT excited states in gaussian
 --------------------------------
 Symbolic Z-matrix:
 Charge =  0 Multiplicity = 1
 Mg                    0.        0.        0. 
 C                    -0.217    -2.218     2.801 
 C                    -1.255     2.442     2.026 
 C                    -0.245     1.85     -2.564 
 C                     0.146    -2.824    -2.037 
 N                    -0.617    -0.009     2.126 
 C                    -0.594    -0.908     3.105 
 C                    -0.936    -0.309     4.502 
 C                    -1.773     0.964     4.032 
 C                    -1.155     1.168     2.66 
 C                    -3.263     0.685     3.863 
 C                     0.345     0.11      5.299 
 C                     0.124     0.397     6.787 
 H                     1.168     0.033     7.733 
 N                    -0.185     1.961    -0.152 
 C                    -0.703     2.8       0.777 
 C                    -0.62      4.156     0.193 
 C                    -0.187     4.015    -1.225 
 C                    -0.214     2.583    -1.38 
 C                    -0.887     5.406     0.974 
 C                     0.181     5.013    -2.277 
 O                     0.303     4.69     -3.508 
 C                     0.31      6.414    -1.837 
 N                    -0.265    -0.413    -2.029 
 C                    -0.279     0.569    -2.937 
 C                    -0.196     0.024    -4.332 
 C                     0.124    -1.533    -4.18 
 C                     0.086    -1.632    -2.635 
 C                    -1.451     0.205    -5.197 
 C                     1.373    -2.07     -4.923 
 C                     2.626    -1.49     -4.306 
 N                     0.15     -2.144     0.303 
 C                     0.173    -3.136    -0.688 
 C                     0.173    -4.438     0.004 
 C                     0.133    -4.111     1.358 
 C                     0.083    -2.695     1.502 
 C                     0.149    -5.715    -0.623 
 C                     0.096    -4.629     2.716 
 O                     0.208    -5.747     3.221 
 C                    -0.255    -3.428     3.701 
 C                     0.717    -3.482     4.848 
 O                     1.931    -3.255     4.669 
 O                     0.038    -3.556     6.003 
 C                     0.943    -3.583     7.183 
 H                    -1.859     3.22      2.497 
 H                    -0.218     2.453    -3.474 
 H                     0.276    -3.747    -2.605 
 H                    -1.554    -0.949     5.132 
 H                    -1.585     1.831     4.665 
 H                    -3.484    -0.377     3.969 
 H                    -3.511     1.027     2.858 
 H                    -3.852     1.301     4.543 
 H                     0.669     1.096     4.966 
 H                     1.13     -0.639     5.189 
 H                    -0.844     0.026     7.125 
 H                     0.062     1.477     6.921 
 H                    -1.344     5.186     1.938 
 H                    -1.651     5.963     0.432 
 H                     0.007     6.02      1.084 
 H                    -0.635     6.744    -1.405 
 H                     0.665     6.97     -2.704 
 H                     1.048     6.466    -1.036 
 H                     0.608     0.501    -4.891 
 H                    -0.692    -2.156    -4.547 
 H                    -1.267     0.74     -6.129 
 H                    -2.204     0.714    -4.596 
 H                    -1.967    -0.72     -5.453 
 H                     1.356    -1.759    -5.967 
 H                     1.452    -3.157    -4.902 
 H                     2.714    -0.522    -4.798 
 H                     3.487    -2.121    -4.529 
 H                     2.495    -1.303    -3.24 
 H                     0.867    -6.333    -0.084 
 H                     0.404    -5.642    -1.68 
 H                    -0.891    -5.999    -0.463 
 H                    -1.283    -3.581     4.028 
 H                     0.698    -4.478     7.755 
 H                     0.833    -2.619     7.68 
 H                     2.       -3.754     6.976 
 Mg                    7.88224   0.70229   0.60636 
 C                     5.60552   2.30748   2.86887 
 C                     10.12544   0.59782   3.1738 
 C                     10.06208  -0.29913  -1.47038 
 C                     5.94215   1.94532  -2.00833 
 N                     7.76384   1.39455   2.70374 
 C                     6.82647   1.93412   3.4683 
 C                     7.18981   2.00834   4.97563 
 C                     8.78971   1.98774   4.83863 
 C                     8.9115    1.2502    3.50676 
 C                     9.39765   3.37096   4.67597 
 C                     6.66602   0.76619   5.77859 
 C                     6.71332   0.91777   7.3006 
 H                     5.65      0.30783   8.0942 
 N                     9.61421  -0.219     0.90644 
 C                     10.38009  -0.17048   2.01656 
 C                     11.55973  -1.00078   1.7281 
 C                     11.50726  -1.40964   0.29814 
 C                     10.37868  -0.62411  -0.15939 
 C                     12.55304  -1.3972    2.78148 
 C                     12.34341  -2.34228  -0.52481 
 O                     12.26582  -2.36517  -1.80398 
 C                     13.3224  -3.16158   0.20445 
 N                     8.1121    0.98111  -1.44102 
 C                     9.11862   0.39207  -2.11025 
 C                     8.92336   0.5093   -3.60307 
 C                     7.4467    1.09133  -3.79882 
 C                     7.05984   1.30295  -2.31863 
 C                     9.92355   1.4025   -4.33669 
 C                     6.48363   0.27684  -4.70533 
 C                     6.14989  -1.04341  -4.04886 
 N                     6.00037   1.74843   0.42691 
 C                     5.38381   2.19709  -0.76163 
 C                     4.17848   2.95493  -0.36756 
 C                     4.19005   2.91383   1.03482 
 C                     5.33353   2.19928   1.48357 
 C                     3.27799   3.60667  -1.25665 
 C                     3.50065   3.32154   2.23781 
 O                     2.42945   3.87638   2.47951 
 C                     4.45405   3.05546   3.48145 
 C                     3.64927   2.35602   4.54241 
 O                     3.20681   1.21023   4.34749 
 O                     3.71911   3.06214   5.6856 
 C                     2.9454    2.40258   6.77104 
 H                     10.97947   0.71906   3.84074 
 H                     10.72417  -0.71637  -2.23264 
 H                     5.23182   2.28083  -2.76698 
 H                     6.87108   2.91509   5.47562 
 H                     9.24715   1.41005   5.63762 
 H                     8.64089   4.1326    4.56044 
 H                     10.01851   3.31722   3.79127 
 H                     10.07548   3.58495   5.50729 
 H                     7.37038  -0.06582   5.65065 
 H                     5.67151   0.50614   5.47208 
 H                     6.87203   1.95904   7.6064 
 H                     7.5948    0.39129   7.67454 
 H                     12.42101  -0.81156   3.69962 
 H                     13.54278  -1.10591   2.41348 
 H                     12.55147  -2.47129   2.97901 
 H                     14.00645  -2.5114    0.74464 
 H                     13.76048  -3.82695  -0.54203 
 H                     12.79092  -3.7543    0.95733 
 H                     8.98413  -0.46198  -4.07849 
 H                     7.45983   2.08718  -4.26566 
 H                     10.46403   0.87835  -5.14738 
 H                     10.62014   1.80206  -3.61167 
 H                     9.5018    2.30584  -4.77406 
 H                     6.96891   0.03748  -5.65473 
 H                     5.56248   0.8008   -4.93759 
 H                     7.00003  -1.67614  -4.32088 
 H                     5.2181   -1.44298  -4.44402 
 H                     6.14485  -0.94972  -2.95669 
 H                     2.2789    3.38517  -0.90556 
 H                     3.42236   3.27477  -2.28269 
 H                     3.58279   4.647    -1.115 
 H                     4.82678   4.02249   3.8213 
 H                     2.22997   3.14039   7.14716 
 H                     3.6988    2.02157   7.48587 
 H                     2.2846    1.5899    6.49292 
 
 ITRead=  0  0  0  0  0  0  0  0  0  0  0  0  0  0  0  0  0  0  0  0
 ITRead=  0  0  0  0  0  0  0  0  0  0  0  0  0  0  0  0  0  0  0  0
 ITRead=  0  0  0  0  0  0  0  0  0  0  0  0  0  0  0  0  0  0  0  0
 ITRead=  0  0  0  0  0  0  0  0  0  0  0  0  0  0  0  0  0  0  0  0
 ITRead=  0  0  0  0  0  0  0  0  0  0  0  0  0  0  0  0  0  0  0  0
 ITRead=  0  0  0  0  0  0  0  0  0  0  0  0  0  0  0  0  0  0  0  0
 ITRead=  0  0  0  0  0  0  0  0  0  0  0  0  0  0  0  0  0  0  0  0
 ITRead=  0  0  0  0  0  0  0  0  0  0  0  0  0  0  0  0  0  0
 MicOpt= -1 -1 -1 -1 -1 -1 -1 -1 -1 -1 -1 -1 -1 -1 -1 -1 -1 -1 -1 -1
 MicOpt= -1 -1 -1 -1 -1 -1 -1 -1 -1 -1 -1 -1 -1 -1 -1 -1 -1 -1 -1 -1
 MicOpt= -1 -1 -1 -1 -1 -1 -1 -1 -1 -1 -1 -1 -1 -1 -1 -1 -1 -1 -1 -1
 MicOpt= -1 -1 -1 -1 -1 -1 -1 -1 -1 -1 -1 -1 -1 -1 -1 -1 -1 -1 -1 -1
 MicOpt= -1 -1 -1 -1 -1 -1 -1 -1 -1 -1 -1 -1 -1 -1 -1 -1 -1 -1 -1 -1
 MicOpt= -1 -1 -1 -1 -1 -1 -1 -1 -1 -1 -1 -1 -1 -1 -1 -1 -1 -1 -1 -1
 MicOpt= -1 -1 -1 -1 -1 -1 -1 -1 -1 -1 -1 -1 -1 -1 -1 -1 -1 -1 -1 -1
 MicOpt= -1 -1 -1 -1 -1 -1 -1 -1 -1 -1 -1 -1 -1 -1 -1 -1 -1 -1
 NAtoms=    158 NQM=      158 NQMF=       0 NMMI=      0 NMMIF=      0
                NMic=       0 NMicF=      0.
                    Isotopes and Nuclear Properties:
 (Nuclear quadrupole moments (NQMom) in fm**2, nuclear magnetic moments (NMagM)
  in nuclear magnetons)

  Atom         1           2           3           4           5           6           7           8           9          10
 IAtWgt=          24          12          12          12          12          14          12          12          12          12
 AtmWgt=  23.9850450  12.0000000  12.0000000  12.0000000  12.0000000  14.0030740  12.0000000  12.0000000  12.0000000  12.0000000
 NucSpn=           0           0           0           0           0           2           0           0           0           0
 AtZEff=  -0.0000000  -0.0000000  -0.0000000  -0.0000000  -0.0000000  -0.0000000  -0.0000000  -0.0000000  -0.0000000  -0.0000000
 NQMom=    0.0000000   0.0000000   0.0000000   0.0000000   0.0000000   2.0440000   0.0000000   0.0000000   0.0000000   0.0000000
 NMagM=    0.0000000   0.0000000   0.0000000   0.0000000   0.0000000   0.4037610   0.0000000   0.0000000   0.0000000   0.0000000
 AtZNuc=  12.0000000   6.0000000   6.0000000   6.0000000   6.0000000   7.0000000   6.0000000   6.0000000   6.0000000   6.0000000

  Atom        11          12          13          14          15          16          17          18          19          20
 IAtWgt=          12          12          12           1          14          12          12          12          12          12
 AtmWgt=  12.0000000  12.0000000  12.0000000   1.0078250  14.0030740  12.0000000  12.0000000  12.0000000  12.0000000  12.0000000
 NucSpn=           0           0           0           1           2           0           0           0           0           0
 AtZEff=  -0.0000000  -0.0000000  -0.0000000  -0.0000000  -0.0000000  -0.0000000  -0.0000000  -0.0000000  -0.0000000  -0.0000000
 NQMom=    0.0000000   0.0000000   0.0000000   0.0000000   2.0440000   0.0000000   0.0000000   0.0000000   0.0000000   0.0000000
 NMagM=    0.0000000   0.0000000   0.0000000   2.7928460   0.4037610   0.0000000   0.0000000   0.0000000   0.0000000   0.0000000
 AtZNuc=   6.0000000   6.0000000   6.0000000   1.0000000   7.0000000   6.0000000   6.0000000   6.0000000   6.0000000   6.0000000

  Atom        21          22          23          24          25          26          27          28          29          30
 IAtWgt=          12          16          12          14          12          12          12          12          12          12
 AtmWgt=  12.0000000  15.9949146  12.0000000  14.0030740  12.0000000  12.0000000  12.0000000  12.0000000  12.0000000  12.0000000
 NucSpn=           0           0           0           2           0           0           0           0           0           0
 AtZEff=  -0.0000000  -0.0000000  -0.0000000  -0.0000000  -0.0000000  -0.0000000  -0.0000000  -0.0000000  -0.0000000  -0.0000000
 NQMom=    0.0000000   0.0000000   0.0000000   2.0440000   0.0000000   0.0000000   0.0000000   0.0000000   0.0000000   0.0000000
 NMagM=    0.0000000   0.0000000   0.0000000   0.4037610   0.0000000   0.0000000   0.0000000   0.0000000   0.0000000   0.0000000
 AtZNuc=   6.0000000   8.0000000   6.0000000   7.0000000   6.0000000   6.0000000   6.0000000   6.0000000   6.0000000   6.0000000

  Atom        31          32          33          34          35          36          37          38          39          40
 IAtWgt=          12          14          12          12          12          12          12          12          16          12
 AtmWgt=  12.0000000  14.0030740  12.0000000  12.0000000  12.0000000  12.0000000  12.0000000  12.0000000  15.9949146  12.0000000
 NucSpn=           0           2           0           0           0           0           0           0           0           0
 AtZEff=  -0.0000000  -0.0000000  -0.0000000  -0.0000000  -0.0000000  -0.0000000  -0.0000000  -0.0000000  -0.0000000  -0.0000000
 NQMom=    0.0000000   2.0440000   0.0000000   0.0000000   0.0000000   0.0000000   0.0000000   0.0000000   0.0000000   0.0000000
 NMagM=    0.0000000   0.4037610   0.0000000   0.0000000   0.0000000   0.0000000   0.0000000   0.0000000   0.0000000   0.0000000
 AtZNuc=   6.0000000   7.0000000   6.0000000   6.0000000   6.0000000   6.0000000   6.0000000   6.0000000   8.0000000   6.0000000

  Atom        41          42          43          44          45          46          47          48          49          50
 IAtWgt=          12          16          16          12           1           1           1           1           1           1
 AtmWgt=  12.0000000  15.9949146  15.9949146  12.0000000   1.0078250   1.0078250   1.0078250   1.0078250   1.0078250   1.0078250
 NucSpn=           0           0           0           0           1           1           1           1           1           1
 AtZEff=  -0.0000000  -0.0000000  -0.0000000  -0.0000000  -0.0000000  -0.0000000  -0.0000000  -0.0000000  -0.0000000  -0.0000000
 NQMom=    0.0000000   0.0000000   0.0000000   0.0000000   0.0000000   0.0000000   0.0000000   0.0000000   0.0000000   0.0000000
 NMagM=    0.0000000   0.0000000   0.0000000   0.0000000   2.7928460   2.7928460   2.7928460   2.7928460   2.7928460   2.7928460
 AtZNuc=   6.0000000   8.0000000   8.0000000   6.0000000   1.0000000   1.0000000   1.0000000   1.0000000   1.0000000   1.0000000

  Atom        51          52          53          54          55          56          57          58          59          60
 IAtWgt=           1           1           1           1           1           1           1           1           1           1
 AtmWgt=   1.0078250   1.0078250   1.0078250   1.0078250   1.0078250   1.0078250   1.0078250   1.0078250   1.0078250   1.0078250
 NucSpn=           1           1           1           1           1           1           1           1           1           1
 AtZEff=  -0.0000000  -0.0000000  -0.0000000  -0.0000000  -0.0000000  -0.0000000  -0.0000000  -0.0000000  -0.0000000  -0.0000000
 NQMom=    0.0000000   0.0000000   0.0000000   0.0000000   0.0000000   0.0000000   0.0000000   0.0000000   0.0000000   0.0000000
 NMagM=    2.7928460   2.7928460   2.7928460   2.7928460   2.7928460   2.7928460   2.7928460   2.7928460   2.7928460   2.7928460
 AtZNuc=   1.0000000   1.0000000   1.0000000   1.0000000   1.0000000   1.0000000   1.0000000   1.0000000   1.0000000   1.0000000

  Atom        61          62          63          64          65          66          67          68          69          70
 IAtWgt=           1           1           1           1           1           1           1           1           1           1
 AtmWgt=   1.0078250   1.0078250   1.0078250   1.0078250   1.0078250   1.0078250   1.0078250   1.0078250   1.0078250   1.0078250
 NucSpn=           1           1           1           1           1           1           1           1           1           1
 AtZEff=  -0.0000000  -0.0000000  -0.0000000  -0.0000000  -0.0000000  -0.0000000  -0.0000000  -0.0000000  -0.0000000  -0.0000000
 NQMom=    0.0000000   0.0000000   0.0000000   0.0000000   0.0000000   0.0000000   0.0000000   0.0000000   0.0000000   0.0000000
 NMagM=    2.7928460   2.7928460   2.7928460   2.7928460   2.7928460   2.7928460   2.7928460   2.7928460   2.7928460   2.7928460
 AtZNuc=   1.0000000   1.0000000   1.0000000   1.0000000   1.0000000   1.0000000   1.0000000   1.0000000   1.0000000   1.0000000

  Atom        71          72          73          74          75          76          77          78          79          80
 IAtWgt=           1           1           1           1           1           1           1           1           1          24
 AtmWgt=   1.0078250   1.0078250   1.0078250   1.0078250   1.0078250   1.0078250   1.0078250   1.0078250   1.0078250  23.9850450
 NucSpn=           1           1           1           1           1           1           1           1           1           0
 AtZEff=  -0.0000000  -0.0000000  -0.0000000  -0.0000000  -0.0000000  -0.0000000  -0.0000000  -0.0000000  -0.0000000  -0.0000000
 NQMom=    0.0000000   0.0000000   0.0000000   0.0000000   0.0000000   0.0000000   0.0000000   0.0000000   0.0000000   0.0000000
 NMagM=    2.7928460   2.7928460   2.7928460   2.7928460   2.7928460   2.7928460   2.7928460   2.7928460   2.7928460   0.0000000
 AtZNuc=   1.0000000   1.0000000   1.0000000   1.0000000   1.0000000   1.0000000   1.0000000   1.0000000   1.0000000  12.0000000

  Atom        81          82          83          84          85          86          87          88          89          90
 IAtWgt=          12          12          12          12          14          12          12          12          12          12
 AtmWgt=  12.0000000  12.0000000  12.0000000  12.0000000  14.0030740  12.0000000  12.0000000  12.0000000  12.0000000  12.0000000
 NucSpn=           0           0           0           0           2           0           0           0           0           0
 AtZEff=  -0.0000000  -0.0000000  -0.0000000  -0.0000000  -0.0000000  -0.0000000  -0.0000000  -0.0000000  -0.0000000  -0.0000000
 NQMom=    0.0000000   0.0000000   0.0000000   0.0000000   2.0440000   0.0000000   0.0000000   0.0000000   0.0000000   0.0000000
 NMagM=    0.0000000   0.0000000   0.0000000   0.0000000   0.4037610   0.0000000   0.0000000   0.0000000   0.0000000   0.0000000
 AtZNuc=   6.0000000   6.0000000   6.0000000   6.0000000   7.0000000   6.0000000   6.0000000   6.0000000   6.0000000   6.0000000

  Atom        91          92          93          94          95          96          97          98          99         100
 IAtWgt=          12          12           1          14          12          12          12          12          12          12
 AtmWgt=  12.0000000  12.0000000   1.0078250  14.0030740  12.0000000  12.0000000  12.0000000  12.0000000  12.0000000  12.0000000
 NucSpn=           0           0           1           2           0           0           0           0           0           0
 AtZEff=  -0.0000000  -0.0000000  -0.0000000  -0.0000000  -0.0000000  -0.0000000  -0.0000000  -0.0000000  -0.0000000  -0.0000000
 NQMom=    0.0000000   0.0000000   0.0000000   2.0440000   0.0000000   0.0000000   0.0000000   0.0000000   0.0000000   0.0000000
 NMagM=    0.0000000   0.0000000   2.7928460   0.4037610   0.0000000   0.0000000   0.0000000   0.0000000   0.0000000   0.0000000
 AtZNuc=   6.0000000   6.0000000   1.0000000   7.0000000   6.0000000   6.0000000   6.0000000   6.0000000   6.0000000   6.0000000

  Atom       101         102         103         104         105         106         107         108         109         110
 IAtWgt=          16          12          14          12          12          12          12          12          12          12
 AtmWgt=  15.9949146  12.0000000  14.0030740  12.0000000  12.0000000  12.0000000  12.0000000  12.0000000  12.0000000  12.0000000
 NucSpn=           0           0           2           0           0           0           0           0           0           0
 AtZEff=  -0.0000000  -0.0000000  -0.0000000  -0.0000000  -0.0000000  -0.0000000  -0.0000000  -0.0000000  -0.0000000  -0.0000000
 NQMom=    0.0000000   0.0000000   2.0440000   0.0000000   0.0000000   0.0000000   0.0000000   0.0000000   0.0000000   0.0000000
 NMagM=    0.0000000   0.0000000   0.4037610   0.0000000   0.0000000   0.0000000   0.0000000   0.0000000   0.0000000   0.0000000
 AtZNuc=   8.0000000   6.0000000   7.0000000   6.0000000   6.0000000   6.0000000   6.0000000   6.0000000   6.0000000   6.0000000

  Atom       111         112         113         114         115         116         117         118         119         120
 IAtWgt=          14          12          12          12          12          12          12          16          12          12
 AtmWgt=  14.0030740  12.0000000  12.0000000  12.0000000  12.0000000  12.0000000  12.0000000  15.9949146  12.0000000  12.0000000
 NucSpn=           2           0           0           0           0           0           0           0           0           0
 AtZEff=  -0.0000000  -0.0000000  -0.0000000  -0.0000000  -0.0000000  -0.0000000  -0.0000000  -0.0000000  -0.0000000  -0.0000000
 NQMom=    2.0440000   0.0000000   0.0000000   0.0000000   0.0000000   0.0000000   0.0000000   0.0000000   0.0000000   0.0000000
 NMagM=    0.4037610   0.0000000   0.0000000   0.0000000   0.0000000   0.0000000   0.0000000   0.0000000   0.0000000   0.0000000
 AtZNuc=   7.0000000   6.0000000   6.0000000   6.0000000   6.0000000   6.0000000   6.0000000   8.0000000   6.0000000   6.0000000

  Atom       121         122         123         124         125         126         127         128         129         130
 IAtWgt=          16          16          12           1           1           1           1           1           1           1
 AtmWgt=  15.9949146  15.9949146  12.0000000   1.0078250   1.0078250   1.0078250   1.0078250   1.0078250   1.0078250   1.0078250
 NucSpn=           0           0           0           1           1           1           1           1           1           1
 AtZEff=  -0.0000000  -0.0000000  -0.0000000  -0.0000000  -0.0000000  -0.0000000  -0.0000000  -0.0000000  -0.0000000  -0.0000000
 NQMom=    0.0000000   0.0000000   0.0000000   0.0000000   0.0000000   0.0000000   0.0000000   0.0000000   0.0000000   0.0000000
 NMagM=    0.0000000   0.0000000   0.0000000   2.7928460   2.7928460   2.7928460   2.7928460   2.7928460   2.7928460   2.7928460
 AtZNuc=   8.0000000   8.0000000   6.0000000   1.0000000   1.0000000   1.0000000   1.0000000   1.0000000   1.0000000   1.0000000

  Atom       131         132         133         134         135         136         137         138         139         140
 IAtWgt=           1           1           1           1           1           1           1           1           1           1
 AtmWgt=   1.0078250   1.0078250   1.0078250   1.0078250   1.0078250   1.0078250   1.0078250   1.0078250   1.0078250   1.0078250
 NucSpn=           1           1           1           1           1           1           1           1           1           1
 AtZEff=  -0.0000000  -0.0000000  -0.0000000  -0.0000000  -0.0000000  -0.0000000  -0.0000000  -0.0000000  -0.0000000  -0.0000000
 NQMom=    0.0000000   0.0000000   0.0000000   0.0000000   0.0000000   0.0000000   0.0000000   0.0000000   0.0000000   0.0000000
 NMagM=    2.7928460   2.7928460   2.7928460   2.7928460   2.7928460   2.7928460   2.7928460   2.7928460   2.7928460   2.7928460
 AtZNuc=   1.0000000   1.0000000   1.0000000   1.0000000   1.0000000   1.0000000   1.0000000   1.0000000   1.0000000   1.0000000

  Atom       141         142         143         144         145         146         147         148         149         150
 IAtWgt=           1           1           1           1           1           1           1           1           1           1
 AtmWgt=   1.0078250   1.0078250   1.0078250   1.0078250   1.0078250   1.0078250   1.0078250   1.0078250   1.0078250   1.0078250
 NucSpn=           1           1           1           1           1           1           1           1           1           1
 AtZEff=  -0.0000000  -0.0000000  -0.0000000  -0.0000000  -0.0000000  -0.0000000  -0.0000000  -0.0000000  -0.0000000  -0.0000000
 NQMom=    0.0000000   0.0000000   0.0000000   0.0000000   0.0000000   0.0000000   0.0000000   0.0000000   0.0000000   0.0000000
 NMagM=    2.7928460   2.7928460   2.7928460   2.7928460   2.7928460   2.7928460   2.7928460   2.7928460   2.7928460   2.7928460
 AtZNuc=   1.0000000   1.0000000   1.0000000   1.0000000   1.0000000   1.0000000   1.0000000   1.0000000   1.0000000   1.0000000

  Atom       151         152         153         154         155         156         157         158
 IAtWgt=           1           1           1           1           1           1           1           1
 AtmWgt=   1.0078250   1.0078250   1.0078250   1.0078250   1.0078250   1.0078250   1.0078250   1.0078250
 NucSpn=           1           1           1           1           1           1           1           1
 AtZEff=  -0.0000000  -0.0000000  -0.0000000  -0.0000000  -0.0000000  -0.0000000  -0.0000000  -0.0000000
 NQMom=    0.0000000   0.0000000   0.0000000   0.0000000   0.0000000   0.0000000   0.0000000   0.0000000
 NMagM=    2.7928460   2.7928460   2.7928460   2.7928460   2.7928460   2.7928460   2.7928460   2.7928460
 AtZNuc=   1.0000000   1.0000000   1.0000000   1.0000000   1.0000000   1.0000000   1.0000000   1.0000000
 Leave Link  101 at Wed Sep  8 21:25:06 2021, MaxMem= 23488102400 cpu:               4.0 elap:               0.2
 (Enter /sw/apps/gaussian-16.0/g16/l202.exe)
 Stoichiometry    C68H72Mg2N8O8
 Framework group  C1[X(C68H72Mg2N8O8)]
 Deg. of freedom   468
 Full point group                 C1      NOp   1
 Largest Abelian subgroup         C1      NOp   1
 Largest concise Abelian subgroup C1      NOp   1
                         Standard orientation:                         
 ---------------------------------------------------------------------
 Center     Atomic      Atomic             Coordinates (Angstroms)
 Number     Number       Type             X           Y           Z
 ---------------------------------------------------------------------
      1         12           0        3.630927    1.125794    0.364855
      2          6           0        4.041226   -1.806245    2.376575
      3          6           0        4.973448   -0.644323   -2.225008
      4          6           0        3.700409    3.823694   -1.300417
      5          6           0        3.399462    2.946572    3.327430
      6          7           0        4.373006   -0.954676    0.217858
      7          6           0        4.419287   -1.994121    1.045254
      8          6           0        4.836077   -3.322445    0.345814
      9          6           0        5.627844   -2.714624   -0.897430
     10          6           0        4.927066   -1.371259   -0.998450
     11          6           0        7.108548   -2.476515   -0.619362
     12          6           0        3.599498   -4.163460   -0.118188
     13          6           0        3.904785   -5.611614   -0.511893
     14          1           0        2.923338   -6.641858   -0.207417
     15          7           0        3.782205    1.426244   -1.581859
     16          6           0        4.343931    0.591370   -2.488907
     17          6           0        4.209595    1.263302   -3.799304
     18          6           0        3.695036    2.639301   -3.554457
     19          6           0        3.730586    2.694489   -2.115336
     20          6           0        4.506897    0.589644   -5.103737
     21          6           0        3.252914    3.734922   -4.472212
     22          8           0        3.062136    4.930589   -4.061654
     23          6           0        3.132841    3.387650   -5.899807
     24          7           0        3.780224    3.132944    0.918656
     25          6           0        3.728139    4.106993    0.003507
     26          6           0        3.569321    5.452677    0.646819
     27          6           0        3.278271    5.172550    2.191673
     28          6           0        3.409071    3.629490    2.180435
     29          6           0        4.768459    6.402061    0.517396
     30          6           0        1.994169    5.799581    2.790282
     31          6           0        0.772862    5.150805    2.178239
     32          7           0        3.525815    0.664216    2.483095
     33          6           0        3.456403    1.579780    3.543095
     34          6           0        3.513626    0.799126    4.792644
     35          6           0        3.629800   -0.523656    4.370038
     36          6           0        3.670655   -0.564394    2.947026
     37          6           0        3.516259    1.335018    6.110691
     38          6           0        3.753717   -1.910062    4.790012
     39          8           0        3.685768   -2.498294    5.870224
     40          6           0        4.147573   -2.785250    3.519283
     41          6           0        3.246064   -3.989495    3.499693
     42          8           0        2.020857   -3.868183    3.295933
     43          8           0        3.993243   -5.103980    3.485949
     44          6           0        3.160232   -6.335161    3.436537
     45          1           0        5.594607   -1.022289   -3.039405
     46          1           0        3.611991    4.770603   -1.837057
     47          1           0        3.247480    3.439380    4.289457
     48          1           0        5.498261   -3.957673    0.934391
     49          1           0        5.466962   -3.295188   -1.805607
     50          1           0        7.348625   -2.643523    0.430586
     51          1           0        7.292232   -1.436867   -0.891181
     52          1           0        7.729145   -3.074886   -1.286887
     53          1           0        3.244091   -3.781958   -1.075373
     54          1           0        2.818723   -4.153773    0.643141
     55          1           0        4.895664   -5.916149   -0.173771
     56          1           0        3.961200   -5.665318   -1.599153
     57          1           0        5.022969   -0.358264   -4.956476
     58          1           0        5.230424    1.214389   -5.627103
     59          1           0        3.613435    0.469643   -5.716647
     60          1           0        4.097627    3.037466   -6.267376
     61          1           0        2.720160    4.268742   -6.389930
     62          1           0        2.443062    2.549431   -6.002483
     63          1           0        2.727715    5.994571    0.217311
     64          1           0        4.078744    5.543133    2.832442
     65          1           0        4.522869    7.356664    0.051430
     66          1           0        5.549398    5.884669   -0.039139
     67          1           0        5.279820    6.622854    1.453973
     68          1           0        1.945350    6.862010    2.554046
     69          1           0        1.930066    5.697437    3.873660
     70          1           0        0.643813    5.703529    1.248360
     71          1           0       -0.091942    5.276748    2.830514
     72          1           0        0.964526    4.110401    1.914972
     73          1           0        2.839228    0.711729    6.694736
     74          1           0        3.198126    2.377311    6.115000
     75          1           0        4.567367    1.218165    6.374081
     76          1           0        5.194980   -3.059889    3.640252
     77          1           0        3.449830   -6.952977    4.286636
     78          1           0        3.287530   -6.755589    2.438819
     79          1           0        2.095021   -6.204548    3.630459
     80         12           0       -4.209586    0.098170   -0.314062
     81          6           0       -1.822798   -1.904979   -2.094420
     82          6           0       -6.295081   -2.600304   -0.373720
     83          6           0       -6.496156    1.964650    0.850087
     84          6           0       -2.443595    2.905611   -1.384214
     85          7           0       -3.975602   -1.934394   -1.154407
     86          6           0       -3.001310   -2.601423   -1.754555
     87          6           0       -3.275499   -4.118884   -1.932606
     88          6           0       -4.880329   -4.079986   -1.889217
     89          6           0       -5.071729   -2.813039   -1.058020
     90          6           0       -5.513986   -3.857191   -3.252370
     91          6           0       -2.689611   -4.974359   -0.754924
     92          6           0       -2.648431   -6.482017   -1.013769
     93          1           0       -1.532415   -7.251288   -0.470440
     94          7           0       -5.909127   -0.369448    0.597770
     95          6           0       -6.608357   -1.517381    0.476851
     96          6           0       -7.792621   -1.359415    1.335176
     97          6           0       -7.819984    0.038793    1.844067
     98          6           0       -6.730377    0.617403    1.083771
     99          6           0       -8.716700   -2.495817    1.663951
    100          6           0       -8.691821    0.742379    2.839595
    101          8           0       -8.689962    2.019113    2.952594
    102          6           0       -9.615577   -0.100190    3.613060
    103          7           0       -4.563926    2.142590   -0.444950
    104          6           0       -5.600972    2.707065    0.198341
    105          6           0       -5.496073    4.213458    0.185779
    106          6           0       -4.040969    4.537990   -0.392974
    107          6           0       -3.569654    3.102267   -0.712297
    108          6           0       -6.549036    4.946730   -0.644861
    109          6           0       -3.123317    5.441125    0.475888
    110          6           0       -2.734849    4.714604    1.743427
    111          7           0       -2.354818    0.463462   -1.360217
    112          6           0       -1.815463    1.715498   -1.728416
    113          6           0       -0.598391    1.448820   -2.522174
    114          6           0       -0.526248    0.048866   -2.580633
    115          6           0       -1.632131   -0.516902   -1.890390
    116          6           0        0.239611    2.434029   -3.116517
    117          6           0        0.228173   -1.078882   -3.078347
    118          8           0        1.304846   -1.216182   -3.657708
    119          6           0       -0.646404   -2.393159   -2.893412
    120          6           0        0.228518   -3.450466   -2.277671
    121          8           0        0.672840   -3.310443   -1.124601
    122          8           0        0.217839   -4.543259   -3.062563
    123          6           0        1.062704   -5.624001   -2.488083
    124          1           0       -7.109489   -3.307132   -0.534992
    125          1           0       -7.197058    2.654526    1.325798
    126          1           0       -1.783738    3.727269   -1.670837
    127          1           0       -2.938965   -4.533785   -2.875143
    128          1           0       -5.282359   -4.943668   -1.365970
    129          1           0       -4.774933   -3.643121   -4.010066
    130          1           0       -6.185512   -3.017345   -3.130877
    131          1           0       -6.143920   -4.710588   -3.519268
    132          1           0       -3.389927   -4.947808    0.089816
    133          1           0       -1.711878   -4.627748   -0.481934
    134          1           0       -2.801649   -6.722762   -2.072784
    135          1           0       -3.499569   -6.944329   -0.507953
    136          1           0       -8.537731   -3.360882    1.013551
    137          1           0       -9.730068   -2.168325    1.407642
    138          1           0       -8.690071   -2.767988    2.721260
    139          1           0      -10.274407   -0.633384    2.931804
    140          1           0      -10.088861    0.569964    4.333310
    141          1           0       -9.033052   -0.859638    4.146464
    142          1           0       -5.572861    4.614842    1.188822
    143          1           0       -4.094139    5.072117   -1.353031
    144          1           0       -7.130095    5.684607   -0.060073
    145          1           0       -7.206307    4.211109   -1.089155
    146          1           0       -6.165228    5.471115   -1.518303
    147          1           0       -3.661044    6.340473    0.786008
    148          1           0       -2.224147    5.764569   -0.037797
    149          1           0       -3.591699    4.889888    2.400818
    150          1           0       -1.823245    5.135901    2.162387
    151          1           0       -2.666201    3.634013    1.572407
    152          1           0        1.260441    2.128847   -2.928697
    153          1           0        0.038772    3.423645   -2.711448
    154          1           0       -0.069154    2.347892   -4.161744
    155          1           0       -1.010306   -2.685883   -3.879039
    156          1           0        1.789961   -5.903632   -3.256571
    157          1           0        0.357822   -6.407814   -2.152613
    158          1           0        1.715891   -5.364584   -1.663155
 ---------------------------------------------------------------------
 Rotational constants (GHZ):           0.0243188           0.0165077           0.0142762
 Leave Link  202 at Wed Sep  8 21:25:06 2021, MaxMem= 23488102400 cpu:               0.2 elap:               0.0
 (Enter /sw/apps/gaussian-16.0/g16/l301.exe)
 Standard basis: def2SVP (5D, 7F)
 Ernie: Thresh=  0.10000D-02 Tol=  0.10000D-05 Strict=F.
 There are  1658 symmetry adapted cartesian basis functions of A   symmetry.
 There are  1572 symmetry adapted basis functions of A   symmetry.
  1572 basis functions,  2678 primitive gaussians,  1658 cartesian basis functions
   312 alpha electrons      312 beta electrons
       nuclear repulsion energy     16363.5674615501 Hartrees.
 IExCor=20419 DFT=T Ex+Corr=CAM-B3LYP ExCW=0 ScaHFX=  1.000000
 ScaDFX=  1.000000  1.000000  1.000000  0.810000 ScalE2=  1.000000  1.000000
 IRadAn=      5 IRanWt=     -1 IRanGd=            0 ICorTp=0 IEmpDi=  4
 HFx  wShort=  0.000000 wLong=  0.330000 cFull=  0.190000 cShort=  0.000000 cLong=  0.460000
 DFx  wShort=  0.000000 wLong=  0.330000 cFull=  0.190000 cShort=  0.000000 cLong=  0.460000
 NAtoms=  158 NActive=  158 NUniq=  158 SFac= 1.00D+00 NAtFMM=   60 NAOKFM=T Big=T
 Integral buffers will be    131072 words long.
 Raffenetti 1 integral format.
 Two-electron integral symmetry is turned on.
 Leave Link  301 at Wed Sep  8 21:25:07 2021, MaxMem= 23488102400 cpu:               1.3 elap:               0.1
 (Enter /sw/apps/gaussian-16.0/g16/l302.exe)
 NPDir=0 NMtPBC=     1 NCelOv=     1 NCel=       1 NClECP=     1 NCelD=      1
         NCelK=      1 NCelE2=     1 NClLst=     1 CellRange=     0.0.
 One-electron integrals computed using PRISM.
 One-electron integral symmetry used in STVInt
   1 Symmetry operations used in ECPInt.
 ECPInt:  NShTT=  271216 NPrTT=  987664 LenC2=  166732 LenP2D=  351653.
 LDataN:  DoStor=T MaxTD1= 4 Len=   56
 NBasis=  1572 RedAO= T EigKep=  3.22D-04  NBF=  1572
 NBsUse=  1572 1.00D-06 EigRej= -1.00D+00 NBFU=  1572
 Precomputing XC quadrature grid using
 IXCGrd= 4 IRadAn=           5 IRanWt=          -1 IRanGd=           0 AccXCQ= 0.00D+00.
 Generated NRdTot=       0 NPtTot=           0 NUsed=           0 NTot=          32
 NSgBfM=  1500  1500  1500  1500  1500 MxSgAt=   158 MxSgA2=   158.
 Leave Link  302 at Wed Sep  8 21:25:12 2021, MaxMem= 23488102400 cpu:             135.8 elap:               5.7
 (Enter /sw/apps/gaussian-16.0/g16/l303.exe)
 DipDrv:  MaxL=1.
 Leave Link  303 at Wed Sep  8 21:25:13 2021, MaxMem= 23488102400 cpu:               9.7 elap:               0.5
 (Enter /sw/apps/gaussian-16.0/g16/l308.exe)
 Leave Link  308 at Wed Sep  8 21:25:13 2021, MaxMem= 23488102400 cpu:              15.6 elap:               0.7
 (Enter /sw/apps/gaussian-16.0/g16/l401.exe)
 ExpMin= 3.36D-02 ExpMax= 4.95D+03 ExpMxC= 7.45D+02 IAcc=3 IRadAn=         5 AccDes= 0.00D+00
 Harris functional with IExCor=20419 and IRadAn=       5 diagonalized for initial guess.
 HarFok:  IExCor=20419 AccDes= 0.00D+00 IRadAn=         5 IDoV= 1 UseB2=F ITyADJ=14
 ICtDFT=  3500011 ScaDFX=  1.000000  1.000000  1.000000  1.000000
 FoFCou: FMM=F IPFlag=           0 FMFlag=      100000 FMFlg1=        2001
         NFxFlg=           0 DoJE=T BraDBF=F KetDBF=T FulRan=T
         wScrn=  0.000000 ICntrl=       500 IOpCl=  0 I1Cent=   200000004 NGrid=           0
         NMat0=    1 NMatS0=      1 NMatT0=    0 NMatD0=    1 NMtDS0=    0 NMtDT0=    0
 Petite list used in FoFCou.
 Harris En= -3918.65839606241    
 JPrj=0 DoOrth=F DoCkMO=F.
 Leave Link  401 at Wed Sep  8 21:25:23 2021, MaxMem= 23488102400 cpu:             218.0 elap:               9.1
 (Enter /sw/apps/gaussian-16.0/g16/l502.exe)
 Integral symmetry usage will be decided dynamically.
 Closed shell SCF:
 Using DIIS extrapolation, IDIIS=  1040.
 NGot= 23488102400 LenX= 23482547354 LenY= 23479796732
 Requested convergence on RMS density matrix=1.00D-08 within 128 cycles.
 Requested convergence on MAX density matrix=1.00D-06.
 Requested convergence on             energy=1.00D-06.
 No special actions if energy rises.
 Fock matrices will be formed incrementally for  20 cycles.

 Cycle   1  Pass 1  IDiag  1:
 FoFJK:  IHMeth= 1 ICntrl=       0 DoSepK=T KAlg= 0 I1Cent=           0 FoldK=F
 IRaf=         1 NMat=       1 IRICut=       1 DoRegI=T DoRafI=F ISym2E= 0 IDoP0=0 IntGTp=1.
 FoFCou: FMM=T IPFlag=           0 FMFlag=      100000 FMFlg1=        2001
         NFxFlg=           0 DoJE=T BraDBF=F KetDBF=F FulRan=T
         wScrn=  0.000000 ICntrl=       500 IOpCl=  0 I1Cent=           0 NGrid=           0
         NMat0=    1 NMatS0=      1 NMatT0=    0 NMatD0=    1 NMtDS0=    0 NMtDT0=    0
 Symmetry not used in FoFCou.
 FMM levels:  10  Number of levels for PrismC:   9
 E= -4068.94620745520    
 DIIS: error= 1.70D-02 at cycle   1 NSaved=   1.
 NSaved= 1 IEnMin= 1 EnMin= -4068.94620745520     IErMin= 1 ErrMin= 1.70D-02
 ErrMax= 1.70D-02  0.00D+00 EMaxC= 1.00D-01 BMatC= 1.69D+00 BMatP= 1.69D+00
 IDIUse=3 WtCom= 8.30D-01 WtEn= 1.70D-01
 Coeff-Com:  0.100D+01
 Coeff-En:   0.100D+01
 Coeff:      0.100D+01
 Gap=     0.118 Goal=   None    Shift=    0.000
 GapD=    0.118 DampG=1.000 DampE=0.500 DampFc=0.5000 IDamp=-1.
 Damping current iteration by 5.00D-01
 RMSDP=1.59D-03 MaxDP=1.41D-01              OVMax= 1.91D-01

 Cycle   2  Pass 1  IDiag  1:
 RMSU=  7.79D-04    CP:  9.81D-01
 E= -4069.33954161477     Delta-E=       -0.393334159573 Rises=F Damp=T
 DIIS: error= 9.35D-03 at cycle   2 NSaved=   2.
 NSaved= 2 IEnMin= 2 EnMin= -4069.33954161477     IErMin= 2 ErrMin= 9.35D-03
 ErrMax= 9.35D-03  0.00D+00 EMaxC= 1.00D-01 BMatC= 3.06D-01 BMatP= 1.69D+00
 IDIUse=3 WtCom= 9.07D-01 WtEn= 9.35D-02
 Coeff-Com: -0.218D+00 0.122D+01
 Coeff-En:   0.000D+00 0.100D+01
 Coeff:     -0.198D+00 0.120D+01
 Gap=     0.130 Goal=   None    Shift=    0.000
 RMSDP=7.68D-04 MaxDP=9.14D-02 DE=-3.93D-01 OVMax= 1.91D-01

 Cycle   3  Pass 1  IDiag  1:
 RMSU=  7.28D-04    CP:  9.67D-01  1.27D+00
 E= -4069.63059566141     Delta-E=       -0.291054046633 Rises=F Damp=F
 DIIS: error= 1.39D-02 at cycle   3 NSaved=   3.
 NSaved= 3 IEnMin= 3 EnMin= -4069.63059566141     IErMin= 2 ErrMin= 9.35D-03
 ErrMax= 1.39D-02  0.00D+00 EMaxC= 1.00D-01 BMatC= 2.03D-01 BMatP= 3.06D-01
 IDIUse=3 WtCom= 8.61D-01 WtEn= 1.39D-01
 Coeff-Com: -0.270D+00 0.657D+00 0.614D+00
 Coeff-En:   0.000D+00 0.000D+00 0.100D+01
 Coeff:     -0.233D+00 0.565D+00 0.667D+00
 Gap=     0.115 Goal=   None    Shift=    0.000
 RMSDP=4.89D-04 MaxDP=4.91D-02 DE=-2.91D-01 OVMax= 1.10D-01

 Cycle   4  Pass 1  IDiag  1:
 RMSU=  2.61D-04    CP:  9.63D-01  1.55D+00  5.20D-01
 E= -4069.77165771350     Delta-E=       -0.141062052095 Rises=F Damp=F
 DIIS: error= 6.21D-03 at cycle   4 NSaved=   4.
 NSaved= 4 IEnMin= 4 EnMin= -4069.77165771350     IErMin= 4 ErrMin= 6.21D-03
 ErrMax= 6.21D-03  0.00D+00 EMaxC= 1.00D-01 BMatC= 4.52D-02 BMatP= 2.03D-01
 IDIUse=3 WtCom= 9.38D-01 WtEn= 6.21D-02
 Coeff-Com: -0.113D+00 0.234D+00 0.400D+00 0.479D+00
 Coeff-En:   0.000D+00 0.000D+00 0.193D+00 0.807D+00
 Coeff:     -0.106D+00 0.220D+00 0.387D+00 0.499D+00
 Gap=     0.116 Goal=   None    Shift=    0.000
 RMSDP=1.86D-04 MaxDP=2.13D-02 DE=-1.41D-01 OVMax= 4.26D-02

 Cycle   5  Pass 1  IDiag  1:
 RMSU=  7.55D-05    CP:  9.63D-01  1.51D+00  6.87D-01  5.62D-01
 E= -4069.81105451533     Delta-E=       -0.039396801832 Rises=F Damp=F
 DIIS: error= 8.38D-04 at cycle   5 NSaved=   5.
 NSaved= 5 IEnMin= 5 EnMin= -4069.81105451533     IErMin= 5 ErrMin= 8.38D-04
 ErrMax= 8.38D-04  0.00D+00 EMaxC= 1.00D-01 BMatC= 1.13D-03 BMatP= 4.52D-02
 IDIUse=3 WtCom= 9.92D-01 WtEn= 8.38D-03
 Coeff-Com: -0.382D-01 0.751D-01 0.162D+00 0.252D+00 0.550D+00
 Coeff-En:   0.000D+00 0.000D+00 0.000D+00 0.000D+00 0.100D+01
 Coeff:     -0.379D-01 0.744D-01 0.161D+00 0.249D+00 0.553D+00
 Gap=     0.115 Goal=   None    Shift=    0.000
 RMSDP=3.89D-05 MaxDP=4.18D-03 DE=-3.94D-02 OVMax= 1.00D-02

 Cycle   6  Pass 1  IDiag  1:
 RMSU=  2.92D-05    CP:  9.63D-01  1.51D+00  6.82D-01  6.29D-01  7.61D-01
 E= -4069.81197281873     Delta-E=       -0.000918303402 Rises=F Damp=F
 DIIS: error= 2.69D-04 at cycle   6 NSaved=   6.
 NSaved= 6 IEnMin= 6 EnMin= -4069.81197281873     IErMin= 6 ErrMin= 2.69D-04
 ErrMax= 2.69D-04  0.00D+00 EMaxC= 1.00D-01 BMatC= 1.54D-04 BMatP= 1.13D-03
 IDIUse=3 WtCom= 9.97D-01 WtEn= 2.69D-03
 Coeff-Com:  0.159D-02-0.529D-02 0.112D-01 0.399D-01 0.296D+00 0.657D+00
 Coeff-En:   0.000D+00 0.000D+00 0.000D+00 0.000D+00 0.794D-01 0.921D+00
 Coeff:      0.158D-02-0.527D-02 0.111D-01 0.398D-01 0.295D+00 0.657D+00
 Gap=     0.115 Goal=   None    Shift=    0.000
 RMSDP=1.45D-05 MaxDP=1.07D-03 DE=-9.18D-04 OVMax= 5.29D-03

 Cycle   7  Pass 1  IDiag  1:
 RMSU=  1.03D-05    CP:  9.62D-01  1.52D+00  6.87D-01  6.31D-01  8.48D-01
                    CP:  7.76D-01
 E= -4069.81212859542     Delta-E=       -0.000155776685 Rises=F Damp=F
 DIIS: error= 6.71D-05 at cycle   7 NSaved=   7.
 NSaved= 7 IEnMin= 7 EnMin= -4069.81212859542     IErMin= 7 ErrMin= 6.71D-05
 ErrMax= 6.71D-05  0.00D+00 EMaxC= 1.00D-01 BMatC= 1.85D-05 BMatP= 1.54D-04
 IDIUse=1 WtCom= 1.00D+00 WtEn= 0.00D+00
 Coeff-Com:  0.424D-02-0.931D-02-0.837D-02-0.378D-02 0.937D-01 0.330D+00
 Coeff-Com:  0.594D+00
 Coeff:      0.424D-02-0.931D-02-0.837D-02-0.378D-02 0.937D-01 0.330D+00
 Coeff:      0.594D+00
 Gap=     0.116 Goal=   None    Shift=    0.000
 RMSDP=6.27D-06 MaxDP=1.02D-03 DE=-1.56D-04 OVMax= 2.53D-03

 Cycle   8  Pass 1  IDiag  1:
 RMSU=  4.55D-06    CP:  9.62D-01  1.52D+00  6.87D-01  6.35D-01  8.57D-01
                    CP:  8.97D-01  8.10D-01
 E= -4069.81215064982     Delta-E=       -0.000022054403 Rises=F Damp=F
 DIIS: error= 4.19D-05 at cycle   8 NSaved=   8.
 NSaved= 8 IEnMin= 8 EnMin= -4069.81215064982     IErMin= 8 ErrMin= 4.19D-05
 ErrMax= 4.19D-05  0.00D+00 EMaxC= 1.00D-01 BMatC= 4.38D-06 BMatP= 1.85D-05
 IDIUse=1 WtCom= 1.00D+00 WtEn= 0.00D+00
 Coeff-Com:  0.225D-02-0.447D-02-0.760D-02-0.122D-01-0.134D-01 0.400D-01
 Coeff-Com:  0.351D+00 0.645D+00
 Coeff:      0.225D-02-0.447D-02-0.760D-02-0.122D-01-0.134D-01 0.400D-01
 Coeff:      0.351D+00 0.645D+00
 Gap=     0.116 Goal=   None    Shift=    0.000
 RMSDP=3.15D-06 MaxDP=3.32D-04 DE=-2.21D-05 OVMax= 1.25D-03

 Cycle   9  Pass 1  IDiag  1:
 RMSU=  1.84D-06    CP:  9.62D-01  1.52D+00  6.88D-01  6.37D-01  8.71D-01
                    CP:  9.22D-01  1.01D+00  9.00D-01
 E= -4069.81215732621     Delta-E=       -0.000006676393 Rises=F Damp=F
 DIIS: error= 2.09D-05 at cycle   9 NSaved=   9.
 NSaved= 9 IEnMin= 9 EnMin= -4069.81215732621     IErMin= 9 ErrMin= 2.09D-05
 ErrMax= 2.09D-05  0.00D+00 EMaxC= 1.00D-01 BMatC= 6.32D-07 BMatP= 4.38D-06
 IDIUse=1 WtCom= 1.00D+00 WtEn= 0.00D+00
 Coeff-Com:  0.568D-03-0.987D-03-0.278D-02-0.616D-02-0.219D-01-0.334D-01
 Coeff-Com:  0.108D+00 0.333D+00 0.623D+00
 Coeff:      0.568D-03-0.987D-03-0.278D-02-0.616D-02-0.219D-01-0.334D-01
 Coeff:      0.108D+00 0.333D+00 0.623D+00
 Gap=     0.116 Goal=   None    Shift=    0.000
 RMSDP=1.31D-06 MaxDP=1.76D-04 DE=-6.68D-06 OVMax= 6.37D-04

 Cycle  10  Pass 1  IDiag  1:
 RMSU=  8.76D-07    CP:  9.62D-01  1.52D+00  6.88D-01  6.37D-01  8.74D-01
                    CP:  9.37D-01  1.05D+00  1.06D+00  9.98D-01
 E= -4069.81215864827     Delta-E=       -0.000001322056 Rises=F Damp=F
 DIIS: error= 1.03D-05 at cycle  10 NSaved=  10.
 NSaved=10 IEnMin=10 EnMin= -4069.81215864827     IErMin=10 ErrMin= 1.03D-05
 ErrMax= 1.03D-05  0.00D+00 EMaxC= 1.00D-01 BMatC= 1.41D-07 BMatP= 6.32D-07
 IDIUse=1 WtCom= 1.00D+00 WtEn= 0.00D+00
 Coeff-Com: -0.353D-03 0.752D-03 0.896D-03 0.690D-03-0.465D-02-0.282D-01
 Coeff-Com: -0.387D-01-0.473D-01 0.265D+00 0.852D+00
 Coeff:     -0.353D-03 0.752D-03 0.896D-03 0.690D-03-0.465D-02-0.282D-01
 Coeff:     -0.387D-01-0.473D-01 0.265D+00 0.852D+00
 Gap=     0.116 Goal=   None    Shift=    0.000
 RMSDP=1.02D-06 MaxDP=1.04D-04 DE=-1.32D-06 OVMax= 5.15D-04

 Cycle  11  Pass 1  IDiag  1:
 RMSU=  4.84D-07    CP:  9.62D-01  1.52D+00  6.88D-01  6.38D-01  8.76D-01
                    CP:  9.47D-01  1.09D+00  1.15D+00  1.28D+00  1.32D+00
 E= -4069.81215921345     Delta-E=       -0.000000565178 Rises=F Damp=F
 DIIS: error= 3.36D-06 at cycle  11 NSaved=  11.
 NSaved=11 IEnMin=11 EnMin= -4069.81215921345     IErMin=11 ErrMin= 3.36D-06
 ErrMax= 3.36D-06  0.00D+00 EMaxC= 1.00D-01 BMatC= 4.84D-08 BMatP= 1.41D-07
 IDIUse=1 WtCom= 1.00D+00 WtEn= 0.00D+00
 Coeff-Com: -0.326D-03 0.639D-03 0.120D-02 0.198D-02 0.377D-02-0.806D-02
 Coeff-Com: -0.429D-01-0.122D+00-0.101D-01 0.448D+00 0.728D+00
 Coeff:     -0.326D-03 0.639D-03 0.120D-02 0.198D-02 0.377D-02-0.806D-02
 Coeff:     -0.429D-01-0.122D+00-0.101D-01 0.448D+00 0.728D+00
 Gap=     0.116 Goal=   None    Shift=    0.000
 RMSDP=6.05D-07 MaxDP=5.83D-05 DE=-5.65D-07 OVMax= 3.09D-04

 Cycle  12  Pass 1  IDiag  1:
 RMSU=  2.55D-07    CP:  9.62D-01  1.52D+00  6.88D-01  6.38D-01  8.77D-01
                    CP:  9.49D-01  1.11D+00  1.20D+00  1.42D+00  1.68D+00
                    CP:  1.14D+00
 E= -4069.81215941176     Delta-E=       -0.000000198310 Rises=F Damp=F
 DIIS: error= 1.92D-06 at cycle  12 NSaved=  12.
 NSaved=12 IEnMin=12 EnMin= -4069.81215941176     IErMin=12 ErrMin= 1.92D-06
 ErrMax= 1.92D-06  0.00D+00 EMaxC= 1.00D-01 BMatC= 1.16D-08 BMatP= 4.84D-08
 IDIUse=1 WtCom= 1.00D+00 WtEn= 0.00D+00
 Coeff-Com: -0.367D-04 0.582D-04 0.262D-03 0.629D-03 0.291D-02 0.276D-02
 Coeff-Com: -0.218D-02-0.420D-01-0.567D-01-0.365D-01 0.279D+00 0.852D+00
 Coeff:     -0.367D-04 0.582D-04 0.262D-03 0.629D-03 0.291D-02 0.276D-02
 Coeff:     -0.218D-02-0.420D-01-0.567D-01-0.365D-01 0.279D+00 0.852D+00
 Gap=     0.116 Goal=   None    Shift=    0.000
 RMSDP=3.58D-07 MaxDP=2.14D-05 DE=-1.98D-07 OVMax= 2.34D-04

 Cycle  13  Pass 1  IDiag  1:
 RMSU=  1.61D-07    CP:  9.62D-01  1.52D+00  6.88D-01  6.38D-01  8.77D-01
                    CP:  9.49D-01  1.12D+00  1.23D+00  1.51D+00  1.87D+00
                    CP:  1.50D+00  1.20D+00
 E= -4069.81215947789     Delta-E=       -0.000000066135 Rises=F Damp=F
 DIIS: error= 1.10D-06 at cycle  13 NSaved=  13.
 NSaved=13 IEnMin=13 EnMin= -4069.81215947789     IErMin=13 ErrMin= 1.10D-06
 ErrMax= 1.10D-06  0.00D+00 EMaxC= 1.00D-01 BMatC= 7.25D-09 BMatP= 1.16D-08
 IDIUse=1 WtCom= 1.00D+00 WtEn= 0.00D+00
 Coeff-Com:  0.107D-03-0.220D-03-0.306D-03-0.371D-03 0.487D-03 0.469D-02
 Coeff-Com:  0.179D-01 0.174D-01-0.322D-01-0.227D+00-0.147D+00 0.595D+00
 Coeff-Com:  0.771D+00
 Coeff:      0.107D-03-0.220D-03-0.306D-03-0.371D-03 0.487D-03 0.469D-02
 Coeff:      0.179D-01 0.174D-01-0.322D-01-0.227D+00-0.147D+00 0.595D+00
 Coeff:      0.771D+00
 Gap=     0.116 Goal=   None    Shift=    0.000
 RMSDP=2.97D-07 MaxDP=1.70D-05 DE=-6.61D-08 OVMax= 1.60D-04

 Cycle  14  Pass 1  IDiag  1:
 RMSU=  7.94D-08    CP:  9.62D-01  1.52D+00  6.88D-01  6.38D-01  8.77D-01
                    CP:  9.50D-01  1.12D+00  1.24D+00  1.57D+00  2.05D+00
                    CP:  1.74D+00  1.73D+00  1.07D+00
 E= -4069.81215950833     Delta-E=       -0.000000030439 Rises=F Damp=F
 DIIS: error= 7.56D-07 at cycle  14 NSaved=  14.
 NSaved=14 IEnMin=14 EnMin= -4069.81215950833     IErMin=14 ErrMin= 7.56D-07
 ErrMax= 7.56D-07  0.00D+00 EMaxC= 1.00D-01 BMatC= 1.22D-09 BMatP= 7.25D-09
 IDIUse=1 WtCom= 1.00D+00 WtEn= 0.00D+00
 Coeff-Com:  0.751D-04-0.149D-03-0.256D-03-0.404D-03-0.529D-03 0.164D-02
 Coeff-Com:  0.120D-01 0.202D-01 0.122D-02-0.115D+00-0.162D+00 0.123D+00
 Coeff-Com:  0.419D+00 0.700D+00
 Coeff:      0.751D-04-0.149D-03-0.256D-03-0.404D-03-0.529D-03 0.164D-02
 Coeff:      0.120D-01 0.202D-01 0.122D-02-0.115D+00-0.162D+00 0.123D+00
 Coeff:      0.419D+00 0.700D+00
 Gap=     0.116 Goal=   None    Shift=    0.000
 RMSDP=1.10D-07 MaxDP=6.49D-06 DE=-3.04D-08 OVMax= 7.63D-05

 Cycle  15  Pass 1  IDiag  1:
 RMSU=  3.97D-08    CP:  9.62D-01  1.52D+00  6.88D-01  6.38D-01  8.77D-01
                    CP:  9.49D-01  1.13D+00  1.25D+00  1.59D+00  2.11D+00
                    CP:  1.86D+00  1.89D+00  1.34D+00  9.71D-01
 E= -4069.81215951311     Delta-E=       -0.000000004780 Rises=F Damp=F
 DIIS: error= 3.99D-07 at cycle  15 NSaved=  15.
 NSaved=15 IEnMin=15 EnMin= -4069.81215951311     IErMin=15 ErrMin= 3.99D-07
 ErrMax= 3.99D-07  0.00D+00 EMaxC= 1.00D-01 BMatC= 2.99D-10 BMatP= 1.22D-09
 IDIUse=1 WtCom= 1.00D+00 WtEn= 0.00D+00
 Coeff-Com:  0.169D-04-0.317D-04-0.683D-04-0.136D-03-0.377D-03-0.221D-03
 Coeff-Com:  0.281D-02 0.578D-02 0.845D-02-0.113D-01-0.532D-01-0.567D-01
 Coeff-Com:  0.436D-01 0.367D+00 0.695D+00
 Coeff:      0.169D-04-0.317D-04-0.683D-04-0.136D-03-0.377D-03-0.221D-03
 Coeff:      0.281D-02 0.578D-02 0.845D-02-0.113D-01-0.532D-01-0.567D-01
 Coeff:      0.436D-01 0.367D+00 0.695D+00
 Gap=     0.116 Goal=   None    Shift=    0.000
 RMSDP=4.33D-08 MaxDP=3.05D-06 DE=-4.78D-09 OVMax= 2.34D-05

 Cycle  16  Pass 1  IDiag  1:
 RMSU=  1.97D-08    CP:  9.62D-01  1.52D+00  6.88D-01  6.38D-01  8.77D-01
                    CP:  9.49D-01  1.13D+00  1.25D+00  1.60D+00  2.12D+00
                    CP:  1.89D+00  1.96D+00  1.42D+00  1.20D+00  1.09D+00
 E= -4069.81215951404     Delta-E=       -0.000000000931 Rises=F Damp=F
 DIIS: error= 1.45D-07 at cycle  16 NSaved=  16.
 NSaved=16 IEnMin=16 EnMin= -4069.81215951404     IErMin=16 ErrMin= 1.45D-07
 ErrMax= 1.45D-07  0.00D+00 EMaxC= 1.00D-01 BMatC= 7.62D-11 BMatP= 2.99D-10
 IDIUse=1 WtCom= 1.00D+00 WtEn= 0.00D+00
 Coeff-Com: -0.126D-04 0.256D-04 0.386D-04 0.432D-04-0.388D-04-0.587D-03
 Coeff-Com: -0.173D-02-0.356D-02 0.444D-02 0.248D-01 0.171D-01-0.602D-01
 Coeff-Com: -0.964D-01-0.698D-03 0.345D+00 0.771D+00
 Coeff:     -0.126D-04 0.256D-04 0.386D-04 0.432D-04-0.388D-04-0.587D-03
 Coeff:     -0.173D-02-0.356D-02 0.444D-02 0.248D-01 0.171D-01-0.602D-01
 Coeff:     -0.964D-01-0.698D-03 0.345D+00 0.771D+00
 Gap=     0.116 Goal=   None    Shift=    0.000
 RMSDP=2.50D-08 MaxDP=1.75D-06 DE=-9.31D-10 OVMax= 1.93D-05

 Cycle  17  Pass 1  IDiag  1:
 RMSU=  1.16D-08    CP:  9.62D-01  1.52D+00  6.88D-01  6.38D-01  8.77D-01
                    CP:  9.49D-01  1.13D+00  1.25D+00  1.60D+00  2.13D+00
                    CP:  1.90D+00  1.99D+00  1.47D+00  1.29D+00  1.38D+00
                    CP:  1.18D+00
 E= -4069.81215951414     Delta-E=       -0.000000000095 Rises=F Damp=F
 DIIS: error= 8.46D-08 at cycle  17 NSaved=  17.
 NSaved=17 IEnMin=17 EnMin= -4069.81215951414     IErMin=17 ErrMin= 8.46D-08
 ErrMax= 8.46D-08  0.00D+00 EMaxC= 1.00D-01 BMatC= 2.19D-11 BMatP= 7.62D-11
 IDIUse=1 WtCom= 1.00D+00 WtEn= 0.00D+00
 Coeff-Com: -0.100D-04 0.198D-04 0.356D-04 0.525D-04 0.767D-04-0.229D-03
 Coeff-Com: -0.139D-02-0.346D-02 0.751D-03 0.146D-01 0.215D-01-0.141D-01
 Coeff-Com: -0.576D-01-0.895D-01-0.199D-01 0.367D+00 0.782D+00
 Coeff:     -0.100D-04 0.198D-04 0.356D-04 0.525D-04 0.767D-04-0.229D-03
 Coeff:     -0.139D-02-0.346D-02 0.751D-03 0.146D-01 0.215D-01-0.141D-01
 Coeff:     -0.576D-01-0.895D-01-0.199D-01 0.367D+00 0.782D+00
 Gap=     0.116 Goal=   None    Shift=    0.000
 RMSDP=1.40D-08 MaxDP=8.81D-07 DE=-9.46D-11 OVMax= 8.09D-06

 Cycle  18  Pass 1  IDiag  1:
 RMSU=  5.78D-09    CP:  9.62D-01  1.52D+00  6.88D-01  6.38D-01  8.77D-01
                    CP:  9.49D-01  1.13D+00  1.25D+00  1.60D+00  2.13D+00
                    CP:  1.91D+00  2.00D+00  1.49D+00  1.36D+00  1.54D+00
                    CP:  1.55D+00  1.34D+00
 E= -4069.81215951446     Delta-E=       -0.000000000320 Rises=F Damp=F
 DIIS: error= 7.16D-08 at cycle  18 NSaved=  18.
 NSaved=18 IEnMin=18 EnMin= -4069.81215951446     IErMin=18 ErrMin= 7.16D-08
 ErrMax= 7.16D-08  0.00D+00 EMaxC= 1.00D-01 BMatC= 7.06D-12 BMatP= 2.19D-11
 IDIUse=1 WtCom= 1.00D+00 WtEn= 0.00D+00
 Coeff-Com: -0.947D-06 0.154D-05 0.583D-05 0.125D-04 0.632D-04 0.955D-04
 Coeff-Com: -0.458D-04-0.816D-03-0.847D-03-0.159D-02 0.517D-02 0.148D-01
 Coeff-Com:  0.358D-02-0.441D-01-0.130D+00-0.662D-01 0.385D+00 0.835D+00
 Coeff:     -0.947D-06 0.154D-05 0.583D-05 0.125D-04 0.632D-04 0.955D-04
 Coeff:     -0.458D-04-0.816D-03-0.847D-03-0.159D-02 0.517D-02 0.148D-01
 Coeff:      0.358D-02-0.441D-01-0.130D+00-0.662D-01 0.385D+00 0.835D+00
 Gap=     0.116 Goal=   None    Shift=    0.000
 RMSDP=1.00D-08 MaxDP=7.00D-07 DE=-3.20D-10 OVMax= 7.52D-06

 Cycle  19  Pass 1  IDiag  1:
 RMSU=  3.41D-09    CP:  9.62D-01  1.52D+00  6.88D-01  6.38D-01  8.77D-01
                    CP:  9.49D-01  1.13D+00  1.25D+00  1.60D+00  2.13D+00
                    CP:  1.91D+00  2.01D+00  1.50D+00  1.39D+00  1.66D+00
                    CP:  1.79D+00  1.83D+00  1.12D+00
 E= -4069.81215951475     Delta-E=       -0.000000000291 Rises=F Damp=F
 DIIS: error= 3.54D-08 at cycle  19 NSaved=  19.
 NSaved=19 IEnMin=19 EnMin= -4069.81215951475     IErMin=19 ErrMin= 3.54D-08
 ErrMax= 3.54D-08  0.00D+00 EMaxC= 1.00D-01 BMatC= 3.60D-12 BMatP= 7.06D-12
 IDIUse=1 WtCom= 1.00D+00 WtEn= 0.00D+00
 Coeff-Com:  0.351D-05-0.714D-05-0.109D-04-0.137D-04 0.137D-04 0.158D-03
 Coeff-Com:  0.579D-03 0.865D-03-0.726D-03-0.755D-02-0.589D-02 0.163D-01
 Coeff-Com:  0.274D-01 0.973D-02-0.828D-01-0.218D+00-0.130D+00 0.565D+00
 Coeff-Com:  0.825D+00
 Coeff:      0.351D-05-0.714D-05-0.109D-04-0.137D-04 0.137D-04 0.158D-03
 Coeff:      0.579D-03 0.865D-03-0.726D-03-0.755D-02-0.589D-02 0.163D-01
 Coeff:      0.274D-01 0.973D-02-0.828D-01-0.218D+00-0.130D+00 0.565D+00
 Coeff:      0.825D+00
 Gap=     0.116 Goal=   None    Shift=    0.000
 RMSDP=8.34D-09 MaxDP=4.95D-07 DE=-2.91D-10 OVMax= 5.04D-06

 SCF Done:  E(RCAM-B3LYP) =  -4069.81215951     A.U. after   19 cycles
            NFock= 19  Conv=0.83D-08     -V/T= 2.0102
 KE= 4.028813831781D+03 PE=-4.221005499049D+04 EE= 1.774786153764D+04
 Leave Link  502 at Wed Sep  8 21:39:58 2021, MaxMem= 23488102400 cpu:           20326.5 elap:             875.1
 (Enter /sw/apps/gaussian-16.0/g16/l801.exe)
 DoSCS=F DFT=T ScalE2(SS,OS)=  1.000000  1.000000
 ExpMin= 3.36D-02 ExpMax= 4.95D+03 ExpMxC= 7.45D+02 IAcc=3 IRadAn=         5 AccDes= 0.00D+00
 HarFok:  IExCor=  205 AccDes= 0.00D+00 IRadAn=         5 IDoV=-2 UseB2=F ITyADJ=14
 ICtDFT= 12500011 ScaDFX=  1.000000  1.000000  1.000000  1.000000
 GSVD:  LWork=       -9588 too small for GESVD, short by       45590 words or       45590 for optimal perf.
 Largest valence mixing into a core orbital is  2.03D-04
 Largest core mixing into a valence orbital is  5.23D-05
 Range of M.O.s used for correlation:    95  1572
 NBasis=  1572 NAE=   312 NBE=   312 NFC=    94 NFV=     0
 NROrb=   1478 NOA=   218 NOB=   218 NVA=  1260 NVB=  1260
 Leave Link  801 at Wed Sep  8 21:39:58 2021, MaxMem= 23488102400 cpu:               9.1 elap:               0.4
 (Enter /sw/apps/gaussian-16.0/g16/l914.exe)
 RHF ground state
 Two-electron integrals replicated using symmetry.
 MDV= 23488102400 DFT=T DoStab=F Mixed=T DoRPA=T DoScal=F NonHer=T
 Making orbital integer symmetry assigments:
 Orbital symmetries:
       Occupied  (A) (A) (A) (A) (A) (A) (A) (A) (A) (A) (A) (A)
                 (A) (A) (A) (A) (A) (A) (A) (A) (A) (A) (A) (A)
                 (A) (A) (A) (A) (A) (A) (A) (A) (A) (A) (A) (A)
                 (A) (A) (A) (A) (A) (A) (A) (A) (A) (A) (A) (A)
                 (A) (A) (A) (A) (A) (A) (A) (A) (A) (A) (A) (A)
                 (A) (A) (A) (A) (A) (A) (A) (A) (A) (A) (A) (A)
                 (A) (A) (A) (A) (A) (A) (A) (A) (A) (A) (A) (A)
                 (A) (A) (A) (A) (A) (A) (A) (A) (A) (A) (A) (A)
                 (A) (A) (A) (A) (A) (A) (A) (A) (A) (A) (A) (A)
                 (A) (A) (A) (A) (A) (A) (A) (A) (A) (A) (A) (A)
                 (A) (A) (A) (A) (A) (A) (A) (A) (A) (A) (A) (A)
                 (A) (A) (A) (A) (A) (A) (A) (A) (A) (A) (A) (A)
                 (A) (A) (A) (A) (A) (A) (A) (A) (A) (A) (A) (A)
                 (A) (A) (A) (A) (A) (A) (A) (A) (A) (A) (A) (A)
                 (A) (A) (A) (A) (A) (A) (A) (A) (A) (A) (A) (A)
                 (A) (A) (A) (A) (A) (A) (A) (A) (A) (A) (A) (A)
                 (A) (A) (A) (A) (A) (A) (A) (A) (A) (A) (A) (A)
                 (A) (A) (A) (A) (A) (A) (A) (A) (A) (A) (A) (A)
                 (A) (A) (A) (A) (A) (A) (A) (A) (A) (A) (A) (A)
                 (A) (A) (A) (A) (A) (A) (A) (A) (A) (A) (A) (A)
                 (A) (A) (A) (A) (A) (A) (A) (A) (A) (A) (A) (A)
                 (A) (A) (A) (A) (A) (A) (A) (A) (A) (A) (A) (A)
                 (A) (A) (A) (A) (A) (A) (A) (A) (A) (A) (A) (A)
                 (A) (A) (A) (A) (A) (A) (A) (A) (A) (A) (A) (A)
                 (A) (A) (A) (A) (A) (A) (A) (A) (A) (A) (A) (A)
                 (A) (A) (A) (A) (A) (A) (A) (A) (A) (A) (A) (A)
       Virtual   (A) (A) (A) (A) (A) (A) (A) (A) (A) (A) (A) (A)
                 (A) (A) (A) (A) (A) (A) (A) (A) (A) (A) (A) (A)
                 (A) (A) (A) (A) (A) (A) (A) (A) (A) (A) (A) (A)
                 (A) (A) (A) (A) (A) (A) (A) (A) (A) (A) (A) (A)
                 (A) (A) (A) (A) (A) (A) (A) (A) (A) (A) (A) (A)
                 (A) (A) (A) (A) (A) (A) (A) (A) (A) (A) (A) (A)
                 (A) (A) (A) (A) (A) (A) (A) (A) (A) (A) (A) (A)
                 (A) (A) (A) (A) (A) (A) (A) (A) (A) (A) (A) (A)
                 (A) (A) (A) (A) (A) (A) (A) (A) (A) (A) (A) (A)
                 (A) (A) (A) (A) (A) (A) (A) (A) (A) (A) (A) (A)
                 (A) (A) (A) (A) (A) (A) (A) (A) (A) (A) (A) (A)
                 (A) (A) (A) (A) (A) (A) (A) (A) (A) (A) (A) (A)
                 (A) (A) (A) (A) (A) (A) (A) (A) (A) (A) (A) (A)
                 (A) (A) (A) (A) (A) (A) (A) (A) (A) (A) (A) (A)
                 (A) (A) (A) (A) (A) (A) (A) (A) (A) (A) (A) (A)
                 (A) (A) (A) (A) (A) (A) (A) (A) (A) (A) (A) (A)
                 (A) (A) (A) (A) (A) (A) (A) (A) (A) (A) (A) (A)
                 (A) (A) (A) (A) (A) (A) (A) (A) (A) (A) (A) (A)
                 (A) (A) (A) (A) (A) (A) (A) (A) (A) (A) (A) (A)
                 (A) (A) (A) (A) (A) (A) (A) (A) (A) (A) (A) (A)
                 (A) (A) (A) (A) (A) (A) (A) (A) (A) (A) (A) (A)
                 (A) (A) (A) (A) (A) (A) (A) (A) (A) (A) (A) (A)
                 (A) (A) (A) (A) (A) (A) (A) (A) (A) (A) (A) (A)
                 (A) (A) (A) (A) (A) (A) (A) (A) (A) (A) (A) (A)
                 (A) (A) (A) (A) (A) (A) (A) (A) (A) (A) (A) (A)
                 (A) (A) (A) (A) (A) (A) (A) (A) (A) (A) (A) (A)
                 (A) (A) (A) (A) (A) (A) (A) (A) (A) (A) (A) (A)
                 (A) (A) (A) (A) (A) (A) (A) (A) (A) (A) (A) (A)
                 (A) (A) (A) (A) (A) (A) (A) (A) (A) (A) (A) (A)
                 (A) (A) (A) (A) (A) (A) (A) (A) (A) (A) (A) (A)
                 (A) (A) (A) (A) (A) (A) (A) (A) (A) (A) (A) (A)
                 (A) (A) (A) (A) (A) (A) (A) (A) (A) (A) (A) (A)
                 (A) (A) (A) (A) (A) (A) (A) (A) (A) (A) (A) (A)
                 (A) (A) (A) (A) (A) (A) (A) (A) (A) (A) (A) (A)
                 (A) (A) (A) (A) (A) (A) (A) (A) (A) (A) (A) (A)
                 (A) (A) (A) (A) (A) (A) (A) (A) (A) (A) (A) (A)
                 (A) (A) (A) (A) (A) (A) (A) (A) (A) (A) (A) (A)
                 (A) (A) (A) (A) (A) (A) (A) (A) (A) (A) (A) (A)
                 (A) (A) (A) (A) (A) (A) (A) (A) (A) (A) (A) (A)
                 (A) (A) (A) (A) (A) (A) (A) (A) (A) (A) (A) (A)
                 (A) (A) (A) (A) (A) (A) (A) (A) (A) (A) (A) (A)
                 (A) (A) (A) (A) (A) (A) (A) (A) (A) (A) (A) (A)
                 (A) (A) (A) (A) (A) (A) (A) (A) (A) (A) (A) (A)
                 (A) (A) (A) (A) (A) (A) (A) (A) (A) (A) (A) (A)
                 (A) (A) (A) (A) (A) (A) (A) (A) (A) (A) (A) (A)
                 (A) (A) (A) (A) (A) (A) (A) (A) (A) (A) (A) (A)
                 (A) (A) (A) (A) (A) (A) (A) (A) (A) (A) (A) (A)
                 (A) (A) (A) (A) (A) (A) (A) (A) (A) (A) (A) (A)
                 (A) (A) (A) (A) (A) (A) (A) (A) (A) (A) (A) (A)
                 (A) (A) (A) (A) (A) (A) (A) (A) (A) (A) (A) (A)
                 (A) (A) (A) (A) (A) (A) (A) (A) (A) (A) (A) (A)
                 (A) (A) (A) (A) (A) (A) (A) (A) (A) (A) (A) (A)
                 (A) (A) (A) (A) (A) (A) (A) (A) (A) (A) (A) (A)
                 (A) (A) (A) (A) (A) (A) (A) (A) (A) (A) (A) (A)
                 (A) (A) (A) (A) (A) (A) (A) (A) (A) (A) (A) (A)
                 (A) (A) (A) (A) (A) (A) (A) (A) (A) (A) (A) (A)
                 (A) (A) (A) (A) (A) (A) (A) (A) (A) (A) (A) (A)
                 (A) (A) (A) (A) (A) (A) (A) (A) (A) (A) (A) (A)
                 (A) (A) (A) (A) (A) (A) (A) (A) (A) (A) (A) (A)
                 (A) (A) (A) (A) (A) (A) (A) (A) (A) (A) (A) (A)
                 (A) (A) (A) (A) (A) (A) (A) (A) (A) (A) (A) (A)
                 (A) (A) (A) (A) (A) (A) (A) (A) (A) (A) (A) (A)
                 (A) (A) (A) (A) (A) (A) (A) (A) (A) (A) (A) (A)
                 (A) (A) (A) (A) (A) (A) (A) (A) (A) (A) (A) (A)
                 (A) (A) (A) (A) (A) (A) (A) (A) (A) (A) (A) (A)
                 (A) (A) (A) (A) (A) (A) (A) (A) (A) (A) (A) (A)
                 (A) (A) (A) (A) (A) (A) (A) (A) (A) (A) (A) (A)
                 (A) (A) (A) (A) (A) (A) (A) (A) (A) (A) (A) (A)
                 (A) (A) (A) (A) (A) (A) (A) (A) (A) (A) (A) (A)
                 (A) (A) (A) (A) (A) (A) (A) (A) (A) (A) (A) (A)
                 (A) (A) (A) (A) (A) (A) (A) (A) (A) (A) (A) (A)
                 (A) (A) (A) (A) (A) (A) (A) (A) (A) (A) (A) (A)
                 (A) (A) (A) (A) (A) (A) (A) (A) (A) (A) (A) (A)
                 (A) (A) (A) (A) (A) (A) (A) (A) (A) (A) (A) (A)
                 (A) (A) (A) (A) (A) (A) (A) (A) (A) (A) (A) (A)
                 (A) (A) (A) (A) (A) (A) (A) (A) (A) (A) (A) (A)
                 (A) (A) (A) (A) (A) (A) (A) (A) (A) (A) (A) (A)
                 (A) (A) (A) (A) (A) (A) (A) (A) (A) (A) (A) (A)
                 (A) (A) (A) (A) (A) (A) (A) (A) (A) (A) (A) (A)
                 (A) (A) (A) (A) (A) (A) (A) (A) (A) (A) (A) (A)
                 (A) (A) (A) (A) (A) (A) (A) (A) (A) (A) (A) (A)
                 (A) (A) (A) (A) (A) (A) (A) (A) (A) (A) (A) (A)
                 (A) (A) (A) (A) (A) (A) (A) (A) (A) (A) (A) (A)
                 (A) (A) (A) (A) (A) (A) (A) (A) (A) (A) (A) (A)
                 (A) (A) (A) (A) (A) (A) (A) (A) (A) (A) (A) (A)
                 (A) (A) (A) (A) (A) (A) (A) (A) (A) (A) (A) (A)
                 (A) (A) (A) (A) (A) (A) (A) (A) (A) (A) (A) (A)
                 (A) (A) (A) (A) (A) (A) (A) (A) (A) (A) (A) (A)
                 (A) (A) (A) (A) (A) (A) (A) (A) (A) (A) (A) (A)
                 (A) (A) (A) (A) (A) (A) (A) (A) (A) (A) (A) (A)
                 (A) (A) (A) (A) (A) (A) (A) (A) (A) (A) (A) (A)
                 (A) (A) (A) (A) (A) (A) (A) (A) (A) (A) (A) (A)
                 (A) (A) (A) (A) (A) (A) (A) (A) (A) (A) (A) (A)
                 (A) (A) (A) (A) (A) (A) (A) (A) (A) (A) (A) (A)
                 (A) (A) (A) (A) (A) (A) (A) (A) (A) (A) (A) (A)
                 (A) (A) (A) (A) (A) (A) (A) (A) (A) (A) (A) (A)
                 (A) (A) (A) (A) (A) (A) (A) (A) (A) (A) (A) (A)
                 (A) (A) (A) (A) (A) (A) (A) (A) (A) (A) (A) (A)
                 (A) (A) (A) (A) (A) (A) (A) (A) (A) (A) (A) (A)
                 (A) (A) (A) (A) (A) (A) (A) (A) (A) (A) (A) (A)
                 (A) (A) (A) (A) (A) (A) (A) (A) (A) (A) (A) (A)
                 (A) (A) (A) (A) (A) (A) (A) (A) (A) (A) (A) (A)
                 (A) (A) (A) (A) (A) (A) (A) (A) (A) (A) (A) (A)
                 (A) (A) (A) (A) (A) (A) (A) (A) (A) (A) (A) (A)
                 (A) (A) (A) (A) (A) (A) (A) (A) (A) (A) (A) (A)
    20 initial guesses have been made.
 Convergence on wavefunction:    0.001000000000000
 Davidson Disk Diagonalization:  ConvIn= 1.00D-03 SkipCon=T Conv= 1.00D-03.
 Max sub-space:  2000 roots to seek:    20 dimension of matrix:       549360
 Iteration     1 Dimension    20 NMult     0 NNew     20
 CISAX will form    20 AO SS matrices at one time.
 NMat=    20 NSing=    20 JSym2X= 0.
 FoFJK:  IHMeth= 1 ICntrl=       0 DoSepK=T KAlg= 0 I1Cent=           0 FoldK=F
 IRaf=         1 NMat=      40 IRICut=       1 DoRegI=T DoRafI=F ISym2E= 0 IDoP0=3 IntGTp=3.
 FoFCou: FMM=T IPFlag=           0 FMFlag=      100000 FMFlg1=        2001
         NFxFlg=           0 DoJE=F BraDBF=F KetDBF=F FulRan=T
         wScrn=  0.000000 ICntrl=       500 IOpCl=  0 I1Cent=           0 NGrid=           0
         NMat0=   20 NMatS0=     20 NMatT0=    0 NMatD0=   20 NMtDS0=    0 NMtDT0=    0
 Symmetry not used in FoFCou.
 FMM levels:  10  Number of levels for PrismC:   9
 New state      2 was old state      4
 New state      3 was old state      2
 New state      4 was old state      6
 New state      5 was old state      7
 Excitation Energies [eV] at current iteration:
 Root      1 :     2.086730415749997
 Root      2 :     2.489169455604809
 Root      3 :     2.594951198367002
 Root      4 :     2.611362238156757
 Root      5 :     2.643484690554117
 Root      6 :     2.773271519402078
 Root      7 :     2.890869582506846
 Root      8 :     3.298372665742356
 Root      9 :     3.643535640348480
 Root     10 :     3.691298955221169
 Root     11 :     3.737719058783285
 Root     12 :     3.786394530927393
 Root     13 :     4.100316661500266
 Root     14 :     4.207112420535771
 Root     15 :     4.270205838344218
 Root     16 :     4.350334799544474
 Root     17 :     4.372703732752484
 Root     18 :     4.424846085967488
 Root     19 :     4.613453139709145
 Root     20 :     4.705209904573483
 Iteration     2 Dimension    30 NMult    20 NNew     10
 CISAX will form    10 AO SS matrices at one time.
 NMat=    10 NSing=    10 JSym2X= 0.
 New state      1 was old state      3
 Root      1 not converged, maximum delta is    0.224292945945083
 New state      2 was old state      1
 Root      2 not converged, maximum delta is    0.067493541301129
 New state      3 was old state      4
 Root      3 not converged, maximum delta is    0.189231189754192
 New state      4 was old state      5
 Root      4 not converged, maximum delta is    0.161842551806962
 New state      5 was old state      2
 Root      5 not converged, maximum delta is    0.182607728933158
 Excitation Energies [eV] at current iteration:
 Root      1 :     1.740768707970602   Change is   -0.854182490396400
 Root      2 :     2.082849357303201   Change is   -0.003881058446796
 Root      3 :     2.214239066889927   Change is   -0.397123171266830
 Root      4 :     2.249557999733203   Change is   -0.393926690820914
 Root      5 :     2.488774905262646   Change is   -0.000394550342163
 Iteration     3 Dimension    40 NMult    30 NNew     10
 CISAX will form    10 AO SS matrices at one time.
 NMat=    10 NSing=    10 JSym2X= 0.
 Root      1 not converged, maximum delta is    0.052286390532820
 New state      2 was old state      3
 Root      2 not converged, maximum delta is    0.475696876628303
 New state      3 was old state      2
 Root      3 not converged, maximum delta is    0.015770342841844
 No map to state      4
 New state      5 was old state      4
 Root      5 not converged, maximum delta is    0.039623053344534
 Excitation Energies [eV] at current iteration:
 Root      1 :     1.638680369634703   Change is   -0.102088338335899
 Root      2 :     1.841084683562327   Change is   -0.373154383327600
 Root      3 :     2.081341179109170   Change is   -0.001508178194031
 Root      4 :     2.183817558186611
 Root      5 :     2.204643845724239   Change is   -0.044914154008964
 Iteration     4 Dimension    50 NMult    40 NNew     10
 CISAX will form    10 AO SS matrices at one time.
 NMat=    10 NSing=    10 JSym2X= 0.
 Root      1 not converged, maximum delta is    0.012457246888268
 Root      2 not converged, maximum delta is    0.038542590003789
 Root      3 not converged, maximum delta is    0.004871344605788
 Root      4 not converged, maximum delta is    0.018999889802078
 Root      5 not converged, maximum delta is    0.008130507968640
 Excitation Energies [eV] at current iteration:
 Root      1 :     1.621156391275591   Change is   -0.017523978359112
 Root      2 :     1.726255435852964   Change is   -0.114829247709363
 Root      3 :     2.081116925553848   Change is   -0.000224253555322
 Root      4 :     2.173311454186403   Change is   -0.010506104000207
 Root      5 :     2.197045228031466   Change is   -0.007598617692773
 Iteration     5 Dimension    60 NMult    50 NNew     10
 CISAX will form    10 AO SS matrices at one time.
 NMat=    10 NSing=    10 JSym2X= 0.
 Root      1 not converged, maximum delta is    0.001541010449130
 Root      2 not converged, maximum delta is    0.007501767288472
 Root      3 has converged.
 Root      4 not converged, maximum delta is    0.002523786790212
 Root      5 not converged, maximum delta is    0.002330674629617
 Excitation Energies [eV] at current iteration:
 Root      1 :     1.619293499223611   Change is   -0.001862892051980
 Root      2 :     1.709759126746559   Change is   -0.016496309106404
 Root      3 :     2.081084275844416   Change is   -0.000032649709433
 Root      4 :     2.172235133345025   Change is   -0.001076320841378
 Root      5 :     2.196137644603895   Change is   -0.000907583427570
 Iteration     6 Dimension    68 NMult    60 NNew      8
 CISAX will form     8 AO SS matrices at one time.
 NMat=     8 NSing=     8 JSym2X= 0.
 Root      1 not converged, maximum delta is    0.001089813326440
 Root      2 not converged, maximum delta is    0.003312185313861
 Root      3 has converged.
 Root      4 has converged.
 Root      5 has converged.
 Excitation Energies [eV] at current iteration:
 Root      1 :     1.619047722831156   Change is   -0.000245776392455
 Root      2 :     1.708027788730975   Change is   -0.001731338015584
 Root      3 :     2.081081726932422   Change is   -0.000002548911994
 Root      4 :     2.172075395585285   Change is   -0.000159737759740
 Root      5 :     2.196009054424089   Change is   -0.000128590179806
 Iteration     7 Dimension    72 NMult    68 NNew      4
 CISAX will form     4 AO SS matrices at one time.
 NMat=     4 NSing=     4 JSym2X= 0.
 Root      1 has converged.
 Root      2 has converged.
 Root      3 has converged.
 Root      4 has converged.
 Root      5 has converged.
 Excitation Energies [eV] at current iteration:
 Root      1 :     1.619022038975164   Change is   -0.000025683855992
[...]
 Alpha virt. eigenvalues --    1.84292   1.84362   1.84427   1.84929   1.84967
 Alpha virt. eigenvalues --    1.85007   1.85215   1.85248   1.85387   1.85560
 Alpha virt. eigenvalues --    1.85733   1.85803   1.86214   1.86423   1.86514
 Alpha virt. eigenvalues --    1.86609   1.86895   1.87020   1.87143   1.87241
 Alpha virt. eigenvalues --    1.87382   1.87725   1.87777   1.87886   1.87943
 Alpha virt. eigenvalues --    1.88134   1.88187   1.88376   1.88539   1.88722
 Alpha virt. eigenvalues --    1.88799   1.88995   1.89066   1.89307   1.89479
 Alpha virt. eigenvalues --    1.89506   1.89796   1.89863   1.89981   1.90317
 Alpha virt. eigenvalues --    1.90480   1.90779   1.91089   1.91269   1.91322
 Alpha virt. eigenvalues --    1.91735   1.91860   1.91916   1.92132   1.92436
 Alpha virt. eigenvalues --    1.92879   1.93013   1.93216   1.93322   1.93559
 Alpha virt. eigenvalues --    1.93815   1.93869   1.94445   1.94704   1.94852
 Alpha virt. eigenvalues --    1.95104   1.95395   1.95741   1.95975   1.96214
 Alpha virt. eigenvalues --    1.96304   1.96474   1.96557   1.96843   1.96959
 Alpha virt. eigenvalues --    1.97041   1.97293   1.97615   1.98020   1.98137
 Alpha virt. eigenvalues --    1.98184   1.98353   1.98417   1.98731   1.99100
 Alpha virt. eigenvalues --    1.99105   1.99372   1.99584   1.99855   2.00257
 Alpha virt. eigenvalues --    2.00408   2.00940   2.01099   2.01365   2.01777
 Alpha virt. eigenvalues --    2.01867   2.01971   2.02151   2.02333   2.02711
 Alpha virt. eigenvalues --    2.02953   2.03036   2.03195   2.03412   2.03755
 Alpha virt. eigenvalues --    2.03941   2.04292   2.04416   2.04657   2.04704
 Alpha virt. eigenvalues --    2.05113   2.05313   2.05744   2.05782   2.06212
 Alpha virt. eigenvalues --    2.06464   2.06717   2.07128   2.07780   2.08146
 Alpha virt. eigenvalues --    2.08469   2.08714   2.09312   2.09630   2.09809
 Alpha virt. eigenvalues --    2.10293   2.10324   2.11226   2.11360   2.11560
 Alpha virt. eigenvalues --    2.11814   2.11977   2.12148   2.12322   2.12602
 Alpha virt. eigenvalues --    2.12842   2.13057   2.13320   2.13481   2.13513
 Alpha virt. eigenvalues --    2.13766   2.14134   2.14399   2.14763   2.14859
 Alpha virt. eigenvalues --    2.15568   2.15818   2.16081   2.16557   2.16719
 Alpha virt. eigenvalues --    2.16982   2.17340   2.17613   2.17816   2.17946
 Alpha virt. eigenvalues --    2.18044   2.18402   2.18666   2.18816   2.18944
 Alpha virt. eigenvalues --    2.19150   2.19358   2.19444   2.19908   2.20440
 Alpha virt. eigenvalues --    2.20531   2.20660   2.20895   2.21334   2.21475
 Alpha virt. eigenvalues --    2.21910   2.22211   2.22470   2.22701   2.22731
 Alpha virt. eigenvalues --    2.22858   2.23256   2.23753   2.24247   2.24314
 Alpha virt. eigenvalues --    2.24951   2.25163   2.25733   2.26231   2.26638
 Alpha virt. eigenvalues --    2.27075   2.27221   2.27600   2.27979   2.28244
 Alpha virt. eigenvalues --    2.28430   2.29370   2.29639   2.30024   2.30495
 Alpha virt. eigenvalues --    2.30747   2.30964   2.31216   2.31637   2.31964
 Alpha virt. eigenvalues --    2.32062   2.32374   2.32482   2.33326   2.33599
 Alpha virt. eigenvalues --    2.33842   2.34399   2.34640   2.34765   2.35055
 Alpha virt. eigenvalues --    2.35678   2.35974   2.36316   2.36458   2.36779
 Alpha virt. eigenvalues --    2.37223   2.37471   2.37886   2.38157   2.38540
 Alpha virt. eigenvalues --    2.38777   2.38895   2.39366   2.39885   2.40111
 Alpha virt. eigenvalues --    2.40473   2.40670   2.40989   2.41065   2.41441
 Alpha virt. eigenvalues --    2.41502   2.42121   2.42482   2.42500   2.42596
 Alpha virt. eigenvalues --    2.42946   2.43288   2.43641   2.44106   2.44171
 Alpha virt. eigenvalues --    2.44395   2.44938   2.45090   2.45300   2.45760
 Alpha virt. eigenvalues --    2.45879   2.46053   2.46463   2.46537   2.46959
 Alpha virt. eigenvalues --    2.47139   2.47459   2.47624   2.47896   2.48179
 Alpha virt. eigenvalues --    2.48329   2.48845   2.49338   2.49601   2.50199
 Alpha virt. eigenvalues --    2.50374   2.51003   2.51466   2.51695   2.51948
 Alpha virt. eigenvalues --    2.52083   2.52238   2.52634   2.53121   2.53360
 Alpha virt. eigenvalues --    2.53666   2.53773   2.54062   2.54444   2.54788
 Alpha virt. eigenvalues --    2.54789   2.55281   2.55661   2.56013   2.56452
 Alpha virt. eigenvalues --    2.58114   2.58849   2.59004   2.59674   2.60341
 Alpha virt. eigenvalues --    2.60936   2.61234   2.61720   2.61882   2.62386
 Alpha virt. eigenvalues --    2.63172   2.63515   2.63632   2.63877   2.64304
 Alpha virt. eigenvalues --    2.64525   2.64902   2.64953   2.65299   2.65975
 Alpha virt. eigenvalues --    2.66302   2.66716   2.66969   2.67103   2.67660
 Alpha virt. eigenvalues --    2.67729   2.68217   2.68676   2.68914   2.69347
 Alpha virt. eigenvalues --    2.69732   2.69781   2.69956   2.70217   2.70441
 Alpha virt. eigenvalues --    2.70882   2.71370   2.71717   2.72139   2.72827
 Alpha virt. eigenvalues --    2.72951   2.73355   2.73416   2.73514   2.73937
 Alpha virt. eigenvalues --    2.74065   2.74260   2.74718   2.75049   2.75355
 Alpha virt. eigenvalues --    2.75592   2.76330   2.77026   2.77096   2.77450
 Alpha virt. eigenvalues --    2.77653   2.78173   2.78281   2.78351   2.78736
 Alpha virt. eigenvalues --    2.78849   2.79234   2.79604   2.80233   2.80330
 Alpha virt. eigenvalues --    2.80768   2.81126   2.81346   2.81612   2.81954
 Alpha virt. eigenvalues --    2.81978   2.82420   2.82812   2.83139   2.83827
 Alpha virt. eigenvalues --    2.83922   2.84539   2.84755   2.84894   2.85063
 Alpha virt. eigenvalues --    2.85291   2.85652   2.85764   2.86522   2.87010
 Alpha virt. eigenvalues --    2.87402   2.87738   2.88243   2.88350   2.88971
 Alpha virt. eigenvalues --    2.89035   2.89409   2.89590   2.90068   2.90997
 Alpha virt. eigenvalues --    2.91363   2.91797   2.91971   2.93343   2.93889
 Alpha virt. eigenvalues --    2.94251   2.94636   2.95033   2.95255   2.95480
 Alpha virt. eigenvalues --    2.95728   2.96585   2.96669   2.97105   2.97383
 Alpha virt. eigenvalues --    2.97599   2.98058   2.98164   2.98349   2.98735
 Alpha virt. eigenvalues --    2.98888   2.98968   2.99212   2.99246   2.99440
 Alpha virt. eigenvalues --    2.99621   3.00038   3.00132   3.00202   3.00841
 Alpha virt. eigenvalues --    3.01023   3.01067   3.01164   3.01410   3.02227
 Alpha virt. eigenvalues --    3.02255   3.02654   3.02847   3.03054   3.03152
 Alpha virt. eigenvalues --    3.03485   3.03576   3.03846   3.04057   3.04514
 Alpha virt. eigenvalues --    3.04664   3.04907   3.05267   3.05354   3.05933
 Alpha virt. eigenvalues --    3.06022   3.06261   3.06502   3.07037   3.07312
 Alpha virt. eigenvalues --    3.07717   3.08336   3.08976   3.09459   3.09519
 Alpha virt. eigenvalues --    3.10342   3.10543   3.10826   3.11542   3.11614
 Alpha virt. eigenvalues --    3.11950   3.12172   3.12311   3.12608   3.13082
 Alpha virt. eigenvalues --    3.13771   3.13869   3.14142   3.14466   3.14815
 Alpha virt. eigenvalues --    3.15104   3.15756   3.16602   3.16779   3.17757
 Alpha virt. eigenvalues --    3.18007   3.18093   3.18876   3.19187   3.20199
 Alpha virt. eigenvalues --    3.22755   3.23040   3.24320   3.24850   3.25057
 Alpha virt. eigenvalues --    3.25435   3.26781   3.27319   3.27506   3.28518
 Alpha virt. eigenvalues --    3.28957   3.29862   3.31508   3.32387   3.33231
 Alpha virt. eigenvalues --    3.34298   3.40782   3.41287   3.42810   3.43573
 Alpha virt. eigenvalues --    3.48605   3.49419   3.50267   3.50815   3.50913
 Alpha virt. eigenvalues --    3.52334   3.56966   3.57590   3.59377   3.59900
 Alpha virt. eigenvalues --    3.62535   3.63711   3.66106   3.67226   3.67883
 Alpha virt. eigenvalues --    3.67902   3.73978   3.74988   3.76757   3.78317
          Condensed to atoms (all electrons):
 Mulliken charges:
               1
     1  Mg   0.838234
     2  C    0.002215
     3  C   -0.080090
     4  C   -0.047365
     5  C   -0.066182
     6  N   -0.257367
     7  C   -0.044091
     8  C   -0.004699
     9  C   -0.092022
    10  C    0.054043
    11  C    0.105897
    12  C    0.045971
    13  C   -0.083434
    14  H    0.031593
    15  N   -0.435445
    16  C    0.188332
    17  C   -0.159406
    18  C   -0.019933
    19  C    0.130250
    20  C    0.119159
    21  C    0.012292
    22  O   -0.255301
    23  C    0.066183
    24  N   -0.340737
    25  C    0.041980
    26  C   -0.027830
    27  C   -0.022927
    28  C    0.073396
    29  C    0.076999
    30  C    0.044720
    31  C   -0.037215
    32  N   -0.310071
    33  C    0.079466
    34  C   -0.172138
    35  C    0.006841
    36  C    0.082563
    37  C    0.127791
    38  C    0.045396
    39  O   -0.191891
    40  C   -0.006758
    41  C    0.211949
    42  O   -0.253198
    43  O   -0.305728
    44  C    0.159558
    45  H   -0.020416
    46  H   -0.022380
    47  H   -0.044759
    48  H   -0.005477
    49  H   -0.004116
    50  H    0.024207
    51  H    0.015684
    52  H    0.014064
    53  H    0.026576
    54  H    0.055406
    55  H    0.015722
    56  H    0.011879
    57  H    0.005455
    58  H    0.020088
    59  H    0.046642
    60  H    0.037586
    61  H    0.031749
    62  H    0.032438
    63  H    0.012183
    64  H    0.008168
    65  H    0.021092
    66  H    0.013176
    67  H    0.004051
    68  H    0.003644
    69  H    0.003403
    70  H    0.008064
    71  H    0.048304
    72  H    0.035840
    73  H    0.045630
    74  H    0.007151
    75  H    0.044255
    76  H    0.033259
    77  H    0.040719
    78  H    0.044654
    79  H    0.052385
    80  Mg   0.841532
    81  C   -0.015435
    82  C   -0.087920
    83  C   -0.045015
    84  C   -0.066863
    85  N   -0.255186
    86  C   -0.048939
    87  C   -0.016463
    88  C   -0.090709
    89  C    0.047277
    90  C    0.114545
    91  C    0.061941
    92  C   -0.077411
    93  H    0.033706
    94  N   -0.423438
    95  C    0.164358
    96  C   -0.174393
    97  C   -0.007148
    98  C    0.152584
    99  C    0.099416
   100  C    0.016121
   101  O   -0.252935
   102  C    0.060892
   103  N   -0.350021
   104  C    0.037969
   105  C   -0.020418
   106  C   -0.031657
   107  C    0.089150
   108  C    0.073775
   109  C    0.030934
   110  C    0.004452
   111  N   -0.322910
   112  C    0.074967
   113  C   -0.160190
   114  C    0.000122
   115  C    0.096790
   116  C    0.119186
   117  C    0.042033
   118  O   -0.196395
   119  C    0.006037
   120  C    0.211536
   121  O   -0.242921
   122  O   -0.305282
   123  C    0.164517
   124  H   -0.019901
   125  H   -0.015313
   126  H   -0.037578
   127  H   -0.002346
   128  H   -0.003988
   129  H    0.021486
   130  H    0.014492
   131  H    0.016077
   132  H    0.016208
   133  H    0.041798
   134  H    0.019251
   135  H    0.019996
   136  H    0.008802
   137  H    0.025981
   138  H    0.040747
   139  H    0.038004
   140  H    0.036519
   141  H    0.034808
   142  H    0.014945
   143  H    0.012681
   144  H    0.024915
   145  H    0.011121
   146  H    0.005889
   147  H    0.004552
   148  H    0.004726
   149  H    0.006279
   150  H   -0.000466
   151  H    0.029822
   152  H    0.068021
   153  H    0.017073
   154  H    0.038017
   155  H    0.033434
   156  H    0.040466
   157  H    0.048435
   158  H    0.035531
 Sum of Mulliken charges =  -0.00000
 Mulliken charges with hydrogens summed into heavy atoms:
               1
     1  Mg   0.838234
     2  C    0.002215
     3  C   -0.100506
     4  C   -0.069744
     5  C   -0.110941
     6  N   -0.257367
     7  C   -0.044091
     8  C   -0.010176
     9  C   -0.096138
    10  C    0.054043
    11  C    0.159851
    12  C    0.127952
    13  C   -0.024240
    15  N   -0.435445
    16  C    0.188332
    17  C   -0.159406
    18  C   -0.019933
    19  C    0.130250
    20  C    0.191343
    21  C    0.012292
    22  O   -0.255301
    23  C    0.167955
    24  N   -0.340737
    25  C    0.041980
    26  C   -0.015648
    27  C   -0.014759
    28  C    0.073396
    29  C    0.115318
    30  C    0.051767
    31  C    0.054993
    32  N   -0.310071
    33  C    0.079466
    34  C   -0.172138
    35  C    0.006841
    36  C    0.082563
    37  C    0.224828
    38  C    0.045396
    39  O   -0.191891
    40  C    0.026501
    41  C    0.211949
    42  O   -0.253198
    43  O   -0.305728
    44  C    0.297317
    80  Mg   0.841532
    81  C   -0.015435
    82  C   -0.107821
    83  C   -0.060328
    84  C   -0.104441
    85  N   -0.255186
    86  C   -0.048939
    87  C   -0.018809
    88  C   -0.094698
    89  C    0.047277
    90  C    0.166599
    91  C    0.119947
    92  C   -0.004458
    94  N   -0.423438
    95  C    0.164358
    96  C   -0.174393
    97  C   -0.007148
    98  C    0.152584
    99  C    0.174945
   100  C    0.016121
   101  O   -0.252935
   102  C    0.170223
   103  N   -0.350021
   104  C    0.037969
   105  C   -0.005473
   106  C   -0.018976
   107  C    0.089150
   108  C    0.115701
   109  C    0.040211
   110  C    0.040087
   111  N   -0.322910
   112  C    0.074967
   113  C   -0.160190
   114  C    0.000122
   115  C    0.096790
   116  C    0.242298
   117  C    0.042033
   118  O   -0.196395
   119  C    0.039471
   120  C    0.211536
   121  O   -0.242921
   122  O   -0.305282
   123  C    0.288949
 Electronic spatial extent (au):  <R**2>=          85441.3919
 Charge=             -0.0000 electrons
 Dipole moment (field-independent basis, Debye):
    X=             -1.8213    Y=             -3.2693    Z=             -4.5291  Tot=              5.8752
 Quadrupole moment (field-independent basis, Debye-Ang):
   XX=           -485.0776   YY=           -468.7767   ZZ=           -528.9153
   XY=             19.8270   XZ=             -6.6585   YZ=             27.7732
 Traceless Quadrupole moment (field-independent basis, Debye-Ang):
   XX=              9.1789   YY=             25.4798   ZZ=            -34.6587
   XY=             19.8270   XZ=             -6.6585   YZ=             27.7732
 Octapole moment (field-independent basis, Debye-Ang**2):
  XXX=             20.9286  YYY=           -249.4155  ZZZ=           -197.5532  XYY=            -34.1614
  XXY=           -352.4588  XXZ=           -113.5484  XZZ=            -28.2345  YZZ=             40.8488
  YYZ=             81.3251  XYZ=            158.0844
 Hexadecapole moment (field-independent basis, Debye-Ang**3):
 XXXX=         -59159.5176 YYYY=         -33377.8733 ZZZZ=         -22005.9687 XXXY=           1964.9602
 XXXZ=           -308.9559 YYYX=           -672.4147 YYYZ=            411.5329 ZZZX=           -867.4872
 ZZZY=            406.8663 XXYY=         -15476.1875 XXZZ=         -13660.0848 YYZZ=          -9628.9802
 XXYZ=           -208.8921 YYXZ=            541.2382 ZZXY=            494.3749
 N-N= 1.636356746155D+04 E-N=-4.221005499286D+04  KE= 4.028813831781D+03
 Leave Link  601 at Wed Sep  8 22:11:35 2021, MaxMem= 23488102400 cpu:              14.6 elap:               0.8
 (Enter /sw/apps/gaussian-16.0/g16/l9999.exe)
 1\1\GINC-BP1-COMPUTE00116\SP\RCAM-B3LYP TD-FC\def2SVP\C68H72Mg2N8O8\OF
 15641\08-Sep-2021\0\\#p cam-b3lyp/Def2SVP td=(nstates=5)\\TDDFT excite
 d states in gaussian\\0,1\Mg,0,0.,0.,0.\C,0,-0.217,-2.218,2.801\C,0,-1
 .255,2.442,2.026\C,0,-0.245,1.85,-2.564\C,0,0.146,-2.824,-2.037\N,0,-0
 .617,-0.009,2.126\C,0,-0.594,-0.908,3.105\C,0,-0.936,-0.309,4.502\C,0,
 -1.773,0.964,4.032\C,0,-1.155,1.168,2.66\C,0,-3.263,0.685,3.863\C,0,0.
 345,0.11,5.299\C,0,0.124,0.397,6.787\H,0,1.168,0.033,7.733\N,0,-0.185,
 1.961,-0.152\C,0,-0.703,2.8,0.777\C,0,-0.62,4.156,0.193\C,0,-0.187,4.0
 15,-1.225\C,0,-0.214,2.583,-1.38\C,0,-0.887,5.406,0.974\C,0,0.181,5.01
 3,-2.277\O,0,0.303,4.69,-3.508\C,0,0.31,6.414,-1.837\N,0,-0.265,-0.413
 ,-2.029\C,0,-0.279,0.569,-2.937\C,0,-0.196,0.024,-4.332\C,0,0.124,-1.5
 33,-4.18\C,0,0.086,-1.632,-2.635\C,0,-1.451,0.205,-5.197\C,0,1.373,-2.
 07,-4.923\C,0,2.626,-1.49,-4.306\N,0,0.15,-2.144,0.303\C,0,0.173,-3.13
 6,-0.688\C,0,0.173,-4.438,0.004\C,0,0.133,-4.111,1.358\C,0,0.083,-2.69
 5,1.502\C,0,0.149,-5.715,-0.623\C,0,0.096,-4.629,2.716\O,0,0.208,-5.74
 7,3.221\C,0,-0.255,-3.428,3.701\C,0,0.717,-3.482,4.848\O,0,1.931,-3.25
 5,4.669\O,0,0.038,-3.556,6.003\C,0,0.943,-3.583,7.183\H,0,-1.859,3.22,
 2.497\H,0,-0.218,2.453,-3.474\H,0,0.276,-3.747,-2.605\H,0,-1.554,-0.94
 9,5.132\H,0,-1.585,1.831,4.665\H,0,-3.484,-0.377,3.969\H,0,-3.511,1.02
 7,2.858\H,0,-3.852,1.301,4.543\H,0,0.669,1.096,4.966\H,0,1.13,-0.639,5
 .189\H,0,-0.844,0.026,7.125\H,0,0.062,1.477,6.921\H,0,-1.344,5.186,1.9
 38\H,0,-1.651,5.963,0.432\H,0,0.007,6.02,1.084\H,0,-0.635,6.744,-1.405
 \H,0,0.665,6.97,-2.704\H,0,1.048,6.466,-1.036\H,0,0.608,0.501,-4.891\H
 ,0,-0.692,-2.156,-4.547\H,0,-1.267,0.74,-6.129\H,0,-2.204,0.714,-4.596
 \H,0,-1.967,-0.72,-5.453\H,0,1.356,-1.759,-5.967\H,0,1.452,-3.157,-4.9
 02\H,0,2.714,-0.522,-4.798\H,0,3.487,-2.121,-4.529\H,0,2.495,-1.303,-3
 .24\H,0,0.867,-6.333,-0.084\H,0,0.404,-5.642,-1.68\H,0,-0.891,-5.999,-
 0.463\H,0,-1.283,-3.581,4.028\H,0,0.698,-4.478,7.755\H,0,0.833,-2.619,
 7.68\H,0,2.,-3.754,6.976\Mg,0,7.88224,0.70229,0.60636\C,0,5.60552,2.30
 748,2.86887\C,0,10.12544,0.59782,3.1738\C,0,10.06208,-0.29913,-1.47038
 \C,0,5.94215,1.94532,-2.00833\N,0,7.76384,1.39455,2.70374\C,0,6.82647,
 1.93412,3.4683\C,0,7.18981,2.00834,4.97563\C,0,8.78971,1.98774,4.83863
 \C,0,8.9115,1.2502,3.50676\C,0,9.39765,3.37096,4.67597\C,0,6.66602,0.7
 6619,5.77859\C,0,6.71332,0.91777,7.3006\H,0,5.65,0.30783,8.0942\N,0,9.
 61421,-0.219,0.90644\C,0,10.38009,-0.17048,2.01656\C,0,11.55973,-1.000
 78,1.7281\C,0,11.50726,-1.40964,0.29814\C,0,10.37868,-0.62411,-0.15939
 \C,0,12.55304,-1.3972,2.78148\C,0,12.34341,-2.34228,-0.52481\O,0,12.26
 582,-2.36517,-1.80398\C,0,13.3224,-3.16158,0.20445\N,0,8.1121,0.98111,
 -1.44102\C,0,9.11862,0.39207,-2.11025\C,0,8.92336,0.5093,-3.60307\C,0,
 7.4467,1.09133,-3.79882\C,0,7.05984,1.30295,-2.31863\C,0,9.92355,1.402
 5,-4.33669\C,0,6.48363,0.27684,-4.70533\C,0,6.14989,-1.04341,-4.04886\
 N,0,6.00037,1.74843,0.42691\C,0,5.38381,2.19709,-0.76163\C,0,4.17848,2
 .95493,-0.36756\C,0,4.19005,2.91383,1.03482\C,0,5.33353,2.19928,1.4835
 7\C,0,3.27799,3.60667,-1.25665\C,0,3.50065,3.32154,2.23781\O,0,2.42945
 ,3.87638,2.47951\C,0,4.45405,3.05546,3.48145\C,0,3.64927,2.35602,4.542
 41\O,0,3.20681,1.21023,4.34749\O,0,3.71911,3.06214,5.6856\C,0,2.9454,2
 .40258,6.77104\H,0,10.97947,0.71906,3.84074\H,0,10.72417,-0.71637,-2.2
 3264\H,0,5.23182,2.28083,-2.76698\H,0,6.87108,2.91509,5.47562\H,0,9.24
 715,1.41005,5.63762\H,0,8.64089,4.1326,4.56044\H,0,10.01851,3.31722,3.
 79127\H,0,10.07548,3.58495,5.50729\H,0,7.37038,-0.06582,5.65065\H,0,5.
 67151,0.50614,5.47208\H,0,6.87203,1.95904,7.6064\H,0,7.5948,0.39129,7.
 67454\H,0,12.42101,-0.81156,3.69962\H,0,13.54278,-1.10591,2.41348\H,0,
 12.55147,-2.47129,2.97901\H,0,14.00645,-2.5114,0.74464\H,0,13.76048,-3
 .82695,-0.54203\H,0,12.79092,-3.7543,0.95733\H,0,8.98413,-0.46198,-4.0
 7849\H,0,7.45983,2.08718,-4.26566\H,0,10.46403,0.87835,-5.14738\H,0,10
 .62014,1.80206,-3.61167\H,0,9.5018,2.30584,-4.77406\H,0,6.96891,0.0374
 8,-5.65473\H,0,5.56248,0.8008,-4.93759\H,0,7.00003,-1.67614,-4.32088\H
 ,0,5.2181,-1.44298,-4.44402\H,0,6.14485,-0.94972,-2.95669\H,0,2.2789,3
 .38517,-0.90556\H,0,3.42236,3.27477,-2.28269\H,0,3.58279,4.647,-1.115\
 H,0,4.82678,4.02249,3.8213\H,0,2.22997,3.14039,7.14716\H,0,3.6988,2.02
 157,7.48587\H,0,2.2846,1.5899,6.49292\\Version=ES64L-G16RevA.03\State=
 1-A\HF=-4069.8121595\RMSD=8.339e-09\PG=C01 [X(C68H72Mg2N8O8)]\\@


 A SLIP OF THE FOOT YOU MAY SOON RECOVER, BUT A SLIP OF THE TONGUE
 YOU MAY NEVER GET OVER. -- BEN FRANKLIN
 Job cpu time:       0 days 18 hours 18 minutes 33.5 seconds.
 Elapsed time:       0 days  0 hours 46 minutes 28.7 seconds.
 File lengths (MBytes):  RWF=  13225 Int=      0 D2E=      0 Chk=    574 Scr=      1
 Normal termination of Gaussian 16 at Wed Sep  8 22:11:36 2021.
