 Entering Gaussian System, Link 0=g16
 Initial command:
 /sw/apps/gaussian-16.0/g16/l1.exe "/tmp/Gau-41107.inp" -scrdir="/tmp/"
 Entering Link 1 = /sw/apps/gaussian-16.0/g16/l1.exe PID=     41108.
  
 Copyright (c) 1988,1990,1992,1993,1995,1998,2003,2009,2016,
            Gaussian, Inc.  All Rights Reserved.
  
 This is part of the Gaussian(R) 16 program.  It is based on
 the Gaussian(R) 09 system (copyright 2009, Gaussian, Inc.),
 the Gaussian(R) 03 system (copyright 2003, Gaussian, Inc.),
 the Gaussian(R) 98 system (copyright 1998, Gaussian, Inc.),
 the Gaussian(R) 94 system (copyright 1995, Gaussian, Inc.),
 the Gaussian 92(TM) system (copyright 1992, Gaussian, Inc.),
 the Gaussian 90(TM) system (copyright 1990, Gaussian, Inc.),
 the Gaussian 88(TM) system (copyright 1988, Gaussian, Inc.),
 the Gaussian 86(TM) system (copyright 1986, Carnegie Mellon
 University), and the Gaussian 82(TM) system (copyright 1983,
 Carnegie Mellon University). Gaussian is a federally registered
 trademark of Gaussian, Inc.
  
 This software contains proprietary and confidential information,
 including trade secrets, belonging to Gaussian, Inc.
  
 This software is provided under written license and may be
 used, copied, transmitted, or stored only in accord with that
 written license.
  
 The following legend is applicable only to US Government
 contracts under FAR:
  
                    RESTRICTED RIGHTS LEGEND
  
 Use, reproduction and disclosure by the US Government is
 subject to restrictions as set forth in subparagraphs (a)
 and (c) of the Commercial Computer Software - Restricted
 Rights clause in FAR 52.227-19.
  
 Gaussian, Inc.
 340 Quinnipiac St., Bldg. 40, Wallingford CT 06492
  
  
 ---------------------------------------------------------------
 Warning -- This program may not be used in any manner that
 competes with the business of Gaussian, Inc. or will provide
 assistance to any competitor of Gaussian, Inc.  The licensee
 of this program is prohibited from giving any competitor of
 Gaussian, Inc. access to this program.  By using this program,
 the user acknowledges that Gaussian, Inc. is engaged in the
 business of creating and licensing software in the field of
 computational chemistry and represents and warrants to the
 licensee that it is not a competitor of Gaussian, Inc. and that
 it will not use this program in any manner prohibited above.
 ---------------------------------------------------------------
  

 Cite this work as:
 Gaussian 16, Revision A.03,
 M. J. Frisch, G. W. Trucks, H. B. Schlegel, G. E. Scuseria, 
 M. A. Robb, J. R. Cheeseman, G. Scalmani, V. Barone, 
 G. A. Petersson, H. Nakatsuji, X. Li, M. Caricato, A. V. Marenich, 
 J. Bloino, B. G. Janesko, R. Gomperts, B. Mennucci, H. P. Hratchian, 
 J. V. Ortiz, A. F. Izmaylov, J. L. Sonnenberg, D. Williams-Young, 
 F. Ding, F. Lipparini, F. Egidi, J. Goings, B. Peng, A. Petrone, 
 T. Henderson, D. Ranasinghe, V. G. Zakrzewski, J. Gao, N. Rega, 
 G. Zheng, W. Liang, M. Hada, M. Ehara, K. Toyota, R. Fukuda, 
 J. Hasegawa, M. Ishida, T. Nakajima, Y. Honda, O. Kitao, H. Nakai, 
 T. Vreven, K. Throssell, J. A. Montgomery, Jr., J. E. Peralta, 
 F. Ogliaro, M. J. Bearpark, J. J. Heyd, E. N. Brothers, K. N. Kudin, 
 V. N. Staroverov, T. A. Keith, R. Kobayashi, J. Normand, 
 K. Raghavachari, A. P. Rendell, J. C. Burant, S. S. Iyengar, 
 J. Tomasi, M. Cossi, J. M. Millam, M. Klene, C. Adamo, R. Cammi, 
 J. W. Ochterski, R. L. Martin, K. Morokuma, O. Farkas, 
 J. B. Foresman, and D. J. Fox, Gaussian, Inc., Wallingford CT, 2016.
 
 ******************************************
 Gaussian 16:  ES64L-G16RevA.03 25-Dec-2016
                 4-Sep-2021 
 ******************************************
 %nproc=24
 Will use up to   24 processors via shared memory.
 %mem=175gb
 -----------------------------------
 #p cam-b3lyp/Def2SVP td=(nstates=5)
 -----------------------------------
 1/38=1,172=1/1;
 2/12=2,17=6,18=5,40=1/2;
 3/5=43,7=101,11=9,25=1,30=1,74=-40/1,2,3,8;
 4//1;
 5/5=2,38=5/2;
 8/6=1,10=1,108=5/1;
 9/41=5,42=1,70=2/14;
 6/7=2,8=2,9=2,10=2/1;
 99/5=1,9=1/99;
 Leave Link    1 at Sat Sep  4 05:35:57 2021, MaxMem= 23488102400 cpu:               0.5 elap:               0.0
 (Enter /sw/apps/gaussian-16.0/g16/l101.exe)
 --------------------------------
 TDDFT excited states in gaussian
 --------------------------------
 Symbolic Z-matrix:
 Charge =  0 Multiplicity = 1
 Mg                    0.        0.        0. 
 C                    -0.217    -2.218     2.801 
 C                    -1.255     2.442     2.026 
 C                    -0.245     1.85     -2.564 
 C                     0.146    -2.824    -2.037 
 N                    -0.617    -0.009     2.126 
 C                    -0.594    -0.908     3.105 
 C                    -0.936    -0.309     4.502 
 C                    -1.773     0.964     4.032 
 C                    -1.155     1.168     2.66 
 C                    -3.263     0.685     3.863 
 C                     0.345     0.11      5.299 
 C                     0.124     0.397     6.787 
 H                     1.168     0.033     7.733 
 N                    -0.185     1.961    -0.152 
 C                    -0.703     2.8       0.777 
 C                    -0.62      4.156     0.193 
 C                    -0.187     4.015    -1.225 
 C                    -0.214     2.583    -1.38 
 C                    -0.887     5.406     0.974 
 C                     0.181     5.013    -2.277 
 O                     0.303     4.69     -3.508 
 C                     0.31      6.414    -1.837 
 N                    -0.265    -0.413    -2.029 
 C                    -0.279     0.569    -2.937 
 C                    -0.196     0.024    -4.332 
 C                     0.124    -1.533    -4.18 
 C                     0.086    -1.632    -2.635 
 C                    -1.451     0.205    -5.197 
 C                     1.373    -2.07     -4.923 
 C                     2.626    -1.49     -4.306 
 N                     0.15     -2.144     0.303 
 C                     0.173    -3.136    -0.688 
 C                     0.173    -4.438     0.004 
 C                     0.133    -4.111     1.358 
 C                     0.083    -2.695     1.502 
 C                     0.149    -5.715    -0.623 
 C                     0.096    -4.629     2.716 
 O                     0.208    -5.747     3.221 
 C                    -0.255    -3.428     3.701 
 C                     0.717    -3.482     4.848 
 O                     1.931    -3.255     4.669 
 O                     0.038    -3.556     6.003 
 C                     0.943    -3.583     7.183 
 H                    -1.859     3.22      2.497 
 H                    -0.218     2.453    -3.474 
 H                     0.276    -3.747    -2.605 
 H                    -1.554    -0.949     5.132 
 H                    -1.585     1.831     4.665 
 H                    -3.484    -0.377     3.969 
 H                    -3.511     1.027     2.858 
 H                    -3.852     1.301     4.543 
 H                     0.669     1.096     4.966 
 H                     1.13     -0.639     5.189 
 H                    -0.844     0.026     7.125 
 H                     0.062     1.477     6.921 
 H                    -1.344     5.186     1.938 
 H                    -1.651     5.963     0.432 
 H                     0.007     6.02      1.084 
 H                    -0.635     6.744    -1.405 
 H                     0.665     6.97     -2.704 
 H                     1.048     6.466    -1.036 
 H                     0.608     0.501    -4.891 
 H                    -0.692    -2.156    -4.547 
 H                    -1.267     0.74     -6.129 
 H                    -2.204     0.714    -4.596 
 H                    -1.967    -0.72     -5.453 
 H                     1.356    -1.759    -5.967 
 H                     1.452    -3.157    -4.902 
 H                     2.714    -0.522    -4.798 
 H                     3.487    -2.121    -4.529 
 H                     2.495    -1.303    -3.24 
 H                     0.867    -6.333    -0.084 
 H                     0.404    -5.642    -1.68 
 H                    -0.891    -5.999    -0.463 
 H                    -1.283    -3.581     4.028 
 H                     0.698    -4.478     7.755 
 H                     0.833    -2.619     7.68 
 H                     2.       -3.754     6.976 
 Mg                    10.51781   0.94371   0.80602 
 C                     10.66047  -2.62142   0.42063 
 C                     9.44062   0.40582   3.99741 
 C                     9.95122   4.05731   1.03382 
 C                     10.49161   1.17924  -2.67098 
 N                     10.13935  -0.9131    1.94676 
 C                     10.28746  -2.20907   1.71688 
 C                     10.09883  -3.10973   2.967 
 C                     9.17882  -2.12276   3.83784 
 C                     9.63407  -0.78645   3.255 
 C                     7.69336  -2.28355   3.56053 
 C                     11.45595  -3.41854   3.69148 
 C                     11.38884  -4.53776   4.73292 
 H                     12.54533  -5.41611   4.88623 
 N                     10.27661   2.09141   2.40702 
 C                     9.85327   1.70513   3.62884 
 C                     9.82669   2.92555   4.44984 
 C                     10.11082   4.09029   3.56816 
 C                     10.10318   3.44628   2.26998 
 C                     9.62952   2.90113   5.93778 
 C                     10.33754   5.54546   3.84615 
 O                     10.33104   6.41913   2.90833 
 C                     10.47438   5.92951   5.25869 
 N                     10.04556   2.39769  -0.60297 
 C                     9.9027    3.68605  -0.24568 
 C                     9.83902   4.58443  -1.4578 
 C                     10.21319   3.65316  -2.70292 
 C                     10.34718   2.29805  -1.97415 
 C                     8.49242   5.26047  -1.71477 
 C                     11.38435   4.12483  -3.60768 
 C                     12.6865   4.05892  -2.84252 
 N                     10.75127  -0.42711  -0.84758 
 C                     10.67978  -0.12258  -2.22462 
 C                     10.78593  -1.39996  -2.95908 
 C                     10.8895  -2.36902  -1.94978 
 C                     10.83034  -1.74193  -0.6759 
 C                     10.73083  -1.55358  -4.37311 
 C                     11.02474  -3.78088  -1.67221 
 O                     11.2095  -4.78684  -2.35606 
 C                     10.75532  -4.01962  -0.12405 
 C                     11.84901  -4.90553   0.40654 
 O                     13.02591  -4.50513   0.44096 
 O                     11.29764  -5.98879   0.98352 
 C                     12.34222  -6.89256   1.53476 
 H                     8.88271   0.34995   4.93256 
 H                     9.86375   5.14609   1.05362 
 H                     10.59007   1.17754  -3.75863 
 H                     9.5749   -4.0398    2.78192 
 H                     9.42616  -2.18192   4.89457 
 H                     7.50794  -2.95462   2.73505 
 H                     7.32789  -1.29121   3.33085 
 H                     7.17148  -2.59384   4.4703 
 H                     11.7156  -2.57276   4.34108 
 H                     12.22796  -3.63408   2.97862 
 H                     10.46771  -5.12678   4.64622 
 H                     11.32499  -4.08494   5.72534 
 H                     9.2809    1.91937   6.28129 
 H                     8.79792   3.57814   6.16128 
 H                     10.51364   3.23456   6.48535 
 H                     9.57864   5.63632   5.80105 
 H                     10.71942   6.99335   5.24987 
 H                     11.30575   5.36521   5.69571 
 H                     10.56652   5.38357  -1.38551 
 H                     9.37113   3.55145  -3.40323 
 H                     8.55976   6.36382  -1.76121 
 H                     7.80308   4.95388  -0.93929 
 H                     7.97969   4.93929  -2.61984 
 H                     11.24484   5.17032  -3.89341 
 H                     11.48105   3.5509   -4.52324 
 H                     12.69172   4.99905  -2.28287 
 H                     13.53054   4.00231  -3.52694 
 H                     12.67323   3.24098  -2.11282 
 H                     11.51025  -2.25456  -4.64074 
 H                     10.86027  -0.60061  -4.88191 
 H                     9.71661  -1.94546  -4.48735 
 H                     9.77206  -4.48216  -0.03015 
 H                     12.17912  -7.87868   1.08906 
 H                     12.25331  -6.816     2.63476 
 H                     13.37082  -6.70049   1.2527 
 
 ITRead=  0  0  0  0  0  0  0  0  0  0  0  0  0  0  0  0  0  0  0  0
 ITRead=  0  0  0  0  0  0  0  0  0  0  0  0  0  0  0  0  0  0  0  0
 ITRead=  0  0  0  0  0  0  0  0  0  0  0  0  0  0  0  0  0  0  0  0
 ITRead=  0  0  0  0  0  0  0  0  0  0  0  0  0  0  0  0  0  0  0  0
 ITRead=  0  0  0  0  0  0  0  0  0  0  0  0  0  0  0  0  0  0  0  0
 ITRead=  0  0  0  0  0  0  0  0  0  0  0  0  0  0  0  0  0  0  0  0
 ITRead=  0  0  0  0  0  0  0  0  0  0  0  0  0  0  0  0  0  0  0  0
 ITRead=  0  0  0  0  0  0  0  0  0  0  0  0  0  0  0  0  0  0
 MicOpt= -1 -1 -1 -1 -1 -1 -1 -1 -1 -1 -1 -1 -1 -1 -1 -1 -1 -1 -1 -1
 MicOpt= -1 -1 -1 -1 -1 -1 -1 -1 -1 -1 -1 -1 -1 -1 -1 -1 -1 -1 -1 -1
 MicOpt= -1 -1 -1 -1 -1 -1 -1 -1 -1 -1 -1 -1 -1 -1 -1 -1 -1 -1 -1 -1
 MicOpt= -1 -1 -1 -1 -1 -1 -1 -1 -1 -1 -1 -1 -1 -1 -1 -1 -1 -1 -1 -1
 MicOpt= -1 -1 -1 -1 -1 -1 -1 -1 -1 -1 -1 -1 -1 -1 -1 -1 -1 -1 -1 -1
 MicOpt= -1 -1 -1 -1 -1 -1 -1 -1 -1 -1 -1 -1 -1 -1 -1 -1 -1 -1 -1 -1
 MicOpt= -1 -1 -1 -1 -1 -1 -1 -1 -1 -1 -1 -1 -1 -1 -1 -1 -1 -1 -1 -1
 MicOpt= -1 -1 -1 -1 -1 -1 -1 -1 -1 -1 -1 -1 -1 -1 -1 -1 -1 -1
 NAtoms=    158 NQM=      158 NQMF=       0 NMMI=      0 NMMIF=      0
                NMic=       0 NMicF=      0.
                    Isotopes and Nuclear Properties:
 (Nuclear quadrupole moments (NQMom) in fm**2, nuclear magnetic moments (NMagM)
  in nuclear magnetons)

  Atom         1           2           3           4           5           6           7           8           9          10
 IAtWgt=          24          12          12          12          12          14          12          12          12          12
 AtmWgt=  23.9850450  12.0000000  12.0000000  12.0000000  12.0000000  14.0030740  12.0000000  12.0000000  12.0000000  12.0000000
 NucSpn=           0           0           0           0           0           2           0           0           0           0
 AtZEff=  -0.0000000  -0.0000000  -0.0000000  -0.0000000  -0.0000000  -0.0000000  -0.0000000  -0.0000000  -0.0000000  -0.0000000
 NQMom=    0.0000000   0.0000000   0.0000000   0.0000000   0.0000000   2.0440000   0.0000000   0.0000000   0.0000000   0.0000000
 NMagM=    0.0000000   0.0000000   0.0000000   0.0000000   0.0000000   0.4037610   0.0000000   0.0000000   0.0000000   0.0000000
 AtZNuc=  12.0000000   6.0000000   6.0000000   6.0000000   6.0000000   7.0000000   6.0000000   6.0000000   6.0000000   6.0000000

  Atom        11          12          13          14          15          16          17          18          19          20
 IAtWgt=          12          12          12           1          14          12          12          12          12          12
 AtmWgt=  12.0000000  12.0000000  12.0000000   1.0078250  14.0030740  12.0000000  12.0000000  12.0000000  12.0000000  12.0000000
 NucSpn=           0           0           0           1           2           0           0           0           0           0
 AtZEff=  -0.0000000  -0.0000000  -0.0000000  -0.0000000  -0.0000000  -0.0000000  -0.0000000  -0.0000000  -0.0000000  -0.0000000
 NQMom=    0.0000000   0.0000000   0.0000000   0.0000000   2.0440000   0.0000000   0.0000000   0.0000000   0.0000000   0.0000000
 NMagM=    0.0000000   0.0000000   0.0000000   2.7928460   0.4037610   0.0000000   0.0000000   0.0000000   0.0000000   0.0000000
 AtZNuc=   6.0000000   6.0000000   6.0000000   1.0000000   7.0000000   6.0000000   6.0000000   6.0000000   6.0000000   6.0000000

  Atom        21          22          23          24          25          26          27          28          29          30
 IAtWgt=          12          16          12          14          12          12          12          12          12          12
 AtmWgt=  12.0000000  15.9949146  12.0000000  14.0030740  12.0000000  12.0000000  12.0000000  12.0000000  12.0000000  12.0000000
 NucSpn=           0           0           0           2           0           0           0           0           0           0
 AtZEff=  -0.0000000  -0.0000000  -0.0000000  -0.0000000  -0.0000000  -0.0000000  -0.0000000  -0.0000000  -0.0000000  -0.0000000
 NQMom=    0.0000000   0.0000000   0.0000000   2.0440000   0.0000000   0.0000000   0.0000000   0.0000000   0.0000000   0.0000000
 NMagM=    0.0000000   0.0000000   0.0000000   0.4037610   0.0000000   0.0000000   0.0000000   0.0000000   0.0000000   0.0000000
 AtZNuc=   6.0000000   8.0000000   6.0000000   7.0000000   6.0000000   6.0000000   6.0000000   6.0000000   6.0000000   6.0000000

  Atom        31          32          33          34          35          36          37          38          39          40
 IAtWgt=          12          14          12          12          12          12          12          12          16          12
 AtmWgt=  12.0000000  14.0030740  12.0000000  12.0000000  12.0000000  12.0000000  12.0000000  12.0000000  15.9949146  12.0000000
 NucSpn=           0           2           0           0           0           0           0           0           0           0
 AtZEff=  -0.0000000  -0.0000000  -0.0000000  -0.0000000  -0.0000000  -0.0000000  -0.0000000  -0.0000000  -0.0000000  -0.0000000
 NQMom=    0.0000000   2.0440000   0.0000000   0.0000000   0.0000000   0.0000000   0.0000000   0.0000000   0.0000000   0.0000000
 NMagM=    0.0000000   0.4037610   0.0000000   0.0000000   0.0000000   0.0000000   0.0000000   0.0000000   0.0000000   0.0000000
 AtZNuc=   6.0000000   7.0000000   6.0000000   6.0000000   6.0000000   6.0000000   6.0000000   6.0000000   8.0000000   6.0000000

  Atom        41          42          43          44          45          46          47          48          49          50
 IAtWgt=          12          16          16          12           1           1           1           1           1           1
 AtmWgt=  12.0000000  15.9949146  15.9949146  12.0000000   1.0078250   1.0078250   1.0078250   1.0078250   1.0078250   1.0078250
 NucSpn=           0           0           0           0           1           1           1           1           1           1
 AtZEff=  -0.0000000  -0.0000000  -0.0000000  -0.0000000  -0.0000000  -0.0000000  -0.0000000  -0.0000000  -0.0000000  -0.0000000
 NQMom=    0.0000000   0.0000000   0.0000000   0.0000000   0.0000000   0.0000000   0.0000000   0.0000000   0.0000000   0.0000000
 NMagM=    0.0000000   0.0000000   0.0000000   0.0000000   2.7928460   2.7928460   2.7928460   2.7928460   2.7928460   2.7928460
 AtZNuc=   6.0000000   8.0000000   8.0000000   6.0000000   1.0000000   1.0000000   1.0000000   1.0000000   1.0000000   1.0000000

  Atom        51          52          53          54          55          56          57          58          59          60
 IAtWgt=           1           1           1           1           1           1           1           1           1           1
 AtmWgt=   1.0078250   1.0078250   1.0078250   1.0078250   1.0078250   1.0078250   1.0078250   1.0078250   1.0078250   1.0078250
 NucSpn=           1           1           1           1           1           1           1           1           1           1
 AtZEff=  -0.0000000  -0.0000000  -0.0000000  -0.0000000  -0.0000000  -0.0000000  -0.0000000  -0.0000000  -0.0000000  -0.0000000
 NQMom=    0.0000000   0.0000000   0.0000000   0.0000000   0.0000000   0.0000000   0.0000000   0.0000000   0.0000000   0.0000000
 NMagM=    2.7928460   2.7928460   2.7928460   2.7928460   2.7928460   2.7928460   2.7928460   2.7928460   2.7928460   2.7928460
 AtZNuc=   1.0000000   1.0000000   1.0000000   1.0000000   1.0000000   1.0000000   1.0000000   1.0000000   1.0000000   1.0000000

  Atom        61          62          63          64          65          66          67          68          69          70
 IAtWgt=           1           1           1           1           1           1           1           1           1           1
 AtmWgt=   1.0078250   1.0078250   1.0078250   1.0078250   1.0078250   1.0078250   1.0078250   1.0078250   1.0078250   1.0078250
 NucSpn=           1           1           1           1           1           1           1           1           1           1
 AtZEff=  -0.0000000  -0.0000000  -0.0000000  -0.0000000  -0.0000000  -0.0000000  -0.0000000  -0.0000000  -0.0000000  -0.0000000
 NQMom=    0.0000000   0.0000000   0.0000000   0.0000000   0.0000000   0.0000000   0.0000000   0.0000000   0.0000000   0.0000000
 NMagM=    2.7928460   2.7928460   2.7928460   2.7928460   2.7928460   2.7928460   2.7928460   2.7928460   2.7928460   2.7928460
 AtZNuc=   1.0000000   1.0000000   1.0000000   1.0000000   1.0000000   1.0000000   1.0000000   1.0000000   1.0000000   1.0000000

  Atom        71          72          73          74          75          76          77          78          79          80
 IAtWgt=           1           1           1           1           1           1           1           1           1          24
 AtmWgt=   1.0078250   1.0078250   1.0078250   1.0078250   1.0078250   1.0078250   1.0078250   1.0078250   1.0078250  23.9850450
 NucSpn=           1           1           1           1           1           1           1           1           1           0
 AtZEff=  -0.0000000  -0.0000000  -0.0000000  -0.0000000  -0.0000000  -0.0000000  -0.0000000  -0.0000000  -0.0000000  -0.0000000
 NQMom=    0.0000000   0.0000000   0.0000000   0.0000000   0.0000000   0.0000000   0.0000000   0.0000000   0.0000000   0.0000000
 NMagM=    2.7928460   2.7928460   2.7928460   2.7928460   2.7928460   2.7928460   2.7928460   2.7928460   2.7928460   0.0000000
 AtZNuc=   1.0000000   1.0000000   1.0000000   1.0000000   1.0000000   1.0000000   1.0000000   1.0000000   1.0000000  12.0000000

  Atom        81          82          83          84          85          86          87          88          89          90
 IAtWgt=          12          12          12          12          14          12          12          12          12          12
 AtmWgt=  12.0000000  12.0000000  12.0000000  12.0000000  14.0030740  12.0000000  12.0000000  12.0000000  12.0000000  12.0000000
 NucSpn=           0           0           0           0           2           0           0           0           0           0
 AtZEff=  -0.0000000  -0.0000000  -0.0000000  -0.0000000  -0.0000000  -0.0000000  -0.0000000  -0.0000000  -0.0000000  -0.0000000
 NQMom=    0.0000000   0.0000000   0.0000000   0.0000000   2.0440000   0.0000000   0.0000000   0.0000000   0.0000000   0.0000000
 NMagM=    0.0000000   0.0000000   0.0000000   0.0000000   0.4037610   0.0000000   0.0000000   0.0000000   0.0000000   0.0000000
 AtZNuc=   6.0000000   6.0000000   6.0000000   6.0000000   7.0000000   6.0000000   6.0000000   6.0000000   6.0000000   6.0000000

  Atom        91          92          93          94          95          96          97          98          99         100
 IAtWgt=          12          12           1          14          12          12          12          12          12          12
 AtmWgt=  12.0000000  12.0000000   1.0078250  14.0030740  12.0000000  12.0000000  12.0000000  12.0000000  12.0000000  12.0000000
 NucSpn=           0           0           1           2           0           0           0           0           0           0
 AtZEff=  -0.0000000  -0.0000000  -0.0000000  -0.0000000  -0.0000000  -0.0000000  -0.0000000  -0.0000000  -0.0000000  -0.0000000
 NQMom=    0.0000000   0.0000000   0.0000000   2.0440000   0.0000000   0.0000000   0.0000000   0.0000000   0.0000000   0.0000000
 NMagM=    0.0000000   0.0000000   2.7928460   0.4037610   0.0000000   0.0000000   0.0000000   0.0000000   0.0000000   0.0000000
 AtZNuc=   6.0000000   6.0000000   1.0000000   7.0000000   6.0000000   6.0000000   6.0000000   6.0000000   6.0000000   6.0000000

  Atom       101         102         103         104         105         106         107         108         109         110
 IAtWgt=          16          12          14          12          12          12          12          12          12          12
 AtmWgt=  15.9949146  12.0000000  14.0030740  12.0000000  12.0000000  12.0000000  12.0000000  12.0000000  12.0000000  12.0000000
 NucSpn=           0           0           2           0           0           0           0           0           0           0
 AtZEff=  -0.0000000  -0.0000000  -0.0000000  -0.0000000  -0.0000000  -0.0000000  -0.0000000  -0.0000000  -0.0000000  -0.0000000
 NQMom=    0.0000000   0.0000000   2.0440000   0.0000000   0.0000000   0.0000000   0.0000000   0.0000000   0.0000000   0.0000000
 NMagM=    0.0000000   0.0000000   0.4037610   0.0000000   0.0000000   0.0000000   0.0000000   0.0000000   0.0000000   0.0000000
 AtZNuc=   8.0000000   6.0000000   7.0000000   6.0000000   6.0000000   6.0000000   6.0000000   6.0000000   6.0000000   6.0000000

  Atom       111         112         113         114         115         116         117         118         119         120
 IAtWgt=          14          12          12          12          12          12          12          16          12          12
 AtmWgt=  14.0030740  12.0000000  12.0000000  12.0000000  12.0000000  12.0000000  12.0000000  15.9949146  12.0000000  12.0000000
 NucSpn=           2           0           0           0           0           0           0           0           0           0
 AtZEff=  -0.0000000  -0.0000000  -0.0000000  -0.0000000  -0.0000000  -0.0000000  -0.0000000  -0.0000000  -0.0000000  -0.0000000
 NQMom=    2.0440000   0.0000000   0.0000000   0.0000000   0.0000000   0.0000000   0.0000000   0.0000000   0.0000000   0.0000000
 NMagM=    0.4037610   0.0000000   0.0000000   0.0000000   0.0000000   0.0000000   0.0000000   0.0000000   0.0000000   0.0000000
 AtZNuc=   7.0000000   6.0000000   6.0000000   6.0000000   6.0000000   6.0000000   6.0000000   8.0000000   6.0000000   6.0000000

  Atom       121         122         123         124         125         126         127         128         129         130
 IAtWgt=          16          16          12           1           1           1           1           1           1           1
 AtmWgt=  15.9949146  15.9949146  12.0000000   1.0078250   1.0078250   1.0078250   1.0078250   1.0078250   1.0078250   1.0078250
 NucSpn=           0           0           0           1           1           1           1           1           1           1
 AtZEff=  -0.0000000  -0.0000000  -0.0000000  -0.0000000  -0.0000000  -0.0000000  -0.0000000  -0.0000000  -0.0000000  -0.0000000
 NQMom=    0.0000000   0.0000000   0.0000000   0.0000000   0.0000000   0.0000000   0.0000000   0.0000000   0.0000000   0.0000000
 NMagM=    0.0000000   0.0000000   0.0000000   2.7928460   2.7928460   2.7928460   2.7928460   2.7928460   2.7928460   2.7928460
 AtZNuc=   8.0000000   8.0000000   6.0000000   1.0000000   1.0000000   1.0000000   1.0000000   1.0000000   1.0000000   1.0000000

  Atom       131         132         133         134         135         136         137         138         139         140
 IAtWgt=           1           1           1           1           1           1           1           1           1           1
 AtmWgt=   1.0078250   1.0078250   1.0078250   1.0078250   1.0078250   1.0078250   1.0078250   1.0078250   1.0078250   1.0078250
 NucSpn=           1           1           1           1           1           1           1           1           1           1
 AtZEff=  -0.0000000  -0.0000000  -0.0000000  -0.0000000  -0.0000000  -0.0000000  -0.0000000  -0.0000000  -0.0000000  -0.0000000
 NQMom=    0.0000000   0.0000000   0.0000000   0.0000000   0.0000000   0.0000000   0.0000000   0.0000000   0.0000000   0.0000000
 NMagM=    2.7928460   2.7928460   2.7928460   2.7928460   2.7928460   2.7928460   2.7928460   2.7928460   2.7928460   2.7928460
 AtZNuc=   1.0000000   1.0000000   1.0000000   1.0000000   1.0000000   1.0000000   1.0000000   1.0000000   1.0000000   1.0000000

  Atom       141         142         143         144         145         146         147         148         149         150
 IAtWgt=           1           1           1           1           1           1           1           1           1           1
 AtmWgt=   1.0078250   1.0078250   1.0078250   1.0078250   1.0078250   1.0078250   1.0078250   1.0078250   1.0078250   1.0078250
 NucSpn=           1           1           1           1           1           1           1           1           1           1
 AtZEff=  -0.0000000  -0.0000000  -0.0000000  -0.0000000  -0.0000000  -0.0000000  -0.0000000  -0.0000000  -0.0000000  -0.0000000
 NQMom=    0.0000000   0.0000000   0.0000000   0.0000000   0.0000000   0.0000000   0.0000000   0.0000000   0.0000000   0.0000000
 NMagM=    2.7928460   2.7928460   2.7928460   2.7928460   2.7928460   2.7928460   2.7928460   2.7928460   2.7928460   2.7928460
 AtZNuc=   1.0000000   1.0000000   1.0000000   1.0000000   1.0000000   1.0000000   1.0000000   1.0000000   1.0000000   1.0000000

  Atom       151         152         153         154         155         156         157         158
 IAtWgt=           1           1           1           1           1           1           1           1
 AtmWgt=   1.0078250   1.0078250   1.0078250   1.0078250   1.0078250   1.0078250   1.0078250   1.0078250
 NucSpn=           1           1           1           1           1           1           1           1
 AtZEff=  -0.0000000  -0.0000000  -0.0000000  -0.0000000  -0.0000000  -0.0000000  -0.0000000  -0.0000000
 NQMom=    0.0000000   0.0000000   0.0000000   0.0000000   0.0000000   0.0000000   0.0000000   0.0000000
 NMagM=    2.7928460   2.7928460   2.7928460   2.7928460   2.7928460   2.7928460   2.7928460   2.7928460
 AtZNuc=   1.0000000   1.0000000   1.0000000   1.0000000   1.0000000   1.0000000   1.0000000   1.0000000
 Leave Link  101 at Sat Sep  4 05:35:58 2021, MaxMem= 23488102400 cpu:               3.9 elap:               0.2
 (Enter /sw/apps/gaussian-16.0/g16/l202.exe)
 Stoichiometry    C68H72Mg2N8O8
 Framework group  C1[X(C68H72Mg2N8O8)]
 Deg. of freedom   468
 Full point group                 C1      NOp   1
 Largest Abelian subgroup         C1      NOp   1
 Largest concise Abelian subgroup C1      NOp   1
                         Standard orientation:                         
 ---------------------------------------------------------------------
 Center     Atomic      Atomic             Coordinates (Angstroms)
 Number     Number       Type             X           Y           Z
 ---------------------------------------------------------------------
      1         12           0       -5.186197    0.546461   -0.649141
      2          6           0       -5.471408   -2.701832    0.827158
      3          6           0       -6.433125    1.815785    2.262396
      4          6           0       -5.371224    3.367788   -2.085283
      5          6           0       -5.053317   -1.036933   -3.750894
      6          7           0       -5.831213   -0.421479    1.234391
      7          6           0       -5.833822   -1.668723    1.694331
      8          6           0       -6.185691   -1.767981    3.208831
      9          6           0       -6.998347   -0.405568    3.368271
     10          6           0       -6.359506    0.391253    2.244490
     11          6           0       -8.489787   -0.548761    3.082607
     12          6           0       -4.909505   -1.783342    4.115938
     13          6           0       -5.146006   -2.203895    5.569402
     14          1           0       -4.119808   -2.979263    6.249894
     15          7           0       -5.341437    2.363298    0.111027
     16          6           0       -5.859715    2.694587    1.318057
     17          6           0       -5.749868    4.165794    1.418875
     18          6           0       -5.300264    4.680260    0.095518
     19          6           0       -5.345463    3.478087   -0.697019
     20          6           0       -6.009434    4.925548    2.683450
     21          6           0       -4.904367    6.041631   -0.382045
     22          8           0       -4.770741    6.314581   -1.623905
     23          6           0       -4.761380    7.084117    0.650341
     24          7           0       -5.430261    1.111190   -2.643922
     25          6           0       -5.418415    2.399639   -3.002729
     26          6           0       -5.324760    2.550822   -4.492129
     27          6           0       -5.028834    1.090758   -5.066929
     28          6           0       -5.088578    0.297483   -3.738239
     29          6           0       -6.565573    3.130359   -5.185333
     30          6           0       -3.777873    0.929462   -5.966649
     31          6           0       -2.525034    1.140046   -5.146194
     32          7           0       -5.070527   -1.501464   -1.358838
     33          6           0       -5.048502   -1.931284   -2.693545
     34          6           0       -5.076024   -3.405359   -2.673189
     35          6           0       -5.129229   -3.732478   -1.319672
     36          6           0       -5.161098   -2.538075   -0.544636
     37          6           0       -5.109815   -4.254079   -3.814665
     38          6           0       -5.191433   -4.812950   -0.348813
     39          8           0       -5.101911   -6.040030   -0.410086
     40          6           0       -5.538362   -4.188422    1.074364
     41          6           0       -4.582416   -4.778605    2.074943
     42          8           0       -3.363075   -4.517516    2.025874
     43          8           0       -5.277549   -5.359530    3.064821
     44          6           0       -4.388642   -5.939533    4.106740
     45          1           0       -7.032218    2.303694    3.033742
     46          1           0       -5.323718    4.319338   -2.618887
     47          1           0       -4.928909   -1.600657   -4.677279
     48          1           0       -6.820922   -2.613509    3.473383
     49          1           0       -6.806463    0.072742    4.328543
     50          1           0       -8.727156   -1.537537    2.690306
     51          1           0       -8.719668    0.219199    2.343767
     52          1           0       -9.078925   -0.300696    3.965872
     53          1           0       -4.567239   -0.760349    4.272146
     54          1           0       -4.133791   -2.413774    3.679876
     55          1           0       -6.123522   -2.670269    5.695361
     56          1           0       -5.194491   -1.303510    6.181902
     57          1           0       -6.482156    4.297927    3.437884
     58          1           0       -6.758277    5.682752    2.451968
     59          1           0       -5.108369    5.404702    3.066629
     60          1           0       -5.707229    7.197774    1.180437
     61          1           0       -4.387166    7.968123    0.135222
     62          1           0       -4.033333    6.750646    1.390405
     63          1           0       -4.506804    3.215492   -4.767059
     64          1           0       -5.848655    0.719578   -5.682390
     65          1           0       -6.361768    4.028568   -5.768760
     66          1           0       -7.319153    3.322413   -4.422100
     67          1           0       -7.091182    2.434309   -5.838531
     68          1           0       -3.776721    1.683378   -6.753132
     69          1           0       -3.714531   -0.048287   -6.444401
     70          1           0       -2.416885    2.224070   -5.140869
     71          1           0       -1.670178    0.664772   -5.628425
     72          1           0       -2.667407    0.821708   -4.113296
     73          1           0       -4.407786   -5.063305   -3.613974
     74          1           0       -4.839908   -3.710937   -4.720065
     75          1           0       -6.155743   -4.560412   -3.807634
     76          1           0       -6.572641   -4.454784    1.289867
     77          1           0       -4.653784   -6.992271    4.205110
     78          1           0       -4.491540   -5.307278    4.988823
     79          1           0       -3.331531   -6.016678    3.850025
     80         12           0        5.332374    0.821855    0.554355
     81          6           0        5.429682   -2.175226   -1.417209
     82          6           0        4.205744   -1.094674    3.141294
     83          6           0        4.806908    3.497272    2.177145
     84          6           0        5.355308    2.620509   -2.430609
     85          7           0        4.912708   -1.343621    0.718245
     86          6           0        5.045497   -2.393863   -0.077794
     87          6           0        4.827702   -3.762528    0.621413
     88          6           0        3.910347   -3.265597    1.842236
     89          6           0        4.392081   -1.819353    1.937042
     90          6           0        2.426544   -3.254260    1.514295
     91          6           0        6.170660   -4.393421    1.131754
     92          6           0        6.074022   -5.863364    1.546098
     93          1           0        7.215859   -6.736048    1.287055
     94          7           0        5.086356    1.115479    2.501623
     95          6           0        4.641541    0.221554    3.409539
     96          6           0        4.621405    0.932254    4.697433
     97          6           0        4.933562    2.365647    4.447128
     98          6           0        4.933918    2.386224    2.998109
     99          6           0        4.404327    0.234336    6.008625
    100          6           0        5.177150    3.528515    5.360693
    101          8           0        5.195356    4.734111    4.925887
    102          6           0        5.300788    3.222096    6.793282
    103          7           0        4.899327    2.767475   -0.036714
    104          6           0        4.770002    3.752635    0.869194
    105          6           0        4.735000    5.106602    0.201417
    106          6           0        5.112335    4.840372   -1.329704
    107          6           0        5.217543    3.299773   -1.300215
    108          6           0        3.401594    5.850268    0.274793
    109          6           0        6.301862    5.651459   -1.912663
    110          6           0        7.592759    5.219015   -1.255406
    111          7           0        5.568192    0.353985   -1.541720
    112          6           0        5.519159    1.255333   -2.627656
    113          6           0        5.616904    0.452955   -3.864198
    114          6           0        5.693460   -0.871937   -3.408908
    115          6           0        5.626397   -0.895217   -1.989587
    116          6           0        5.578268    0.963461   -5.192358
    117          6           0        5.805059   -2.256866   -3.806654
    118          8           0        5.984570   -2.842452   -4.873710
    119          6           0        5.511921   -3.171554   -2.540242
    120          6           0        6.585894   -4.222180   -2.467514
    121          8           0        7.767781   -3.903710   -2.247702
    122          8           0        6.011712   -5.438919   -2.452373
    123          6           0        7.036059   -6.513949   -2.369700
    124          1           0        3.634830   -1.561274    3.944558
    125          1           0        4.734586    4.458119    2.691954
    126          1           0        5.468052    3.114134   -3.398236
    127          1           0        4.293159   -4.495343    0.028933
    128          1           0        4.142885   -3.805648    2.756362
    129          1           0        2.242544   -3.470427    0.472398
    130          1           0        2.078196   -2.260018    1.761672
    131          1           0        1.888391   -3.936193    2.178885
    132          1           0        6.433662   -3.942899    2.097467
    133          1           0        6.948869   -4.273740    0.403266
    134          1           0        5.145879   -6.330445    1.194917
    135          1           0        6.003513   -5.912933    2.635406
    136          1           0        4.037368   -0.789231    5.863574
    137          1           0        3.579510    0.749752    6.512486
    138          1           0        5.285784    0.264225    6.652689
    139          1           0        4.393927    2.730199    7.136945
    140          1           0        5.560939    4.167657    7.272983
    141          1           0        6.118269    2.505114    6.928411
    142          1           0        5.472710    5.770730    0.634805
    143          1           0        4.278219    5.085562   -2.003481
    144          1           0        3.485132    6.851460    0.738160
    145          1           0        2.697834    5.236100    0.820755
    146          1           0        2.896341    5.987716   -0.679685
    147          1           0        6.180923    6.714377   -1.689657
    148          1           0        6.402490    5.557593   -2.988795
    149          1           0        7.603897    5.799274   -0.327907
    150          1           0        8.444856    5.465701   -1.885577
    151          1           0        7.558316    4.158443   -0.980335
    152          1           0        6.351158    0.447861   -5.746698
    153          1           0        5.727858    2.041024   -5.208628
    154          1           0        4.560202    0.686014   -5.478413
    155          1           0        4.521069   -3.607519   -2.673310
    156          1           0        6.864919   -7.184238   -3.217701
    157          1           0        6.933759   -6.946821   -1.356821
    158          1           0        8.070898   -6.233387   -2.527371
 ---------------------------------------------------------------------
 Rotational constants (GHZ):           0.0203738           0.0112971           0.0103966
 Leave Link  202 at Sat Sep  4 05:35:58 2021, MaxMem= 23488102400 cpu:               0.3 elap:               0.0
 (Enter /sw/apps/gaussian-16.0/g16/l301.exe)
 Standard basis: def2SVP (5D, 7F)
 Ernie: Thresh=  0.10000D-02 Tol=  0.10000D-05 Strict=F.
 There are  1658 symmetry adapted cartesian basis functions of A   symmetry.
 There are  1572 symmetry adapted basis functions of A   symmetry.
  1572 basis functions,  2678 primitive gaussians,  1658 cartesian basis functions
   312 alpha electrons      312 beta electrons
       nuclear repulsion energy     14946.1235380159 Hartrees.
 IExCor=20419 DFT=T Ex+Corr=CAM-B3LYP ExCW=0 ScaHFX=  1.000000
 ScaDFX=  1.000000  1.000000  1.000000  0.810000 ScalE2=  1.000000  1.000000
 IRadAn=      5 IRanWt=     -1 IRanGd=            0 ICorTp=0 IEmpDi=  4
 HFx  wShort=  0.000000 wLong=  0.330000 cFull=  0.190000 cShort=  0.000000 cLong=  0.460000
 DFx  wShort=  0.000000 wLong=  0.330000 cFull=  0.190000 cShort=  0.000000 cLong=  0.460000
 NAtoms=  158 NActive=  158 NUniq=  158 SFac= 1.00D+00 NAtFMM=   60 NAOKFM=T Big=T
 Integral buffers will be    131072 words long.
 Raffenetti 1 integral format.
 Two-electron integral symmetry is turned on.
 Leave Link  301 at Sat Sep  4 05:35:58 2021, MaxMem= 23488102400 cpu:               1.5 elap:               0.1
 (Enter /sw/apps/gaussian-16.0/g16/l302.exe)
 NPDir=0 NMtPBC=     1 NCelOv=     1 NCel=       1 NClECP=     1 NCelD=      1
         NCelK=      1 NCelE2=     1 NClLst=     1 CellRange=     0.0.
 One-electron integrals computed using PRISM.
 One-electron integral symmetry used in STVInt
   1 Symmetry operations used in ECPInt.
 ECPInt:  NShTT=  271216 NPrTT=  987664 LenC2=  137555 LenP2D=  286742.
 LDataN:  DoStor=T MaxTD1= 4 Len=   56
 NBasis=  1572 RedAO= T EigKep=  3.36D-04  NBF=  1572
 NBsUse=  1572 1.00D-06 EigRej= -1.00D+00 NBFU=  1572
 Precomputing XC quadrature grid using
 IXCGrd= 4 IRadAn=           5 IRanWt=          -1 IRanGd=           0 AccXCQ= 0.00D+00.
 Generated NRdTot=       0 NPtTot=           0 NUsed=           0 NTot=          32
 NSgBfM=  1147  1126  1132  1142  1147 MxSgAt=   158 MxSgA2=   157.
 Leave Link  302 at Sat Sep  4 05:36:03 2021, MaxMem= 23488102400 cpu:             124.6 elap:               5.2
 (Enter /sw/apps/gaussian-16.0/g16/l303.exe)
 DipDrv:  MaxL=1.
 Leave Link  303 at Sat Sep  4 05:36:03 2021, MaxMem= 23488102400 cpu:               9.9 elap:               0.5
 (Enter /sw/apps/gaussian-16.0/g16/l308.exe)
 Leave Link  308 at Sat Sep  4 05:36:04 2021, MaxMem= 23488102400 cpu:              15.5 elap:               0.7
 (Enter /sw/apps/gaussian-16.0/g16/l401.exe)
 ExpMin= 3.36D-02 ExpMax= 4.95D+03 ExpMxC= 7.45D+02 IAcc=3 IRadAn=         5 AccDes= 0.00D+00
 Harris functional with IExCor=20419 and IRadAn=       5 diagonalized for initial guess.
 HarFok:  IExCor=20419 AccDes= 0.00D+00 IRadAn=         5 IDoV= 1 UseB2=F ITyADJ=14
 ICtDFT=  3500011 ScaDFX=  1.000000  1.000000  1.000000  1.000000
 FoFCou: FMM=F IPFlag=           0 FMFlag=      100000 FMFlg1=        2001
         NFxFlg=           0 DoJE=T BraDBF=F KetDBF=T FulRan=T
         wScrn=  0.000000 ICntrl=       500 IOpCl=  0 I1Cent=   200000004 NGrid=           0
         NMat0=    1 NMatS0=      1 NMatT0=    0 NMatD0=    1 NMtDS0=    0 NMtDT0=    0
 Petite list used in FoFCou.
 Harris En= -3918.65801415650    
 JPrj=0 DoOrth=F DoCkMO=F.
 Leave Link  401 at Sat Sep  4 05:36:12 2021, MaxMem= 23488102400 cpu:             176.6 elap:               7.4
 (Enter /sw/apps/gaussian-16.0/g16/l502.exe)
 Integral symmetry usage will be decided dynamically.
 Closed shell SCF:
 Using DIIS extrapolation, IDIIS=  1040.
 NGot= 23488102400 LenX= 23482547354 LenY= 23479796732
 Requested convergence on RMS density matrix=1.00D-08 within 128 cycles.
 Requested convergence on MAX density matrix=1.00D-06.
 Requested convergence on             energy=1.00D-06.
 No special actions if energy rises.
 Fock matrices will be formed incrementally for  20 cycles.

 Cycle   1  Pass 1  IDiag  1:
 FoFJK:  IHMeth= 1 ICntrl=       0 DoSepK=T KAlg= 0 I1Cent=           0 FoldK=F
 IRaf=         1 NMat=       1 IRICut=       1 DoRegI=T DoRafI=F ISym2E= 0 IDoP0=0 IntGTp=1.
 FoFCou: FMM=T IPFlag=           0 FMFlag=      100000 FMFlg1=        2001
         NFxFlg=           0 DoJE=T BraDBF=F KetDBF=F FulRan=T
         wScrn=  0.000000 ICntrl=       500 IOpCl=  0 I1Cent=           0 NGrid=           0
         NMat0=    1 NMatS0=      1 NMatT0=    0 NMatD0=    1 NMtDS0=    0 NMtDT0=    0
 Symmetry not used in FoFCou.
 FMM levels:  10  Number of levels for PrismC:   9
 E= -4068.95016744076    
 DIIS: error= 2.04D-02 at cycle   1 NSaved=   1.
 NSaved= 1 IEnMin= 1 EnMin= -4068.95016744076     IErMin= 1 ErrMin= 2.04D-02
 ErrMax= 2.04D-02  0.00D+00 EMaxC= 1.00D-01 BMatC= 1.69D+00 BMatP= 1.69D+00
 IDIUse=3 WtCom= 7.96D-01 WtEn= 2.04D-01
 Coeff-Com:  0.100D+01
 Coeff-En:   0.100D+01
 Coeff:      0.100D+01
 Gap=     0.120 Goal=   None    Shift=    0.000
 GapD=    0.120 DampG=1.000 DampE=0.500 DampFc=0.5000 IDamp=-1.
 Damping current iteration by 5.00D-01
 RMSDP=1.57D-03 MaxDP=1.36D-01              OVMax= 2.02D-01

 Cycle   2  Pass 1  IDiag  1:
 RMSU=  7.69D-04    CP:  9.82D-01
 E= -4069.33898085583     Delta-E=       -0.388813415073 Rises=F Damp=T
 DIIS: error= 1.27D-02 at cycle   2 NSaved=   2.
 NSaved= 2 IEnMin= 2 EnMin= -4069.33898085583     IErMin= 2 ErrMin= 1.27D-02
 ErrMax= 1.27D-02  0.00D+00 EMaxC= 1.00D-01 BMatC= 3.06D-01 BMatP= 1.69D+00
 IDIUse=3 WtCom= 8.73D-01 WtEn= 1.27D-01
 Coeff-Com: -0.214D+00 0.121D+01
 Coeff-En:   0.000D+00 0.100D+01
 Coeff:     -0.186D+00 0.119D+01
 Gap=     0.134 Goal=   None    Shift=    0.000
 RMSDP=7.65D-04 MaxDP=9.44D-02 DE=-3.89D-01 OVMax= 1.89D-01

 Cycle   3  Pass 1  IDiag  1:
 RMSU=  7.32D-04    CP:  9.68D-01  1.24D+00
 E= -4069.62862705037     Delta-E=       -0.289646194538 Rises=F Damp=F
 DIIS: error= 1.55D-02 at cycle   3 NSaved=   3.
 NSaved= 3 IEnMin= 3 EnMin= -4069.62862705037     IErMin= 2 ErrMin= 1.27D-02
 ErrMax= 1.55D-02  0.00D+00 EMaxC= 1.00D-01 BMatC= 2.01D-01 BMatP= 3.06D-01
 IDIUse=3 WtCom= 8.45D-01 WtEn= 1.55D-01
 Coeff-Com: -0.267D+00 0.651D+00 0.616D+00
 Coeff-En:   0.000D+00 0.000D+00 0.100D+01
 Coeff:     -0.226D+00 0.550D+00 0.676D+00
 Gap=     0.121 Goal=   None    Shift=    0.000
 RMSDP=5.08D-04 MaxDP=4.75D-02 DE=-2.90D-01 OVMax= 1.41D-01

 Cycle   4  Pass 1  IDiag  1:
 RMSU=  2.65D-04    CP:  9.65D-01  1.55D+00  5.06D-01
 E= -4069.76595167569     Delta-E=       -0.137324625321 Rises=F Damp=F
 DIIS: error= 7.04D-03 at cycle   4 NSaved=   4.
 NSaved= 4 IEnMin= 4 EnMin= -4069.76595167569     IErMin= 4 ErrMin= 7.04D-03
 ErrMax= 7.04D-03  0.00D+00 EMaxC= 1.00D-01 BMatC= 4.95D-02 BMatP= 2.01D-01
 IDIUse=3 WtCom= 9.30D-01 WtEn= 7.04D-02
 Coeff-Com: -0.109D+00 0.226D+00 0.408D+00 0.475D+00
 Coeff-En:   0.000D+00 0.000D+00 0.219D+00 0.781D+00
 Coeff:     -0.101D+00 0.210D+00 0.395D+00 0.496D+00
 Gap=     0.120 Goal=   None    Shift=    0.000
 RMSDP=2.00D-04 MaxDP=1.96D-02 DE=-1.37D-01 OVMax= 6.12D-02

 Cycle   5  Pass 1  IDiag  1:
 RMSU=  7.63D-05    CP:  9.64D-01  1.49D+00  6.89D-01  5.50D-01
 E= -4069.81094061270     Delta-E=       -0.044988937014 Rises=F Damp=F
 DIIS: error= 7.38D-04 at cycle   5 NSaved=   5.
 NSaved= 5 IEnMin= 5 EnMin= -4069.81094061270     IErMin= 5 ErrMin= 7.38D-04
 ErrMax= 7.38D-04  0.00D+00 EMaxC= 1.00D-01 BMatC= 1.18D-03 BMatP= 4.95D-02
 IDIUse=3 WtCom= 9.93D-01 WtEn= 7.38D-03
 Coeff-Com: -0.366D-01 0.720D-01 0.167D+00 0.251D+00 0.546D+00
 Coeff-En:   0.000D+00 0.000D+00 0.000D+00 0.000D+00 0.100D+01
 Coeff:     -0.364D-01 0.715D-01 0.166D+00 0.249D+00 0.550D+00
 Gap=     0.120 Goal=   None    Shift=    0.000
 RMSDP=4.23D-05 MaxDP=4.40D-03 DE=-4.50D-02 OVMax= 1.73D-02

 Cycle   6  Pass 1  IDiag  1:
 RMSU=  3.12D-05    CP:  9.64D-01  1.49D+00  6.80D-01  6.23D-01  7.44D-01
 E= -4069.81197696101     Delta-E=       -0.001036348309 Rises=F Damp=F
 DIIS: error= 1.96D-04 at cycle   6 NSaved=   6.
 NSaved= 6 IEnMin= 6 EnMin= -4069.81197696101     IErMin= 6 ErrMin= 1.96D-04
 ErrMax= 1.96D-04  0.00D+00 EMaxC= 1.00D-01 BMatC= 1.89D-04 BMatP= 1.18D-03
 IDIUse=3 WtCom= 9.98D-01 WtEn= 1.96D-03
 Coeff-Com:  0.192D-02-0.601D-02 0.124D-01 0.418D-01 0.311D+00 0.639D+00
 Coeff-En:   0.000D+00 0.000D+00 0.000D+00 0.000D+00 0.122D+00 0.878D+00
 Coeff:      0.191D-02-0.600D-02 0.124D-01 0.417D-01 0.310D+00 0.640D+00
 Gap=     0.120 Goal=   None    Shift=    0.000
 RMSDP=1.68D-05 MaxDP=1.19D-03 DE=-1.04D-03 OVMax= 7.20D-03

 Cycle   7  Pass 1  IDiag  1:
 RMSU=  1.10D-05    CP:  9.64D-01  1.50D+00  6.86D-01  6.21D-01  8.53D-01
                    CP:  7.32D-01
 E= -4069.81218410740     Delta-E=       -0.000207146382 Rises=F Damp=F
 DIIS: error= 9.53D-05 at cycle   7 NSaved=   7.
 NSaved= 7 IEnMin= 7 EnMin= -4069.81218410740     IErMin= 7 ErrMin= 9.53D-05
 ErrMax= 9.53D-05  0.00D+00 EMaxC= 1.00D-01 BMatC= 2.38D-05 BMatP= 1.89D-04
 IDIUse=1 WtCom= 1.00D+00 WtEn= 0.00D+00
 Coeff-Com:  0.448D-02-0.985D-02-0.870D-02-0.309D-02 0.109D+00 0.336D+00
 Coeff-Com:  0.572D+00
 Coeff:      0.448D-02-0.985D-02-0.870D-02-0.309D-02 0.109D+00 0.336D+00
 Coeff:      0.572D+00
 Gap=     0.120 Goal=   None    Shift=    0.000
 RMSDP=6.70D-06 MaxDP=1.18D-03 DE=-2.07D-04 OVMax= 3.51D-03

 Cycle   8  Pass 1  IDiag  1:
 RMSU=  4.74D-06    CP:  9.64D-01  1.50D+00  6.87D-01  6.26D-01  8.55D-01
                    CP:  8.58D-01  8.08D-01
 E= -4069.81221339208     Delta-E=       -0.000029284685 Rises=F Damp=F
 DIIS: error= 5.37D-05 at cycle   8 NSaved=   8.
 NSaved= 8 IEnMin= 8 EnMin= -4069.81221339208     IErMin= 8 ErrMin= 5.37D-05
 ErrMax= 5.37D-05  0.00D+00 EMaxC= 1.00D-01 BMatC= 4.86D-06 BMatP= 2.38D-05
 IDIUse=1 WtCom= 1.00D+00 WtEn= 0.00D+00
 Coeff-Com:  0.221D-02-0.438D-02-0.784D-02-0.122D-01-0.103D-01 0.342D-01
 Coeff-Com:  0.328D+00 0.671D+00
 Coeff:      0.221D-02-0.438D-02-0.784D-02-0.122D-01-0.103D-01 0.342D-01
 Coeff:      0.328D+00 0.671D+00
 Gap=     0.121 Goal=   None    Shift=    0.000
 RMSDP=3.34D-06 MaxDP=3.91D-04 DE=-2.93D-05 OVMax= 1.16D-03

 Cycle   9  Pass 1  IDiag  1:
 RMSU=  1.93D-06    CP:  9.64D-01  1.50D+00  6.87D-01  6.28D-01  8.72D-01
                    CP:  8.85D-01  1.00D+00  9.56D-01
 E= -4069.81222117697     Delta-E=       -0.000007784893 Rises=F Damp=F
 DIIS: error= 2.09D-05 at cycle   9 NSaved=   9.
 NSaved= 9 IEnMin= 9 EnMin= -4069.81222117697     IErMin= 9 ErrMin= 2.09D-05
 ErrMax= 2.09D-05  0.00D+00 EMaxC= 1.00D-01 BMatC= 7.25D-07 BMatP= 4.86D-06
 IDIUse=1 WtCom= 1.00D+00 WtEn= 0.00D+00
 Coeff-Com:  0.496D-03-0.832D-03-0.277D-02-0.614D-02-0.212D-01-0.387D-01
 Coeff-Com:  0.983D-01 0.336D+00 0.635D+00
 Coeff:      0.496D-03-0.832D-03-0.277D-02-0.614D-02-0.212D-01-0.387D-01
 Coeff:      0.983D-01 0.336D+00 0.635D+00
 Gap=     0.121 Goal=   None    Shift=    0.000
 RMSDP=1.41D-06 MaxDP=1.49D-04 DE=-7.78D-06 OVMax= 7.58D-04

 Cycle  10  Pass 1  IDiag  1:
 RMSU=  9.43D-07    CP:  9.64D-01  1.50D+00  6.87D-01  6.28D-01  8.75D-01
                    CP:  8.98D-01  1.05D+00  1.12D+00  1.05D+00
 E= -4069.81222279236     Delta-E=       -0.000001615386 Rises=F Damp=F
 DIIS: error= 1.05D-05 at cycle  10 NSaved=  10.
 NSaved=10 IEnMin=10 EnMin= -4069.81222279236     IErMin=10 ErrMin= 1.05D-05
 ErrMax= 1.05D-05  0.00D+00 EMaxC= 1.00D-01 BMatC= 1.67D-07 BMatP= 7.25D-07
 IDIUse=1 WtCom= 1.00D+00 WtEn= 0.00D+00
 Coeff-Com: -0.420D-03 0.882D-03 0.120D-02 0.106D-02-0.383D-02-0.307D-01
 Coeff-Com: -0.437D-01-0.717D-01 0.238D+00 0.909D+00
 Coeff:     -0.420D-03 0.882D-03 0.120D-02 0.106D-02-0.383D-02-0.307D-01
 Coeff:     -0.437D-01-0.717D-01 0.238D+00 0.909D+00
 Gap=     0.121 Goal=   None    Shift=    0.000
 RMSDP=1.22D-06 MaxDP=1.18D-04 DE=-1.62D-06 OVMax= 6.20D-04

 Cycle  11  Pass 1  IDiag  1:
 RMSU=  5.21D-07    CP:  9.64D-01  1.50D+00  6.88D-01  6.29D-01  8.78D-01
                    CP:  9.08D-01  1.09D+00  1.23D+00  1.39D+00  1.36D+00
 E= -4069.81222356869     Delta-E=       -0.000000776330 Rises=F Damp=F
 DIIS: error= 4.24D-06 at cycle  11 NSaved=  11.
 NSaved=11 IEnMin=11 EnMin= -4069.81222356869     IErMin=11 ErrMin= 4.24D-06
 ErrMax= 4.24D-06  0.00D+00 EMaxC= 1.00D-01 BMatC= 6.44D-08 BMatP= 1.67D-07
 IDIUse=1 WtCom= 1.00D+00 WtEn= 0.00D+00
 Coeff-Com: -0.335D-03 0.653D-03 0.134D-02 0.212D-02 0.436D-02-0.867D-02
 Coeff-Com: -0.413D-01-0.130D+00-0.333D-01 0.482D+00 0.724D+00
 Coeff:     -0.335D-03 0.653D-03 0.134D-02 0.212D-02 0.436D-02-0.867D-02
 Coeff:     -0.413D-01-0.130D+00-0.333D-01 0.482D+00 0.724D+00
 Gap=     0.121 Goal=   None    Shift=    0.000
 RMSDP=6.82D-07 MaxDP=6.11D-05 DE=-7.76D-07 OVMax= 3.68D-04

 Cycle  12  Pass 1  IDiag  1:
 RMSU=  2.65D-07    CP:  9.64D-01  1.50D+00  6.88D-01  6.29D-01  8.79D-01
                    CP:  9.10D-01  1.11D+00  1.29D+00  1.55D+00  1.75D+00
                    CP:  1.19D+00
 E= -4069.81222383063     Delta-E=       -0.000000261938 Rises=F Damp=F
 DIIS: error= 2.58D-06 at cycle  12 NSaved=  12.
 NSaved=12 IEnMin=12 EnMin= -4069.81222383063     IErMin=12 ErrMin= 2.58D-06
 ErrMax= 2.58D-06  0.00D+00 EMaxC= 1.00D-01 BMatC= 1.54D-08 BMatP= 6.44D-08
 IDIUse=1 WtCom= 1.00D+00 WtEn= 0.00D+00
 Coeff-Com: -0.123D-04 0.786D-05 0.221D-03 0.566D-03 0.343D-02 0.345D-02
 Coeff-Com:  0.175D-02-0.365D-01-0.703D-01-0.525D-01 0.254D+00 0.896D+00
 Coeff:     -0.123D-04 0.786D-05 0.221D-03 0.566D-03 0.343D-02 0.345D-02
 Coeff:      0.175D-02-0.365D-01-0.703D-01-0.525D-01 0.254D+00 0.896D+00
 Gap=     0.121 Goal=   None    Shift=    0.000
 RMSDP=4.26D-07 MaxDP=2.97D-05 DE=-2.62D-07 OVMax= 2.47D-04

 Cycle  13  Pass 1  IDiag  1:
 RMSU=  1.66D-07    CP:  9.64D-01  1.50D+00  6.88D-01  6.29D-01  8.79D-01
                    CP:  9.10D-01  1.12D+00  1.32D+00  1.65D+00  1.97D+00
                    CP:  1.59D+00  1.24D+00
 E= -4069.81222392061     Delta-E=       -0.000000089978 Rises=F Damp=F
 DIIS: error= 1.35D-06 at cycle  13 NSaved=  13.
 NSaved=13 IEnMin=13 EnMin= -4069.81222392061     IErMin=13 ErrMin= 1.35D-06
 ErrMax= 1.35D-06  0.00D+00 EMaxC= 1.00D-01 BMatC= 8.66D-09 BMatP= 1.54D-08
 IDIUse=1 WtCom= 1.00D+00 WtEn= 0.00D+00
 Coeff-Com:  0.119D-03-0.243D-03-0.362D-03-0.444D-03 0.678D-03 0.483D-02
 Coeff-Com:  0.188D-01 0.227D-01-0.329D-01-0.237D+00-0.162D+00 0.594D+00
 Coeff-Com:  0.792D+00
 Coeff:      0.119D-03-0.243D-03-0.362D-03-0.444D-03 0.678D-03 0.483D-02
 Coeff:      0.188D-01 0.227D-01-0.329D-01-0.237D+00-0.162D+00 0.594D+00
 Coeff:      0.792D+00
 Gap=     0.121 Goal=   None    Shift=    0.000
 RMSDP=3.44D-07 MaxDP=2.24D-05 DE=-9.00D-08 OVMax= 1.98D-04

 Cycle  14  Pass 1  IDiag  1:
 RMSU=  7.67D-08    CP:  9.64D-01  1.50D+00  6.88D-01  6.29D-01  8.79D-01
                    CP:  9.11D-01  1.13D+00  1.34D+00  1.73D+00  2.16D+00
                    CP:  1.85D+00  1.77D+00  1.10D+00
 E= -4069.81222395816     Delta-E=       -0.000000037558 Rises=F Damp=F
 DIIS: error= 7.03D-07 at cycle  14 NSaved=  14.
 NSaved=14 IEnMin=14 EnMin= -4069.81222395816     IErMin=14 ErrMin= 7.03D-07
 ErrMax= 7.03D-07  0.00D+00 EMaxC= 1.00D-01 BMatC= 1.30D-09 BMatP= 8.66D-09
 IDIUse=1 WtCom= 1.00D+00 WtEn= 0.00D+00
 Coeff-Com:  0.681D-04-0.134D-03-0.251D-03-0.392D-03-0.455D-03 0.123D-02
 Coeff-Com:  0.104D-01 0.197D-01 0.443D-02-0.101D+00-0.147D+00 0.910D-01
 Coeff-Com:  0.404D+00 0.719D+00
 Coeff:      0.681D-04-0.134D-03-0.251D-03-0.392D-03-0.455D-03 0.123D-02
 Coeff:      0.104D-01 0.197D-01 0.443D-02-0.101D+00-0.147D+00 0.910D-01
 Coeff:      0.404D+00 0.719D+00
 Gap=     0.121 Goal=   None    Shift=    0.000
 RMSDP=1.06D-07 MaxDP=6.86D-06 DE=-3.76D-08 OVMax= 5.78D-05

 Cycle  15  Pass 1  IDiag  1:
 RMSU=  3.85D-08    CP:  9.64D-01  1.50D+00  6.88D-01  6.29D-01  8.79D-01
                    CP:  9.10D-01  1.13D+00  1.35D+00  1.74D+00  2.21D+00
                    CP:  1.96D+00  1.91D+00  1.34D+00  1.03D+00
 E= -4069.81222396254     Delta-E=       -0.000000004380 Rises=F Damp=F
 DIIS: error= 3.78D-07 at cycle  15 NSaved=  15.
 NSaved=15 IEnMin=15 EnMin= -4069.81222396254     IErMin=15 ErrMin= 3.78D-07
 ErrMax= 3.78D-07  0.00D+00 EMaxC= 1.00D-01 BMatC= 2.32D-10 BMatP= 1.30D-09
 IDIUse=1 WtCom= 1.00D+00 WtEn= 0.00D+00
 Coeff-Com:  0.681D-05-0.118D-04-0.374D-04-0.884D-04-0.298D-03-0.497D-03
 Coeff-Com:  0.127D-02 0.294D-02 0.860D-02-0.141D-03-0.325D-01-0.709D-01
 Coeff-Com:  0.321D-01 0.302D+00 0.758D+00
 Coeff:      0.681D-05-0.118D-04-0.374D-04-0.884D-04-0.298D-03-0.497D-03
 Coeff:      0.127D-02 0.294D-02 0.860D-02-0.141D-03-0.325D-01-0.709D-01
 Coeff:      0.321D-01 0.302D+00 0.758D+00
 Gap=     0.121 Goal=   None    Shift=    0.000
 RMSDP=3.99D-08 MaxDP=2.51D-06 DE=-4.38D-09 OVMax= 2.58D-05

 Cycle  16  Pass 1  IDiag  1:
 RMSU=  1.86D-08    CP:  9.64D-01  1.50D+00  6.88D-01  6.29D-01  8.79D-01
                    CP:  9.10D-01  1.13D+00  1.35D+00  1.75D+00  2.22D+00
                    CP:  1.99D+00  1.97D+00  1.42D+00  1.24D+00  1.14D+00
 E= -4069.81222396324     Delta-E=       -0.000000000691 Rises=F Damp=F
 DIIS: error= 1.82D-07 at cycle  16 NSaved=  16.
 NSaved=16 IEnMin=16 EnMin= -4069.81222396324     IErMin=16 ErrMin= 1.82D-07
 ErrMax= 1.82D-07  0.00D+00 EMaxC= 1.00D-01 BMatC= 8.41D-11 BMatP= 2.32D-10
 IDIUse=1 WtCom= 1.00D+00 WtEn= 0.00D+00
 Coeff-Com: -0.137D-04 0.279D-04 0.449D-04 0.505D-04-0.314D-04-0.619D-03
 Coeff-Com: -0.178D-02-0.412D-02 0.416D-02 0.248D-01 0.206D-01-0.631D-01
 Coeff-Com: -0.804D-01-0.349D-01 0.395D+00 0.740D+00
 Coeff:     -0.137D-04 0.279D-04 0.449D-04 0.505D-04-0.314D-04-0.619D-03
 Coeff:     -0.178D-02-0.412D-02 0.416D-02 0.248D-01 0.206D-01-0.631D-01
 Coeff:     -0.804D-01-0.349D-01 0.395D+00 0.740D+00
 Gap=     0.121 Goal=   None    Shift=    0.000
 RMSDP=2.28D-08 MaxDP=1.62D-06 DE=-6.91D-10 OVMax= 1.40D-05

 Cycle  17  Pass 1  IDiag  1:
 RMSU=  1.05D-08    CP:  9.64D-01  1.50D+00  6.88D-01  6.29D-01  8.79D-01
                    CP:  9.10D-01  1.13D+00  1.35D+00  1.75D+00  2.23D+00
                    CP:  2.00D+00  1.99D+00  1.46D+00  1.34D+00  1.43D+00
                    CP:  1.23D+00
 E= -4069.81222396373     Delta-E=       -0.000000000491 Rises=F Damp=F
 DIIS: error= 1.19D-07 at cycle  17 NSaved=  17.
 NSaved=17 IEnMin=17 EnMin= -4069.81222396373     IErMin=17 ErrMin= 1.19D-07
 ErrMax= 1.19D-07  0.00D+00 EMaxC= 1.00D-01 BMatC= 1.93D-11 BMatP= 8.41D-11
 IDIUse=1 WtCom= 1.00D+00 WtEn= 0.00D+00
 Coeff-Com: -0.769D-05 0.150D-04 0.299D-04 0.437D-04 0.809D-04-0.145D-03
 Coeff-Com: -0.948D-03-0.291D-02 0.854D-04 0.101D-01 0.181D-01-0.928D-02
 Coeff-Com: -0.380D-01-0.101D+00-0.215D-01 0.311D+00 0.834D+00
 Coeff:     -0.769D-05 0.150D-04 0.299D-04 0.437D-04 0.809D-04-0.145D-03
 Coeff:     -0.948D-03-0.291D-02 0.854D-04 0.101D-01 0.181D-01-0.928D-02
 Coeff:     -0.380D-01-0.101D+00-0.215D-01 0.311D+00 0.834D+00
 Gap=     0.121 Goal=   None    Shift=    0.000
 RMSDP=1.35D-08 MaxDP=9.64D-07 DE=-4.91D-10 OVMax= 7.96D-06

 Cycle  18  Pass 1  IDiag  1:
 RMSU=  5.10D-09    CP:  9.64D-01  1.50D+00  6.88D-01  6.29D-01  8.79D-01
                    CP:  9.10D-01  1.13D+00  1.35D+00  1.75D+00  2.23D+00
                    CP:  2.00D+00  2.00D+00  1.48D+00  1.40D+00  1.60D+00
                    CP:  1.63D+00  1.36D+00
 E= -4069.81222396391     Delta-E=       -0.000000000186 Rises=F Damp=F
 DIIS: error= 5.78D-08 at cycle  18 NSaved=  18.
 NSaved=18 IEnMin=18 EnMin= -4069.81222396391     IErMin=18 ErrMin= 5.78D-08
 ErrMax= 5.78D-08  0.00D+00 EMaxC= 1.00D-01 BMatC= 7.50D-12 BMatP= 1.93D-11
 IDIUse=1 WtCom= 1.00D+00 WtEn= 0.00D+00
 Coeff-Com:  0.102D-05-0.236D-05-0.807D-06 0.323D-05 0.640D-04 0.145D-03
 Coeff-Com:  0.258D-03-0.109D-03-0.112D-02-0.445D-02 0.165D-02 0.172D-01
 Coeff-Com:  0.135D-01-0.391D-01-0.151D+00-0.140D+00 0.389D+00 0.914D+00
 Coeff:      0.102D-05-0.236D-05-0.807D-06 0.323D-05 0.640D-04 0.145D-03
 Coeff:      0.258D-03-0.109D-03-0.112D-02-0.445D-02 0.165D-02 0.172D-01
 Coeff:      0.135D-01-0.391D-01-0.151D+00-0.140D+00 0.389D+00 0.914D+00
 Gap=     0.121 Goal=   None    Shift=    0.000
 RMSDP=1.07D-08 MaxDP=7.24D-07 DE=-1.86D-10 OVMax= 6.97D-06

 Cycle  19  Pass 1  IDiag  1:
 RMSU=  3.12D-09    CP:  9.64D-01  1.50D+00  6.88D-01  6.29D-01  8.79D-01
                    CP:  9.10D-01  1.13D+00  1.35D+00  1.75D+00  2.23D+00
                    CP:  2.01D+00  2.01D+00  1.49D+00  1.44D+00  1.73D+00
                    CP:  1.93D+00  1.88D+00  1.24D+00
 E= -4069.81222396375     Delta-E=        0.000000000160 Rises=F Damp=F
 DIIS: error= 4.35D-08 at cycle  19 NSaved=  19.
 NSaved=19 IEnMin=18 EnMin= -4069.81222396391     IErMin=19 ErrMin= 4.35D-08
 ErrMax= 4.35D-08  0.00D+00 EMaxC= 1.00D-01 BMatC= 2.40D-12 BMatP= 7.50D-12
 IDIUse=1 WtCom= 1.00D+00 WtEn= 0.00D+00
 Coeff-Com:  0.317D-05-0.642D-05-0.105D-04-0.127D-04 0.180D-04 0.137D-03
 Coeff-Com:  0.501D-03 0.852D-03-0.679D-03-0.661D-02-0.516D-02 0.139D-01
 Coeff-Com:  0.225D-01 0.887D-02-0.877D-01-0.202D+00-0.265D-01 0.563D+00
 Coeff-Com:  0.718D+00
 Coeff:      0.317D-05-0.642D-05-0.105D-04-0.127D-04 0.180D-04 0.137D-03
 Coeff:      0.501D-03 0.852D-03-0.679D-03-0.661D-02-0.516D-02 0.139D-01
 Coeff:      0.225D-01 0.887D-02-0.877D-01-0.202D+00-0.265D-01 0.563D+00
 Coeff:      0.718D+00
 Gap=     0.121 Goal=   None    Shift=    0.000
 RMSDP=5.83D-09 MaxDP=3.82D-07 DE= 1.60D-10 OVMax= 3.37D-06

 SCF Done:  E(RCAM-B3LYP) =  -4069.81222396     A.U. after   19 cycles
            NFock= 19  Conv=0.58D-08     -V/T= 2.0102
 KE= 4.028802084770D+03 PE=-3.937332776856D+04 EE= 1.632858992181D+04
 Leave Link  502 at Sat Sep  4 05:45:58 2021, MaxMem= 23488102400 cpu:           13477.6 elap:             585.9
 (Enter /sw/apps/gaussian-16.0/g16/l801.exe)
 DoSCS=F DFT=T ScalE2(SS,OS)=  1.000000  1.000000
 ExpMin= 3.36D-02 ExpMax= 4.95D+03 ExpMxC= 7.45D+02 IAcc=3 IRadAn=         5 AccDes= 0.00D+00
 HarFok:  IExCor=  205 AccDes= 0.00D+00 IRadAn=         5 IDoV=-2 UseB2=F ITyADJ=14
 ICtDFT= 12500011 ScaDFX=  1.000000  1.000000  1.000000  1.000000
 GSVD:  LWork=       -9588 too small for GESVD, short by       45590 words or       45590 for optimal perf.
 Largest valence mixing into a core orbital is  2.03D-04
 Largest core mixing into a valence orbital is  5.24D-05
 Range of M.O.s used for correlation:    95  1572
 NBasis=  1572 NAE=   312 NBE=   312 NFC=    94 NFV=     0
 NROrb=   1478 NOA=   218 NOB=   218 NVA=  1260 NVB=  1260
 Leave Link  801 at Sat Sep  4 05:45:58 2021, MaxMem= 23488102400 cpu:               8.7 elap:               0.4
 (Enter /sw/apps/gaussian-16.0/g16/l914.exe)
 RHF ground state
 Two-electron integrals replicated using symmetry.
 MDV= 23488102400 DFT=T DoStab=F Mixed=T DoRPA=T DoScal=F NonHer=T
 Making orbital integer symmetry assigments:
 Orbital symmetries:
       Occupied  (A) (A) (A) (A) (A) (A) (A) (A) (A) (A) (A) (A)
                 (A) (A) (A) (A) (A) (A) (A) (A) (A) (A) (A) (A)
                 (A) (A) (A) (A) (A) (A) (A) (A) (A) (A) (A) (A)
                 (A) (A) (A) (A) (A) (A) (A) (A) (A) (A) (A) (A)
                 (A) (A) (A) (A) (A) (A) (A) (A) (A) (A) (A) (A)
                 (A) (A) (A) (A) (A) (A) (A) (A) (A) (A) (A) (A)
                 (A) (A) (A) (A) (A) (A) (A) (A) (A) (A) (A) (A)
                 (A) (A) (A) (A) (A) (A) (A) (A) (A) (A) (A) (A)
                 (A) (A) (A) (A) (A) (A) (A) (A) (A) (A) (A) (A)
                 (A) (A) (A) (A) (A) (A) (A) (A) (A) (A) (A) (A)
                 (A) (A) (A) (A) (A) (A) (A) (A) (A) (A) (A) (A)
                 (A) (A) (A) (A) (A) (A) (A) (A) (A) (A) (A) (A)
                 (A) (A) (A) (A) (A) (A) (A) (A) (A) (A) (A) (A)
                 (A) (A) (A) (A) (A) (A) (A) (A) (A) (A) (A) (A)
                 (A) (A) (A) (A) (A) (A) (A) (A) (A) (A) (A) (A)
                 (A) (A) (A) (A) (A) (A) (A) (A) (A) (A) (A) (A)
                 (A) (A) (A) (A) (A) (A) (A) (A) (A) (A) (A) (A)
                 (A) (A) (A) (A) (A) (A) (A) (A) (A) (A) (A) (A)
                 (A) (A) (A) (A) (A) (A) (A) (A) (A) (A) (A) (A)
                 (A) (A) (A) (A) (A) (A) (A) (A) (A) (A) (A) (A)
                 (A) (A) (A) (A) (A) (A) (A) (A) (A) (A) (A) (A)
                 (A) (A) (A) (A) (A) (A) (A) (A) (A) (A) (A) (A)
                 (A) (A) (A) (A) (A) (A) (A) (A) (A) (A) (A) (A)
                 (A) (A) (A) (A) (A) (A) (A) (A) (A) (A) (A) (A)
                 (A) (A) (A) (A) (A) (A) (A) (A) (A) (A) (A) (A)
                 (A) (A) (A) (A) (A) (A) (A) (A) (A) (A) (A) (A)
       Virtual   (A) (A) (A) (A) (A) (A) (A) (A) (A) (A) (A) (A)
                 (A) (A) (A) (A) (A) (A) (A) (A) (A) (A) (A) (A)
                 (A) (A) (A) (A) (A) (A) (A) (A) (A) (A) (A) (A)
                 (A) (A) (A) (A) (A) (A) (A) (A) (A) (A) (A) (A)
                 (A) (A) (A) (A) (A) (A) (A) (A) (A) (A) (A) (A)
                 (A) (A) (A) (A) (A) (A) (A) (A) (A) (A) (A) (A)
                 (A) (A) (A) (A) (A) (A) (A) (A) (A) (A) (A) (A)
                 (A) (A) (A) (A) (A) (A) (A) (A) (A) (A) (A) (A)
                 (A) (A) (A) (A) (A) (A) (A) (A) (A) (A) (A) (A)
                 (A) (A) (A) (A) (A) (A) (A) (A) (A) (A) (A) (A)
                 (A) (A) (A) (A) (A) (A) (A) (A) (A) (A) (A) (A)
                 (A) (A) (A) (A) (A) (A) (A) (A) (A) (A) (A) (A)
                 (A) (A) (A) (A) (A) (A) (A) (A) (A) (A) (A) (A)
                 (A) (A) (A) (A) (A) (A) (A) (A) (A) (A) (A) (A)
                 (A) (A) (A) (A) (A) (A) (A) (A) (A) (A) (A) (A)
                 (A) (A) (A) (A) (A) (A) (A) (A) (A) (A) (A) (A)
                 (A) (A) (A) (A) (A) (A) (A) (A) (A) (A) (A) (A)
                 (A) (A) (A) (A) (A) (A) (A) (A) (A) (A) (A) (A)
                 (A) (A) (A) (A) (A) (A) (A) (A) (A) (A) (A) (A)
                 (A) (A) (A) (A) (A) (A) (A) (A) (A) (A) (A) (A)
                 (A) (A) (A) (A) (A) (A) (A) (A) (A) (A) (A) (A)
                 (A) (A) (A) (A) (A) (A) (A) (A) (A) (A) (A) (A)
                 (A) (A) (A) (A) (A) (A) (A) (A) (A) (A) (A) (A)
                 (A) (A) (A) (A) (A) (A) (A) (A) (A) (A) (A) (A)
                 (A) (A) (A) (A) (A) (A) (A) (A) (A) (A) (A) (A)
                 (A) (A) (A) (A) (A) (A) (A) (A) (A) (A) (A) (A)
                 (A) (A) (A) (A) (A) (A) (A) (A) (A) (A) (A) (A)
                 (A) (A) (A) (A) (A) (A) (A) (A) (A) (A) (A) (A)
                 (A) (A) (A) (A) (A) (A) (A) (A) (A) (A) (A) (A)
                 (A) (A) (A) (A) (A) (A) (A) (A) (A) (A) (A) (A)
                 (A) (A) (A) (A) (A) (A) (A) (A) (A) (A) (A) (A)
                 (A) (A) (A) (A) (A) (A) (A) (A) (A) (A) (A) (A)
                 (A) (A) (A) (A) (A) (A) (A) (A) (A) (A) (A) (A)
                 (A) (A) (A) (A) (A) (A) (A) (A) (A) (A) (A) (A)
                 (A) (A) (A) (A) (A) (A) (A) (A) (A) (A) (A) (A)
                 (A) (A) (A) (A) (A) (A) (A) (A) (A) (A) (A) (A)
                 (A) (A) (A) (A) (A) (A) (A) (A) (A) (A) (A) (A)
                 (A) (A) (A) (A) (A) (A) (A) (A) (A) (A) (A) (A)
                 (A) (A) (A) (A) (A) (A) (A) (A) (A) (A) (A) (A)
                 (A) (A) (A) (A) (A) (A) (A) (A) (A) (A) (A) (A)
                 (A) (A) (A) (A) (A) (A) (A) (A) (A) (A) (A) (A)
                 (A) (A) (A) (A) (A) (A) (A) (A) (A) (A) (A) (A)
                 (A) (A) (A) (A) (A) (A) (A) (A) (A) (A) (A) (A)
                 (A) (A) (A) (A) (A) (A) (A) (A) (A) (A) (A) (A)
                 (A) (A) (A) (A) (A) (A) (A) (A) (A) (A) (A) (A)
                 (A) (A) (A) (A) (A) (A) (A) (A) (A) (A) (A) (A)
                 (A) (A) (A) (A) (A) (A) (A) (A) (A) (A) (A) (A)
                 (A) (A) (A) (A) (A) (A) (A) (A) (A) (A) (A) (A)
                 (A) (A) (A) (A) (A) (A) (A) (A) (A) (A) (A) (A)
                 (A) (A) (A) (A) (A) (A) (A) (A) (A) (A) (A) (A)
                 (A) (A) (A) (A) (A) (A) (A) (A) (A) (A) (A) (A)
                 (A) (A) (A) (A) (A) (A) (A) (A) (A) (A) (A) (A)
                 (A) (A) (A) (A) (A) (A) (A) (A) (A) (A) (A) (A)
                 (A) (A) (A) (A) (A) (A) (A) (A) (A) (A) (A) (A)
                 (A) (A) (A) (A) (A) (A) (A) (A) (A) (A) (A) (A)
                 (A) (A) (A) (A) (A) (A) (A) (A) (A) (A) (A) (A)
                 (A) (A) (A) (A) (A) (A) (A) (A) (A) (A) (A) (A)
                 (A) (A) (A) (A) (A) (A) (A) (A) (A) (A) (A) (A)
                 (A) (A) (A) (A) (A) (A) (A) (A) (A) (A) (A) (A)
                 (A) (A) (A) (A) (A) (A) (A) (A) (A) (A) (A) (A)
                 (A) (A) (A) (A) (A) (A) (A) (A) (A) (A) (A) (A)
                 (A) (A) (A) (A) (A) (A) (A) (A) (A) (A) (A) (A)
                 (A) (A) (A) (A) (A) (A) (A) (A) (A) (A) (A) (A)
                 (A) (A) (A) (A) (A) (A) (A) (A) (A) (A) (A) (A)
                 (A) (A) (A) (A) (A) (A) (A) (A) (A) (A) (A) (A)
                 (A) (A) (A) (A) (A) (A) (A) (A) (A) (A) (A) (A)
                 (A) (A) (A) (A) (A) (A) (A) (A) (A) (A) (A) (A)
                 (A) (A) (A) (A) (A) (A) (A) (A) (A) (A) (A) (A)
                 (A) (A) (A) (A) (A) (A) (A) (A) (A) (A) (A) (A)
                 (A) (A) (A) (A) (A) (A) (A) (A) (A) (A) (A) (A)
                 (A) (A) (A) (A) (A) (A) (A) (A) (A) (A) (A) (A)
                 (A) (A) (A) (A) (A) (A) (A) (A) (A) (A) (A) (A)
                 (A) (A) (A) (A) (A) (A) (A) (A) (A) (A) (A) (A)
                 (A) (A) (A) (A) (A) (A) (A) (A) (A) (A) (A) (A)
                 (A) (A) (A) (A) (A) (A) (A) (A) (A) (A) (A) (A)
                 (A) (A) (A) (A) (A) (A) (A) (A) (A) (A) (A) (A)
                 (A) (A) (A) (A) (A) (A) (A) (A) (A) (A) (A) (A)
                 (A) (A) (A) (A) (A) (A) (A) (A) (A) (A) (A) (A)
                 (A) (A) (A) (A) (A) (A) (A) (A) (A) (A) (A) (A)
                 (A) (A) (A) (A) (A) (A) (A) (A) (A) (A) (A) (A)
                 (A) (A) (A) (A) (A) (A) (A) (A) (A) (A) (A) (A)
                 (A) (A) (A) (A) (A) (A) (A) (A) (A) (A) (A) (A)
                 (A) (A) (A) (A) (A) (A) (A) (A) (A) (A) (A) (A)
                 (A) (A) (A) (A) (A) (A) (A) (A) (A) (A) (A) (A)
                 (A) (A) (A) (A) (A) (A) (A) (A) (A) (A) (A) (A)
                 (A) (A) (A) (A) (A) (A) (A) (A) (A) (A) (A) (A)
                 (A) (A) (A) (A) (A) (A) (A) (A) (A) (A) (A) (A)
                 (A) (A) (A) (A) (A) (A) (A) (A) (A) (A) (A) (A)
                 (A) (A) (A) (A) (A) (A) (A) (A) (A) (A) (A) (A)
                 (A) (A) (A) (A) (A) (A) (A) (A) (A) (A) (A) (A)
                 (A) (A) (A) (A) (A) (A) (A) (A) (A) (A) (A) (A)
                 (A) (A) (A) (A) (A) (A) (A) (A) (A) (A) (A) (A)
                 (A) (A) (A) (A) (A) (A) (A) (A) (A) (A) (A) (A)
                 (A) (A) (A) (A) (A) (A) (A) (A) (A) (A) (A) (A)
                 (A) (A) (A) (A) (A) (A) (A) (A) (A) (A) (A) (A)
                 (A) (A) (A) (A) (A) (A) (A) (A) (A) (A) (A) (A)
                 (A) (A) (A) (A) (A) (A) (A) (A) (A) (A) (A) (A)
                 (A) (A) (A) (A) (A) (A) (A) (A) (A) (A) (A) (A)
                 (A) (A) (A) (A) (A) (A) (A) (A) (A) (A) (A) (A)
                 (A) (A) (A) (A) (A) (A) (A) (A) (A) (A) (A) (A)
                 (A) (A) (A) (A) (A) (A) (A) (A) (A) (A) (A) (A)
                 (A) (A) (A) (A) (A) (A) (A) (A) (A) (A) (A) (A)
                 (A) (A) (A) (A) (A) (A) (A) (A) (A) (A) (A) (A)
                 (A) (A) (A) (A) (A) (A) (A) (A) (A) (A) (A) (A)
                 (A) (A) (A) (A) (A) (A) (A) (A) (A) (A) (A) (A)
    20 initial guesses have been made.
 Convergence on wavefunction:    0.001000000000000
 Davidson Disk Diagonalization:  ConvIn= 1.00D-03 SkipCon=T Conv= 1.00D-03.
 Max sub-space:  2000 roots to seek:    20 dimension of matrix:       549360
 Iteration     1 Dimension    20 NMult     0 NNew     20
 CISAX will form    20 AO SS matrices at one time.
 NMat=    20 NSing=    20 JSym2X= 0.
 FoFJK:  IHMeth= 1 ICntrl=       0 DoSepK=T KAlg= 0 I1Cent=           0 FoldK=F
 IRaf=         1 NMat=      40 IRICut=       1 DoRegI=T DoRafI=F ISym2E= 0 IDoP0=3 IntGTp=3.
 FoFCou: FMM=T IPFlag=           0 FMFlag=      100000 FMFlg1=        2001
         NFxFlg=           0 DoJE=F BraDBF=F KetDBF=F FulRan=T
         wScrn=  0.000000 ICntrl=       500 IOpCl=  0 I1Cent=           0 NGrid=           0
         NMat0=   20 NMatS0=     20 NMatT0=    0 NMatD0=   20 NMtDS0=    0 NMtDT0=    0
 Symmetry not used in FoFCou.
 FMM levels:  10  Number of levels for PrismC:   9
 New state      2 was old state      7
 New state      3 was old state      6
 New state      5 was old state      2
 Excitation Energies [eV] at current iteration:
 Root      1 :     2.476004931480311
 Root      2 :     2.611395092513468
 Root      3 :     2.620224304299675
 Root      4 :     2.628985778211358
 Root      5 :     2.660251118313529
 Root      6 :     2.710518150598692
 Root      7 :     3.261623066399022
 Root      8 :     3.428600340297331
 Root      9 :     3.628425041458803
 Root     10 :     3.671366288080314
 Root     11 :     3.740140370963885
 Root     12 :     3.758171767002325
 Root     13 :     4.279552732942056
 Root     14 :     4.325750217473151
 Root     15 :     4.380627181786306
 Root     16 :     4.563322048040505
 Root     17 :     4.706637931362176
 Root     18 :     4.743840202054527
 Root     19 :     4.855277207484503
 Root     20 :     4.858284038440071
 Iteration     2 Dimension    30 NMult    20 NNew     10
 CISAX will form    10 AO SS matrices at one time.
 NMat=    10 NSing=    10 JSym2X= 0.
 New state      1 was old state      5
 Root      1 not converged, maximum delta is    0.185397051042253
 Root      2 not converged, maximum delta is    0.110955278135180
 Root      3 not converged, maximum delta is    0.125632955258277
 New state      4 was old state      1
 Root      4 not converged, maximum delta is    0.002259605921631
 New state      5 was old state      4
 Root      5 not converged, maximum delta is    0.004256428340228
 Excitation Energies [eV] at current iteration:
 Root      1 :     1.790310468885693   Change is   -0.869940649427836
 Root      2 :     2.209560810396716   Change is   -0.401834282116752
 Root      3 :     2.239040202814682   Change is   -0.381184101484993
 Root      4 :     2.475576687506927   Change is   -0.000428243973384
 Root      5 :     2.628443788836186   Change is   -0.000541989375171
 Iteration     3 Dimension    40 NMult    30 NNew     10
 CISAX will form    10 AO SS matrices at one time.
 NMat=    10 NSing=    10 JSym2X= 0.
 Root      1 not converged, maximum delta is    0.056785561574833
 Root      2 not converged, maximum delta is    0.293014967636829
 Root      3 not converged, maximum delta is    0.117465007219908
 No map to state      4
 New state      5 was old state      4
 Root      5 has converged.
 Excitation Energies [eV] at current iteration:
 Root      1 :     1.683989238033081   Change is   -0.106321230852613
 Root      2 :     1.962150603198602   Change is   -0.247410207198114
 Root      3 :     2.195097843235443   Change is   -0.043942359579239
 Root      4 :     2.270516202960256
 Root      5 :     2.475574118446189   Change is   -0.000002569060738
 Iteration     4 Dimension    48 NMult    40 NNew      8
 CISAX will form     8 AO SS matrices at one time.
 NMat=     8 NSing=     8 JSym2X= 0.
 Root      1 not converged, maximum delta is    0.012495514072000
 Root      2 not converged, maximum delta is    0.212047945377873
 Root      3 not converged, maximum delta is    0.284373521263360
 Root      4 not converged, maximum delta is    0.256166076261610
 Root      5 has converged.
 Excitation Energies [eV] at current iteration:
 Root      1 :     1.667257432087341   Change is   -0.016731805945740
 Root      2 :     1.713723169394128   Change is   -0.248427433804474
 Root      3 :     2.184695580821613   Change is   -0.010402262413830
 Root      4 :     2.197160928644811   Change is   -0.073355274315445
 Root      5 :     2.475574117822088   Change is   -0.000000000624101
 Iteration     5 Dimension    56 NMult    48 NNew      8
 CISAX will form     8 AO SS matrices at one time.
 NMat=     8 NSing=     8 JSym2X= 0.
 Root      1 not converged, maximum delta is    0.003014606841975
 Root      2 not converged, maximum delta is    0.015528109051790
 Root      3 not converged, maximum delta is    0.051379977700989
 Root      4 not converged, maximum delta is    0.050408072701264
 Root      5 has converged.
 Excitation Energies [eV] at current iteration:
 Root      1 :     1.665483961434263   Change is   -0.001773470653078
 Root      2 :     1.689256824104137   Change is   -0.024466345289991
 Root      3 :     2.183248987020224   Change is   -0.001446593801389
 Root      4 :     2.194512054802481   Change is   -0.002648873842331
 Root      5 :     2.475574117528070   Change is   -0.000000000294019
 Iteration     6 Dimension    64 NMult    56 NNew      8
 CISAX will form     8 AO SS matrices at one time.
 NMat=     8 NSing=     8 JSym2X= 0.
 Root      1 not converged, maximum delta is    0.002727773454182
 Root      2 not converged, maximum delta is    0.003936874552349
 Root      3 not converged, maximum delta is    0.005752280511078
 Root      4 not converged, maximum delta is    0.005777227196966
 Root      5 has converged.
 Excitation Energies [eV] at current iteration:
 Root      1 :     1.665229901929033   Change is   -0.000254059505230
 Root      2 :     1.686423083246192   Change is   -0.002833740857946
 Root      3 :     2.183045037642728   Change is   -0.000203949377497
 Root      4 :     2.194207994630804   Change is   -0.000304060171677
 Root      5 :     2.475574117283331   Change is   -0.000000000244739
 Iteration     7 Dimension    72 NMult    64 NNew      8
 CISAX will form     8 AO SS matrices at one time.
 NMat=     8 NSing=     8 JSym2X= 0.
 Root      1 has converged.
 Root      2 not converged, maximum delta is    0.001484727899119
 Root      3 has converged.
 Root      4 not converged, maximum delta is    0.001086197204818
 Root      5 has converged.
 Excitation Energies [eV] at current iteration:
 Root      1 :     1.665204812562466   Change is   -0.000025089366568
 Root      2 :     1.686076910917933   Change is   -0.000346172328258
[...]
 Alpha virt. eigenvalues --    1.86723   1.86787   1.86933   1.86957   1.87171
 Alpha virt. eigenvalues --    1.87374   1.87594   1.87640   1.87808   1.87918
 Alpha virt. eigenvalues --    1.87980   1.88139   1.88323   1.88474   1.88744
 Alpha virt. eigenvalues --    1.88754   1.89079   1.89116   1.89295   1.89577
 Alpha virt. eigenvalues --    1.89698   1.89798   1.89981   1.90053   1.90350
 Alpha virt. eigenvalues --    1.90670   1.91067   1.91267   1.91380   1.91544
 Alpha virt. eigenvalues --    1.91848   1.92086   1.92382   1.92514   1.92845
 Alpha virt. eigenvalues --    1.92926   1.93295   1.93301   1.93617   1.94226
 Alpha virt. eigenvalues --    1.94426   1.94640   1.94931   1.95438   1.95640
 Alpha virt. eigenvalues --    1.95696   1.95898   1.95996   1.96106   1.96206
 Alpha virt. eigenvalues --    1.96343   1.96529   1.96630   1.96838   1.97102
 Alpha virt. eigenvalues --    1.97386   1.97678   1.97778   1.97961   1.98088
 Alpha virt. eigenvalues --    1.98357   1.98523   1.98536   1.99052   1.99231
 Alpha virt. eigenvalues --    1.99724   2.00129   2.00606   2.00869   2.00910
 Alpha virt. eigenvalues --    2.01247   2.01354   2.01611   2.01614   2.01630
 Alpha virt. eigenvalues --    2.01768   2.02009   2.02707   2.02858   2.03176
 Alpha virt. eigenvalues --    2.03269   2.03313   2.03382   2.03537   2.03672
 Alpha virt. eigenvalues --    2.03955   2.04172   2.04905   2.05094   2.05459
 Alpha virt. eigenvalues --    2.05741   2.06016   2.06407   2.06782   2.07118
 Alpha virt. eigenvalues --    2.07202   2.07484   2.08550   2.08621   2.08910
 Alpha virt. eigenvalues --    2.09162   2.09498   2.09757   2.10748   2.11114
 Alpha virt. eigenvalues --    2.11131   2.11428   2.11541   2.11662   2.11715
 Alpha virt. eigenvalues --    2.12033   2.12378   2.12652   2.12745   2.12773
 Alpha virt. eigenvalues --    2.12940   2.13046   2.13648   2.13891   2.14098
 Alpha virt. eigenvalues --    2.14361   2.15271   2.15529   2.15842   2.16269
 Alpha virt. eigenvalues --    2.16475   2.16688   2.16749   2.17303   2.17345
 Alpha virt. eigenvalues --    2.17643   2.17747   2.18019   2.18103   2.18163
 Alpha virt. eigenvalues --    2.18220   2.18760   2.18842   2.19438   2.19553
 Alpha virt. eigenvalues --    2.19955   2.19997   2.20134   2.20388   2.20615
 Alpha virt. eigenvalues --    2.21124   2.21262   2.21604   2.21655   2.21901
 Alpha virt. eigenvalues --    2.22005   2.22619   2.22869   2.23258   2.23459
 Alpha virt. eigenvalues --    2.24345   2.24523   2.24934   2.25093   2.26199
 Alpha virt. eigenvalues --    2.26603   2.26717   2.27010   2.27150   2.27359
 Alpha virt. eigenvalues --    2.28059   2.28541   2.29209   2.29606   2.29648
 Alpha virt. eigenvalues --    2.30054   2.30355   2.30817   2.30971   2.31017
 Alpha virt. eigenvalues --    2.31079   2.31337   2.32071   2.32348   2.33046
 Alpha virt. eigenvalues --    2.33384   2.33411   2.33615   2.34080   2.34291
 Alpha virt. eigenvalues --    2.35245   2.35458   2.35715   2.36104   2.36318
 Alpha virt. eigenvalues --    2.36462   2.36541   2.36557   2.37620   2.37784
 Alpha virt. eigenvalues --    2.38216   2.38473   2.38749   2.38996   2.39538
 Alpha virt. eigenvalues --    2.39811   2.40122   2.40376   2.40392   2.41025
 Alpha virt. eigenvalues --    2.41157   2.41404   2.41638   2.41804   2.41927
 Alpha virt. eigenvalues --    2.42279   2.42909   2.42909   2.43229   2.43344
 Alpha virt. eigenvalues --    2.44072   2.44110   2.44659   2.44825   2.44938
 Alpha virt. eigenvalues --    2.45154   2.45490   2.45698   2.46252   2.46405
 Alpha virt. eigenvalues --    2.46410   2.46606   2.46714   2.46940   2.47187
 Alpha virt. eigenvalues --    2.47484   2.47648   2.48000   2.49267   2.49473
 Alpha virt. eigenvalues --    2.49990   2.50032   2.50513   2.50560   2.51017
 Alpha virt. eigenvalues --    2.51435   2.51721   2.51791   2.52327   2.52574
 Alpha virt. eigenvalues --    2.52726   2.53360   2.53859   2.54090   2.54111
 Alpha virt. eigenvalues --    2.54348   2.54723   2.54918   2.55462   2.55780
 Alpha virt. eigenvalues --    2.57805   2.58200   2.58585   2.59052   2.60097
 Alpha virt. eigenvalues --    2.60472   2.60513   2.61120   2.61654   2.61947
 Alpha virt. eigenvalues --    2.62443   2.62570   2.62878   2.63260   2.63858
 Alpha virt. eigenvalues --    2.64208   2.64410   2.64513   2.65009   2.65235
 Alpha virt. eigenvalues --    2.65686   2.66048   2.66728   2.66846   2.66923
 Alpha virt. eigenvalues --    2.67239   2.67846   2.68133   2.68771   2.68926
 Alpha virt. eigenvalues --    2.68927   2.69193   2.69337   2.69749   2.69927
 Alpha virt. eigenvalues --    2.70261   2.70897   2.71239   2.71946   2.72015
 Alpha virt. eigenvalues --    2.72550   2.72618   2.72677   2.72911   2.73236
 Alpha virt. eigenvalues --    2.73354   2.73372   2.73606   2.74432   2.74621
 Alpha virt. eigenvalues --    2.74889   2.75182   2.76533   2.76635   2.77142
 Alpha virt. eigenvalues --    2.77182   2.77385   2.77718   2.78136   2.78371
 Alpha virt. eigenvalues --    2.78624   2.78797   2.79056   2.79297   2.80261
 Alpha virt. eigenvalues --    2.80333   2.80469   2.80822   2.81030   2.81251
 Alpha virt. eigenvalues --    2.81848   2.82117   2.82279   2.82452   2.83644
 Alpha virt. eigenvalues --    2.83715   2.83918   2.84025   2.84486   2.84609
 Alpha virt. eigenvalues --    2.84833   2.84968   2.85612   2.85771   2.86757
 Alpha virt. eigenvalues --    2.86901   2.87311   2.87460   2.88100   2.88306
 Alpha virt. eigenvalues --    2.88443   2.88730   2.88867   2.88959   2.90409
 Alpha virt. eigenvalues --    2.90813   2.91141   2.91189   2.93065   2.93468
 Alpha virt. eigenvalues --    2.93896   2.94130   2.94514   2.94639   2.95250
 Alpha virt. eigenvalues --    2.95679   2.95998   2.96036   2.96375   2.96479
 Alpha virt. eigenvalues --    2.97015   2.97028   2.97681   2.98094   2.98138
 Alpha virt. eigenvalues --    2.98306   2.98534   2.98534   2.98711   2.98825
 Alpha virt. eigenvalues --    2.98905   2.99022   2.99553   2.99859   2.99897
 Alpha virt. eigenvalues --    3.00141   3.00157   3.00363   3.00414   3.01178
 Alpha virt. eigenvalues --    3.01940   3.01954   3.02039   3.02292   3.02583
 Alpha virt. eigenvalues --    3.02869   3.02924   3.03274   3.03471   3.03929
 Alpha virt. eigenvalues --    3.04122   3.04245   3.04391   3.04494   3.04549
 Alpha virt. eigenvalues --    3.04813   3.05261   3.05430   3.06041   3.06273
 Alpha virt. eigenvalues --    3.06695   3.07114   3.08000   3.08104   3.09288
 Alpha virt. eigenvalues --    3.09414   3.09602   3.10354   3.10638   3.10921
 Alpha virt. eigenvalues --    3.11292   3.11546   3.11821   3.11959   3.12160
 Alpha virt. eigenvalues --    3.12496   3.13182   3.13599   3.13752   3.13807
 Alpha virt. eigenvalues --    3.13928   3.14618   3.15902   3.16037   3.17192
 Alpha virt. eigenvalues --    3.17615   3.17919   3.18035   3.19076   3.19100
 Alpha virt. eigenvalues --    3.22132   3.22722   3.23873   3.24538   3.24567
 Alpha virt. eigenvalues --    3.25294   3.26436   3.26757   3.27505   3.27544
 Alpha virt. eigenvalues --    3.28916   3.29348   3.31448   3.31481   3.33288
 Alpha virt. eigenvalues --    3.33353   3.40397   3.40424   3.42763   3.42879
 Alpha virt. eigenvalues --    3.48576   3.48795   3.49955   3.50390   3.50951
 Alpha virt. eigenvalues --    3.51407   3.56488   3.57090   3.59045   3.59426
 Alpha virt. eigenvalues --    3.62608   3.62758   3.66137   3.66145   3.66999
 Alpha virt. eigenvalues --    3.67673   3.73104   3.74136   3.75914   3.76788
          Condensed to atoms (all electrons):
 Mulliken charges:
               1
     1  Mg   0.838648
     2  C   -0.003645
     3  C   -0.094262
     4  C   -0.045708
     5  C   -0.063477
     6  N   -0.256781
     7  C   -0.052703
     8  C   -0.014045
     9  C   -0.086976
    10  C    0.046174
    11  C    0.104746
    12  C    0.053603
    13  C   -0.071250
    14  H    0.033924
    15  N   -0.433206
    16  C    0.168525
    17  C   -0.176919
    18  C   -0.003736
    19  C    0.148726
    20  C    0.110053
    21  C    0.012351
    22  O   -0.249607
    23  C    0.062339
    24  N   -0.341102
    25  C    0.041365
    26  C   -0.028250
    27  C   -0.024025
    28  C    0.074691
    29  C    0.076120
    30  C    0.035027
    31  C   -0.004632
    32  N   -0.310371
    33  C    0.080188
    34  C   -0.169489
    35  C    0.008139
    36  C    0.082721
    37  C    0.127326
    38  C    0.045692
    39  O   -0.188811
    40  C   -0.005256
    41  C    0.213131
    42  O   -0.258961
    43  O   -0.304200
    44  C    0.158193
    45  H   -0.017475
    46  H   -0.016637
    47  H   -0.040866
    48  H    0.000918
    49  H   -0.004159
    50  H    0.025537
    51  H    0.016792
    52  H    0.016796
    53  H    0.011215
    54  H    0.042757
    55  H    0.018501
    56  H    0.018260
    57  H    0.005783
    58  H    0.027063
    59  H    0.040148
    60  H    0.037471
    61  H    0.035795
    62  H    0.032048
    63  H    0.016570
    64  H    0.009725
    65  H    0.023365
    66  H    0.012517
    67  H    0.005032
    68  H    0.006567
    69  H    0.005431
    70  H    0.008256
    71  H    0.019215
    72  H    0.028686
    73  H    0.047561
    74  H    0.009849
    75  H    0.046119
    76  H    0.035414
    77  H    0.043356
    78  H    0.046387
    79  H    0.051730
    80  Mg   0.837844
    81  C   -0.016808
    82  C   -0.087474
    83  C   -0.046247
    84  C   -0.065181
    85  N   -0.254877
    86  C   -0.048790
    87  C   -0.015324
    88  C   -0.090668
    89  C    0.046138
    90  C    0.114693
    91  C    0.062430
    92  C   -0.077715
    93  H    0.033658
    94  N   -0.423483
    95  C    0.162893
    96  C   -0.174837
    97  C   -0.008551
    98  C    0.152358
    99  C    0.099612
   100  C    0.015006
   101  O   -0.253969
   102  C    0.061406
   103  N   -0.350125
   104  C    0.037662
   105  C   -0.019790
   106  C   -0.034818
   107  C    0.089005
   108  C    0.073656
   109  C    0.034845
   110  C   -0.007575
   111  N   -0.324110
   112  C    0.078644
   113  C   -0.163513
   114  C    0.002312
   115  C    0.096185
   116  C    0.131546
   117  C    0.042105
   118  O   -0.188259
   119  C    0.001088
   120  C    0.211133
   121  O   -0.251533
   122  O   -0.304978
   123  C    0.152256
   124  H   -0.018844
   125  H   -0.016479
   126  H   -0.040940
   127  H    0.001046
   128  H   -0.005149
   129  H    0.024716
   130  H    0.014275
   131  H    0.021322
   132  H    0.013190
   133  H    0.036964
   134  H    0.022420
   135  H    0.019227
   136  H    0.009124
   137  H    0.025001
   138  H    0.039236
   139  H    0.037582
   140  H    0.035643
   141  H    0.033982
   142  H    0.013893
   143  H    0.012649
   144  H    0.024236
   145  H    0.011086
   146  H    0.006603
   147  H    0.005923
   148  H    0.003482
   149  H    0.010633
   150  H    0.017568
   151  H    0.030320
   152  H    0.045685
   153  H    0.008211
   154  H    0.046390
   155  H    0.036515
   156  H    0.043786
   157  H    0.049884
   158  H    0.052968
 Sum of Mulliken charges =  -0.00000
 Mulliken charges with hydrogens summed into heavy atoms:
               1
     1  Mg   0.838648
     2  C   -0.003645
     3  C   -0.111737
     4  C   -0.062345
     5  C   -0.104343
     6  N   -0.256781
     7  C   -0.052703
     8  C   -0.013127
     9  C   -0.091135
    10  C    0.046174
    11  C    0.163872
    12  C    0.107574
    13  C   -0.000565
    15  N   -0.433206
    16  C    0.168525
    17  C   -0.176919
    18  C   -0.003736
    19  C    0.148726
    20  C    0.183048
    21  C    0.012351
    22  O   -0.249607
    23  C    0.167653
    24  N   -0.341102
    25  C    0.041365
    26  C   -0.011679
    27  C   -0.014299
    28  C    0.074691
    29  C    0.117034
    30  C    0.047025
    31  C    0.051524
    32  N   -0.310371
    33  C    0.080188
    34  C   -0.169489
    35  C    0.008139
    36  C    0.082721
    37  C    0.230855
    38  C    0.045692
    39  O   -0.188811
    40  C    0.030158
    41  C    0.213131
    42  O   -0.258961
    43  O   -0.304200
    44  C    0.299667
    80  Mg   0.837844
    81  C   -0.016808
    82  C   -0.106318
    83  C   -0.062726
    84  C   -0.106121
    85  N   -0.254877
    86  C   -0.048790
    87  C   -0.014278
    88  C   -0.095818
    89  C    0.046138
    90  C    0.175006
    91  C    0.112584
    92  C   -0.002410
    94  N   -0.423483
    95  C    0.162893
    96  C   -0.174837
    97  C   -0.008551
    98  C    0.152358
    99  C    0.172973
   100  C    0.015006
   101  O   -0.253969
   102  C    0.168613
   103  N   -0.350125
   104  C    0.037662
   105  C   -0.005896
   106  C   -0.022169
   107  C    0.089005
   108  C    0.115582
   109  C    0.044250
   110  C    0.050946
   111  N   -0.324110
   112  C    0.078644
   113  C   -0.163513
   114  C    0.002312
   115  C    0.096185
   116  C    0.231832
   117  C    0.042105
   118  O   -0.188259
   119  C    0.037603
   120  C    0.211133
   121  O   -0.251533
   122  O   -0.304978
   123  C    0.298894
 Electronic spatial extent (au):  <R**2>=         114948.5667
 Charge=             -0.0000 electrons
 Dipole moment (field-independent basis, Debye):
    X=             -5.0030    Y=              1.8409    Z=              6.0665  Tot=              8.0760
 Quadrupole moment (field-independent basis, Debye-Ang):
   XX=           -518.3704   YY=           -526.9340   ZZ=           -473.2184
   XY=            -13.8191   XZ=              1.5769   YZ=            -26.7198
 Traceless Quadrupole moment (field-independent basis, Debye-Ang):
   XX=            -12.1961   YY=            -20.7597   ZZ=             32.9559
   XY=            -13.8191   XZ=              1.5769   YZ=            -26.7198
 Octapole moment (field-independent basis, Debye-Ang**2):
  XXX=           -452.7214  YYY=           -128.2267  ZZZ=            146.3326  XYY=            226.3891
  XXY=             83.8616  XXZ=            270.7138  XZZ=           -228.9897  YZZ=            -54.7943
  YYZ=             70.3089  XYZ=           -227.8741
 Hexadecapole moment (field-independent basis, Debye-Ang**3):
 XXXX=         -91395.4184 YYYY=         -38254.7613 ZZZZ=         -27596.4362 XXXY=            -77.4131
 XXXZ=           -164.3487 YYYX=          -1816.3106 YYYZ=           -168.8768 ZZZX=           1096.1975
 ZZZY=           -765.2969 XXYY=         -21239.3725 XXZZ=         -19086.2530 YYZZ=         -11162.7273
 XXYZ=           -606.8497 YYXZ=          -1618.4640 ZZXY=            380.2715
 N-N= 1.494612353802D+04 E-N=-3.937332775870D+04  KE= 4.028802084770D+03
 Leave Link  601 at Sat Sep  4 06:11:06 2021, MaxMem= 23488102400 cpu:              20.6 elap:               1.0
 (Enter /sw/apps/gaussian-16.0/g16/l9999.exe)
 1\1\GINC-BP1-COMPUTE00100\SP\RCAM-B3LYP TD-FC\def2SVP\C68H72Mg2N8O8\OF
 15641\04-Sep-2021\0\\#p cam-b3lyp/Def2SVP td=(nstates=5)\\TDDFT excite
 d states in gaussian\\0,1\Mg,0,0.,0.,0.\C,0,-0.217,-2.218,2.801\C,0,-1
 .255,2.442,2.026\C,0,-0.245,1.85,-2.564\C,0,0.146,-2.824,-2.037\N,0,-0
 .617,-0.009,2.126\C,0,-0.594,-0.908,3.105\C,0,-0.936,-0.309,4.502\C,0,
 -1.773,0.964,4.032\C,0,-1.155,1.168,2.66\C,0,-3.263,0.685,3.863\C,0,0.
 345,0.11,5.299\C,0,0.124,0.397,6.787\H,0,1.168,0.033,7.733\N,0,-0.185,
 1.961,-0.152\C,0,-0.703,2.8,0.777\C,0,-0.62,4.156,0.193\C,0,-0.187,4.0
 15,-1.225\C,0,-0.214,2.583,-1.38\C,0,-0.887,5.406,0.974\C,0,0.181,5.01
 3,-2.277\O,0,0.303,4.69,-3.508\C,0,0.31,6.414,-1.837\N,0,-0.265,-0.413
 ,-2.029\C,0,-0.279,0.569,-2.937\C,0,-0.196,0.024,-4.332\C,0,0.124,-1.5
 33,-4.18\C,0,0.086,-1.632,-2.635\C,0,-1.451,0.205,-5.197\C,0,1.373,-2.
 07,-4.923\C,0,2.626,-1.49,-4.306\N,0,0.15,-2.144,0.303\C,0,0.173,-3.13
 6,-0.688\C,0,0.173,-4.438,0.004\C,0,0.133,-4.111,1.358\C,0,0.083,-2.69
 5,1.502\C,0,0.149,-5.715,-0.623\C,0,0.096,-4.629,2.716\O,0,0.208,-5.74
 7,3.221\C,0,-0.255,-3.428,3.701\C,0,0.717,-3.482,4.848\O,0,1.931,-3.25
 5,4.669\O,0,0.038,-3.556,6.003\C,0,0.943,-3.583,7.183\H,0,-1.859,3.22,
 2.497\H,0,-0.218,2.453,-3.474\H,0,0.276,-3.747,-2.605\H,0,-1.554,-0.94
 9,5.132\H,0,-1.585,1.831,4.665\H,0,-3.484,-0.377,3.969\H,0,-3.511,1.02
 7,2.858\H,0,-3.852,1.301,4.543\H,0,0.669,1.096,4.966\H,0,1.13,-0.639,5
 .189\H,0,-0.844,0.026,7.125\H,0,0.062,1.477,6.921\H,0,-1.344,5.186,1.9
 38\H,0,-1.651,5.963,0.432\H,0,0.007,6.02,1.084\H,0,-0.635,6.744,-1.405
 \H,0,0.665,6.97,-2.704\H,0,1.048,6.466,-1.036\H,0,0.608,0.501,-4.891\H
 ,0,-0.692,-2.156,-4.547\H,0,-1.267,0.74,-6.129\H,0,-2.204,0.714,-4.596
 \H,0,-1.967,-0.72,-5.453\H,0,1.356,-1.759,-5.967\H,0,1.452,-3.157,-4.9
 02\H,0,2.714,-0.522,-4.798\H,0,3.487,-2.121,-4.529\H,0,2.495,-1.303,-3
 .24\H,0,0.867,-6.333,-0.084\H,0,0.404,-5.642,-1.68\H,0,-0.891,-5.999,-
 0.463\H,0,-1.283,-3.581,4.028\H,0,0.698,-4.478,7.755\H,0,0.833,-2.619,
 7.68\H,0,2.,-3.754,6.976\Mg,0,10.51781,0.94371,0.80602\C,0,10.66047,-2
 .62142,0.42063\C,0,9.44062,0.40582,3.99741\C,0,9.95122,4.05731,1.03382
 \C,0,10.49161,1.17924,-2.67098\N,0,10.13935,-0.9131,1.94676\C,0,10.287
 46,-2.20907,1.71688\C,0,10.09883,-3.10973,2.967\C,0,9.17882,-2.12276,3
 .83784\C,0,9.63407,-0.78645,3.255\C,0,7.69336,-2.28355,3.56053\C,0,11.
 45595,-3.41854,3.69148\C,0,11.38884,-4.53776,4.73292\H,0,12.54533,-5.4
 1611,4.88623\N,0,10.27661,2.09141,2.40702\C,0,9.85327,1.70513,3.62884\
 C,0,9.82669,2.92555,4.44984\C,0,10.11082,4.09029,3.56816\C,0,10.10318,
 3.44628,2.26998\C,0,9.62952,2.90113,5.93778\C,0,10.33754,5.54546,3.846
 15\O,0,10.33104,6.41913,2.90833\C,0,10.47438,5.92951,5.25869\N,0,10.04
 556,2.39769,-0.60297\C,0,9.9027,3.68605,-0.24568\C,0,9.83902,4.58443,-
 1.4578\C,0,10.21319,3.65316,-2.70292\C,0,10.34718,2.29805,-1.97415\C,0
 ,8.49242,5.26047,-1.71477\C,0,11.38435,4.12483,-3.60768\C,0,12.6865,4.
 05892,-2.84252\N,0,10.75127,-0.42711,-0.84758\C,0,10.67978,-0.12258,-2
 .22462\C,0,10.78593,-1.39996,-2.95908\C,0,10.8895,-2.36902,-1.94978\C,
 0,10.83034,-1.74193,-0.6759\C,0,10.73083,-1.55358,-4.37311\C,0,11.0247
 4,-3.78088,-1.67221\O,0,11.2095,-4.78684,-2.35606\C,0,10.75532,-4.0196
 2,-0.12405\C,0,11.84901,-4.90553,0.40654\O,0,13.02591,-4.50513,0.44096
 \O,0,11.29764,-5.98879,0.98352\C,0,12.34222,-6.89256,1.53476\H,0,8.882
 71,0.34995,4.93256\H,0,9.86375,5.14609,1.05362\H,0,10.59007,1.17754,-3
 .75863\H,0,9.5749,-4.0398,2.78192\H,0,9.42616,-2.18192,4.89457\H,0,7.5
 0794,-2.95462,2.73505\H,0,7.32789,-1.29121,3.33085\H,0,7.17148,-2.5938
 4,4.4703\H,0,11.7156,-2.57276,4.34108\H,0,12.22796,-3.63408,2.97862\H,
 0,10.46771,-5.12678,4.64622\H,0,11.32499,-4.08494,5.72534\H,0,9.2809,1
 .91937,6.28129\H,0,8.79792,3.57814,6.16128\H,0,10.51364,3.23456,6.4853
 5\H,0,9.57864,5.63632,5.80105\H,0,10.71942,6.99335,5.24987\H,0,11.3057
 5,5.36521,5.69571\H,0,10.56652,5.38357,-1.38551\H,0,9.37113,3.55145,-3
 .40323\H,0,8.55976,6.36382,-1.76121\H,0,7.80308,4.95388,-0.93929\H,0,7
 .97969,4.93929,-2.61984\H,0,11.24484,5.17032,-3.89341\H,0,11.48105,3.5
 509,-4.52324\H,0,12.69172,4.99905,-2.28287\H,0,13.53054,4.00231,-3.526
 94\H,0,12.67323,3.24098,-2.11282\H,0,11.51025,-2.25456,-4.64074\H,0,10
 .86027,-0.60061,-4.88191\H,0,9.71661,-1.94546,-4.48735\H,0,9.77206,-4.
 48216,-0.03015\H,0,12.17912,-7.87868,1.08906\H,0,12.25331,-6.816,2.634
 76\H,0,13.37082,-6.70049,1.2527\\Version=ES64L-G16RevA.03\State=1-A\HF
 =-4069.812224\RMSD=5.826e-09\PG=C01 [X(C68H72Mg2N8O8)]\\@


 IF YOU WISH TO UNDERSTAND THE FRAGRANCE OF THE ROSE, 
 OR THE TENACITY OF THE OAK; 
 IF YOU ARE NOT SATISFIED UNTIL YOU KNOW THE SECRET PATHS 
 BY WHICH THE SUNSHINE AND THE AIR ACHIEVE THESE WONDERS; 
 IF YOU WISH TO SEE THE PATTERN WHICH UNDERLIES ONE LARGE FIELD OF 
 HUMAN EXPERIENCE AND HUMAN MEASUREMENT, THEN TAKE UP CHEMISTRY.

                                         -- C. A. COULSON, 1973.
 Job cpu time:       0 days 13 hours 47 minutes 45.8 seconds.
 Elapsed time:       0 days  0 hours 35 minutes  7.9 seconds.
 File lengths (MBytes):  RWF=  13225 Int=      0 D2E=      0 Chk=    574 Scr=      1
 Normal termination of Gaussian 16 at Sat Sep  4 06:11:07 2021.
