 Entering Gaussian System, Link 0=g16
 Initial command:
 /sw/apps/gaussian-16.0/g16/l1.exe "/tmp/Gau-31712.inp" -scrdir="/tmp/"
 Entering Link 1 = /sw/apps/gaussian-16.0/g16/l1.exe PID=     31713.
  
 Copyright (c) 1988,1990,1992,1993,1995,1998,2003,2009,2016,
            Gaussian, Inc.  All Rights Reserved.
  
 This is part of the Gaussian(R) 16 program.  It is based on
 the Gaussian(R) 09 system (copyright 2009, Gaussian, Inc.),
 the Gaussian(R) 03 system (copyright 2003, Gaussian, Inc.),
 the Gaussian(R) 98 system (copyright 1998, Gaussian, Inc.),
 the Gaussian(R) 94 system (copyright 1995, Gaussian, Inc.),
 the Gaussian 92(TM) system (copyright 1992, Gaussian, Inc.),
 the Gaussian 90(TM) system (copyright 1990, Gaussian, Inc.),
 the Gaussian 88(TM) system (copyright 1988, Gaussian, Inc.),
 the Gaussian 86(TM) system (copyright 1986, Carnegie Mellon
 University), and the Gaussian 82(TM) system (copyright 1983,
 Carnegie Mellon University). Gaussian is a federally registered
 trademark of Gaussian, Inc.
  
 This software contains proprietary and confidential information,
 including trade secrets, belonging to Gaussian, Inc.
  
 This software is provided under written license and may be
 used, copied, transmitted, or stored only in accord with that
 written license.
  
 The following legend is applicable only to US Government
 contracts under FAR:
  
                    RESTRICTED RIGHTS LEGEND
  
 Use, reproduction and disclosure by the US Government is
 subject to restrictions as set forth in subparagraphs (a)
 and (c) of the Commercial Computer Software - Restricted
 Rights clause in FAR 52.227-19.
  
 Gaussian, Inc.
 340 Quinnipiac St., Bldg. 40, Wallingford CT 06492
  
  
 ---------------------------------------------------------------
 Warning -- This program may not be used in any manner that
 competes with the business of Gaussian, Inc. or will provide
 assistance to any competitor of Gaussian, Inc.  The licensee
 of this program is prohibited from giving any competitor of
 Gaussian, Inc. access to this program.  By using this program,
 the user acknowledges that Gaussian, Inc. is engaged in the
 business of creating and licensing software in the field of
 computational chemistry and represents and warrants to the
 licensee that it is not a competitor of Gaussian, Inc. and that
 it will not use this program in any manner prohibited above.
 ---------------------------------------------------------------
  

 Cite this work as:
 Gaussian 16, Revision A.03,
 M. J. Frisch, G. W. Trucks, H. B. Schlegel, G. E. Scuseria, 
 M. A. Robb, J. R. Cheeseman, G. Scalmani, V. Barone, 
 G. A. Petersson, H. Nakatsuji, X. Li, M. Caricato, A. V. Marenich, 
 J. Bloino, B. G. Janesko, R. Gomperts, B. Mennucci, H. P. Hratchian, 
 J. V. Ortiz, A. F. Izmaylov, J. L. Sonnenberg, D. Williams-Young, 
 F. Ding, F. Lipparini, F. Egidi, J. Goings, B. Peng, A. Petrone, 
 T. Henderson, D. Ranasinghe, V. G. Zakrzewski, J. Gao, N. Rega, 
 G. Zheng, W. Liang, M. Hada, M. Ehara, K. Toyota, R. Fukuda, 
 J. Hasegawa, M. Ishida, T. Nakajima, Y. Honda, O. Kitao, H. Nakai, 
 T. Vreven, K. Throssell, J. A. Montgomery, Jr., J. E. Peralta, 
 F. Ogliaro, M. J. Bearpark, J. J. Heyd, E. N. Brothers, K. N. Kudin, 
 V. N. Staroverov, T. A. Keith, R. Kobayashi, J. Normand, 
 K. Raghavachari, A. P. Rendell, J. C. Burant, S. S. Iyengar, 
 J. Tomasi, M. Cossi, J. M. Millam, M. Klene, C. Adamo, R. Cammi, 
 J. W. Ochterski, R. L. Martin, K. Morokuma, O. Farkas, 
 J. B. Foresman, and D. J. Fox, Gaussian, Inc., Wallingford CT, 2016.
 
 ******************************************
 Gaussian 16:  ES64L-G16RevA.03 25-Dec-2016
                10-Sep-2021 
 ******************************************
 %nproc=24
 Will use up to   24 processors via shared memory.
 %mem=175gb
 -----------------------------------
 #p cam-b3lyp/Def2SVP td=(nstates=5)
 -----------------------------------
 1/38=1,172=1/1;
 2/12=2,17=6,18=5,40=1/2;
 3/5=43,7=101,11=9,25=1,30=1,74=-40/1,2,3,8;
 4//1;
 5/5=2,38=5/2;
 8/6=1,10=1,108=5/1;
 9/41=5,42=1,70=2/14;
 6/7=2,8=2,9=2,10=2/1;
 99/5=1,9=1/99;
 Leave Link    1 at Fri Sep 10 20:16:11 2021, MaxMem= 23488102400 cpu:               0.9 elap:               0.0
 (Enter /sw/apps/gaussian-16.0/g16/l101.exe)
 --------------------------------
 TDDFT excited states in gaussian
 --------------------------------
 Symbolic Z-matrix:
 Charge =  0 Multiplicity = 1
 Mg                    0.        0.        0. 
 C                    -0.217    -2.218     2.801 
 C                    -1.255     2.442     2.026 
 C                    -0.245     1.85     -2.564 
 C                     0.146    -2.824    -2.037 
 N                    -0.617    -0.009     2.126 
 C                    -0.594    -0.908     3.105 
 C                    -0.936    -0.309     4.502 
 C                    -1.773     0.964     4.032 
 C                    -1.155     1.168     2.66 
 C                    -3.263     0.685     3.863 
 C                     0.345     0.11      5.299 
 C                     0.124     0.397     6.787 
 H                     1.168     0.033     7.733 
 N                    -0.185     1.961    -0.152 
 C                    -0.703     2.8       0.777 
 C                    -0.62      4.156     0.193 
 C                    -0.187     4.015    -1.225 
 C                    -0.214     2.583    -1.38 
 C                    -0.887     5.406     0.974 
 C                     0.181     5.013    -2.277 
 O                     0.303     4.69     -3.508 
 C                     0.31      6.414    -1.837 
 N                    -0.265    -0.413    -2.029 
 C                    -0.279     0.569    -2.937 
 C                    -0.196     0.024    -4.332 
 C                     0.124    -1.533    -4.18 
 C                     0.086    -1.632    -2.635 
 C                    -1.451     0.205    -5.197 
 C                     1.373    -2.07     -4.923 
 C                     2.626    -1.49     -4.306 
 N                     0.15     -2.144     0.303 
 C                     0.173    -3.136    -0.688 
 C                     0.173    -4.438     0.004 
 C                     0.133    -4.111     1.358 
 C                     0.083    -2.695     1.502 
 C                     0.149    -5.715    -0.623 
 C                     0.096    -4.629     2.716 
 O                     0.208    -5.747     3.221 
 C                    -0.255    -3.428     3.701 
 C                     0.717    -3.482     4.848 
 O                     1.931    -3.255     4.669 
 O                     0.038    -3.556     6.003 
 C                     0.943    -3.583     7.183 
 H                    -1.859     3.22      2.497 
 H                    -0.218     2.453    -3.474 
 H                     0.276    -3.747    -2.605 
 H                    -1.554    -0.949     5.132 
 H                    -1.585     1.831     4.665 
 H                    -3.484    -0.377     3.969 
 H                    -3.511     1.027     2.858 
 H                    -3.852     1.301     4.543 
 H                     0.669     1.096     4.966 
 H                     1.13     -0.639     5.189 
 H                    -0.844     0.026     7.125 
 H                     0.062     1.477     6.921 
 H                    -1.344     5.186     1.938 
 H                    -1.651     5.963     0.432 
 H                     0.007     6.02      1.084 
 H                    -0.635     6.744    -1.405 
 H                     0.665     6.97     -2.704 
 H                     1.048     6.466    -1.036 
 H                     0.608     0.501    -4.891 
 H                    -0.692    -2.156    -4.547 
 H                    -1.267     0.74     -6.129 
 H                    -2.204     0.714    -4.596 
 H                    -1.967    -0.72     -5.453 
 H                     1.356    -1.759    -5.967 
 H                     1.452    -3.157    -4.902 
 H                     2.714    -0.522    -4.798 
 H                     3.487    -2.121    -4.529 
 H                     2.495    -1.303    -3.24 
 H                     0.867    -6.333    -0.084 
 H                     0.404    -5.642    -1.68 
 H                    -0.891    -5.999    -0.463 
 H                    -1.283    -3.581     4.028 
 H                     0.698    -4.478     7.755 
 H                     0.833    -2.619     7.68 
 H                     2.       -3.754     6.976 
 Mg                    10.50961   0.95084   0.80792 
 C                     8.55973  -1.53577   2.50905 
 C                     7.92778   3.11788   1.33015 
 C                     12.00289   3.02685  -1.0703 
 C                     12.38615  -1.65145  -0.55309 
 N                     8.55017   0.70524   1.80418 
 C                     7.94396  -0.26747   2.46803 
 C                     6.6408    0.16361   3.19296 
 C                     6.27073   1.43609   2.28593 
 C                     7.67072   1.80496   1.79946 
 C                     5.42137   1.08576   1.07548 
 C                     6.89548   0.57643   4.68518 
 C                     5.63307   0.71141   5.5395 
 H                     5.69844   0.31958   6.94473 
 N                     10.27937   2.91349   0.62468 
 C                     9.17164   3.63235   0.90298 
 C                     9.50661   5.02827   0.58151 
 C                     10.84703   5.05218  -0.06457 
 C                     11.0914   3.63195  -0.21731 
 C                     8.62674   6.18411   0.96005 
 C                     11.75269   6.16872  -0.48801 
 O                     12.76559   5.96345  -1.24612 
 C                     11.36566   7.52276  -0.06579 
 N                     11.8433   0.71889  -0.76999 
 C                     12.38394   1.78767  -1.38101 
 C                     13.51577   1.37964  -2.29363 
 C                     13.78219  -0.16634  -1.9829 
 C                     12.64947  -0.41847  -0.96371 
 C                     13.26231   1.56139  -3.78999 
 C                     15.23123  -0.56595  -1.5914 
 C                     15.58447   0.02667  -0.24626 
 N                     10.62215  -1.19029   1.07424 
 C                     11.46086  -2.09276   0.38417 
 C                     11.09442  -3.45351   0.82746 
 C                     10.04404  -3.24811   1.73466 
 C                     9.76136  -1.85893   1.83348 
 C                     11.6751  -4.66568   0.35885 
 C                     9.10303  -3.89136   2.62315 
 O                     8.92785  -5.04402   3.01613 
 C                     8.01577  -2.82092   3.0686 
 C                     7.84952  -2.9208    4.56021 
 O                     8.78611  -2.62222   5.32196 
 O                     6.55319  -3.14129   4.8453 
 C                     6.33606  -3.23689   6.31348 
 H                     7.09002   3.80989   1.23986 
 H                     12.62127   3.70796  -1.65952 
 H                     12.98979  -2.50933  -0.85695 
 H                     5.83909  -0.56423   3.15727 
 H                     5.85128   2.23988   2.88539 
 H                     5.30531   0.01836   0.96004 
 H                     5.93846   1.50459   0.22211 
 H                     4.45883   1.60258   1.12805 
 H                     7.2534    1.61365   4.71365 
 H                     7.58002  -0.10167   5.15657 
 H                     4.75772   0.26155   5.05542 
 H                     5.37991   1.77137   5.61952 
 H                     7.63223   5.84592   1.27623 
 H                     8.44063   6.75729   0.04534 
 H                     9.0889    6.84046   1.70051 
 H                     10.37472   7.75163  -0.45063 
 H                     12.18159   8.17332  -0.3866 
 H                     11.2906   7.54034   1.02722 
 H                     14.41395   1.94263  -2.07132 
 H                     13.56667  -0.80035  -2.85548 
 H                     14.01558   2.20253  -4.28556 
 H                     12.26939   1.97071  -3.92076 
 H                     13.20925   0.6384   -4.36485 
 H                     15.94477  -0.15383  -2.30915 
 H                     15.38976  -1.63873  -1.55947 
 H                     15.8944   1.04508  -0.49898 
 H                     16.39715  -0.52996   0.21609 
 H                     14.69904   0.10131   0.39569 
 H                     11.83718  -5.28955   1.22777 
 H                     12.60353  -4.4805   -0.17734 
 H                     10.88115  -5.01849  -0.3048 
 H                     7.0917   -3.05198   2.5373 
 H                     5.84581  -4.19697   6.5021 
 H                     5.77872  -2.32316   6.59317 
 H                     7.21259  -3.31924   6.94544 
 
 ITRead=  0  0  0  0  0  0  0  0  0  0  0  0  0  0  0  0  0  0  0  0
 ITRead=  0  0  0  0  0  0  0  0  0  0  0  0  0  0  0  0  0  0  0  0
 ITRead=  0  0  0  0  0  0  0  0  0  0  0  0  0  0  0  0  0  0  0  0
 ITRead=  0  0  0  0  0  0  0  0  0  0  0  0  0  0  0  0  0  0  0  0
 ITRead=  0  0  0  0  0  0  0  0  0  0  0  0  0  0  0  0  0  0  0  0
 ITRead=  0  0  0  0  0  0  0  0  0  0  0  0  0  0  0  0  0  0  0  0
 ITRead=  0  0  0  0  0  0  0  0  0  0  0  0  0  0  0  0  0  0  0  0
 ITRead=  0  0  0  0  0  0  0  0  0  0  0  0  0  0  0  0  0  0
 MicOpt= -1 -1 -1 -1 -1 -1 -1 -1 -1 -1 -1 -1 -1 -1 -1 -1 -1 -1 -1 -1
 MicOpt= -1 -1 -1 -1 -1 -1 -1 -1 -1 -1 -1 -1 -1 -1 -1 -1 -1 -1 -1 -1
 MicOpt= -1 -1 -1 -1 -1 -1 -1 -1 -1 -1 -1 -1 -1 -1 -1 -1 -1 -1 -1 -1
 MicOpt= -1 -1 -1 -1 -1 -1 -1 -1 -1 -1 -1 -1 -1 -1 -1 -1 -1 -1 -1 -1
 MicOpt= -1 -1 -1 -1 -1 -1 -1 -1 -1 -1 -1 -1 -1 -1 -1 -1 -1 -1 -1 -1
 MicOpt= -1 -1 -1 -1 -1 -1 -1 -1 -1 -1 -1 -1 -1 -1 -1 -1 -1 -1 -1 -1
 MicOpt= -1 -1 -1 -1 -1 -1 -1 -1 -1 -1 -1 -1 -1 -1 -1 -1 -1 -1 -1 -1
 MicOpt= -1 -1 -1 -1 -1 -1 -1 -1 -1 -1 -1 -1 -1 -1 -1 -1 -1 -1
 NAtoms=    158 NQM=      158 NQMF=       0 NMMI=      0 NMMIF=      0
                NMic=       0 NMicF=      0.
                    Isotopes and Nuclear Properties:
 (Nuclear quadrupole moments (NQMom) in fm**2, nuclear magnetic moments (NMagM)
  in nuclear magnetons)

  Atom         1           2           3           4           5           6           7           8           9          10
 IAtWgt=          24          12          12          12          12          14          12          12          12          12
 AtmWgt=  23.9850450  12.0000000  12.0000000  12.0000000  12.0000000  14.0030740  12.0000000  12.0000000  12.0000000  12.0000000
 NucSpn=           0           0           0           0           0           2           0           0           0           0
 AtZEff=  -0.0000000  -0.0000000  -0.0000000  -0.0000000  -0.0000000  -0.0000000  -0.0000000  -0.0000000  -0.0000000  -0.0000000
 NQMom=    0.0000000   0.0000000   0.0000000   0.0000000   0.0000000   2.0440000   0.0000000   0.0000000   0.0000000   0.0000000
 NMagM=    0.0000000   0.0000000   0.0000000   0.0000000   0.0000000   0.4037610   0.0000000   0.0000000   0.0000000   0.0000000
 AtZNuc=  12.0000000   6.0000000   6.0000000   6.0000000   6.0000000   7.0000000   6.0000000   6.0000000   6.0000000   6.0000000

  Atom        11          12          13          14          15          16          17          18          19          20
 IAtWgt=          12          12          12           1          14          12          12          12          12          12
 AtmWgt=  12.0000000  12.0000000  12.0000000   1.0078250  14.0030740  12.0000000  12.0000000  12.0000000  12.0000000  12.0000000
 NucSpn=           0           0           0           1           2           0           0           0           0           0
 AtZEff=  -0.0000000  -0.0000000  -0.0000000  -0.0000000  -0.0000000  -0.0000000  -0.0000000  -0.0000000  -0.0000000  -0.0000000
 NQMom=    0.0000000   0.0000000   0.0000000   0.0000000   2.0440000   0.0000000   0.0000000   0.0000000   0.0000000   0.0000000
 NMagM=    0.0000000   0.0000000   0.0000000   2.7928460   0.4037610   0.0000000   0.0000000   0.0000000   0.0000000   0.0000000
 AtZNuc=   6.0000000   6.0000000   6.0000000   1.0000000   7.0000000   6.0000000   6.0000000   6.0000000   6.0000000   6.0000000

  Atom        21          22          23          24          25          26          27          28          29          30
 IAtWgt=          12          16          12          14          12          12          12          12          12          12
 AtmWgt=  12.0000000  15.9949146  12.0000000  14.0030740  12.0000000  12.0000000  12.0000000  12.0000000  12.0000000  12.0000000
 NucSpn=           0           0           0           2           0           0           0           0           0           0
 AtZEff=  -0.0000000  -0.0000000  -0.0000000  -0.0000000  -0.0000000  -0.0000000  -0.0000000  -0.0000000  -0.0000000  -0.0000000
 NQMom=    0.0000000   0.0000000   0.0000000   2.0440000   0.0000000   0.0000000   0.0000000   0.0000000   0.0000000   0.0000000
 NMagM=    0.0000000   0.0000000   0.0000000   0.4037610   0.0000000   0.0000000   0.0000000   0.0000000   0.0000000   0.0000000
 AtZNuc=   6.0000000   8.0000000   6.0000000   7.0000000   6.0000000   6.0000000   6.0000000   6.0000000   6.0000000   6.0000000

  Atom        31          32          33          34          35          36          37          38          39          40
 IAtWgt=          12          14          12          12          12          12          12          12          16          12
 AtmWgt=  12.0000000  14.0030740  12.0000000  12.0000000  12.0000000  12.0000000  12.0000000  12.0000000  15.9949146  12.0000000
 NucSpn=           0           2           0           0           0           0           0           0           0           0
 AtZEff=  -0.0000000  -0.0000000  -0.0000000  -0.0000000  -0.0000000  -0.0000000  -0.0000000  -0.0000000  -0.0000000  -0.0000000
 NQMom=    0.0000000   2.0440000   0.0000000   0.0000000   0.0000000   0.0000000   0.0000000   0.0000000   0.0000000   0.0000000
 NMagM=    0.0000000   0.4037610   0.0000000   0.0000000   0.0000000   0.0000000   0.0000000   0.0000000   0.0000000   0.0000000
 AtZNuc=   6.0000000   7.0000000   6.0000000   6.0000000   6.0000000   6.0000000   6.0000000   6.0000000   8.0000000   6.0000000

  Atom        41          42          43          44          45          46          47          48          49          50
 IAtWgt=          12          16          16          12           1           1           1           1           1           1
 AtmWgt=  12.0000000  15.9949146  15.9949146  12.0000000   1.0078250   1.0078250   1.0078250   1.0078250   1.0078250   1.0078250
 NucSpn=           0           0           0           0           1           1           1           1           1           1
 AtZEff=  -0.0000000  -0.0000000  -0.0000000  -0.0000000  -0.0000000  -0.0000000  -0.0000000  -0.0000000  -0.0000000  -0.0000000
 NQMom=    0.0000000   0.0000000   0.0000000   0.0000000   0.0000000   0.0000000   0.0000000   0.0000000   0.0000000   0.0000000
 NMagM=    0.0000000   0.0000000   0.0000000   0.0000000   2.7928460   2.7928460   2.7928460   2.7928460   2.7928460   2.7928460
 AtZNuc=   6.0000000   8.0000000   8.0000000   6.0000000   1.0000000   1.0000000   1.0000000   1.0000000   1.0000000   1.0000000

  Atom        51          52          53          54          55          56          57          58          59          60
 IAtWgt=           1           1           1           1           1           1           1           1           1           1
 AtmWgt=   1.0078250   1.0078250   1.0078250   1.0078250   1.0078250   1.0078250   1.0078250   1.0078250   1.0078250   1.0078250
 NucSpn=           1           1           1           1           1           1           1           1           1           1
 AtZEff=  -0.0000000  -0.0000000  -0.0000000  -0.0000000  -0.0000000  -0.0000000  -0.0000000  -0.0000000  -0.0000000  -0.0000000
 NQMom=    0.0000000   0.0000000   0.0000000   0.0000000   0.0000000   0.0000000   0.0000000   0.0000000   0.0000000   0.0000000
 NMagM=    2.7928460   2.7928460   2.7928460   2.7928460   2.7928460   2.7928460   2.7928460   2.7928460   2.7928460   2.7928460
 AtZNuc=   1.0000000   1.0000000   1.0000000   1.0000000   1.0000000   1.0000000   1.0000000   1.0000000   1.0000000   1.0000000

  Atom        61          62          63          64          65          66          67          68          69          70
 IAtWgt=           1           1           1           1           1           1           1           1           1           1
 AtmWgt=   1.0078250   1.0078250   1.0078250   1.0078250   1.0078250   1.0078250   1.0078250   1.0078250   1.0078250   1.0078250
 NucSpn=           1           1           1           1           1           1           1           1           1           1
 AtZEff=  -0.0000000  -0.0000000  -0.0000000  -0.0000000  -0.0000000  -0.0000000  -0.0000000  -0.0000000  -0.0000000  -0.0000000
 NQMom=    0.0000000   0.0000000   0.0000000   0.0000000   0.0000000   0.0000000   0.0000000   0.0000000   0.0000000   0.0000000
 NMagM=    2.7928460   2.7928460   2.7928460   2.7928460   2.7928460   2.7928460   2.7928460   2.7928460   2.7928460   2.7928460
 AtZNuc=   1.0000000   1.0000000   1.0000000   1.0000000   1.0000000   1.0000000   1.0000000   1.0000000   1.0000000   1.0000000

  Atom        71          72          73          74          75          76          77          78          79          80
 IAtWgt=           1           1           1           1           1           1           1           1           1          24
 AtmWgt=   1.0078250   1.0078250   1.0078250   1.0078250   1.0078250   1.0078250   1.0078250   1.0078250   1.0078250  23.9850450
 NucSpn=           1           1           1           1           1           1           1           1           1           0
 AtZEff=  -0.0000000  -0.0000000  -0.0000000  -0.0000000  -0.0000000  -0.0000000  -0.0000000  -0.0000000  -0.0000000  -0.0000000
 NQMom=    0.0000000   0.0000000   0.0000000   0.0000000   0.0000000   0.0000000   0.0000000   0.0000000   0.0000000   0.0000000
 NMagM=    2.7928460   2.7928460   2.7928460   2.7928460   2.7928460   2.7928460   2.7928460   2.7928460   2.7928460   0.0000000
 AtZNuc=   1.0000000   1.0000000   1.0000000   1.0000000   1.0000000   1.0000000   1.0000000   1.0000000   1.0000000  12.0000000

  Atom        81          82          83          84          85          86          87          88          89          90
 IAtWgt=          12          12          12          12          14          12          12          12          12          12
 AtmWgt=  12.0000000  12.0000000  12.0000000  12.0000000  14.0030740  12.0000000  12.0000000  12.0000000  12.0000000  12.0000000
 NucSpn=           0           0           0           0           2           0           0           0           0           0
 AtZEff=  -0.0000000  -0.0000000  -0.0000000  -0.0000000  -0.0000000  -0.0000000  -0.0000000  -0.0000000  -0.0000000  -0.0000000
 NQMom=    0.0000000   0.0000000   0.0000000   0.0000000   2.0440000   0.0000000   0.0000000   0.0000000   0.0000000   0.0000000
 NMagM=    0.0000000   0.0000000   0.0000000   0.0000000   0.4037610   0.0000000   0.0000000   0.0000000   0.0000000   0.0000000
 AtZNuc=   6.0000000   6.0000000   6.0000000   6.0000000   7.0000000   6.0000000   6.0000000   6.0000000   6.0000000   6.0000000

  Atom        91          92          93          94          95          96          97          98          99         100
 IAtWgt=          12          12           1          14          12          12          12          12          12          12
 AtmWgt=  12.0000000  12.0000000   1.0078250  14.0030740  12.0000000  12.0000000  12.0000000  12.0000000  12.0000000  12.0000000
 NucSpn=           0           0           1           2           0           0           0           0           0           0
 AtZEff=  -0.0000000  -0.0000000  -0.0000000  -0.0000000  -0.0000000  -0.0000000  -0.0000000  -0.0000000  -0.0000000  -0.0000000
 NQMom=    0.0000000   0.0000000   0.0000000   2.0440000   0.0000000   0.0000000   0.0000000   0.0000000   0.0000000   0.0000000
 NMagM=    0.0000000   0.0000000   2.7928460   0.4037610   0.0000000   0.0000000   0.0000000   0.0000000   0.0000000   0.0000000
 AtZNuc=   6.0000000   6.0000000   1.0000000   7.0000000   6.0000000   6.0000000   6.0000000   6.0000000   6.0000000   6.0000000

  Atom       101         102         103         104         105         106         107         108         109         110
 IAtWgt=          16          12          14          12          12          12          12          12          12          12
 AtmWgt=  15.9949146  12.0000000  14.0030740  12.0000000  12.0000000  12.0000000  12.0000000  12.0000000  12.0000000  12.0000000
 NucSpn=           0           0           2           0           0           0           0           0           0           0
 AtZEff=  -0.0000000  -0.0000000  -0.0000000  -0.0000000  -0.0000000  -0.0000000  -0.0000000  -0.0000000  -0.0000000  -0.0000000
 NQMom=    0.0000000   0.0000000   2.0440000   0.0000000   0.0000000   0.0000000   0.0000000   0.0000000   0.0000000   0.0000000
 NMagM=    0.0000000   0.0000000   0.4037610   0.0000000   0.0000000   0.0000000   0.0000000   0.0000000   0.0000000   0.0000000
 AtZNuc=   8.0000000   6.0000000   7.0000000   6.0000000   6.0000000   6.0000000   6.0000000   6.0000000   6.0000000   6.0000000

  Atom       111         112         113         114         115         116         117         118         119         120
 IAtWgt=          14          12          12          12          12          12          12          16          12          12
 AtmWgt=  14.0030740  12.0000000  12.0000000  12.0000000  12.0000000  12.0000000  12.0000000  15.9949146  12.0000000  12.0000000
 NucSpn=           2           0           0           0           0           0           0           0           0           0
 AtZEff=  -0.0000000  -0.0000000  -0.0000000  -0.0000000  -0.0000000  -0.0000000  -0.0000000  -0.0000000  -0.0000000  -0.0000000
 NQMom=    2.0440000   0.0000000   0.0000000   0.0000000   0.0000000   0.0000000   0.0000000   0.0000000   0.0000000   0.0000000
 NMagM=    0.4037610   0.0000000   0.0000000   0.0000000   0.0000000   0.0000000   0.0000000   0.0000000   0.0000000   0.0000000
 AtZNuc=   7.0000000   6.0000000   6.0000000   6.0000000   6.0000000   6.0000000   6.0000000   8.0000000   6.0000000   6.0000000

  Atom       121         122         123         124         125         126         127         128         129         130
 IAtWgt=          16          16          12           1           1           1           1           1           1           1
 AtmWgt=  15.9949146  15.9949146  12.0000000   1.0078250   1.0078250   1.0078250   1.0078250   1.0078250   1.0078250   1.0078250
 NucSpn=           0           0           0           1           1           1           1           1           1           1
 AtZEff=  -0.0000000  -0.0000000  -0.0000000  -0.0000000  -0.0000000  -0.0000000  -0.0000000  -0.0000000  -0.0000000  -0.0000000
 NQMom=    0.0000000   0.0000000   0.0000000   0.0000000   0.0000000   0.0000000   0.0000000   0.0000000   0.0000000   0.0000000
 NMagM=    0.0000000   0.0000000   0.0000000   2.7928460   2.7928460   2.7928460   2.7928460   2.7928460   2.7928460   2.7928460
 AtZNuc=   8.0000000   8.0000000   6.0000000   1.0000000   1.0000000   1.0000000   1.0000000   1.0000000   1.0000000   1.0000000

  Atom       131         132         133         134         135         136         137         138         139         140
 IAtWgt=           1           1           1           1           1           1           1           1           1           1
 AtmWgt=   1.0078250   1.0078250   1.0078250   1.0078250   1.0078250   1.0078250   1.0078250   1.0078250   1.0078250   1.0078250
 NucSpn=           1           1           1           1           1           1           1           1           1           1
 AtZEff=  -0.0000000  -0.0000000  -0.0000000  -0.0000000  -0.0000000  -0.0000000  -0.0000000  -0.0000000  -0.0000000  -0.0000000
 NQMom=    0.0000000   0.0000000   0.0000000   0.0000000   0.0000000   0.0000000   0.0000000   0.0000000   0.0000000   0.0000000
 NMagM=    2.7928460   2.7928460   2.7928460   2.7928460   2.7928460   2.7928460   2.7928460   2.7928460   2.7928460   2.7928460
 AtZNuc=   1.0000000   1.0000000   1.0000000   1.0000000   1.0000000   1.0000000   1.0000000   1.0000000   1.0000000   1.0000000

  Atom       141         142         143         144         145         146         147         148         149         150
 IAtWgt=           1           1           1           1           1           1           1           1           1           1
 AtmWgt=   1.0078250   1.0078250   1.0078250   1.0078250   1.0078250   1.0078250   1.0078250   1.0078250   1.0078250   1.0078250
 NucSpn=           1           1           1           1           1           1           1           1           1           1
 AtZEff=  -0.0000000  -0.0000000  -0.0000000  -0.0000000  -0.0000000  -0.0000000  -0.0000000  -0.0000000  -0.0000000  -0.0000000
 NQMom=    0.0000000   0.0000000   0.0000000   0.0000000   0.0000000   0.0000000   0.0000000   0.0000000   0.0000000   0.0000000
 NMagM=    2.7928460   2.7928460   2.7928460   2.7928460   2.7928460   2.7928460   2.7928460   2.7928460   2.7928460   2.7928460
 AtZNuc=   1.0000000   1.0000000   1.0000000   1.0000000   1.0000000   1.0000000   1.0000000   1.0000000   1.0000000   1.0000000

  Atom       151         152         153         154         155         156         157         158
 IAtWgt=           1           1           1           1           1           1           1           1
 AtmWgt=   1.0078250   1.0078250   1.0078250   1.0078250   1.0078250   1.0078250   1.0078250   1.0078250
 NucSpn=           1           1           1           1           1           1           1           1
 AtZEff=  -0.0000000  -0.0000000  -0.0000000  -0.0000000  -0.0000000  -0.0000000  -0.0000000  -0.0000000
 NQMom=    0.0000000   0.0000000   0.0000000   0.0000000   0.0000000   0.0000000   0.0000000   0.0000000
 NMagM=    2.7928460   2.7928460   2.7928460   2.7928460   2.7928460   2.7928460   2.7928460   2.7928460
 AtZNuc=   1.0000000   1.0000000   1.0000000   1.0000000   1.0000000   1.0000000   1.0000000   1.0000000
 Leave Link  101 at Fri Sep 10 20:16:12 2021, MaxMem= 23488102400 cpu:               3.7 elap:               0.2
 (Enter /sw/apps/gaussian-16.0/g16/l202.exe)
 Stoichiometry    C68H72Mg2N8O8
 Framework group  C1[X(C68H72Mg2N8O8)]
 Deg. of freedom   468
 Full point group                 C1      NOp   1
 Largest Abelian subgroup         C1      NOp   1
 Largest concise Abelian subgroup C1      NOp   1
                         Standard orientation:                         
 ---------------------------------------------------------------------
 Center     Atomic      Atomic             Coordinates (Angstroms)
 Number     Number       Type             X           Y           Z
 ---------------------------------------------------------------------
      1         12           0        4.807748    1.307717    0.696985
      2          6           0        5.556352   -2.098442   -0.109170
      3          6           0        5.907076    2.132661   -2.426156
      4          6           0        4.584095    4.356147    1.541778
      5          6           0        4.852428    0.368759    4.052879
      6          7           0        5.604722    0.083018   -0.966022
      7          6           0        5.784859   -1.218296   -1.169251
      8          6           0        6.167184   -1.566995   -2.638813
      9          6           0        6.786927   -0.164930   -3.077139
     10          6           0        6.029713    0.743710   -2.124814
     11          6           0        8.279953   -0.042338   -2.790178
     12          6           0        4.917423   -1.937277   -3.506409
     13          6           0        5.228831   -2.601493   -4.850728
     14          1           0        4.328100   -3.629974   -5.348985
     15          7           0        4.721923    2.941202   -0.410810
     16          6           0        5.205790    3.094216   -1.666893
     17          6           0        4.896134    4.486802   -2.056120
     18          6           0        4.362491    5.187055   -0.854885
     19          6           0        4.561923    4.184006    0.159757
     20          6           0        5.065644    5.008651   -3.449925
     21          6           0        3.776913    6.548606   -0.651392
     22          8           0        3.590502    7.041701    0.513375
     23          6           0        3.505774    7.335639   -1.867987
     24          7           0        4.945271    2.285323    2.536280
     25          6           0        4.751671    3.605275    2.632354
     26          6           0        4.618285    4.034842    4.063304
     27          6           0        4.518207    2.691450    4.920646
     28          6           0        4.704114    1.666034    3.775120
     29          6           0        5.758320    4.905282    4.609806
     30          6           0        3.289407    2.541760    5.852345
     31          6           0        2.030562    2.411152    5.024487
     32          7           0        4.965198   -0.554608    1.800615
     33          6           0        4.984671   -0.709735    3.194255
     34          6           0        5.214800   -2.140470    3.466481
     35          6           0        5.330493   -2.719345    2.204196
     36          6           0        5.208225   -1.709778    1.207142
     37          6           0        5.349703   -2.732805    4.753095
     38          6           0        5.553542   -3.952078    1.466311
     39          8           0        5.632713   -5.142991    1.771191
     40          6           0        5.830279   -3.580948   -0.057338
     41          6           0        4.977940   -4.483625   -0.907044
     42          8           0        3.733743   -4.387978   -0.893272
     43          8           0        5.759450   -5.148438   -1.771804
     44          6           0        4.972661   -6.040239   -2.665006
     45          1           0        6.443650    2.535266   -3.287515
     46          1           0        4.399150    5.378973    1.876530
     47          1           0        4.794344   -0.011443    5.074410
     48          1           0        6.916066   -2.352799   -2.739374
     49          1           0        6.543939    0.082217   -4.110385
     50          1           0        8.645719   -0.891376   -2.212881
     51          1           0        8.392236    0.881174   -2.221837
     52          1           0        8.841125    0.103928   -3.713471
     53          1           0        4.439917   -1.022564   -3.857620
     54          1           0        4.229977   -2.569016   -2.942805
     55          1           0        6.262761   -2.944832   -4.895636
     56          1           0        5.161264   -1.842694   -5.630381
     57          1           0        5.630154    4.314725   -4.071487
     58          1           0        5.700158    5.892263   -3.384110
     59          1           0        4.112463    5.273801   -3.907606
     60          1           0        4.434005    7.470584   -2.423619
     61          1           0        3.006780    8.244379   -1.533255
     62          1           0        2.840397    6.765104   -2.516612
     63          1           0        3.713147    4.622103    4.212556
     64          1           0        5.372987    2.566041    5.585700
     65          1           0        5.425240    5.864773    5.006216
     66          1           0        6.488456    5.043612    3.812901
     67          1           0        6.365855    4.431700    5.380545
     68          1           0        3.174165    3.429373    6.473479
     69          1           0        3.354689    1.679090    6.515512
     70          1           0        1.774529    3.447201    4.805668
     71          1           0        1.242791    1.928278    5.603678
     72          1           0        2.229089    1.916702    4.073387
     73          1           0        4.768295   -3.654357    4.727109
     74          1           0        4.995665   -2.063031    5.536461
     75          1           0        6.427809   -2.887828    4.791990
     76          1           0        6.894130   -3.740173   -0.230512
     77          1           0        5.381264   -7.044955   -2.556270
     78          1           0        4.999431   -5.587690   -3.656413
     79          1           0        3.932858   -6.209313   -2.382938
     80         12           0       -5.624532   -0.102988   -0.392139
     81          6           0       -3.226019   -2.765113   -0.193826
     82          6           0       -3.310909    1.647278   -2.186116
     83          6           0       -7.534197    2.423734   -0.201696
     84          6           0       -7.258520   -1.559703    2.319637
     85          7           0       -3.570037   -0.601594   -1.042293
     86          6           0       -2.786531   -1.666459   -0.961452
     87          6           0       -1.492043   -1.578719   -1.813614
     88          6           0       -1.371703    0.020083   -1.904220
     89          6           0       -2.845014    0.386000   -1.736439
     90          6           0       -0.593431    0.631343   -0.750970
     91          6           0       -1.666426   -2.223020   -3.233639
     92          6           0       -0.362301   -2.449731   -4.001507
     93          1           0       -0.252631   -3.630481   -4.853726
     94          7           0       -5.668632    1.558156   -1.477145
     95          6           0       -4.643772    2.113113   -2.157559
     96          6           0       -5.184448    3.334749   -2.773525
     97          6           0       -6.568032    3.542923   -2.266498
     98          6           0       -6.637942    2.505102   -1.257469
     99          6           0       -4.432703    4.128713   -3.802082
    100          6           0       -7.644911    4.523130   -2.621053
    101          8           0       -8.685033    4.675243   -1.887676
    102          6           0       -7.401862    5.365688   -3.801099
    103          7           0       -7.049892    0.485191    1.002395
    104          6           0       -7.776509    1.601656    0.819470
    105          6           0       -8.921250    1.674495    1.801644
    106          6           0       -8.955926    0.249847    2.527428
    107          6           0       -7.715047   -0.397264    1.874098
    108          6           0       -8.825812    2.779171    2.853762
    109          6           0      -10.300672   -0.526628    2.489756
    110          6           0      -10.608692   -0.956918    1.073651
    111          7           0       -5.433676   -1.934568    0.737869
    112          6           0       -6.205066   -2.334336    1.851074
    113          6           0       -5.627203   -3.599266    2.349523
    114          6           0       -4.537008   -3.837583    1.499124
    115          6           0       -4.429951   -2.784355    0.551103
    116          6           0       -6.084034   -4.334149    3.479742
    117          6           0       -3.446026   -4.735166    1.194514
    118          8           0       -3.088547   -5.838613    1.604829
    119          6           0       -2.472479   -4.015914    0.164328
    120          6           0       -2.164478   -4.988944   -0.940599
    121          8           0       -3.061515   -5.376330   -1.709929
    122          8           0       -0.830513   -5.132284   -1.042366
    123          6           0       -0.474875   -6.079575   -2.132318
    124          1           0       -2.581505    2.367185   -2.558373
    125          1           0       -8.285228    3.215936   -0.158646
    126          1           0       -7.769685   -2.127107    3.100299
    127          1           0       -0.608676   -1.991934   -1.341725
    128          1           0       -1.009483    0.334279   -2.879641
    129          1           0       -0.350022   -0.101376    0.004023
    130          1           0       -1.233459    1.400643   -0.339166
    131          1           0        0.294535    1.147500   -1.127066
    132          1           0       -2.152397   -1.497613   -3.898740
    133          1           0       -2.212896   -3.143839   -3.169727
    134          1           0        0.518295   -2.360108   -3.353846
    135          1           0       -0.243202   -1.643101   -4.728950
    136          1           0       -3.378775    3.828284   -3.850769
    137          1           0       -4.403711    5.164811   -3.447783
    138          1           0       -4.909616    4.104285   -4.784235
    139          1           0       -6.486735    5.934875   -3.656140
    140          1           0       -8.320481    5.937532   -3.946093
    141          1           0       -7.234164    4.715285   -4.666818
    142          1           0       -9.862072    1.830270    1.288131
    143          1           0       -8.737091    0.334585    3.602018
    144          1           0       -9.696647    3.461593    2.850349
    145          1           0       -7.909932    3.330609    2.687591
    146          1           0       -8.703707    2.431847    3.878285
    147          1           0      -11.121950    0.122939    2.802346
    148          1           0      -10.314827   -1.397539    3.136534
    149          1           0      -11.069480   -0.064667    0.639318
    150          1           0      -11.298315   -1.798620    1.070450
    151          1           0       -9.687648   -1.157785    0.514198
    152          1           0       -6.086713   -5.377229    3.192544
    153          1           0       -7.072083   -4.005243    3.794947
    154          1           0       -5.312209   -4.071490    4.208136
    155          1           0       -1.576383   -3.720936    0.711661
    156          1           0        0.150787   -6.859066   -1.686652
    157          1           0       -0.018824   -5.461448   -2.928367
    158          1           0       -1.274405   -6.670769   -2.563248
 ---------------------------------------------------------------------
 Rotational constants (GHZ):           0.0238429           0.0119676           0.0103307
 Leave Link  202 at Fri Sep 10 20:16:12 2021, MaxMem= 23488102400 cpu:               0.2 elap:               0.0
 (Enter /sw/apps/gaussian-16.0/g16/l301.exe)
 Standard basis: def2SVP (5D, 7F)
 Ernie: Thresh=  0.10000D-02 Tol=  0.10000D-05 Strict=F.
 There are  1658 symmetry adapted cartesian basis functions of A   symmetry.
 There are  1572 symmetry adapted basis functions of A   symmetry.
  1572 basis functions,  2678 primitive gaussians,  1658 cartesian basis functions
   312 alpha electrons      312 beta electrons
       nuclear repulsion energy     15314.2214471240 Hartrees.
 IExCor=20419 DFT=T Ex+Corr=CAM-B3LYP ExCW=0 ScaHFX=  1.000000
 ScaDFX=  1.000000  1.000000  1.000000  0.810000 ScalE2=  1.000000  1.000000
 IRadAn=      5 IRanWt=     -1 IRanGd=            0 ICorTp=0 IEmpDi=  4
 HFx  wShort=  0.000000 wLong=  0.330000 cFull=  0.190000 cShort=  0.000000 cLong=  0.460000
 DFx  wShort=  0.000000 wLong=  0.330000 cFull=  0.190000 cShort=  0.000000 cLong=  0.460000
 NAtoms=  158 NActive=  158 NUniq=  158 SFac= 1.00D+00 NAtFMM=   60 NAOKFM=T Big=T
 Integral buffers will be    131072 words long.
 Raffenetti 1 integral format.
 Two-electron integral symmetry is turned on.
 Leave Link  301 at Fri Sep 10 20:16:12 2021, MaxMem= 23488102400 cpu:               1.3 elap:               0.1
 (Enter /sw/apps/gaussian-16.0/g16/l302.exe)
 NPDir=0 NMtPBC=     1 NCelOv=     1 NCel=       1 NClECP=     1 NCelD=      1
         NCelK=      1 NCelE2=     1 NClLst=     1 CellRange=     0.0.
 One-electron integrals computed using PRISM.
 One-electron integral symmetry used in STVInt
   1 Symmetry operations used in ECPInt.
 ECPInt:  NShTT=  271216 NPrTT=  987664 LenC2=  146012 LenP2D=  309184.
 LDataN:  DoStor=T MaxTD1= 4 Len=   56
 NBasis=  1572 RedAO= T EigKep=  3.36D-04  NBF=  1572
 NBsUse=  1572 1.00D-06 EigRej= -1.00D+00 NBFU=  1572
 Precomputing XC quadrature grid using
 IXCGrd= 4 IRadAn=           5 IRanWt=          -1 IRanGd=           0 AccXCQ= 0.00D+00.
 Generated NRdTot=       0 NPtTot=           0 NUsed=           0 NTot=          32
 NSgBfM=  1452  1448  1451  1451  1452 MxSgAt=   158 MxSgA2=   158.
 Leave Link  302 at Fri Sep 10 20:16:17 2021, MaxMem= 23488102400 cpu:             131.7 elap:               5.5
 (Enter /sw/apps/gaussian-16.0/g16/l303.exe)
 DipDrv:  MaxL=1.
 Leave Link  303 at Fri Sep 10 20:16:18 2021, MaxMem= 23488102400 cpu:               9.5 elap:               0.4
 (Enter /sw/apps/gaussian-16.0/g16/l308.exe)
 Leave Link  308 at Fri Sep 10 20:16:18 2021, MaxMem= 23488102400 cpu:              16.6 elap:               0.8
 (Enter /sw/apps/gaussian-16.0/g16/l401.exe)
 ExpMin= 3.36D-02 ExpMax= 4.95D+03 ExpMxC= 7.45D+02 IAcc=3 IRadAn=         5 AccDes= 0.00D+00
 Harris functional with IExCor=20419 and IRadAn=       5 diagonalized for initial guess.
 HarFok:  IExCor=20419 AccDes= 0.00D+00 IRadAn=         5 IDoV= 1 UseB2=F ITyADJ=14
 ICtDFT=  3500011 ScaDFX=  1.000000  1.000000  1.000000  1.000000
 FoFCou: FMM=F IPFlag=           0 FMFlag=      100000 FMFlg1=        2001
         NFxFlg=           0 DoJE=T BraDBF=F KetDBF=T FulRan=T
         wScrn=  0.000000 ICntrl=       500 IOpCl=  0 I1Cent=   200000004 NGrid=           0
         NMat0=    1 NMatS0=      1 NMatT0=    0 NMatD0=    1 NMtDS0=    0 NMtDT0=    0
 Petite list used in FoFCou.
 Harris En= -3918.65849809277    
 JPrj=0 DoOrth=F DoCkMO=F.
 Leave Link  401 at Fri Sep 10 20:16:26 2021, MaxMem= 23488102400 cpu:             192.3 elap:               8.0
 (Enter /sw/apps/gaussian-16.0/g16/l502.exe)
 Integral symmetry usage will be decided dynamically.
 Closed shell SCF:
 Using DIIS extrapolation, IDIIS=  1040.
 NGot= 23488102400 LenX= 23482547354 LenY= 23479796732
 Requested convergence on RMS density matrix=1.00D-08 within 128 cycles.
 Requested convergence on MAX density matrix=1.00D-06.
 Requested convergence on             energy=1.00D-06.
 No special actions if energy rises.
 Fock matrices will be formed incrementally for  20 cycles.

 Cycle   1  Pass 1  IDiag  1:
 FoFJK:  IHMeth= 1 ICntrl=       0 DoSepK=T KAlg= 0 I1Cent=           0 FoldK=F
 IRaf=         1 NMat=       1 IRICut=       1 DoRegI=T DoRafI=F ISym2E= 0 IDoP0=0 IntGTp=1.
 FoFCou: FMM=T IPFlag=           0 FMFlag=      100000 FMFlg1=        2001
         NFxFlg=           0 DoJE=T BraDBF=F KetDBF=F FulRan=T
         wScrn=  0.000000 ICntrl=       500 IOpCl=  0 I1Cent=           0 NGrid=           0
         NMat0=    1 NMatS0=      1 NMatT0=    0 NMatD0=    1 NMtDS0=    0 NMtDT0=    0
 Symmetry not used in FoFCou.
 FMM levels:  10  Number of levels for PrismC:   9
 E= -4068.94855039547    
 DIIS: error= 2.03D-02 at cycle   1 NSaved=   1.
 NSaved= 1 IEnMin= 1 EnMin= -4068.94855039547     IErMin= 1 ErrMin= 2.03D-02
 ErrMax= 2.03D-02  0.00D+00 EMaxC= 1.00D-01 BMatC= 1.69D+00 BMatP= 1.69D+00
 IDIUse=3 WtCom= 7.97D-01 WtEn= 2.03D-01
 Coeff-Com:  0.100D+01
 Coeff-En:   0.100D+01
 Coeff:      0.100D+01
 Gap=     0.121 Goal=   None    Shift=    0.000
 GapD=    0.121 DampG=1.000 DampE=0.500 DampFc=0.5000 IDamp=-1.
 Damping current iteration by 5.00D-01
 RMSDP=1.57D-03 MaxDP=1.35D-01              OVMax= 2.11D-01

 Cycle   2  Pass 1  IDiag  1:
 RMSU=  7.70D-04    CP:  9.82D-01
 E= -4069.33773880175     Delta-E=       -0.389188406272 Rises=F Damp=T
 DIIS: error= 1.26D-02 at cycle   2 NSaved=   2.
 NSaved= 2 IEnMin= 2 EnMin= -4069.33773880175     IErMin= 2 ErrMin= 1.26D-02
 ErrMax= 1.26D-02  0.00D+00 EMaxC= 1.00D-01 BMatC= 3.06D-01 BMatP= 1.69D+00
 IDIUse=3 WtCom= 8.74D-01 WtEn= 1.26D-01
 Coeff-Com: -0.214D+00 0.121D+01
 Coeff-En:   0.000D+00 0.100D+01
 Coeff:     -0.187D+00 0.119D+01
 Gap=     0.133 Goal=   None    Shift=    0.000
 RMSDP=7.67D-04 MaxDP=9.46D-02 DE=-3.89D-01 OVMax= 1.91D-01

 Cycle   3  Pass 1  IDiag  1:
 RMSU=  7.35D-04    CP:  9.68D-01  1.24D+00
 E= -4069.62647322790     Delta-E=       -0.288734426154 Rises=F Damp=F
 DIIS: error= 1.53D-02 at cycle   3 NSaved=   3.
 NSaved= 3 IEnMin= 3 EnMin= -4069.62647322790     IErMin= 2 ErrMin= 1.26D-02
 ErrMax= 1.53D-02  0.00D+00 EMaxC= 1.00D-01 BMatC= 2.01D-01 BMatP= 3.06D-01
 IDIUse=3 WtCom= 8.47D-01 WtEn= 1.53D-01
 Coeff-Com: -0.267D+00 0.651D+00 0.616D+00
 Coeff-En:   0.000D+00 0.000D+00 0.100D+01
 Coeff:     -0.226D+00 0.551D+00 0.675D+00
 Gap=     0.118 Goal=   None    Shift=    0.000
 RMSDP=5.12D-04 MaxDP=4.76D-02 DE=-2.89D-01 OVMax= 1.50D-01

 Cycle   4  Pass 1  IDiag  1:
 RMSU=  2.67D-04    CP:  9.65D-01  1.55D+00  5.04D-01
 E= -4069.76456768114     Delta-E=       -0.138094453239 Rises=F Damp=F
 DIIS: error= 6.82D-03 at cycle   4 NSaved=   4.
 NSaved= 4 IEnMin= 4 EnMin= -4069.76456768114     IErMin= 4 ErrMin= 6.82D-03
 ErrMax= 6.82D-03  0.00D+00 EMaxC= 1.00D-01 BMatC= 4.92D-02 BMatP= 2.01D-01
 IDIUse=3 WtCom= 9.32D-01 WtEn= 6.82D-02
 Coeff-Com: -0.110D+00 0.228D+00 0.408D+00 0.474D+00
 Coeff-En:   0.000D+00 0.000D+00 0.220D+00 0.780D+00
 Coeff:     -0.102D+00 0.212D+00 0.395D+00 0.495D+00
 Gap=     0.118 Goal=   None    Shift=    0.000
 RMSDP=2.03D-04 MaxDP=1.79D-02 DE=-1.38D-01 OVMax= 6.66D-02

 Cycle   5  Pass 1  IDiag  1:
 RMSU=  7.78D-05    CP:  9.64D-01  1.49D+00  6.89D-01  5.46D-01
 E= -4069.81008989516     Delta-E=       -0.045522214023 Rises=F Damp=F
 DIIS: error= 5.64D-04 at cycle   5 NSaved=   5.
 NSaved= 5 IEnMin= 5 EnMin= -4069.81008989516     IErMin= 5 ErrMin= 5.64D-04
 ErrMax= 5.64D-04  0.00D+00 EMaxC= 1.00D-01 BMatC= 1.22D-03 BMatP= 4.92D-02
 IDIUse=3 WtCom= 9.94D-01 WtEn= 5.64D-03
 Coeff-Com: -0.375D-01 0.738D-01 0.169D+00 0.253D+00 0.541D+00
 Coeff-En:   0.000D+00 0.000D+00 0.000D+00 0.000D+00 0.100D+01
 Coeff:     -0.373D-01 0.733D-01 0.169D+00 0.251D+00 0.544D+00
 Gap=     0.118 Goal=   None    Shift=    0.000
 RMSDP=4.43D-05 MaxDP=4.49D-03 DE=-4.55D-02 OVMax= 1.91D-02

 Cycle   6  Pass 1  IDiag  1:
 RMSU=  3.23D-05    CP:  9.64D-01  1.49D+00  6.79D-01  6.22D-01  7.33D-01
 E= -4069.81120193702     Delta-E=       -0.001112041857 Rises=F Damp=F
 DIIS: error= 1.77D-04 at cycle   6 NSaved=   6.
 NSaved= 6 IEnMin= 6 EnMin= -4069.81120193702     IErMin= 6 ErrMin= 1.77D-04
 ErrMax= 1.77D-04  0.00D+00 EMaxC= 1.00D-01 BMatC= 2.04D-04 BMatP= 1.22D-03
 IDIUse=3 WtCom= 9.98D-01 WtEn= 1.77D-03
 Coeff-Com:  0.169D-02-0.561D-02 0.136D-01 0.433D-01 0.314D+00 0.633D+00
 Coeff-En:   0.000D+00 0.000D+00 0.000D+00 0.000D+00 0.133D+00 0.867D+00
 Coeff:      0.169D-02-0.560D-02 0.136D-01 0.432D-01 0.313D+00 0.634D+00
 Gap=     0.118 Goal=   None    Shift=    0.000
 RMSDP=1.77D-05 MaxDP=1.19D-03 DE=-1.11D-03 OVMax= 7.89D-03

 Cycle   7  Pass 1  IDiag  1:
 RMSU=  1.14D-05    CP:  9.64D-01  1.49D+00  6.86D-01  6.20D-01  8.47D-01
                    CP:  7.24D-01
 E= -4069.81143279067     Delta-E=       -0.000230853650 Rises=F Damp=F
 DIIS: error= 9.98D-05 at cycle   7 NSaved=   7.
 NSaved= 7 IEnMin= 7 EnMin= -4069.81143279067     IErMin= 7 ErrMin= 9.98D-05
 ErrMax= 9.98D-05  0.00D+00 EMaxC= 1.00D-01 BMatC= 2.61D-05 BMatP= 2.04D-04
 IDIUse=1 WtCom= 1.00D+00 WtEn= 0.00D+00
 Coeff-Com:  0.458D-02-0.101D-01-0.873D-02-0.299D-02 0.112D+00 0.337D+00
 Coeff-Com:  0.568D+00
 Coeff:      0.458D-02-0.101D-01-0.873D-02-0.299D-02 0.112D+00 0.337D+00
 Coeff:      0.568D+00
 Gap=     0.118 Goal=   None    Shift=    0.000
 RMSDP=6.89D-06 MaxDP=1.16D-03 DE=-2.31D-04 OVMax= 3.49D-03

 Cycle   8  Pass 1  IDiag  1:
 RMSU=  4.89D-06    CP:  9.64D-01  1.50D+00  6.86D-01  6.25D-01  8.48D-01
                    CP:  8.49D-01  8.13D-01
 E= -4069.81146508001     Delta-E=       -0.000032289339 Rises=F Damp=F
 DIIS: error= 5.62D-05 at cycle   8 NSaved=   8.
 NSaved= 8 IEnMin= 8 EnMin= -4069.81146508001     IErMin= 8 ErrMin= 5.62D-05
 ErrMax= 5.62D-05  0.00D+00 EMaxC= 1.00D-01 BMatC= 5.06D-06 BMatP= 2.61D-05
 IDIUse=1 WtCom= 1.00D+00 WtEn= 0.00D+00
 Coeff-Com:  0.224D-02-0.445D-02-0.791D-02-0.123D-01-0.909D-02 0.307D-01
 Coeff-Com:  0.319D+00 0.682D+00
 Coeff:      0.224D-02-0.445D-02-0.791D-02-0.123D-01-0.909D-02 0.307D-01
 Coeff:      0.319D+00 0.682D+00
 Gap=     0.118 Goal=   None    Shift=    0.000
 RMSDP=3.45D-06 MaxDP=3.99D-04 DE=-3.23D-05 OVMax= 1.20D-03

 Cycle   9  Pass 1  IDiag  1:
 RMSU=  2.02D-06    CP:  9.64D-01  1.50D+00  6.87D-01  6.27D-01  8.65D-01
                    CP:  8.77D-01  1.00D+00  9.73D-01
 E= -4069.81147337434     Delta-E=       -0.000008294330 Rises=F Damp=F
 DIIS: error= 2.02D-05 at cycle   9 NSaved=   9.
 NSaved= 9 IEnMin= 9 EnMin= -4069.81147337434     IErMin= 9 ErrMin= 2.02D-05
 ErrMax= 2.02D-05  0.00D+00 EMaxC= 1.00D-01 BMatC= 8.01D-07 BMatP= 5.06D-06
 IDIUse=1 WtCom= 1.00D+00 WtEn= 0.00D+00
 Coeff-Com:  0.503D-03-0.843D-03-0.279D-02-0.622D-02-0.205D-01-0.415D-01
 Coeff-Com:  0.947D-01 0.341D+00 0.636D+00
 Coeff:      0.503D-03-0.843D-03-0.279D-02-0.622D-02-0.205D-01-0.415D-01
 Coeff:      0.947D-01 0.341D+00 0.636D+00
 Gap=     0.118 Goal=   None    Shift=    0.000
 RMSDP=1.51D-06 MaxDP=1.39D-04 DE=-8.29D-06 OVMax= 7.75D-04

 Cycle  10  Pass 1  IDiag  1:
 RMSU=  9.94D-07    CP:  9.64D-01  1.50D+00  6.87D-01  6.27D-01  8.69D-01
                    CP:  8.89D-01  1.05D+00  1.14D+00  1.06D+00
 E= -4069.81147520761     Delta-E=       -0.000001833268 Rises=F Damp=F
 DIIS: error= 1.03D-05 at cycle  10 NSaved=  10.
 NSaved=10 IEnMin=10 EnMin= -4069.81147520761     IErMin=10 ErrMin= 1.03D-05
 ErrMax= 1.03D-05  0.00D+00 EMaxC= 1.00D-01 BMatC= 1.92D-07 BMatP= 8.01D-07
 IDIUse=1 WtCom= 1.00D+00 WtEn= 0.00D+00
 Coeff-Com: -0.442D-03 0.929D-03 0.126D-02 0.109D-02-0.365D-02-0.324D-01
 Coeff-Com: -0.436D-01-0.736D-01 0.236D+00 0.914D+00
 Coeff:     -0.442D-03 0.929D-03 0.126D-02 0.109D-02-0.365D-02-0.324D-01
 Coeff:     -0.436D-01-0.736D-01 0.236D+00 0.914D+00
 Gap=     0.118 Goal=   None    Shift=    0.000
 RMSDP=1.32D-06 MaxDP=1.28D-04 DE=-1.83D-06 OVMax= 6.97D-04

 Cycle  11  Pass 1  IDiag  1:
 RMSU=  5.73D-07    CP:  9.64D-01  1.50D+00  6.87D-01  6.27D-01  8.72D-01
                    CP:  8.99D-01  1.10D+00  1.26D+00  1.42D+00  1.36D+00
 E= -4069.81147611987     Delta-E=       -0.000000912267 Rises=F Damp=F
 DIIS: error= 4.22D-06 at cycle  11 NSaved=  11.
 NSaved=11 IEnMin=11 EnMin= -4069.81147611987     IErMin=11 ErrMin= 4.22D-06
 ErrMax= 4.22D-06  0.00D+00 EMaxC= 1.00D-01 BMatC= 8.41D-08 BMatP= 1.92D-07
 IDIUse=1 WtCom= 1.00D+00 WtEn= 0.00D+00
 Coeff-Com: -0.367D-03 0.716D-03 0.145D-02 0.224D-02 0.461D-02-0.978D-02
 Coeff-Com: -0.424D-01-0.138D+00-0.399D-01 0.519D+00 0.702D+00
 Coeff:     -0.367D-03 0.716D-03 0.145D-02 0.224D-02 0.461D-02-0.978D-02
 Coeff:     -0.424D-01-0.138D+00-0.399D-01 0.519D+00 0.702D+00
 Gap=     0.118 Goal=   None    Shift=    0.000
 RMSDP=7.55D-07 MaxDP=6.53D-05 DE=-9.12D-07 OVMax= 4.01D-04

 Cycle  12  Pass 1  IDiag  1:
 RMSU=  2.86D-07    CP:  9.64D-01  1.50D+00  6.87D-01  6.27D-01  8.73D-01
                    CP:  9.02D-01  1.12D+00  1.33D+00  1.58D+00  1.77D+00
                    CP:  1.16D+00
 E= -4069.81147644295     Delta-E=       -0.000000323078 Rises=F Damp=F
 DIIS: error= 2.56D-06 at cycle  12 NSaved=  12.
 NSaved=12 IEnMin=12 EnMin= -4069.81147644295     IErMin=12 ErrMin= 2.56D-06
 ErrMax= 2.56D-06  0.00D+00 EMaxC= 1.00D-01 BMatC= 2.01D-08 BMatP= 8.41D-08
 IDIUse=1 WtCom= 1.00D+00 WtEn= 0.00D+00
 Coeff-Com: -0.261D-04 0.331D-04 0.289D-03 0.675D-03 0.395D-02 0.341D-02
 Coeff-Com:  0.593D-03-0.429D-01-0.815D-01-0.238D-01 0.259D+00 0.880D+00
 Coeff:     -0.261D-04 0.331D-04 0.289D-03 0.675D-03 0.395D-02 0.341D-02
 Coeff:      0.593D-03-0.429D-01-0.815D-01-0.238D-01 0.259D+00 0.880D+00
 Gap=     0.118 Goal=   None    Shift=    0.000
 RMSDP=4.73D-07 MaxDP=3.09D-05 DE=-3.23D-07 OVMax= 2.63D-04

 Cycle  13  Pass 1  IDiag  1:
 RMSU=  1.76D-07    CP:  9.64D-01  1.50D+00  6.87D-01  6.27D-01  8.73D-01
                    CP:  9.02D-01  1.13D+00  1.36D+00  1.70D+00  1.99D+00
                    CP:  1.58D+00  1.23D+00
 E= -4069.81147655449     Delta-E=       -0.000000111533 Rises=F Damp=F
 DIIS: error= 1.25D-06 at cycle  13 NSaved=  13.
 NSaved=13 IEnMin=13 EnMin= -4069.81147655449     IErMin=13 ErrMin= 1.25D-06
 ErrMax= 1.25D-06  0.00D+00 EMaxC= 1.00D-01 BMatC= 1.05D-08 BMatP= 2.01D-08
 IDIUse=1 WtCom= 1.00D+00 WtEn= 0.00D+00
 Coeff-Com:  0.124D-03-0.254D-03-0.371D-03-0.452D-03 0.851D-03 0.497D-02
 Coeff-Com:  0.189D-01 0.232D-01-0.361D-01-0.232D+00-0.169D+00 0.571D+00
 Coeff-Com:  0.819D+00
 Coeff:      0.124D-03-0.254D-03-0.371D-03-0.452D-03 0.851D-03 0.497D-02
 Coeff:      0.189D-01 0.232D-01-0.361D-01-0.232D+00-0.169D+00 0.571D+00
 Coeff:      0.819D+00
 Gap=     0.118 Goal=   None    Shift=    0.000
 RMSDP=3.88D-07 MaxDP=2.26D-05 DE=-1.12D-07 OVMax= 2.24D-04

 Cycle  14  Pass 1  IDiag  1:
 RMSU=  8.22D-08    CP:  9.64D-01  1.50D+00  6.87D-01  6.28D-01  8.73D-01
                    CP:  9.03D-01  1.14D+00  1.39D+00  1.78D+00  2.20D+00
                    CP:  1.84D+00  1.75D+00  1.14D+00
 E= -4069.81147660111     Delta-E=       -0.000000046628 Rises=F Damp=F
 DIIS: error= 8.08D-07 at cycle  14 NSaved=  14.
 NSaved=14 IEnMin=14 EnMin= -4069.81147660111     IErMin=14 ErrMin= 8.08D-07
 ErrMax= 8.08D-07  0.00D+00 EMaxC= 1.00D-01 BMatC= 1.54D-09 BMatP= 1.05D-08
 IDIUse=1 WtCom= 1.00D+00 WtEn= 0.00D+00
 Coeff-Com:  0.725D-04-0.143D-03-0.266D-03-0.416D-03-0.451D-03 0.124D-02
 Coeff-Com:  0.105D-01 0.209D-01 0.503D-02-0.102D+00-0.150D+00 0.745D-01
 Coeff-Com:  0.411D+00 0.731D+00
 Coeff:      0.725D-04-0.143D-03-0.266D-03-0.416D-03-0.451D-03 0.124D-02
 Coeff:      0.105D-01 0.209D-01 0.503D-02-0.102D+00-0.150D+00 0.745D-01
 Coeff:      0.411D+00 0.731D+00
 Gap=     0.118 Goal=   None    Shift=    0.000
 RMSDP=1.21D-07 MaxDP=7.65D-06 DE=-4.66D-08 OVMax= 6.65D-05

 Cycle  15  Pass 1  IDiag  1:
 RMSU=  4.07D-08    CP:  9.64D-01  1.50D+00  6.87D-01  6.28D-01  8.73D-01
                    CP:  9.02D-01  1.14D+00  1.39D+00  1.80D+00  2.25D+00
                    CP:  1.95D+00  1.91D+00  1.38D+00  1.05D+00
 E= -4069.81147660651     Delta-E=       -0.000000005399 Rises=F Damp=F
 DIIS: error= 4.65D-07 at cycle  15 NSaved=  15.
 NSaved=15 IEnMin=15 EnMin= -4069.81147660651     IErMin=15 ErrMin= 4.65D-07
 ErrMax= 4.65D-07  0.00D+00 EMaxC= 1.00D-01 BMatC= 2.52D-10 BMatP= 1.54D-09
 IDIUse=1 WtCom= 1.00D+00 WtEn= 0.00D+00
 Coeff-Com:  0.765D-05-0.134D-04-0.410D-04-0.952D-04-0.307D-03-0.516D-03
 Coeff-Com:  0.130D-02 0.324D-02 0.910D-02-0.179D-02-0.310D-01-0.692D-01
 Coeff-Com:  0.377D-01 0.299D+00 0.752D+00
 Coeff:      0.765D-05-0.134D-04-0.410D-04-0.952D-04-0.307D-03-0.516D-03
 Coeff:      0.130D-02 0.324D-02 0.910D-02-0.179D-02-0.310D-01-0.692D-01
 Coeff:      0.377D-01 0.299D+00 0.752D+00
 Gap=     0.118 Goal=   None    Shift=    0.000
 RMSDP=3.85D-08 MaxDP=2.35D-06 DE=-5.40D-09 OVMax= 2.51D-05

 Cycle  16  Pass 1  IDiag  1:
 RMSU=  1.93D-08    CP:  9.64D-01  1.50D+00  6.87D-01  6.28D-01  8.73D-01
                    CP:  9.02D-01  1.14D+00  1.39D+00  1.81D+00  2.26D+00
                    CP:  1.97D+00  1.95D+00  1.46D+00  1.24D+00  1.15D+00
 E= -4069.81147660750     Delta-E=       -0.000000000986 Rises=F Damp=F
 DIIS: error= 2.18D-07 at cycle  16 NSaved=  16.
 NSaved=16 IEnMin=16 EnMin= -4069.81147660750     IErMin=16 ErrMin= 2.18D-07
 ErrMax= 2.18D-07  0.00D+00 EMaxC= 1.00D-01 BMatC= 9.38D-11 BMatP= 2.52D-10
 IDIUse=1 WtCom= 1.00D+00 WtEn= 0.00D+00
 Coeff-Com: -0.144D-04 0.293D-04 0.467D-04 0.522D-04-0.391D-04-0.631D-03
 Coeff-Com: -0.181D-02-0.424D-02 0.432D-02 0.242D-01 0.225D-01-0.602D-01
 Coeff-Com: -0.805D-01-0.423D-01 0.386D+00 0.753D+00
 Coeff:     -0.144D-04 0.293D-04 0.467D-04 0.522D-04-0.391D-04-0.631D-03
 Coeff:     -0.181D-02-0.424D-02 0.432D-02 0.242D-01 0.225D-01-0.602D-01
 Coeff:     -0.805D-01-0.423D-01 0.386D+00 0.753D+00
 Gap=     0.118 Goal=   None    Shift=    0.000
 RMSDP=2.48D-08 MaxDP=1.45D-06 DE=-9.86D-10 OVMax= 1.42D-05

 Cycle  17  Pass 1  IDiag  1:
 RMSU=  1.08D-08    CP:  9.64D-01  1.50D+00  6.87D-01  6.28D-01  8.73D-01
                    CP:  9.02D-01  1.14D+00  1.39D+00  1.81D+00  2.27D+00
                    CP:  1.98D+00  1.98D+00  1.51D+00  1.34D+00  1.44D+00
                    CP:  1.26D+00
 E= -4069.81147660749     Delta-E=        0.000000000007 Rises=F Damp=F
 DIIS: error= 1.28D-07 at cycle  17 NSaved=  17.
 NSaved=17 IEnMin=16 EnMin= -4069.81147660750     IErMin=17 ErrMin= 1.28D-07
 ErrMax= 1.28D-07  0.00D+00 EMaxC= 1.00D-01 BMatC= 2.08D-11 BMatP= 9.38D-11
 IDIUse=1 WtCom= 1.00D+00 WtEn= 0.00D+00
 Coeff-Com: -0.816D-05 0.159D-04 0.314D-04 0.460D-04 0.829D-04-0.143D-03
 Coeff-Com: -0.954D-03-0.301D-02-0.323D-04 0.994D-02 0.186D-01-0.798D-02
 Coeff-Com: -0.374D-01-0.999D-01-0.281D-01 0.311D+00 0.838D+00
 Coeff:     -0.816D-05 0.159D-04 0.314D-04 0.460D-04 0.829D-04-0.143D-03
 Coeff:     -0.954D-03-0.301D-02-0.323D-04 0.994D-02 0.186D-01-0.798D-02
 Coeff:     -0.374D-01-0.999D-01-0.281D-01 0.311D+00 0.838D+00
 Gap=     0.118 Goal=   None    Shift=    0.000
 RMSDP=1.38D-08 MaxDP=8.09D-07 DE= 7.28D-12 OVMax= 8.26D-06

 Cycle  18  Pass 1  IDiag  1:
 RMSU=  5.11D-09    CP:  9.64D-01  1.50D+00  6.87D-01  6.28D-01  8.73D-01
                    CP:  9.02D-01  1.14D+00  1.39D+00  1.81D+00  2.27D+00
                    CP:  1.99D+00  1.99D+00  1.52D+00  1.41D+00  1.60D+00
                    CP:  1.66D+00  1.38D+00
 E= -4069.81147660771     Delta-E=       -0.000000000215 Rises=F Damp=F
 DIIS: error= 5.21D-08 at cycle  18 NSaved=  18.
 NSaved=18 IEnMin=18 EnMin= -4069.81147660771     IErMin=18 ErrMin= 5.21D-08
 ErrMax= 5.21D-08  0.00D+00 EMaxC= 1.00D-01 BMatC= 7.71D-12 BMatP= 2.08D-11
 IDIUse=1 WtCom= 1.00D+00 WtEn= 0.00D+00
 Coeff-Com:  0.145D-05-0.322D-05-0.232D-05 0.134D-05 0.648D-04 0.161D-03
 Coeff-Com:  0.311D-03 0.618D-04-0.123D-02-0.484D-02 0.447D-03 0.166D-01
 Coeff-Com:  0.154D-01-0.326D-01-0.155D+00-0.157D+00 0.362D+00 0.956D+00
 Coeff:      0.145D-05-0.322D-05-0.232D-05 0.134D-05 0.648D-04 0.161D-03
 Coeff:      0.311D-03 0.618D-04-0.123D-02-0.484D-02 0.447D-03 0.166D-01
 Coeff:      0.154D-01-0.326D-01-0.155D+00-0.157D+00 0.362D+00 0.956D+00
 Gap=     0.118 Goal=   None    Shift=    0.000
 RMSDP=1.15D-08 MaxDP=6.15D-07 DE=-2.15D-10 OVMax= 6.78D-06

 Cycle  19  Pass 1  IDiag  1:
 RMSU=  3.00D-09    CP:  9.64D-01  1.50D+00  6.87D-01  6.28D-01  8.73D-01
                    CP:  9.02D-01  1.14D+00  1.39D+00  1.81D+00  2.27D+00
                    CP:  1.99D+00  1.99D+00  1.53D+00  1.45D+00  1.74D+00
                    CP:  1.97D+00  1.89D+00  1.32D+00
 E= -4069.81147660764     Delta-E=        0.000000000069 Rises=F Damp=F
 DIIS: error= 4.30D-08 at cycle  19 NSaved=  19.
 NSaved=19 IEnMin=18 EnMin= -4069.81147660771     IErMin=19 ErrMin= 4.30D-08
 ErrMax= 4.30D-08  0.00D+00 EMaxC= 1.00D-01 BMatC= 1.91D-12 BMatP= 7.71D-12
 IDIUse=1 WtCom= 1.00D+00 WtEn= 0.00D+00
 Coeff-Com:  0.306D-05-0.620D-05-0.102D-04-0.125D-04 0.168D-04 0.126D-03
 Coeff-Com:  0.461D-03 0.843D-03-0.630D-03-0.595D-02-0.521D-02 0.115D-01
 Coeff-Com:  0.207D-01 0.114D-01-0.761D-01-0.182D+00-0.353D-01 0.515D+00
 Coeff-Com:  0.746D+00
 Coeff:      0.306D-05-0.620D-05-0.102D-04-0.125D-04 0.168D-04 0.126D-03
 Coeff:      0.461D-03 0.843D-03-0.630D-03-0.595D-02-0.521D-02 0.115D-01
 Coeff:      0.207D-01 0.114D-01-0.761D-01-0.182D+00-0.353D-01 0.515D+00
 Coeff:      0.746D+00
 Gap=     0.118 Goal=   None    Shift=    0.000
 RMSDP=5.25D-09 MaxDP=3.18D-07 DE= 6.91D-11 OVMax= 2.98D-06

 SCF Done:  E(RCAM-B3LYP) =  -4069.81147661     A.U. after   19 cycles
            NFock= 19  Conv=0.52D-08     -V/T= 2.0102
 KE= 4.028797849049D+03 PE=-4.010929155395D+04 EE= 1.669646078117D+04
 Leave Link  502 at Fri Sep 10 20:27:46 2021, MaxMem= 23488102400 cpu:           15672.7 elap:             679.6
 (Enter /sw/apps/gaussian-16.0/g16/l801.exe)
 DoSCS=F DFT=T ScalE2(SS,OS)=  1.000000  1.000000
 ExpMin= 3.36D-02 ExpMax= 4.95D+03 ExpMxC= 7.45D+02 IAcc=3 IRadAn=         5 AccDes= 0.00D+00
 HarFok:  IExCor=  205 AccDes= 0.00D+00 IRadAn=         5 IDoV=-2 UseB2=F ITyADJ=14
 ICtDFT= 12500011 ScaDFX=  1.000000  1.000000  1.000000  1.000000
 GSVD:  LWork=       -9588 too small for GESVD, short by       45590 words or       45590 for optimal perf.
 Largest valence mixing into a core orbital is  2.03D-04
 Largest core mixing into a valence orbital is  5.24D-05
 Range of M.O.s used for correlation:    95  1572
 NBasis=  1572 NAE=   312 NBE=   312 NFC=    94 NFV=     0
 NROrb=   1478 NOA=   218 NOB=   218 NVA=  1260 NVB=  1260
 Leave Link  801 at Fri Sep 10 20:27:47 2021, MaxMem= 23488102400 cpu:               9.5 elap:               0.4
 (Enter /sw/apps/gaussian-16.0/g16/l914.exe)
 RHF ground state
 Two-electron integrals replicated using symmetry.
 MDV= 23488102400 DFT=T DoStab=F Mixed=T DoRPA=T DoScal=F NonHer=T
 Making orbital integer symmetry assigments:
 Orbital symmetries:
       Occupied  (A) (A) (A) (A) (A) (A) (A) (A) (A) (A) (A) (A)
                 (A) (A) (A) (A) (A) (A) (A) (A) (A) (A) (A) (A)
                 (A) (A) (A) (A) (A) (A) (A) (A) (A) (A) (A) (A)
                 (A) (A) (A) (A) (A) (A) (A) (A) (A) (A) (A) (A)
                 (A) (A) (A) (A) (A) (A) (A) (A) (A) (A) (A) (A)
                 (A) (A) (A) (A) (A) (A) (A) (A) (A) (A) (A) (A)
                 (A) (A) (A) (A) (A) (A) (A) (A) (A) (A) (A) (A)
                 (A) (A) (A) (A) (A) (A) (A) (A) (A) (A) (A) (A)
                 (A) (A) (A) (A) (A) (A) (A) (A) (A) (A) (A) (A)
                 (A) (A) (A) (A) (A) (A) (A) (A) (A) (A) (A) (A)
                 (A) (A) (A) (A) (A) (A) (A) (A) (A) (A) (A) (A)
                 (A) (A) (A) (A) (A) (A) (A) (A) (A) (A) (A) (A)
                 (A) (A) (A) (A) (A) (A) (A) (A) (A) (A) (A) (A)
                 (A) (A) (A) (A) (A) (A) (A) (A) (A) (A) (A) (A)
                 (A) (A) (A) (A) (A) (A) (A) (A) (A) (A) (A) (A)
                 (A) (A) (A) (A) (A) (A) (A) (A) (A) (A) (A) (A)
                 (A) (A) (A) (A) (A) (A) (A) (A) (A) (A) (A) (A)
                 (A) (A) (A) (A) (A) (A) (A) (A) (A) (A) (A) (A)
                 (A) (A) (A) (A) (A) (A) (A) (A) (A) (A) (A) (A)
                 (A) (A) (A) (A) (A) (A) (A) (A) (A) (A) (A) (A)
                 (A) (A) (A) (A) (A) (A) (A) (A) (A) (A) (A) (A)
                 (A) (A) (A) (A) (A) (A) (A) (A) (A) (A) (A) (A)
                 (A) (A) (A) (A) (A) (A) (A) (A) (A) (A) (A) (A)
                 (A) (A) (A) (A) (A) (A) (A) (A) (A) (A) (A) (A)
                 (A) (A) (A) (A) (A) (A) (A) (A) (A) (A) (A) (A)
                 (A) (A) (A) (A) (A) (A) (A) (A) (A) (A) (A) (A)
       Virtual   (A) (A) (A) (A) (A) (A) (A) (A) (A) (A) (A) (A)
                 (A) (A) (A) (A) (A) (A) (A) (A) (A) (A) (A) (A)
                 (A) (A) (A) (A) (A) (A) (A) (A) (A) (A) (A) (A)
                 (A) (A) (A) (A) (A) (A) (A) (A) (A) (A) (A) (A)
                 (A) (A) (A) (A) (A) (A) (A) (A) (A) (A) (A) (A)
                 (A) (A) (A) (A) (A) (A) (A) (A) (A) (A) (A) (A)
                 (A) (A) (A) (A) (A) (A) (A) (A) (A) (A) (A) (A)
                 (A) (A) (A) (A) (A) (A) (A) (A) (A) (A) (A) (A)
                 (A) (A) (A) (A) (A) (A) (A) (A) (A) (A) (A) (A)
                 (A) (A) (A) (A) (A) (A) (A) (A) (A) (A) (A) (A)
                 (A) (A) (A) (A) (A) (A) (A) (A) (A) (A) (A) (A)
                 (A) (A) (A) (A) (A) (A) (A) (A) (A) (A) (A) (A)
                 (A) (A) (A) (A) (A) (A) (A) (A) (A) (A) (A) (A)
                 (A) (A) (A) (A) (A) (A) (A) (A) (A) (A) (A) (A)
                 (A) (A) (A) (A) (A) (A) (A) (A) (A) (A) (A) (A)
                 (A) (A) (A) (A) (A) (A) (A) (A) (A) (A) (A) (A)
                 (A) (A) (A) (A) (A) (A) (A) (A) (A) (A) (A) (A)
                 (A) (A) (A) (A) (A) (A) (A) (A) (A) (A) (A) (A)
                 (A) (A) (A) (A) (A) (A) (A) (A) (A) (A) (A) (A)
                 (A) (A) (A) (A) (A) (A) (A) (A) (A) (A) (A) (A)
                 (A) (A) (A) (A) (A) (A) (A) (A) (A) (A) (A) (A)
                 (A) (A) (A) (A) (A) (A) (A) (A) (A) (A) (A) (A)
                 (A) (A) (A) (A) (A) (A) (A) (A) (A) (A) (A) (A)
                 (A) (A) (A) (A) (A) (A) (A) (A) (A) (A) (A) (A)
                 (A) (A) (A) (A) (A) (A) (A) (A) (A) (A) (A) (A)
                 (A) (A) (A) (A) (A) (A) (A) (A) (A) (A) (A) (A)
                 (A) (A) (A) (A) (A) (A) (A) (A) (A) (A) (A) (A)
                 (A) (A) (A) (A) (A) (A) (A) (A) (A) (A) (A) (A)
                 (A) (A) (A) (A) (A) (A) (A) (A) (A) (A) (A) (A)
                 (A) (A) (A) (A) (A) (A) (A) (A) (A) (A) (A) (A)
                 (A) (A) (A) (A) (A) (A) (A) (A) (A) (A) (A) (A)
                 (A) (A) (A) (A) (A) (A) (A) (A) (A) (A) (A) (A)
                 (A) (A) (A) (A) (A) (A) (A) (A) (A) (A) (A) (A)
                 (A) (A) (A) (A) (A) (A) (A) (A) (A) (A) (A) (A)
                 (A) (A) (A) (A) (A) (A) (A) (A) (A) (A) (A) (A)
                 (A) (A) (A) (A) (A) (A) (A) (A) (A) (A) (A) (A)
                 (A) (A) (A) (A) (A) (A) (A) (A) (A) (A) (A) (A)
                 (A) (A) (A) (A) (A) (A) (A) (A) (A) (A) (A) (A)
                 (A) (A) (A) (A) (A) (A) (A) (A) (A) (A) (A) (A)
                 (A) (A) (A) (A) (A) (A) (A) (A) (A) (A) (A) (A)
                 (A) (A) (A) (A) (A) (A) (A) (A) (A) (A) (A) (A)
                 (A) (A) (A) (A) (A) (A) (A) (A) (A) (A) (A) (A)
                 (A) (A) (A) (A) (A) (A) (A) (A) (A) (A) (A) (A)
                 (A) (A) (A) (A) (A) (A) (A) (A) (A) (A) (A) (A)
                 (A) (A) (A) (A) (A) (A) (A) (A) (A) (A) (A) (A)
                 (A) (A) (A) (A) (A) (A) (A) (A) (A) (A) (A) (A)
                 (A) (A) (A) (A) (A) (A) (A) (A) (A) (A) (A) (A)
                 (A) (A) (A) (A) (A) (A) (A) (A) (A) (A) (A) (A)
                 (A) (A) (A) (A) (A) (A) (A) (A) (A) (A) (A) (A)
                 (A) (A) (A) (A) (A) (A) (A) (A) (A) (A) (A) (A)
                 (A) (A) (A) (A) (A) (A) (A) (A) (A) (A) (A) (A)
                 (A) (A) (A) (A) (A) (A) (A) (A) (A) (A) (A) (A)
                 (A) (A) (A) (A) (A) (A) (A) (A) (A) (A) (A) (A)
                 (A) (A) (A) (A) (A) (A) (A) (A) (A) (A) (A) (A)
                 (A) (A) (A) (A) (A) (A) (A) (A) (A) (A) (A) (A)
                 (A) (A) (A) (A) (A) (A) (A) (A) (A) (A) (A) (A)
                 (A) (A) (A) (A) (A) (A) (A) (A) (A) (A) (A) (A)
                 (A) (A) (A) (A) (A) (A) (A) (A) (A) (A) (A) (A)
                 (A) (A) (A) (A) (A) (A) (A) (A) (A) (A) (A) (A)
                 (A) (A) (A) (A) (A) (A) (A) (A) (A) (A) (A) (A)
                 (A) (A) (A) (A) (A) (A) (A) (A) (A) (A) (A) (A)
                 (A) (A) (A) (A) (A) (A) (A) (A) (A) (A) (A) (A)
                 (A) (A) (A) (A) (A) (A) (A) (A) (A) (A) (A) (A)
                 (A) (A) (A) (A) (A) (A) (A) (A) (A) (A) (A) (A)
                 (A) (A) (A) (A) (A) (A) (A) (A) (A) (A) (A) (A)
                 (A) (A) (A) (A) (A) (A) (A) (A) (A) (A) (A) (A)
                 (A) (A) (A) (A) (A) (A) (A) (A) (A) (A) (A) (A)
                 (A) (A) (A) (A) (A) (A) (A) (A) (A) (A) (A) (A)
                 (A) (A) (A) (A) (A) (A) (A) (A) (A) (A) (A) (A)
                 (A) (A) (A) (A) (A) (A) (A) (A) (A) (A) (A) (A)
                 (A) (A) (A) (A) (A) (A) (A) (A) (A) (A) (A) (A)
                 (A) (A) (A) (A) (A) (A) (A) (A) (A) (A) (A) (A)
                 (A) (A) (A) (A) (A) (A) (A) (A) (A) (A) (A) (A)
                 (A) (A) (A) (A) (A) (A) (A) (A) (A) (A) (A) (A)
                 (A) (A) (A) (A) (A) (A) (A) (A) (A) (A) (A) (A)
                 (A) (A) (A) (A) (A) (A) (A) (A) (A) (A) (A) (A)
                 (A) (A) (A) (A) (A) (A) (A) (A) (A) (A) (A) (A)
                 (A) (A) (A) (A) (A) (A) (A) (A) (A) (A) (A) (A)
                 (A) (A) (A) (A) (A) (A) (A) (A) (A) (A) (A) (A)
                 (A) (A) (A) (A) (A) (A) (A) (A) (A) (A) (A) (A)
                 (A) (A) (A) (A) (A) (A) (A) (A) (A) (A) (A) (A)
                 (A) (A) (A) (A) (A) (A) (A) (A) (A) (A) (A) (A)
                 (A) (A) (A) (A) (A) (A) (A) (A) (A) (A) (A) (A)
                 (A) (A) (A) (A) (A) (A) (A) (A) (A) (A) (A) (A)
                 (A) (A) (A) (A) (A) (A) (A) (A) (A) (A) (A) (A)
                 (A) (A) (A) (A) (A) (A) (A) (A) (A) (A) (A) (A)
                 (A) (A) (A) (A) (A) (A) (A) (A) (A) (A) (A) (A)
                 (A) (A) (A) (A) (A) (A) (A) (A) (A) (A) (A) (A)
                 (A) (A) (A) (A) (A) (A) (A) (A) (A) (A) (A) (A)
                 (A) (A) (A) (A) (A) (A) (A) (A) (A) (A) (A) (A)
                 (A) (A) (A) (A) (A) (A) (A) (A) (A) (A) (A) (A)
                 (A) (A) (A) (A) (A) (A) (A) (A) (A) (A) (A) (A)
                 (A) (A) (A) (A) (A) (A) (A) (A) (A) (A) (A) (A)
                 (A) (A) (A) (A) (A) (A) (A) (A) (A) (A) (A) (A)
                 (A) (A) (A) (A) (A) (A) (A) (A) (A) (A) (A) (A)
                 (A) (A) (A) (A) (A) (A) (A) (A) (A) (A) (A) (A)
                 (A) (A) (A) (A) (A) (A) (A) (A) (A) (A) (A) (A)
                 (A) (A) (A) (A) (A) (A) (A) (A) (A) (A) (A) (A)
                 (A) (A) (A) (A) (A) (A) (A) (A) (A) (A) (A) (A)
                 (A) (A) (A) (A) (A) (A) (A) (A) (A) (A) (A) (A)
                 (A) (A) (A) (A) (A) (A) (A) (A) (A) (A) (A) (A)
                 (A) (A) (A) (A) (A) (A) (A) (A) (A) (A) (A) (A)
                 (A) (A) (A) (A) (A) (A) (A) (A) (A) (A) (A) (A)
                 (A) (A) (A) (A) (A) (A) (A) (A) (A) (A) (A) (A)
                 (A) (A) (A) (A) (A) (A) (A) (A) (A) (A) (A) (A)
    20 initial guesses have been made.
 Convergence on wavefunction:    0.001000000000000
 Davidson Disk Diagonalization:  ConvIn= 1.00D-03 SkipCon=T Conv= 1.00D-03.
 Max sub-space:  2000 roots to seek:    20 dimension of matrix:       549360
 Iteration     1 Dimension    20 NMult     0 NNew     20
 CISAX will form    20 AO SS matrices at one time.
 NMat=    20 NSing=    20 JSym2X= 0.
 FoFJK:  IHMeth= 1 ICntrl=       0 DoSepK=T KAlg= 0 I1Cent=           0 FoldK=F
 IRaf=         1 NMat=      40 IRICut=       1 DoRegI=T DoRafI=F ISym2E= 0 IDoP0=3 IntGTp=3.
 FoFCou: FMM=T IPFlag=           0 FMFlag=      100000 FMFlg1=        2001
         NFxFlg=           0 DoJE=F BraDBF=F KetDBF=F FulRan=T
         wScrn=  0.000000 ICntrl=       500 IOpCl=  0 I1Cent=           0 NGrid=           0
         NMat0=   20 NMatS0=     20 NMatT0=    0 NMatD0=   20 NMtDS0=    0 NMtDT0=    0
 Symmetry not used in FoFCou.
 FMM levels:  10  Number of levels for PrismC:   9
 New state      2 was old state      7
 New state      3 was old state      6
 New state      4 was old state      2
 New state      5 was old state      4
 Excitation Energies [eV] at current iteration:
 Root      1 :     2.391968405021909
 Root      2 :     2.606610642520145
 Root      3 :     2.622314490516382
 Root      4 :     2.638721337912383
 Root      5 :     2.674430080062389
 Root      6 :     2.736970295972873
 Root      7 :     3.171194774001977
 Root      8 :     3.473502703149927
 Root      9 :     3.619862778214130
 Root     10 :     3.662973062204906
 Root     11 :     3.742196603970747
 Root     12 :     3.764521083082484
 Root     13 :     4.278453283378049
 Root     14 :     4.294281876944433
 Root     15 :     4.325380002678644
 Root     16 :     4.614843128034736
 Root     17 :     4.627487026071232
 Root     18 :     4.676098020180534
 Root     19 :     4.737905289480598
 Root     20 :     4.770108309554479
 Iteration     2 Dimension    30 NMult    20 NNew     10
 CISAX will form    10 AO SS matrices at one time.
 NMat=    10 NSing=    10 JSym2X= 0.
 New state      1 was old state      4
 Root      1 not converged, maximum delta is    0.223673561341962
 Root      2 not converged, maximum delta is    0.251023316388895
 Root      3 not converged, maximum delta is    0.100232152200784
 New state      4 was old state      6
 Root      4 not converged, maximum delta is    0.129493057000274
 New state      5 was old state      1
 Root      5 not converged, maximum delta is    0.022102540036238
 Excitation Energies [eV] at current iteration:
 Root      1 :     1.777499610123972   Change is   -0.861221727788411
 Root      2 :     2.230219336486349   Change is   -0.376391306033796
 Root      3 :     2.235992865915410   Change is   -0.386321624600972
 Root      4 :     2.358277573755610   Change is   -0.378692722217263
 Root      5 :     2.388127600017242   Change is   -0.003840805004668
 Iteration     3 Dimension    40 NMult    30 NNew     10
 CISAX will form    10 AO SS matrices at one time.
 NMat=    10 NSing=    10 JSym2X= 0.
 Root      1 not converged, maximum delta is    0.052319379217786
 New state      2 was old state      4
 Root      2 not converged, maximum delta is    0.171578554923759
 New state      3 was old state      2
 Root      3 not converged, maximum delta is    0.276932175610631
 New state      4 was old state      3
 Root      4 not converged, maximum delta is    0.286307891954152
 Root      5 not converged, maximum delta is    0.002797933750418
 Excitation Energies [eV] at current iteration:
 Root      1 :     1.672609488182566   Change is   -0.104890121941406
 Root      2 :     1.756164833361709   Change is   -0.602112740393901
 Root      3 :     2.190845796637486   Change is   -0.039373539848863
 Root      4 :     2.202765581939051   Change is   -0.033227283976359
 Root      5 :     2.388105562667231   Change is   -0.000022037350011
 Iteration     4 Dimension    50 NMult    40 NNew     10
 CISAX will form    10 AO SS matrices at one time.
 NMat=    10 NSing=    10 JSym2X= 0.
 Root      1 not converged, maximum delta is    0.011080387732493
 Root      2 not converged, maximum delta is    0.029397063192734
 Root      3 not converged, maximum delta is    0.017946619142453
 Root      4 not converged, maximum delta is    0.017670925814654
 Root      5 has converged.
 Excitation Energies [eV] at current iteration:
 Root      1 :     1.655991562105633   Change is   -0.016617926076933
 Root      2 :     1.707051504049775   Change is   -0.049113329311935
 Root      3 :     2.183505234607670   Change is   -0.007340562029816
 Root      4 :     2.195253930844141   Change is   -0.007511651094910
 Root      5 :     2.388104331314277   Change is   -0.000001231352954
 Iteration     5 Dimension    58 NMult    50 NNew      8
 CISAX will form     8 AO SS matrices at one time.
 NMat=     8 NSing=     8 JSym2X= 0.
 Root      1 not converged, maximum delta is    0.001530680018007
 Root      2 not converged, maximum delta is    0.012447515525846
 Root      3 not converged, maximum delta is    0.003873605703794
 Root      4 not converged, maximum delta is    0.003836221723536
 Root      5 has converged.
 Excitation Energies [eV] at current iteration:
 Root      1 :     1.654262590655528   Change is   -0.001728971450104
 Root      2 :     1.698452594993658   Change is   -0.008598909056116
 Root      3 :     2.182646993636167   Change is   -0.000858240971502
 Root      4 :     2.194342935846971   Change is   -0.000910994997169
 Root      5 :     2.388104233925240   Change is   -0.000000097389036
 Iteration     6 Dimension    66 NMult    58 NNew      8
 CISAX will form     8 AO SS matrices at one time.
 NMat=     8 NSing=     8 JSym2X= 0.
 Root      1 has converged.
 Root      2 not converged, maximum delta is    0.001153422127117
 Root      3 has converged.
 Root      4 has converged.
 Root      5 has converged.
 Excitation Energies [eV] at current iteration:
 Root      1 :     1.654018069753352   Change is   -0.000244520902176
 Root      2 :     1.697706760834114   Change is   -0.000745834159544
 Root      3 :     2.182519286988728   Change is   -0.000127706647440
 Root      4 :     2.194220623626888   Change is   -0.000122312220084
 Root      5 :     2.388104220925729   Change is   -0.000000012999512
 Iteration     7 Dimension    68 NMult    66 NNew      2
 CISAX will form     2 AO SS matrices at one time.
 NMat=     2 NSing=     2 JSym2X= 0.
 Root      1 has converged.
 Root      2 has converged.
 Root      3 has converged.
 Root      4 has converged.
 Root      5 has converged.
 Excitation Energies [eV] at current iteration:
 Root      1 :     1.654018046008512   Change is   -0.000000023744840
 Root      2 :     1.697621845792153   Change is   -0.000084915041961
[...]
 Alpha virt. eigenvalues --    1.83557   1.83804   1.83927   1.84077   1.84233
 Alpha virt. eigenvalues --    1.84519   1.84594   1.84724   1.84891   1.84986
 Alpha virt. eigenvalues --    1.85098   1.85231   1.85327   1.85509   1.85638
 Alpha virt. eigenvalues --    1.85828   1.86098   1.86163   1.86364   1.86555
 Alpha virt. eigenvalues --    1.86592   1.86832   1.86863   1.87001   1.87228
 Alpha virt. eigenvalues --    1.87415   1.87470   1.87645   1.87737   1.87825
 Alpha virt. eigenvalues --    1.88123   1.88211   1.88304   1.88497   1.88605
 Alpha virt. eigenvalues --    1.88785   1.88929   1.89176   1.89358   1.89412
 Alpha virt. eigenvalues --    1.89516   1.89849   1.89992   1.90060   1.90489
 Alpha virt. eigenvalues --    1.90541   1.91129   1.91198   1.91271   1.91649
 Alpha virt. eigenvalues --    1.91905   1.91977   1.92376   1.92438   1.92775
 Alpha virt. eigenvalues --    1.92900   1.93152   1.93385   1.93674   1.94082
 Alpha virt. eigenvalues --    1.94471   1.94495   1.95002   1.95290   1.95520
 Alpha virt. eigenvalues --    1.95741   1.95782   1.95953   1.96089   1.96262
 Alpha virt. eigenvalues --    1.96402   1.96469   1.96683   1.96731   1.97129
 Alpha virt. eigenvalues --    1.97247   1.97634   1.97803   1.97945   1.98066
 Alpha virt. eigenvalues --    1.98398   1.98471   1.98740   1.98922   1.99283
 Alpha virt. eigenvalues --    1.99603   2.00209   2.00453   2.00771   2.01032
 Alpha virt. eigenvalues --    2.01230   2.01363   2.01473   2.01539   2.01666
 Alpha virt. eigenvalues --    2.01929   2.02129   2.02570   2.02959   2.03041
 Alpha virt. eigenvalues --    2.03205   2.03241   2.03454   2.03652   2.03770
 Alpha virt. eigenvalues --    2.03953   2.04328   2.04734   2.05152   2.05289
 Alpha virt. eigenvalues --    2.05806   2.05901   2.06523   2.06853   2.07023
 Alpha virt. eigenvalues --    2.07412   2.07582   2.08360   2.08688   2.08777
 Alpha virt. eigenvalues --    2.09216   2.09460   2.09897   2.10597   2.10960
 Alpha virt. eigenvalues --    2.11178   2.11278   2.11494   2.11622   2.11824
 Alpha virt. eigenvalues --    2.12089   2.12316   2.12574   2.12654   2.12738
 Alpha virt. eigenvalues --    2.13016   2.13138   2.13529   2.13931   2.14028
 Alpha virt. eigenvalues --    2.14417   2.15130   2.15607   2.15715   2.16309
 Alpha virt. eigenvalues --    2.16326   2.16565   2.16786   2.17227   2.17389
 Alpha virt. eigenvalues --    2.17493   2.17811   2.17880   2.18113   2.18189
 Alpha virt. eigenvalues --    2.18223   2.18693   2.18991   2.19434   2.19594
 Alpha virt. eigenvalues --    2.19849   2.20018   2.20067   2.20520   2.20677
 Alpha virt. eigenvalues --    2.20964   2.21307   2.21445   2.21529   2.22031
 Alpha virt. eigenvalues --    2.22190   2.22454   2.22945   2.23122   2.23545
 Alpha virt. eigenvalues --    2.24179   2.24593   2.24768   2.25150   2.26060
 Alpha virt. eigenvalues --    2.26557   2.26702   2.26873   2.27237   2.27495
 Alpha virt. eigenvalues --    2.27904   2.28686   2.29062   2.29501   2.29721
 Alpha virt. eigenvalues --    2.30178   2.30215   2.30868   2.30917   2.31007
 Alpha virt. eigenvalues --    2.31246   2.31406   2.31993   2.32398   2.32902
 Alpha virt. eigenvalues --    2.33239   2.33455   2.33696   2.33931   2.34348
 Alpha virt. eigenvalues --    2.35158   2.35551   2.35681   2.36131   2.36231
 Alpha virt. eigenvalues --    2.36393   2.36543   2.36596   2.37469   2.37847
 Alpha virt. eigenvalues --    2.38041   2.38534   2.38607   2.39142   2.39392
 Alpha virt. eigenvalues --    2.39934   2.39968   2.40259   2.40445   2.41022
 Alpha virt. eigenvalues --    2.41092   2.41457   2.41523   2.41812   2.41898
 Alpha virt. eigenvalues --    2.42426   2.42737   2.42963   2.43280   2.43614
 Alpha virt. eigenvalues --    2.43926   2.44239   2.44501   2.44675   2.45012
 Alpha virt. eigenvalues --    2.45235   2.45347   2.45777   2.46069   2.46255
 Alpha virt. eigenvalues --    2.46479   2.46593   2.46700   2.47046   2.47082
 Alpha virt. eigenvalues --    2.47508   2.47590   2.48071   2.49105   2.49522
 Alpha virt. eigenvalues --    2.49862   2.50028   2.50336   2.50599   2.50956
 Alpha virt. eigenvalues --    2.51537   2.51669   2.51804   2.52217   2.52568
 Alpha virt. eigenvalues --    2.52741   2.53400   2.53711   2.53916   2.54135
 Alpha virt. eigenvalues --    2.54416   2.54591   2.55018   2.55301   2.55862
 Alpha virt. eigenvalues --    2.57626   2.58254   2.58424   2.59111   2.59979
 Alpha virt. eigenvalues --    2.60367   2.60627   2.61162   2.61475   2.61996
 Alpha virt. eigenvalues --    2.62288   2.62642   2.62735   2.63336   2.63693
 Alpha virt. eigenvalues --    2.64059   2.64408   2.64551   2.64854   2.65285
 Alpha virt. eigenvalues --    2.65583   2.66074   2.66563   2.66679   2.66967
 Alpha virt. eigenvalues --    2.67235   2.67687   2.68161   2.68614   2.68792
 Alpha virt. eigenvalues --    2.68984   2.69176   2.69366   2.69788   2.69800
 Alpha virt. eigenvalues --    2.70301   2.70756   2.71302   2.71800   2.72119
 Alpha virt. eigenvalues --    2.72423   2.72505   2.72839   2.73071   2.73242
 Alpha virt. eigenvalues --    2.73416   2.73565   2.73881   2.74322   2.74718
 Alpha virt. eigenvalues --    2.74774   2.75308   2.76392   2.76695   2.77019
 Alpha virt. eigenvalues --    2.77211   2.77290   2.77772   2.77947   2.78433
 Alpha virt. eigenvalues --    2.78490   2.78879   2.78897   2.79403   2.80101
 Alpha virt. eigenvalues --    2.80345   2.80414   2.80914   2.81004   2.81346
 Alpha virt. eigenvalues --    2.81697   2.82121   2.82246   2.82512   2.83517
 Alpha virt. eigenvalues --    2.83555   2.83981   2.84212   2.84341   2.84671
 Alpha virt. eigenvalues --    2.84682   2.85033   2.85427   2.85850   2.86778
 Alpha virt. eigenvalues --    2.86886   2.87373   2.87613   2.87933   2.88315
 Alpha virt. eigenvalues --    2.88378   2.88727   2.88816   2.89053   2.90260
 Alpha virt. eigenvalues --    2.90890   2.91004   2.91273   2.92923   2.93522
 Alpha virt. eigenvalues --    2.93941   2.94023   2.94346   2.94690   2.95114
 Alpha virt. eigenvalues --    2.95760   2.95977   2.96248   2.96343   2.96555
 Alpha virt. eigenvalues --    2.96989   2.97284   2.97704   2.97962   2.98153
 Alpha virt. eigenvalues --    2.98203   2.98418   2.98634   2.98702   2.98816
 Alpha virt. eigenvalues --    2.98953   2.99089   2.99374   2.99816   2.99906
 Alpha virt. eigenvalues --    3.00021   3.00227   3.00397   3.00516   3.01233
 Alpha virt. eigenvalues --    3.01784   3.01800   3.02049   3.02408   3.02524
 Alpha virt. eigenvalues --    3.02822   3.03089   3.03155   3.03513   3.03913
 Alpha virt. eigenvalues --    3.04005   3.04271   3.04316   3.04386   3.04678
 Alpha virt. eigenvalues --    3.04903   3.05124   3.05483   3.05907   3.06338
 Alpha virt. eigenvalues --    3.06543   3.07184   3.07925   3.08042   3.09213
 Alpha virt. eigenvalues --    3.09448   3.09518   3.10217   3.10966   3.10973
 Alpha virt. eigenvalues --    3.11166   3.11596   3.11705   3.12001   3.12010
 Alpha virt. eigenvalues --    3.12697   3.13150   3.13424   3.13803   3.13898
 Alpha virt. eigenvalues --    3.13934   3.14978   3.15738   3.16076   3.17070
 Alpha virt. eigenvalues --    3.17717   3.17847   3.17989   3.18895   3.19170
 Alpha virt. eigenvalues --    3.22082   3.22999   3.23722   3.24480   3.24651
 Alpha virt. eigenvalues --    3.25467   3.26280   3.26833   3.27387   3.27599
 Alpha virt. eigenvalues --    3.28901   3.29663   3.31291   3.31576   3.33179
 Alpha virt. eigenvalues --    3.33345   3.40386   3.40817   3.42572   3.42947
 Alpha virt. eigenvalues --    3.48451   3.48910   3.49793   3.50444   3.51011
 Alpha virt. eigenvalues --    3.51243   3.56320   3.57162   3.58887   3.59483
 Alpha virt. eigenvalues --    3.62631   3.62710   3.65947   3.66226   3.66960
 Alpha virt. eigenvalues --    3.68050   3.73070   3.74421   3.75871   3.77041
          Condensed to atoms (all electrons):
 Mulliken charges:
               1
     1  Mg   0.832797
     2  C   -0.003707
     3  C   -0.094662
     4  C   -0.045338
     5  C   -0.063335
     6  N   -0.256580
     7  C   -0.053577
     8  C   -0.013396
     9  C   -0.086593
    10  C    0.045028
    11  C    0.104683
    12  C    0.051442
    13  C   -0.071804
    14  H    0.036113
    15  N   -0.433478
    16  C    0.166791
    17  C   -0.178288
    18  C   -0.004831
    19  C    0.148152
    20  C    0.110275
    21  C    0.011580
    22  O   -0.248971
    23  C    0.063063
    24  N   -0.340655
    25  C    0.040767
    26  C   -0.028223
    27  C   -0.024235
    28  C    0.074928
    29  C    0.075949
    30  C    0.034927
    31  C   -0.004580
    32  N   -0.310906
    33  C    0.080528
    34  C   -0.168500
    35  C    0.009252
    36  C    0.082629
    37  C    0.126898
    38  C    0.047414
    39  O   -0.186304
    40  C   -0.005954
    41  C    0.213397
    42  O   -0.257442
    43  O   -0.304343
    44  C    0.157742
    45  H   -0.017456
    46  H   -0.016446
    47  H   -0.040334
    48  H    0.001755
    49  H   -0.004336
    50  H    0.025920
    51  H    0.016871
    52  H    0.017139
    53  H    0.009287
    54  H    0.043959
    55  H    0.019145
    56  H    0.018070
    57  H    0.005961
    58  H    0.027560
    59  H    0.037697
    60  H    0.038028
    61  H    0.036123
    62  H    0.029230
    63  H    0.016781
    64  H    0.010144
    65  H    0.023682
    66  H    0.012634
    67  H    0.005287
    68  H    0.007033
    69  H    0.005542
    70  H    0.008844
    71  H    0.019243
    72  H    0.027864
    73  H    0.049642
    74  H    0.009776
    75  H    0.046520
    76  H    0.035795
    77  H    0.044253
    78  H    0.046163
    79  H    0.051698
    80  Mg   0.837190
    81  C   -0.017166
    82  C   -0.087767
    83  C   -0.045867
    84  C   -0.065709
    85  N   -0.254403
    86  C   -0.049894
    87  C   -0.017107
    88  C   -0.091478
    89  C    0.045588
    90  C    0.110201
    91  C    0.062788
    92  C   -0.078685
    93  H    0.031172
    94  N   -0.423407
    95  C    0.162557
    96  C   -0.174967
    97  C   -0.008318
    98  C    0.151949
    99  C    0.099787
   100  C    0.015240
   101  O   -0.253749
   102  C    0.061352
   103  N   -0.350169
   104  C    0.037274
   105  C   -0.019632
   106  C   -0.034793
   107  C    0.089222
   108  C    0.073855
   109  C    0.034860
   110  C   -0.007584
   111  N   -0.324242
   112  C    0.078866
   113  C   -0.163651
   114  C    0.002875
   115  C    0.095839
   116  C    0.131576
   117  C    0.042078
   118  O   -0.185995
   119  C    0.001979
   120  C    0.209873
   121  O   -0.253947
   122  O   -0.299014
   123  C    0.155929
   124  H   -0.020815
   125  H   -0.016219
   126  H   -0.040962
   127  H    0.008783
   128  H   -0.005917
   129  H    0.026184
   130  H    0.014215
   131  H    0.018218
   132  H    0.011898
   133  H    0.037747
   134  H    0.029566
   135  H    0.015622
   136  H    0.007376
   137  H    0.025486
   138  H    0.038718
   139  H    0.037872
   140  H    0.035785
   141  H    0.033412
   142  H    0.013964
   143  H    0.012019
   144  H    0.024624
   145  H    0.011696
   146  H    0.005165
   147  H    0.005805
   148  H    0.003449
   149  H    0.010702
   150  H    0.017567
   151  H    0.030411
   152  H    0.046107
   153  H    0.007899
   154  H    0.046965
   155  H    0.040612
   156  H    0.045483
   157  H    0.049009
   158  H    0.049320
 Sum of Mulliken charges =  -0.00000
 Mulliken charges with hydrogens summed into heavy atoms:
               1
     1  Mg   0.832797
     2  C   -0.003707
     3  C   -0.112118
     4  C   -0.061784
     5  C   -0.103668
     6  N   -0.256580
     7  C   -0.053577
     8  C   -0.011641
     9  C   -0.090930
    10  C    0.045028
    11  C    0.164614
    12  C    0.104688
    13  C    0.001525
    15  N   -0.433478
    16  C    0.166791
    17  C   -0.178288
    18  C   -0.004831
    19  C    0.148152
    20  C    0.181494
    21  C    0.011580
    22  O   -0.248971
    23  C    0.166444
    24  N   -0.340655
    25  C    0.040767
    26  C   -0.011442
    27  C   -0.014091
    28  C    0.074928
    29  C    0.117552
    30  C    0.047502
    31  C    0.051371
    32  N   -0.310906
    33  C    0.080528
    34  C   -0.168500
    35  C    0.009252
    36  C    0.082629
    37  C    0.232836
    38  C    0.047414
    39  O   -0.186304
    40  C    0.029841
    41  C    0.213397
    42  O   -0.257442
    43  O   -0.304343
    44  C    0.299857
    80  Mg   0.837190
    81  C   -0.017166
    82  C   -0.108582
    83  C   -0.062086
    84  C   -0.106671
    85  N   -0.254403
    86  C   -0.049894
    87  C   -0.008324
    88  C   -0.097395
    89  C    0.045588
    90  C    0.168818
    91  C    0.112433
    92  C   -0.002326
    94  N   -0.423407
    95  C    0.162557
    96  C   -0.174967
    97  C   -0.008318
    98  C    0.151949
    99  C    0.171367
   100  C    0.015240
   101  O   -0.253749
   102  C    0.168420
   103  N   -0.350169
   104  C    0.037274
   105  C   -0.005669
   106  C   -0.022775
   107  C    0.089222
   108  C    0.115340
   109  C    0.044115
   110  C    0.051096
   111  N   -0.324242
   112  C    0.078866
   113  C   -0.163651
   114  C    0.002875
   115  C    0.095839
   116  C    0.232547
   117  C    0.042078
   118  O   -0.185995
   119  C    0.042591
   120  C    0.209873
   121  O   -0.253947
   122  O   -0.299014
   123  C    0.299740
 Electronic spatial extent (au):  <R**2>=         109470.0100
 Charge=             -0.0000 electrons
 Dipole moment (field-independent basis, Debye):
    X=              4.7589    Y=              5.6729    Z=             -4.0668  Tot=              8.4479
 Quadrupole moment (field-independent basis, Debye-Ang):
   XX=           -501.3072   YY=           -565.5711   ZZ=           -456.0206
   XY=             10.4166   XZ=            -37.4210   YZ=              2.1317
 Traceless Quadrupole moment (field-independent basis, Debye-Ang):
   XX=              6.3258   YY=            -57.9381   ZZ=             51.6124
   XY=             10.4166   XZ=            -37.4210   YZ=              2.1317
 Octapole moment (field-independent basis, Debye-Ang**2):
  XXX=            165.8870  YYY=             -9.8670  ZZZ=             47.5331  XYY=            121.1326
  XXY=            -93.5063  XXZ=             76.2228  XZZ=             95.1948  YZZ=             76.9927
  YYZ=           -288.2928  XYZ=             81.7396
 Hexadecapole moment (field-independent basis, Debye-Ang**3):
 XXXX=         -91819.7043 YYYY=         -38251.3587 ZZZZ=         -19816.1974 XXXY=           2483.7156
 XXXZ=          -2984.9449 YYYX=           -759.9653 YYYZ=            344.3479 ZZZX=            379.4291
 ZZZY=             12.7727 XXYY=         -23352.7297 XXZZ=         -17271.4416 YYZZ=          -8781.9928
 XXYZ=             -4.1505 YYXZ=           -865.0068 ZZXY=            -50.9967
 N-N= 1.531422144712D+04 E-N=-4.010929154284D+04  KE= 4.028797849049D+03
 Leave Link  601 at Fri Sep 10 20:52:23 2021, MaxMem= 23488102400 cpu:              19.8 elap:               1.0
 (Enter /sw/apps/gaussian-16.0/g16/l9999.exe)
 1\1\GINC-BP1-COMPUTE00091\SP\RCAM-B3LYP TD-FC\def2SVP\C68H72Mg2N8O8\OF
 15641\10-Sep-2021\0\\#p cam-b3lyp/Def2SVP td=(nstates=5)\\TDDFT excite
 d states in gaussian\\0,1\Mg,0,0.,0.,0.\C,0,-0.217,-2.218,2.801\C,0,-1
 .255,2.442,2.026\C,0,-0.245,1.85,-2.564\C,0,0.146,-2.824,-2.037\N,0,-0
 .617,-0.009,2.126\C,0,-0.594,-0.908,3.105\C,0,-0.936,-0.309,4.502\C,0,
 -1.773,0.964,4.032\C,0,-1.155,1.168,2.66\C,0,-3.263,0.685,3.863\C,0,0.
 345,0.11,5.299\C,0,0.124,0.397,6.787\H,0,1.168,0.033,7.733\N,0,-0.185,
 1.961,-0.152\C,0,-0.703,2.8,0.777\C,0,-0.62,4.156,0.193\C,0,-0.187,4.0
 15,-1.225\C,0,-0.214,2.583,-1.38\C,0,-0.887,5.406,0.974\C,0,0.181,5.01
 3,-2.277\O,0,0.303,4.69,-3.508\C,0,0.31,6.414,-1.837\N,0,-0.265,-0.413
 ,-2.029\C,0,-0.279,0.569,-2.937\C,0,-0.196,0.024,-4.332\C,0,0.124,-1.5
 33,-4.18\C,0,0.086,-1.632,-2.635\C,0,-1.451,0.205,-5.197\C,0,1.373,-2.
 07,-4.923\C,0,2.626,-1.49,-4.306\N,0,0.15,-2.144,0.303\C,0,0.173,-3.13
 6,-0.688\C,0,0.173,-4.438,0.004\C,0,0.133,-4.111,1.358\C,0,0.083,-2.69
 5,1.502\C,0,0.149,-5.715,-0.623\C,0,0.096,-4.629,2.716\O,0,0.208,-5.74
 7,3.221\C,0,-0.255,-3.428,3.701\C,0,0.717,-3.482,4.848\O,0,1.931,-3.25
 5,4.669\O,0,0.038,-3.556,6.003\C,0,0.943,-3.583,7.183\H,0,-1.859,3.22,
 2.497\H,0,-0.218,2.453,-3.474\H,0,0.276,-3.747,-2.605\H,0,-1.554,-0.94
 9,5.132\H,0,-1.585,1.831,4.665\H,0,-3.484,-0.377,3.969\H,0,-3.511,1.02
 7,2.858\H,0,-3.852,1.301,4.543\H,0,0.669,1.096,4.966\H,0,1.13,-0.639,5
 .189\H,0,-0.844,0.026,7.125\H,0,0.062,1.477,6.921\H,0,-1.344,5.186,1.9
 38\H,0,-1.651,5.963,0.432\H,0,0.007,6.02,1.084\H,0,-0.635,6.744,-1.405
 \H,0,0.665,6.97,-2.704\H,0,1.048,6.466,-1.036\H,0,0.608,0.501,-4.891\H
 ,0,-0.692,-2.156,-4.547\H,0,-1.267,0.74,-6.129\H,0,-2.204,0.714,-4.596
 \H,0,-1.967,-0.72,-5.453\H,0,1.356,-1.759,-5.967\H,0,1.452,-3.157,-4.9
 02\H,0,2.714,-0.522,-4.798\H,0,3.487,-2.121,-4.529\H,0,2.495,-1.303,-3
 .24\H,0,0.867,-6.333,-0.084\H,0,0.404,-5.642,-1.68\H,0,-0.891,-5.999,-
 0.463\H,0,-1.283,-3.581,4.028\H,0,0.698,-4.478,7.755\H,0,0.833,-2.619,
 7.68\H,0,2.,-3.754,6.976\Mg,0,10.50961,0.95084,0.80792\C,0,8.55973,-1.
 53577,2.50905\C,0,7.92778,3.11788,1.33015\C,0,12.00289,3.02685,-1.0703
 \C,0,12.38615,-1.65145,-0.55309\N,0,8.55017,0.70524,1.80418\C,0,7.9439
 6,-0.26747,2.46803\C,0,6.6408,0.16361,3.19296\C,0,6.27073,1.43609,2.28
 593\C,0,7.67072,1.80496,1.79946\C,0,5.42137,1.08576,1.07548\C,0,6.8954
 8,0.57643,4.68518\C,0,5.63307,0.71141,5.5395\H,0,5.69844,0.31958,6.944
 73\N,0,10.27937,2.91349,0.62468\C,0,9.17164,3.63235,0.90298\C,0,9.5066
 1,5.02827,0.58151\C,0,10.84703,5.05218,-0.06457\C,0,11.0914,3.63195,-0
 .21731\C,0,8.62674,6.18411,0.96005\C,0,11.75269,6.16872,-0.48801\O,0,1
 2.76559,5.96345,-1.24612\C,0,11.36566,7.52276,-0.06579\N,0,11.8433,0.7
 1889,-0.76999\C,0,12.38394,1.78767,-1.38101\C,0,13.51577,1.37964,-2.29
 363\C,0,13.78219,-0.16634,-1.9829\C,0,12.64947,-0.41847,-0.96371\C,0,1
 3.26231,1.56139,-3.78999\C,0,15.23123,-0.56595,-1.5914\C,0,15.58447,0.
 02667,-0.24626\N,0,10.62215,-1.19029,1.07424\C,0,11.46086,-2.09276,0.3
 8417\C,0,11.09442,-3.45351,0.82746\C,0,10.04404,-3.24811,1.73466\C,0,9
 .76136,-1.85893,1.83348\C,0,11.6751,-4.66568,0.35885\C,0,9.10303,-3.89
 136,2.62315\O,0,8.92785,-5.04402,3.01613\C,0,8.01577,-2.82092,3.0686\C
 ,0,7.84952,-2.9208,4.56021\O,0,8.78611,-2.62222,5.32196\O,0,6.55319,-3
 .14129,4.8453\C,0,6.33606,-3.23689,6.31348\H,0,7.09002,3.80989,1.23986
 \H,0,12.62127,3.70796,-1.65952\H,0,12.98979,-2.50933,-0.85695\H,0,5.83
 909,-0.56423,3.15727\H,0,5.85128,2.23988,2.88539\H,0,5.30531,0.01836,0
 .96004\H,0,5.93846,1.50459,0.22211\H,0,4.45883,1.60258,1.12805\H,0,7.2
 534,1.61365,4.71365\H,0,7.58002,-0.10167,5.15657\H,0,4.75772,0.26155,5
 .05542\H,0,5.37991,1.77137,5.61952\H,0,7.63223,5.84592,1.27623\H,0,8.4
 4063,6.75729,0.04534\H,0,9.0889,6.84046,1.70051\H,0,10.37472,7.75163,-
 0.45063\H,0,12.18159,8.17332,-0.3866\H,0,11.2906,7.54034,1.02722\H,0,1
 4.41395,1.94263,-2.07132\H,0,13.56667,-0.80035,-2.85548\H,0,14.01558,2
 .20253,-4.28556\H,0,12.26939,1.97071,-3.92076\H,0,13.20925,0.6384,-4.3
 6485\H,0,15.94477,-0.15383,-2.30915\H,0,15.38976,-1.63873,-1.55947\H,0
 ,15.8944,1.04508,-0.49898\H,0,16.39715,-0.52996,0.21609\H,0,14.69904,0
 .10131,0.39569\H,0,11.83718,-5.28955,1.22777\H,0,12.60353,-4.4805,-0.1
 7734\H,0,10.88115,-5.01849,-0.3048\H,0,7.0917,-3.05198,2.5373\H,0,5.84
 581,-4.19697,6.5021\H,0,5.77872,-2.32316,6.59317\H,0,7.21259,-3.31924,
 6.94544\\Version=ES64L-G16RevA.03\State=1-A\HF=-4069.8114766\RMSD=5.24
 7e-09\PG=C01 [X(C68H72Mg2N8O8)]\\@


 MY GROUP MEETINGS AREN'T VERY STRUCTURED.
     -- PROF. M. S. GORDON, OCT. 5, 1984
 Job cpu time:       0 days 14 hours 12 minutes 14.4 seconds.
 Elapsed time:       0 days  0 hours 36 minutes 10.4 seconds.
 File lengths (MBytes):  RWF=  13225 Int=      0 D2E=      0 Chk=    574 Scr=      1
 Normal termination of Gaussian 16 at Fri Sep 10 20:52:23 2021.
