 Entering Gaussian System, Link 0=g16
 Initial command:
 /sw/apps/gaussian-16.0/g16/l1.exe "/tmp/Gau-217198.inp" -scrdir="/tmp/"
 Entering Link 1 = /sw/apps/gaussian-16.0/g16/l1.exe PID=    217199.
  
 Copyright (c) 1988,1990,1992,1993,1995,1998,2003,2009,2016,
            Gaussian, Inc.  All Rights Reserved.
  
 This is part of the Gaussian(R) 16 program.  It is based on
 the Gaussian(R) 09 system (copyright 2009, Gaussian, Inc.),
 the Gaussian(R) 03 system (copyright 2003, Gaussian, Inc.),
 the Gaussian(R) 98 system (copyright 1998, Gaussian, Inc.),
 the Gaussian(R) 94 system (copyright 1995, Gaussian, Inc.),
 the Gaussian 92(TM) system (copyright 1992, Gaussian, Inc.),
 the Gaussian 90(TM) system (copyright 1990, Gaussian, Inc.),
 the Gaussian 88(TM) system (copyright 1988, Gaussian, Inc.),
 the Gaussian 86(TM) system (copyright 1986, Carnegie Mellon
 University), and the Gaussian 82(TM) system (copyright 1983,
 Carnegie Mellon University). Gaussian is a federally registered
 trademark of Gaussian, Inc.
  
 This software contains proprietary and confidential information,
 including trade secrets, belonging to Gaussian, Inc.
  
 This software is provided under written license and may be
 used, copied, transmitted, or stored only in accord with that
 written license.
  
 The following legend is applicable only to US Government
 contracts under FAR:
  
                    RESTRICTED RIGHTS LEGEND
  
 Use, reproduction and disclosure by the US Government is
 subject to restrictions as set forth in subparagraphs (a)
 and (c) of the Commercial Computer Software - Restricted
 Rights clause in FAR 52.227-19.
  
 Gaussian, Inc.
 340 Quinnipiac St., Bldg. 40, Wallingford CT 06492
  
  
 ---------------------------------------------------------------
 Warning -- This program may not be used in any manner that
 competes with the business of Gaussian, Inc. or will provide
 assistance to any competitor of Gaussian, Inc.  The licensee
 of this program is prohibited from giving any competitor of
 Gaussian, Inc. access to this program.  By using this program,
 the user acknowledges that Gaussian, Inc. is engaged in the
 business of creating and licensing software in the field of
 computational chemistry and represents and warrants to the
 licensee that it is not a competitor of Gaussian, Inc. and that
 it will not use this program in any manner prohibited above.
 ---------------------------------------------------------------
  

 Cite this work as:
 Gaussian 16, Revision A.03,
 M. J. Frisch, G. W. Trucks, H. B. Schlegel, G. E. Scuseria, 
 M. A. Robb, J. R. Cheeseman, G. Scalmani, V. Barone, 
 G. A. Petersson, H. Nakatsuji, X. Li, M. Caricato, A. V. Marenich, 
 J. Bloino, B. G. Janesko, R. Gomperts, B. Mennucci, H. P. Hratchian, 
 J. V. Ortiz, A. F. Izmaylov, J. L. Sonnenberg, D. Williams-Young, 
 F. Ding, F. Lipparini, F. Egidi, J. Goings, B. Peng, A. Petrone, 
 T. Henderson, D. Ranasinghe, V. G. Zakrzewski, J. Gao, N. Rega, 
 G. Zheng, W. Liang, M. Hada, M. Ehara, K. Toyota, R. Fukuda, 
 J. Hasegawa, M. Ishida, T. Nakajima, Y. Honda, O. Kitao, H. Nakai, 
 T. Vreven, K. Throssell, J. A. Montgomery, Jr., J. E. Peralta, 
 F. Ogliaro, M. J. Bearpark, J. J. Heyd, E. N. Brothers, K. N. Kudin, 
 V. N. Staroverov, T. A. Keith, R. Kobayashi, J. Normand, 
 K. Raghavachari, A. P. Rendell, J. C. Burant, S. S. Iyengar, 
 J. Tomasi, M. Cossi, J. M. Millam, M. Klene, C. Adamo, R. Cammi, 
 J. W. Ochterski, R. L. Martin, K. Morokuma, O. Farkas, 
 J. B. Foresman, and D. J. Fox, Gaussian, Inc., Wallingford CT, 2016.
 
 ******************************************
 Gaussian 16:  ES64L-G16RevA.03 25-Dec-2016
                11-Sep-2021 
 ******************************************
 %nproc=24
 Will use up to   24 processors via shared memory.
 %mem=175gb
 -----------------------------------
 #p cam-b3lyp/Def2SVP td=(nstates=5)
 -----------------------------------
 1/38=1,172=1/1;
 2/12=2,17=6,18=5,40=1/2;
 3/5=43,7=101,11=9,25=1,30=1,74=-40/1,2,3,8;
 4//1;
 5/5=2,38=5/2;
 8/6=1,10=1,108=5/1;
 9/41=5,42=1,70=2/14;
 6/7=2,8=2,9=2,10=2/1;
 99/5=1,9=1/99;
 Leave Link    1 at Sat Sep 11 17:18:51 2021, MaxMem= 23488102400 cpu:               0.5 elap:               0.0
 (Enter /sw/apps/gaussian-16.0/g16/l101.exe)
 --------------------------------
 TDDFT excited states in gaussian
 --------------------------------
 Symbolic Z-matrix:
 Charge =  0 Multiplicity = 1
 Mg                    0.        0.        0. 
 C                    -0.217    -2.218     2.801 
 C                    -1.255     2.442     2.026 
 C                    -0.245     1.85     -2.564 
 C                     0.146    -2.824    -2.037 
 N                    -0.617    -0.009     2.126 
 C                    -0.594    -0.908     3.105 
 C                    -0.936    -0.309     4.502 
 C                    -1.773     0.964     4.032 
 C                    -1.155     1.168     2.66 
 C                    -3.263     0.685     3.863 
 C                     0.345     0.11      5.299 
 C                     0.124     0.397     6.787 
 H                     1.168     0.033     7.733 
 N                    -0.185     1.961    -0.152 
 C                    -0.703     2.8       0.777 
 C                    -0.62      4.156     0.193 
 C                    -0.187     4.015    -1.225 
 C                    -0.214     2.583    -1.38 
 C                    -0.887     5.406     0.974 
 C                     0.181     5.013    -2.277 
 O                     0.303     4.69     -3.508 
 C                     0.31      6.414    -1.837 
 N                    -0.265    -0.413    -2.029 
 C                    -0.279     0.569    -2.937 
 C                    -0.196     0.024    -4.332 
 C                     0.124    -1.533    -4.18 
 C                     0.086    -1.632    -2.635 
 C                    -1.451     0.205    -5.197 
 C                     1.373    -2.07     -4.923 
 C                     2.626    -1.49     -4.306 
 N                     0.15     -2.144     0.303 
 C                     0.173    -3.136    -0.688 
 C                     0.173    -4.438     0.004 
 C                     0.133    -4.111     1.358 
 C                     0.083    -2.695     1.502 
 C                     0.149    -5.715    -0.623 
 C                     0.096    -4.629     2.716 
 O                     0.208    -5.747     3.221 
 C                    -0.255    -3.428     3.701 
 C                     0.717    -3.482     4.848 
 O                     1.931    -3.255     4.669 
 O                     0.038    -3.556     6.003 
 C                     0.943    -3.583     7.183 
 H                    -1.859     3.22      2.497 
 H                    -0.218     2.453    -3.474 
 H                     0.276    -3.747    -2.605 
 H                    -1.554    -0.949     5.132 
 H                    -1.585     1.831     4.665 
 H                    -3.484    -0.377     3.969 
 H                    -3.511     1.027     2.858 
 H                    -3.852     1.301     4.543 
 H                     0.669     1.096     4.966 
 H                     1.13     -0.639     5.189 
 H                    -0.844     0.026     7.125 
 H                     0.062     1.477     6.921 
 H                    -1.344     5.186     1.938 
 H                    -1.651     5.963     0.432 
 H                     0.007     6.02      1.084 
 H                    -0.635     6.744    -1.405 
 H                     0.665     6.97     -2.704 
 H                     1.048     6.466    -1.036 
 H                     0.608     0.501    -4.891 
 H                    -0.692    -2.156    -4.547 
 H                    -1.267     0.74     -6.129 
 H                    -2.204     0.714    -4.596 
 H                    -1.967    -0.72     -5.453 
 H                     1.356    -1.759    -5.967 
 H                     1.452    -3.157    -4.902 
 H                     2.714    -0.522    -4.798 
 H                     3.487    -2.121    -4.529 
 H                     2.495    -1.303    -3.24 
 H                     0.867    -6.333    -0.084 
 H                     0.404    -5.642    -1.68 
 H                    -0.891    -5.999    -0.463 
 H                    -1.283    -3.581     4.028 
 H                     0.698    -4.478     7.755 
 H                     0.833    -2.619     7.68 
 H                     2.       -3.754     6.976 
 Mg                    13.14638   1.18641   0.99184 
 C                     15.82401  -1.00573   1.94255 
 C                     15.10046   3.78111   2.03284 
 C                     10.64796   3.10005   0.58771 
 C                     11.02778  -1.57841   1.10603 
 N                     15.18104   1.2522    1.85676 
 C                     16.12643   0.36113   2.11477 
 C                     17.49776   0.9736    2.50708 
 C                     16.98064   2.39455   3.04778 
 C                     15.68935   2.50818   2.24011 
 C                     16.62099   2.382     4.52421 
 C                     18.45242   1.14138   1.27319 
 C                     19.91095   1.44269   1.62483 
 H                     20.96099   0.88172   0.77914 
 N                     13.05752   3.16008   0.80396 
 C                     13.94778   4.06246   1.26701 
 C                     13.41746   5.38147   0.88867 
 C                     12.05978   5.19258   0.30924 
 C                     11.85618   3.78155   0.56929 
 C                     14.21583   6.64637   1.01547 
 C                     11.09792   6.12993  -0.35588 
 O                     9.87701   5.80282  -0.56852 
 C                     11.6024   7.47551  -0.66636 
 N                     11.09437   0.86179   1.07067 
 C                     10.22676   1.85382   0.80409 
 C                     8.82136   1.32294   0.65113 
 C                     8.96359  -0.26984   0.63105 
 C                     10.48364  -0.39129   0.87617 
 C                     7.8333    1.73167   1.7434 
 C                     8.34901  -1.01602  -0.58476 
 C                     9.119    -0.67772  -1.84097 
 N                     13.3833  -0.94477   1.25641 
 C                     12.36106  -1.91817   1.29652 
 C                     13.0029  -3.21079   1.61214 
 C                     14.36175  -2.89321   1.7576 
 C                     14.5504  -1.4976    1.56739 
 C                     12.33126  -4.45508   1.77571 
 C                     15.67793  -3.41951   2.0393 
 O                     16.14787  -4.54568   2.19629 
 C                     16.66518  -2.20065   2.29643 
 C                     17.91587  -2.439     1.4955 
 O                     17.87937  -2.44205   0.25241 
 O                     18.97933  -2.40722   2.31917 
 C                     20.24468  -2.62767   1.56943 
 H                     15.53681   4.64313   2.53822 
 H                     9.76615   3.697     0.3437 
 H                     10.44956  -2.50386   1.06273 
 H                     18.02292   0.44519   3.2937 
 H                     17.66857   3.19272   2.78126 
 H                     16.66051   1.38618   4.94005 
 H                     15.61576   2.77797   4.58549 
 H                     17.25543   3.08411   5.07272 
 H                     18.19224   2.06616   0.74231 
 H                     18.405    0.28055   0.63495 
 H                     20.12747   1.2529    2.68316 
 H                     20.08256   2.51508   1.50428 
 H                     15.11447   6.49533   1.62624 
 H                     13.60902   7.35079   1.59463 
 H                     14.45091   7.09487   0.04787 
 H                     11.9355   7.95668   0.25015 
 H                     10.79977   7.96835  -1.21842 
 H                     12.48426   7.37875  -1.30946 
 H                     8.38471   1.64859  -0.28502 
 H                     8.46769  -0.73414   1.49612 
 H                     6.93808   2.24966   1.35055 
 H                     8.35268   2.35794   2.45654 
 H                     7.47437   0.91686   2.36988 
 H                     7.32112  -0.68501  -0.75216 
 H                     8.32444  -2.09375  -0.46273 
 H                     8.67599   0.27261  -2.15355 
 H                     8.97612  -1.44735  -2.59681 
 H                     10.1756  -0.49089  -1.61663 
 H                     12.9211  -5.19802   1.25549 
 H                     11.31481  -4.41194   1.39003 
 H                     12.35346  -4.547     2.8649 
 H                     16.86619  -2.16226   3.36773 
 H                     20.75199  -3.47498   2.04101 
 H                     20.77186  -1.6552    1.58063 
 H                     20.16667  -2.97155   0.54468 
 
 ITRead=  0  0  0  0  0  0  0  0  0  0  0  0  0  0  0  0  0  0  0  0
 ITRead=  0  0  0  0  0  0  0  0  0  0  0  0  0  0  0  0  0  0  0  0
 ITRead=  0  0  0  0  0  0  0  0  0  0  0  0  0  0  0  0  0  0  0  0
 ITRead=  0  0  0  0  0  0  0  0  0  0  0  0  0  0  0  0  0  0  0  0
 ITRead=  0  0  0  0  0  0  0  0  0  0  0  0  0  0  0  0  0  0  0  0
 ITRead=  0  0  0  0  0  0  0  0  0  0  0  0  0  0  0  0  0  0  0  0
 ITRead=  0  0  0  0  0  0  0  0  0  0  0  0  0  0  0  0  0  0  0  0
 ITRead=  0  0  0  0  0  0  0  0  0  0  0  0  0  0  0  0  0  0
 MicOpt= -1 -1 -1 -1 -1 -1 -1 -1 -1 -1 -1 -1 -1 -1 -1 -1 -1 -1 -1 -1
 MicOpt= -1 -1 -1 -1 -1 -1 -1 -1 -1 -1 -1 -1 -1 -1 -1 -1 -1 -1 -1 -1
 MicOpt= -1 -1 -1 -1 -1 -1 -1 -1 -1 -1 -1 -1 -1 -1 -1 -1 -1 -1 -1 -1
 MicOpt= -1 -1 -1 -1 -1 -1 -1 -1 -1 -1 -1 -1 -1 -1 -1 -1 -1 -1 -1 -1
 MicOpt= -1 -1 -1 -1 -1 -1 -1 -1 -1 -1 -1 -1 -1 -1 -1 -1 -1 -1 -1 -1
 MicOpt= -1 -1 -1 -1 -1 -1 -1 -1 -1 -1 -1 -1 -1 -1 -1 -1 -1 -1 -1 -1
 MicOpt= -1 -1 -1 -1 -1 -1 -1 -1 -1 -1 -1 -1 -1 -1 -1 -1 -1 -1 -1 -1
 MicOpt= -1 -1 -1 -1 -1 -1 -1 -1 -1 -1 -1 -1 -1 -1 -1 -1 -1 -1
 NAtoms=    158 NQM=      158 NQMF=       0 NMMI=      0 NMMIF=      0
                NMic=       0 NMicF=      0.
                    Isotopes and Nuclear Properties:
 (Nuclear quadrupole moments (NQMom) in fm**2, nuclear magnetic moments (NMagM)
  in nuclear magnetons)

  Atom         1           2           3           4           5           6           7           8           9          10
 IAtWgt=          24          12          12          12          12          14          12          12          12          12
 AtmWgt=  23.9850450  12.0000000  12.0000000  12.0000000  12.0000000  14.0030740  12.0000000  12.0000000  12.0000000  12.0000000
 NucSpn=           0           0           0           0           0           2           0           0           0           0
 AtZEff=  -0.0000000  -0.0000000  -0.0000000  -0.0000000  -0.0000000  -0.0000000  -0.0000000  -0.0000000  -0.0000000  -0.0000000
 NQMom=    0.0000000   0.0000000   0.0000000   0.0000000   0.0000000   2.0440000   0.0000000   0.0000000   0.0000000   0.0000000
 NMagM=    0.0000000   0.0000000   0.0000000   0.0000000   0.0000000   0.4037610   0.0000000   0.0000000   0.0000000   0.0000000
 AtZNuc=  12.0000000   6.0000000   6.0000000   6.0000000   6.0000000   7.0000000   6.0000000   6.0000000   6.0000000   6.0000000

  Atom        11          12          13          14          15          16          17          18          19          20
 IAtWgt=          12          12          12           1          14          12          12          12          12          12
 AtmWgt=  12.0000000  12.0000000  12.0000000   1.0078250  14.0030740  12.0000000  12.0000000  12.0000000  12.0000000  12.0000000
 NucSpn=           0           0           0           1           2           0           0           0           0           0
 AtZEff=  -0.0000000  -0.0000000  -0.0000000  -0.0000000  -0.0000000  -0.0000000  -0.0000000  -0.0000000  -0.0000000  -0.0000000
 NQMom=    0.0000000   0.0000000   0.0000000   0.0000000   2.0440000   0.0000000   0.0000000   0.0000000   0.0000000   0.0000000
 NMagM=    0.0000000   0.0000000   0.0000000   2.7928460   0.4037610   0.0000000   0.0000000   0.0000000   0.0000000   0.0000000
 AtZNuc=   6.0000000   6.0000000   6.0000000   1.0000000   7.0000000   6.0000000   6.0000000   6.0000000   6.0000000   6.0000000

  Atom        21          22          23          24          25          26          27          28          29          30
 IAtWgt=          12          16          12          14          12          12          12          12          12          12
 AtmWgt=  12.0000000  15.9949146  12.0000000  14.0030740  12.0000000  12.0000000  12.0000000  12.0000000  12.0000000  12.0000000
 NucSpn=           0           0           0           2           0           0           0           0           0           0
 AtZEff=  -0.0000000  -0.0000000  -0.0000000  -0.0000000  -0.0000000  -0.0000000  -0.0000000  -0.0000000  -0.0000000  -0.0000000
 NQMom=    0.0000000   0.0000000   0.0000000   2.0440000   0.0000000   0.0000000   0.0000000   0.0000000   0.0000000   0.0000000
 NMagM=    0.0000000   0.0000000   0.0000000   0.4037610   0.0000000   0.0000000   0.0000000   0.0000000   0.0000000   0.0000000
 AtZNuc=   6.0000000   8.0000000   6.0000000   7.0000000   6.0000000   6.0000000   6.0000000   6.0000000   6.0000000   6.0000000

  Atom        31          32          33          34          35          36          37          38          39          40
 IAtWgt=          12          14          12          12          12          12          12          12          16          12
 AtmWgt=  12.0000000  14.0030740  12.0000000  12.0000000  12.0000000  12.0000000  12.0000000  12.0000000  15.9949146  12.0000000
 NucSpn=           0           2           0           0           0           0           0           0           0           0
 AtZEff=  -0.0000000  -0.0000000  -0.0000000  -0.0000000  -0.0000000  -0.0000000  -0.0000000  -0.0000000  -0.0000000  -0.0000000
 NQMom=    0.0000000   2.0440000   0.0000000   0.0000000   0.0000000   0.0000000   0.0000000   0.0000000   0.0000000   0.0000000
 NMagM=    0.0000000   0.4037610   0.0000000   0.0000000   0.0000000   0.0000000   0.0000000   0.0000000   0.0000000   0.0000000
 AtZNuc=   6.0000000   7.0000000   6.0000000   6.0000000   6.0000000   6.0000000   6.0000000   6.0000000   8.0000000   6.0000000

  Atom        41          42          43          44          45          46          47          48          49          50
 IAtWgt=          12          16          16          12           1           1           1           1           1           1
 AtmWgt=  12.0000000  15.9949146  15.9949146  12.0000000   1.0078250   1.0078250   1.0078250   1.0078250   1.0078250   1.0078250
 NucSpn=           0           0           0           0           1           1           1           1           1           1
 AtZEff=  -0.0000000  -0.0000000  -0.0000000  -0.0000000  -0.0000000  -0.0000000  -0.0000000  -0.0000000  -0.0000000  -0.0000000
 NQMom=    0.0000000   0.0000000   0.0000000   0.0000000   0.0000000   0.0000000   0.0000000   0.0000000   0.0000000   0.0000000
 NMagM=    0.0000000   0.0000000   0.0000000   0.0000000   2.7928460   2.7928460   2.7928460   2.7928460   2.7928460   2.7928460
 AtZNuc=   6.0000000   8.0000000   8.0000000   6.0000000   1.0000000   1.0000000   1.0000000   1.0000000   1.0000000   1.0000000

  Atom        51          52          53          54          55          56          57          58          59          60
 IAtWgt=           1           1           1           1           1           1           1           1           1           1
 AtmWgt=   1.0078250   1.0078250   1.0078250   1.0078250   1.0078250   1.0078250   1.0078250   1.0078250   1.0078250   1.0078250
 NucSpn=           1           1           1           1           1           1           1           1           1           1
 AtZEff=  -0.0000000  -0.0000000  -0.0000000  -0.0000000  -0.0000000  -0.0000000  -0.0000000  -0.0000000  -0.0000000  -0.0000000
 NQMom=    0.0000000   0.0000000   0.0000000   0.0000000   0.0000000   0.0000000   0.0000000   0.0000000   0.0000000   0.0000000
 NMagM=    2.7928460   2.7928460   2.7928460   2.7928460   2.7928460   2.7928460   2.7928460   2.7928460   2.7928460   2.7928460
 AtZNuc=   1.0000000   1.0000000   1.0000000   1.0000000   1.0000000   1.0000000   1.0000000   1.0000000   1.0000000   1.0000000

  Atom        61          62          63          64          65          66          67          68          69          70
 IAtWgt=           1           1           1           1           1           1           1           1           1           1
 AtmWgt=   1.0078250   1.0078250   1.0078250   1.0078250   1.0078250   1.0078250   1.0078250   1.0078250   1.0078250   1.0078250
 NucSpn=           1           1           1           1           1           1           1           1           1           1
 AtZEff=  -0.0000000  -0.0000000  -0.0000000  -0.0000000  -0.0000000  -0.0000000  -0.0000000  -0.0000000  -0.0000000  -0.0000000
 NQMom=    0.0000000   0.0000000   0.0000000   0.0000000   0.0000000   0.0000000   0.0000000   0.0000000   0.0000000   0.0000000
 NMagM=    2.7928460   2.7928460   2.7928460   2.7928460   2.7928460   2.7928460   2.7928460   2.7928460   2.7928460   2.7928460
 AtZNuc=   1.0000000   1.0000000   1.0000000   1.0000000   1.0000000   1.0000000   1.0000000   1.0000000   1.0000000   1.0000000

  Atom        71          72          73          74          75          76          77          78          79          80
 IAtWgt=           1           1           1           1           1           1           1           1           1          24
 AtmWgt=   1.0078250   1.0078250   1.0078250   1.0078250   1.0078250   1.0078250   1.0078250   1.0078250   1.0078250  23.9850450
 NucSpn=           1           1           1           1           1           1           1           1           1           0
 AtZEff=  -0.0000000  -0.0000000  -0.0000000  -0.0000000  -0.0000000  -0.0000000  -0.0000000  -0.0000000  -0.0000000  -0.0000000
 NQMom=    0.0000000   0.0000000   0.0000000   0.0000000   0.0000000   0.0000000   0.0000000   0.0000000   0.0000000   0.0000000
 NMagM=    2.7928460   2.7928460   2.7928460   2.7928460   2.7928460   2.7928460   2.7928460   2.7928460   2.7928460   0.0000000
 AtZNuc=   1.0000000   1.0000000   1.0000000   1.0000000   1.0000000   1.0000000   1.0000000   1.0000000   1.0000000  12.0000000

  Atom        81          82          83          84          85          86          87          88          89          90
 IAtWgt=          12          12          12          12          14          12          12          12          12          12
 AtmWgt=  12.0000000  12.0000000  12.0000000  12.0000000  14.0030740  12.0000000  12.0000000  12.0000000  12.0000000  12.0000000
 NucSpn=           0           0           0           0           2           0           0           0           0           0
 AtZEff=  -0.0000000  -0.0000000  -0.0000000  -0.0000000  -0.0000000  -0.0000000  -0.0000000  -0.0000000  -0.0000000  -0.0000000
 NQMom=    0.0000000   0.0000000   0.0000000   0.0000000   2.0440000   0.0000000   0.0000000   0.0000000   0.0000000   0.0000000
 NMagM=    0.0000000   0.0000000   0.0000000   0.0000000   0.4037610   0.0000000   0.0000000   0.0000000   0.0000000   0.0000000
 AtZNuc=   6.0000000   6.0000000   6.0000000   6.0000000   7.0000000   6.0000000   6.0000000   6.0000000   6.0000000   6.0000000

  Atom        91          92          93          94          95          96          97          98          99         100
 IAtWgt=          12          12           1          14          12          12          12          12          12          12
 AtmWgt=  12.0000000  12.0000000   1.0078250  14.0030740  12.0000000  12.0000000  12.0000000  12.0000000  12.0000000  12.0000000
 NucSpn=           0           0           1           2           0           0           0           0           0           0
 AtZEff=  -0.0000000  -0.0000000  -0.0000000  -0.0000000  -0.0000000  -0.0000000  -0.0000000  -0.0000000  -0.0000000  -0.0000000
 NQMom=    0.0000000   0.0000000   0.0000000   2.0440000   0.0000000   0.0000000   0.0000000   0.0000000   0.0000000   0.0000000
 NMagM=    0.0000000   0.0000000   2.7928460   0.4037610   0.0000000   0.0000000   0.0000000   0.0000000   0.0000000   0.0000000
 AtZNuc=   6.0000000   6.0000000   1.0000000   7.0000000   6.0000000   6.0000000   6.0000000   6.0000000   6.0000000   6.0000000

  Atom       101         102         103         104         105         106         107         108         109         110
 IAtWgt=          16          12          14          12          12          12          12          12          12          12
 AtmWgt=  15.9949146  12.0000000  14.0030740  12.0000000  12.0000000  12.0000000  12.0000000  12.0000000  12.0000000  12.0000000
 NucSpn=           0           0           2           0           0           0           0           0           0           0
 AtZEff=  -0.0000000  -0.0000000  -0.0000000  -0.0000000  -0.0000000  -0.0000000  -0.0000000  -0.0000000  -0.0000000  -0.0000000
 NQMom=    0.0000000   0.0000000   2.0440000   0.0000000   0.0000000   0.0000000   0.0000000   0.0000000   0.0000000   0.0000000
 NMagM=    0.0000000   0.0000000   0.4037610   0.0000000   0.0000000   0.0000000   0.0000000   0.0000000   0.0000000   0.0000000
 AtZNuc=   8.0000000   6.0000000   7.0000000   6.0000000   6.0000000   6.0000000   6.0000000   6.0000000   6.0000000   6.0000000

  Atom       111         112         113         114         115         116         117         118         119         120
 IAtWgt=          14          12          12          12          12          12          12          16          12          12
 AtmWgt=  14.0030740  12.0000000  12.0000000  12.0000000  12.0000000  12.0000000  12.0000000  15.9949146  12.0000000  12.0000000
 NucSpn=           2           0           0           0           0           0           0           0           0           0
 AtZEff=  -0.0000000  -0.0000000  -0.0000000  -0.0000000  -0.0000000  -0.0000000  -0.0000000  -0.0000000  -0.0000000  -0.0000000
 NQMom=    2.0440000   0.0000000   0.0000000   0.0000000   0.0000000   0.0000000   0.0000000   0.0000000   0.0000000   0.0000000
 NMagM=    0.4037610   0.0000000   0.0000000   0.0000000   0.0000000   0.0000000   0.0000000   0.0000000   0.0000000   0.0000000
 AtZNuc=   7.0000000   6.0000000   6.0000000   6.0000000   6.0000000   6.0000000   6.0000000   8.0000000   6.0000000   6.0000000

  Atom       121         122         123         124         125         126         127         128         129         130
 IAtWgt=          16          16          12           1           1           1           1           1           1           1
 AtmWgt=  15.9949146  15.9949146  12.0000000   1.0078250   1.0078250   1.0078250   1.0078250   1.0078250   1.0078250   1.0078250
 NucSpn=           0           0           0           1           1           1           1           1           1           1
 AtZEff=  -0.0000000  -0.0000000  -0.0000000  -0.0000000  -0.0000000  -0.0000000  -0.0000000  -0.0000000  -0.0000000  -0.0000000
 NQMom=    0.0000000   0.0000000   0.0000000   0.0000000   0.0000000   0.0000000   0.0000000   0.0000000   0.0000000   0.0000000
 NMagM=    0.0000000   0.0000000   0.0000000   2.7928460   2.7928460   2.7928460   2.7928460   2.7928460   2.7928460   2.7928460
 AtZNuc=   8.0000000   8.0000000   6.0000000   1.0000000   1.0000000   1.0000000   1.0000000   1.0000000   1.0000000   1.0000000

  Atom       131         132         133         134         135         136         137         138         139         140
 IAtWgt=           1           1           1           1           1           1           1           1           1           1
 AtmWgt=   1.0078250   1.0078250   1.0078250   1.0078250   1.0078250   1.0078250   1.0078250   1.0078250   1.0078250   1.0078250
 NucSpn=           1           1           1           1           1           1           1           1           1           1
 AtZEff=  -0.0000000  -0.0000000  -0.0000000  -0.0000000  -0.0000000  -0.0000000  -0.0000000  -0.0000000  -0.0000000  -0.0000000
 NQMom=    0.0000000   0.0000000   0.0000000   0.0000000   0.0000000   0.0000000   0.0000000   0.0000000   0.0000000   0.0000000
 NMagM=    2.7928460   2.7928460   2.7928460   2.7928460   2.7928460   2.7928460   2.7928460   2.7928460   2.7928460   2.7928460
 AtZNuc=   1.0000000   1.0000000   1.0000000   1.0000000   1.0000000   1.0000000   1.0000000   1.0000000   1.0000000   1.0000000

  Atom       141         142         143         144         145         146         147         148         149         150
 IAtWgt=           1           1           1           1           1           1           1           1           1           1
 AtmWgt=   1.0078250   1.0078250   1.0078250   1.0078250   1.0078250   1.0078250   1.0078250   1.0078250   1.0078250   1.0078250
 NucSpn=           1           1           1           1           1           1           1           1           1           1
 AtZEff=  -0.0000000  -0.0000000  -0.0000000  -0.0000000  -0.0000000  -0.0000000  -0.0000000  -0.0000000  -0.0000000  -0.0000000
 NQMom=    0.0000000   0.0000000   0.0000000   0.0000000   0.0000000   0.0000000   0.0000000   0.0000000   0.0000000   0.0000000
 NMagM=    2.7928460   2.7928460   2.7928460   2.7928460   2.7928460   2.7928460   2.7928460   2.7928460   2.7928460   2.7928460
 AtZNuc=   1.0000000   1.0000000   1.0000000   1.0000000   1.0000000   1.0000000   1.0000000   1.0000000   1.0000000   1.0000000

  Atom       151         152         153         154         155         156         157         158
 IAtWgt=           1           1           1           1           1           1           1           1
 AtmWgt=   1.0078250   1.0078250   1.0078250   1.0078250   1.0078250   1.0078250   1.0078250   1.0078250
 NucSpn=           1           1           1           1           1           1           1           1
 AtZEff=  -0.0000000  -0.0000000  -0.0000000  -0.0000000  -0.0000000  -0.0000000  -0.0000000  -0.0000000
 NQMom=    0.0000000   0.0000000   0.0000000   0.0000000   0.0000000   0.0000000   0.0000000   0.0000000
 NMagM=    2.7928460   2.7928460   2.7928460   2.7928460   2.7928460   2.7928460   2.7928460   2.7928460
 AtZNuc=   1.0000000   1.0000000   1.0000000   1.0000000   1.0000000   1.0000000   1.0000000   1.0000000
 Leave Link  101 at Sat Sep 11 17:18:52 2021, MaxMem= 23488102400 cpu:               3.3 elap:               0.2
 (Enter /sw/apps/gaussian-16.0/g16/l202.exe)
 Stoichiometry    C68H72Mg2N8O8
 Framework group  C1[X(C68H72Mg2N8O8)]
 Deg. of freedom   468
 Full point group                 C1      NOp   1
 Largest Abelian subgroup         C1      NOp   1
 Largest concise Abelian subgroup C1      NOp   1
                         Standard orientation:                         
 ---------------------------------------------------------------------
 Center     Atomic      Atomic             Coordinates (Angstroms)
 Number     Number       Type             X           Y           Z
 ---------------------------------------------------------------------
      1         12           0        6.890196    0.349786    0.462825
      2          6           0        7.057874   -2.795555   -1.237448
      3          6           0        7.901437    1.809890   -2.450687
      4          6           0        7.188171    3.074133    2.058371
      5          6           0        7.004670   -1.429988    3.456980
      6          7           0        7.383654   -0.491888   -1.524316
      7          6           0        7.349972   -1.707030   -2.062335
      8          6           0        7.580353   -1.707059   -3.603211
      9          6           0        8.377456   -0.332905   -3.738584
     10          6           0        7.829794    0.386770   -2.518724
     11          6           0        9.886917   -0.486160   -3.581927
     12          6           0        6.236098   -1.671019   -4.405339
     13          6           0        6.356400   -1.996208   -5.897027
     14          1           0        5.279527   -2.731800   -6.542471
     15          7           0        6.984106    2.212444   -0.188741
     16          6           0        7.404716    2.623235   -1.409242
     17          6           0        7.286871    4.097272   -1.406128
     18          6           0        6.943776    4.523387   -0.020918
     19          6           0        7.052105    3.273112    0.686512
     20          6           0        7.444915    4.937949   -2.635775
     21          6           0        6.586790    5.849189    0.573171
     22          8           0        6.552249    6.041203    1.836702
     23          6           0        6.361951    6.954969   -0.375374
     24          7           0        7.291937    0.786698    2.464162
     25          6           0        7.308363    2.049397    2.904962
     26          6           0        7.333373    2.104232    4.403730
     27          6           0        7.084406    0.608746    4.905019
     28          6           0        7.038512   -0.097340    3.527483
     29          6           0        8.625235    2.644729    5.032192
     30          6           0        5.908963    0.383394    5.888875
     31          6           0        4.594819    0.639477    5.185636
     32          7           0        6.831770   -1.740032    1.046172
     33          6           0        6.916016   -2.254690    2.347979
     34          6           0        6.942164   -3.724256    2.230669
     35          6           0        6.887674   -3.963594    0.858957
     36          6           0        6.857561   -2.721785    0.162325
     37          6           0        7.066781   -4.644252    3.308867
     38          6           0        6.872744   -4.979220   -0.181301
     39          8           0        6.788653   -6.208164   -0.192228
     40          6           0        7.105299   -4.262848   -1.584354
     41          6           0        6.072968   -4.792733   -2.541863
     42          8           0        4.861329   -4.541844   -2.379532
     43          8           0        6.687340   -5.305247   -3.619090
     44          6           0        5.718549   -5.821964   -4.622385
     45          1           0        8.437205    2.349463   -3.234112
     46          1           0        7.183021    3.989230    2.654198
     47          1           0        6.954426   -2.052629    4.352104
     48          1           0        8.192733   -2.530473   -3.971185
     49          1           0        8.109734    0.204983   -4.647827
     50          1           0       10.154944   -1.496781   -3.274147
     51          1           0       10.174633    0.234045   -2.815755
     52          1           0       10.403919   -0.178808   -4.491334
     53          1           0        5.882268   -0.641956   -4.467739
     54          1           0        5.497646   -2.332257   -3.950608
     55          1           0        7.320914   -2.448316   -6.129878
     56          1           0        6.355838   -1.058144   -6.452217
     57          1           0        7.856308    4.362545   -3.464154
     58          1           0        8.209621    5.682735   -2.416163
     59          1           0        6.516133    5.435876   -2.914640
     60          1           0        7.262640    7.107443   -0.970404
     61          1           0        6.029672    7.802103    0.223629
     62          1           0        5.577451    6.665772   -1.075284
     63          1           0        6.539711    2.745521    4.784881
     64          1           0        7.950642    0.203236    5.428345
     65          1           0        8.468253    3.502566    5.686545
     66          1           0        9.315713    2.889365    4.225542
     67          1           0        9.201264    1.911032    5.595483
     68          1           0        5.970168    1.085293    6.719860
     69          1           0        5.884022   -0.623310    6.306219
     70          1           0        4.486346    1.721017    5.258690
     71          1           0        3.781111    0.129691    5.702558
     72          1           0        4.654702    0.388812    4.126359
     73          1           0        6.351201   -5.442677    3.112824
     74          1           0        6.869581   -4.161753    4.265899
     75          1           0        8.108909   -4.943914    3.199196
     76          1           0        8.119232   -4.509312   -1.897909
     77          1           0        5.975268   -6.864794   -4.809030
     78          1           0        5.750856   -5.133891   -5.467321
     79          1           0        4.685208   -5.921061   -4.288132
     80         12           0       -6.334636    0.732079    0.042962
     81          6           0       -8.948055   -1.719756    0.236804
     82          6           0       -8.474170    2.649434   -1.795713
     83          6           0       -3.917214    2.706384   -0.527680
     84          6           0       -4.088843   -1.798100    0.879825
     85          7           0       -8.416359    0.399482   -0.626416
     86          6           0       -9.328687   -0.542553   -0.440497
     87          6           0      -10.749544   -0.169874   -0.942342
     88          6           0      -10.336958    0.929252   -2.038044
     89          6           0       -9.008796    1.385980   -1.437996
     90          6           0      -10.062582    0.337343   -3.410528
     91          6           0      -11.638980    0.453582    0.190009
     92          6           0      -13.128690    0.555183   -0.144939
     93          1           0      -14.098641    0.353503    0.927900
     94          7           0       -6.335164    2.618397   -0.573782
     95          6           0       -7.295107    3.239959   -1.290327
     96          6           0       -6.811380    4.612507   -1.505473
     97          6           0       -5.414824    4.702441   -0.999255
     98          6           0       -5.155330    3.310007   -0.692865
     99          6           0       -7.678733    5.702675   -2.064651
    100          6           0       -4.465021    5.849666   -0.832124
    101          8           0       -3.218915    5.663375   -0.596849
    102          6           0       -5.018300    7.195127   -1.044492
    103          7           0       -4.276749    0.451397   -0.050076
    104          6           0       -3.446592    1.487568   -0.262496
    105          6           0       -2.009652    1.095021   -0.014527
    106          6           0       -2.069670   -0.360442    0.645477
    107          6           0       -3.593194   -0.605353    0.580052
    108          6           0       -1.107962    1.057332   -1.248185
    109          6           0       -1.349243   -0.545068    2.009143
    110          6           0       -2.061902    0.247958    3.080880
    111          7           0       -6.478167   -1.332706    0.662733
    112          6           0       -5.411953   -2.216950    0.937309
    113          6           0       -6.004604   -3.542917    1.207525
    114          6           0       -7.383901   -3.341817    1.047564
    115          6           0       -7.631722   -1.991022    0.682278
    116          6           0       -5.281341   -4.732991    1.502021
    117          6           0       -8.685758   -3.967646    1.094256
    118          8           0       -9.106324   -5.073707    1.431156
    119          6           0       -9.746595   -2.976117    0.447810
    120          6           0      -10.935513   -2.904627    1.366444
    121          8           0      -10.827524   -2.410754    2.502684
    122          8           0      -12.044796   -3.229069    0.677519
    123          6           0      -13.252179   -3.161933    1.543277
    124          1           0       -8.981926    3.227807   -2.568084
    125          1           0       -3.054193    3.371714   -0.605211
    126          1           0       -3.462979   -2.615580    1.244094
    127          1           0      -11.291617   -0.980391   -1.414570
    128          1           0      -11.047960    1.751040   -2.060322
    129          1           0      -10.075468   -0.742327   -3.393560
    130          1           0       -9.083874    0.699574   -3.696805
    131          1           0      -10.762229    0.747256   -4.144559
    132          1           0      -11.395874    1.519211    0.290400
    133          1           0      -11.511436   -0.079872    1.111848
    134          1           0      -13.395789   -0.046017   -1.022537
    135          1           0      -13.347161    1.582296   -0.447120
    136          1           0       -8.602188    5.299437   -2.498283
    137          1           0       -7.142654    6.131722   -2.918110
    138          1           0       -7.880219    6.494211   -1.339712
    139          1           0       -5.427456    7.262823   -2.049718
    140          1           0       -4.211252    7.886019   -0.793060
    141          1           0       -5.855711    7.342152   -0.353302
    142          1           0       -1.536970    1.777221    0.681363
    143          1           0       -1.601437   -1.119424    0.001628
    144          1           0       -0.219019    1.709959   -1.159179
    145          1           0       -1.698509    1.334769   -2.111215
    146          1           0       -0.744839    0.068969   -1.524775
    147          1           0       -0.331510   -0.150644    1.956250
    148          1           0       -1.277194   -1.581130    2.322802
    149          1           0       -1.650342    1.254247    2.958031
    150          1           0       -1.837037   -0.152737    4.067246
    151          1           0       -3.137750    0.304857    2.878519
    152          1           0       -5.801936   -5.220459    2.315566
    153          1           0       -4.247895   -4.515669    1.763825
    154          1           0       -5.361419   -5.252204    0.543229
    155          1           0      -10.010528   -3.372950   -0.533223
    156          1           0      -13.742204   -4.138715    1.484464
    157          1           0      -13.827689   -2.287344    1.186031
    158          1           0      -13.098094   -3.066611    2.611745
 ---------------------------------------------------------------------
 Rotational constants (GHZ):           0.0264940           0.0071680           0.0065822
 Leave Link  202 at Sat Sep 11 17:18:52 2021, MaxMem= 23488102400 cpu:               0.2 elap:               0.0
 (Enter /sw/apps/gaussian-16.0/g16/l301.exe)
 Standard basis: def2SVP (5D, 7F)
 Ernie: Thresh=  0.10000D-02 Tol=  0.10000D-05 Strict=F.
 There are  1658 symmetry adapted cartesian basis functions of A   symmetry.
 There are  1572 symmetry adapted basis functions of A   symmetry.
  1572 basis functions,  2678 primitive gaussians,  1658 cartesian basis functions
   312 alpha electrons      312 beta electrons
       nuclear repulsion energy     14302.9398025011 Hartrees.
 IExCor=20419 DFT=T Ex+Corr=CAM-B3LYP ExCW=0 ScaHFX=  1.000000
 ScaDFX=  1.000000  1.000000  1.000000  0.810000 ScalE2=  1.000000  1.000000
 IRadAn=      5 IRanWt=     -1 IRanGd=            0 ICorTp=0 IEmpDi=  4
 HFx  wShort=  0.000000 wLong=  0.330000 cFull=  0.190000 cShort=  0.000000 cLong=  0.460000
 DFx  wShort=  0.000000 wLong=  0.330000 cFull=  0.190000 cShort=  0.000000 cLong=  0.460000
 NAtoms=  158 NActive=  158 NUniq=  158 SFac= 1.00D+00 NAtFMM=   60 NAOKFM=T Big=T
 Integral buffers will be    131072 words long.
 Raffenetti 1 integral format.
 Two-electron integral symmetry is turned on.
 Leave Link  301 at Sat Sep 11 17:18:52 2021, MaxMem= 23488102400 cpu:               1.3 elap:               0.1
 (Enter /sw/apps/gaussian-16.0/g16/l302.exe)
 NPDir=0 NMtPBC=     1 NCelOv=     1 NCel=       1 NClECP=     1 NCelD=      1
         NCelK=      1 NCelE2=     1 NClLst=     1 CellRange=     0.0.
 One-electron integrals computed using PRISM.
 One-electron integral symmetry used in STVInt
   1 Symmetry operations used in ECPInt.
 ECPInt:  NShTT=  271216 NPrTT=  987664 LenC2=  123960 LenP2D=  270445.
 LDataN:  DoStor=T MaxTD1= 4 Len=   56
 NBasis=  1572 RedAO= T EigKep=  3.36D-04  NBF=  1572
 NBsUse=  1572 1.00D-06 EigRej= -1.00D+00 NBFU=  1572
 Precomputing XC quadrature grid using
 IXCGrd= 4 IRadAn=           5 IRanWt=          -1 IRanGd=           0 AccXCQ= 0.00D+00.
 Generated NRdTot=       0 NPtTot=           0 NUsed=           0 NTot=          32
 NSgBfM=  1326  1312  1315  1315  1326 MxSgAt=   158 MxSgA2=   158.
 Leave Link  302 at Sat Sep 11 17:18:57 2021, MaxMem= 23488102400 cpu:             120.5 elap:               5.0
 (Enter /sw/apps/gaussian-16.0/g16/l303.exe)
 DipDrv:  MaxL=1.
 Leave Link  303 at Sat Sep 11 17:18:57 2021, MaxMem= 23488102400 cpu:               8.4 elap:               0.4
 (Enter /sw/apps/gaussian-16.0/g16/l308.exe)
 Leave Link  308 at Sat Sep 11 17:18:58 2021, MaxMem= 23488102400 cpu:              13.3 elap:               0.6
 (Enter /sw/apps/gaussian-16.0/g16/l401.exe)
 ExpMin= 3.36D-02 ExpMax= 4.95D+03 ExpMxC= 7.45D+02 IAcc=3 IRadAn=         5 AccDes= 0.00D+00
 Harris functional with IExCor=20419 and IRadAn=       5 diagonalized for initial guess.
 HarFok:  IExCor=20419 AccDes= 0.00D+00 IRadAn=         5 IDoV= 1 UseB2=F ITyADJ=14
 ICtDFT=  3500011 ScaDFX=  1.000000  1.000000  1.000000  1.000000
 FoFCou: FMM=F IPFlag=           0 FMFlag=      100000 FMFlg1=        2001
         NFxFlg=           0 DoJE=T BraDBF=F KetDBF=T FulRan=T
         wScrn=  0.000000 ICntrl=       500 IOpCl=  0 I1Cent=   200000004 NGrid=           0
         NMat0=    1 NMatS0=      1 NMatT0=    0 NMatD0=    1 NMtDS0=    0 NMtDT0=    0
 Petite list used in FoFCou.
 Harris En= -3918.65801295302    
 JPrj=0 DoOrth=F DoCkMO=F.
 Leave Link  401 at Sat Sep 11 17:19:04 2021, MaxMem= 23488102400 cpu:             160.2 elap:               6.7
 (Enter /sw/apps/gaussian-16.0/g16/l502.exe)
 Integral symmetry usage will be decided dynamically.
 Closed shell SCF:
 Using DIIS extrapolation, IDIIS=  1040.
 NGot= 23488102400 LenX= 23482547354 LenY= 23479796732
 Requested convergence on RMS density matrix=1.00D-08 within 128 cycles.
 Requested convergence on MAX density matrix=1.00D-06.
 Requested convergence on             energy=1.00D-06.
 No special actions if energy rises.
 Fock matrices will be formed incrementally for  20 cycles.

 Cycle   1  Pass 1  IDiag  1:
 FoFJK:  IHMeth= 1 ICntrl=       0 DoSepK=T KAlg= 0 I1Cent=           0 FoldK=F
 IRaf=         1 NMat=       1 IRICut=       1 DoRegI=T DoRafI=F ISym2E= 0 IDoP0=0 IntGTp=1.
 FoFCou: FMM=T IPFlag=           0 FMFlag=      100000 FMFlg1=        2001
         NFxFlg=           0 DoJE=T BraDBF=F KetDBF=F FulRan=T
         wScrn=  0.000000 ICntrl=       500 IOpCl=  0 I1Cent=           0 NGrid=           0
         NMat0=    1 NMatS0=      1 NMatT0=    0 NMatD0=    1 NMtDS0=    0 NMtDT0=    0
 Symmetry not used in FoFCou.
 FMM levels:  10  Number of levels for PrismC:   9
 E= -4068.94930907217    
 DIIS: error= 2.04D-02 at cycle   1 NSaved=   1.
 NSaved= 1 IEnMin= 1 EnMin= -4068.94930907217     IErMin= 1 ErrMin= 2.04D-02
 ErrMax= 2.04D-02  0.00D+00 EMaxC= 1.00D-01 BMatC= 1.69D+00 BMatP= 1.69D+00
 IDIUse=3 WtCom= 7.96D-01 WtEn= 2.04D-01
 Coeff-Com:  0.100D+01
 Coeff-En:   0.100D+01
 Coeff:      0.100D+01
 Gap=     0.120 Goal=   None    Shift=    0.000
 GapD=    0.120 DampG=1.000 DampE=0.500 DampFc=0.5000 IDamp=-1.
 Damping current iteration by 5.00D-01
 RMSDP=1.57D-03 MaxDP=1.35D-01              OVMax= 2.02D-01

 Cycle   2  Pass 1  IDiag  1:
 RMSU=  7.70D-04    CP:  9.82D-01
 E= -4069.33801969060     Delta-E=       -0.388710618427 Rises=F Damp=T
 DIIS: error= 1.27D-02 at cycle   2 NSaved=   2.
 NSaved= 2 IEnMin= 2 EnMin= -4069.33801969060     IErMin= 2 ErrMin= 1.27D-02
 ErrMax= 1.27D-02  0.00D+00 EMaxC= 1.00D-01 BMatC= 3.07D-01 BMatP= 1.69D+00
 IDIUse=3 WtCom= 8.73D-01 WtEn= 1.27D-01
 Coeff-Com: -0.213D+00 0.121D+01
 Coeff-En:   0.000D+00 0.100D+01
 Coeff:     -0.186D+00 0.119D+01
 Gap=     0.138 Goal=   None    Shift=    0.000
 RMSDP=7.66D-04 MaxDP=9.42D-02 DE=-3.89D-01 OVMax= 1.90D-01

 Cycle   3  Pass 1  IDiag  1:
 RMSU=  7.34D-04    CP:  9.68D-01  1.24D+00
 E= -4069.62649334679     Delta-E=       -0.288473656197 Rises=F Damp=F
 DIIS: error= 1.58D-02 at cycle   3 NSaved=   3.
 NSaved= 3 IEnMin= 3 EnMin= -4069.62649334679     IErMin= 2 ErrMin= 1.27D-02
 ErrMax= 1.58D-02  0.00D+00 EMaxC= 1.00D-01 BMatC= 2.03D-01 BMatP= 3.07D-01
 IDIUse=3 WtCom= 8.42D-01 WtEn= 1.58D-01
 Coeff-Com: -0.267D+00 0.653D+00 0.615D+00
 Coeff-En:   0.000D+00 0.000D+00 0.100D+01
 Coeff:     -0.225D+00 0.549D+00 0.676D+00
 Gap=     0.123 Goal=   None    Shift=    0.000
 RMSDP=5.12D-04 MaxDP=4.70D-02 DE=-2.88D-01 OVMax= 1.46D-01

 Cycle   4  Pass 1  IDiag  1:
 RMSU=  2.68D-04    CP:  9.65D-01  1.55D+00  5.02D-01
 E= -4069.76403458492     Delta-E=       -0.137541238131 Rises=F Damp=F
 DIIS: error= 7.36D-03 at cycle   4 NSaved=   4.
 NSaved= 4 IEnMin= 4 EnMin= -4069.76403458492     IErMin= 4 ErrMin= 7.36D-03
 ErrMax= 7.36D-03  0.00D+00 EMaxC= 1.00D-01 BMatC= 5.13D-02 BMatP= 2.03D-01
 IDIUse=3 WtCom= 9.26D-01 WtEn= 7.36D-02
 Coeff-Com: -0.109D+00 0.227D+00 0.410D+00 0.473D+00
 Coeff-En:   0.000D+00 0.000D+00 0.224D+00 0.776D+00
 Coeff:     -0.101D+00 0.210D+00 0.396D+00 0.495D+00
 Gap=     0.122 Goal=   None    Shift=    0.000
 RMSDP=2.04D-04 MaxDP=2.01D-02 DE=-1.38D-01 OVMax= 6.48D-02

 Cycle   5  Pass 1  IDiag  1:
 RMSU=  7.72D-05    CP:  9.64D-01  1.49D+00  6.88D-01  5.44D-01
 E= -4069.81061844488     Delta-E=       -0.046583859956 Rises=F Damp=F
 DIIS: error= 7.61D-04 at cycle   5 NSaved=   5.
 NSaved= 5 IEnMin= 5 EnMin= -4069.81061844488     IErMin= 5 ErrMin= 7.61D-04
 ErrMax= 7.61D-04  0.00D+00 EMaxC= 1.00D-01 BMatC= 1.25D-03 BMatP= 5.13D-02
 IDIUse=3 WtCom= 9.92D-01 WtEn= 7.61D-03
 Coeff-Com: -0.369D-01 0.725D-01 0.169D+00 0.253D+00 0.542D+00
 Coeff-En:   0.000D+00 0.000D+00 0.000D+00 0.000D+00 0.100D+01
 Coeff:     -0.366D-01 0.720D-01 0.168D+00 0.251D+00 0.546D+00
 Gap=     0.121 Goal=   None    Shift=    0.000
 RMSDP=4.29D-05 MaxDP=4.11D-03 DE=-4.66D-02 OVMax= 1.77D-02

 Cycle   6  Pass 1  IDiag  1:
 RMSU=  3.13D-05    CP:  9.64D-01  1.49D+00  6.80D-01  6.19D-01  7.42D-01
 E= -4069.81172689019     Delta-E=       -0.001108445307 Rises=F Damp=F
 DIIS: error= 2.03D-04 at cycle   6 NSaved=   6.
 NSaved= 6 IEnMin= 6 EnMin= -4069.81172689019     IErMin= 6 ErrMin= 2.03D-04
 ErrMax= 2.03D-04  0.00D+00 EMaxC= 1.00D-01 BMatC= 1.87D-04 BMatP= 1.25D-03
 IDIUse=3 WtCom= 9.98D-01 WtEn= 2.03D-03
 Coeff-Com:  0.208D-02-0.636D-02 0.121D-01 0.414D-01 0.304D+00 0.647D+00
 Coeff-En:   0.000D+00 0.000D+00 0.000D+00 0.000D+00 0.109D+00 0.891D+00
 Coeff:      0.208D-02-0.634D-02 0.121D-01 0.413D-01 0.304D+00 0.647D+00
 Gap=     0.122 Goal=   None    Shift=    0.000
 RMSDP=1.67D-05 MaxDP=1.16D-03 DE=-1.11D-03 OVMax= 7.71D-03

 Cycle   7  Pass 1  IDiag  1:
 RMSU=  1.11D-05    CP:  9.64D-01  1.50D+00  6.86D-01  6.18D-01  8.49D-01
                    CP:  7.42D-01
 E= -4069.81193168292     Delta-E=       -0.000204792730 Rises=F Damp=F
 DIIS: error= 8.66D-05 at cycle   7 NSaved=   7.
 NSaved= 7 IEnMin= 7 EnMin= -4069.81193168292     IErMin= 7 ErrMin= 8.66D-05
 ErrMax= 8.66D-05  0.00D+00 EMaxC= 1.00D-01 BMatC= 2.35D-05 BMatP= 1.87D-04
 IDIUse=1 WtCom= 1.00D+00 WtEn= 0.00D+00
 Coeff-Com:  0.452D-02-0.992D-02-0.884D-02-0.319D-02 0.105D+00 0.337D+00
 Coeff-Com:  0.575D+00
 Coeff:      0.452D-02-0.992D-02-0.884D-02-0.319D-02 0.105D+00 0.337D+00
 Coeff:      0.575D+00
 Gap=     0.122 Goal=   None    Shift=    0.000
 RMSDP=6.69D-06 MaxDP=1.08D-03 DE=-2.05D-04 OVMax= 3.36D-03

 Cycle   8  Pass 1  IDiag  1:
 RMSU=  4.76D-06    CP:  9.64D-01  1.50D+00  6.86D-01  6.23D-01  8.50D-01
                    CP:  8.66D-01  8.11D-01
 E= -4069.81196074580     Delta-E=       -0.000029062878 Rises=F Damp=F
 DIIS: error= 5.10D-05 at cycle   8 NSaved=   8.
 NSaved= 8 IEnMin= 8 EnMin= -4069.81196074580     IErMin= 8 ErrMin= 5.10D-05
 ErrMax= 5.10D-05  0.00D+00 EMaxC= 1.00D-01 BMatC= 4.88D-06 BMatP= 2.35D-05
 IDIUse=1 WtCom= 1.00D+00 WtEn= 0.00D+00
 Coeff-Com:  0.219D-02-0.435D-02-0.781D-02-0.121D-01-0.103D-01 0.345D-01
 Coeff-Com:  0.329D+00 0.669D+00
 Coeff:      0.219D-02-0.435D-02-0.781D-02-0.121D-01-0.103D-01 0.345D-01
 Coeff:      0.329D+00 0.669D+00
 Gap=     0.122 Goal=   None    Shift=    0.000
 RMSDP=3.33D-06 MaxDP=3.71D-04 DE=-2.91D-05 OVMax= 1.08D-03

 Cycle   9  Pass 1  IDiag  1:
 RMSU=  1.94D-06    CP:  9.64D-01  1.50D+00  6.87D-01  6.24D-01  8.67D-01
                    CP:  8.93D-01  1.00D+00  9.54D-01
 E= -4069.81196858447     Delta-E=       -0.000007838673 Rises=F Damp=F
 DIIS: error= 1.97D-05 at cycle   9 NSaved=   9.
 NSaved= 9 IEnMin= 9 EnMin= -4069.81196858447     IErMin= 9 ErrMin= 1.97D-05
 ErrMax= 1.97D-05  0.00D+00 EMaxC= 1.00D-01 BMatC= 7.24D-07 BMatP= 4.88D-06
 IDIUse=1 WtCom= 1.00D+00 WtEn= 0.00D+00
 Coeff-Com:  0.479D-03-0.798D-03-0.273D-02-0.604D-02-0.207D-01-0.390D-01
 Coeff-Com:  0.976D-01 0.334D+00 0.637D+00
 Coeff:      0.479D-03-0.798D-03-0.273D-02-0.604D-02-0.207D-01-0.390D-01
 Coeff:      0.976D-01 0.334D+00 0.637D+00
 Gap=     0.122 Goal=   None    Shift=    0.000
 RMSDP=1.43D-06 MaxDP=1.46D-04 DE=-7.84D-06 OVMax= 7.64D-04

 Cycle  10  Pass 1  IDiag  1:
 RMSU=  9.47D-07    CP:  9.64D-01  1.50D+00  6.87D-01  6.25D-01  8.71D-01
                    CP:  9.06D-01  1.05D+00  1.12D+00  1.05D+00
 E= -4069.81197021591     Delta-E=       -0.000001631441 Rises=F Damp=F
 DIIS: error= 9.70D-06 at cycle  10 NSaved=  10.
 NSaved=10 IEnMin=10 EnMin= -4069.81197021591     IErMin=10 ErrMin= 9.70D-06
 ErrMax= 9.70D-06  0.00D+00 EMaxC= 1.00D-01 BMatC= 1.67D-07 BMatP= 7.24D-07
 IDIUse=1 WtCom= 1.00D+00 WtEn= 0.00D+00
 Coeff-Com: -0.419D-03 0.881D-03 0.119D-02 0.104D-02-0.380D-02-0.309D-01
 Coeff-Com: -0.443D-01-0.698D-01 0.242D+00 0.904D+00
 Coeff:     -0.419D-03 0.881D-03 0.119D-02 0.104D-02-0.380D-02-0.309D-01
 Coeff:     -0.443D-01-0.698D-01 0.242D+00 0.904D+00
 Gap=     0.122 Goal=   None    Shift=    0.000
 RMSDP=1.22D-06 MaxDP=1.22D-04 DE=-1.63D-06 OVMax= 6.39D-04

 Cycle  11  Pass 1  IDiag  1:
 RMSU=  5.28D-07    CP:  9.64D-01  1.50D+00  6.87D-01  6.25D-01  8.73D-01
                    CP:  9.15D-01  1.09D+00  1.23D+00  1.38D+00  1.36D+00
 E= -4069.81197099819     Delta-E=       -0.000000782278 Rises=F Damp=F
 DIIS: error= 3.95D-06 at cycle  11 NSaved=  11.
 NSaved=11 IEnMin=11 EnMin= -4069.81197099819     IErMin=11 ErrMin= 3.95D-06
 ErrMax= 3.95D-06  0.00D+00 EMaxC= 1.00D-01 BMatC= 6.46D-08 BMatP= 1.67D-07
 IDIUse=1 WtCom= 1.00D+00 WtEn= 0.00D+00
 Coeff-Com: -0.333D-03 0.649D-03 0.134D-02 0.210D-02 0.425D-02-0.864D-02
 Coeff-Com: -0.420D-01-0.130D+00-0.322D-01 0.482D+00 0.723D+00
 Coeff:     -0.333D-03 0.649D-03 0.134D-02 0.210D-02 0.425D-02-0.864D-02
 Coeff:     -0.420D-01-0.130D+00-0.322D-01 0.482D+00 0.723D+00
 Gap=     0.122 Goal=   None    Shift=    0.000
 RMSDP=6.90D-07 MaxDP=6.55D-05 DE=-7.82D-07 OVMax= 3.94D-04

 Cycle  12  Pass 1  IDiag  1:
 RMSU=  2.67D-07    CP:  9.64D-01  1.50D+00  6.87D-01  6.25D-01  8.74D-01
                    CP:  9.18D-01  1.12D+00  1.29D+00  1.55D+00  1.75D+00
                    CP:  1.18D+00
 E= -4069.81197126405     Delta-E=       -0.000000265863 Rises=F Damp=F
 DIIS: error= 2.59D-06 at cycle  12 NSaved=  12.
 NSaved=12 IEnMin=12 EnMin= -4069.81197126405     IErMin=12 ErrMin= 2.59D-06
 ErrMax= 2.59D-06  0.00D+00 EMaxC= 1.00D-01 BMatC= 1.53D-08 BMatP= 6.46D-08
 IDIUse=1 WtCom= 1.00D+00 WtEn= 0.00D+00
 Coeff-Com: -0.111D-04 0.538D-05 0.222D-03 0.569D-03 0.338D-02 0.368D-02
 Coeff-Com:  0.139D-02-0.368D-01-0.712D-01-0.526D-01 0.257D+00 0.894D+00
 Coeff:     -0.111D-04 0.538D-05 0.222D-03 0.569D-03 0.338D-02 0.368D-02
 Coeff:      0.139D-02-0.368D-01-0.712D-01-0.526D-01 0.257D+00 0.894D+00
 Gap=     0.122 Goal=   None    Shift=    0.000
 RMSDP=4.29D-07 MaxDP=2.82D-05 DE=-2.66D-07 OVMax= 2.58D-04

 Cycle  13  Pass 1  IDiag  1:
 RMSU=  1.67D-07    CP:  9.64D-01  1.50D+00  6.87D-01  6.25D-01  8.74D-01
                    CP:  9.18D-01  1.12D+00  1.32D+00  1.65D+00  1.97D+00
                    CP:  1.59D+00  1.25D+00
 E= -4069.81197135566     Delta-E=       -0.000000091604 Rises=F Damp=F
 DIIS: error= 1.25D-06 at cycle  13 NSaved=  13.
 NSaved=13 IEnMin=13 EnMin= -4069.81197135566     IErMin=13 ErrMin= 1.25D-06
 ErrMax= 1.25D-06  0.00D+00 EMaxC= 1.00D-01 BMatC= 8.40D-09 BMatP= 1.53D-08
 IDIUse=1 WtCom= 1.00D+00 WtEn= 0.00D+00
 Coeff-Com:  0.118D-03-0.242D-03-0.361D-03-0.439D-03 0.653D-03 0.496D-02
 Coeff-Com:  0.187D-01 0.227D-01-0.329D-01-0.237D+00-0.160D+00 0.583D+00
 Coeff-Com:  0.801D+00
 Coeff:      0.118D-03-0.242D-03-0.361D-03-0.439D-03 0.653D-03 0.496D-02
 Coeff:      0.187D-01 0.227D-01-0.329D-01-0.237D+00-0.160D+00 0.583D+00
 Coeff:      0.801D+00
 Gap=     0.122 Goal=   None    Shift=    0.000
 RMSDP=3.47D-07 MaxDP=2.25D-05 DE=-9.16D-08 OVMax= 2.16D-04

 Cycle  14  Pass 1  IDiag  1:
 RMSU=  7.70D-08    CP:  9.64D-01  1.50D+00  6.87D-01  6.25D-01  8.74D-01
                    CP:  9.19D-01  1.13D+00  1.34D+00  1.73D+00  2.16D+00
                    CP:  1.85D+00  1.77D+00  1.11D+00
 E= -4069.81197139289     Delta-E=       -0.000000037238 Rises=F Damp=F
 DIIS: error= 7.31D-07 at cycle  14 NSaved=  14.
 NSaved=14 IEnMin=14 EnMin= -4069.81197139289     IErMin=14 ErrMin= 7.31D-07
 ErrMax= 7.31D-07  0.00D+00 EMaxC= 1.00D-01 BMatC= 1.28D-09 BMatP= 8.40D-09
 IDIUse=1 WtCom= 1.00D+00 WtEn= 0.00D+00
 Coeff-Com:  0.673D-04-0.133D-03-0.249D-03-0.386D-03-0.446D-03 0.127D-02
 Coeff-Com:  0.104D-01 0.195D-01 0.439D-02-0.101D+00-0.145D+00 0.856D-01
 Coeff-Com:  0.407D+00 0.719D+00
 Coeff:      0.673D-04-0.133D-03-0.249D-03-0.386D-03-0.446D-03 0.127D-02
 Coeff:      0.104D-01 0.195D-01 0.439D-02-0.101D+00-0.145D+00 0.856D-01
 Coeff:      0.407D+00 0.719D+00
 Gap=     0.122 Goal=   None    Shift=    0.000
 RMSDP=1.06D-07 MaxDP=7.00D-06 DE=-3.72D-08 OVMax= 6.06D-05

 Cycle  15  Pass 1  IDiag  1:
 RMSU=  3.82D-08    CP:  9.64D-01  1.50D+00  6.87D-01  6.25D-01  8.74D-01
                    CP:  9.18D-01  1.13D+00  1.35D+00  1.74D+00  2.21D+00
                    CP:  1.95D+00  1.91D+00  1.35D+00  1.04D+00
 E= -4069.81197139720     Delta-E=       -0.000000004307 Rises=F Damp=F
 DIIS: error= 3.22D-07 at cycle  15 NSaved=  15.
 NSaved=15 IEnMin=15 EnMin= -4069.81197139720     IErMin=15 ErrMin= 3.22D-07
 ErrMax= 3.22D-07  0.00D+00 EMaxC= 1.00D-01 BMatC= 2.23D-10 BMatP= 1.28D-09
 IDIUse=1 WtCom= 1.00D+00 WtEn= 0.00D+00
 Coeff-Com:  0.619D-05-0.106D-04-0.356D-04-0.854D-04-0.292D-03-0.506D-03
 Coeff-Com:  0.119D-02 0.279D-02 0.866D-02 0.477D-03-0.307D-01-0.718D-01
 Coeff-Com:  0.311D-01 0.298D+00 0.761D+00
 Coeff:      0.619D-05-0.106D-04-0.356D-04-0.854D-04-0.292D-03-0.506D-03
 Coeff:      0.119D-02 0.279D-02 0.866D-02 0.477D-03-0.307D-01-0.718D-01
 Coeff:      0.311D-01 0.298D+00 0.761D+00
 Gap=     0.122 Goal=   None    Shift=    0.000
 RMSDP=3.92D-08 MaxDP=2.55D-06 DE=-4.31D-09 OVMax= 2.93D-05

 Cycle  16  Pass 1  IDiag  1:
 RMSU=  1.87D-08    CP:  9.64D-01  1.50D+00  6.87D-01  6.25D-01  8.74D-01
                    CP:  9.19D-01  1.13D+00  1.35D+00  1.75D+00  2.22D+00
                    CP:  1.98D+00  1.96D+00  1.42D+00  1.24D+00  1.14D+00
 E= -4069.81197139804     Delta-E=       -0.000000000844 Rises=F Damp=F
 DIIS: error= 1.93D-07 at cycle  16 NSaved=  16.
 NSaved=16 IEnMin=16 EnMin= -4069.81197139804     IErMin=16 ErrMin= 1.93D-07
 ErrMax= 1.93D-07  0.00D+00 EMaxC= 1.00D-01 BMatC= 8.44D-11 BMatP= 2.23D-10
 IDIUse=1 WtCom= 1.00D+00 WtEn= 0.00D+00
 Coeff-Com: -0.136D-04 0.277D-04 0.445D-04 0.493D-04-0.346D-04-0.623D-03
 Coeff-Com: -0.180D-02-0.405D-02 0.419D-02 0.247D-01 0.203D-01-0.626D-01
 Coeff-Com: -0.808D-01-0.357D-01 0.401D+00 0.735D+00
 Coeff:     -0.136D-04 0.277D-04 0.445D-04 0.493D-04-0.346D-04-0.623D-03
 Coeff:     -0.180D-02-0.405D-02 0.419D-02 0.247D-01 0.203D-01-0.626D-01
 Coeff:     -0.808D-01-0.357D-01 0.401D+00 0.735D+00
 Gap=     0.122 Goal=   None    Shift=    0.000
 RMSDP=2.29D-08 MaxDP=1.71D-06 DE=-8.44D-10 OVMax= 1.29D-05

 Cycle  17  Pass 1  IDiag  1:
 RMSU=  1.04D-08    CP:  9.64D-01  1.50D+00  6.87D-01  6.25D-01  8.74D-01
                    CP:  9.19D-01  1.13D+00  1.35D+00  1.75D+00  2.22D+00
                    CP:  1.99D+00  1.99D+00  1.47D+00  1.34D+00  1.43D+00
                    CP:  1.23D+00
 E= -4069.81197139856     Delta-E=       -0.000000000517 Rises=F Damp=F
 DIIS: error= 9.02D-08 at cycle  17 NSaved=  17.
 NSaved=17 IEnMin=17 EnMin= -4069.81197139856     IErMin=17 ErrMin= 9.02D-08
 ErrMax= 9.02D-08  0.00D+00 EMaxC= 1.00D-01 BMatC= 1.76D-11 BMatP= 8.44D-11
 IDIUse=1 WtCom= 1.00D+00 WtEn= 0.00D+00
 Coeff-Com: -0.723D-05 0.141D-04 0.284D-04 0.415D-04 0.780D-04-0.133D-03
 Coeff-Com: -0.901D-03-0.277D-02 0.441D-04 0.950D-02 0.173D-01-0.748D-02
 Coeff-Com: -0.360D-01-0.990D-01-0.215D-01 0.286D+00 0.855D+00
 Coeff:     -0.723D-05 0.141D-04 0.284D-04 0.415D-04 0.780D-04-0.133D-03
 Coeff:     -0.901D-03-0.277D-02 0.441D-04 0.950D-02 0.173D-01-0.748D-02
 Coeff:     -0.360D-01-0.990D-01-0.215D-01 0.286D+00 0.855D+00
 Gap=     0.122 Goal=   None    Shift=    0.000
 RMSDP=1.33D-08 MaxDP=9.98D-07 DE=-5.17D-10 OVMax= 9.96D-06

 Cycle  18  Pass 1  IDiag  1:
 RMSU=  5.10D-09    CP:  9.64D-01  1.50D+00  6.87D-01  6.25D-01  8.74D-01
                    CP:  9.19D-01  1.13D+00  1.35D+00  1.75D+00  2.23D+00
                    CP:  1.99D+00  1.99D+00  1.49D+00  1.40D+00  1.59D+00
                    CP:  1.63D+00  1.37D+00
 E= -4069.81197139871     Delta-E=       -0.000000000153 Rises=F Damp=F
 DIIS: error= 6.82D-08 at cycle  18 NSaved=  18.
 NSaved=18 IEnMin=18 EnMin= -4069.81197139871     IErMin=18 ErrMin= 6.82D-08
 ErrMax= 6.82D-08  0.00D+00 EMaxC= 1.00D-01 BMatC= 7.74D-12 BMatP= 1.76D-11
 IDIUse=1 WtCom= 1.00D+00 WtEn= 0.00D+00
 Coeff-Com:  0.131D-05-0.295D-05-0.185D-05 0.201D-05 0.620D-04 0.160D-03
 Coeff-Com:  0.294D-03-0.285D-05-0.120D-02-0.498D-02 0.976D-03 0.178D-01
 Coeff-Com:  0.150D-01-0.376D-01-0.154D+00-0.170D+00 0.401D+00 0.933D+00
 Coeff:      0.131D-05-0.295D-05-0.185D-05 0.201D-05 0.620D-04 0.160D-03
 Coeff:      0.294D-03-0.285D-05-0.120D-02-0.498D-02 0.976D-03 0.178D-01
 Coeff:      0.150D-01-0.376D-01-0.154D+00-0.170D+00 0.401D+00 0.933D+00
 Gap=     0.122 Goal=   None    Shift=    0.000
 RMSDP=1.11D-08 MaxDP=7.77D-07 DE=-1.53D-10 OVMax= 6.21D-06

 Cycle  19  Pass 1  IDiag  1:
 RMSU=  3.04D-09    CP:  9.64D-01  1.50D+00  6.87D-01  6.25D-01  8.74D-01
                    CP:  9.19D-01  1.13D+00  1.35D+00  1.75D+00  2.23D+00
                    CP:  2.00D+00  2.00D+00  1.50D+00  1.45D+00  1.74D+00
                    CP:  1.92D+00  1.91D+00  1.27D+00
 E= -4069.81197139864     Delta-E=        0.000000000073 Rises=F Damp=F
 DIIS: error= 2.94D-08 at cycle  19 NSaved=  19.
 NSaved=19 IEnMin=18 EnMin= -4069.81197139871     IErMin=19 ErrMin= 2.94D-08
 ErrMax= 2.94D-08  0.00D+00 EMaxC= 1.00D-01 BMatC= 1.93D-12 BMatP= 7.74D-12
 IDIUse=1 WtCom= 1.00D+00 WtEn= 0.00D+00
 Coeff-Com:  0.298D-05-0.604D-05-0.990D-05-0.119D-04 0.168D-04 0.130D-03
 Coeff-Com:  0.478D-03 0.800D-03-0.625D-03-0.622D-02-0.487D-02 0.129D-01
 Coeff-Com:  0.215D-01 0.943D-02-0.803D-01-0.196D+00-0.706D-02 0.526D+00
 Coeff-Com:  0.724D+00
 Coeff:      0.298D-05-0.604D-05-0.990D-05-0.119D-04 0.168D-04 0.130D-03
 Coeff:      0.478D-03 0.800D-03-0.625D-03-0.622D-02-0.487D-02 0.129D-01
 Coeff:      0.215D-01 0.943D-02-0.803D-01-0.196D+00-0.706D-02 0.526D+00
 Coeff:      0.724D+00
 Gap=     0.122 Goal=   None    Shift=    0.000
 RMSDP=5.11D-09 MaxDP=3.87D-07 DE= 7.28D-11 OVMax= 3.88D-06

 SCF Done:  E(RCAM-B3LYP) =  -4069.81197140     A.U. after   19 cycles
            NFock= 19  Conv=0.51D-08     -V/T= 2.0102
 KE= 4.028802230267D+03 PE=-3.808700460986D+04 EE= 1.568545060569D+04
 Leave Link  502 at Sat Sep 11 17:27:50 2021, MaxMem= 23488102400 cpu:           12065.1 elap:             525.4
 (Enter /sw/apps/gaussian-16.0/g16/l801.exe)
 DoSCS=F DFT=T ScalE2(SS,OS)=  1.000000  1.000000
 ExpMin= 3.36D-02 ExpMax= 4.95D+03 ExpMxC= 7.45D+02 IAcc=3 IRadAn=         5 AccDes= 0.00D+00
 HarFok:  IExCor=  205 AccDes= 0.00D+00 IRadAn=         5 IDoV=-2 UseB2=F ITyADJ=14
 ICtDFT= 12500011 ScaDFX=  1.000000  1.000000  1.000000  1.000000
 GSVD:  LWork=       -9588 too small for GESVD, short by       45590 words or       45590 for optimal perf.
 Largest valence mixing into a core orbital is  2.03D-04
 Largest core mixing into a valence orbital is  5.24D-05
 Range of M.O.s used for correlation:    95  1572
 NBasis=  1572 NAE=   312 NBE=   312 NFC=    94 NFV=     0
 NROrb=   1478 NOA=   218 NOB=   218 NVA=  1260 NVB=  1260
 Leave Link  801 at Sat Sep 11 17:27:50 2021, MaxMem= 23488102400 cpu:               7.4 elap:               0.3
 (Enter /sw/apps/gaussian-16.0/g16/l914.exe)
 RHF ground state
 Two-electron integrals replicated using symmetry.
 MDV= 23488102400 DFT=T DoStab=F Mixed=T DoRPA=T DoScal=F NonHer=T
 Making orbital integer symmetry assigments:
 Orbital symmetries:
       Occupied  (A) (A) (A) (A) (A) (A) (A) (A) (A) (A) (A) (A)
                 (A) (A) (A) (A) (A) (A) (A) (A) (A) (A) (A) (A)
                 (A) (A) (A) (A) (A) (A) (A) (A) (A) (A) (A) (A)
                 (A) (A) (A) (A) (A) (A) (A) (A) (A) (A) (A) (A)
                 (A) (A) (A) (A) (A) (A) (A) (A) (A) (A) (A) (A)
                 (A) (A) (A) (A) (A) (A) (A) (A) (A) (A) (A) (A)
                 (A) (A) (A) (A) (A) (A) (A) (A) (A) (A) (A) (A)
                 (A) (A) (A) (A) (A) (A) (A) (A) (A) (A) (A) (A)
                 (A) (A) (A) (A) (A) (A) (A) (A) (A) (A) (A) (A)
                 (A) (A) (A) (A) (A) (A) (A) (A) (A) (A) (A) (A)
                 (A) (A) (A) (A) (A) (A) (A) (A) (A) (A) (A) (A)
                 (A) (A) (A) (A) (A) (A) (A) (A) (A) (A) (A) (A)
                 (A) (A) (A) (A) (A) (A) (A) (A) (A) (A) (A) (A)
                 (A) (A) (A) (A) (A) (A) (A) (A) (A) (A) (A) (A)
                 (A) (A) (A) (A) (A) (A) (A) (A) (A) (A) (A) (A)
                 (A) (A) (A) (A) (A) (A) (A) (A) (A) (A) (A) (A)
                 (A) (A) (A) (A) (A) (A) (A) (A) (A) (A) (A) (A)
                 (A) (A) (A) (A) (A) (A) (A) (A) (A) (A) (A) (A)
                 (A) (A) (A) (A) (A) (A) (A) (A) (A) (A) (A) (A)
                 (A) (A) (A) (A) (A) (A) (A) (A) (A) (A) (A) (A)
                 (A) (A) (A) (A) (A) (A) (A) (A) (A) (A) (A) (A)
                 (A) (A) (A) (A) (A) (A) (A) (A) (A) (A) (A) (A)
                 (A) (A) (A) (A) (A) (A) (A) (A) (A) (A) (A) (A)
                 (A) (A) (A) (A) (A) (A) (A) (A) (A) (A) (A) (A)
                 (A) (A) (A) (A) (A) (A) (A) (A) (A) (A) (A) (A)
                 (A) (A) (A) (A) (A) (A) (A) (A) (A) (A) (A) (A)
       Virtual   (A) (A) (A) (A) (A) (A) (A) (A) (A) (A) (A) (A)
                 (A) (A) (A) (A) (A) (A) (A) (A) (A) (A) (A) (A)
                 (A) (A) (A) (A) (A) (A) (A) (A) (A) (A) (A) (A)
                 (A) (A) (A) (A) (A) (A) (A) (A) (A) (A) (A) (A)
                 (A) (A) (A) (A) (A) (A) (A) (A) (A) (A) (A) (A)
                 (A) (A) (A) (A) (A) (A) (A) (A) (A) (A) (A) (A)
                 (A) (A) (A) (A) (A) (A) (A) (A) (A) (A) (A) (A)
                 (A) (A) (A) (A) (A) (A) (A) (A) (A) (A) (A) (A)
                 (A) (A) (A) (A) (A) (A) (A) (A) (A) (A) (A) (A)
                 (A) (A) (A) (A) (A) (A) (A) (A) (A) (A) (A) (A)
                 (A) (A) (A) (A) (A) (A) (A) (A) (A) (A) (A) (A)
                 (A) (A) (A) (A) (A) (A) (A) (A) (A) (A) (A) (A)
                 (A) (A) (A) (A) (A) (A) (A) (A) (A) (A) (A) (A)
                 (A) (A) (A) (A) (A) (A) (A) (A) (A) (A) (A) (A)
                 (A) (A) (A) (A) (A) (A) (A) (A) (A) (A) (A) (A)
                 (A) (A) (A) (A) (A) (A) (A) (A) (A) (A) (A) (A)
                 (A) (A) (A) (A) (A) (A) (A) (A) (A) (A) (A) (A)
                 (A) (A) (A) (A) (A) (A) (A) (A) (A) (A) (A) (A)
                 (A) (A) (A) (A) (A) (A) (A) (A) (A) (A) (A) (A)
                 (A) (A) (A) (A) (A) (A) (A) (A) (A) (A) (A) (A)
                 (A) (A) (A) (A) (A) (A) (A) (A) (A) (A) (A) (A)
                 (A) (A) (A) (A) (A) (A) (A) (A) (A) (A) (A) (A)
                 (A) (A) (A) (A) (A) (A) (A) (A) (A) (A) (A) (A)
                 (A) (A) (A) (A) (A) (A) (A) (A) (A) (A) (A) (A)
                 (A) (A) (A) (A) (A) (A) (A) (A) (A) (A) (A) (A)
                 (A) (A) (A) (A) (A) (A) (A) (A) (A) (A) (A) (A)
                 (A) (A) (A) (A) (A) (A) (A) (A) (A) (A) (A) (A)
                 (A) (A) (A) (A) (A) (A) (A) (A) (A) (A) (A) (A)
                 (A) (A) (A) (A) (A) (A) (A) (A) (A) (A) (A) (A)
                 (A) (A) (A) (A) (A) (A) (A) (A) (A) (A) (A) (A)
                 (A) (A) (A) (A) (A) (A) (A) (A) (A) (A) (A) (A)
                 (A) (A) (A) (A) (A) (A) (A) (A) (A) (A) (A) (A)
                 (A) (A) (A) (A) (A) (A) (A) (A) (A) (A) (A) (A)
                 (A) (A) (A) (A) (A) (A) (A) (A) (A) (A) (A) (A)
                 (A) (A) (A) (A) (A) (A) (A) (A) (A) (A) (A) (A)
                 (A) (A) (A) (A) (A) (A) (A) (A) (A) (A) (A) (A)
                 (A) (A) (A) (A) (A) (A) (A) (A) (A) (A) (A) (A)
                 (A) (A) (A) (A) (A) (A) (A) (A) (A) (A) (A) (A)
                 (A) (A) (A) (A) (A) (A) (A) (A) (A) (A) (A) (A)
                 (A) (A) (A) (A) (A) (A) (A) (A) (A) (A) (A) (A)
                 (A) (A) (A) (A) (A) (A) (A) (A) (A) (A) (A) (A)
                 (A) (A) (A) (A) (A) (A) (A) (A) (A) (A) (A) (A)
                 (A) (A) (A) (A) (A) (A) (A) (A) (A) (A) (A) (A)
                 (A) (A) (A) (A) (A) (A) (A) (A) (A) (A) (A) (A)
                 (A) (A) (A) (A) (A) (A) (A) (A) (A) (A) (A) (A)
                 (A) (A) (A) (A) (A) (A) (A) (A) (A) (A) (A) (A)
                 (A) (A) (A) (A) (A) (A) (A) (A) (A) (A) (A) (A)
                 (A) (A) (A) (A) (A) (A) (A) (A) (A) (A) (A) (A)
                 (A) (A) (A) (A) (A) (A) (A) (A) (A) (A) (A) (A)
                 (A) (A) (A) (A) (A) (A) (A) (A) (A) (A) (A) (A)
                 (A) (A) (A) (A) (A) (A) (A) (A) (A) (A) (A) (A)
                 (A) (A) (A) (A) (A) (A) (A) (A) (A) (A) (A) (A)
                 (A) (A) (A) (A) (A) (A) (A) (A) (A) (A) (A) (A)
                 (A) (A) (A) (A) (A) (A) (A) (A) (A) (A) (A) (A)
                 (A) (A) (A) (A) (A) (A) (A) (A) (A) (A) (A) (A)
                 (A) (A) (A) (A) (A) (A) (A) (A) (A) (A) (A) (A)
                 (A) (A) (A) (A) (A) (A) (A) (A) (A) (A) (A) (A)
                 (A) (A) (A) (A) (A) (A) (A) (A) (A) (A) (A) (A)
                 (A) (A) (A) (A) (A) (A) (A) (A) (A) (A) (A) (A)
                 (A) (A) (A) (A) (A) (A) (A) (A) (A) (A) (A) (A)
                 (A) (A) (A) (A) (A) (A) (A) (A) (A) (A) (A) (A)
                 (A) (A) (A) (A) (A) (A) (A) (A) (A) (A) (A) (A)
                 (A) (A) (A) (A) (A) (A) (A) (A) (A) (A) (A) (A)
                 (A) (A) (A) (A) (A) (A) (A) (A) (A) (A) (A) (A)
                 (A) (A) (A) (A) (A) (A) (A) (A) (A) (A) (A) (A)
                 (A) (A) (A) (A) (A) (A) (A) (A) (A) (A) (A) (A)
                 (A) (A) (A) (A) (A) (A) (A) (A) (A) (A) (A) (A)
                 (A) (A) (A) (A) (A) (A) (A) (A) (A) (A) (A) (A)
                 (A) (A) (A) (A) (A) (A) (A) (A) (A) (A) (A) (A)
                 (A) (A) (A) (A) (A) (A) (A) (A) (A) (A) (A) (A)
                 (A) (A) (A) (A) (A) (A) (A) (A) (A) (A) (A) (A)
                 (A) (A) (A) (A) (A) (A) (A) (A) (A) (A) (A) (A)
                 (A) (A) (A) (A) (A) (A) (A) (A) (A) (A) (A) (A)
                 (A) (A) (A) (A) (A) (A) (A) (A) (A) (A) (A) (A)
                 (A) (A) (A) (A) (A) (A) (A) (A) (A) (A) (A) (A)
                 (A) (A) (A) (A) (A) (A) (A) (A) (A) (A) (A) (A)
                 (A) (A) (A) (A) (A) (A) (A) (A) (A) (A) (A) (A)
                 (A) (A) (A) (A) (A) (A) (A) (A) (A) (A) (A) (A)
                 (A) (A) (A) (A) (A) (A) (A) (A) (A) (A) (A) (A)
                 (A) (A) (A) (A) (A) (A) (A) (A) (A) (A) (A) (A)
                 (A) (A) (A) (A) (A) (A) (A) (A) (A) (A) (A) (A)
                 (A) (A) (A) (A) (A) (A) (A) (A) (A) (A) (A) (A)
                 (A) (A) (A) (A) (A) (A) (A) (A) (A) (A) (A) (A)
                 (A) (A) (A) (A) (A) (A) (A) (A) (A) (A) (A) (A)
                 (A) (A) (A) (A) (A) (A) (A) (A) (A) (A) (A) (A)
                 (A) (A) (A) (A) (A) (A) (A) (A) (A) (A) (A) (A)
                 (A) (A) (A) (A) (A) (A) (A) (A) (A) (A) (A) (A)
                 (A) (A) (A) (A) (A) (A) (A) (A) (A) (A) (A) (A)
                 (A) (A) (A) (A) (A) (A) (A) (A) (A) (A) (A) (A)
                 (A) (A) (A) (A) (A) (A) (A) (A) (A) (A) (A) (A)
                 (A) (A) (A) (A) (A) (A) (A) (A) (A) (A) (A) (A)
                 (A) (A) (A) (A) (A) (A) (A) (A) (A) (A) (A) (A)
                 (A) (A) (A) (A) (A) (A) (A) (A) (A) (A) (A) (A)
                 (A) (A) (A) (A) (A) (A) (A) (A) (A) (A) (A) (A)
                 (A) (A) (A) (A) (A) (A) (A) (A) (A) (A) (A) (A)
                 (A) (A) (A) (A) (A) (A) (A) (A) (A) (A) (A) (A)
                 (A) (A) (A) (A) (A) (A) (A) (A) (A) (A) (A) (A)
                 (A) (A) (A) (A) (A) (A) (A) (A) (A) (A) (A) (A)
                 (A) (A) (A) (A) (A) (A) (A) (A) (A) (A) (A) (A)
                 (A) (A) (A) (A) (A) (A) (A) (A) (A) (A) (A) (A)
                 (A) (A) (A) (A) (A) (A) (A) (A) (A) (A) (A) (A)
                 (A) (A) (A) (A) (A) (A) (A) (A) (A) (A) (A) (A)
                 (A) (A) (A) (A) (A) (A) (A) (A) (A) (A) (A) (A)
                 (A) (A) (A) (A) (A) (A) (A) (A) (A) (A) (A) (A)
                 (A) (A) (A) (A) (A) (A) (A) (A) (A) (A) (A) (A)
    20 initial guesses have been made.
 Convergence on wavefunction:    0.001000000000000
 Davidson Disk Diagonalization:  ConvIn= 1.00D-03 SkipCon=T Conv= 1.00D-03.
 Max sub-space:  2000 roots to seek:    20 dimension of matrix:       549360
 Iteration     1 Dimension    20 NMult     0 NNew     20
 CISAX will form    20 AO SS matrices at one time.
 NMat=    20 NSing=    20 JSym2X= 0.
 FoFJK:  IHMeth= 1 ICntrl=       0 DoSepK=T KAlg= 0 I1Cent=           0 FoldK=F
 IRaf=         1 NMat=      40 IRICut=       1 DoRegI=T DoRafI=F ISym2E= 0 IDoP0=3 IntGTp=3.
 FoFCou: FMM=T IPFlag=           0 FMFlag=      100000 FMFlg1=        2001
         NFxFlg=           0 DoJE=F BraDBF=F KetDBF=F FulRan=T
         wScrn=  0.000000 ICntrl=       500 IOpCl=  0 I1Cent=           0 NGrid=           0
         NMat0=   20 NMatS0=     20 NMatT0=    0 NMatD0=   20 NMtDS0=    0 NMtDT0=    0
 Symmetry not used in FoFCou.
 FMM levels:  10  Number of levels for PrismC:   9
 New state      1 was old state      7
 New state      2 was old state      6
 New state      3 was old state      1
 New state      4 was old state      2
 New state      5 was old state      3
 Excitation Energies [eV] at current iteration:
 Root      1 :     2.613483532282476
 Root      2 :     2.618315526523344
 Root      3 :     2.647901686950159
 Root      4 :     2.656884102773986
 Root      5 :     2.713930081732092
 Root      6 :     2.739193831410737
 Root      7 :     3.445247771223618
 Root      8 :     3.540710572300086
 Root      9 :     3.626501456890924
 Root     10 :     3.672536397783027
 Root     11 :     3.740296960738835
 Root     12 :     3.756346453451439
 Root     13 :     4.300778182118956
 Root     14 :     4.310914006177240
 Root     15 :     4.554324462097453
 Root     16 :     4.638473843755627
 Root     17 :     4.874847574497322
 Root     18 :     4.903411358125205
 Root     19 :     4.963995518409705
 Root     20 :     4.994860189487719
 Iteration     2 Dimension    30 NMult    20 NNew     10
 CISAX will form    10 AO SS matrices at one time.
 NMat=    10 NSing=    10 JSym2X= 0.
 New state      1 was old state      4
 Root      1 not converged, maximum delta is    0.147652614608276
 New state      2 was old state      5
 Root      2 not converged, maximum delta is    0.154269857850692
 New state      3 was old state      2
 Root      3 not converged, maximum delta is    0.223712418149047
 New state      4 was old state      1
 Root      4 not converged, maximum delta is    0.206467600754305
 New state      5 was old state      3
 Root      5 not converged, maximum delta is    0.017460486391277
 Excitation Energies [eV] at current iteration:
 Root      1 :     1.789456359731920   Change is   -0.867427743042067
 Root      2 :     1.817580224820687   Change is   -0.896349856911405
 Root      3 :     2.234888737703809   Change is   -0.383426788819534
 Root      4 :     2.240073853712301   Change is   -0.373409678570174
 Root      5 :     2.645457224578867   Change is   -0.002444462371292
 Iteration     3 Dimension    40 NMult    30 NNew     10
 CISAX will form    10 AO SS matrices at one time.
 NMat=    10 NSing=    10 JSym2X= 0.
 Root      1 not converged, maximum delta is    0.055312099656773
 Root      2 not converged, maximum delta is    0.056275177213521
 Root      3 not converged, maximum delta is    0.044251586315216
 Root      4 not converged, maximum delta is    0.041554424287543
 Root      5 has converged.
 Excitation Energies [eV] at current iteration:
 Root      1 :     1.683079356227114   Change is   -0.106377003504805
 Root      2 :     1.708725310360343   Change is   -0.108854914460344
 Root      3 :     2.193418772359878   Change is   -0.041469965343931
 Root      4 :     2.201730465566798   Change is   -0.038343388145503
 Root      5 :     2.645453009462952   Change is   -0.000004215115915
 Iteration     4 Dimension    48 NMult    40 NNew      8
 CISAX will form     8 AO SS matrices at one time.
 NMat=     8 NSing=     8 JSym2X= 0.
 Root      1 not converged, maximum delta is    0.010583858175168
 Root      2 not converged, maximum delta is    0.010368170763761
 Root      3 not converged, maximum delta is    0.009839677886803
 Root      4 not converged, maximum delta is    0.008644795544160
 Root      5 has converged.
 Excitation Energies [eV] at current iteration:
 Root      1 :     1.666346864543386   Change is   -0.016732491683728
 Root      2 :     1.691869347657867   Change is   -0.016855962702475
 Root      3 :     2.186097588030370   Change is   -0.007321184329508
 Root      4 :     2.195033715694312   Change is   -0.006696749872486
 Root      5 :     2.645453001494850   Change is   -0.000000007968102
 Iteration     5 Dimension    56 NMult    48 NNew      8
 CISAX will form     8 AO SS matrices at one time.
 NMat=     8 NSing=     8 JSym2X= 0.
 Root      1 not converged, maximum delta is    0.001755734140872
 Root      2 not converged, maximum delta is    0.001751603640140
 Root      3 not converged, maximum delta is    0.002509083677819
 Root      4 not converged, maximum delta is    0.002333664793437
 Root      5 has converged.
 Excitation Energies [eV] at current iteration:
 Root      1 :     1.664586940891730   Change is   -0.001759923651656
 Root      2 :     1.690081611734614   Change is   -0.001787735923253
 Root      3 :     2.185252833630151   Change is   -0.000844754400219
 Root      4 :     2.194269172830702   Change is   -0.000764542863610
 Root      5 :     2.645452996008617   Change is   -0.000000005486233
 Iteration     6 Dimension    64 NMult    56 NNew      8
 CISAX will form     8 AO SS matrices at one time.
 NMat=     8 NSing=     8 JSym2X= 0.
 Root      1 not converged, maximum delta is    0.001071350194643
 Root      2 not converged, maximum delta is    0.001070364889290
 Root      3 not converged, maximum delta is    0.001074525194482
 Root      4 has converged.
 Root      5 has converged.
 Excitation Energies [eV] at current iteration:
 Root      1 :     1.664337274129942   Change is   -0.000249666761788
 Root      2 :     1.689824355603896   Change is   -0.000257256130718
 Root      3 :     2.185123896693598   Change is   -0.000128936936553
 Root      4 :     2.194153364378121   Change is   -0.000115808452582
 Root      5 :     2.645452994130753   Change is   -0.000000001877864
 Iteration     7 Dimension    70 NMult    64 NNew      6
 CISAX will form     6 AO SS matrices at one time.
 NMat=     6 NSing=     6 JSym2X= 0.
 Root      1 has converged.
 Root      2 has converged.
 Root      3 has converged.
 Root      4 has converged.
 Root      5 has converged.
 Excitation Energies [eV] at current iteration:
 Root      1 :     1.664312948732850   Change is   -0.000024325397092
[...]
 Alpha virt. eigenvalues --    1.83582   1.83769   1.83983   1.84039   1.84262
 Alpha virt. eigenvalues --    1.84457   1.84626   1.84836   1.84855   1.85093
 Alpha virt. eigenvalues --    1.85221   1.85286   1.85388   1.85559   1.85563
 Alpha virt. eigenvalues --    1.85877   1.85984   1.86372   1.86472   1.86588
 Alpha virt. eigenvalues --    1.86729   1.86794   1.86935   1.87031   1.87140
 Alpha virt. eigenvalues --    1.87448   1.87563   1.87688   1.87845   1.87880
 Alpha virt. eigenvalues --    1.88051   1.88109   1.88257   1.88556   1.88648
 Alpha virt. eigenvalues --    1.88838   1.89005   1.89128   1.89187   1.89661
 Alpha virt. eigenvalues --    1.89722   1.89778   1.89948   1.90137   1.90260
 Alpha virt. eigenvalues --    1.90754   1.90978   1.91356   1.91452   1.91537
 Alpha virt. eigenvalues --    1.91653   1.92161   1.92258   1.92627   1.92740
 Alpha virt. eigenvalues --    1.92994   1.93241   1.93347   1.93610   1.94281
 Alpha virt. eigenvalues --    1.94422   1.94712   1.94902   1.95481   1.95720
 Alpha virt. eigenvalues --    1.95730   1.95892   1.95996   1.96138   1.96156
 Alpha virt. eigenvalues --    1.96247   1.96574   1.96600   1.96916   1.97009
 Alpha virt. eigenvalues --    1.97452   1.97645   1.97835   1.97892   1.98173
 Alpha virt. eigenvalues --    1.98243   1.98427   1.98675   1.99146   1.99158
 Alpha virt. eigenvalues --    1.99828   1.99991   2.00666   2.00823   2.01003
 Alpha virt. eigenvalues --    2.01165   2.01480   2.01619   2.01666   2.01678
 Alpha virt. eigenvalues --    2.01728   2.01890   2.02789   2.02798   2.03242
 Alpha virt. eigenvalues --    2.03254   2.03413   2.03446   2.03483   2.03593
 Alpha virt. eigenvalues --    2.04042   2.04109   2.04976   2.05062   2.05534
 Alpha virt. eigenvalues --    2.05711   2.06104   2.06352   2.06903   2.07091
 Alpha virt. eigenvalues --    2.07187   2.07442   2.08622   2.08627   2.08997
 Alpha virt. eigenvalues --    2.09077   2.09598   2.09680   2.10784   2.11155
 Alpha virt. eigenvalues --    2.11192   2.11488   2.11538   2.11592   2.11744
 Alpha virt. eigenvalues --    2.11925   2.12471   2.12530   2.12820   2.12840
 Alpha virt. eigenvalues --    2.12887   2.12950   2.13683   2.13767   2.14148
 Alpha virt. eigenvalues --    2.14367   2.15350   2.15486   2.15929   2.16159
 Alpha virt. eigenvalues --    2.16534   2.16674   2.16762   2.17256   2.17425
 Alpha virt. eigenvalues --    2.17717   2.17751   2.18002   2.18070   2.18112
 Alpha virt. eigenvalues --    2.18333   2.18728   2.18869   2.19298   2.19649
 Alpha virt. eigenvalues --    2.19882   2.20048   2.20211   2.20325   2.20498
 Alpha virt. eigenvalues --    2.21160   2.21290   2.21692   2.21744   2.21835
 Alpha virt. eigenvalues --    2.21944   2.22687   2.22775   2.23313   2.23444
 Alpha virt. eigenvalues --    2.24411   2.24521   2.24964   2.25098   2.26298
 Alpha virt. eigenvalues --    2.26505   2.26788   2.27085   2.27104   2.27272
 Alpha virt. eigenvalues --    2.28143   2.28374   2.29279   2.29515   2.29738
 Alpha virt. eigenvalues --    2.29945   2.30456   2.30675   2.30870   2.31083
 Alpha virt. eigenvalues --    2.31177   2.31301   2.32135   2.32325   2.33141
 Alpha virt. eigenvalues --    2.33289   2.33459   2.33567   2.34138   2.34234
 Alpha virt. eigenvalues --    2.35359   2.35365   2.35805   2.35964   2.36361
 Alpha virt. eigenvalues --    2.36394   2.36561   2.36637   2.37658   2.37794
 Alpha virt. eigenvalues --    2.38290   2.38450   2.38826   2.38861   2.39622
 Alpha virt. eigenvalues --    2.39736   2.40181   2.40372   2.40489   2.40878
 Alpha virt. eigenvalues --    2.41265   2.41269   2.41689   2.41784   2.42037
 Alpha virt. eigenvalues --    2.42188   2.42925   2.42955   2.43104   2.43524
 Alpha virt. eigenvalues --    2.44035   2.44183   2.44743   2.44869   2.44909
 Alpha virt. eigenvalues --    2.45060   2.45553   2.45645   2.46334   2.46336
 Alpha virt. eigenvalues --    2.46484   2.46565   2.46809   2.46859   2.47253
 Alpha virt. eigenvalues --    2.47472   2.47720   2.47966   2.49331   2.49483
 Alpha virt. eigenvalues --    2.50001   2.50071   2.50526   2.50562   2.51118
 Alpha virt. eigenvalues --    2.51322   2.51669   2.51893   2.52437   2.52441
 Alpha virt. eigenvalues --    2.52812   2.53218   2.53927   2.54041   2.54196
 Alpha virt. eigenvalues --    2.54339   2.54791   2.54892   2.55540   2.55736
 Alpha virt. eigenvalues --    2.57882   2.58138   2.58650   2.58977   2.60202
 Alpha virt. eigenvalues --    2.60343   2.60614   2.60967   2.61725   2.61884
 Alpha virt. eigenvalues --    2.62487   2.62535   2.62954   2.63193   2.63942
 Alpha virt. eigenvalues --    2.64242   2.64263   2.64534   2.65077   2.65170
 Alpha virt. eigenvalues --    2.65792   2.65902   2.66772   2.66907   2.66916
 Alpha virt. eigenvalues --    2.67113   2.67909   2.68049   2.68865   2.68879
 Alpha virt. eigenvalues --    2.69021   2.69073   2.69382   2.69660   2.69992
 Alpha virt. eigenvalues --    2.70212   2.70975   2.71118   2.71942   2.72053
 Alpha virt. eigenvalues --    2.72537   2.72652   2.72779   2.72814   2.73275
 Alpha virt. eigenvalues --    2.73376   2.73500   2.73507   2.74508   2.74571
 Alpha virt. eigenvalues --    2.74974   2.75106   2.76591   2.76593   2.77119
 Alpha virt. eigenvalues --    2.77226   2.77474   2.77639   2.78232   2.78325
 Alpha virt. eigenvalues --    2.78723   2.78754   2.79138   2.79194   2.80291
 Alpha virt. eigenvalues --    2.80366   2.80583   2.80723   2.81115   2.81201
 Alpha virt. eigenvalues --    2.81937   2.82025   2.82341   2.82402   2.83747
 Alpha virt. eigenvalues --    2.83798   2.83885   2.83944   2.84548   2.84592
 Alpha virt. eigenvalues --    2.84884   2.84962   2.85692   2.85735   2.86713
 Alpha virt. eigenvalues --    2.86996   2.87206   2.87593   2.88190   2.88263
 Alpha virt. eigenvalues --    2.88503   2.88694   2.88927   2.88936   2.90490
 Alpha virt. eigenvalues --    2.90713   2.91138   2.91188   2.93153   2.93361
 Alpha virt. eigenvalues --    2.93823   2.94202   2.94575   2.94636   2.95363
 Alpha virt. eigenvalues --    2.95497   2.95855   2.96183   2.96430   2.96438
 Alpha virt. eigenvalues --    2.96907   2.97160   2.97810   2.98073   2.98233
 Alpha virt. eigenvalues --    2.98361   2.98379   2.98601   2.98615   2.98843
 Alpha virt. eigenvalues --    2.98900   2.98987   2.99592   2.99859   3.00034
 Alpha virt. eigenvalues --    3.00043   3.00225   3.00380   3.00457   3.01030
 Alpha virt. eigenvalues --    3.01975   3.01981   3.02062   3.02134   3.02736
 Alpha virt. eigenvalues --    3.02835   3.02972   3.03336   3.03357   3.03746
 Alpha virt. eigenvalues --    3.04105   3.04161   3.04446   3.04494   3.04541
 Alpha virt. eigenvalues --    3.04809   3.05316   3.05402   3.06120   3.06229
 Alpha virt. eigenvalues --    3.06800   3.06987   3.07967   3.08171   3.09406
 Alpha virt. eigenvalues --    3.09427   3.09701   3.10439   3.10449   3.10770
 Alpha virt. eigenvalues --    3.11347   3.11570   3.11938   3.12020   3.12164
 Alpha virt. eigenvalues --    3.12333   3.13281   3.13650   3.13676   3.13756
 Alpha virt. eigenvalues --    3.14077   3.14490   3.15915   3.16108   3.17263
 Alpha virt. eigenvalues --    3.17567   3.17912   3.18116   3.19075   3.19147
 Alpha virt. eigenvalues --    3.22284   3.22618   3.23947   3.24477   3.24667
 Alpha virt. eigenvalues --    3.25227   3.26503   3.26703   3.27437   3.27619
 Alpha virt. eigenvalues --    3.29075   3.29238   3.31419   3.31527   3.33230
 Alpha virt. eigenvalues --    3.33421   3.40269   3.40605   3.42842   3.42852
 Alpha virt. eigenvalues --    3.48657   3.48736   3.50023   3.50328   3.50875
 Alpha virt. eigenvalues --    3.51481   3.56560   3.57047   3.59102   3.59398
 Alpha virt. eigenvalues --    3.62555   3.62837   3.66130   3.66239   3.67162
 Alpha virt. eigenvalues --    3.67556   3.73250   3.74042   3.76040   3.76704
          Condensed to atoms (all electrons):
 Mulliken charges:
               1
     1  Mg   0.837357
     2  C   -0.003285
     3  C   -0.093968
     4  C   -0.045799
     5  C   -0.064114
     6  N   -0.256831
     7  C   -0.052734
     8  C   -0.013890
     9  C   -0.087026
    10  C    0.046296
    11  C    0.104760
    12  C    0.053404
    13  C   -0.071842
    14  H    0.035987
    15  N   -0.433349
    16  C    0.168472
    17  C   -0.176815
    18  C   -0.003606
    19  C    0.148654
    20  C    0.110097
    21  C    0.012891
    22  O   -0.249208
    23  C    0.062174
    24  N   -0.341031
    25  C    0.041133
    26  C   -0.028286
    27  C   -0.023931
    28  C    0.074424
    29  C    0.076084
    30  C    0.035200
    31  C   -0.004633
    32  N   -0.310318
    33  C    0.079763
    34  C   -0.170192
    35  C    0.008309
    36  C    0.082320
    37  C    0.127412
    38  C    0.045709
    39  O   -0.188505
    40  C   -0.005185
    41  C    0.213110
    42  O   -0.258039
    43  O   -0.304596
    44  C    0.157683
    45  H   -0.017353
    46  H   -0.016429
    47  H   -0.041532
    48  H    0.001014
    49  H   -0.003877
    50  H    0.025540
    51  H    0.016545
    52  H    0.016820
    53  H    0.011207
    54  H    0.043525
    55  H    0.018044
    56  H    0.018173
    57  H    0.005818
    58  H    0.027018
    59  H    0.040446
    60  H    0.037015
    61  H    0.036427
    62  H    0.032618
    63  H    0.016820
    64  H    0.009651
    65  H    0.023542
    66  H    0.012637
    67  H    0.004857
    68  H    0.006865
    69  H    0.004762
    70  H    0.009469
    71  H    0.017509
    72  H    0.027856
    73  H    0.047246
    74  H    0.009033
    75  H    0.046207
    76  H    0.035348
    77  H    0.043211
    78  H    0.046517
    79  H    0.053373
    80  Mg   0.837607
    81  C   -0.017100
    82  C   -0.088109
    83  C   -0.045600
    84  C   -0.064401
    85  N   -0.254586
    86  C   -0.049818
    87  C   -0.015085
    88  C   -0.090462
    89  C    0.045713
    90  C    0.114470
    91  C    0.062576
    92  C   -0.077736
    93  H    0.034651
    94  N   -0.423371
    95  C    0.162789
    96  C   -0.175038
    97  C   -0.008123
    98  C    0.152071
    99  C    0.099548
   100  C    0.015299
   101  O   -0.253492
   102  C    0.061261
   103  N   -0.350071
   104  C    0.037544
   105  C   -0.020070
   106  C   -0.035610
   107  C    0.088661
   108  C    0.073167
   109  C    0.034865
   110  C   -0.007720
   111  N   -0.324180
   112  C    0.078442
   113  C   -0.162750
   114  C    0.002176
   115  C    0.096332
   116  C    0.131460
   117  C    0.042476
   118  O   -0.187890
   119  C    0.000904
   120  C    0.211245
   121  O   -0.251092
   122  O   -0.305659
   123  C    0.152099
   124  H   -0.020165
   125  H   -0.015851
   126  H   -0.038758
   127  H   -0.000797
   128  H   -0.004614
   129  H    0.022425
   130  H    0.014374
   131  H    0.015887
   132  H    0.013875
   133  H    0.037668
   134  H    0.020683
   135  H    0.019425
   136  H    0.008521
   137  H    0.025534
   138  H    0.039452
   139  H    0.037839
   140  H    0.035952
   141  H    0.033932
   142  H    0.014261
   143  H    0.015459
   144  H    0.024103
   145  H    0.010603
   146  H    0.008531
   147  H    0.006903
   148  H    0.005194
   149  H    0.010743
   150  H    0.017399
   151  H    0.029457
   152  H    0.045822
   153  H    0.009774
   154  H    0.047464
   155  H    0.034891
   156  H    0.043794
   157  H    0.049345
   158  H    0.053506
 Sum of Mulliken charges =  -0.00000
 Mulliken charges with hydrogens summed into heavy atoms:
               1
     1  Mg   0.837357
     2  C   -0.003285
     3  C   -0.111322
     4  C   -0.062228
     5  C   -0.105646
     6  N   -0.256831
     7  C   -0.052734
     8  C   -0.012876
     9  C   -0.090903
    10  C    0.046296
    11  C    0.163665
    12  C    0.108136
    13  C    0.000362
    15  N   -0.433349
    16  C    0.168472
    17  C   -0.176815
    18  C   -0.003606
    19  C    0.148654
    20  C    0.183380
    21  C    0.012891
    22  O   -0.249208
    23  C    0.168233
    24  N   -0.341031
    25  C    0.041133
    26  C   -0.011466
    27  C   -0.014280
    28  C    0.074424
    29  C    0.117121
    30  C    0.046826
    31  C    0.050202
    32  N   -0.310318
    33  C    0.079763
    34  C   -0.170192
    35  C    0.008309
    36  C    0.082320
    37  C    0.229898
    38  C    0.045709
    39  O   -0.188505
    40  C    0.030163
    41  C    0.213110
    42  O   -0.258039
    43  O   -0.304596
    44  C    0.300784
    80  Mg   0.837607
    81  C   -0.017100
    82  C   -0.108274
    83  C   -0.061451
    84  C   -0.103159
    85  N   -0.254586
    86  C   -0.049818
    87  C   -0.015882
    88  C   -0.095075
    89  C    0.045713
    90  C    0.167157
    91  C    0.114119
    92  C   -0.002976
    94  N   -0.423371
    95  C    0.162789
    96  C   -0.175038
    97  C   -0.008123
    98  C    0.152071
    99  C    0.173054
   100  C    0.015299
   101  O   -0.253492
   102  C    0.168985
   103  N   -0.350071
   104  C    0.037544
   105  C   -0.005809
   106  C   -0.020151
   107  C    0.088661
   108  C    0.116404
   109  C    0.046962
   110  C    0.049879
   111  N   -0.324180
   112  C    0.078442
   113  C   -0.162750
   114  C    0.002176
   115  C    0.096332
   116  C    0.234520
   117  C    0.042476
   118  O   -0.187890
   119  C    0.035795
   120  C    0.211245
   121  O   -0.251092
   122  O   -0.305659
   123  C    0.298744
 Electronic spatial extent (au):  <R**2>=         160635.3978
 Charge=             -0.0000 electrons
 Dipole moment (field-independent basis, Debye):
    X=              1.1917    Y=              5.9991    Z=             -5.7247  Tot=              8.3775
 Quadrupole moment (field-independent basis, Debye-Ang):
   XX=           -445.6161   YY=           -550.7623   ZZ=           -474.1188
   XY=            -28.1930   XZ=             15.1156   YZ=            -11.7123
 Traceless Quadrupole moment (field-independent basis, Debye-Ang):
   XX=             44.5496   YY=            -60.5966   ZZ=             16.0469
   XY=            -28.1930   XZ=             15.1156   YZ=            -11.7123
 Octapole moment (field-independent basis, Debye-Ang**2):
  XXX=           -499.6588  YYY=            255.3845  ZZZ=            -22.6011  XYY=           -164.5483
  XXY=            515.0490  XXZ=           -502.1065  XZZ=            284.7466  YZZ=            -70.4887
  YYZ=           -224.3943  XYZ=            -94.2794
 Hexadecapole moment (field-independent basis, Debye-Ang**3):
 XXXX=        -153477.2260 YYYY=         -34411.9496 ZZZZ=         -17424.5154 XXXY=          -1526.0605
 XXXZ=            803.2364 YYYX=           -765.6793 YYYZ=           -254.3964 ZZZX=            144.2836
 ZZZY=            401.6392 XXYY=         -34951.1262 XXZZ=         -29292.2536 YYZZ=          -8073.8304
 XXYZ=           -814.6606 YYXZ=           -494.1129 ZZXY=           -644.1016
 N-N= 1.430293980250D+04 E-N=-3.808700460228D+04  KE= 4.028802230267D+03
 Leave Link  601 at Sat Sep 11 17:47:50 2021, MaxMem= 23488102400 cpu:              13.7 elap:               0.7
 (Enter /sw/apps/gaussian-16.0/g16/l9999.exe)
 1\1\GINC-BP1-COMPUTE00129\SP\RCAM-B3LYP TD-FC\def2SVP\C68H72Mg2N8O8\OF
 15641\11-Sep-2021\0\\#p cam-b3lyp/Def2SVP td=(nstates=5)\\TDDFT excite
 d states in gaussian\\0,1\Mg,0,0.,0.,0.\C,0,-0.217,-2.218,2.801\C,0,-1
 .255,2.442,2.026\C,0,-0.245,1.85,-2.564\C,0,0.146,-2.824,-2.037\N,0,-0
 .617,-0.009,2.126\C,0,-0.594,-0.908,3.105\C,0,-0.936,-0.309,4.502\C,0,
 -1.773,0.964,4.032\C,0,-1.155,1.168,2.66\C,0,-3.263,0.685,3.863\C,0,0.
 345,0.11,5.299\C,0,0.124,0.397,6.787\H,0,1.168,0.033,7.733\N,0,-0.185,
 1.961,-0.152\C,0,-0.703,2.8,0.777\C,0,-0.62,4.156,0.193\C,0,-0.187,4.0
 15,-1.225\C,0,-0.214,2.583,-1.38\C,0,-0.887,5.406,0.974\C,0,0.181,5.01
 3,-2.277\O,0,0.303,4.69,-3.508\C,0,0.31,6.414,-1.837\N,0,-0.265,-0.413
 ,-2.029\C,0,-0.279,0.569,-2.937\C,0,-0.196,0.024,-4.332\C,0,0.124,-1.5
 33,-4.18\C,0,0.086,-1.632,-2.635\C,0,-1.451,0.205,-5.197\C,0,1.373,-2.
 07,-4.923\C,0,2.626,-1.49,-4.306\N,0,0.15,-2.144,0.303\C,0,0.173,-3.13
 6,-0.688\C,0,0.173,-4.438,0.004\C,0,0.133,-4.111,1.358\C,0,0.083,-2.69
 5,1.502\C,0,0.149,-5.715,-0.623\C,0,0.096,-4.629,2.716\O,0,0.208,-5.74
 7,3.221\C,0,-0.255,-3.428,3.701\C,0,0.717,-3.482,4.848\O,0,1.931,-3.25
 5,4.669\O,0,0.038,-3.556,6.003\C,0,0.943,-3.583,7.183\H,0,-1.859,3.22,
 2.497\H,0,-0.218,2.453,-3.474\H,0,0.276,-3.747,-2.605\H,0,-1.554,-0.94
 9,5.132\H,0,-1.585,1.831,4.665\H,0,-3.484,-0.377,3.969\H,0,-3.511,1.02
 7,2.858\H,0,-3.852,1.301,4.543\H,0,0.669,1.096,4.966\H,0,1.13,-0.639,5
 .189\H,0,-0.844,0.026,7.125\H,0,0.062,1.477,6.921\H,0,-1.344,5.186,1.9
 38\H,0,-1.651,5.963,0.432\H,0,0.007,6.02,1.084\H,0,-0.635,6.744,-1.405
 \H,0,0.665,6.97,-2.704\H,0,1.048,6.466,-1.036\H,0,0.608,0.501,-4.891\H
 ,0,-0.692,-2.156,-4.547\H,0,-1.267,0.74,-6.129\H,0,-2.204,0.714,-4.596
 \H,0,-1.967,-0.72,-5.453\H,0,1.356,-1.759,-5.967\H,0,1.452,-3.157,-4.9
 02\H,0,2.714,-0.522,-4.798\H,0,3.487,-2.121,-4.529\H,0,2.495,-1.303,-3
 .24\H,0,0.867,-6.333,-0.084\H,0,0.404,-5.642,-1.68\H,0,-0.891,-5.999,-
 0.463\H,0,-1.283,-3.581,4.028\H,0,0.698,-4.478,7.755\H,0,0.833,-2.619,
 7.68\H,0,2.,-3.754,6.976\Mg,0,13.14638,1.18641,0.99184\C,0,15.82401,-1
 .00573,1.94255\C,0,15.10046,3.78111,2.03284\C,0,10.64796,3.10005,0.587
 71\C,0,11.02778,-1.57841,1.10603\N,0,15.18104,1.2522,1.85676\C,0,16.12
 643,0.36113,2.11477\C,0,17.49776,0.9736,2.50708\C,0,16.98064,2.39455,3
 .04778\C,0,15.68935,2.50818,2.24011\C,0,16.62099,2.382,4.52421\C,0,18.
 45242,1.14138,1.27319\C,0,19.91095,1.44269,1.62483\H,0,20.96099,0.8817
 2,0.77914\N,0,13.05752,3.16008,0.80396\C,0,13.94778,4.06246,1.26701\C,
 0,13.41746,5.38147,0.88867\C,0,12.05978,5.19258,0.30924\C,0,11.85618,3
 .78155,0.56929\C,0,14.21583,6.64637,1.01547\C,0,11.09792,6.12993,-0.35
 588\O,0,9.87701,5.80282,-0.56852\C,0,11.6024,7.47551,-0.66636\N,0,11.0
 9437,0.86179,1.07067\C,0,10.22676,1.85382,0.80409\C,0,8.82136,1.32294,
 0.65113\C,0,8.96359,-0.26984,0.63105\C,0,10.48364,-0.39129,0.87617\C,0
 ,7.8333,1.73167,1.7434\C,0,8.34901,-1.01602,-0.58476\C,0,9.119,-0.6777
 2,-1.84097\N,0,13.3833,-0.94477,1.25641\C,0,12.36106,-1.91817,1.29652\
 C,0,13.0029,-3.21079,1.61214\C,0,14.36175,-2.89321,1.7576\C,0,14.5504,
 -1.4976,1.56739\C,0,12.33126,-4.45508,1.77571\C,0,15.67793,-3.41951,2.
 0393\O,0,16.14787,-4.54568,2.19629\C,0,16.66518,-2.20065,2.29643\C,0,1
 7.91587,-2.439,1.4955\O,0,17.87937,-2.44205,0.25241\O,0,18.97933,-2.40
 722,2.31917\C,0,20.24468,-2.62767,1.56943\H,0,15.53681,4.64313,2.53822
 \H,0,9.76615,3.697,0.3437\H,0,10.44956,-2.50386,1.06273\H,0,18.02292,0
 .44519,3.2937\H,0,17.66857,3.19272,2.78126\H,0,16.66051,1.38618,4.9400
 5\H,0,15.61576,2.77797,4.58549\H,0,17.25543,3.08411,5.07272\H,0,18.192
 24,2.06616,0.74231\H,0,18.405,0.28055,0.63495\H,0,20.12747,1.2529,2.68
 316\H,0,20.08256,2.51508,1.50428\H,0,15.11447,6.49533,1.62624\H,0,13.6
 0902,7.35079,1.59463\H,0,14.45091,7.09487,0.04787\H,0,11.9355,7.95668,
 0.25015\H,0,10.79977,7.96835,-1.21842\H,0,12.48426,7.37875,-1.30946\H,
 0,8.38471,1.64859,-0.28502\H,0,8.46769,-0.73414,1.49612\H,0,6.93808,2.
 24966,1.35055\H,0,8.35268,2.35794,2.45654\H,0,7.47437,0.91686,2.36988\
 H,0,7.32112,-0.68501,-0.75216\H,0,8.32444,-2.09375,-0.46273\H,0,8.6759
 9,0.27261,-2.15355\H,0,8.97612,-1.44735,-2.59681\H,0,10.1756,-0.49089,
 -1.61663\H,0,12.9211,-5.19802,1.25549\H,0,11.31481,-4.41194,1.39003\H,
 0,12.35346,-4.547,2.8649\H,0,16.86619,-2.16226,3.36773\H,0,20.75199,-3
 .47498,2.04101\H,0,20.77186,-1.6552,1.58063\H,0,20.16667,-2.97155,0.54
 468\\Version=ES64L-G16RevA.03\State=1-A\HF=-4069.8119714\RMSD=5.107e-0
 9\PG=C01 [X(C68H72Mg2N8O8)]\\@


 OF ALL THE WONDERS OF THE UNIVERSE, THE GREATEST IS MAN.

                                    -- ARISTOTLE
 Job cpu time:       0 days 11 hours 22 minutes  2.6 seconds.
 Elapsed time:       0 days  0 hours 28 minutes 59.2 seconds.
 File lengths (MBytes):  RWF=  13225 Int=      0 D2E=      0 Chk=    574 Scr=      1
 Normal termination of Gaussian 16 at Sat Sep 11 17:47:51 2021.
