 Entering Gaussian System, Link 0=g16
 Initial command:
 /sw/apps/gaussian-16.0/g16/l1.exe "/tmp/Gau-15109.inp" -scrdir="/tmp/"
 Entering Link 1 = /sw/apps/gaussian-16.0/g16/l1.exe PID=     15110.
  
 Copyright (c) 1988,1990,1992,1993,1995,1998,2003,2009,2016,
            Gaussian, Inc.  All Rights Reserved.
  
 This is part of the Gaussian(R) 16 program.  It is based on
 the Gaussian(R) 09 system (copyright 2009, Gaussian, Inc.),
 the Gaussian(R) 03 system (copyright 2003, Gaussian, Inc.),
 the Gaussian(R) 98 system (copyright 1998, Gaussian, Inc.),
 the Gaussian(R) 94 system (copyright 1995, Gaussian, Inc.),
 the Gaussian 92(TM) system (copyright 1992, Gaussian, Inc.),
 the Gaussian 90(TM) system (copyright 1990, Gaussian, Inc.),
 the Gaussian 88(TM) system (copyright 1988, Gaussian, Inc.),
 the Gaussian 86(TM) system (copyright 1986, Carnegie Mellon
 University), and the Gaussian 82(TM) system (copyright 1983,
 Carnegie Mellon University). Gaussian is a federally registered
 trademark of Gaussian, Inc.
  
 This software contains proprietary and confidential information,
 including trade secrets, belonging to Gaussian, Inc.
  
 This software is provided under written license and may be
 used, copied, transmitted, or stored only in accord with that
 written license.
  
 The following legend is applicable only to US Government
 contracts under FAR:
  
                    RESTRICTED RIGHTS LEGEND
  
 Use, reproduction and disclosure by the US Government is
 subject to restrictions as set forth in subparagraphs (a)
 and (c) of the Commercial Computer Software - Restricted
 Rights clause in FAR 52.227-19.
  
 Gaussian, Inc.
 340 Quinnipiac St., Bldg. 40, Wallingford CT 06492
  
  
 ---------------------------------------------------------------
 Warning -- This program may not be used in any manner that
 competes with the business of Gaussian, Inc. or will provide
 assistance to any competitor of Gaussian, Inc.  The licensee
 of this program is prohibited from giving any competitor of
 Gaussian, Inc. access to this program.  By using this program,
 the user acknowledges that Gaussian, Inc. is engaged in the
 business of creating and licensing software in the field of
 computational chemistry and represents and warrants to the
 licensee that it is not a competitor of Gaussian, Inc. and that
 it will not use this program in any manner prohibited above.
 ---------------------------------------------------------------
  

 Cite this work as:
 Gaussian 16, Revision A.03,
 M. J. Frisch, G. W. Trucks, H. B. Schlegel, G. E. Scuseria, 
 M. A. Robb, J. R. Cheeseman, G. Scalmani, V. Barone, 
 G. A. Petersson, H. Nakatsuji, X. Li, M. Caricato, A. V. Marenich, 
 J. Bloino, B. G. Janesko, R. Gomperts, B. Mennucci, H. P. Hratchian, 
 J. V. Ortiz, A. F. Izmaylov, J. L. Sonnenberg, D. Williams-Young, 
 F. Ding, F. Lipparini, F. Egidi, J. Goings, B. Peng, A. Petrone, 
 T. Henderson, D. Ranasinghe, V. G. Zakrzewski, J. Gao, N. Rega, 
 G. Zheng, W. Liang, M. Hada, M. Ehara, K. Toyota, R. Fukuda, 
 J. Hasegawa, M. Ishida, T. Nakajima, Y. Honda, O. Kitao, H. Nakai, 
 T. Vreven, K. Throssell, J. A. Montgomery, Jr., J. E. Peralta, 
 F. Ogliaro, M. J. Bearpark, J. J. Heyd, E. N. Brothers, K. N. Kudin, 
 V. N. Staroverov, T. A. Keith, R. Kobayashi, J. Normand, 
 K. Raghavachari, A. P. Rendell, J. C. Burant, S. S. Iyengar, 
 J. Tomasi, M. Cossi, J. M. Millam, M. Klene, C. Adamo, R. Cammi, 
 J. W. Ochterski, R. L. Martin, K. Morokuma, O. Farkas, 
 J. B. Foresman, and D. J. Fox, Gaussian, Inc., Wallingford CT, 2016.
 
 ******************************************
 Gaussian 16:  ES64L-G16RevA.03 25-Dec-2016
                10-Sep-2021 
 ******************************************
 %nproc=24
 Will use up to   24 processors via shared memory.
 %mem=175gb
 -----------------------------------
 #p cam-b3lyp/Def2SVP td=(nstates=5)
 -----------------------------------
 1/38=1,172=1/1;
 2/12=2,17=6,18=5,40=1/2;
 3/5=43,7=101,11=9,25=1,30=1,74=-40/1,2,3,8;
 4//1;
 5/5=2,38=5/2;
 8/6=1,10=1,108=5/1;
 9/41=5,42=1,70=2/14;
 6/7=2,8=2,9=2,10=2/1;
 99/5=1,9=1/99;
 Leave Link    1 at Fri Sep 10 01:36:43 2021, MaxMem= 23488102400 cpu:               0.9 elap:               0.0
 (Enter /sw/apps/gaussian-16.0/g16/l101.exe)
 --------------------------------
 TDDFT excited states in gaussian
 --------------------------------
 Symbolic Z-matrix:
 Charge =  0 Multiplicity = 1
 Mg                    0.        0.        0. 
 C                    -0.217    -2.218     2.801 
 C                    -1.255     2.442     2.026 
 C                    -0.245     1.85     -2.564 
 C                     0.146    -2.824    -2.037 
 N                    -0.617    -0.009     2.126 
 C                    -0.594    -0.908     3.105 
 C                    -0.936    -0.309     4.502 
 C                    -1.773     0.964     4.032 
 C                    -1.155     1.168     2.66 
 C                    -3.263     0.685     3.863 
 C                     0.345     0.11      5.299 
 C                     0.124     0.397     6.787 
 H                     1.168     0.033     7.733 
 N                    -0.185     1.961    -0.152 
 C                    -0.703     2.8       0.777 
 C                    -0.62      4.156     0.193 
 C                    -0.187     4.015    -1.225 
 C                    -0.214     2.583    -1.38 
 C                    -0.887     5.406     0.974 
 C                     0.181     5.013    -2.277 
 O                     0.303     4.69     -3.508 
 C                     0.31      6.414    -1.837 
 N                    -0.265    -0.413    -2.029 
 C                    -0.279     0.569    -2.937 
 C                    -0.196     0.024    -4.332 
 C                     0.124    -1.533    -4.18 
 C                     0.086    -1.632    -2.635 
 C                    -1.451     0.205    -5.197 
 C                     1.373    -2.07     -4.923 
 C                     2.626    -1.49     -4.306 
 N                     0.15     -2.144     0.303 
 C                     0.173    -3.136    -0.688 
 C                     0.173    -4.438     0.004 
 C                     0.133    -4.111     1.358 
 C                     0.083    -2.695     1.502 
 C                     0.149    -5.715    -0.623 
 C                     0.096    -4.629     2.716 
 O                     0.208    -5.747     3.221 
 C                    -0.255    -3.428     3.701 
 C                     0.717    -3.482     4.848 
 O                     1.931    -3.255     4.669 
 O                     0.038    -3.556     6.003 
 C                     0.943    -3.583     7.183 
 H                    -1.859     3.22      2.497 
 H                    -0.218     2.453    -3.474 
 H                     0.276    -3.747    -2.605 
 H                    -1.554    -0.949     5.132 
 H                    -1.585     1.831     4.665 
 H                    -3.484    -0.377     3.969 
 H                    -3.511     1.027     2.858 
 H                    -3.852     1.301     4.543 
 H                     0.669     1.096     4.966 
 H                     1.13     -0.639     5.189 
 H                    -0.844     0.026     7.125 
 H                     0.062     1.477     6.921 
 H                    -1.344     5.186     1.938 
 H                    -1.651     5.963     0.432 
 H                     0.007     6.02      1.084 
 H                    -0.635     6.744    -1.405 
 H                     0.665     6.97     -2.704 
 H                     1.048     6.466    -1.036 
 H                     0.608     0.501    -4.891 
 H                    -0.692    -2.156    -4.547 
 H                    -1.267     0.74     -6.129 
 H                    -2.204     0.714    -4.596 
 H                    -1.967    -0.72     -5.453 
 H                     1.356    -1.759    -5.967 
 H                     1.452    -3.157    -4.902 
 H                     2.714    -0.522    -4.798 
 H                     3.487    -2.121    -4.529 
 H                     2.495    -1.303    -3.24 
 H                     0.867    -6.333    -0.084 
 H                     0.404    -5.642    -1.68 
 H                    -0.891    -5.999    -0.463 
 H                    -1.283    -3.581     4.028 
 H                     0.698    -4.478     7.755 
 H                     0.833    -2.619     7.68 
 H                     2.       -3.754     6.976 
 Mg                    8.94164   0.80383   0.68623 
 C                     7.13044  -0.85135   3.3052 
 C                     9.36391   3.41902   2.83497 
 C                     10.14607   2.46745  -1.73227 
 C                     7.42339  -1.38713  -1.55882 
 N                     8.28605   1.12394   2.77429 
 C                     7.65716   0.39988   3.68785 
 C                     7.65881   1.01828   5.11163 
 C                     7.86365   2.5582    4.70471 
 C                     8.58124   2.36505   3.37039 
 C                     6.55794   3.29039   4.44323 
 C                     8.84822   0.49316   5.99 
 C                     8.73636   0.81402   7.48208 
 H                     9.23468  -0.1653    8.44389 
 N                     10.06574   2.43937   0.68621 
 C                     10.1314   3.38164   1.65011 
 C                     11.08767   4.38837   1.16411 
 C                     11.45638   4.04732  -0.23676 
 C                     10.53431   2.95949  -0.49464 
 C                     11.62051   5.49062   2.03276 
 C                     12.46241   4.61567  -1.19127 
 O                     12.44823   4.32143  -2.43868 
 C                     13.40639   5.59892  -0.64024 
 N                     8.6472    0.71688  -1.37 
 C                     9.33538   1.51877  -2.20144 
 C                     9.16366   1.09007  -3.63919 
 C                     8.40857  -0.31846  -3.58025 
 C                     8.18534  -0.42231  -2.05553 
 C                     8.378     2.05148  -4.53072 
 C                     9.08476  -1.5106   -4.31117 
 C                     10.3708  -1.88376  -3.60957 
 N                     7.67865  -0.94317   0.8308 
 C                     7.13513  -1.69334  -0.23499 
 C                     6.2501   -2.71603   0.35934 
 C                     6.32275  -2.47325   1.73929 
 C                     7.17589  -1.36386   1.9861 
 C                     5.4782   -3.66936  -0.36279 
 C                     5.86337  -2.89648   3.04257 
 O                     5.19228  -3.8378    3.46363 
 C                     6.26625  -1.7857    4.10569 
 C                     6.88953  -2.47763   5.2869 
 O                     7.97111  -3.0799    5.16825 
 O                     6.22148  -2.13252   6.40268 
 C                     6.80933  -2.78518   7.6028 
 H                     9.35805   4.38152   3.34727 
 H                     10.6213   2.93712  -2.59659 
 H                     6.99059  -2.17007  -2.18521 
 H                     6.73205   0.89869   5.6599 
 H                     8.50817   3.07165   5.41345 
 H                     5.71058   2.62117   4.45916 
 H                     6.66477   3.74237   3.46581 
 H                     6.44294   4.11922   5.1476 
 H                     9.75403   1.06169   5.74296 
 H                     8.98329  -0.56258   5.85655 
 H                     7.72774   1.14488   7.75806 
 H                     9.37045   1.67684   7.69997 
 H                     11.04353   5.58593   2.96088 
 H                     11.4392   6.43172   1.50237 
 H                     12.69105   5.39445   2.22603 
 H                     12.8527   6.43673  -0.22315 
 H                     14.1021   5.8225   -1.45133 
 H                     13.94901   5.13518   0.1911 
 H                     10.1248   0.95372  -4.11951 
 H                     7.4112   -0.26569  -4.041 
 H                     8.94409   2.38125  -5.42228 
 H                     8.07863   2.90286  -3.93401 
 H                     7.42219   1.67268  -4.88868 
 H                     9.35861  -1.22429  -5.3296 
 H                     8.4516   -2.38865  -4.38271 
 H                     11.09268  -1.17313  -4.02307 
 H                     10.64981  -2.90969  -3.84125 
 H                     10.30094  -1.69346  -2.53228 
 H                     5.58875  -4.61415   0.15263 
 H                     5.80233  -3.74056  -1.39895 
 H                     4.48405  -3.22334  -0.2734 
 H                     5.35714  -1.24853   4.37874 
 H                     6.00115  -3.33394   8.09616 
 H                     7.2914   -1.9729    8.17862 
 H                     7.53278  -3.57542   7.43977 
 
 ITRead=  0  0  0  0  0  0  0  0  0  0  0  0  0  0  0  0  0  0  0  0
 ITRead=  0  0  0  0  0  0  0  0  0  0  0  0  0  0  0  0  0  0  0  0
 ITRead=  0  0  0  0  0  0  0  0  0  0  0  0  0  0  0  0  0  0  0  0
 ITRead=  0  0  0  0  0  0  0  0  0  0  0  0  0  0  0  0  0  0  0  0
 ITRead=  0  0  0  0  0  0  0  0  0  0  0  0  0  0  0  0  0  0  0  0
 ITRead=  0  0  0  0  0  0  0  0  0  0  0  0  0  0  0  0  0  0  0  0
 ITRead=  0  0  0  0  0  0  0  0  0  0  0  0  0  0  0  0  0  0  0  0
 ITRead=  0  0  0  0  0  0  0  0  0  0  0  0  0  0  0  0  0  0
 MicOpt= -1 -1 -1 -1 -1 -1 -1 -1 -1 -1 -1 -1 -1 -1 -1 -1 -1 -1 -1 -1
 MicOpt= -1 -1 -1 -1 -1 -1 -1 -1 -1 -1 -1 -1 -1 -1 -1 -1 -1 -1 -1 -1
 MicOpt= -1 -1 -1 -1 -1 -1 -1 -1 -1 -1 -1 -1 -1 -1 -1 -1 -1 -1 -1 -1
 MicOpt= -1 -1 -1 -1 -1 -1 -1 -1 -1 -1 -1 -1 -1 -1 -1 -1 -1 -1 -1 -1
 MicOpt= -1 -1 -1 -1 -1 -1 -1 -1 -1 -1 -1 -1 -1 -1 -1 -1 -1 -1 -1 -1
 MicOpt= -1 -1 -1 -1 -1 -1 -1 -1 -1 -1 -1 -1 -1 -1 -1 -1 -1 -1 -1 -1
 MicOpt= -1 -1 -1 -1 -1 -1 -1 -1 -1 -1 -1 -1 -1 -1 -1 -1 -1 -1 -1 -1
 MicOpt= -1 -1 -1 -1 -1 -1 -1 -1 -1 -1 -1 -1 -1 -1 -1 -1 -1 -1
 NAtoms=    158 NQM=      158 NQMF=       0 NMMI=      0 NMMIF=      0
                NMic=       0 NMicF=      0.
                    Isotopes and Nuclear Properties:
 (Nuclear quadrupole moments (NQMom) in fm**2, nuclear magnetic moments (NMagM)
  in nuclear magnetons)

  Atom         1           2           3           4           5           6           7           8           9          10
 IAtWgt=          24          12          12          12          12          14          12          12          12          12
 AtmWgt=  23.9850450  12.0000000  12.0000000  12.0000000  12.0000000  14.0030740  12.0000000  12.0000000  12.0000000  12.0000000
 NucSpn=           0           0           0           0           0           2           0           0           0           0
 AtZEff=  -0.0000000  -0.0000000  -0.0000000  -0.0000000  -0.0000000  -0.0000000  -0.0000000  -0.0000000  -0.0000000  -0.0000000
 NQMom=    0.0000000   0.0000000   0.0000000   0.0000000   0.0000000   2.0440000   0.0000000   0.0000000   0.0000000   0.0000000
 NMagM=    0.0000000   0.0000000   0.0000000   0.0000000   0.0000000   0.4037610   0.0000000   0.0000000   0.0000000   0.0000000
 AtZNuc=  12.0000000   6.0000000   6.0000000   6.0000000   6.0000000   7.0000000   6.0000000   6.0000000   6.0000000   6.0000000

  Atom        11          12          13          14          15          16          17          18          19          20
 IAtWgt=          12          12          12           1          14          12          12          12          12          12
 AtmWgt=  12.0000000  12.0000000  12.0000000   1.0078250  14.0030740  12.0000000  12.0000000  12.0000000  12.0000000  12.0000000
 NucSpn=           0           0           0           1           2           0           0           0           0           0
 AtZEff=  -0.0000000  -0.0000000  -0.0000000  -0.0000000  -0.0000000  -0.0000000  -0.0000000  -0.0000000  -0.0000000  -0.0000000
 NQMom=    0.0000000   0.0000000   0.0000000   0.0000000   2.0440000   0.0000000   0.0000000   0.0000000   0.0000000   0.0000000
 NMagM=    0.0000000   0.0000000   0.0000000   2.7928460   0.4037610   0.0000000   0.0000000   0.0000000   0.0000000   0.0000000
 AtZNuc=   6.0000000   6.0000000   6.0000000   1.0000000   7.0000000   6.0000000   6.0000000   6.0000000   6.0000000   6.0000000

  Atom        21          22          23          24          25          26          27          28          29          30
 IAtWgt=          12          16          12          14          12          12          12          12          12          12
 AtmWgt=  12.0000000  15.9949146  12.0000000  14.0030740  12.0000000  12.0000000  12.0000000  12.0000000  12.0000000  12.0000000
 NucSpn=           0           0           0           2           0           0           0           0           0           0
 AtZEff=  -0.0000000  -0.0000000  -0.0000000  -0.0000000  -0.0000000  -0.0000000  -0.0000000  -0.0000000  -0.0000000  -0.0000000
 NQMom=    0.0000000   0.0000000   0.0000000   2.0440000   0.0000000   0.0000000   0.0000000   0.0000000   0.0000000   0.0000000
 NMagM=    0.0000000   0.0000000   0.0000000   0.4037610   0.0000000   0.0000000   0.0000000   0.0000000   0.0000000   0.0000000
 AtZNuc=   6.0000000   8.0000000   6.0000000   7.0000000   6.0000000   6.0000000   6.0000000   6.0000000   6.0000000   6.0000000

  Atom        31          32          33          34          35          36          37          38          39          40
 IAtWgt=          12          14          12          12          12          12          12          12          16          12
 AtmWgt=  12.0000000  14.0030740  12.0000000  12.0000000  12.0000000  12.0000000  12.0000000  12.0000000  15.9949146  12.0000000
 NucSpn=           0           2           0           0           0           0           0           0           0           0
 AtZEff=  -0.0000000  -0.0000000  -0.0000000  -0.0000000  -0.0000000  -0.0000000  -0.0000000  -0.0000000  -0.0000000  -0.0000000
 NQMom=    0.0000000   2.0440000   0.0000000   0.0000000   0.0000000   0.0000000   0.0000000   0.0000000   0.0000000   0.0000000
 NMagM=    0.0000000   0.4037610   0.0000000   0.0000000   0.0000000   0.0000000   0.0000000   0.0000000   0.0000000   0.0000000
 AtZNuc=   6.0000000   7.0000000   6.0000000   6.0000000   6.0000000   6.0000000   6.0000000   6.0000000   8.0000000   6.0000000

  Atom        41          42          43          44          45          46          47          48          49          50
 IAtWgt=          12          16          16          12           1           1           1           1           1           1
 AtmWgt=  12.0000000  15.9949146  15.9949146  12.0000000   1.0078250   1.0078250   1.0078250   1.0078250   1.0078250   1.0078250
 NucSpn=           0           0           0           0           1           1           1           1           1           1
 AtZEff=  -0.0000000  -0.0000000  -0.0000000  -0.0000000  -0.0000000  -0.0000000  -0.0000000  -0.0000000  -0.0000000  -0.0000000
 NQMom=    0.0000000   0.0000000   0.0000000   0.0000000   0.0000000   0.0000000   0.0000000   0.0000000   0.0000000   0.0000000
 NMagM=    0.0000000   0.0000000   0.0000000   0.0000000   2.7928460   2.7928460   2.7928460   2.7928460   2.7928460   2.7928460
 AtZNuc=   6.0000000   8.0000000   8.0000000   6.0000000   1.0000000   1.0000000   1.0000000   1.0000000   1.0000000   1.0000000

  Atom        51          52          53          54          55          56          57          58          59          60
 IAtWgt=           1           1           1           1           1           1           1           1           1           1
 AtmWgt=   1.0078250   1.0078250   1.0078250   1.0078250   1.0078250   1.0078250   1.0078250   1.0078250   1.0078250   1.0078250
 NucSpn=           1           1           1           1           1           1           1           1           1           1
 AtZEff=  -0.0000000  -0.0000000  -0.0000000  -0.0000000  -0.0000000  -0.0000000  -0.0000000  -0.0000000  -0.0000000  -0.0000000
 NQMom=    0.0000000   0.0000000   0.0000000   0.0000000   0.0000000   0.0000000   0.0000000   0.0000000   0.0000000   0.0000000
 NMagM=    2.7928460   2.7928460   2.7928460   2.7928460   2.7928460   2.7928460   2.7928460   2.7928460   2.7928460   2.7928460
 AtZNuc=   1.0000000   1.0000000   1.0000000   1.0000000   1.0000000   1.0000000   1.0000000   1.0000000   1.0000000   1.0000000

  Atom        61          62          63          64          65          66          67          68          69          70
 IAtWgt=           1           1           1           1           1           1           1           1           1           1
 AtmWgt=   1.0078250   1.0078250   1.0078250   1.0078250   1.0078250   1.0078250   1.0078250   1.0078250   1.0078250   1.0078250
 NucSpn=           1           1           1           1           1           1           1           1           1           1
 AtZEff=  -0.0000000  -0.0000000  -0.0000000  -0.0000000  -0.0000000  -0.0000000  -0.0000000  -0.0000000  -0.0000000  -0.0000000
 NQMom=    0.0000000   0.0000000   0.0000000   0.0000000   0.0000000   0.0000000   0.0000000   0.0000000   0.0000000   0.0000000
 NMagM=    2.7928460   2.7928460   2.7928460   2.7928460   2.7928460   2.7928460   2.7928460   2.7928460   2.7928460   2.7928460
 AtZNuc=   1.0000000   1.0000000   1.0000000   1.0000000   1.0000000   1.0000000   1.0000000   1.0000000   1.0000000   1.0000000

  Atom        71          72          73          74          75          76          77          78          79          80
 IAtWgt=           1           1           1           1           1           1           1           1           1          24
 AtmWgt=   1.0078250   1.0078250   1.0078250   1.0078250   1.0078250   1.0078250   1.0078250   1.0078250   1.0078250  23.9850450
 NucSpn=           1           1           1           1           1           1           1           1           1           0
 AtZEff=  -0.0000000  -0.0000000  -0.0000000  -0.0000000  -0.0000000  -0.0000000  -0.0000000  -0.0000000  -0.0000000  -0.0000000
 NQMom=    0.0000000   0.0000000   0.0000000   0.0000000   0.0000000   0.0000000   0.0000000   0.0000000   0.0000000   0.0000000
 NMagM=    2.7928460   2.7928460   2.7928460   2.7928460   2.7928460   2.7928460   2.7928460   2.7928460   2.7928460   0.0000000
 AtZNuc=   1.0000000   1.0000000   1.0000000   1.0000000   1.0000000   1.0000000   1.0000000   1.0000000   1.0000000  12.0000000

  Atom        81          82          83          84          85          86          87          88          89          90
 IAtWgt=          12          12          12          12          14          12          12          12          12          12
 AtmWgt=  12.0000000  12.0000000  12.0000000  12.0000000  14.0030740  12.0000000  12.0000000  12.0000000  12.0000000  12.0000000
 NucSpn=           0           0           0           0           2           0           0           0           0           0
 AtZEff=  -0.0000000  -0.0000000  -0.0000000  -0.0000000  -0.0000000  -0.0000000  -0.0000000  -0.0000000  -0.0000000  -0.0000000
 NQMom=    0.0000000   0.0000000   0.0000000   0.0000000   2.0440000   0.0000000   0.0000000   0.0000000   0.0000000   0.0000000
 NMagM=    0.0000000   0.0000000   0.0000000   0.0000000   0.4037610   0.0000000   0.0000000   0.0000000   0.0000000   0.0000000
 AtZNuc=   6.0000000   6.0000000   6.0000000   6.0000000   7.0000000   6.0000000   6.0000000   6.0000000   6.0000000   6.0000000

  Atom        91          92          93          94          95          96          97          98          99         100
 IAtWgt=          12          12           1          14          12          12          12          12          12          12
 AtmWgt=  12.0000000  12.0000000   1.0078250  14.0030740  12.0000000  12.0000000  12.0000000  12.0000000  12.0000000  12.0000000
 NucSpn=           0           0           1           2           0           0           0           0           0           0
 AtZEff=  -0.0000000  -0.0000000  -0.0000000  -0.0000000  -0.0000000  -0.0000000  -0.0000000  -0.0000000  -0.0000000  -0.0000000
 NQMom=    0.0000000   0.0000000   0.0000000   2.0440000   0.0000000   0.0000000   0.0000000   0.0000000   0.0000000   0.0000000
 NMagM=    0.0000000   0.0000000   2.7928460   0.4037610   0.0000000   0.0000000   0.0000000   0.0000000   0.0000000   0.0000000
 AtZNuc=   6.0000000   6.0000000   1.0000000   7.0000000   6.0000000   6.0000000   6.0000000   6.0000000   6.0000000   6.0000000

  Atom       101         102         103         104         105         106         107         108         109         110
 IAtWgt=          16          12          14          12          12          12          12          12          12          12
 AtmWgt=  15.9949146  12.0000000  14.0030740  12.0000000  12.0000000  12.0000000  12.0000000  12.0000000  12.0000000  12.0000000
 NucSpn=           0           0           2           0           0           0           0           0           0           0
 AtZEff=  -0.0000000  -0.0000000  -0.0000000  -0.0000000  -0.0000000  -0.0000000  -0.0000000  -0.0000000  -0.0000000  -0.0000000
 NQMom=    0.0000000   0.0000000   2.0440000   0.0000000   0.0000000   0.0000000   0.0000000   0.0000000   0.0000000   0.0000000
 NMagM=    0.0000000   0.0000000   0.4037610   0.0000000   0.0000000   0.0000000   0.0000000   0.0000000   0.0000000   0.0000000
 AtZNuc=   8.0000000   6.0000000   7.0000000   6.0000000   6.0000000   6.0000000   6.0000000   6.0000000   6.0000000   6.0000000

  Atom       111         112         113         114         115         116         117         118         119         120
 IAtWgt=          14          12          12          12          12          12          12          16          12          12
 AtmWgt=  14.0030740  12.0000000  12.0000000  12.0000000  12.0000000  12.0000000  12.0000000  15.9949146  12.0000000  12.0000000
 NucSpn=           2           0           0           0           0           0           0           0           0           0
 AtZEff=  -0.0000000  -0.0000000  -0.0000000  -0.0000000  -0.0000000  -0.0000000  -0.0000000  -0.0000000  -0.0000000  -0.0000000
 NQMom=    2.0440000   0.0000000   0.0000000   0.0000000   0.0000000   0.0000000   0.0000000   0.0000000   0.0000000   0.0000000
 NMagM=    0.4037610   0.0000000   0.0000000   0.0000000   0.0000000   0.0000000   0.0000000   0.0000000   0.0000000   0.0000000
 AtZNuc=   7.0000000   6.0000000   6.0000000   6.0000000   6.0000000   6.0000000   6.0000000   8.0000000   6.0000000   6.0000000

  Atom       121         122         123         124         125         126         127         128         129         130
 IAtWgt=          16          16          12           1           1           1           1           1           1           1
 AtmWgt=  15.9949146  15.9949146  12.0000000   1.0078250   1.0078250   1.0078250   1.0078250   1.0078250   1.0078250   1.0078250
 NucSpn=           0           0           0           1           1           1           1           1           1           1
 AtZEff=  -0.0000000  -0.0000000  -0.0000000  -0.0000000  -0.0000000  -0.0000000  -0.0000000  -0.0000000  -0.0000000  -0.0000000
 NQMom=    0.0000000   0.0000000   0.0000000   0.0000000   0.0000000   0.0000000   0.0000000   0.0000000   0.0000000   0.0000000
 NMagM=    0.0000000   0.0000000   0.0000000   2.7928460   2.7928460   2.7928460   2.7928460   2.7928460   2.7928460   2.7928460
 AtZNuc=   8.0000000   8.0000000   6.0000000   1.0000000   1.0000000   1.0000000   1.0000000   1.0000000   1.0000000   1.0000000

  Atom       131         132         133         134         135         136         137         138         139         140
 IAtWgt=           1           1           1           1           1           1           1           1           1           1
 AtmWgt=   1.0078250   1.0078250   1.0078250   1.0078250   1.0078250   1.0078250   1.0078250   1.0078250   1.0078250   1.0078250
 NucSpn=           1           1           1           1           1           1           1           1           1           1
 AtZEff=  -0.0000000  -0.0000000  -0.0000000  -0.0000000  -0.0000000  -0.0000000  -0.0000000  -0.0000000  -0.0000000  -0.0000000
 NQMom=    0.0000000   0.0000000   0.0000000   0.0000000   0.0000000   0.0000000   0.0000000   0.0000000   0.0000000   0.0000000
 NMagM=    2.7928460   2.7928460   2.7928460   2.7928460   2.7928460   2.7928460   2.7928460   2.7928460   2.7928460   2.7928460
 AtZNuc=   1.0000000   1.0000000   1.0000000   1.0000000   1.0000000   1.0000000   1.0000000   1.0000000   1.0000000   1.0000000

  Atom       141         142         143         144         145         146         147         148         149         150
 IAtWgt=           1           1           1           1           1           1           1           1           1           1
 AtmWgt=   1.0078250   1.0078250   1.0078250   1.0078250   1.0078250   1.0078250   1.0078250   1.0078250   1.0078250   1.0078250
 NucSpn=           1           1           1           1           1           1           1           1           1           1
 AtZEff=  -0.0000000  -0.0000000  -0.0000000  -0.0000000  -0.0000000  -0.0000000  -0.0000000  -0.0000000  -0.0000000  -0.0000000
 NQMom=    0.0000000   0.0000000   0.0000000   0.0000000   0.0000000   0.0000000   0.0000000   0.0000000   0.0000000   0.0000000
 NMagM=    2.7928460   2.7928460   2.7928460   2.7928460   2.7928460   2.7928460   2.7928460   2.7928460   2.7928460   2.7928460
 AtZNuc=   1.0000000   1.0000000   1.0000000   1.0000000   1.0000000   1.0000000   1.0000000   1.0000000   1.0000000   1.0000000

  Atom       151         152         153         154         155         156         157         158
 IAtWgt=           1           1           1           1           1           1           1           1
 AtmWgt=   1.0078250   1.0078250   1.0078250   1.0078250   1.0078250   1.0078250   1.0078250   1.0078250
 NucSpn=           1           1           1           1           1           1           1           1
 AtZEff=  -0.0000000  -0.0000000  -0.0000000  -0.0000000  -0.0000000  -0.0000000  -0.0000000  -0.0000000
 NQMom=    0.0000000   0.0000000   0.0000000   0.0000000   0.0000000   0.0000000   0.0000000   0.0000000
 NMagM=    2.7928460   2.7928460   2.7928460   2.7928460   2.7928460   2.7928460   2.7928460   2.7928460
 AtZNuc=   1.0000000   1.0000000   1.0000000   1.0000000   1.0000000   1.0000000   1.0000000   1.0000000
 Leave Link  101 at Fri Sep 10 01:36:44 2021, MaxMem= 23488102400 cpu:               3.8 elap:               0.2
 (Enter /sw/apps/gaussian-16.0/g16/l202.exe)
 Stoichiometry    C68H72Mg2N8O8
 Framework group  C1[X(C68H72Mg2N8O8)]
 Deg. of freedom   468
 Full point group                 C1      NOp   1
 Largest Abelian subgroup         C1      NOp   1
 Largest concise Abelian subgroup C1      NOp   1
                         Standard orientation:                         
 ---------------------------------------------------------------------
 Center     Atomic      Atomic             Coordinates (Angstroms)
 Number     Number       Type             X           Y           Z
 ---------------------------------------------------------------------
      1         12           0        4.008973   -1.602494    0.509679
      2          6           0        5.021101    1.713568   -0.380007
      3          6           0        4.694016   -0.782103    3.750164
      4          6           0        3.557265   -4.649734    1.262616
      5          6           0        4.491280   -2.486156   -2.826814
      6          7           0        4.755699    0.261703    1.441244
      7          6           0        5.048272    1.479875    0.996690
      8          6           0        5.313517    2.506842    2.137899
      9          6           0        5.736771    1.494252    3.294409
     10          6           0        4.990014    0.259503    2.821469
     11          6           0        7.230406    1.186018    3.317834
     12          6           0        4.027314    3.312097    2.523873
     13          6           0        4.267836    4.550869    3.391599
     14          1           0        3.432734    5.724245    3.183896
     15          7           0        3.642158   -2.449889    2.256166
     16          6           0        3.977505   -1.967328    3.476806
     17          6           0        3.487169   -2.960521    4.456509
     18          6           0        3.008501   -4.149639    3.698241
     19          6           0        3.412872   -3.803569    2.359549
     20          6           0        3.459250   -2.714558    5.933829
     21          6           0        2.308560   -5.404218    4.115667
     22          8           0        2.191231   -6.409669    3.334721
     23          6           0        1.835143   -5.459328    5.510615
     24          7           0        4.230376   -3.378572   -0.564641
     25          6           0        3.911670   -4.558276   -0.020848
     26          6           0        3.880419   -5.645178   -1.054098
     27          6           0        4.007784   -4.914583   -2.468228
     28          6           0        4.181781   -3.459566   -1.967308
     29          6           0        4.973583   -6.715796   -0.932512
     30          6           0        2.902113   -5.207629   -3.513233
     31          6           0        1.586096   -4.628830   -3.043991
     32          7           0        4.469968   -0.558346   -1.336474
     33          6           0        4.646815   -1.127922   -2.605719
     34          6           0        5.050545   -0.039748   -3.515087
     35          6           0        5.096901    1.091612   -2.702855
     36          6           0        4.769986    0.728065   -1.365226
     37          6           0        5.376083   -0.182639   -4.892781
     38          6           0        5.370536    2.518523   -2.648941
     39          8           0        5.603347    3.389174   -3.488737
     40          6           0        5.451159    2.955829   -1.119859
     41          6           0        4.615207    4.195995   -0.957126
     42          8           0        3.375661    4.154693   -1.095643
     43          8           0        5.369601    5.175298   -0.435209
     44          6           0        4.592961    6.425472   -0.220621
     45          1           0        5.095699   -0.715925    4.763185
     46          1           0        3.302174   -5.693773    1.455874
     47          1           0        4.576959   -2.670938   -3.899179
     48          1           0        6.125766    3.206491    1.939990
     49          1           0        5.365821    1.811385    4.268855
     50          1           0        7.738973    1.613282    2.453702
     51          1           0        7.303411    0.098383    3.303191
     52          1           0        7.676726    1.503620    4.260545
     53          1           0        3.424331    2.718508    3.210986
     54          1           0        3.469893    3.599563    1.631701
     55          1           0        5.321870    4.829698    3.404819
     56          1           0        4.043125    4.291937    4.426326
     57          1           0        4.026653   -1.824356    6.202415
     58          1           0        4.002076   -3.534616    6.403460
     59          1           0        2.442193   -2.675660    6.324231
     60          1           0        2.683137   -5.331536    6.183760
     61          1           0        1.281160   -6.392776    5.603496
     62          1           0        1.170137   -4.614330    5.691437
     63          1           0        2.939107   -6.192040   -1.018067
     64          1           0        4.934041   -5.174786   -2.981079
     65          1           0        4.584755   -7.730546   -0.844199
     66          1           0        5.600733   -6.461609   -0.078485
     67          1           0        5.702055   -6.719334   -1.742902
     68          1           0        2.759087   -6.282104   -3.622747
     69          1           0        3.123510   -4.800267   -4.499788
     70          1           0        1.203097   -5.402422   -2.379386
     71          1           0        0.915554   -4.473770   -3.889887
     72          1           0        1.737246   -3.730408   -2.445261
     73          1           0        4.893779    0.648015   -5.407919
     74          1           0        5.035854   -1.141730   -5.282643
     75          1           0        6.462800   -0.110236   -4.852051
     76          1           0        6.502679    3.139332   -0.901331
     77          1           0        5.112489    7.221630   -0.753968
     78          1           0        4.471854    6.533864    0.857335
     79          1           0        3.610343    6.469369   -0.691654
     80         12           0       -4.741154    0.244439   -0.536307
     81          6           0       -2.365338    2.932606   -0.627572
     82          6           0       -5.703982    1.398025    2.525852
     83          6           0       -6.522647   -2.362572   -0.224536
     84          6           0       -2.848903   -1.327040   -3.005208
     85          7           0       -4.049643    1.953681    0.685400
     86          6           0       -3.183778    2.942442    0.521119
     87          6           0       -3.251666    4.044729    1.611955
     88          6           0       -3.896280    3.172005    2.795900
     89          6           0       -4.627868    2.125598    1.957770
     90          6           0       -2.861195    2.460396    3.651215
     91          6           0       -4.187317    5.235418    1.201108
     92          6           0       -4.060448    6.484473    2.076055
     93          1           0       -4.203383    7.793675    1.445160
     94          7           0       -6.264792   -0.132174    0.678305
     95          6           0       -6.515131    0.444290    1.872585
     96          6           0       -7.741446   -0.192411    2.377480
     97          6           0       -8.102772   -1.307442    1.460502
     98          6           0       -6.940466   -1.324247    0.595140
     99          6           0       -8.490440    0.318763    3.573781
    100          6           0       -9.291121   -2.217489    1.384023
    101          8           0       -9.286766   -3.270710    0.653601
    102          6           0      -10.425018   -1.890171    2.260752
    103          7           0       -4.582147   -1.674121   -1.321278
    104          6           0       -5.520202   -2.603977   -1.069617
    105          6           0       -5.341716   -3.812921   -1.956744
    106          6           0       -4.229725   -3.398654   -3.028868
    107          6           0       -3.878109   -1.991569   -2.497959
    108          6           0       -4.913141   -5.098912   -1.250383
    109          6           0       -4.606628   -3.550111   -4.528094
    110          6           0       -5.689001   -2.559007   -4.890823
    111          7           0       -3.043566    0.769867   -1.765197
    112          6           0       -2.394214   -0.046594   -2.716939
    113          6           0       -1.224166    0.707554   -3.211560
    114          6           0       -1.261143    1.910699   -2.490757
    115          6           0       -2.363960    1.898357   -1.594570
    116          6           0       -0.275789    0.240542   -4.164776
    117          6           0       -0.611882    3.183992   -2.276570
    118          8           0        0.318326    3.785677   -2.811758
    119          6           0       -1.224562    3.850210   -0.969992
    120          6           0       -1.549886    5.283819   -1.288475
    121          8           0       -2.432446    5.562129   -2.119290
    122          8           0       -0.922820    6.084208   -0.407270
    123          6           0       -1.223473    7.515840   -0.675329
    124          1           0       -5.923520    1.538423    3.584617
    125          1           0       -7.168328   -3.243742   -0.235451
    126          1           0       -2.265431   -1.707848   -3.846173
    127          1           0       -2.290547    4.437985    1.920801
    128          1           0       -4.603716    3.757090    3.377759
    129          1           0       -1.864858    2.564641    3.248010
    130          1           0       -3.156636    1.419453    3.665343
    131          1           0       -2.925888    2.806122    4.686884
    132          1           0       -5.228897    4.962142    1.413661
    133          1           0       -4.039286    5.498671    0.171824
    134          1           0       -3.162805    6.457240    2.705693
    135          1           0       -4.888055    6.493927    2.789485
    136          1           0       -7.896246    1.047106    4.139330
    137          1           0       -8.610433   -0.525899    4.260806
    138          1           0       -9.477755    0.708870    3.317493
    139          1           0      -10.091743   -1.886031    3.295823
    140          1           0      -11.211520   -2.600573    1.998813
    141          1           0      -10.760060   -0.871881    2.033926
    142          1           0       -6.261338   -4.049429   -2.477751
    143          1           0       -3.319967   -4.008691   -2.928781
    144          1           0       -5.609905   -5.941865   -1.417821
    145          1           0       -4.814750   -4.891140   -0.193178
    146          1           0       -3.918504   -5.458264   -1.508763
    147          1           0       -5.020213   -4.543980   -4.716081
    148          1           0       -3.765294   -3.418966   -5.200359
    149          1           0       -6.604650   -3.065702   -4.571552
    150          1           0       -5.694239   -2.372786   -5.962900
    151          1           0       -5.596611   -1.641103   -4.298737
    152          1           0       -0.087960    1.060855   -4.844712
    153          1           0       -0.641636   -0.638057   -4.692011
    154          1           0        0.563283    0.003649   -3.505155
    155          1           0       -0.478745    3.765719   -0.178660
    156          1           0       -0.263327    8.026112   -0.799577
    157          1           0       -1.865827    7.848028    0.161804
    158          1           0       -1.714407    7.758281   -1.610554
 ---------------------------------------------------------------------
 Rotational constants (GHZ):           0.0228253           0.0148953           0.0124825
 Leave Link  202 at Fri Sep 10 01:36:44 2021, MaxMem= 23488102400 cpu:               0.2 elap:               0.0
 (Enter /sw/apps/gaussian-16.0/g16/l301.exe)
 Standard basis: def2SVP (5D, 7F)
 Ernie: Thresh=  0.10000D-02 Tol=  0.10000D-05 Strict=F.
 There are  1658 symmetry adapted cartesian basis functions of A   symmetry.
 There are  1572 symmetry adapted basis functions of A   symmetry.
  1572 basis functions,  2678 primitive gaussians,  1658 cartesian basis functions
   312 alpha electrons      312 beta electrons
       nuclear repulsion energy     15782.9343522595 Hartrees.
 IExCor=20419 DFT=T Ex+Corr=CAM-B3LYP ExCW=0 ScaHFX=  1.000000
 ScaDFX=  1.000000  1.000000  1.000000  0.810000 ScalE2=  1.000000  1.000000
 IRadAn=      5 IRanWt=     -1 IRanGd=            0 ICorTp=0 IEmpDi=  4
 HFx  wShort=  0.000000 wLong=  0.330000 cFull=  0.190000 cShort=  0.000000 cLong=  0.460000
 DFx  wShort=  0.000000 wLong=  0.330000 cFull=  0.190000 cShort=  0.000000 cLong=  0.460000
 NAtoms=  158 NActive=  158 NUniq=  158 SFac= 1.00D+00 NAtFMM=   60 NAOKFM=T Big=T
 Integral buffers will be    131072 words long.
 Raffenetti 1 integral format.
 Two-electron integral symmetry is turned on.
 Leave Link  301 at Fri Sep 10 01:36:44 2021, MaxMem= 23488102400 cpu:               1.4 elap:               0.1
 (Enter /sw/apps/gaussian-16.0/g16/l302.exe)
 NPDir=0 NMtPBC=     1 NCelOv=     1 NCel=       1 NClECP=     1 NCelD=      1
         NCelK=      1 NCelE2=     1 NClLst=     1 CellRange=     0.0.
 One-electron integrals computed using PRISM.
 One-electron integral symmetry used in STVInt
   1 Symmetry operations used in ECPInt.
 ECPInt:  NShTT=  271216 NPrTT=  987664 LenC2=  157445 LenP2D=  330247.
 LDataN:  DoStor=T MaxTD1= 4 Len=   56
 NBasis=  1572 RedAO= T EigKep=  3.36D-04  NBF=  1572
 NBsUse=  1572 1.00D-06 EigRej= -1.00D+00 NBFU=  1572
 Precomputing XC quadrature grid using
 IXCGrd= 4 IRadAn=           5 IRanWt=          -1 IRanGd=           0 AccXCQ= 0.00D+00.
 Generated NRdTot=       0 NPtTot=           0 NUsed=           0 NTot=          32
 NSgBfM=  1252  1245  1252  1252  1252 MxSgAt=   158 MxSgA2=   158.
 Leave Link  302 at Fri Sep 10 01:36:49 2021, MaxMem= 23488102400 cpu:             131.8 elap:               5.5
 (Enter /sw/apps/gaussian-16.0/g16/l303.exe)
 DipDrv:  MaxL=1.
 Leave Link  303 at Fri Sep 10 01:36:50 2021, MaxMem= 23488102400 cpu:              10.0 elap:               0.5
 (Enter /sw/apps/gaussian-16.0/g16/l308.exe)
 Leave Link  308 at Fri Sep 10 01:36:50 2021, MaxMem= 23488102400 cpu:              14.7 elap:               0.7
 (Enter /sw/apps/gaussian-16.0/g16/l401.exe)
 ExpMin= 3.36D-02 ExpMax= 4.95D+03 ExpMxC= 7.45D+02 IAcc=3 IRadAn=         5 AccDes= 0.00D+00
 Harris functional with IExCor=20419 and IRadAn=       5 diagonalized for initial guess.
 HarFok:  IExCor=20419 AccDes= 0.00D+00 IRadAn=         5 IDoV= 1 UseB2=F ITyADJ=14
 ICtDFT=  3500011 ScaDFX=  1.000000  1.000000  1.000000  1.000000
 FoFCou: FMM=F IPFlag=           0 FMFlag=      100000 FMFlg1=        2001
         NFxFlg=           0 DoJE=T BraDBF=F KetDBF=T FulRan=T
         wScrn=  0.000000 ICntrl=       500 IOpCl=  0 I1Cent=   200000004 NGrid=           0
         NMat0=    1 NMatS0=      1 NMatT0=    0 NMatD0=    1 NMtDS0=    0 NMtDT0=    0
 Petite list used in FoFCou.
 Harris En= -3918.65929183152    
 JPrj=0 DoOrth=F DoCkMO=F.
 Leave Link  401 at Fri Sep 10 01:36:59 2021, MaxMem= 23488102400 cpu:             194.5 elap:               8.1
 (Enter /sw/apps/gaussian-16.0/g16/l502.exe)
 Integral symmetry usage will be decided dynamically.
 Closed shell SCF:
 Using DIIS extrapolation, IDIIS=  1040.
 NGot= 23488102400 LenX= 23482547354 LenY= 23479796732
 Requested convergence on RMS density matrix=1.00D-08 within 128 cycles.
 Requested convergence on MAX density matrix=1.00D-06.
 Requested convergence on             energy=1.00D-06.
 No special actions if energy rises.
 Fock matrices will be formed incrementally for  20 cycles.

 Cycle   1  Pass 1  IDiag  1:
 FoFJK:  IHMeth= 1 ICntrl=       0 DoSepK=T KAlg= 0 I1Cent=           0 FoldK=F
 IRaf=         1 NMat=       1 IRICut=       1 DoRegI=T DoRafI=F ISym2E= 0 IDoP0=0 IntGTp=1.
 FoFCou: FMM=T IPFlag=           0 FMFlag=      100000 FMFlg1=        2001
         NFxFlg=           0 DoJE=T BraDBF=F KetDBF=F FulRan=T
         wScrn=  0.000000 ICntrl=       500 IOpCl=  0 I1Cent=           0 NGrid=           0
         NMat0=    1 NMatS0=      1 NMatT0=    0 NMatD0=    1 NMtDS0=    0 NMtDT0=    0
 Symmetry not used in FoFCou.
 FMM levels:  10  Number of levels for PrismC:   9
 E= -4068.94120771008    
 DIIS: error= 2.04D-02 at cycle   1 NSaved=   1.
 NSaved= 1 IEnMin= 1 EnMin= -4068.94120771008     IErMin= 1 ErrMin= 2.04D-02
 ErrMax= 2.04D-02  0.00D+00 EMaxC= 1.00D-01 BMatC= 1.69D+00 BMatP= 1.69D+00
 IDIUse=3 WtCom= 7.96D-01 WtEn= 2.04D-01
 Coeff-Com:  0.100D+01
 Coeff-En:   0.100D+01
 Coeff:      0.100D+01
 Gap=     0.121 Goal=   None    Shift=    0.000
 GapD=    0.121 DampG=1.000 DampE=0.500 DampFc=0.5000 IDamp=-1.
 Damping current iteration by 5.00D-01
 RMSDP=1.58D-03 MaxDP=1.32D-01              OVMax= 2.19D-01

 Cycle   2  Pass 1  IDiag  1:
 RMSU=  7.76D-04    CP:  9.82D-01
 E= -4069.33045847892     Delta-E=       -0.389250768840 Rises=F Damp=T
 DIIS: error= 1.27D-02 at cycle   2 NSaved=   2.
 NSaved= 2 IEnMin= 2 EnMin= -4069.33045847892     IErMin= 2 ErrMin= 1.27D-02
 ErrMax= 1.27D-02  0.00D+00 EMaxC= 1.00D-01 BMatC= 3.08D-01 BMatP= 1.69D+00
 IDIUse=3 WtCom= 8.73D-01 WtEn= 1.27D-01
 Coeff-Com: -0.210D+00 0.121D+01
 Coeff-En:   0.000D+00 0.100D+01
 Coeff:     -0.183D+00 0.118D+01
 Gap=     0.133 Goal=   None    Shift=    0.000
 RMSDP=7.76D-04 MaxDP=1.05D-01 DE=-3.89D-01 OVMax= 2.05D-01

 Cycle   3  Pass 1  IDiag  1:
 RMSU=  7.45D-04    CP:  9.68D-01  1.22D+00
 E= -4069.61469166031     Delta-E=       -0.284233181395 Rises=F Damp=F
 DIIS: error= 1.56D-02 at cycle   3 NSaved=   3.
 NSaved= 3 IEnMin= 3 EnMin= -4069.61469166031     IErMin= 2 ErrMin= 1.27D-02
 ErrMax= 1.56D-02  0.00D+00 EMaxC= 1.00D-01 BMatC= 2.09D-01 BMatP= 3.08D-01
 IDIUse=3 WtCom= 8.44D-01 WtEn= 1.56D-01
 Coeff-Com: -0.268D+00 0.656D+00 0.612D+00
 Coeff-En:   0.000D+00 0.000D+00 0.100D+01
 Coeff:     -0.226D+00 0.554D+00 0.672D+00
 Gap=     0.123 Goal=   None    Shift=    0.000
 RMSDP=5.31D-04 MaxDP=4.74D-02 DE=-2.84D-01 OVMax= 1.76D-01

 Cycle   4  Pass 1  IDiag  1:
 RMSU=  2.75D-04    CP:  9.65D-01  1.55D+00  4.91D-01
 E= -4069.75633064647     Delta-E=       -0.141638986159 Rises=F Damp=F
 DIIS: error= 7.14D-03 at cycle   4 NSaved=   4.
 NSaved= 4 IEnMin= 4 EnMin= -4069.75633064647     IErMin= 4 ErrMin= 7.14D-03
 ErrMax= 7.14D-03  0.00D+00 EMaxC= 1.00D-01 BMatC= 5.35D-02 BMatP= 2.09D-01
 IDIUse=3 WtCom= 9.29D-01 WtEn= 7.14D-02
 Coeff-Com: -0.111D+00 0.231D+00 0.410D+00 0.469D+00
 Coeff-En:   0.000D+00 0.000D+00 0.233D+00 0.767D+00
 Coeff:     -0.103D+00 0.215D+00 0.398D+00 0.491D+00
 Gap=     0.120 Goal=   None    Shift=    0.000
 RMSDP=2.18D-04 MaxDP=2.07D-02 DE=-1.42D-01 OVMax= 8.64D-02

 Cycle   5  Pass 1  IDiag  1:
 RMSU=  8.54D-05    CP:  9.64D-01  1.48D+00  6.86D-01  5.29D-01
 E= -4069.80666691947     Delta-E=       -0.050336273001 Rises=F Damp=F
 DIIS: error= 6.54D-04 at cycle   5 NSaved=   5.
 NSaved= 5 IEnMin= 5 EnMin= -4069.80666691947     IErMin= 5 ErrMin= 6.54D-04
 ErrMax= 6.54D-04  0.00D+00 EMaxC= 1.00D-01 BMatC= 1.57D-03 BMatP= 5.35D-02
 IDIUse=3 WtCom= 9.93D-01 WtEn= 6.54D-03
 Coeff-Com: -0.401D-01 0.792D-01 0.180D+00 0.263D+00 0.518D+00
 Coeff-En:   0.000D+00 0.000D+00 0.000D+00 0.000D+00 0.100D+01
 Coeff:     -0.398D-01 0.787D-01 0.179D+00 0.261D+00 0.521D+00
 Gap=     0.120 Goal=   None    Shift=    0.000
 RMSDP=5.04D-05 MaxDP=5.15D-03 DE=-5.03D-02 OVMax= 2.66D-02

 Cycle   6  Pass 1  IDiag  1:
 RMSU=  3.50D-05    CP:  9.64D-01  1.49D+00  6.75D-01  6.14D-01  6.98D-01
 E= -4069.80820136040     Delta-E=       -0.001534440922 Rises=F Damp=F
 DIIS: error= 2.42D-04 at cycle   6 NSaved=   6.
 NSaved= 6 IEnMin= 6 EnMin= -4069.80820136040     IErMin= 6 ErrMin= 2.42D-04
 ErrMax= 2.42D-04  0.00D+00 EMaxC= 1.00D-01 BMatC= 2.33D-04 BMatP= 1.57D-03
 IDIUse=3 WtCom= 9.98D-01 WtEn= 2.42D-03
 Coeff-Com:  0.172D-02-0.577D-02 0.146D-01 0.449D-01 0.300D+00 0.644D+00
 Coeff-En:   0.000D+00 0.000D+00 0.000D+00 0.000D+00 0.120D+00 0.880D+00
 Coeff:      0.172D-02-0.575D-02 0.146D-01 0.448D-01 0.300D+00 0.645D+00
 Gap=     0.121 Goal=   None    Shift=    0.000
 RMSDP=1.91D-05 MaxDP=1.51D-03 DE=-1.53D-03 OVMax= 9.76D-03

 Cycle   7  Pass 1  IDiag  1:
 RMSU=  1.21D-05    CP:  9.64D-01  1.49D+00  6.81D-01  6.11D-01  8.18D-01
                    CP:  7.33D-01
 E= -4069.80847367205     Delta-E=       -0.000272311652 Rises=F Damp=F
 DIIS: error= 1.26D-04 at cycle   7 NSaved=   7.
 NSaved= 7 IEnMin= 7 EnMin= -4069.80847367205     IErMin= 7 ErrMin= 1.26D-04
 ErrMax= 1.26D-04  0.00D+00 EMaxC= 1.00D-01 BMatC= 3.04D-05 BMatP= 2.33D-04
 IDIUse=3 WtCom= 9.99D-01 WtEn= 1.26D-03
 Coeff-Com:  0.481D-02-0.106D-01-0.907D-02-0.304D-02 0.108D+00 0.343D+00
 Coeff-Com:  0.566D+00
 Coeff-En:   0.000D+00 0.000D+00 0.000D+00 0.000D+00 0.000D+00 0.000D+00
 Coeff-En:   0.100D+01
 Coeff:      0.481D-02-0.106D-01-0.906D-02-0.303D-02 0.108D+00 0.343D+00
 Coeff:      0.567D+00
 Gap=     0.121 Goal=   None    Shift=    0.000
 RMSDP=7.04D-06 MaxDP=1.15D-03 DE=-2.72D-04 OVMax= 3.44D-03

 Cycle   8  Pass 1  IDiag  1:
 RMSU=  5.09D-06    CP:  9.64D-01  1.49D+00  6.82D-01  6.16D-01  8.18D-01
                    CP:  8.48D-01  8.29D-01
 E= -4069.80851027573     Delta-E=       -0.000036603680 Rises=F Damp=F
 DIIS: error= 5.47D-05 at cycle   8 NSaved=   8.
 NSaved= 8 IEnMin= 8 EnMin= -4069.80851027573     IErMin= 8 ErrMin= 5.47D-05
 ErrMax= 5.47D-05  0.00D+00 EMaxC= 1.00D-01 BMatC= 5.26D-06 BMatP= 3.04D-05
 IDIUse=1 WtCom= 1.00D+00 WtEn= 0.00D+00
 Coeff-Com:  0.228D-02-0.454D-02-0.794D-02-0.122D-01-0.604D-02 0.305D-01
 Coeff-Com:  0.302D+00 0.695D+00
 Coeff:      0.228D-02-0.454D-02-0.794D-02-0.122D-01-0.604D-02 0.305D-01
 Coeff:      0.302D+00 0.695D+00
 Gap=     0.121 Goal=   None    Shift=    0.000
 RMSDP=3.58D-06 MaxDP=4.26D-04 DE=-3.66D-05 OVMax= 1.26D-03

 Cycle   9  Pass 1  IDiag  1:
 RMSU=  2.13D-06    CP:  9.64D-01  1.49D+00  6.83D-01  6.18D-01  8.35D-01
                    CP:  8.78D-01  1.01D+00  9.96D-01
 E= -4069.80851899241     Delta-E=       -0.000008716685 Rises=F Damp=F
 DIIS: error= 2.06D-05 at cycle   9 NSaved=   9.
 NSaved= 9 IEnMin= 9 EnMin= -4069.80851899241     IErMin= 9 ErrMin= 2.06D-05
 ErrMax= 2.06D-05  0.00D+00 EMaxC= 1.00D-01 BMatC= 9.21D-07 BMatP= 5.26D-06
 IDIUse=1 WtCom= 1.00D+00 WtEn= 0.00D+00
 Coeff-Com:  0.486D-03-0.802D-03-0.275D-02-0.617D-02-0.181D-01-0.437D-01
 Coeff-Com:  0.837D-01 0.349D+00 0.638D+00
 Coeff:      0.486D-03-0.802D-03-0.275D-02-0.617D-02-0.181D-01-0.437D-01
 Coeff:      0.837D-01 0.349D+00 0.638D+00
 Gap=     0.121 Goal=   None    Shift=    0.000
 RMSDP=1.63D-06 MaxDP=1.88D-04 DE=-8.72D-06 OVMax= 9.36D-04

 Cycle  10  Pass 1  IDiag  1:
 RMSU=  1.06D-06    CP:  9.64D-01  1.49D+00  6.83D-01  6.18D-01  8.39D-01
                    CP:  8.89D-01  1.06D+00  1.17D+00  1.07D+00
 E= -4069.80852109992     Delta-E=       -0.000002107503 Rises=F Damp=F
 DIIS: error= 1.04D-05 at cycle  10 NSaved=  10.
 NSaved=10 IEnMin=10 EnMin= -4069.80852109992     IErMin=10 ErrMin= 1.04D-05
 ErrMax= 1.04D-05  0.00D+00 EMaxC= 1.00D-01 BMatC= 2.31D-07 BMatP= 9.21D-07
 IDIUse=1 WtCom= 1.00D+00 WtEn= 0.00D+00
 Coeff-Com: -0.453D-03 0.957D-03 0.125D-02 0.948D-03-0.358D-02-0.341D-01
 Coeff-Com: -0.437D-01-0.657D-01 0.249D+00 0.896D+00
 Coeff:     -0.453D-03 0.957D-03 0.125D-02 0.948D-03-0.358D-02-0.341D-01
 Coeff:     -0.437D-01-0.657D-01 0.249D+00 0.896D+00
 Gap=     0.121 Goal=   None    Shift=    0.000
 RMSDP=1.39D-06 MaxDP=1.28D-04 DE=-2.11D-06 OVMax= 7.53D-04

 Cycle  11  Pass 1  IDiag  1:
 RMSU=  6.32D-07    CP:  9.64D-01  1.49D+00  6.83D-01  6.19D-01  8.41D-01
                    CP:  8.98D-01  1.11D+00  1.29D+00  1.42D+00  1.34D+00
 E= -4069.80852214240     Delta-E=       -0.000001042485 Rises=F Damp=F
 DIIS: error= 5.13D-06 at cycle  11 NSaved=  11.
 NSaved=11 IEnMin=11 EnMin= -4069.80852214240     IErMin=11 ErrMin= 5.13D-06
 ErrMax= 5.13D-06  0.00D+00 EMaxC= 1.00D-01 BMatC= 9.97D-08 BMatP= 2.31D-07
 IDIUse=1 WtCom= 1.00D+00 WtEn= 0.00D+00
 Coeff-Com: -0.378D-03 0.739D-03 0.147D-02 0.220D-02 0.429D-02-0.102D-01
 Coeff-Com: -0.416D-01-0.138D+00-0.329D-01 0.516D+00 0.698D+00
 Coeff:     -0.378D-03 0.739D-03 0.147D-02 0.220D-02 0.429D-02-0.102D-01
 Coeff:     -0.416D-01-0.138D+00-0.329D-01 0.516D+00 0.698D+00
 Gap=     0.121 Goal=   None    Shift=    0.000
 RMSDP=8.27D-07 MaxDP=8.56D-05 DE=-1.04D-06 OVMax= 5.31D-04

 Cycle  12  Pass 1  IDiag  1:
 RMSU=  3.17D-07    CP:  9.64D-01  1.49D+00  6.83D-01  6.19D-01  8.42D-01
                    CP:  9.00D-01  1.13D+00  1.37D+00  1.59D+00  1.76D+00
                    CP:  1.14D+00
 E= -4069.80852252656     Delta-E=       -0.000000384160 Rises=F Damp=F
 DIIS: error= 3.58D-06 at cycle  12 NSaved=  12.
 NSaved=12 IEnMin=12 EnMin= -4069.80852252656     IErMin=12 ErrMin= 3.58D-06
 ErrMax= 3.58D-06  0.00D+00 EMaxC= 1.00D-01 BMatC= 2.68D-08 BMatP= 9.97D-08
 IDIUse=1 WtCom= 1.00D+00 WtEn= 0.00D+00
 Coeff-Com: -0.427D-04 0.631D-04 0.368D-03 0.797D-03 0.414D-02 0.372D-02
 Coeff-Com: -0.143D-02-0.505D-01-0.867D-01-0.154D-01 0.305D+00 0.840D+00
 Coeff:     -0.427D-04 0.631D-04 0.368D-03 0.797D-03 0.414D-02 0.372D-02
 Coeff:     -0.143D-02-0.505D-01-0.867D-01-0.154D-01 0.305D+00 0.840D+00
 Gap=     0.121 Goal=   None    Shift=    0.000
 RMSDP=5.23D-07 MaxDP=2.89D-05 DE=-3.84D-07 OVMax= 3.12D-04

 Cycle  13  Pass 1  IDiag  1:
 RMSU=  1.89D-07    CP:  9.64D-01  1.49D+00  6.83D-01  6.19D-01  8.43D-01
                    CP:  9.00D-01  1.14D+00  1.40D+00  1.72D+00  1.99D+00
                    CP:  1.56D+00  1.21D+00
 E= -4069.80852266676     Delta-E=       -0.000000140200 Rises=F Damp=F
 DIIS: error= 2.07D-06 at cycle  13 NSaved=  13.
 NSaved=13 IEnMin=13 EnMin= -4069.80852266676     IErMin=13 ErrMin= 2.07D-06
 ErrMax= 2.07D-06  0.00D+00 EMaxC= 1.00D-01 BMatC= 1.14D-08 BMatP= 2.68D-08
 IDIUse=1 WtCom= 1.00D+00 WtEn= 0.00D+00
 Coeff-Com:  0.125D-03-0.258D-03-0.365D-03-0.426D-03 0.101D-02 0.538D-02
 Coeff-Com:  0.182D-01 0.225D-01-0.372D-01-0.236D+00-0.148D+00 0.514D+00
 Coeff-Com:  0.860D+00
 Coeff:      0.125D-03-0.258D-03-0.365D-03-0.426D-03 0.101D-02 0.538D-02
 Coeff:      0.182D-01 0.225D-01-0.372D-01-0.236D+00-0.148D+00 0.514D+00
 Coeff:      0.860D+00
 Gap=     0.121 Goal=   None    Shift=    0.000
 RMSDP=4.36D-07 MaxDP=2.31D-05 DE=-1.40D-07 OVMax= 3.06D-04

 Cycle  14  Pass 1  IDiag  1:
 RMSU=  9.13D-08    CP:  9.64D-01  1.49D+00  6.83D-01  6.19D-01  8.43D-01
                    CP:  9.01D-01  1.15D+00  1.43D+00  1.80D+00  2.21D+00
                    CP:  1.83D+00  1.74D+00  1.18D+00
 E= -4069.80852272504     Delta-E=       -0.000000058277 Rises=F Damp=F
 DIIS: error= 9.13D-07 at cycle  14 NSaved=  14.
 NSaved=14 IEnMin=14 EnMin= -4069.80852272504     IErMin=14 ErrMin= 9.13D-07
 ErrMax= 9.13D-07  0.00D+00 EMaxC= 1.00D-01 BMatC= 1.96D-09 BMatP= 1.14D-08
 IDIUse=1 WtCom= 1.00D+00 WtEn= 0.00D+00
 Coeff-Com:  0.767D-04-0.152D-03-0.280D-03-0.430D-03-0.405D-03 0.143D-02
 Coeff-Com:  0.103D-01 0.222D-01 0.520D-02-0.110D+00-0.147D+00 0.434D-01
 Coeff-Com:  0.440D+00 0.736D+00
 Coeff:      0.767D-04-0.152D-03-0.280D-03-0.430D-03-0.405D-03 0.143D-02
 Coeff:      0.103D-01 0.222D-01 0.520D-02-0.110D+00-0.147D+00 0.434D-01
 Coeff:      0.440D+00 0.736D+00
 Gap=     0.121 Goal=   None    Shift=    0.000
 RMSDP=1.46D-07 MaxDP=8.07D-06 DE=-5.83D-08 OVMax= 8.46D-05

 Cycle  15  Pass 1  IDiag  1:
 RMSU=  4.44D-08    CP:  9.64D-01  1.49D+00  6.83D-01  6.19D-01  8.43D-01
                    CP:  9.01D-01  1.15D+00  1.43D+00  1.83D+00  2.27D+00
                    CP:  1.95D+00  1.90D+00  1.44D+00  1.05D+00
 E= -4069.80852273173     Delta-E=       -0.000000006690 Rises=F Damp=F
 DIIS: error= 4.34D-07 at cycle  15 NSaved=  15.
 NSaved=15 IEnMin=15 EnMin= -4069.80852273173     IErMin=15 ErrMin= 4.34D-07
 ErrMax= 4.34D-07  0.00D+00 EMaxC= 1.00D-01 BMatC= 2.82D-10 BMatP= 1.96D-09
 IDIUse=1 WtCom= 1.00D+00 WtEn= 0.00D+00
 Coeff-Com:  0.108D-04-0.194D-04-0.533D-04-0.114D-03-0.318D-03-0.470D-03
 Coeff-Com:  0.145D-02 0.442D-02 0.950D-02-0.572D-02-0.330D-01-0.720D-01
 Coeff-Com:  0.617D-01 0.306D+00 0.729D+00
 Coeff:      0.108D-04-0.194D-04-0.533D-04-0.114D-03-0.318D-03-0.470D-03
 Coeff:      0.145D-02 0.442D-02 0.950D-02-0.572D-02-0.330D-01-0.720D-01
 Coeff:      0.617D-01 0.306D+00 0.729D+00
 Gap=     0.121 Goal=   None    Shift=    0.000
 RMSDP=3.71D-08 MaxDP=2.35D-06 DE=-6.69D-09 OVMax= 3.04D-05

 Cycle  16  Pass 1  IDiag  1:
 RMSU=  2.16D-08    CP:  9.64D-01  1.49D+00  6.83D-01  6.19D-01  8.43D-01
                    CP:  9.01D-01  1.15D+00  1.43D+00  1.83D+00  2.28D+00
                    CP:  1.97D+00  1.94D+00  1.51D+00  1.23D+00  1.10D+00
 E= -4069.80852273216     Delta-E=       -0.000000000437 Rises=F Damp=F
 DIIS: error= 2.23D-07 at cycle  16 NSaved=  16.
 NSaved=16 IEnMin=16 EnMin= -4069.80852273216     IErMin=16 ErrMin= 2.23D-07
 ErrMax= 2.23D-07  0.00D+00 EMaxC= 1.00D-01 BMatC= 1.16D-10 BMatP= 2.82D-10
 IDIUse=1 WtCom= 1.00D+00 WtEn= 0.00D+00
 Coeff-Com: -0.136D-04 0.277D-04 0.421D-04 0.431D-04-0.702D-04-0.636D-03
 Coeff-Com: -0.172D-02-0.374D-02 0.443D-02 0.229D-01 0.205D-01-0.580D-01
 Coeff-Com: -0.711D-01-0.414D-01 0.391D+00 0.737D+00
 Coeff:     -0.136D-04 0.277D-04 0.421D-04 0.431D-04-0.702D-04-0.636D-03
 Coeff:     -0.172D-02-0.374D-02 0.443D-02 0.229D-01 0.205D-01-0.580D-01
 Coeff:     -0.711D-01-0.414D-01 0.391D+00 0.737D+00
 Gap=     0.121 Goal=   None    Shift=    0.000
 RMSDP=2.75D-08 MaxDP=1.42D-06 DE=-4.37D-10 OVMax= 1.62D-05

 Cycle  17  Pass 1  IDiag  1:
 RMSU=  1.23D-08    CP:  9.64D-01  1.49D+00  6.83D-01  6.19D-01  8.43D-01
                    CP:  9.01D-01  1.15D+00  1.43D+00  1.84D+00  2.28D+00
                    CP:  1.98D+00  1.96D+00  1.56D+00  1.32D+00  1.39D+00
                    CP:  1.18D+00
 E= -4069.80852273287     Delta-E=       -0.000000000709 Rises=F Damp=F
 DIIS: error= 7.88D-08 at cycle  17 NSaved=  17.
 NSaved=17 IEnMin=17 EnMin= -4069.80852273287     IErMin=17 ErrMin= 7.88D-08
 ErrMax= 7.88D-08  0.00D+00 EMaxC= 1.00D-01 BMatC= 2.35D-11 BMatP= 1.16D-10
 IDIUse=1 WtCom= 1.00D+00 WtEn= 0.00D+00
 Coeff-Com: -0.872D-05 0.171D-04 0.326D-04 0.462D-04 0.635D-04-0.172D-03
 Coeff-Com: -0.101D-02-0.304D-02 0.152D-03 0.109D-01 0.192D-01-0.101D-01
 Coeff-Com: -0.382D-01-0.998D-01 0.993D-03 0.309D+00 0.812D+00
 Coeff:     -0.872D-05 0.171D-04 0.326D-04 0.462D-04 0.635D-04-0.172D-03
 Coeff:     -0.101D-02-0.304D-02 0.152D-03 0.109D-01 0.192D-01-0.101D-01
 Coeff:     -0.382D-01-0.998D-01 0.993D-03 0.309D+00 0.812D+00
 Gap=     0.121 Goal=   None    Shift=    0.000
 RMSDP=1.41D-08 MaxDP=8.63D-07 DE=-7.09D-10 OVMax= 9.91D-06

 Cycle  18  Pass 1  IDiag  1:
 RMSU=  6.18D-09    CP:  9.64D-01  1.49D+00  6.83D-01  6.19D-01  8.43D-01
                    CP:  9.01D-01  1.15D+00  1.43D+00  1.84D+00  2.28D+00
                    CP:  1.98D+00  1.97D+00  1.57D+00  1.38D+00  1.53D+00
                    CP:  1.55D+00  1.30D+00
 E= -4069.80852273316     Delta-E=       -0.000000000291 Rises=F Damp=F
 DIIS: error= 7.25D-08 at cycle  18 NSaved=  18.
 NSaved=18 IEnMin=18 EnMin= -4069.80852273316     IErMin=18 ErrMin= 7.25D-08
 ErrMax= 7.25D-08  0.00D+00 EMaxC= 1.00D-01 BMatC= 1.01D-11 BMatP= 2.35D-11
 IDIUse=1 WtCom= 1.00D+00 WtEn= 0.00D+00
 Coeff-Com:  0.478D-07-0.478D-06 0.285D-05 0.888D-05 0.679D-04 0.140D-03
 Coeff-Com:  0.128D-03-0.377D-03-0.123D-02-0.305D-02 0.349D-02 0.123D-01
 Coeff-Com:  0.873D-02-0.419D-01-0.135D+00-0.116D+00 0.429D+00 0.843D+00
 Coeff:      0.478D-07-0.478D-06 0.285D-05 0.888D-05 0.679D-04 0.140D-03
 Coeff:      0.128D-03-0.377D-03-0.123D-02-0.305D-02 0.349D-02 0.123D-01
 Coeff:      0.873D-02-0.419D-01-0.135D+00-0.116D+00 0.429D+00 0.843D+00
 Gap=     0.121 Goal=   None    Shift=    0.000
 RMSDP=1.10D-08 MaxDP=5.92D-07 DE=-2.91D-10 OVMax= 6.20D-06

 Cycle  19  Pass 1  IDiag  1:
 RMSU=  3.41D-09    CP:  9.64D-01  1.49D+00  6.83D-01  6.19D-01  8.43D-01
                    CP:  9.01D-01  1.15D+00  1.43D+00  1.84D+00  2.28D+00
                    CP:  1.99D+00  1.97D+00  1.58D+00  1.41D+00  1.65D+00
                    CP:  1.78D+00  1.78D+00  1.16D+00
 E= -4069.80852273289     Delta-E=        0.000000000273 Rises=F Damp=F
 DIIS: error= 2.63D-08 at cycle  19 NSaved=  19.
 NSaved=19 IEnMin=18 EnMin= -4069.80852273316     IErMin=19 ErrMin= 2.63D-08
 ErrMax= 2.63D-08  0.00D+00 EMaxC= 1.00D-01 BMatC= 2.77D-12 BMatP= 1.01D-11
 IDIUse=1 WtCom= 1.00D+00 WtEn= 0.00D+00
 Coeff-Com:  0.314D-05-0.639D-05-0.100D-04-0.113D-04 0.247D-04 0.148D-03
 Coeff-Com:  0.463D-03 0.836D-03-0.739D-03-0.622D-02-0.459D-02 0.109D-01
 Coeff-Com:  0.216D-01 0.970D-02-0.844D-01-0.197D+00-0.150D-01 0.498D+00
 Coeff-Com:  0.766D+00
 Coeff:      0.314D-05-0.639D-05-0.100D-04-0.113D-04 0.247D-04 0.148D-03
 Coeff:      0.463D-03 0.836D-03-0.739D-03-0.622D-02-0.459D-02 0.109D-01
 Coeff:      0.216D-01 0.970D-02-0.844D-01-0.197D+00-0.150D-01 0.498D+00
 Coeff:      0.766D+00
 Gap=     0.121 Goal=   None    Shift=    0.000
 RMSDP=6.58D-09 MaxDP=5.03D-07 DE= 2.73D-10 OVMax= 4.46D-06

 SCF Done:  E(RCAM-B3LYP) =  -4069.80852273     A.U. after   19 cycles
            NFock= 19  Conv=0.66D-08     -V/T= 2.0102
 KE= 4.028796945340D+03 PE=-4.104818054513D+04 EE= 1.716664072479D+04
 Leave Link  502 at Fri Sep 10 01:49:15 2021, MaxMem= 23488102400 cpu:           17025.6 elap:             736.0
 (Enter /sw/apps/gaussian-16.0/g16/l801.exe)
 DoSCS=F DFT=T ScalE2(SS,OS)=  1.000000  1.000000
 ExpMin= 3.36D-02 ExpMax= 4.95D+03 ExpMxC= 7.45D+02 IAcc=3 IRadAn=         5 AccDes= 0.00D+00
 HarFok:  IExCor=  205 AccDes= 0.00D+00 IRadAn=         5 IDoV=-2 UseB2=F ITyADJ=14
 ICtDFT= 12500011 ScaDFX=  1.000000  1.000000  1.000000  1.000000
 GSVD:  LWork=       -9588 too small for GESVD, short by       45590 words or       45590 for optimal perf.
 Largest valence mixing into a core orbital is  2.03D-04
 Largest core mixing into a valence orbital is  5.23D-05
 Range of M.O.s used for correlation:    95  1572
 NBasis=  1572 NAE=   312 NBE=   312 NFC=    94 NFV=     0
 NROrb=   1478 NOA=   218 NOB=   218 NVA=  1260 NVB=  1260
 Leave Link  801 at Fri Sep 10 01:49:15 2021, MaxMem= 23488102400 cpu:               7.7 elap:               0.3
 (Enter /sw/apps/gaussian-16.0/g16/l914.exe)
 RHF ground state
 Two-electron integrals replicated using symmetry.
 MDV= 23488102400 DFT=T DoStab=F Mixed=T DoRPA=T DoScal=F NonHer=T
 Making orbital integer symmetry assigments:
 Orbital symmetries:
       Occupied  (A) (A) (A) (A) (A) (A) (A) (A) (A) (A) (A) (A)
                 (A) (A) (A) (A) (A) (A) (A) (A) (A) (A) (A) (A)
                 (A) (A) (A) (A) (A) (A) (A) (A) (A) (A) (A) (A)
                 (A) (A) (A) (A) (A) (A) (A) (A) (A) (A) (A) (A)
                 (A) (A) (A) (A) (A) (A) (A) (A) (A) (A) (A) (A)
                 (A) (A) (A) (A) (A) (A) (A) (A) (A) (A) (A) (A)
                 (A) (A) (A) (A) (A) (A) (A) (A) (A) (A) (A) (A)
                 (A) (A) (A) (A) (A) (A) (A) (A) (A) (A) (A) (A)
                 (A) (A) (A) (A) (A) (A) (A) (A) (A) (A) (A) (A)
                 (A) (A) (A) (A) (A) (A) (A) (A) (A) (A) (A) (A)
                 (A) (A) (A) (A) (A) (A) (A) (A) (A) (A) (A) (A)
                 (A) (A) (A) (A) (A) (A) (A) (A) (A) (A) (A) (A)
                 (A) (A) (A) (A) (A) (A) (A) (A) (A) (A) (A) (A)
                 (A) (A) (A) (A) (A) (A) (A) (A) (A) (A) (A) (A)
                 (A) (A) (A) (A) (A) (A) (A) (A) (A) (A) (A) (A)
                 (A) (A) (A) (A) (A) (A) (A) (A) (A) (A) (A) (A)
                 (A) (A) (A) (A) (A) (A) (A) (A) (A) (A) (A) (A)
                 (A) (A) (A) (A) (A) (A) (A) (A) (A) (A) (A) (A)
                 (A) (A) (A) (A) (A) (A) (A) (A) (A) (A) (A) (A)
                 (A) (A) (A) (A) (A) (A) (A) (A) (A) (A) (A) (A)
                 (A) (A) (A) (A) (A) (A) (A) (A) (A) (A) (A) (A)
                 (A) (A) (A) (A) (A) (A) (A) (A) (A) (A) (A) (A)
                 (A) (A) (A) (A) (A) (A) (A) (A) (A) (A) (A) (A)
                 (A) (A) (A) (A) (A) (A) (A) (A) (A) (A) (A) (A)
                 (A) (A) (A) (A) (A) (A) (A) (A) (A) (A) (A) (A)
                 (A) (A) (A) (A) (A) (A) (A) (A) (A) (A) (A) (A)
       Virtual   (A) (A) (A) (A) (A) (A) (A) (A) (A) (A) (A) (A)
                 (A) (A) (A) (A) (A) (A) (A) (A) (A) (A) (A) (A)
                 (A) (A) (A) (A) (A) (A) (A) (A) (A) (A) (A) (A)
                 (A) (A) (A) (A) (A) (A) (A) (A) (A) (A) (A) (A)
                 (A) (A) (A) (A) (A) (A) (A) (A) (A) (A) (A) (A)
                 (A) (A) (A) (A) (A) (A) (A) (A) (A) (A) (A) (A)
                 (A) (A) (A) (A) (A) (A) (A) (A) (A) (A) (A) (A)
                 (A) (A) (A) (A) (A) (A) (A) (A) (A) (A) (A) (A)
                 (A) (A) (A) (A) (A) (A) (A) (A) (A) (A) (A) (A)
                 (A) (A) (A) (A) (A) (A) (A) (A) (A) (A) (A) (A)
                 (A) (A) (A) (A) (A) (A) (A) (A) (A) (A) (A) (A)
                 (A) (A) (A) (A) (A) (A) (A) (A) (A) (A) (A) (A)
                 (A) (A) (A) (A) (A) (A) (A) (A) (A) (A) (A) (A)
                 (A) (A) (A) (A) (A) (A) (A) (A) (A) (A) (A) (A)
                 (A) (A) (A) (A) (A) (A) (A) (A) (A) (A) (A) (A)
                 (A) (A) (A) (A) (A) (A) (A) (A) (A) (A) (A) (A)
                 (A) (A) (A) (A) (A) (A) (A) (A) (A) (A) (A) (A)
                 (A) (A) (A) (A) (A) (A) (A) (A) (A) (A) (A) (A)
                 (A) (A) (A) (A) (A) (A) (A) (A) (A) (A) (A) (A)
                 (A) (A) (A) (A) (A) (A) (A) (A) (A) (A) (A) (A)
                 (A) (A) (A) (A) (A) (A) (A) (A) (A) (A) (A) (A)
                 (A) (A) (A) (A) (A) (A) (A) (A) (A) (A) (A) (A)
                 (A) (A) (A) (A) (A) (A) (A) (A) (A) (A) (A) (A)
                 (A) (A) (A) (A) (A) (A) (A) (A) (A) (A) (A) (A)
                 (A) (A) (A) (A) (A) (A) (A) (A) (A) (A) (A) (A)
                 (A) (A) (A) (A) (A) (A) (A) (A) (A) (A) (A) (A)
                 (A) (A) (A) (A) (A) (A) (A) (A) (A) (A) (A) (A)
                 (A) (A) (A) (A) (A) (A) (A) (A) (A) (A) (A) (A)
                 (A) (A) (A) (A) (A) (A) (A) (A) (A) (A) (A) (A)
                 (A) (A) (A) (A) (A) (A) (A) (A) (A) (A) (A) (A)
                 (A) (A) (A) (A) (A) (A) (A) (A) (A) (A) (A) (A)
                 (A) (A) (A) (A) (A) (A) (A) (A) (A) (A) (A) (A)
                 (A) (A) (A) (A) (A) (A) (A) (A) (A) (A) (A) (A)
                 (A) (A) (A) (A) (A) (A) (A) (A) (A) (A) (A) (A)
                 (A) (A) (A) (A) (A) (A) (A) (A) (A) (A) (A) (A)
                 (A) (A) (A) (A) (A) (A) (A) (A) (A) (A) (A) (A)
                 (A) (A) (A) (A) (A) (A) (A) (A) (A) (A) (A) (A)
                 (A) (A) (A) (A) (A) (A) (A) (A) (A) (A) (A) (A)
                 (A) (A) (A) (A) (A) (A) (A) (A) (A) (A) (A) (A)
                 (A) (A) (A) (A) (A) (A) (A) (A) (A) (A) (A) (A)
                 (A) (A) (A) (A) (A) (A) (A) (A) (A) (A) (A) (A)
                 (A) (A) (A) (A) (A) (A) (A) (A) (A) (A) (A) (A)
                 (A) (A) (A) (A) (A) (A) (A) (A) (A) (A) (A) (A)
                 (A) (A) (A) (A) (A) (A) (A) (A) (A) (A) (A) (A)
                 (A) (A) (A) (A) (A) (A) (A) (A) (A) (A) (A) (A)
                 (A) (A) (A) (A) (A) (A) (A) (A) (A) (A) (A) (A)
                 (A) (A) (A) (A) (A) (A) (A) (A) (A) (A) (A) (A)
                 (A) (A) (A) (A) (A) (A) (A) (A) (A) (A) (A) (A)
                 (A) (A) (A) (A) (A) (A) (A) (A) (A) (A) (A) (A)
                 (A) (A) (A) (A) (A) (A) (A) (A) (A) (A) (A) (A)
                 (A) (A) (A) (A) (A) (A) (A) (A) (A) (A) (A) (A)
                 (A) (A) (A) (A) (A) (A) (A) (A) (A) (A) (A) (A)
                 (A) (A) (A) (A) (A) (A) (A) (A) (A) (A) (A) (A)
                 (A) (A) (A) (A) (A) (A) (A) (A) (A) (A) (A) (A)
                 (A) (A) (A) (A) (A) (A) (A) (A) (A) (A) (A) (A)
                 (A) (A) (A) (A) (A) (A) (A) (A) (A) (A) (A) (A)
                 (A) (A) (A) (A) (A) (A) (A) (A) (A) (A) (A) (A)
                 (A) (A) (A) (A) (A) (A) (A) (A) (A) (A) (A) (A)
                 (A) (A) (A) (A) (A) (A) (A) (A) (A) (A) (A) (A)
                 (A) (A) (A) (A) (A) (A) (A) (A) (A) (A) (A) (A)
                 (A) (A) (A) (A) (A) (A) (A) (A) (A) (A) (A) (A)
                 (A) (A) (A) (A) (A) (A) (A) (A) (A) (A) (A) (A)
                 (A) (A) (A) (A) (A) (A) (A) (A) (A) (A) (A) (A)
                 (A) (A) (A) (A) (A) (A) (A) (A) (A) (A) (A) (A)
                 (A) (A) (A) (A) (A) (A) (A) (A) (A) (A) (A) (A)
                 (A) (A) (A) (A) (A) (A) (A) (A) (A) (A) (A) (A)
                 (A) (A) (A) (A) (A) (A) (A) (A) (A) (A) (A) (A)
                 (A) (A) (A) (A) (A) (A) (A) (A) (A) (A) (A) (A)
                 (A) (A) (A) (A) (A) (A) (A) (A) (A) (A) (A) (A)
                 (A) (A) (A) (A) (A) (A) (A) (A) (A) (A) (A) (A)
                 (A) (A) (A) (A) (A) (A) (A) (A) (A) (A) (A) (A)
                 (A) (A) (A) (A) (A) (A) (A) (A) (A) (A) (A) (A)
                 (A) (A) (A) (A) (A) (A) (A) (A) (A) (A) (A) (A)
                 (A) (A) (A) (A) (A) (A) (A) (A) (A) (A) (A) (A)
                 (A) (A) (A) (A) (A) (A) (A) (A) (A) (A) (A) (A)
                 (A) (A) (A) (A) (A) (A) (A) (A) (A) (A) (A) (A)
                 (A) (A) (A) (A) (A) (A) (A) (A) (A) (A) (A) (A)
                 (A) (A) (A) (A) (A) (A) (A) (A) (A) (A) (A) (A)
                 (A) (A) (A) (A) (A) (A) (A) (A) (A) (A) (A) (A)
                 (A) (A) (A) (A) (A) (A) (A) (A) (A) (A) (A) (A)
                 (A) (A) (A) (A) (A) (A) (A) (A) (A) (A) (A) (A)
                 (A) (A) (A) (A) (A) (A) (A) (A) (A) (A) (A) (A)
                 (A) (A) (A) (A) (A) (A) (A) (A) (A) (A) (A) (A)
                 (A) (A) (A) (A) (A) (A) (A) (A) (A) (A) (A) (A)
                 (A) (A) (A) (A) (A) (A) (A) (A) (A) (A) (A) (A)
                 (A) (A) (A) (A) (A) (A) (A) (A) (A) (A) (A) (A)
                 (A) (A) (A) (A) (A) (A) (A) (A) (A) (A) (A) (A)
                 (A) (A) (A) (A) (A) (A) (A) (A) (A) (A) (A) (A)
                 (A) (A) (A) (A) (A) (A) (A) (A) (A) (A) (A) (A)
                 (A) (A) (A) (A) (A) (A) (A) (A) (A) (A) (A) (A)
                 (A) (A) (A) (A) (A) (A) (A) (A) (A) (A) (A) (A)
                 (A) (A) (A) (A) (A) (A) (A) (A) (A) (A) (A) (A)
                 (A) (A) (A) (A) (A) (A) (A) (A) (A) (A) (A) (A)
                 (A) (A) (A) (A) (A) (A) (A) (A) (A) (A) (A) (A)
                 (A) (A) (A) (A) (A) (A) (A) (A) (A) (A) (A) (A)
                 (A) (A) (A) (A) (A) (A) (A) (A) (A) (A) (A) (A)
                 (A) (A) (A) (A) (A) (A) (A) (A) (A) (A) (A) (A)
                 (A) (A) (A) (A) (A) (A) (A) (A) (A) (A) (A) (A)
                 (A) (A) (A) (A) (A) (A) (A) (A) (A) (A) (A) (A)
                 (A) (A) (A) (A) (A) (A) (A) (A) (A) (A) (A) (A)
                 (A) (A) (A) (A) (A) (A) (A) (A) (A) (A) (A) (A)
                 (A) (A) (A) (A) (A) (A) (A) (A) (A) (A) (A) (A)
                 (A) (A) (A) (A) (A) (A) (A) (A) (A) (A) (A) (A)
                 (A) (A) (A) (A) (A) (A) (A) (A) (A) (A) (A) (A)
                 (A) (A) (A) (A) (A) (A) (A) (A) (A) (A) (A) (A)
    20 initial guesses have been made.
 Convergence on wavefunction:    0.001000000000000
 Davidson Disk Diagonalization:  ConvIn= 1.00D-03 SkipCon=T Conv= 1.00D-03.
 Max sub-space:  2000 roots to seek:    20 dimension of matrix:       549360
 Iteration     1 Dimension    20 NMult     0 NNew     20
 CISAX will form    20 AO SS matrices at one time.
 NMat=    20 NSing=    20 JSym2X= 0.
 FoFJK:  IHMeth= 1 ICntrl=       0 DoSepK=T KAlg= 0 I1Cent=           0 FoldK=F
 IRaf=         1 NMat=      40 IRICut=       1 DoRegI=T DoRafI=F ISym2E= 0 IDoP0=3 IntGTp=3.
 FoFCou: FMM=T IPFlag=           0 FMFlag=      100000 FMFlg1=        2001
         NFxFlg=           0 DoJE=F BraDBF=F KetDBF=F FulRan=T
         wScrn=  0.000000 ICntrl=       500 IOpCl=  0 I1Cent=           0 NGrid=           0
         NMat0=   20 NMatS0=     20 NMatT0=    0 NMatD0=   20 NMtDS0=    0 NMtDT0=    0
 Symmetry not used in FoFCou.
 FMM levels:  10  Number of levels for PrismC:   9
 New state      2 was old state      4
 New state      3 was old state      7
 New state      4 was old state      6
 New state      5 was old state     10
 Excitation Energies [eV] at current iteration:
 Root      1 :     2.348392762451782
 Root      2 :     2.477028755793183
 Root      3 :     2.600563178116256
 Root      4 :     2.619122057122252
 Root      5 :     2.630669869302728
 Root      6 :     2.763056059210303
 Root      7 :     3.124188162838142
 Root      8 :     3.265138660397255
 Root      9 :     3.592029601413741
 Root     10 :     3.654585982661019
 Root     11 :     3.720832998158369
 Root     12 :     3.761407616955788
 Root     13 :     3.766981283033305
 Root     14 :     4.241202329662463
 Root     15 :     4.243878608359481
 Root     16 :     4.301697224485276
 Root     17 :     4.364844422668592
 Root     18 :     4.389127156165402
 Root     19 :     4.436259909642603
 Root     20 :     4.765478372793697
 Iteration     2 Dimension    30 NMult    20 NNew     10
 CISAX will form    10 AO SS matrices at one time.
 NMat=    10 NSing=    10 JSym2X= 0.
 New state      1 was old state      3
 Root      1 not converged, maximum delta is    0.364346604944316
 New state      2 was old state      4
 Root      2 not converged, maximum delta is    0.276412709874420
 New state      3 was old state      5
 Root      3 not converged, maximum delta is    0.206994321006984
 New state      4 was old state      1
 Root      4 not converged, maximum delta is    0.014564900867455
 New state      5 was old state      2
 Root      5 not converged, maximum delta is    0.029301771479680
 Excitation Energies [eV] at current iteration:
 Root      1 :     1.766568169092820   Change is   -0.833995009023436
 Root      2 :     2.228258745094555   Change is   -0.390863312027697
 Root      3 :     2.244648936256664   Change is   -0.386020933046064
 Root      4 :     2.344959614043872   Change is   -0.003433148407911
 Root      5 :     2.470311990367573   Change is   -0.006716765425610
 Iteration     3 Dimension    40 NMult    30 NNew     10
 CISAX will form    10 AO SS matrices at one time.
 NMat=    10 NSing=    10 JSym2X= 0.
 Root      1 not converged, maximum delta is    0.051465002110650
 New state      2 was old state      3
 Root      2 not converged, maximum delta is    0.313259884658124
 New state      3 was old state      2
 Root      3 not converged, maximum delta is    0.282927212201259
 Root      4 not converged, maximum delta is    0.002103601022901
 Root      5 not converged, maximum delta is    0.001234478601713
 Excitation Energies [eV] at current iteration:
 Root      1 :     1.662601836730939   Change is   -0.103966332361881
 Root      2 :     2.179431244392348   Change is   -0.065217691864316
 Root      3 :     2.191762793558563   Change is   -0.036495951535992
 Root      4 :     2.344924361378684   Change is   -0.000035252665188
 Root      5 :     2.470245535182745   Change is   -0.000066455184828
 Iteration     4 Dimension    50 NMult    40 NNew     10
 CISAX will form    10 AO SS matrices at one time.
 NMat=    10 NSing=    10 JSym2X= 0.
 Root      1 not converged, maximum delta is    0.011116549304991
 Root      2 not converged, maximum delta is    0.533554472394400
 Root      3 not converged, maximum delta is    0.260293419621526
 No map to state      4
 New state      5 was old state      4
 Root      5 not converged, maximum delta is    0.002768547025604
 Excitation Energies [eV] at current iteration:
 Root      1 :     1.646135032577428   Change is   -0.016466804153512
 Root      2 :     1.864400553151042   Change is   -0.315030691241306
 Root      3 :     2.182799435006538   Change is   -0.008963358552025
 Root      4 :     2.210646505034063
 Root      5 :     2.344930839540719   Change is    0.000006478162035
 Iteration     5 Dimension    60 NMult    50 NNew     10
 CISAX will form    10 AO SS matrices at one time.
 NMat=    10 NSing=    10 JSym2X= 0.
 Root      1 not converged, maximum delta is    0.003086377414251
 Root      2 not converged, maximum delta is    0.056288872026845
 Root      3 not converged, maximum delta is    0.049956621956398
 Root      4 not converged, maximum delta is    0.049105694184591
 Root      5 has converged.
 Excitation Energies [eV] at current iteration:
 Root      1 :     1.644427825883499   Change is   -0.001707206693928
 Root      2 :     1.726805955303940   Change is   -0.137594597847102
 Root      3 :     2.181528225635744   Change is   -0.001271209370794
 Root      4 :     2.199515379600061   Change is   -0.011131125434002
 Root      5 :     2.344927807470579   Change is   -0.000003032070140
 Iteration     6 Dimension    68 NMult    60 NNew      8
 CISAX will form     8 AO SS matrices at one time.
 NMat=     8 NSing=     8 JSym2X= 0.
 Root      1 has converged.
 Root      2 not converged, maximum delta is    0.008312393936216
 Root      3 not converged, maximum delta is    0.006179417220578
 Root      4 not converged, maximum delta is    0.006229841577170
 Root      5 has converged.
 Excitation Energies [eV] at current iteration:
 Root      1 :     1.644193642036608   Change is   -0.000234183846891
 Root      2 :     1.711108240101923   Change is   -0.015697715202017
 Root      3 :     2.181348777968935   Change is   -0.000179447666809
 Root      4 :     2.198620492682771   Change is   -0.000894886917290
 Root      5 :     2.344927675319205   Change is   -0.000000132151374
 Iteration     7 Dimension    74 NMult    68 NNew      6
 CISAX will form     6 AO SS matrices at one time.
 NMat=     6 NSing=     6 JSym2X= 0.
 Root      1 has converged.
 Root      2 not converged, maximum delta is    0.002606599948465
 Root      3 has converged.
 Root      4 has converged.
[...]
 Alpha virt. eigenvalues --    1.85358   1.85494   1.85555   1.85621   1.85771
 Alpha virt. eigenvalues --    1.86060   1.86183   1.86435   1.86610   1.86693
 Alpha virt. eigenvalues --    1.86879   1.86922   1.87067   1.87183   1.87325
 Alpha virt. eigenvalues --    1.87577   1.87841   1.87895   1.87985   1.88080
 Alpha virt. eigenvalues --    1.88185   1.88277   1.88470   1.88650   1.88826
 Alpha virt. eigenvalues --    1.88950   1.89171   1.89213   1.89334   1.89740
 Alpha virt. eigenvalues --    1.89865   1.89923   1.90150   1.90284   1.90469
 Alpha virt. eigenvalues --    1.90959   1.91185   1.91460   1.91615   1.91700
 Alpha virt. eigenvalues --    1.91880   1.92308   1.92472   1.92741   1.92892
 Alpha virt. eigenvalues --    1.93127   1.93400   1.93510   1.93765   1.94373
 Alpha virt. eigenvalues --    1.94561   1.94801   1.95111   1.95544   1.95833
 Alpha virt. eigenvalues --    1.95855   1.96084   1.96177   1.96245   1.96273
 Alpha virt. eigenvalues --    1.96522   1.96741   1.96790   1.97018   1.97172
 Alpha virt. eigenvalues --    1.97577   1.97803   1.97949   1.98147   1.98322
 Alpha virt. eigenvalues --    1.98449   1.98647   1.98927   1.99307   1.99337
 Alpha virt. eigenvalues --    1.99969   2.00205   2.00772   2.01021   2.01220
 Alpha virt. eigenvalues --    2.01458   2.01651   2.01744   2.01786   2.01865
 Alpha virt. eigenvalues --    2.02016   2.02112   2.02916   2.02992   2.03312
 Alpha virt. eigenvalues --    2.03413   2.03561   2.03699   2.03732   2.03912
 Alpha virt. eigenvalues --    2.04215   2.04382   2.05074   2.05255   2.05639
 Alpha virt. eigenvalues --    2.05914   2.06266   2.06617   2.07183   2.07378
 Alpha virt. eigenvalues --    2.07516   2.07701   2.08694   2.08797   2.09124
 Alpha virt. eigenvalues --    2.09291   2.09761   2.09936   2.10832   2.11275
 Alpha virt. eigenvalues --    2.11357   2.11680   2.11686   2.11817   2.11879
 Alpha virt. eigenvalues --    2.12137   2.12611   2.12750   2.12933   2.12969
 Alpha virt. eigenvalues --    2.13064   2.13195   2.13874   2.13922   2.14240
 Alpha virt. eigenvalues --    2.14545   2.15470   2.15668   2.16102   2.16385
 Alpha virt. eigenvalues --    2.16631   2.16854   2.16975   2.17533   2.17639
 Alpha virt. eigenvalues --    2.17845   2.17912   2.18172   2.18194   2.18343
 Alpha virt. eigenvalues --    2.18579   2.18984   2.19148   2.19606   2.19779
 Alpha virt. eigenvalues --    2.20130   2.20184   2.20374   2.20693   2.20735
 Alpha virt. eigenvalues --    2.21205   2.21426   2.21824   2.21980   2.22202
 Alpha virt. eigenvalues --    2.22232   2.22793   2.22958   2.23453   2.23674
 Alpha virt. eigenvalues --    2.24516   2.24788   2.25008   2.25253   2.26495
 Alpha virt. eigenvalues --    2.26771   2.26907   2.27288   2.27305   2.27549
 Alpha virt. eigenvalues --    2.28270   2.28555   2.29390   2.29696   2.29909
 Alpha virt. eigenvalues --    2.30185   2.30610   2.30895   2.31100   2.31211
 Alpha virt. eigenvalues --    2.31478   2.31505   2.32226   2.32499   2.33304
 Alpha virt. eigenvalues --    2.33525   2.33603   2.33778   2.34232   2.34392
 Alpha virt. eigenvalues --    2.35607   2.35698   2.35935   2.36173   2.36460
 Alpha virt. eigenvalues --    2.36665   2.36743   2.36778   2.37785   2.37962
 Alpha virt. eigenvalues --    2.38361   2.38641   2.38988   2.39006   2.39746
 Alpha virt. eigenvalues --    2.40003   2.40293   2.40516   2.40635   2.41077
 Alpha virt. eigenvalues --    2.41374   2.41485   2.41766   2.41966   2.42283
 Alpha virt. eigenvalues --    2.42513   2.42991   2.43076   2.43333   2.43846
 Alpha virt. eigenvalues --    2.44211   2.44388   2.44870   2.45029   2.45101
 Alpha virt. eigenvalues --    2.45302   2.45687   2.45919   2.46433   2.46554
 Alpha virt. eigenvalues --    2.46648   2.46916   2.46993   2.47178   2.47430
 Alpha virt. eigenvalues --    2.47704   2.47869   2.48154   2.49402   2.49622
 Alpha virt. eigenvalues --    2.50107   2.50119   2.50613   2.50682   2.51325
 Alpha virt. eigenvalues --    2.51599   2.51864   2.52041   2.52604   2.52631
 Alpha virt. eigenvalues --    2.52947   2.53401   2.54027   2.54207   2.54257
 Alpha virt. eigenvalues --    2.54522   2.54970   2.55165   2.55665   2.56001
 Alpha virt. eigenvalues --    2.57983   2.58341   2.58741   2.59142   2.60436
 Alpha virt. eigenvalues --    2.60643   2.60724   2.61144   2.61814   2.62063
 Alpha virt. eigenvalues --    2.62649   2.62684   2.63107   2.63457   2.64052
 Alpha virt. eigenvalues --    2.64280   2.64448   2.64631   2.65194   2.65346
 Alpha virt. eigenvalues --    2.65908   2.66090   2.66838   2.67002   2.67064
 Alpha virt. eigenvalues --    2.67265   2.68020   2.68225   2.68968   2.69057
 Alpha virt. eigenvalues --    2.69241   2.69337   2.69459   2.69821   2.70097
 Alpha virt. eigenvalues --    2.70376   2.71121   2.71297   2.72086   2.72267
 Alpha virt. eigenvalues --    2.72709   2.72839   2.72968   2.73326   2.73452
 Alpha virt. eigenvalues --    2.73508   2.73825   2.74046   2.74722   2.74876
 Alpha virt. eigenvalues --    2.75182   2.75363   2.76699   2.76770   2.77464
 Alpha virt. eigenvalues --    2.77505   2.77593   2.77854   2.78308   2.78522
 Alpha virt. eigenvalues --    2.78931   2.78971   2.79304   2.79411   2.80494
 Alpha virt. eigenvalues --    2.80506   2.80970   2.81018   2.81389   2.81545
 Alpha virt. eigenvalues --    2.82126   2.82462   2.82486   2.82696   2.83869
 Alpha virt. eigenvalues --    2.84059   2.84098   2.84433   2.84684   2.84822
 Alpha virt. eigenvalues --    2.84991   2.85194   2.85774   2.85931   2.86947
 Alpha virt. eigenvalues --    2.87156   2.87477   2.87946   2.88277   2.88484
 Alpha virt. eigenvalues --    2.88645   2.88924   2.89096   2.89228   2.90590
 Alpha virt. eigenvalues --    2.90861   2.91236   2.91409   2.93299   2.93576
 Alpha virt. eigenvalues --    2.94014   2.94321   2.94632   2.94782   2.95466
 Alpha virt. eigenvalues --    2.95635   2.96126   2.96387   2.96576   2.96707
 Alpha virt. eigenvalues --    2.97135   2.97526   2.98022   2.98236   2.98345
 Alpha virt. eigenvalues --    2.98529   2.98607   2.98788   2.98806   2.99016
 Alpha virt. eigenvalues --    2.99102   2.99410   2.99754   2.99986   3.00203
 Alpha virt. eigenvalues --    3.00330   3.00508   3.00560   3.00695   3.01223
 Alpha virt. eigenvalues --    3.02030   3.02095   3.02166   3.02313   3.03001
 Alpha virt. eigenvalues --    3.03045   3.03244   3.03426   3.03504   3.03902
 Alpha virt. eigenvalues --    3.04179   3.04354   3.04585   3.04664   3.04789
 Alpha virt. eigenvalues --    3.05136   3.05371   3.05589   3.06223   3.06390
 Alpha virt. eigenvalues --    3.06921   3.07137   3.08116   3.08225   3.09561
 Alpha virt. eigenvalues --    3.09571   3.09872   3.10553   3.10584   3.10942
 Alpha virt. eigenvalues --    3.11393   3.11682   3.12038   3.12114   3.12220
 Alpha virt. eigenvalues --    3.12502   3.13460   3.13715   3.13874   3.13926
 Alpha virt. eigenvalues --    3.14487   3.14866   3.15928   3.16160   3.17471
 Alpha virt. eigenvalues --    3.17919   3.18103   3.18180   3.19249   3.19313
 Alpha virt. eigenvalues --    3.22806   3.22996   3.24143   3.24855   3.25043
 Alpha virt. eigenvalues --    3.25806   3.26675   3.26987   3.27714   3.27798
 Alpha virt. eigenvalues --    3.29617   3.29711   3.31715   3.31725   3.33454
 Alpha virt. eigenvalues --    3.33560   3.40612   3.41324   3.42941   3.43059
 Alpha virt. eigenvalues --    3.48922   3.49196   3.50159   3.50568   3.51115
 Alpha virt. eigenvalues --    3.51621   3.56707   3.57319   3.59231   3.59604
 Alpha virt. eigenvalues --    3.62896   3.63100   3.66305   3.66342   3.67840
 Alpha virt. eigenvalues --    3.67927   3.73702   3.74701   3.76445   3.77965
          Condensed to atoms (all electrons):
 Mulliken charges:
               1
     1  Mg   0.837091
     2  C   -0.001630
     3  C   -0.094618
     4  C   -0.046112
     5  C   -0.065931
     6  N   -0.256351
     7  C   -0.053344
     8  C   -0.013220
     9  C   -0.086826
    10  C    0.045562
    11  C    0.104907
    12  C    0.053185
    13  C   -0.070982
    14  H    0.035292
    15  N   -0.433125
    16  C    0.167790
    17  C   -0.177726
    18  C   -0.004409
    19  C    0.148617
    20  C    0.110341
    21  C    0.012080
    22  O   -0.250150
    23  C    0.062652
    24  N   -0.341053
    25  C    0.040861
    26  C   -0.028106
    27  C   -0.023764
    28  C    0.075105
    29  C    0.076209
    30  C    0.035363
    31  C   -0.004928
    32  N   -0.311054
    33  C    0.078952
    34  C   -0.169851
    35  C    0.010671
    36  C    0.084000
    37  C    0.126422
    38  C    0.053315
    39  O   -0.184882
    40  C   -0.007459
    41  C    0.211146
    42  O   -0.243838
    43  O   -0.307045
    44  C    0.156600
    45  H   -0.018112
    46  H   -0.017425
    47  H   -0.042015
    48  H    0.001531
    49  H   -0.004978
    50  H    0.025731
    51  H    0.016339
    52  H    0.016138
    53  H    0.008897
    54  H    0.045903
    55  H    0.018336
    56  H    0.016451
    57  H    0.005303
    58  H    0.026529
    59  H    0.038396
    60  H    0.037143
    61  H    0.035413
    62  H    0.030952
    63  H    0.015757
    64  H    0.009733
    65  H    0.022907
    66  H    0.012864
    67  H    0.004623
    68  H    0.006333
    69  H    0.004672
    70  H    0.009019
    71  H    0.014419
    72  H    0.029450
    73  H    0.050563
    74  H    0.007741
    75  H    0.045831
    76  H    0.033946
    77  H    0.041390
    78  H    0.043270
    79  H    0.058434
    80  Mg   0.835972
    81  C   -0.016852
    82  C   -0.088160
    83  C   -0.045953
    84  C   -0.066411
    85  N   -0.253876
    86  C   -0.050513
    87  C   -0.014385
    88  C   -0.090360
    89  C    0.044724
    90  C    0.114559
    91  C    0.062790
    92  C   -0.076998
    93  H    0.034168
    94  N   -0.423187
    95  C    0.161830
    96  C   -0.175697
    97  C   -0.008672
    98  C    0.151447
    99  C    0.099831
   100  C    0.014895
   101  O   -0.254173
   102  C    0.061480
   103  N   -0.350244
   104  C    0.037087
   105  C   -0.019570
   106  C   -0.034972
   107  C    0.089952
   108  C    0.073732
   109  C    0.034937
   110  C   -0.007467
   111  N   -0.324541
   112  C    0.078678
   113  C   -0.166037
   114  C    0.004859
   115  C    0.094637
   116  C    0.131431
   117  C    0.047008
   118  O   -0.169611
   119  C    0.000502
   120  C    0.212078
   121  O   -0.252742
   122  O   -0.304515
   123  C    0.153133
   124  H   -0.021406
   125  H   -0.016458
   126  H   -0.041318
   127  H   -0.001115
   128  H   -0.005366
   129  H    0.021990
   130  H    0.013876
   131  H    0.013953
   132  H    0.013711
   133  H    0.038212
   134  H    0.019437
   135  H    0.018869
   136  H    0.007586
   137  H    0.024775
   138  H    0.038737
   139  H    0.037633
   140  H    0.035472
   141  H    0.033471
   142  H    0.013658
   143  H    0.012301
   144  H    0.024280
   145  H    0.012089
   146  H    0.005638
   147  H    0.005520
   148  H    0.002420
   149  H    0.010794
   150  H    0.017255
   151  H    0.030726
   152  H    0.047136
   153  H    0.004824
   154  H    0.052079
   155  H    0.041410
   156  H    0.040769
   157  H    0.047526
   158  H    0.053478
 Sum of Mulliken charges =  -0.00000
 Mulliken charges with hydrogens summed into heavy atoms:
               1
     1  Mg   0.837091
     2  C   -0.001630
     3  C   -0.112731
     4  C   -0.063536
     5  C   -0.107946
     6  N   -0.256351
     7  C   -0.053344
     8  C   -0.011689
     9  C   -0.091803
    10  C    0.045562
    11  C    0.163116
    12  C    0.107986
    13  C   -0.000903
    15  N   -0.433125
    16  C    0.167790
    17  C   -0.177726
    18  C   -0.004409
    19  C    0.148617
    20  C    0.180569
    21  C    0.012080
    22  O   -0.250150
    23  C    0.166160
    24  N   -0.341053
    25  C    0.040861
    26  C   -0.012349
    27  C   -0.014031
    28  C    0.075105
    29  C    0.116602
    30  C    0.046368
    31  C    0.047961
    32  N   -0.311054
    33  C    0.078952
    34  C   -0.169851
    35  C    0.010671
    36  C    0.084000
    37  C    0.230556
    38  C    0.053315
    39  O   -0.184882
    40  C    0.026487
    41  C    0.211146
    42  O   -0.243838
    43  O   -0.307045
    44  C    0.299694
    80  Mg   0.835972
    81  C   -0.016852
    82  C   -0.109566
    83  C   -0.062411
    84  C   -0.107729
    85  N   -0.253876
    86  C   -0.050513
    87  C   -0.015500
    88  C   -0.095726
    89  C    0.044724
    90  C    0.164378
    91  C    0.114713
    92  C   -0.004523
    94  N   -0.423187
    95  C    0.161830
    96  C   -0.175697
    97  C   -0.008672
    98  C    0.151447
    99  C    0.170929
   100  C    0.014895
   101  O   -0.254173
   102  C    0.168056
   103  N   -0.350244
   104  C    0.037087
   105  C   -0.005913
   106  C   -0.022671
   107  C    0.089952
   108  C    0.115739
   109  C    0.042878
   110  C    0.051308
   111  N   -0.324541
   112  C    0.078678
   113  C   -0.166037
   114  C    0.004859
   115  C    0.094637
   116  C    0.235470
   117  C    0.047008
   118  O   -0.169611
   119  C    0.041913
   120  C    0.212078
   121  O   -0.252742
   122  O   -0.304515
   123  C    0.294907
 Electronic spatial extent (au):  <R**2>=          94673.2296
 Charge=             -0.0000 electrons
 Dipole moment (field-independent basis, Debye):
    X=              0.8620    Y=             -0.2391    Z=              7.7386  Tot=              7.7902
 Quadrupole moment (field-independent basis, Debye-Ang):
   XX=           -508.4970   YY=           -514.3932   ZZ=           -476.1164
   XY=            -24.4247   XZ=              3.0206   YZ=             57.0248
 Traceless Quadrupole moment (field-independent basis, Debye-Ang):
   XX=             -8.8281   YY=            -14.7243   ZZ=             23.5525
   XY=            -24.4247   XZ=              3.0206   YZ=             57.0248
 Octapole moment (field-independent basis, Debye-Ang**2):
  XXX=             92.0470  YYY=            430.7166  ZZZ=            155.3496  XYY=             73.4198
  XXY=            161.6022  XXZ=            279.7887  XZZ=            -23.3612  YZZ=           -164.9795
  YYZ=            -15.4077  XYZ=             47.6766
 Hexadecapole moment (field-independent basis, Debye-Ang**3):
 XXXX=         -69266.3219 YYYY=         -36842.5397 ZZZZ=         -20712.5201 XXXY=          -1872.5546
 XXXZ=           -923.6396 YYYX=            413.8801 YYYZ=            979.1089 ZZZX=            331.9296
 ZZZY=            -47.7739 XXYY=         -18767.8972 XXZZ=         -14206.3353 YYZZ=         -10202.5223
 XXYZ=            851.7680 YYXZ=            -55.3593 ZZXY=           -224.6869
 N-N= 1.578293435226D+04 E-N=-4.104818052657D+04  KE= 4.028796945340D+03
 Leave Link  601 at Fri Sep 10 02:19:22 2021, MaxMem= 23488102400 cpu:              21.3 elap:               1.0
 (Enter /sw/apps/gaussian-16.0/g16/l9999.exe)
 1\1\GINC-BP1-COMPUTE00091\SP\RCAM-B3LYP TD-FC\def2SVP\C68H72Mg2N8O8\OF
 15641\10-Sep-2021\0\\#p cam-b3lyp/Def2SVP td=(nstates=5)\\TDDFT excite
 d states in gaussian\\0,1\Mg,0,0.,0.,0.\C,0,-0.217,-2.218,2.801\C,0,-1
 .255,2.442,2.026\C,0,-0.245,1.85,-2.564\C,0,0.146,-2.824,-2.037\N,0,-0
 .617,-0.009,2.126\C,0,-0.594,-0.908,3.105\C,0,-0.936,-0.309,4.502\C,0,
 -1.773,0.964,4.032\C,0,-1.155,1.168,2.66\C,0,-3.263,0.685,3.863\C,0,0.
 345,0.11,5.299\C,0,0.124,0.397,6.787\H,0,1.168,0.033,7.733\N,0,-0.185,
 1.961,-0.152\C,0,-0.703,2.8,0.777\C,0,-0.62,4.156,0.193\C,0,-0.187,4.0
 15,-1.225\C,0,-0.214,2.583,-1.38\C,0,-0.887,5.406,0.974\C,0,0.181,5.01
 3,-2.277\O,0,0.303,4.69,-3.508\C,0,0.31,6.414,-1.837\N,0,-0.265,-0.413
 ,-2.029\C,0,-0.279,0.569,-2.937\C,0,-0.196,0.024,-4.332\C,0,0.124,-1.5
 33,-4.18\C,0,0.086,-1.632,-2.635\C,0,-1.451,0.205,-5.197\C,0,1.373,-2.
 07,-4.923\C,0,2.626,-1.49,-4.306\N,0,0.15,-2.144,0.303\C,0,0.173,-3.13
 6,-0.688\C,0,0.173,-4.438,0.004\C,0,0.133,-4.111,1.358\C,0,0.083,-2.69
 5,1.502\C,0,0.149,-5.715,-0.623\C,0,0.096,-4.629,2.716\O,0,0.208,-5.74
 7,3.221\C,0,-0.255,-3.428,3.701\C,0,0.717,-3.482,4.848\O,0,1.931,-3.25
 5,4.669\O,0,0.038,-3.556,6.003\C,0,0.943,-3.583,7.183\H,0,-1.859,3.22,
 2.497\H,0,-0.218,2.453,-3.474\H,0,0.276,-3.747,-2.605\H,0,-1.554,-0.94
 9,5.132\H,0,-1.585,1.831,4.665\H,0,-3.484,-0.377,3.969\H,0,-3.511,1.02
 7,2.858\H,0,-3.852,1.301,4.543\H,0,0.669,1.096,4.966\H,0,1.13,-0.639,5
 .189\H,0,-0.844,0.026,7.125\H,0,0.062,1.477,6.921\H,0,-1.344,5.186,1.9
 38\H,0,-1.651,5.963,0.432\H,0,0.007,6.02,1.084\H,0,-0.635,6.744,-1.405
 \H,0,0.665,6.97,-2.704\H,0,1.048,6.466,-1.036\H,0,0.608,0.501,-4.891\H
 ,0,-0.692,-2.156,-4.547\H,0,-1.267,0.74,-6.129\H,0,-2.204,0.714,-4.596
 \H,0,-1.967,-0.72,-5.453\H,0,1.356,-1.759,-5.967\H,0,1.452,-3.157,-4.9
 02\H,0,2.714,-0.522,-4.798\H,0,3.487,-2.121,-4.529\H,0,2.495,-1.303,-3
 .24\H,0,0.867,-6.333,-0.084\H,0,0.404,-5.642,-1.68\H,0,-0.891,-5.999,-
 0.463\H,0,-1.283,-3.581,4.028\H,0,0.698,-4.478,7.755\H,0,0.833,-2.619,
 7.68\H,0,2.,-3.754,6.976\Mg,0,8.94164,0.80383,0.68623\C,0,7.13044,-0.8
 5135,3.3052\C,0,9.36391,3.41902,2.83497\C,0,10.14607,2.46745,-1.73227\
 C,0,7.42339,-1.38713,-1.55882\N,0,8.28605,1.12394,2.77429\C,0,7.65716,
 0.39988,3.68785\C,0,7.65881,1.01828,5.11163\C,0,7.86365,2.5582,4.70471
 \C,0,8.58124,2.36505,3.37039\C,0,6.55794,3.29039,4.44323\C,0,8.84822,0
 .49316,5.99\C,0,8.73636,0.81402,7.48208\H,0,9.23468,-0.1653,8.44389\N,
 0,10.06574,2.43937,0.68621\C,0,10.1314,3.38164,1.65011\C,0,11.08767,4.
 38837,1.16411\C,0,11.45638,4.04732,-0.23676\C,0,10.53431,2.95949,-0.49
 464\C,0,11.62051,5.49062,2.03276\C,0,12.46241,4.61567,-1.19127\O,0,12.
 44823,4.32143,-2.43868\C,0,13.40639,5.59892,-0.64024\N,0,8.6472,0.7168
 8,-1.37\C,0,9.33538,1.51877,-2.20144\C,0,9.16366,1.09007,-3.63919\C,0,
 8.40857,-0.31846,-3.58025\C,0,8.18534,-0.42231,-2.05553\C,0,8.378,2.05
 148,-4.53072\C,0,9.08476,-1.5106,-4.31117\C,0,10.3708,-1.88376,-3.6095
 7\N,0,7.67865,-0.94317,0.8308\C,0,7.13513,-1.69334,-0.23499\C,0,6.2501
 ,-2.71603,0.35934\C,0,6.32275,-2.47325,1.73929\C,0,7.17589,-1.36386,1.
 9861\C,0,5.4782,-3.66936,-0.36279\C,0,5.86337,-2.89648,3.04257\O,0,5.1
 9228,-3.8378,3.46363\C,0,6.26625,-1.7857,4.10569\C,0,6.88953,-2.47763,
 5.2869\O,0,7.97111,-3.0799,5.16825\O,0,6.22148,-2.13252,6.40268\C,0,6.
 80933,-2.78518,7.6028\H,0,9.35805,4.38152,3.34727\H,0,10.6213,2.93712,
 -2.59659\H,0,6.99059,-2.17007,-2.18521\H,0,6.73205,0.89869,5.6599\H,0,
 8.50817,3.07165,5.41345\H,0,5.71058,2.62117,4.45916\H,0,6.66477,3.7423
 7,3.46581\H,0,6.44294,4.11922,5.1476\H,0,9.75403,1.06169,5.74296\H,0,8
 .98329,-0.56258,5.85655\H,0,7.72774,1.14488,7.75806\H,0,9.37045,1.6768
 4,7.69997\H,0,11.04353,5.58593,2.96088\H,0,11.4392,6.43172,1.50237\H,0
 ,12.69105,5.39445,2.22603\H,0,12.8527,6.43673,-0.22315\H,0,14.1021,5.8
 225,-1.45133\H,0,13.94901,5.13518,0.1911\H,0,10.1248,0.95372,-4.11951\
 H,0,7.4112,-0.26569,-4.041\H,0,8.94409,2.38125,-5.42228\H,0,8.07863,2.
 90286,-3.93401\H,0,7.42219,1.67268,-4.88868\H,0,9.35861,-1.22429,-5.32
 96\H,0,8.4516,-2.38865,-4.38271\H,0,11.09268,-1.17313,-4.02307\H,0,10.
 64981,-2.90969,-3.84125\H,0,10.30094,-1.69346,-2.53228\H,0,5.58875,-4.
 61415,0.15263\H,0,5.80233,-3.74056,-1.39895\H,0,4.48405,-3.22334,-0.27
 34\H,0,5.35714,-1.24853,4.37874\H,0,6.00115,-3.33394,8.09616\H,0,7.291
 4,-1.9729,8.17862\H,0,7.53278,-3.57542,7.43977\\Version=ES64L-G16RevA.
 03\State=1-A\HF=-4069.8085227\RMSD=6.582e-09\PG=C01 [X(C68H72Mg2N8O8)]
 \\@


 CHARLIE BROWN -- WHICH DO YOU THINK LASTS LONGER IN LIFE, THE GOOD THINGS 
                  OR THE BAD THINGS?
 LINUS --         GOOD THINGS LAST EIGHT SECONDS ..
                  BAD THINGS LAST THREE WEEKS
 CHARLIE BROWN -- WHAT ABOUT IN BETWEEN?
 SNOOPY --        IN BETWEEN YOU SHOULD TAKE A NAP ...
 Job cpu time:       0 days 16 hours 46 minutes 42.6 seconds.
 Elapsed time:       0 days  0 hours 42 minutes 38.3 seconds.
 File lengths (MBytes):  RWF=  13225 Int=      0 D2E=      0 Chk=    574 Scr=      1
 Normal termination of Gaussian 16 at Fri Sep 10 02:19:23 2021.
