 Entering Gaussian System, Link 0=g16
 Initial command:
 /sw/apps/gaussian-16.0/g16/l1.exe "/tmp/Gau-76298.inp" -scrdir="/tmp/"
 Entering Link 1 = /sw/apps/gaussian-16.0/g16/l1.exe PID=     76299.
  
 Copyright (c) 1988,1990,1992,1993,1995,1998,2003,2009,2016,
            Gaussian, Inc.  All Rights Reserved.
  
 This is part of the Gaussian(R) 16 program.  It is based on
 the Gaussian(R) 09 system (copyright 2009, Gaussian, Inc.),
 the Gaussian(R) 03 system (copyright 2003, Gaussian, Inc.),
 the Gaussian(R) 98 system (copyright 1998, Gaussian, Inc.),
 the Gaussian(R) 94 system (copyright 1995, Gaussian, Inc.),
 the Gaussian 92(TM) system (copyright 1992, Gaussian, Inc.),
 the Gaussian 90(TM) system (copyright 1990, Gaussian, Inc.),
 the Gaussian 88(TM) system (copyright 1988, Gaussian, Inc.),
 the Gaussian 86(TM) system (copyright 1986, Carnegie Mellon
 University), and the Gaussian 82(TM) system (copyright 1983,
 Carnegie Mellon University). Gaussian is a federally registered
 trademark of Gaussian, Inc.
  
 This software contains proprietary and confidential information,
 including trade secrets, belonging to Gaussian, Inc.
  
 This software is provided under written license and may be
 used, copied, transmitted, or stored only in accord with that
 written license.
  
 The following legend is applicable only to US Government
 contracts under FAR:
  
                    RESTRICTED RIGHTS LEGEND
  
 Use, reproduction and disclosure by the US Government is
 subject to restrictions as set forth in subparagraphs (a)
 and (c) of the Commercial Computer Software - Restricted
 Rights clause in FAR 52.227-19.
  
 Gaussian, Inc.
 340 Quinnipiac St., Bldg. 40, Wallingford CT 06492
  
  
 ---------------------------------------------------------------
 Warning -- This program may not be used in any manner that
 competes with the business of Gaussian, Inc. or will provide
 assistance to any competitor of Gaussian, Inc.  The licensee
 of this program is prohibited from giving any competitor of
 Gaussian, Inc. access to this program.  By using this program,
 the user acknowledges that Gaussian, Inc. is engaged in the
 business of creating and licensing software in the field of
 computational chemistry and represents and warrants to the
 licensee that it is not a competitor of Gaussian, Inc. and that
 it will not use this program in any manner prohibited above.
 ---------------------------------------------------------------
  

 Cite this work as:
 Gaussian 16, Revision A.03,
 M. J. Frisch, G. W. Trucks, H. B. Schlegel, G. E. Scuseria, 
 M. A. Robb, J. R. Cheeseman, G. Scalmani, V. Barone, 
 G. A. Petersson, H. Nakatsuji, X. Li, M. Caricato, A. V. Marenich, 
 J. Bloino, B. G. Janesko, R. Gomperts, B. Mennucci, H. P. Hratchian, 
 J. V. Ortiz, A. F. Izmaylov, J. L. Sonnenberg, D. Williams-Young, 
 F. Ding, F. Lipparini, F. Egidi, J. Goings, B. Peng, A. Petrone, 
 T. Henderson, D. Ranasinghe, V. G. Zakrzewski, J. Gao, N. Rega, 
 G. Zheng, W. Liang, M. Hada, M. Ehara, K. Toyota, R. Fukuda, 
 J. Hasegawa, M. Ishida, T. Nakajima, Y. Honda, O. Kitao, H. Nakai, 
 T. Vreven, K. Throssell, J. A. Montgomery, Jr., J. E. Peralta, 
 F. Ogliaro, M. J. Bearpark, J. J. Heyd, E. N. Brothers, K. N. Kudin, 
 V. N. Staroverov, T. A. Keith, R. Kobayashi, J. Normand, 
 K. Raghavachari, A. P. Rendell, J. C. Burant, S. S. Iyengar, 
 J. Tomasi, M. Cossi, J. M. Millam, M. Klene, C. Adamo, R. Cammi, 
 J. W. Ochterski, R. L. Martin, K. Morokuma, O. Farkas, 
 J. B. Foresman, and D. J. Fox, Gaussian, Inc., Wallingford CT, 2016.
 
 ******************************************
 Gaussian 16:  ES64L-G16RevA.03 25-Dec-2016
                11-Sep-2021 
 ******************************************
 %nproc=24
 Will use up to   24 processors via shared memory.
 %mem=175gb
 -----------------------------------
 #p cam-b3lyp/Def2SVP td=(nstates=5)
 -----------------------------------
 1/38=1,172=1/1;
 2/12=2,17=6,18=5,40=1/2;
 3/5=43,7=101,11=9,25=1,30=1,74=-40/1,2,3,8;
 4//1;
 5/5=2,38=5/2;
 8/6=1,10=1,108=5/1;
 9/41=5,42=1,70=2/14;
 6/7=2,8=2,9=2,10=2/1;
 99/5=1,9=1/99;
 Leave Link    1 at Sat Sep 11 17:23:16 2021, MaxMem= 23488102400 cpu:               0.7 elap:               0.0
 (Enter /sw/apps/gaussian-16.0/g16/l101.exe)
 --------------------------------
 TDDFT excited states in gaussian
 --------------------------------
 Symbolic Z-matrix:
 Charge =  0 Multiplicity = 1
 Mg                    0.        0.        0. 
 C                    -0.217    -2.218     2.801 
 C                    -1.255     2.442     2.026 
 C                    -0.245     1.85     -2.564 
 C                     0.146    -2.824    -2.037 
 N                    -0.617    -0.009     2.126 
 C                    -0.594    -0.908     3.105 
 C                    -0.936    -0.309     4.502 
 C                    -1.773     0.964     4.032 
 C                    -1.155     1.168     2.66 
 C                    -3.263     0.685     3.863 
 C                     0.345     0.11      5.299 
 C                     0.124     0.397     6.787 
 H                     1.168     0.033     7.733 
 N                    -0.185     1.961    -0.152 
 C                    -0.703     2.8       0.777 
 C                    -0.62      4.156     0.193 
 C                    -0.187     4.015    -1.225 
 C                    -0.214     2.583    -1.38 
 C                    -0.887     5.406     0.974 
 C                     0.181     5.013    -2.277 
 O                     0.303     4.69     -3.508 
 C                     0.31      6.414    -1.837 
 N                    -0.265    -0.413    -2.029 
 C                    -0.279     0.569    -2.937 
 C                    -0.196     0.024    -4.332 
 C                     0.124    -1.533    -4.18 
 C                     0.086    -1.632    -2.635 
 C                    -1.451     0.205    -5.197 
 C                     1.373    -2.07     -4.923 
 C                     2.626    -1.49     -4.306 
 N                     0.15     -2.144     0.303 
 C                     0.173    -3.136    -0.688 
 C                     0.173    -4.438     0.004 
 C                     0.133    -4.111     1.358 
 C                     0.083    -2.695     1.502 
 C                     0.149    -5.715    -0.623 
 C                     0.096    -4.629     2.716 
 O                     0.208    -5.747     3.221 
 C                    -0.255    -3.428     3.701 
 C                     0.717    -3.482     4.848 
 O                     1.931    -3.255     4.669 
 O                     0.038    -3.556     6.003 
 C                     0.943    -3.583     7.183 
 H                    -1.859     3.22      2.497 
 H                    -0.218     2.453    -3.474 
 H                     0.276    -3.747    -2.605 
 H                    -1.554    -0.949     5.132 
 H                    -1.585     1.831     4.665 
 H                    -3.484    -0.377     3.969 
 H                    -3.511     1.027     2.858 
 H                    -3.852     1.301     4.543 
 H                     0.669     1.096     4.966 
 H                     1.13     -0.639     5.189 
 H                    -0.844     0.026     7.125 
 H                     0.062     1.477     6.921 
 H                    -1.344     5.186     1.938 
 H                    -1.651     5.963     0.432 
 H                     0.007     6.02      1.084 
 H                    -0.635     6.744    -1.405 
 H                     0.665     6.97     -2.704 
 H                     1.048     6.466    -1.036 
 H                     0.608     0.501    -4.891 
 H                    -0.692    -2.156    -4.547 
 H                    -1.267     0.74     -6.129 
 H                    -2.204     0.714    -4.596 
 H                    -1.967    -0.72     -5.453 
 H                     1.356    -1.759    -5.967 
 H                     1.452    -3.157    -4.902 
 H                     2.714    -0.522    -4.798 
 H                     3.487    -2.121    -4.529 
 H                     2.495    -1.303    -3.24 
 H                     0.867    -6.333    -0.084 
 H                     0.404    -5.642    -1.68 
 H                    -0.891    -5.999    -0.463 
 H                    -1.283    -3.581     4.028 
 H                     0.698    -4.478     7.755 
 H                     0.833    -2.619     7.68 
 H                     2.       -3.754     6.976 
 Mg                    13.14592   1.17758   1.00359 
 C                     13.35565  -1.87413  -0.87314 
 C                     12.22882  -0.71286   3.69056 
 C                     12.51638   3.87101   2.55812 
 C                     12.95525   2.87122  -2.0363 
 N                     12.86429  -1.00213   1.25224 
 C                     13.03255  -2.06925   0.4859 
 C                     12.92274  -3.42371   1.2362 
 C                     12.02027  -2.94068   2.47357 
 C                     12.41646  -1.46597   2.50409 
 C                     10.52794  -3.02877   2.20058 
 C                     14.31852  -3.95584   1.71646 
 C                     14.32574  -5.41389   2.18101 
 H                     15.50861  -6.22553   1.908 
 N                     12.95089   1.52253   2.94821 
 C                     12.59314   0.63535   3.90016 
 C                     12.57507   1.38725   5.16447 
 C                     12.7908   2.82725   4.85697 
 C                     12.73918   2.79821   3.40901 
 C                     12.44674   0.72295   6.50449 
 C                     12.99529   4.03313   5.72314 
 O                     12.92513   5.22208   5.24954 
 C                     13.18735   3.7838    7.15926 
 N                     12.57529   3.07266   0.36688 
 C                     12.41828   4.07881   1.24491 
 C                     12.2779   5.40466   0.53583 
 C                     12.61685   5.10909  -0.99888 
 C                     12.81622   3.57937  -0.92394 
 C                     10.90526   6.06984   0.63462 
 C                     13.73388   5.969    -1.65117 
 C                     15.07083   5.63678  -1.02861 
 N                     13.33614   0.65309  -1.0837 
 C                     13.19456   1.51224  -2.19541 
 C                     13.29741   0.67525  -3.40837 
 C                     13.47004  -0.62639  -2.91398 
 C                     13.45424  -0.60503  -1.49314 
 C                     13.18141   1.1368   -4.74987 
 C                     13.65139  -2.01505  -3.27099 
 O                     13.8286  -2.6251   -4.32463 
 C                     13.45877  -2.90166  -1.96592 
 C                     14.59633  -3.88351  -1.89935 
 O                     15.76372  -3.48802  -1.73375 
 O                     14.09785  -5.13098  -1.82397 
 C                     15.18776  -6.13978  -1.74484 
 H                     11.71572  -1.1848    4.52894 
 H                     12.40401   4.84291   3.04418 
 H                     13.00391   3.33726  -3.02276 
 H                     12.41319  -4.20684   0.68771 
 H                     12.31698  -3.43436   3.39531 
 H                     10.32101  -3.29102   1.17367 
 H                     10.12883  -2.04911   2.42867 
 H                     10.05571  -3.71834   2.90615 
 H                     14.58739  -3.45771   2.65684 
 H                     15.06206  -3.81513   0.95621 
 H                     13.41589  -5.94705   1.87956 
 H                     14.29655  -5.43025   3.27321 
 H                     12.13765  -0.32498   6.40601 
 H                     11.61034   1.20538   7.02175 
 H                     13.34677   0.82719   7.11421 
 H                     12.32457   3.25093   7.55183 
 H                     13.40634   4.75901   7.59844 
 H                     14.05103   3.1217    7.28696 
 H                     12.98872   6.1259    0.9201 
 H                     11.74633   5.28107  -1.64885 
 H                     10.94412   7.0895    1.06224 
 H                     10.25957   5.43399   1.22565 
 H                     10.35949   6.14429  -0.30442 
 H                     13.5566   7.02986  -1.45803 
 H                     13.80226   5.84451  -2.72672 
 H                     15.07924   6.24808  -0.12123 
 H                     15.88382   5.91196  -1.69746 
 H                     15.1104   4.58608  -0.71859 
 H                     13.96426   0.64938  -5.31562 
 H                     13.26474   2.22016  -4.8062 
 H                     12.17265   0.78972  -4.98902 
 H                     12.49211  -3.40004  -2.04819 
 H                     15.02797  -6.84768  -2.564 
 H                     15.14741  -6.54305  -0.71552 
 H                     16.19752  -5.80377  -1.94961 
 
 ITRead=  0  0  0  0  0  0  0  0  0  0  0  0  0  0  0  0  0  0  0  0
 ITRead=  0  0  0  0  0  0  0  0  0  0  0  0  0  0  0  0  0  0  0  0
 ITRead=  0  0  0  0  0  0  0  0  0  0  0  0  0  0  0  0  0  0  0  0
 ITRead=  0  0  0  0  0  0  0  0  0  0  0  0  0  0  0  0  0  0  0  0
 ITRead=  0  0  0  0  0  0  0  0  0  0  0  0  0  0  0  0  0  0  0  0
 ITRead=  0  0  0  0  0  0  0  0  0  0  0  0  0  0  0  0  0  0  0  0
 ITRead=  0  0  0  0  0  0  0  0  0  0  0  0  0  0  0  0  0  0  0  0
 ITRead=  0  0  0  0  0  0  0  0  0  0  0  0  0  0  0  0  0  0
 MicOpt= -1 -1 -1 -1 -1 -1 -1 -1 -1 -1 -1 -1 -1 -1 -1 -1 -1 -1 -1 -1
 MicOpt= -1 -1 -1 -1 -1 -1 -1 -1 -1 -1 -1 -1 -1 -1 -1 -1 -1 -1 -1 -1
 MicOpt= -1 -1 -1 -1 -1 -1 -1 -1 -1 -1 -1 -1 -1 -1 -1 -1 -1 -1 -1 -1
 MicOpt= -1 -1 -1 -1 -1 -1 -1 -1 -1 -1 -1 -1 -1 -1 -1 -1 -1 -1 -1 -1
 MicOpt= -1 -1 -1 -1 -1 -1 -1 -1 -1 -1 -1 -1 -1 -1 -1 -1 -1 -1 -1 -1
 MicOpt= -1 -1 -1 -1 -1 -1 -1 -1 -1 -1 -1 -1 -1 -1 -1 -1 -1 -1 -1 -1
 MicOpt= -1 -1 -1 -1 -1 -1 -1 -1 -1 -1 -1 -1 -1 -1 -1 -1 -1 -1 -1 -1
 MicOpt= -1 -1 -1 -1 -1 -1 -1 -1 -1 -1 -1 -1 -1 -1 -1 -1 -1 -1
 NAtoms=    158 NQM=      158 NQMF=       0 NMMI=      0 NMMIF=      0
                NMic=       0 NMicF=      0.
                    Isotopes and Nuclear Properties:
 (Nuclear quadrupole moments (NQMom) in fm**2, nuclear magnetic moments (NMagM)
  in nuclear magnetons)

  Atom         1           2           3           4           5           6           7           8           9          10
 IAtWgt=          24          12          12          12          12          14          12          12          12          12
 AtmWgt=  23.9850450  12.0000000  12.0000000  12.0000000  12.0000000  14.0030740  12.0000000  12.0000000  12.0000000  12.0000000
 NucSpn=           0           0           0           0           0           2           0           0           0           0
 AtZEff=  -0.0000000  -0.0000000  -0.0000000  -0.0000000  -0.0000000  -0.0000000  -0.0000000  -0.0000000  -0.0000000  -0.0000000
 NQMom=    0.0000000   0.0000000   0.0000000   0.0000000   0.0000000   2.0440000   0.0000000   0.0000000   0.0000000   0.0000000
 NMagM=    0.0000000   0.0000000   0.0000000   0.0000000   0.0000000   0.4037610   0.0000000   0.0000000   0.0000000   0.0000000
 AtZNuc=  12.0000000   6.0000000   6.0000000   6.0000000   6.0000000   7.0000000   6.0000000   6.0000000   6.0000000   6.0000000

  Atom        11          12          13          14          15          16          17          18          19          20
 IAtWgt=          12          12          12           1          14          12          12          12          12          12
 AtmWgt=  12.0000000  12.0000000  12.0000000   1.0078250  14.0030740  12.0000000  12.0000000  12.0000000  12.0000000  12.0000000
 NucSpn=           0           0           0           1           2           0           0           0           0           0
 AtZEff=  -0.0000000  -0.0000000  -0.0000000  -0.0000000  -0.0000000  -0.0000000  -0.0000000  -0.0000000  -0.0000000  -0.0000000
 NQMom=    0.0000000   0.0000000   0.0000000   0.0000000   2.0440000   0.0000000   0.0000000   0.0000000   0.0000000   0.0000000
 NMagM=    0.0000000   0.0000000   0.0000000   2.7928460   0.4037610   0.0000000   0.0000000   0.0000000   0.0000000   0.0000000
 AtZNuc=   6.0000000   6.0000000   6.0000000   1.0000000   7.0000000   6.0000000   6.0000000   6.0000000   6.0000000   6.0000000

  Atom        21          22          23          24          25          26          27          28          29          30
 IAtWgt=          12          16          12          14          12          12          12          12          12          12
 AtmWgt=  12.0000000  15.9949146  12.0000000  14.0030740  12.0000000  12.0000000  12.0000000  12.0000000  12.0000000  12.0000000
 NucSpn=           0           0           0           2           0           0           0           0           0           0
 AtZEff=  -0.0000000  -0.0000000  -0.0000000  -0.0000000  -0.0000000  -0.0000000  -0.0000000  -0.0000000  -0.0000000  -0.0000000
 NQMom=    0.0000000   0.0000000   0.0000000   2.0440000   0.0000000   0.0000000   0.0000000   0.0000000   0.0000000   0.0000000
 NMagM=    0.0000000   0.0000000   0.0000000   0.4037610   0.0000000   0.0000000   0.0000000   0.0000000   0.0000000   0.0000000
 AtZNuc=   6.0000000   8.0000000   6.0000000   7.0000000   6.0000000   6.0000000   6.0000000   6.0000000   6.0000000   6.0000000

  Atom        31          32          33          34          35          36          37          38          39          40
 IAtWgt=          12          14          12          12          12          12          12          12          16          12
 AtmWgt=  12.0000000  14.0030740  12.0000000  12.0000000  12.0000000  12.0000000  12.0000000  12.0000000  15.9949146  12.0000000
 NucSpn=           0           2           0           0           0           0           0           0           0           0
 AtZEff=  -0.0000000  -0.0000000  -0.0000000  -0.0000000  -0.0000000  -0.0000000  -0.0000000  -0.0000000  -0.0000000  -0.0000000
 NQMom=    0.0000000   2.0440000   0.0000000   0.0000000   0.0000000   0.0000000   0.0000000   0.0000000   0.0000000   0.0000000
 NMagM=    0.0000000   0.4037610   0.0000000   0.0000000   0.0000000   0.0000000   0.0000000   0.0000000   0.0000000   0.0000000
 AtZNuc=   6.0000000   7.0000000   6.0000000   6.0000000   6.0000000   6.0000000   6.0000000   6.0000000   8.0000000   6.0000000

  Atom        41          42          43          44          45          46          47          48          49          50
 IAtWgt=          12          16          16          12           1           1           1           1           1           1
 AtmWgt=  12.0000000  15.9949146  15.9949146  12.0000000   1.0078250   1.0078250   1.0078250   1.0078250   1.0078250   1.0078250
 NucSpn=           0           0           0           0           1           1           1           1           1           1
 AtZEff=  -0.0000000  -0.0000000  -0.0000000  -0.0000000  -0.0000000  -0.0000000  -0.0000000  -0.0000000  -0.0000000  -0.0000000
 NQMom=    0.0000000   0.0000000   0.0000000   0.0000000   0.0000000   0.0000000   0.0000000   0.0000000   0.0000000   0.0000000
 NMagM=    0.0000000   0.0000000   0.0000000   0.0000000   2.7928460   2.7928460   2.7928460   2.7928460   2.7928460   2.7928460
 AtZNuc=   6.0000000   8.0000000   8.0000000   6.0000000   1.0000000   1.0000000   1.0000000   1.0000000   1.0000000   1.0000000

  Atom        51          52          53          54          55          56          57          58          59          60
 IAtWgt=           1           1           1           1           1           1           1           1           1           1
 AtmWgt=   1.0078250   1.0078250   1.0078250   1.0078250   1.0078250   1.0078250   1.0078250   1.0078250   1.0078250   1.0078250
 NucSpn=           1           1           1           1           1           1           1           1           1           1
 AtZEff=  -0.0000000  -0.0000000  -0.0000000  -0.0000000  -0.0000000  -0.0000000  -0.0000000  -0.0000000  -0.0000000  -0.0000000
 NQMom=    0.0000000   0.0000000   0.0000000   0.0000000   0.0000000   0.0000000   0.0000000   0.0000000   0.0000000   0.0000000
 NMagM=    2.7928460   2.7928460   2.7928460   2.7928460   2.7928460   2.7928460   2.7928460   2.7928460   2.7928460   2.7928460
 AtZNuc=   1.0000000   1.0000000   1.0000000   1.0000000   1.0000000   1.0000000   1.0000000   1.0000000   1.0000000   1.0000000

  Atom        61          62          63          64          65          66          67          68          69          70
 IAtWgt=           1           1           1           1           1           1           1           1           1           1
 AtmWgt=   1.0078250   1.0078250   1.0078250   1.0078250   1.0078250   1.0078250   1.0078250   1.0078250   1.0078250   1.0078250
 NucSpn=           1           1           1           1           1           1           1           1           1           1
 AtZEff=  -0.0000000  -0.0000000  -0.0000000  -0.0000000  -0.0000000  -0.0000000  -0.0000000  -0.0000000  -0.0000000  -0.0000000
 NQMom=    0.0000000   0.0000000   0.0000000   0.0000000   0.0000000   0.0000000   0.0000000   0.0000000   0.0000000   0.0000000
 NMagM=    2.7928460   2.7928460   2.7928460   2.7928460   2.7928460   2.7928460   2.7928460   2.7928460   2.7928460   2.7928460
 AtZNuc=   1.0000000   1.0000000   1.0000000   1.0000000   1.0000000   1.0000000   1.0000000   1.0000000   1.0000000   1.0000000

  Atom        71          72          73          74          75          76          77          78          79          80
 IAtWgt=           1           1           1           1           1           1           1           1           1          24
 AtmWgt=   1.0078250   1.0078250   1.0078250   1.0078250   1.0078250   1.0078250   1.0078250   1.0078250   1.0078250  23.9850450
 NucSpn=           1           1           1           1           1           1           1           1           1           0
 AtZEff=  -0.0000000  -0.0000000  -0.0000000  -0.0000000  -0.0000000  -0.0000000  -0.0000000  -0.0000000  -0.0000000  -0.0000000
 NQMom=    0.0000000   0.0000000   0.0000000   0.0000000   0.0000000   0.0000000   0.0000000   0.0000000   0.0000000   0.0000000
 NMagM=    2.7928460   2.7928460   2.7928460   2.7928460   2.7928460   2.7928460   2.7928460   2.7928460   2.7928460   0.0000000
 AtZNuc=   1.0000000   1.0000000   1.0000000   1.0000000   1.0000000   1.0000000   1.0000000   1.0000000   1.0000000  12.0000000

  Atom        81          82          83          84          85          86          87          88          89          90
 IAtWgt=          12          12          12          12          14          12          12          12          12          12
 AtmWgt=  12.0000000  12.0000000  12.0000000  12.0000000  14.0030740  12.0000000  12.0000000  12.0000000  12.0000000  12.0000000
 NucSpn=           0           0           0           0           2           0           0           0           0           0
 AtZEff=  -0.0000000  -0.0000000  -0.0000000  -0.0000000  -0.0000000  -0.0000000  -0.0000000  -0.0000000  -0.0000000  -0.0000000
 NQMom=    0.0000000   0.0000000   0.0000000   0.0000000   2.0440000   0.0000000   0.0000000   0.0000000   0.0000000   0.0000000
 NMagM=    0.0000000   0.0000000   0.0000000   0.0000000   0.4037610   0.0000000   0.0000000   0.0000000   0.0000000   0.0000000
 AtZNuc=   6.0000000   6.0000000   6.0000000   6.0000000   7.0000000   6.0000000   6.0000000   6.0000000   6.0000000   6.0000000

  Atom        91          92          93          94          95          96          97          98          99         100
 IAtWgt=          12          12           1          14          12          12          12          12          12          12
 AtmWgt=  12.0000000  12.0000000   1.0078250  14.0030740  12.0000000  12.0000000  12.0000000  12.0000000  12.0000000  12.0000000
 NucSpn=           0           0           1           2           0           0           0           0           0           0
 AtZEff=  -0.0000000  -0.0000000  -0.0000000  -0.0000000  -0.0000000  -0.0000000  -0.0000000  -0.0000000  -0.0000000  -0.0000000
 NQMom=    0.0000000   0.0000000   0.0000000   2.0440000   0.0000000   0.0000000   0.0000000   0.0000000   0.0000000   0.0000000
 NMagM=    0.0000000   0.0000000   2.7928460   0.4037610   0.0000000   0.0000000   0.0000000   0.0000000   0.0000000   0.0000000
 AtZNuc=   6.0000000   6.0000000   1.0000000   7.0000000   6.0000000   6.0000000   6.0000000   6.0000000   6.0000000   6.0000000

  Atom       101         102         103         104         105         106         107         108         109         110
 IAtWgt=          16          12          14          12          12          12          12          12          12          12
 AtmWgt=  15.9949146  12.0000000  14.0030740  12.0000000  12.0000000  12.0000000  12.0000000  12.0000000  12.0000000  12.0000000
 NucSpn=           0           0           2           0           0           0           0           0           0           0
 AtZEff=  -0.0000000  -0.0000000  -0.0000000  -0.0000000  -0.0000000  -0.0000000  -0.0000000  -0.0000000  -0.0000000  -0.0000000
 NQMom=    0.0000000   0.0000000   2.0440000   0.0000000   0.0000000   0.0000000   0.0000000   0.0000000   0.0000000   0.0000000
 NMagM=    0.0000000   0.0000000   0.4037610   0.0000000   0.0000000   0.0000000   0.0000000   0.0000000   0.0000000   0.0000000
 AtZNuc=   8.0000000   6.0000000   7.0000000   6.0000000   6.0000000   6.0000000   6.0000000   6.0000000   6.0000000   6.0000000

  Atom       111         112         113         114         115         116         117         118         119         120
 IAtWgt=          14          12          12          12          12          12          12          16          12          12
 AtmWgt=  14.0030740  12.0000000  12.0000000  12.0000000  12.0000000  12.0000000  12.0000000  15.9949146  12.0000000  12.0000000
 NucSpn=           2           0           0           0           0           0           0           0           0           0
 AtZEff=  -0.0000000  -0.0000000  -0.0000000  -0.0000000  -0.0000000  -0.0000000  -0.0000000  -0.0000000  -0.0000000  -0.0000000
 NQMom=    2.0440000   0.0000000   0.0000000   0.0000000   0.0000000   0.0000000   0.0000000   0.0000000   0.0000000   0.0000000
 NMagM=    0.4037610   0.0000000   0.0000000   0.0000000   0.0000000   0.0000000   0.0000000   0.0000000   0.0000000   0.0000000
 AtZNuc=   7.0000000   6.0000000   6.0000000   6.0000000   6.0000000   6.0000000   6.0000000   8.0000000   6.0000000   6.0000000

  Atom       121         122         123         124         125         126         127         128         129         130
 IAtWgt=          16          16          12           1           1           1           1           1           1           1
 AtmWgt=  15.9949146  15.9949146  12.0000000   1.0078250   1.0078250   1.0078250   1.0078250   1.0078250   1.0078250   1.0078250
 NucSpn=           0           0           0           1           1           1           1           1           1           1
 AtZEff=  -0.0000000  -0.0000000  -0.0000000  -0.0000000  -0.0000000  -0.0000000  -0.0000000  -0.0000000  -0.0000000  -0.0000000
 NQMom=    0.0000000   0.0000000   0.0000000   0.0000000   0.0000000   0.0000000   0.0000000   0.0000000   0.0000000   0.0000000
 NMagM=    0.0000000   0.0000000   0.0000000   2.7928460   2.7928460   2.7928460   2.7928460   2.7928460   2.7928460   2.7928460
 AtZNuc=   8.0000000   8.0000000   6.0000000   1.0000000   1.0000000   1.0000000   1.0000000   1.0000000   1.0000000   1.0000000

  Atom       131         132         133         134         135         136         137         138         139         140
 IAtWgt=           1           1           1           1           1           1           1           1           1           1
 AtmWgt=   1.0078250   1.0078250   1.0078250   1.0078250   1.0078250   1.0078250   1.0078250   1.0078250   1.0078250   1.0078250
 NucSpn=           1           1           1           1           1           1           1           1           1           1
 AtZEff=  -0.0000000  -0.0000000  -0.0000000  -0.0000000  -0.0000000  -0.0000000  -0.0000000  -0.0000000  -0.0000000  -0.0000000
 NQMom=    0.0000000   0.0000000   0.0000000   0.0000000   0.0000000   0.0000000   0.0000000   0.0000000   0.0000000   0.0000000
 NMagM=    2.7928460   2.7928460   2.7928460   2.7928460   2.7928460   2.7928460   2.7928460   2.7928460   2.7928460   2.7928460
 AtZNuc=   1.0000000   1.0000000   1.0000000   1.0000000   1.0000000   1.0000000   1.0000000   1.0000000   1.0000000   1.0000000

  Atom       141         142         143         144         145         146         147         148         149         150
 IAtWgt=           1           1           1           1           1           1           1           1           1           1
 AtmWgt=   1.0078250   1.0078250   1.0078250   1.0078250   1.0078250   1.0078250   1.0078250   1.0078250   1.0078250   1.0078250
 NucSpn=           1           1           1           1           1           1           1           1           1           1
 AtZEff=  -0.0000000  -0.0000000  -0.0000000  -0.0000000  -0.0000000  -0.0000000  -0.0000000  -0.0000000  -0.0000000  -0.0000000
 NQMom=    0.0000000   0.0000000   0.0000000   0.0000000   0.0000000   0.0000000   0.0000000   0.0000000   0.0000000   0.0000000
 NMagM=    2.7928460   2.7928460   2.7928460   2.7928460   2.7928460   2.7928460   2.7928460   2.7928460   2.7928460   2.7928460
 AtZNuc=   1.0000000   1.0000000   1.0000000   1.0000000   1.0000000   1.0000000   1.0000000   1.0000000   1.0000000   1.0000000

  Atom       151         152         153         154         155         156         157         158
 IAtWgt=           1           1           1           1           1           1           1           1
 AtmWgt=   1.0078250   1.0078250   1.0078250   1.0078250   1.0078250   1.0078250   1.0078250   1.0078250
 NucSpn=           1           1           1           1           1           1           1           1
 AtZEff=  -0.0000000  -0.0000000  -0.0000000  -0.0000000  -0.0000000  -0.0000000  -0.0000000  -0.0000000
 NQMom=    0.0000000   0.0000000   0.0000000   0.0000000   0.0000000   0.0000000   0.0000000   0.0000000
 NMagM=    2.7928460   2.7928460   2.7928460   2.7928460   2.7928460   2.7928460   2.7928460   2.7928460
 AtZNuc=   1.0000000   1.0000000   1.0000000   1.0000000   1.0000000   1.0000000   1.0000000   1.0000000
 Leave Link  101 at Sat Sep 11 17:23:16 2021, MaxMem= 23488102400 cpu:               3.2 elap:               0.2
 (Enter /sw/apps/gaussian-16.0/g16/l202.exe)
 Stoichiometry    C68H72Mg2N8O8
 Framework group  C1[X(C68H72Mg2N8O8)]
 Deg. of freedom   468
 Full point group                 C1      NOp   1
 Largest Abelian subgroup         C1      NOp   1
 Largest concise Abelian subgroup C1      NOp   1
                         Standard orientation:                         
 ---------------------------------------------------------------------
 Center     Atomic      Atomic             Coordinates (Angstroms)
 Number     Number       Type             X           Y           Z
 ---------------------------------------------------------------------
      1         12           0       -6.499357    0.505262   -0.726256
      2          6           0       -6.887177   -2.392458    1.338938
      3          6           0       -7.682224    2.346304    1.891846
      4          6           0       -6.596012    3.008215   -2.671123
      5          6           0       -6.441989   -1.640688   -3.471664
      6          7           0       -7.165033   -0.065001    1.306555
      7          6           0       -7.207816   -1.201660    1.994558
      8          6           0       -7.552869   -0.999764    3.500397
      9          6           0       -8.316747    0.395994    3.398669
     10          6           0       -7.658137    0.942476    2.144270
     11          6           0       -9.814114    0.253996    3.145231
     12          6           0       -6.271998   -0.888040    4.394051
     13          6           0       -6.513293   -1.017051    5.900864
     14          1           0       -5.510095   -1.685198    6.716045
     15          7           0       -6.586499    2.437524   -0.324234
     16          6           0       -7.084975    3.009529    0.798093
     17          6           0       -6.923542    4.468389    0.618243
     18          6           0       -6.465160    4.706680   -0.778610
     19          6           0       -6.557244    3.378505   -1.328927
     20          6           0       -7.148236    5.462602    1.715878
     21          6           0       -6.025495    5.938112   -1.505522
     22          8           0       -5.890723    5.965998   -2.776597
     23          6           0       -5.839627    7.151575   -0.689431
     24          7           0       -6.736917    0.690167   -2.791930
     25          6           0       -6.682805    1.886089   -3.388442
     26          6           0       -6.593840    1.749010   -4.879493
     27          6           0       -6.352507    0.196985   -5.167119
     28          6           0       -6.430898   -0.327636   -3.712162
     29          6           0       -7.818390    2.230160   -5.670051
     30          6           0       -5.113876   -0.175853   -6.019882
     31          6           0       -3.849082    0.141993   -5.254135
     32          7           0       -6.459434   -1.642801   -1.034923
     33          6           0       -6.461164   -2.318166   -2.263968
     34          6           0       -6.539618   -3.759793   -1.964591
     35          6           0       -6.595156   -3.822520   -0.573611
     36          6           0       -6.580476   -2.502566   -0.039009
     37          6           0       -6.610365   -4.807636   -2.924514
     38          6           0       -6.688331   -4.696650    0.584436
     39          8           0       -6.641796   -5.915501    0.756856
     40          6           0       -7.003970   -3.802004    1.863423
     41          6           0       -6.062440   -4.225326    2.957785
     42          8           0       -4.835136   -4.021446    2.860195
     43          8           0       -6.770712   -4.583334    4.039784
     44          6           0       -5.895555   -4.986472    5.172804
     45          1           0       -8.258923    2.992317    2.556696
     46          1           0       -6.519095    3.839183   -3.375405
     47          1           0       -6.343333   -2.373716   -4.274404
     48          1           0       -8.215253   -1.756924    3.920373
     49          1           0       -8.102042    1.040467    4.250889
     50          1           0      -10.088201   -0.782187    2.947437
     51          1           0      -10.022134    0.875725    2.274213
     52          1           0      -10.388435    0.685508    3.965432
     53          1           0       -5.893458    0.133297    4.353553
     54          1           0       -5.521505   -1.616628    4.085431
     55          1           0       -7.505529   -1.416337    6.112875
     56          1           0       -6.526486   -0.015806    6.331603
     57          1           0       -7.637415    5.006327    2.575565
     58          1           0       -7.871906    6.188192    1.345027
     59          1           0       -6.228588    5.973568    2.001349
     60          1           0       -6.777435    7.396886   -0.190544
     61          1           0       -5.438424    7.908238   -1.362741
     62          1           0       -5.118686    6.938849    0.100468
     63          1           0       -5.755180    2.320288   -5.275369
     64          1           0       -7.188760   -0.254896   -5.701122
     65          1           0       -7.587451    2.993835   -6.413134
     66          1           0       -8.559787    2.589777   -4.957101
     67          1           0       -8.372123    1.441969   -6.179514
     68          1           0       -5.091810    0.414919   -6.935004
     69          1           0       -5.087625   -1.228011   -6.303651
     70          1           0       -3.703398    1.202896   -5.454364
     71          1           0       -3.014426   -0.445883   -5.637491
     72          1           0       -3.995554    0.030296   -4.179633
     73          1           0       -5.935487   -5.588454   -2.574040
     74          1           0       -6.327803   -4.455698   -3.916432
     75          1           0       -7.666212   -5.069994   -2.859613
     76          1           0       -8.045407   -3.986061    2.125441
     77          1           0       -6.196362   -5.991495    5.468908
     78          1           0       -5.970631   -4.195348    5.919055
     79          1           0       -4.843476   -5.148097    4.935429
     80         12           0        6.661222    0.663299    0.682041
     81          6           0        6.767601   -1.749094   -1.972781
     82          6           0        5.592644   -1.851743    2.723451
     83          6           0        6.125882    2.844278    2.923512
     84          6           0        6.622313    3.146463   -1.762971
     85          7           0        6.269670   -1.481142    0.307422
     86          6           0        6.404199   -2.298932   -0.725755
     87          6           0        6.212226   -3.801375   -0.386077
     88          6           0        5.305623   -3.636619    0.929134
     89          6           0        5.771298   -2.252107    1.375161
     90          6           0        3.817491   -3.566407    0.629357
     91          6           0        7.569400   -4.519056   -0.061996
     92          6           0        7.495923   -6.047117   -0.024614
     93          1           0        8.644482   -6.811111   -0.503780
     94          7           0        6.438089    0.460894    2.643627
     95          6           0        6.016288   -0.636875    3.305647
     96          6           0        6.005107   -0.268327    4.729799
     97          6           0        6.296723    1.186835    4.840059
     98          6           0        6.277237    1.566293    3.441585
     99          6           0        5.814128   -1.272899    5.828789
    100          6           0        6.538766    2.090185    6.011207
    101          8           0        6.536690    3.366086    5.889176
    102          6           0        6.685411    1.439777    7.321535
    103          7           0        6.197033    2.688054    0.596949
    104          6           0        6.068232    3.415591    1.720349
    105          6           0        6.008045    4.892229    1.410032
    106          6           0        6.367791    5.019879   -0.142988
    107          6           0        6.491755    3.521877   -0.497993
    108          6           0        4.666983    5.574456    1.679264
    109          6           0        7.539563    5.967889   -0.518369
    110          6           0        8.844294    5.405198   -0.002188
    111          7           0        6.874233    0.733690   -1.466848
    112          6           0        6.799759    1.875454   -2.294442
    113          6           0        6.890331    1.406527   -3.692407
    114          6           0        6.988844    0.011394   -3.581103
    115          6           0        6.941264   -0.364307   -2.211403
    116          6           0        6.827634    2.229963   -4.851772
    117          6           0        7.111561   -1.229729   -4.311360
    118          8           0        7.283594   -1.529504   -5.492149
    119          6           0        6.846525   -2.434293   -3.308780
    120          6           0        7.933826   -3.453978   -3.510082
    121          8           0        9.114708   -3.182401   -3.230084
    122          8           0        7.374461   -4.644845   -3.791670
    123          6           0        8.412597   -5.691374   -3.988885
    124          1           0        5.038260   -2.511514    3.391463
    125          1           0        6.049071    3.646157    3.661456
    126          1           0        6.716054    3.866349   -2.578838
    127          1           0        5.678499   -4.372163   -1.136485
    128          1           0        5.556930   -4.383063    1.678152
    129          1           0        3.621998   -3.520026   -0.431667
    130          1           0        3.460679   -2.669944    1.119344
    131          1           0        3.296546   -4.399863    1.109255
    132          1           0        7.840060   -4.318366    0.982612
    133          1           0        8.336201   -4.210781   -0.745819
    134          1           0        6.568749   -6.426252   -0.471340
    135          1           0        7.440755   -6.366450    1.018940
    136          1           0        5.457475   -2.233829    5.437889
    137          1           0        4.990110   -0.910976    6.453183
    138          1           0        6.703795   -1.390604    6.451137
    139          1           0        5.789219    0.864526    7.541485
    140          1           0        6.940731    2.240523    8.018304
    141          1           0        7.513149    0.723952    7.266121
    142          1           0        6.743581    5.438994    1.987223
    143          1           0        5.521774    5.412102   -0.726306
    144          1           0        4.744829    6.430509    2.375818
    145          1           0        3.978048    4.833618    2.062754
    146          1           0        4.147255    5.936887    0.793978
    147          1           0        7.408970    6.940314   -0.037235
    148          1           0        7.626723    6.145474   -1.585069
    149          1           0        8.861056    5.737289    1.040180
    150          1           0        9.684786    5.813206   -0.559986
    151          1           0        8.826235    4.309155    0.001300
    152          1           0        7.599059    1.879618   -5.524578
    153          1           0        6.964124    3.279977   -4.601518
    154          1           0        5.809178    2.017017   -5.187416
    155          1           0        5.859226   -2.838341   -3.535867
    156          1           0        8.237997   -6.132778   -4.974966
    157          1           0        8.329175   -6.363494   -3.114214
    158          1           0        9.441776   -5.365055   -4.082450
 ---------------------------------------------------------------------
 Rotational constants (GHZ):           0.0203764           0.0077851           0.0076764
 Leave Link  202 at Sat Sep 11 17:23:16 2021, MaxMem= 23488102400 cpu:               0.2 elap:               0.0
 (Enter /sw/apps/gaussian-16.0/g16/l301.exe)
 Standard basis: def2SVP (5D, 7F)
 Ernie: Thresh=  0.10000D-02 Tol=  0.10000D-05 Strict=F.
 There are  1658 symmetry adapted cartesian basis functions of A   symmetry.
 There are  1572 symmetry adapted basis functions of A   symmetry.
  1572 basis functions,  2678 primitive gaussians,  1658 cartesian basis functions
   312 alpha electrons      312 beta electrons
       nuclear repulsion energy     14244.2163322242 Hartrees.
 IExCor=20419 DFT=T Ex+Corr=CAM-B3LYP ExCW=0 ScaHFX=  1.000000
 ScaDFX=  1.000000  1.000000  1.000000  0.810000 ScalE2=  1.000000  1.000000
 IRadAn=      5 IRanWt=     -1 IRanGd=            0 ICorTp=0 IEmpDi=  4
 HFx  wShort=  0.000000 wLong=  0.330000 cFull=  0.190000 cShort=  0.000000 cLong=  0.460000
 DFx  wShort=  0.000000 wLong=  0.330000 cFull=  0.190000 cShort=  0.000000 cLong=  0.460000
 NAtoms=  158 NActive=  158 NUniq=  158 SFac= 1.00D+00 NAtFMM=   60 NAOKFM=T Big=T
 Integral buffers will be    131072 words long.
 Raffenetti 1 integral format.
 Two-electron integral symmetry is turned on.
 Leave Link  301 at Sat Sep 11 17:23:16 2021, MaxMem= 23488102400 cpu:               1.5 elap:               0.1
 (Enter /sw/apps/gaussian-16.0/g16/l302.exe)
 NPDir=0 NMtPBC=     1 NCelOv=     1 NCel=       1 NClECP=     1 NCelD=      1
         NCelK=      1 NCelE2=     1 NClLst=     1 CellRange=     0.0.
 One-electron integrals computed using PRISM.
 One-electron integral symmetry used in STVInt
   1 Symmetry operations used in ECPInt.
 ECPInt:  NShTT=  271216 NPrTT=  987664 LenC2=  116668 LenP2D=  255360.
 LDataN:  DoStor=T MaxTD1= 4 Len=   56
 NBasis=  1572 RedAO= T EigKep=  3.36D-04  NBF=  1572
 NBsUse=  1572 1.00D-06 EigRej= -1.00D+00 NBFU=  1572
 Precomputing XC quadrature grid using
 IXCGrd= 4 IRadAn=           5 IRanWt=          -1 IRanGd=           0 AccXCQ= 0.00D+00.
 Generated NRdTot=       0 NPtTot=           0 NUsed=           0 NTot=          32
 NSgBfM=   997   974   983   994   997 MxSgAt=   158 MxSgA2=   157.
 Leave Link  302 at Sat Sep 11 17:23:21 2021, MaxMem= 23488102400 cpu:             114.3 elap:               4.8
 (Enter /sw/apps/gaussian-16.0/g16/l303.exe)
 DipDrv:  MaxL=1.
 Leave Link  303 at Sat Sep 11 17:23:22 2021, MaxMem= 23488102400 cpu:               8.0 elap:               0.4
 (Enter /sw/apps/gaussian-16.0/g16/l308.exe)
 Leave Link  308 at Sat Sep 11 17:23:22 2021, MaxMem= 23488102400 cpu:              15.9 elap:               0.7
 (Enter /sw/apps/gaussian-16.0/g16/l401.exe)
 ExpMin= 3.36D-02 ExpMax= 4.95D+03 ExpMxC= 7.45D+02 IAcc=3 IRadAn=         5 AccDes= 0.00D+00
 Harris functional with IExCor=20419 and IRadAn=       5 diagonalized for initial guess.
 HarFok:  IExCor=20419 AccDes= 0.00D+00 IRadAn=         5 IDoV= 1 UseB2=F ITyADJ=14
 ICtDFT=  3500011 ScaDFX=  1.000000  1.000000  1.000000  1.000000
 FoFCou: FMM=F IPFlag=           0 FMFlag=      100000 FMFlg1=        2001
         NFxFlg=           0 DoJE=T BraDBF=F KetDBF=T FulRan=T
         wScrn=  0.000000 ICntrl=       500 IOpCl=  0 I1Cent=   200000004 NGrid=           0
         NMat0=    1 NMatS0=      1 NMatT0=    0 NMatD0=    1 NMtDS0=    0 NMtDT0=    0
 Petite list used in FoFCou.
 Harris En= -3918.65801684989    
 JPrj=0 DoOrth=F DoCkMO=F.
 Leave Link  401 at Sat Sep 11 17:23:29 2021, MaxMem= 23488102400 cpu:             166.6 elap:               7.0
 (Enter /sw/apps/gaussian-16.0/g16/l502.exe)
 Integral symmetry usage will be decided dynamically.
 Closed shell SCF:
 Using DIIS extrapolation, IDIIS=  1040.
 NGot= 23488102400 LenX= 23482547354 LenY= 23479796732
 Requested convergence on RMS density matrix=1.00D-08 within 128 cycles.
 Requested convergence on MAX density matrix=1.00D-06.
 Requested convergence on             energy=1.00D-06.
 No special actions if energy rises.
 Fock matrices will be formed incrementally for  20 cycles.

 Cycle   1  Pass 1  IDiag  1:
 FoFJK:  IHMeth= 1 ICntrl=       0 DoSepK=T KAlg= 0 I1Cent=           0 FoldK=F
 IRaf=         1 NMat=       1 IRICut=       1 DoRegI=T DoRafI=F ISym2E= 0 IDoP0=0 IntGTp=1.
 FoFCou: FMM=T IPFlag=           0 FMFlag=      100000 FMFlg1=        2001
         NFxFlg=           0 DoJE=T BraDBF=F KetDBF=F FulRan=T
         wScrn=  0.000000 ICntrl=       500 IOpCl=  0 I1Cent=           0 NGrid=           0
         NMat0=    1 NMatS0=      1 NMatT0=    0 NMatD0=    1 NMtDS0=    0 NMtDT0=    0
 Symmetry not used in FoFCou.
 FMM levels:  10  Number of levels for PrismC:   9
 E= -4068.94996065192    
 DIIS: error= 2.04D-02 at cycle   1 NSaved=   1.
 NSaved= 1 IEnMin= 1 EnMin= -4068.94996065192     IErMin= 1 ErrMin= 2.04D-02
 ErrMax= 2.04D-02  0.00D+00 EMaxC= 1.00D-01 BMatC= 1.69D+00 BMatP= 1.69D+00
 IDIUse=3 WtCom= 7.96D-01 WtEn= 2.04D-01
 Coeff-Com:  0.100D+01
 Coeff-En:   0.100D+01
 Coeff:      0.100D+01
 Gap=     0.120 Goal=   None    Shift=    0.000
 GapD=    0.120 DampG=1.000 DampE=0.500 DampFc=0.5000 IDamp=-1.
 Damping current iteration by 5.00D-01
 RMSDP=1.57D-03 MaxDP=1.35D-01              OVMax= 2.00D-01

 Cycle   2  Pass 1  IDiag  1:
 RMSU=  7.69D-04    CP:  9.82D-01
 E= -4069.33889275898     Delta-E=       -0.388932107053 Rises=F Damp=T
 DIIS: error= 1.27D-02 at cycle   2 NSaved=   2.
 NSaved= 2 IEnMin= 2 EnMin= -4069.33889275898     IErMin= 2 ErrMin= 1.27D-02
 ErrMax= 1.27D-02  0.00D+00 EMaxC= 1.00D-01 BMatC= 3.06D-01 BMatP= 1.69D+00
 IDIUse=3 WtCom= 8.73D-01 WtEn= 1.27D-01
 Coeff-Com: -0.214D+00 0.121D+01
 Coeff-En:   0.000D+00 0.100D+01
 Coeff:     -0.186D+00 0.119D+01
 Gap=     0.135 Goal=   None    Shift=    0.000
 RMSDP=7.64D-04 MaxDP=9.45D-02 DE=-3.89D-01 OVMax= 1.86D-01

 Cycle   3  Pass 1  IDiag  1:
 RMSU=  7.31D-04    CP:  9.68D-01  1.24D+00
 E= -4069.62921600522     Delta-E=       -0.290323246245 Rises=F Damp=F
 DIIS: error= 1.56D-02 at cycle   3 NSaved=   3.
 NSaved= 3 IEnMin= 3 EnMin= -4069.62921600522     IErMin= 2 ErrMin= 1.27D-02
 ErrMax= 1.56D-02  0.00D+00 EMaxC= 1.00D-01 BMatC= 2.01D-01 BMatP= 3.06D-01
 IDIUse=3 WtCom= 8.44D-01 WtEn= 1.56D-01
 Coeff-Com: -0.267D+00 0.651D+00 0.616D+00
 Coeff-En:   0.000D+00 0.000D+00 0.100D+01
 Coeff:     -0.225D+00 0.549D+00 0.676D+00
 Gap=     0.122 Goal=   None    Shift=    0.000
 RMSDP=5.06D-04 MaxDP=4.70D-02 DE=-2.90D-01 OVMax= 1.39D-01

 Cycle   4  Pass 1  IDiag  1:
 RMSU=  2.64D-04    CP:  9.65D-01  1.55D+00  5.08D-01
 E= -4069.76613336654     Delta-E=       -0.136917361317 Rises=F Damp=F
 DIIS: error= 7.18D-03 at cycle   4 NSaved=   4.
 NSaved= 4 IEnMin= 4 EnMin= -4069.76613336654     IErMin= 4 ErrMin= 7.18D-03
 ErrMax= 7.18D-03  0.00D+00 EMaxC= 1.00D-01 BMatC= 4.96D-02 BMatP= 2.01D-01
 IDIUse=3 WtCom= 9.28D-01 WtEn= 7.18D-02
 Coeff-Com: -0.109D+00 0.225D+00 0.408D+00 0.475D+00
 Coeff-En:   0.000D+00 0.000D+00 0.218D+00 0.782D+00
 Coeff:     -0.101D+00 0.209D+00 0.394D+00 0.497D+00
 Gap=     0.121 Goal=   None    Shift=    0.000
 RMSDP=1.98D-04 MaxDP=2.01D-02 DE=-1.37D-01 OVMax= 5.92D-02

 Cycle   5  Pass 1  IDiag  1:
 RMSU=  7.51D-05    CP:  9.64D-01  1.49D+00  6.89D-01  5.52D-01
 E= -4069.81084842785     Delta-E=       -0.044715061311 Rises=F Damp=F
 DIIS: error= 7.76D-04 at cycle   5 NSaved=   5.
 NSaved= 5 IEnMin= 5 EnMin= -4069.81084842785     IErMin= 5 ErrMin= 7.76D-04
 ErrMax= 7.76D-04  0.00D+00 EMaxC= 1.00D-01 BMatC= 1.13D-03 BMatP= 4.96D-02
 IDIUse=3 WtCom= 9.92D-01 WtEn= 7.76D-03
 Coeff-Com: -0.356D-01 0.698D-01 0.164D+00 0.248D+00 0.554D+00
 Coeff-En:   0.000D+00 0.000D+00 0.000D+00 0.000D+00 0.100D+01
 Coeff:     -0.353D-01 0.693D-01 0.163D+00 0.246D+00 0.557D+00
 Gap=     0.121 Goal=   None    Shift=    0.000
 RMSDP=4.03D-05 MaxDP=4.09D-03 DE=-4.47D-02 OVMax= 1.51D-02

 Cycle   6  Pass 1  IDiag  1:
 RMSU=  3.01D-05    CP:  9.64D-01  1.49D+00  6.82D-01  6.23D-01  7.62D-01
 E= -4069.81181986440     Delta-E=       -0.000971436555 Rises=F Damp=F
 DIIS: error= 2.19D-04 at cycle   6 NSaved=   6.
 NSaved= 6 IEnMin= 6 EnMin= -4069.81181986440     IErMin= 6 ErrMin= 2.19D-04
 ErrMax= 2.19D-04  0.00D+00 EMaxC= 1.00D-01 BMatC= 1.75D-04 BMatP= 1.13D-03
 IDIUse=3 WtCom= 9.98D-01 WtEn= 2.19D-03
 Coeff-Com:  0.226D-02-0.666D-02 0.109D-01 0.397D-01 0.309D+00 0.645D+00
 Coeff-En:   0.000D+00 0.000D+00 0.000D+00 0.000D+00 0.107D+00 0.893D+00
 Coeff:      0.225D-02-0.665D-02 0.108D-01 0.397D-01 0.308D+00 0.646D+00
 Gap=     0.121 Goal=   None    Shift=    0.000
 RMSDP=1.58D-05 MaxDP=1.18D-03 DE=-9.71D-04 OVMax= 6.80D-03

 Cycle   7  Pass 1  IDiag  1:
 RMSU=  1.06D-05    CP:  9.64D-01  1.50D+00  6.87D-01  6.23D-01  8.63D-01
                    CP:  7.46D-01
 E= -4069.81200723578     Delta-E=       -0.000187371377 Rises=F Damp=F
 DIIS: error= 7.79D-05 at cycle   7 NSaved=   7.
 NSaved= 7 IEnMin= 7 EnMin= -4069.81200723578     IErMin= 7 ErrMin= 7.79D-05
 ErrMax= 7.79D-05  0.00D+00 EMaxC= 1.00D-01 BMatC= 2.06D-05 BMatP= 1.75D-04
 IDIUse=1 WtCom= 1.00D+00 WtEn= 0.00D+00
 Coeff-Com:  0.443D-02-0.969D-02-0.893D-02-0.381D-02 0.103D+00 0.329D+00
 Coeff-Com:  0.586D+00
 Coeff:      0.443D-02-0.969D-02-0.893D-02-0.381D-02 0.103D+00 0.329D+00
 Coeff:      0.586D+00
 Gap=     0.122 Goal=   None    Shift=    0.000
 RMSDP=6.51D-06 MaxDP=1.11D-03 DE=-1.87D-04 OVMax= 3.10D-03

 Cycle   8  Pass 1  IDiag  1:
 RMSU=  4.66D-06    CP:  9.64D-01  1.50D+00  6.88D-01  6.27D-01  8.67D-01
                    CP:  8.73D-01  8.22D-01
 E= -4069.81203279305     Delta-E=       -0.000025557270 Rises=F Damp=F
 DIIS: error= 4.72D-05 at cycle   8 NSaved=   8.
 NSaved= 8 IEnMin= 8 EnMin= -4069.81203279305     IErMin= 8 ErrMin= 4.72D-05
 ErrMax= 4.72D-05  0.00D+00 EMaxC= 1.00D-01 BMatC= 4.79D-06 BMatP= 2.06D-05
 IDIUse=1 WtCom= 1.00D+00 WtEn= 0.00D+00
 Coeff-Com:  0.215D-02-0.427D-02-0.775D-02-0.122D-01-0.119D-01 0.337D-01
 Coeff-Com:  0.345D+00 0.656D+00
 Coeff:      0.215D-02-0.427D-02-0.775D-02-0.122D-01-0.119D-01 0.337D-01
 Coeff:      0.345D+00 0.656D+00
 Gap=     0.122 Goal=   None    Shift=    0.000
 RMSDP=3.26D-06 MaxDP=3.25D-04 DE=-2.56D-05 OVMax= 1.09D-03

 Cycle   9  Pass 1  IDiag  1:
 RMSU=  1.90D-06    CP:  9.64D-01  1.50D+00  6.88D-01  6.29D-01  8.84D-01
                    CP:  8.99D-01  1.02D+00  9.37D-01
 E= -4069.81204043681     Delta-E=       -0.000007643761 Rises=F Damp=F
 DIIS: error= 2.05D-05 at cycle   9 NSaved=   9.
 NSaved= 9 IEnMin= 9 EnMin= -4069.81204043681     IErMin= 9 ErrMin= 2.05D-05
 ErrMax= 2.05D-05  0.00D+00 EMaxC= 1.00D-01 BMatC= 6.84D-07 BMatP= 4.79D-06
 IDIUse=1 WtCom= 1.00D+00 WtEn= 0.00D+00
 Coeff-Com:  0.472D-03-0.787D-03-0.268D-02-0.603D-02-0.215D-01-0.381D-01
 Coeff-Com:  0.105D+00 0.327D+00 0.637D+00
 Coeff:      0.472D-03-0.787D-03-0.268D-02-0.603D-02-0.215D-01-0.381D-01
 Coeff:      0.105D+00 0.327D+00 0.637D+00
 Gap=     0.122 Goal=   None    Shift=    0.000
 RMSDP=1.40D-06 MaxDP=1.49D-04 DE=-7.64D-06 OVMax= 7.56D-04

 Cycle  10  Pass 1  IDiag  1:
 RMSU=  9.33D-07    CP:  9.64D-01  1.50D+00  6.88D-01  6.29D-01  8.87D-01
                    CP:  9.12D-01  1.06D+00  1.10D+00  1.05D+00
 E= -4069.81204199748     Delta-E=       -0.000001560667 Rises=F Damp=F
 DIIS: error= 1.04D-05 at cycle  10 NSaved=  10.
 NSaved=10 IEnMin=10 EnMin= -4069.81204199748     IErMin=10 ErrMin= 1.04D-05
 ErrMax= 1.04D-05  0.00D+00 EMaxC= 1.00D-01 BMatC= 1.69D-07 BMatP= 6.84D-07
 IDIUse=1 WtCom= 1.00D+00 WtEn= 0.00D+00
 Coeff-Com: -0.424D-03 0.888D-03 0.122D-02 0.112D-02-0.383D-02-0.308D-01
 Coeff-Com: -0.461D-01-0.758D-01 0.254D+00 0.900D+00
 Coeff:     -0.424D-03 0.888D-03 0.122D-02 0.112D-02-0.383D-02-0.308D-01
 Coeff:     -0.461D-01-0.758D-01 0.254D+00 0.900D+00
 Gap=     0.122 Goal=   None    Shift=    0.000
 RMSDP=1.21D-06 MaxDP=1.19D-04 DE=-1.56D-06 OVMax= 6.12D-04

 Cycle  11  Pass 1  IDiag  1:
 RMSU=  5.10D-07    CP:  9.64D-01  1.50D+00  6.89D-01  6.30D-01  8.89D-01
                    CP:  9.23D-01  1.11D+00  1.21D+00  1.39D+00  1.37D+00
 E= -4069.81204276827     Delta-E=       -0.000000770793 Rises=F Damp=F
 DIIS: error= 3.97D-06 at cycle  11 NSaved=  11.
 NSaved=11 IEnMin=11 EnMin= -4069.81204276827     IErMin=11 ErrMin= 3.97D-06
 ErrMax= 3.97D-06  0.00D+00 EMaxC= 1.00D-01 BMatC= 6.00D-08 BMatP= 1.69D-07
 IDIUse=1 WtCom= 1.00D+00 WtEn= 0.00D+00
 Coeff-Com: -0.326D-03 0.635D-03 0.132D-02 0.212D-02 0.443D-02-0.839D-02
 Coeff-Com: -0.433D-01-0.132D+00-0.225D-01 0.463D+00 0.735D+00
 Coeff:     -0.326D-03 0.635D-03 0.132D-02 0.212D-02 0.443D-02-0.839D-02
 Coeff:     -0.433D-01-0.132D+00-0.225D-01 0.463D+00 0.735D+00
 Gap=     0.122 Goal=   None    Shift=    0.000
 RMSDP=6.77D-07 MaxDP=5.97D-05 DE=-7.71D-07 OVMax= 3.70D-04

 Cycle  12  Pass 1  IDiag  1:
 RMSU=  2.60D-07    CP:  9.64D-01  1.50D+00  6.89D-01  6.30D-01  8.90D-01
                    CP:  9.25D-01  1.13D+00  1.28D+00  1.55D+00  1.75D+00
                    CP:  1.20D+00
 E= -4069.81204302424     Delta-E=       -0.000000255968 Rises=F Damp=F
 DIIS: error= 2.43D-06 at cycle  12 NSaved=  12.
 NSaved=12 IEnMin=12 EnMin= -4069.81204302424     IErMin=12 ErrMin= 2.43D-06
 ErrMax= 2.43D-06  0.00D+00 EMaxC= 1.00D-01 BMatC= 1.46D-08 BMatP= 6.00D-08
 IDIUse=1 WtCom= 1.00D+00 WtEn= 0.00D+00
 Coeff-Com: -0.968D-06-0.144D-04 0.179D-03 0.509D-03 0.330D-02 0.391D-02
 Coeff-Com:  0.284D-02-0.349D-01-0.666D-01-0.753D-01 0.250D+00 0.916D+00
 Coeff:     -0.968D-06-0.144D-04 0.179D-03 0.509D-03 0.330D-02 0.391D-02
 Coeff:      0.284D-02-0.349D-01-0.666D-01-0.753D-01 0.250D+00 0.916D+00
 Gap=     0.122 Goal=   None    Shift=    0.000
 RMSDP=4.31D-07 MaxDP=3.04D-05 DE=-2.56D-07 OVMax= 2.49D-04

 Cycle  13  Pass 1  IDiag  1:
 RMSU=  1.64D-07    CP:  9.64D-01  1.50D+00  6.89D-01  6.30D-01  8.90D-01
                    CP:  9.25D-01  1.14D+00  1.30D+00  1.66D+00  1.98D+00
                    CP:  1.61D+00  1.27D+00
 E= -4069.81204311390     Delta-E=       -0.000000089662 Rises=F Damp=F
 DIIS: error= 1.27D-06 at cycle  13 NSaved=  13.
 NSaved=13 IEnMin=13 EnMin= -4069.81204311390     IErMin=13 ErrMin= 1.27D-06
 ErrMax= 1.27D-06  0.00D+00 EMaxC= 1.00D-01 BMatC= 8.04D-09 BMatP= 1.46D-08
 IDIUse=1 WtCom= 1.00D+00 WtEn= 0.00D+00
 Coeff-Com:  0.119D-03-0.244D-03-0.368D-03-0.457D-03 0.571D-03 0.500D-02
 Coeff-Com:  0.197D-01 0.225D-01-0.334D-01-0.241D+00-0.156D+00 0.599D+00
 Coeff-Com:  0.784D+00
 Coeff:      0.119D-03-0.244D-03-0.368D-03-0.457D-03 0.571D-03 0.500D-02
 Coeff:      0.197D-01 0.225D-01-0.334D-01-0.241D+00-0.156D+00 0.599D+00
 Coeff:      0.784D+00
 Gap=     0.122 Goal=   None    Shift=    0.000
 RMSDP=3.34D-07 MaxDP=2.17D-05 DE=-8.97D-08 OVMax= 1.95D-04

 Cycle  14  Pass 1  IDiag  1:
 RMSU=  7.52D-08    CP:  9.64D-01  1.50D+00  6.89D-01  6.30D-01  8.91D-01
                    CP:  9.26D-01  1.15D+00  1.33D+00  1.73D+00  2.17D+00
                    CP:  1.88D+00  1.79D+00  1.09D+00
 E= -4069.81204314876     Delta-E=       -0.000000034855 Rises=F Damp=F
 DIIS: error= 6.74D-07 at cycle  14 NSaved=  14.
 NSaved=14 IEnMin=14 EnMin= -4069.81204314876     IErMin=14 ErrMin= 6.74D-07
 ErrMax= 6.74D-07  0.00D+00 EMaxC= 1.00D-01 BMatC= 1.24D-09 BMatP= 8.04D-09
 IDIUse=1 WtCom= 1.00D+00 WtEn= 0.00D+00
 Coeff-Com:  0.664D-04-0.131D-03-0.246D-03-0.387D-03-0.487D-03 0.128D-02
 Coeff-Com:  0.108D-01 0.190D-01 0.376D-02-0.997D-01-0.142D+00 0.938D-01
 Coeff-Com:  0.404D+00 0.710D+00
 Coeff:      0.664D-04-0.131D-03-0.246D-03-0.387D-03-0.487D-03 0.128D-02
 Coeff:      0.108D-01 0.190D-01 0.376D-02-0.997D-01-0.142D+00 0.938D-01
 Coeff:      0.404D+00 0.710D+00
 Gap=     0.122 Goal=   None    Shift=    0.000
 RMSDP=1.01D-07 MaxDP=6.83D-06 DE=-3.49D-08 OVMax= 5.49D-05

 Cycle  15  Pass 1  IDiag  1:
 RMSU=  3.80D-08    CP:  9.64D-01  1.50D+00  6.89D-01  6.30D-01  8.91D-01
                    CP:  9.26D-01  1.15D+00  1.33D+00  1.75D+00  2.21D+00
                    CP:  1.98D+00  1.92D+00  1.33D+00  1.03D+00
 E= -4069.81204315282     Delta-E=       -0.000000004056 Rises=F Damp=F
 DIIS: error= 3.12D-07 at cycle  15 NSaved=  15.
 NSaved=15 IEnMin=15 EnMin= -4069.81204315282     IErMin=15 ErrMin= 3.12D-07
 ErrMax= 3.12D-07  0.00D+00 EMaxC= 1.00D-01 BMatC= 2.25D-10 BMatP= 1.24D-09
 IDIUse=1 WtCom= 1.00D+00 WtEn= 0.00D+00
 Coeff-Com:  0.532D-05-0.887D-05-0.322D-04-0.809D-04-0.298D-03-0.510D-03
 Coeff-Com:  0.116D-02 0.247D-02 0.872D-02 0.167D-02-0.307D-01-0.730D-01
 Coeff-Com:  0.285D-01 0.297D+00 0.765D+00
 Coeff:      0.532D-05-0.887D-05-0.322D-04-0.809D-04-0.298D-03-0.510D-03
 Coeff:      0.116D-02 0.247D-02 0.872D-02 0.167D-02-0.307D-01-0.730D-01
 Coeff:      0.285D-01 0.297D+00 0.765D+00
 Gap=     0.122 Goal=   None    Shift=    0.000
 RMSDP=4.04D-08 MaxDP=2.61D-06 DE=-4.06D-09 OVMax= 2.72D-05

 Cycle  16  Pass 1  IDiag  1:
 RMSU=  1.84D-08    CP:  9.64D-01  1.50D+00  6.89D-01  6.30D-01  8.91D-01
                    CP:  9.26D-01  1.15D+00  1.33D+00  1.75D+00  2.22D+00
                    CP:  2.01D+00  1.99D+00  1.40D+00  1.24D+00  1.15D+00
 E= -4069.81204315366     Delta-E=       -0.000000000848 Rises=F Damp=F
 DIIS: error= 1.74D-07 at cycle  16 NSaved=  16.
 NSaved=16 IEnMin=16 EnMin= -4069.81204315366     IErMin=16 ErrMin= 1.74D-07
 ErrMax= 1.74D-07  0.00D+00 EMaxC= 1.00D-01 BMatC= 8.11D-11 BMatP= 2.25D-10
 IDIUse=1 WtCom= 1.00D+00 WtEn= 0.00D+00
 Coeff-Com: -0.141D-04 0.286D-04 0.467D-04 0.537D-04-0.250D-04-0.628D-03
 Coeff-Com: -0.196D-02-0.425D-02 0.452D-02 0.254D-01 0.206D-01-0.645D-01
 Coeff-Com: -0.830D-01-0.370D-01 0.398D+00 0.743D+00
 Coeff:     -0.141D-04 0.286D-04 0.467D-04 0.537D-04-0.250D-04-0.628D-03
 Coeff:     -0.196D-02-0.425D-02 0.452D-02 0.254D-01 0.206D-01-0.645D-01
 Coeff:     -0.830D-01-0.370D-01 0.398D+00 0.743D+00
 Gap=     0.122 Goal=   None    Shift=    0.000
 RMSDP=2.27D-08 MaxDP=1.58D-06 DE=-8.48D-10 OVMax= 1.26D-05

 Cycle  17  Pass 1  IDiag  1:
 RMSU=  1.03D-08    CP:  9.64D-01  1.50D+00  6.89D-01  6.30D-01  8.91D-01
                    CP:  9.26D-01  1.15D+00  1.33D+00  1.76D+00  2.23D+00
                    CP:  2.02D+00  2.01D+00  1.45D+00  1.34D+00  1.44D+00
                    CP:  1.25D+00
 E= -4069.81204315427     Delta-E=       -0.000000000608 Rises=F Damp=F
 DIIS: error= 9.81D-08 at cycle  17 NSaved=  17.
 NSaved=17 IEnMin=17 EnMin= -4069.81204315427     IErMin=17 ErrMin= 9.81D-08
 ErrMax= 9.81D-08  0.00D+00 EMaxC= 1.00D-01 BMatC= 1.79D-11 BMatP= 8.11D-11
 IDIUse=1 WtCom= 1.00D+00 WtEn= 0.00D+00
 Coeff-Com: -0.717D-05 0.140D-04 0.284D-04 0.424D-04 0.848D-04-0.123D-03
 Coeff-Com: -0.955D-03-0.280D-02 0.169D-03 0.914D-02 0.174D-01-0.722D-02
 Coeff-Com: -0.366D-01-0.101D+00-0.319D-01 0.294D+00 0.859D+00
 Coeff:     -0.717D-05 0.140D-04 0.284D-04 0.424D-04 0.848D-04-0.123D-03
 Coeff:     -0.955D-03-0.280D-02 0.169D-03 0.914D-02 0.174D-01-0.722D-02
 Coeff:     -0.366D-01-0.101D+00-0.319D-01 0.294D+00 0.859D+00
 Gap=     0.122 Goal=   None    Shift=    0.000
 RMSDP=1.36D-08 MaxDP=1.02D-06 DE=-6.08D-10 OVMax= 8.88D-06

 Cycle  18  Pass 1  IDiag  1:
 RMSU=  4.79D-09    CP:  9.64D-01  1.50D+00  6.89D-01  6.30D-01  8.91D-01
                    CP:  9.26D-01  1.15D+00  1.33D+00  1.76D+00  2.23D+00
                    CP:  2.02D+00  2.02D+00  1.47D+00  1.41D+00  1.61D+00
                    CP:  1.66D+00  1.39D+00
 E= -4069.81204315407     Delta-E=        0.000000000204 Rises=F Damp=F
 DIIS: error= 5.37D-08 at cycle  18 NSaved=  18.
 NSaved=18 IEnMin=17 EnMin= -4069.81204315427     IErMin=18 ErrMin= 5.37D-08
 ErrMax= 5.37D-08  0.00D+00 EMaxC= 1.00D-01 BMatC= 6.87D-12 BMatP= 1.79D-11
 IDIUse=1 WtCom= 1.00D+00 WtEn= 0.00D+00
 Coeff-Com:  0.207D-05-0.444D-05-0.467D-05-0.197D-05 0.588D-04 0.181D-03
 Coeff-Com:  0.409D-03 0.224D-03-0.125D-02-0.622D-02-0.166D-03 0.203D-01
 Coeff-Com:  0.187D-01-0.323D-01-0.163D+00-0.192D+00 0.345D+00 0.101D+01
 Coeff:      0.207D-05-0.444D-05-0.467D-05-0.197D-05 0.588D-04 0.181D-03
 Coeff:      0.409D-03 0.224D-03-0.125D-02-0.622D-02-0.166D-03 0.203D-01
 Coeff:      0.187D-01-0.323D-01-0.163D+00-0.192D+00 0.345D+00 0.101D+01
 Gap=     0.122 Goal=   None    Shift=    0.000
 RMSDP=1.17D-08 MaxDP=7.59D-07 DE= 2.04D-10 OVMax= 6.69D-06

 Cycle  19  Pass 1  IDiag  1:
 RMSU=  2.76D-09    CP:  9.64D-01  1.50D+00  6.89D-01  6.30D-01  8.91D-01
                    CP:  9.26D-01  1.15D+00  1.33D+00  1.76D+00  2.23D+00
                    CP:  2.03D+00  2.02D+00  1.48D+00  1.46D+00  1.77D+00
                    CP:  2.00D+00  1.94D+00  1.39D+00
 E= -4069.81204315411     Delta-E=       -0.000000000044 Rises=F Damp=F
 DIIS: error= 3.42D-08 at cycle  19 NSaved=  19.
 NSaved=19 IEnMin=17 EnMin= -4069.81204315427     IErMin=19 ErrMin= 3.42D-08
 ErrMax= 3.42D-08  0.00D+00 EMaxC= 1.00D-01 BMatC= 1.41D-12 BMatP= 6.87D-12
 IDIUse=1 WtCom= 1.00D+00 WtEn= 0.00D+00
 Coeff-Com:  0.288D-05-0.580D-05-0.987D-05-0.125D-04 0.103D-04 0.116D-03
 Coeff-Com:  0.475D-03 0.790D-03-0.575D-03-0.592D-02-0.484D-02 0.119D-01
 Coeff-Com:  0.201D-01 0.116D-01-0.679D-01-0.177D+00-0.382D-01 0.489D+00
 Coeff-Com:  0.760D+00
 Coeff:      0.288D-05-0.580D-05-0.987D-05-0.125D-04 0.103D-04 0.116D-03
 Coeff:      0.475D-03 0.790D-03-0.575D-03-0.592D-02-0.484D-02 0.119D-01
 Coeff:      0.201D-01 0.116D-01-0.679D-01-0.177D+00-0.382D-01 0.489D+00
 Coeff:      0.760D+00
 Gap=     0.122 Goal=   None    Shift=    0.000
 RMSDP=4.54D-09 MaxDP=3.14D-07 DE=-4.37D-11 OVMax= 2.95D-06

 SCF Done:  E(RCAM-B3LYP) =  -4069.81204315     A.U. after   19 cycles
            NFock= 19  Conv=0.45D-08     -V/T= 2.0102
 KE= 4.028801994136D+03 PE=-3.796939318683D+04 EE= 1.562656281731D+04
 Leave Link  502 at Sat Sep 11 17:32:27 2021, MaxMem= 23488102400 cpu:           12340.6 elap:             537.9
 (Enter /sw/apps/gaussian-16.0/g16/l801.exe)
 DoSCS=F DFT=T ScalE2(SS,OS)=  1.000000  1.000000
 ExpMin= 3.36D-02 ExpMax= 4.95D+03 ExpMxC= 7.45D+02 IAcc=3 IRadAn=         5 AccDes= 0.00D+00
 HarFok:  IExCor=  205 AccDes= 0.00D+00 IRadAn=         5 IDoV=-2 UseB2=F ITyADJ=14
 ICtDFT= 12500011 ScaDFX=  1.000000  1.000000  1.000000  1.000000
 GSVD:  LWork=       -9588 too small for GESVD, short by       45590 words or       45590 for optimal perf.
 Largest valence mixing into a core orbital is  2.03D-04
 Largest core mixing into a valence orbital is  5.24D-05
 Range of M.O.s used for correlation:    95  1572
 NBasis=  1572 NAE=   312 NBE=   312 NFC=    94 NFV=     0
 NROrb=   1478 NOA=   218 NOB=   218 NVA=  1260 NVB=  1260
 Leave Link  801 at Sat Sep 11 17:32:28 2021, MaxMem= 23488102400 cpu:               8.9 elap:               0.4
 (Enter /sw/apps/gaussian-16.0/g16/l914.exe)
 RHF ground state
 Two-electron integrals replicated using symmetry.
 MDV= 23488102400 DFT=T DoStab=F Mixed=T DoRPA=T DoScal=F NonHer=T
 Making orbital integer symmetry assigments:
 Orbital symmetries:
       Occupied  (A) (A) (A) (A) (A) (A) (A) (A) (A) (A) (A) (A)
                 (A) (A) (A) (A) (A) (A) (A) (A) (A) (A) (A) (A)
                 (A) (A) (A) (A) (A) (A) (A) (A) (A) (A) (A) (A)
                 (A) (A) (A) (A) (A) (A) (A) (A) (A) (A) (A) (A)
                 (A) (A) (A) (A) (A) (A) (A) (A) (A) (A) (A) (A)
                 (A) (A) (A) (A) (A) (A) (A) (A) (A) (A) (A) (A)
                 (A) (A) (A) (A) (A) (A) (A) (A) (A) (A) (A) (A)
                 (A) (A) (A) (A) (A) (A) (A) (A) (A) (A) (A) (A)
                 (A) (A) (A) (A) (A) (A) (A) (A) (A) (A) (A) (A)
                 (A) (A) (A) (A) (A) (A) (A) (A) (A) (A) (A) (A)
                 (A) (A) (A) (A) (A) (A) (A) (A) (A) (A) (A) (A)
                 (A) (A) (A) (A) (A) (A) (A) (A) (A) (A) (A) (A)
                 (A) (A) (A) (A) (A) (A) (A) (A) (A) (A) (A) (A)
                 (A) (A) (A) (A) (A) (A) (A) (A) (A) (A) (A) (A)
                 (A) (A) (A) (A) (A) (A) (A) (A) (A) (A) (A) (A)
                 (A) (A) (A) (A) (A) (A) (A) (A) (A) (A) (A) (A)
                 (A) (A) (A) (A) (A) (A) (A) (A) (A) (A) (A) (A)
                 (A) (A) (A) (A) (A) (A) (A) (A) (A) (A) (A) (A)
                 (A) (A) (A) (A) (A) (A) (A) (A) (A) (A) (A) (A)
                 (A) (A) (A) (A) (A) (A) (A) (A) (A) (A) (A) (A)
                 (A) (A) (A) (A) (A) (A) (A) (A) (A) (A) (A) (A)
                 (A) (A) (A) (A) (A) (A) (A) (A) (A) (A) (A) (A)
                 (A) (A) (A) (A) (A) (A) (A) (A) (A) (A) (A) (A)
                 (A) (A) (A) (A) (A) (A) (A) (A) (A) (A) (A) (A)
                 (A) (A) (A) (A) (A) (A) (A) (A) (A) (A) (A) (A)
                 (A) (A) (A) (A) (A) (A) (A) (A) (A) (A) (A) (A)
       Virtual   (A) (A) (A) (A) (A) (A) (A) (A) (A) (A) (A) (A)
                 (A) (A) (A) (A) (A) (A) (A) (A) (A) (A) (A) (A)
                 (A) (A) (A) (A) (A) (A) (A) (A) (A) (A) (A) (A)
                 (A) (A) (A) (A) (A) (A) (A) (A) (A) (A) (A) (A)
                 (A) (A) (A) (A) (A) (A) (A) (A) (A) (A) (A) (A)
                 (A) (A) (A) (A) (A) (A) (A) (A) (A) (A) (A) (A)
                 (A) (A) (A) (A) (A) (A) (A) (A) (A) (A) (A) (A)
                 (A) (A) (A) (A) (A) (A) (A) (A) (A) (A) (A) (A)
                 (A) (A) (A) (A) (A) (A) (A) (A) (A) (A) (A) (A)
                 (A) (A) (A) (A) (A) (A) (A) (A) (A) (A) (A) (A)
                 (A) (A) (A) (A) (A) (A) (A) (A) (A) (A) (A) (A)
                 (A) (A) (A) (A) (A) (A) (A) (A) (A) (A) (A) (A)
                 (A) (A) (A) (A) (A) (A) (A) (A) (A) (A) (A) (A)
                 (A) (A) (A) (A) (A) (A) (A) (A) (A) (A) (A) (A)
                 (A) (A) (A) (A) (A) (A) (A) (A) (A) (A) (A) (A)
                 (A) (A) (A) (A) (A) (A) (A) (A) (A) (A) (A) (A)
                 (A) (A) (A) (A) (A) (A) (A) (A) (A) (A) (A) (A)
                 (A) (A) (A) (A) (A) (A) (A) (A) (A) (A) (A) (A)
                 (A) (A) (A) (A) (A) (A) (A) (A) (A) (A) (A) (A)
                 (A) (A) (A) (A) (A) (A) (A) (A) (A) (A) (A) (A)
                 (A) (A) (A) (A) (A) (A) (A) (A) (A) (A) (A) (A)
                 (A) (A) (A) (A) (A) (A) (A) (A) (A) (A) (A) (A)
                 (A) (A) (A) (A) (A) (A) (A) (A) (A) (A) (A) (A)
                 (A) (A) (A) (A) (A) (A) (A) (A) (A) (A) (A) (A)
                 (A) (A) (A) (A) (A) (A) (A) (A) (A) (A) (A) (A)
                 (A) (A) (A) (A) (A) (A) (A) (A) (A) (A) (A) (A)
                 (A) (A) (A) (A) (A) (A) (A) (A) (A) (A) (A) (A)
                 (A) (A) (A) (A) (A) (A) (A) (A) (A) (A) (A) (A)
                 (A) (A) (A) (A) (A) (A) (A) (A) (A) (A) (A) (A)
                 (A) (A) (A) (A) (A) (A) (A) (A) (A) (A) (A) (A)
                 (A) (A) (A) (A) (A) (A) (A) (A) (A) (A) (A) (A)
                 (A) (A) (A) (A) (A) (A) (A) (A) (A) (A) (A) (A)
                 (A) (A) (A) (A) (A) (A) (A) (A) (A) (A) (A) (A)
                 (A) (A) (A) (A) (A) (A) (A) (A) (A) (A) (A) (A)
                 (A) (A) (A) (A) (A) (A) (A) (A) (A) (A) (A) (A)
                 (A) (A) (A) (A) (A) (A) (A) (A) (A) (A) (A) (A)
                 (A) (A) (A) (A) (A) (A) (A) (A) (A) (A) (A) (A)
                 (A) (A) (A) (A) (A) (A) (A) (A) (A) (A) (A) (A)
                 (A) (A) (A) (A) (A) (A) (A) (A) (A) (A) (A) (A)
                 (A) (A) (A) (A) (A) (A) (A) (A) (A) (A) (A) (A)
                 (A) (A) (A) (A) (A) (A) (A) (A) (A) (A) (A) (A)
                 (A) (A) (A) (A) (A) (A) (A) (A) (A) (A) (A) (A)
                 (A) (A) (A) (A) (A) (A) (A) (A) (A) (A) (A) (A)
                 (A) (A) (A) (A) (A) (A) (A) (A) (A) (A) (A) (A)
                 (A) (A) (A) (A) (A) (A) (A) (A) (A) (A) (A) (A)
                 (A) (A) (A) (A) (A) (A) (A) (A) (A) (A) (A) (A)
                 (A) (A) (A) (A) (A) (A) (A) (A) (A) (A) (A) (A)
                 (A) (A) (A) (A) (A) (A) (A) (A) (A) (A) (A) (A)
                 (A) (A) (A) (A) (A) (A) (A) (A) (A) (A) (A) (A)
                 (A) (A) (A) (A) (A) (A) (A) (A) (A) (A) (A) (A)
                 (A) (A) (A) (A) (A) (A) (A) (A) (A) (A) (A) (A)
                 (A) (A) (A) (A) (A) (A) (A) (A) (A) (A) (A) (A)
                 (A) (A) (A) (A) (A) (A) (A) (A) (A) (A) (A) (A)
                 (A) (A) (A) (A) (A) (A) (A) (A) (A) (A) (A) (A)
                 (A) (A) (A) (A) (A) (A) (A) (A) (A) (A) (A) (A)
                 (A) (A) (A) (A) (A) (A) (A) (A) (A) (A) (A) (A)
                 (A) (A) (A) (A) (A) (A) (A) (A) (A) (A) (A) (A)
                 (A) (A) (A) (A) (A) (A) (A) (A) (A) (A) (A) (A)
                 (A) (A) (A) (A) (A) (A) (A) (A) (A) (A) (A) (A)
                 (A) (A) (A) (A) (A) (A) (A) (A) (A) (A) (A) (A)
                 (A) (A) (A) (A) (A) (A) (A) (A) (A) (A) (A) (A)
                 (A) (A) (A) (A) (A) (A) (A) (A) (A) (A) (A) (A)
                 (A) (A) (A) (A) (A) (A) (A) (A) (A) (A) (A) (A)
                 (A) (A) (A) (A) (A) (A) (A) (A) (A) (A) (A) (A)
                 (A) (A) (A) (A) (A) (A) (A) (A) (A) (A) (A) (A)
                 (A) (A) (A) (A) (A) (A) (A) (A) (A) (A) (A) (A)
                 (A) (A) (A) (A) (A) (A) (A) (A) (A) (A) (A) (A)
                 (A) (A) (A) (A) (A) (A) (A) (A) (A) (A) (A) (A)
                 (A) (A) (A) (A) (A) (A) (A) (A) (A) (A) (A) (A)
                 (A) (A) (A) (A) (A) (A) (A) (A) (A) (A) (A) (A)
                 (A) (A) (A) (A) (A) (A) (A) (A) (A) (A) (A) (A)
                 (A) (A) (A) (A) (A) (A) (A) (A) (A) (A) (A) (A)
                 (A) (A) (A) (A) (A) (A) (A) (A) (A) (A) (A) (A)
                 (A) (A) (A) (A) (A) (A) (A) (A) (A) (A) (A) (A)
                 (A) (A) (A) (A) (A) (A) (A) (A) (A) (A) (A) (A)
                 (A) (A) (A) (A) (A) (A) (A) (A) (A) (A) (A) (A)
                 (A) (A) (A) (A) (A) (A) (A) (A) (A) (A) (A) (A)
                 (A) (A) (A) (A) (A) (A) (A) (A) (A) (A) (A) (A)
                 (A) (A) (A) (A) (A) (A) (A) (A) (A) (A) (A) (A)
                 (A) (A) (A) (A) (A) (A) (A) (A) (A) (A) (A) (A)
                 (A) (A) (A) (A) (A) (A) (A) (A) (A) (A) (A) (A)
                 (A) (A) (A) (A) (A) (A) (A) (A) (A) (A) (A) (A)
                 (A) (A) (A) (A) (A) (A) (A) (A) (A) (A) (A) (A)
                 (A) (A) (A) (A) (A) (A) (A) (A) (A) (A) (A) (A)
                 (A) (A) (A) (A) (A) (A) (A) (A) (A) (A) (A) (A)
                 (A) (A) (A) (A) (A) (A) (A) (A) (A) (A) (A) (A)
                 (A) (A) (A) (A) (A) (A) (A) (A) (A) (A) (A) (A)
                 (A) (A) (A) (A) (A) (A) (A) (A) (A) (A) (A) (A)
                 (A) (A) (A) (A) (A) (A) (A) (A) (A) (A) (A) (A)
                 (A) (A) (A) (A) (A) (A) (A) (A) (A) (A) (A) (A)
                 (A) (A) (A) (A) (A) (A) (A) (A) (A) (A) (A) (A)
                 (A) (A) (A) (A) (A) (A) (A) (A) (A) (A) (A) (A)
                 (A) (A) (A) (A) (A) (A) (A) (A) (A) (A) (A) (A)
                 (A) (A) (A) (A) (A) (A) (A) (A) (A) (A) (A) (A)
                 (A) (A) (A) (A) (A) (A) (A) (A) (A) (A) (A) (A)
                 (A) (A) (A) (A) (A) (A) (A) (A) (A) (A) (A) (A)
                 (A) (A) (A) (A) (A) (A) (A) (A) (A) (A) (A) (A)
                 (A) (A) (A) (A) (A) (A) (A) (A) (A) (A) (A) (A)
                 (A) (A) (A) (A) (A) (A) (A) (A) (A) (A) (A) (A)
                 (A) (A) (A) (A) (A) (A) (A) (A) (A) (A) (A) (A)
                 (A) (A) (A) (A) (A) (A) (A) (A) (A) (A) (A) (A)
                 (A) (A) (A) (A) (A) (A) (A) (A) (A) (A) (A) (A)
                 (A) (A) (A) (A) (A) (A) (A) (A) (A) (A) (A) (A)
                 (A) (A) (A) (A) (A) (A) (A) (A) (A) (A) (A) (A)
                 (A) (A) (A) (A) (A) (A) (A) (A) (A) (A) (A) (A)
    20 initial guesses have been made.
 Convergence on wavefunction:    0.001000000000000
 Davidson Disk Diagonalization:  ConvIn= 1.00D-03 SkipCon=T Conv= 1.00D-03.
 Max sub-space:  2000 roots to seek:    20 dimension of matrix:       549360
 Iteration     1 Dimension    20 NMult     0 NNew     20
 CISAX will form    20 AO SS matrices at one time.
 NMat=    20 NSing=    20 JSym2X= 0.
 FoFJK:  IHMeth= 1 ICntrl=       0 DoSepK=T KAlg= 0 I1Cent=           0 FoldK=F
 IRaf=         1 NMat=      40 IRICut=       1 DoRegI=T DoRafI=F ISym2E= 0 IDoP0=3 IntGTp=3.
 FoFCou: FMM=T IPFlag=           0 FMFlag=      100000 FMFlg1=        2001
         NFxFlg=           0 DoJE=F BraDBF=F KetDBF=F FulRan=T
         wScrn=  0.000000 ICntrl=       500 IOpCl=  0 I1Cent=           0 NGrid=           0
         NMat0=   20 NMatS0=     20 NMatT0=    0 NMatD0=   20 NMtDS0=    0 NMtDT0=    0
 Symmetry not used in FoFCou.
 FMM levels:  10  Number of levels for PrismC:   9
 New state      1 was old state      7
 New state      2 was old state      6
 New state      3 was old state      1
 New state      4 was old state      2
 New state      5 was old state      3
 Excitation Energies [eV] at current iteration:
 Root      1 :     2.613154534785572
 Root      2 :     2.620308787286960
 Root      3 :     2.645888476707780
 Root      4 :     2.679521784558892
 Root      5 :     2.690812302307869
 Root      6 :     2.742371633316958
 Root      7 :     3.435186533270605
 Root      8 :     3.543253506822023
 Root      9 :     3.629295375388174
 Root     10 :     3.671337861032971
 Root     11 :     3.736792594990793
 Root     12 :     3.758901921750870
 Root     13 :     4.299114622715885
 Root     14 :     4.308786985589639
 Root     15 :     4.553533806346382
 Root     16 :     4.675478193868162
 Root     17 :     4.865622826771600
 Root     18 :     4.900076484268611
 Root     19 :     4.970070269647468
 Root     20 :     5.003514050388412
 Iteration     2 Dimension    30 NMult    20 NNew     10
 CISAX will form    10 AO SS matrices at one time.
 NMat=    10 NSing=    10 JSym2X= 0.
 New state      1 was old state      4
 Root      1 not converged, maximum delta is    0.186637994580392
 New state      2 was old state      5
 Root      2 not converged, maximum delta is    0.188781602475281
 New state      3 was old state      2
 Root      3 not converged, maximum delta is    0.220550356416961
 New state      4 was old state      1
 Root      4 not converged, maximum delta is    0.217067455194250
 New state      5 was old state      3
 Root      5 not converged, maximum delta is    0.001345044302270
 Excitation Energies [eV] at current iteration:
 Root      1 :     1.800338763524519   Change is   -0.879183021034373
 Root      2 :     1.806555256635033   Change is   -0.884257045672836
 Root      3 :     2.235921152974742   Change is   -0.384387634312217
 Root      4 :     2.239279038882195   Change is   -0.373875495903378
 Root      5 :     2.645713041514204   Change is   -0.000175435193576
 Iteration     3 Dimension    40 NMult    30 NNew     10
 CISAX will form    10 AO SS matrices at one time.
 NMat=    10 NSing=    10 JSym2X= 0.
 Root      1 not converged, maximum delta is    0.069298908074318
 Root      2 not converged, maximum delta is    0.070646667816366
 Root      3 not converged, maximum delta is    0.072169352114844
 Root      4 not converged, maximum delta is    0.071919679965144
 Root      5 has converged.
 Excitation Energies [eV] at current iteration:
 Root      1 :     1.693191539686630   Change is   -0.107147223837889
 Root      2 :     1.698340046248236   Change is   -0.108215210386797
 Root      3 :     2.193667070254974   Change is   -0.042254082719769
 Root      4 :     2.200518694088425   Change is   -0.038760344793770
 Root      5 :     2.645712247928207   Change is   -0.000000793585997
 Iteration     4 Dimension    48 NMult    40 NNew      8
 CISAX will form     8 AO SS matrices at one time.
 NMat=     8 NSing=     8 JSym2X= 0.
 Root      1 not converged, maximum delta is    0.013155263311075
 Root      2 not converged, maximum delta is    0.013379572262369
 Root      3 not converged, maximum delta is    0.009953238422031
 Root      4 not converged, maximum delta is    0.008806223491102
 Root      5 has converged.
 Excitation Energies [eV] at current iteration:
 Root      1 :     1.676475485274386   Change is   -0.016716054412244
 Root      2 :     1.681458988140101   Change is   -0.016881058108135
 Root      3 :     2.186277220401148   Change is   -0.007389849853826
 Root      4 :     2.193769345456474   Change is   -0.006749348631951
 Root      5 :     2.645712247924945   Change is   -0.000000000003263
 Iteration     5 Dimension    56 NMult    48 NNew      8
 CISAX will form     8 AO SS matrices at one time.
 NMat=     8 NSing=     8 JSym2X= 0.
 Root      1 not converged, maximum delta is    0.002141079834124
 Root      2 not converged, maximum delta is    0.002186424264569
 Root      3 not converged, maximum delta is    0.002560475581727
 Root      4 not converged, maximum delta is    0.002377396295800
 Root      5 has converged.
 Excitation Energies [eV] at current iteration:
 Root      1 :     1.674695993329815   Change is   -0.001779491944571
 Root      2 :     1.679689324484800   Change is   -0.001769663655301
 Root      3 :     2.185412327616140   Change is   -0.000864892785008
 Root      4 :     2.192997968649817   Change is   -0.000771376806656
 Root      5 :     2.645712247923920   Change is   -0.000000000001025
 Iteration     6 Dimension    64 NMult    56 NNew      8
 CISAX will form     8 AO SS matrices at one time.
 NMat=     8 NSing=     8 JSym2X= 0.
 Root      1 not converged, maximum delta is    0.001358679285818
 Root      2 not converged, maximum delta is    0.001378741649956
 Root      3 not converged, maximum delta is    0.001100436878209
 Root      4 not converged, maximum delta is    0.001004085195789
 Root      5 has converged.
 Excitation Energies [eV] at current iteration:
 Root      1 :     1.674442044046432   Change is   -0.000253949283382
 Root      2 :     1.679434896202556   Change is   -0.000254428282245
 Root      3 :     2.185281201101908   Change is   -0.000131126514232
 Root      4 :     2.192880690664639   Change is   -0.000117277985179
 Root      5 :     2.645712247923578   Change is   -0.000000000000342
 Iteration     7 Dimension    72 NMult    64 NNew      8
 CISAX will form     8 AO SS matrices at one time.
 NMat=     8 NSing=     8 JSym2X= 0.
 Root      1 has converged.
 Root      2 has converged.
 Root      3 has converged.
 Root      4 has converged.
 Root      5 has converged.
 Excitation Energies [eV] at current iteration:
[...]
 Alpha virt. eigenvalues --    1.85843   1.85971   1.86345   1.86440   1.86535
 Alpha virt. eigenvalues --    1.86712   1.86761   1.86867   1.87004   1.87096
 Alpha virt. eigenvalues --    1.87419   1.87555   1.87641   1.87835   1.87846
 Alpha virt. eigenvalues --    1.88017   1.88066   1.88247   1.88513   1.88654
 Alpha virt. eigenvalues --    1.88791   1.89028   1.89114   1.89151   1.89607
 Alpha virt. eigenvalues --    1.89725   1.89725   1.89928   1.90091   1.90262
 Alpha virt. eigenvalues --    1.90718   1.90967   1.91317   1.91419   1.91467
 Alpha virt. eigenvalues --    1.91707   1.92126   1.92271   1.92583   1.92742
 Alpha virt. eigenvalues --    1.92960   1.93216   1.93325   1.93548   1.94266
 Alpha virt. eigenvalues --    1.94356   1.94672   1.94864   1.95469   1.95627
 Alpha virt. eigenvalues --    1.95691   1.95892   1.95954   1.96117   1.96140
 Alpha virt. eigenvalues --    1.96247   1.96545   1.96570   1.96876   1.97013
 Alpha virt. eigenvalues --    1.97426   1.97596   1.97815   1.97870   1.98135
 Alpha virt. eigenvalues --    1.98251   1.98423   1.98609   1.99099   1.99140
 Alpha virt. eigenvalues --    1.99780   2.00025   2.00639   2.00789   2.00956
 Alpha virt. eigenvalues --    2.01164   2.01428   2.01548   2.01655   2.01674
 Alpha virt. eigenvalues --    2.01682   2.01907   2.02755   2.02776   2.03187
 Alpha virt. eigenvalues --    2.03218   2.03363   2.03438   2.03451   2.03589
 Alpha virt. eigenvalues --    2.04002   2.04090   2.04937   2.05031   2.05492
 Alpha virt. eigenvalues --    2.05680   2.06051   2.06339   2.06845   2.07106
 Alpha virt. eigenvalues --    2.07152   2.07408   2.08572   2.08582   2.08950
 Alpha virt. eigenvalues --    2.09079   2.09549   2.09679   2.10774   2.11068
 Alpha virt. eigenvalues --    2.11152   2.11468   2.11495   2.11615   2.11700
 Alpha virt. eigenvalues --    2.11946   2.12429   2.12547   2.12781   2.12808
 Alpha virt. eigenvalues --    2.12862   2.12946   2.13719   2.13745   2.14127
 Alpha virt. eigenvalues --    2.14288   2.15308   2.15459   2.15889   2.16163
 Alpha virt. eigenvalues --    2.16504   2.16659   2.16719   2.17231   2.17389
 Alpha virt. eigenvalues --    2.17680   2.17684   2.18020   2.18051   2.18053
 Alpha virt. eigenvalues --    2.18275   2.18745   2.18821   2.19320   2.19603
 Alpha virt. eigenvalues --    2.19901   2.20003   2.20173   2.20305   2.20517
 Alpha virt. eigenvalues --    2.21147   2.21202   2.21640   2.21698   2.21826
 Alpha virt. eigenvalues --    2.21930   2.22656   2.22777   2.23290   2.23388
 Alpha virt. eigenvalues --    2.24372   2.24459   2.24957   2.25040   2.26252
 Alpha virt. eigenvalues --    2.26512   2.26754   2.27058   2.27068   2.27271
 Alpha virt. eigenvalues --    2.28105   2.28414   2.29244   2.29510   2.29696
 Alpha virt. eigenvalues --    2.29955   2.30413   2.30704   2.30907   2.31041
 Alpha virt. eigenvalues --    2.31124   2.31256   2.32102   2.32283   2.33095
 Alpha virt. eigenvalues --    2.33313   2.33429   2.33534   2.34120   2.34197
 Alpha virt. eigenvalues --    2.35311   2.35363   2.35761   2.35999   2.36343
 Alpha virt. eigenvalues --    2.36393   2.36480   2.36592   2.37645   2.37717
 Alpha virt. eigenvalues --    2.38240   2.38420   2.38811   2.38879   2.39578
 Alpha virt. eigenvalues --    2.39730   2.40162   2.40303   2.40444   2.40915
 Alpha virt. eigenvalues --    2.41223   2.41297   2.41670   2.41735   2.41983
 Alpha virt. eigenvalues --    2.42190   2.42849   2.42935   2.43128   2.43439
 Alpha virt. eigenvalues --    2.44032   2.44123   2.44697   2.44863   2.44870
 Alpha virt. eigenvalues --    2.45057   2.45518   2.45625   2.46275   2.46339
 Alpha virt. eigenvalues --    2.46441   2.46542   2.46757   2.46858   2.47222
 Alpha virt. eigenvalues --    2.47415   2.47685   2.47928   2.49294   2.49420
 Alpha virt. eigenvalues --    2.49924   2.50058   2.50500   2.50538   2.51073
 Alpha virt. eigenvalues --    2.51334   2.51659   2.51845   2.52390   2.52470
 Alpha virt. eigenvalues --    2.52773   2.53245   2.53893   2.54016   2.54131
 Alpha virt. eigenvalues --    2.54303   2.54758   2.54844   2.55491   2.55707
 Alpha virt. eigenvalues --    2.57837   2.58125   2.58621   2.58957   2.60153
 Alpha virt. eigenvalues --    2.60369   2.60571   2.61003   2.61686   2.61868
 Alpha virt. eigenvalues --    2.62485   2.62495   2.62920   2.63175   2.63901
 Alpha virt. eigenvalues --    2.64237   2.64298   2.64440   2.65049   2.65146
 Alpha virt. eigenvalues --    2.65743   2.65935   2.66759   2.66852   2.66883
 Alpha virt. eigenvalues --    2.67128   2.67882   2.68032   2.68820   2.68857
 Alpha virt. eigenvalues --    2.68975   2.69090   2.69371   2.69649   2.69968
 Alpha virt. eigenvalues --    2.70178   2.70943   2.71129   2.71934   2.72002
 Alpha virt. eigenvalues --    2.72534   2.72601   2.72749   2.72799   2.73264
 Alpha virt. eigenvalues --    2.73306   2.73441   2.73511   2.74471   2.74544
 Alpha virt. eigenvalues --    2.74932   2.75100   2.76555   2.76566   2.77104
 Alpha virt. eigenvalues --    2.77185   2.77423   2.77645   2.78165   2.78316
 Alpha virt. eigenvalues --    2.78681   2.78720   2.79098   2.79205   2.80287
 Alpha virt. eigenvalues --    2.80305   2.80528   2.80734   2.81066   2.81182
 Alpha virt. eigenvalues --    2.81891   2.82032   2.82313   2.82369   2.83695
 Alpha virt. eigenvalues --    2.83739   2.83869   2.83941   2.84514   2.84549
 Alpha virt. eigenvalues --    2.84861   2.84900   2.85641   2.85712   2.86682
 Alpha virt. eigenvalues --    2.86951   2.87214   2.87531   2.88126   2.88256
 Alpha virt. eigenvalues --    2.88475   2.88649   2.88894   2.88900   2.90461
 Alpha virt. eigenvalues --    2.90709   2.91097   2.91170   2.93113   2.93372
 Alpha virt. eigenvalues --    2.93809   2.94168   2.94540   2.94582   2.95319
 Alpha virt. eigenvalues --    2.95550   2.95884   2.96121   2.96397   2.96413
 Alpha virt. eigenvalues --    2.96910   2.97105   2.97755   2.98046   2.98173
 Alpha virt. eigenvalues --    2.98333   2.98419   2.98559   2.98622   2.98819
 Alpha virt. eigenvalues --    2.98854   2.98948   2.99574   2.99808   2.99968
 Alpha virt. eigenvalues --    3.00058   3.00179   3.00360   3.00415   3.01057
 Alpha virt. eigenvalues --    3.01936   3.01973   3.01996   3.02177   3.02656
 Alpha virt. eigenvalues --    3.02850   3.02930   3.03303   3.03367   3.03791
 Alpha virt. eigenvalues --    3.04105   3.04153   3.04411   3.04462   3.04527
 Alpha virt. eigenvalues --    3.04748   3.05286   3.05370   3.06084   3.06186
 Alpha virt. eigenvalues --    3.06759   3.06992   3.07940   3.08130   3.09357
 Alpha virt. eigenvalues --    3.09357   3.09656   3.10405   3.10510   3.10802
 Alpha virt. eigenvalues --    3.11321   3.11475   3.11889   3.11895   3.12180
 Alpha virt. eigenvalues --    3.12369   3.13237   3.13624   3.13693   3.13707
 Alpha virt. eigenvalues --    3.14008   3.14513   3.15922   3.15981   3.17224
 Alpha virt. eigenvalues --    3.17544   3.17879   3.18059   3.19046   3.19102
 Alpha virt. eigenvalues --    3.22217   3.22629   3.23908   3.24466   3.24614
 Alpha virt. eigenvalues --    3.25218   3.26469   3.26685   3.27426   3.27583
 Alpha virt. eigenvalues --    3.29006   3.29253   3.31407   3.31486   3.33215
 Alpha virt. eigenvalues --    3.33387   3.40293   3.40525   3.42792   3.42830
 Alpha virt. eigenvalues --    3.48613   3.48722   3.49991   3.50314   3.50871
 Alpha virt. eigenvalues --    3.51443   3.56521   3.57026   3.59075   3.59359
 Alpha virt. eigenvalues --    3.62539   3.62796   3.66111   3.66164   3.67090
 Alpha virt. eigenvalues --    3.67575   3.73184   3.74048   3.75979   3.76705
          Condensed to atoms (all electrons):
 Mulliken charges:
               1
     1  Mg   0.838605
     2  C   -0.003272
     3  C   -0.094114
     4  C   -0.045748
     5  C   -0.063812
     6  N   -0.256818
     7  C   -0.052560
     8  C   -0.014008
     9  C   -0.087028
    10  C    0.046304
    11  C    0.104766
    12  C    0.053471
    13  C   -0.071612
    14  H    0.035251
    15  N   -0.433168
    16  C    0.168477
    17  C   -0.177042
    18  C   -0.003882
    19  C    0.148723
    20  C    0.110121
    21  C    0.012314
    22  O   -0.249436
    23  C    0.062446
    24  N   -0.341145
    25  C    0.041329
    26  C   -0.028240
    27  C   -0.024041
    28  C    0.074844
    29  C    0.076110
    30  C    0.035080
    31  C   -0.004624
    32  N   -0.310375
    33  C    0.080256
    34  C   -0.169840
    35  C    0.008171
    36  C    0.082812
    37  C    0.127375
    38  C    0.045792
    39  O   -0.188909
    40  C   -0.005230
    41  C    0.212886
    42  O   -0.257927
    43  O   -0.304499
    44  C    0.157986
    45  H   -0.017470
    46  H   -0.016615
    47  H   -0.041264
    48  H    0.000877
    49  H   -0.003975
    50  H    0.025475
    51  H    0.016607
    52  H    0.016783
    53  H    0.011359
    54  H    0.043534
    55  H    0.018056
    56  H    0.018258
    57  H    0.005946
    58  H    0.026999
    59  H    0.039764
    60  H    0.037474
    61  H    0.035735
    62  H    0.031525
    63  H    0.016756
    64  H    0.009594
    65  H    0.023442
    66  H    0.012491
    67  H    0.004917
    68  H    0.006766
    69  H    0.004899
    70  H    0.008888
    71  H    0.018787
    72  H    0.028489
    73  H    0.047160
    74  H    0.009398
    75  H    0.046111
    76  H    0.035278
    77  H    0.042944
    78  H    0.046533
    79  H    0.052690
    80  Mg   0.837868
    81  C   -0.016816
    82  C   -0.087400
    83  C   -0.045769
    84  C   -0.064968
    85  N   -0.254659
    86  C   -0.049432
    87  C   -0.015205
    88  C   -0.090490
    89  C    0.045717
    90  C    0.114110
    91  C    0.062466
    92  C   -0.077866
    93  H    0.034319
    94  N   -0.423498
    95  C    0.162835
    96  C   -0.174345
    97  C   -0.008183
    98  C    0.152345
    99  C    0.099305
   100  C    0.015371
   101  O   -0.253715
   102  C    0.061276
   103  N   -0.350015
   104  C    0.037603
   105  C   -0.019783
   106  C   -0.034826
   107  C    0.088927
   108  C    0.073770
   109  C    0.034821
   110  C   -0.007603
   111  N   -0.324077
   112  C    0.078441
   113  C   -0.163288
   114  C    0.002234
   115  C    0.096193
   116  C    0.131510
   117  C    0.042243
   118  O   -0.188177
   119  C    0.000997
   120  C    0.211238
   121  O   -0.251245
   122  O   -0.305433
   123  C    0.152124
   124  H   -0.018595
   125  H   -0.016113
   126  H   -0.040706
   127  H   -0.000197
   128  H   -0.004255
   129  H    0.022660
   130  H    0.015082
   131  H    0.018553
   132  H    0.013681
   133  H    0.037299
   134  H    0.021456
   135  H    0.019720
   136  H    0.009363
   137  H    0.026048
   138  H    0.039470
   139  H    0.038164
   140  H    0.035890
   141  H    0.033933
   142  H    0.014094
   143  H    0.012419
   144  H    0.024459
   145  H    0.011594
   146  H    0.005586
   147  H    0.005876
   148  H    0.003607
   149  H    0.010721
   150  H    0.017725
   151  H    0.030311
   152  H    0.045756
   153  H    0.008327
   154  H    0.046918
   155  H    0.035415
   156  H    0.043741
   157  H    0.049760
   158  H    0.053318
 Sum of Mulliken charges =  -0.00000
 Mulliken charges with hydrogens summed into heavy atoms:
               1
     1  Mg   0.838605
     2  C   -0.003272
     3  C   -0.111584
     4  C   -0.062363
     5  C   -0.105077
     6  N   -0.256818
     7  C   -0.052560
     8  C   -0.013131
     9  C   -0.091003
    10  C    0.046304
    11  C    0.163631
    12  C    0.108364
    13  C   -0.000048
    15  N   -0.433168
    16  C    0.168477
    17  C   -0.177042
    18  C   -0.003882
    19  C    0.148723
    20  C    0.182829
    21  C    0.012314
    22  O   -0.249436
    23  C    0.167180
    24  N   -0.341145
    25  C    0.041329
    26  C   -0.011484
    27  C   -0.014448
    28  C    0.074844
    29  C    0.116961
    30  C    0.046745
    31  C    0.051540
    32  N   -0.310375
    33  C    0.080256
    34  C   -0.169840
    35  C    0.008171
    36  C    0.082812
    37  C    0.230044
    38  C    0.045792
    39  O   -0.188909
    40  C    0.030048
    41  C    0.212886
    42  O   -0.257927
    43  O   -0.304499
    44  C    0.300153
    80  Mg   0.837868
    81  C   -0.016816
    82  C   -0.105995
    83  C   -0.061882
    84  C   -0.105674
    85  N   -0.254659
    86  C   -0.049432
    87  C   -0.015401
    88  C   -0.094745
    89  C    0.045717
    90  C    0.170405
    91  C    0.113445
    92  C   -0.002371
    94  N   -0.423498
    95  C    0.162835
    96  C   -0.174345
    97  C   -0.008183
    98  C    0.152345
    99  C    0.174186
   100  C    0.015371
   101  O   -0.253715
   102  C    0.169264
   103  N   -0.350015
   104  C    0.037603
   105  C   -0.005688
   106  C   -0.022407
   107  C    0.088927
   108  C    0.115409
   109  C    0.044304
   110  C    0.051153
   111  N   -0.324077
   112  C    0.078441
   113  C   -0.163288
   114  C    0.002234
   115  C    0.096193
   116  C    0.232511
   117  C    0.042243
   118  O   -0.188177
   119  C    0.036412
   120  C    0.211238
   121  O   -0.251245
   122  O   -0.305433
   123  C    0.298943
 Electronic spatial extent (au):  <R**2>=         150358.4957
 Charge=             -0.0000 electrons
 Dipole moment (field-independent basis, Debye):
    X=             -4.7117    Y=              1.5509    Z=              5.2311  Tot=              7.2090
 Quadrupole moment (field-independent basis, Debye-Ang):
   XX=           -518.7557   YY=           -505.3751   ZZ=           -494.0595
   XY=            -31.9535   XZ=              7.0340   YZ=             -6.6670
 Traceless Quadrupole moment (field-independent basis, Debye-Ang):
   XX=            -12.6923   YY=              0.6883   ZZ=             12.0040
   XY=            -31.9535   XZ=              7.0340   YZ=             -6.6670
 Octapole moment (field-independent basis, Debye-Ang**2):
  XXX=           -661.4683  YYY=             63.0147  ZZZ=            184.9259  XYY=            349.4450
  XXY=            113.7225  XXZ=            366.3186  XZZ=           -345.9775  YZZ=           -222.7965
  YYZ=             -1.2723  XYZ=           -291.2175
 Hexadecapole moment (field-independent basis, Debye-Ang**3):
 XXXX=        -140820.5323 YYYY=         -34265.0162 ZZZZ=         -31618.0284 XXXY=          -1239.5647
 XXXZ=            110.5839 YYYX=          -1896.7993 YYYZ=            723.4222 ZZZX=            932.8407
 ZZZY=          -1087.9456 XXYY=         -28035.8835 XXZZ=         -28096.4598 YYZZ=         -11113.2147
 XXYZ=            -53.1042 YYXZ=          -1874.8293 ZZXY=             41.6787
 N-N= 1.424421633222D+04 E-N=-3.796939317862D+04  KE= 4.028801994136D+03
 Leave Link  601 at Sat Sep 11 17:54:46 2021, MaxMem= 23488102400 cpu:              13.3 elap:               0.7
 (Enter /sw/apps/gaussian-16.0/g16/l9999.exe)
 1\1\GINC-BP1-COMPUTE00082\SP\RCAM-B3LYP TD-FC\def2SVP\C68H72Mg2N8O8\OF
 15641\11-Sep-2021\0\\#p cam-b3lyp/Def2SVP td=(nstates=5)\\TDDFT excite
 d states in gaussian\\0,1\Mg,0,0.,0.,0.\C,0,-0.217,-2.218,2.801\C,0,-1
 .255,2.442,2.026\C,0,-0.245,1.85,-2.564\C,0,0.146,-2.824,-2.037\N,0,-0
 .617,-0.009,2.126\C,0,-0.594,-0.908,3.105\C,0,-0.936,-0.309,4.502\C,0,
 -1.773,0.964,4.032\C,0,-1.155,1.168,2.66\C,0,-3.263,0.685,3.863\C,0,0.
 345,0.11,5.299\C,0,0.124,0.397,6.787\H,0,1.168,0.033,7.733\N,0,-0.185,
 1.961,-0.152\C,0,-0.703,2.8,0.777\C,0,-0.62,4.156,0.193\C,0,-0.187,4.0
 15,-1.225\C,0,-0.214,2.583,-1.38\C,0,-0.887,5.406,0.974\C,0,0.181,5.01
 3,-2.277\O,0,0.303,4.69,-3.508\C,0,0.31,6.414,-1.837\N,0,-0.265,-0.413
 ,-2.029\C,0,-0.279,0.569,-2.937\C,0,-0.196,0.024,-4.332\C,0,0.124,-1.5
 33,-4.18\C,0,0.086,-1.632,-2.635\C,0,-1.451,0.205,-5.197\C,0,1.373,-2.
 07,-4.923\C,0,2.626,-1.49,-4.306\N,0,0.15,-2.144,0.303\C,0,0.173,-3.13
 6,-0.688\C,0,0.173,-4.438,0.004\C,0,0.133,-4.111,1.358\C,0,0.083,-2.69
 5,1.502\C,0,0.149,-5.715,-0.623\C,0,0.096,-4.629,2.716\O,0,0.208,-5.74
 7,3.221\C,0,-0.255,-3.428,3.701\C,0,0.717,-3.482,4.848\O,0,1.931,-3.25
 5,4.669\O,0,0.038,-3.556,6.003\C,0,0.943,-3.583,7.183\H,0,-1.859,3.22,
 2.497\H,0,-0.218,2.453,-3.474\H,0,0.276,-3.747,-2.605\H,0,-1.554,-0.94
 9,5.132\H,0,-1.585,1.831,4.665\H,0,-3.484,-0.377,3.969\H,0,-3.511,1.02
 7,2.858\H,0,-3.852,1.301,4.543\H,0,0.669,1.096,4.966\H,0,1.13,-0.639,5
 .189\H,0,-0.844,0.026,7.125\H,0,0.062,1.477,6.921\H,0,-1.344,5.186,1.9
 38\H,0,-1.651,5.963,0.432\H,0,0.007,6.02,1.084\H,0,-0.635,6.744,-1.405
 \H,0,0.665,6.97,-2.704\H,0,1.048,6.466,-1.036\H,0,0.608,0.501,-4.891\H
 ,0,-0.692,-2.156,-4.547\H,0,-1.267,0.74,-6.129\H,0,-2.204,0.714,-4.596
 \H,0,-1.967,-0.72,-5.453\H,0,1.356,-1.759,-5.967\H,0,1.452,-3.157,-4.9
 02\H,0,2.714,-0.522,-4.798\H,0,3.487,-2.121,-4.529\H,0,2.495,-1.303,-3
 .24\H,0,0.867,-6.333,-0.084\H,0,0.404,-5.642,-1.68\H,0,-0.891,-5.999,-
 0.463\H,0,-1.283,-3.581,4.028\H,0,0.698,-4.478,7.755\H,0,0.833,-2.619,
 7.68\H,0,2.,-3.754,6.976\Mg,0,13.14592,1.17758,1.00359\C,0,13.35565,-1
 .87413,-0.87314\C,0,12.22882,-0.71286,3.69056\C,0,12.51638,3.87101,2.5
 5812\C,0,12.95525,2.87122,-2.0363\N,0,12.86429,-1.00213,1.25224\C,0,13
 .03255,-2.06925,0.4859\C,0,12.92274,-3.42371,1.2362\C,0,12.02027,-2.94
 068,2.47357\C,0,12.41646,-1.46597,2.50409\C,0,10.52794,-3.02877,2.2005
 8\C,0,14.31852,-3.95584,1.71646\C,0,14.32574,-5.41389,2.18101\H,0,15.5
 0861,-6.22553,1.908\N,0,12.95089,1.52253,2.94821\C,0,12.59314,0.63535,
 3.90016\C,0,12.57507,1.38725,5.16447\C,0,12.7908,2.82725,4.85697\C,0,1
 2.73918,2.79821,3.40901\C,0,12.44674,0.72295,6.50449\C,0,12.99529,4.03
 313,5.72314\O,0,12.92513,5.22208,5.24954\C,0,13.18735,3.7838,7.15926\N
 ,0,12.57529,3.07266,0.36688\C,0,12.41828,4.07881,1.24491\C,0,12.2779,5
 .40466,0.53583\C,0,12.61685,5.10909,-0.99888\C,0,12.81622,3.57937,-0.9
 2394\C,0,10.90526,6.06984,0.63462\C,0,13.73388,5.969,-1.65117\C,0,15.0
 7083,5.63678,-1.02861\N,0,13.33614,0.65309,-1.0837\C,0,13.19456,1.5122
 4,-2.19541\C,0,13.29741,0.67525,-3.40837\C,0,13.47004,-0.62639,-2.9139
 8\C,0,13.45424,-0.60503,-1.49314\C,0,13.18141,1.1368,-4.74987\C,0,13.6
 5139,-2.01505,-3.27099\O,0,13.8286,-2.6251,-4.32463\C,0,13.45877,-2.90
 166,-1.96592\C,0,14.59633,-3.88351,-1.89935\O,0,15.76372,-3.48802,-1.7
 3375\O,0,14.09785,-5.13098,-1.82397\C,0,15.18776,-6.13978,-1.74484\H,0
 ,11.71572,-1.1848,4.52894\H,0,12.40401,4.84291,3.04418\H,0,13.00391,3.
 33726,-3.02276\H,0,12.41319,-4.20684,0.68771\H,0,12.31698,-3.43436,3.3
 9531\H,0,10.32101,-3.29102,1.17367\H,0,10.12883,-2.04911,2.42867\H,0,1
 0.05571,-3.71834,2.90615\H,0,14.58739,-3.45771,2.65684\H,0,15.06206,-3
 .81513,0.95621\H,0,13.41589,-5.94705,1.87956\H,0,14.29655,-5.43025,3.2
 7321\H,0,12.13765,-0.32498,6.40601\H,0,11.61034,1.20538,7.02175\H,0,13
 .34677,0.82719,7.11421\H,0,12.32457,3.25093,7.55183\H,0,13.40634,4.759
 01,7.59844\H,0,14.05103,3.1217,7.28696\H,0,12.98872,6.1259,0.9201\H,0,
 11.74633,5.28107,-1.64885\H,0,10.94412,7.0895,1.06224\H,0,10.25957,5.4
 3399,1.22565\H,0,10.35949,6.14429,-0.30442\H,0,13.5566,7.02986,-1.4580
 3\H,0,13.80226,5.84451,-2.72672\H,0,15.07924,6.24808,-0.12123\H,0,15.8
 8382,5.91196,-1.69746\H,0,15.1104,4.58608,-0.71859\H,0,13.96426,0.6493
 8,-5.31562\H,0,13.26474,2.22016,-4.8062\H,0,12.17265,0.78972,-4.98902\
 H,0,12.49211,-3.40004,-2.04819\H,0,15.02797,-6.84768,-2.564\H,0,15.147
 41,-6.54305,-0.71552\H,0,16.19752,-5.80377,-1.94961\\Version=ES64L-G16
 RevA.03\State=1-A\HF=-4069.8120432\RMSD=4.544e-09\PG=C01 [X(C68H72Mg2N
 8O8)]\\@


 IT WAS AN ACT OF DESPARATION. FOR SIX YEARS I HAD STRUGGLED WITH THE
 BLACKBODY THEORY. I KNEW THE PROBLEM WAS FUNDAMENTAL, AND I KNEW
 THE ANSWER. I HAD TO FIND A THEORETICAL EXPLANATION AT ANY COST,
 EXCEPT FOR THE INVIOLABLITY OF THE TWO LAWS OF THERMODYNAMICS.
   -- MAX PLANCK, 1931
 Job cpu time:       0 days 12 hours 21 minutes 28.1 seconds.
 Elapsed time:       0 days  0 hours 31 minutes 29.6 seconds.
 File lengths (MBytes):  RWF=  13225 Int=      0 D2E=      0 Chk=    574 Scr=      1
 Normal termination of Gaussian 16 at Sat Sep 11 17:54:47 2021.
