 Entering Gaussian System, Link 0=g16
 Initial command:
 /sw/apps/gaussian-16.0/g16/l1.exe "/tmp/Gau-236316.inp" -scrdir="/tmp/"
 Entering Link 1 = /sw/apps/gaussian-16.0/g16/l1.exe PID=    236317.
  
 Copyright (c) 1988,1990,1992,1993,1995,1998,2003,2009,2016,
            Gaussian, Inc.  All Rights Reserved.
  
 This is part of the Gaussian(R) 16 program.  It is based on
 the Gaussian(R) 09 system (copyright 2009, Gaussian, Inc.),
 the Gaussian(R) 03 system (copyright 2003, Gaussian, Inc.),
 the Gaussian(R) 98 system (copyright 1998, Gaussian, Inc.),
 the Gaussian(R) 94 system (copyright 1995, Gaussian, Inc.),
 the Gaussian 92(TM) system (copyright 1992, Gaussian, Inc.),
 the Gaussian 90(TM) system (copyright 1990, Gaussian, Inc.),
 the Gaussian 88(TM) system (copyright 1988, Gaussian, Inc.),
 the Gaussian 86(TM) system (copyright 1986, Carnegie Mellon
 University), and the Gaussian 82(TM) system (copyright 1983,
 Carnegie Mellon University). Gaussian is a federally registered
 trademark of Gaussian, Inc.
  
 This software contains proprietary and confidential information,
 including trade secrets, belonging to Gaussian, Inc.
  
 This software is provided under written license and may be
 used, copied, transmitted, or stored only in accord with that
 written license.
  
 The following legend is applicable only to US Government
 contracts under FAR:
  
                    RESTRICTED RIGHTS LEGEND
  
 Use, reproduction and disclosure by the US Government is
 subject to restrictions as set forth in subparagraphs (a)
 and (c) of the Commercial Computer Software - Restricted
 Rights clause in FAR 52.227-19.
  
 Gaussian, Inc.
 340 Quinnipiac St., Bldg. 40, Wallingford CT 06492
  
  
 ---------------------------------------------------------------
 Warning -- This program may not be used in any manner that
 competes with the business of Gaussian, Inc. or will provide
 assistance to any competitor of Gaussian, Inc.  The licensee
 of this program is prohibited from giving any competitor of
 Gaussian, Inc. access to this program.  By using this program,
 the user acknowledges that Gaussian, Inc. is engaged in the
 business of creating and licensing software in the field of
 computational chemistry and represents and warrants to the
 licensee that it is not a competitor of Gaussian, Inc. and that
 it will not use this program in any manner prohibited above.
 ---------------------------------------------------------------
  

 Cite this work as:
 Gaussian 16, Revision A.03,
 M. J. Frisch, G. W. Trucks, H. B. Schlegel, G. E. Scuseria, 
 M. A. Robb, J. R. Cheeseman, G. Scalmani, V. Barone, 
 G. A. Petersson, H. Nakatsuji, X. Li, M. Caricato, A. V. Marenich, 
 J. Bloino, B. G. Janesko, R. Gomperts, B. Mennucci, H. P. Hratchian, 
 J. V. Ortiz, A. F. Izmaylov, J. L. Sonnenberg, D. Williams-Young, 
 F. Ding, F. Lipparini, F. Egidi, J. Goings, B. Peng, A. Petrone, 
 T. Henderson, D. Ranasinghe, V. G. Zakrzewski, J. Gao, N. Rega, 
 G. Zheng, W. Liang, M. Hada, M. Ehara, K. Toyota, R. Fukuda, 
 J. Hasegawa, M. Ishida, T. Nakajima, Y. Honda, O. Kitao, H. Nakai, 
 T. Vreven, K. Throssell, J. A. Montgomery, Jr., J. E. Peralta, 
 F. Ogliaro, M. J. Bearpark, J. J. Heyd, E. N. Brothers, K. N. Kudin, 
 V. N. Staroverov, T. A. Keith, R. Kobayashi, J. Normand, 
 K. Raghavachari, A. P. Rendell, J. C. Burant, S. S. Iyengar, 
 J. Tomasi, M. Cossi, J. M. Millam, M. Klene, C. Adamo, R. Cammi, 
 J. W. Ochterski, R. L. Martin, K. Morokuma, O. Farkas, 
 J. B. Foresman, and D. J. Fox, Gaussian, Inc., Wallingford CT, 2016.
 
 ******************************************
 Gaussian 16:  ES64L-G16RevA.03 25-Dec-2016
                12-Sep-2021 
 ******************************************
 %nproc=24
 Will use up to   24 processors via shared memory.
 %mem=175gb
 -----------------------------------
 #p cam-b3lyp/Def2SVP td=(nstates=5)
 -----------------------------------
 1/38=1,172=1/1;
 2/12=2,17=6,18=5,40=1/2;
 3/5=43,7=101,11=9,25=1,30=1,74=-40/1,2,3,8;
 4//1;
 5/5=2,38=5/2;
 8/6=1,10=1,108=5/1;
 9/41=5,42=1,70=2/14;
 6/7=2,8=2,9=2,10=2/1;
 99/5=1,9=1/99;
 Leave Link    1 at Sun Sep 12 16:04:17 2021, MaxMem= 23488102400 cpu:               0.6 elap:               0.0
 (Enter /sw/apps/gaussian-16.0/g16/l101.exe)
 --------------------------------
 TDDFT excited states in gaussian
 --------------------------------
 Symbolic Z-matrix:
 Charge =  0 Multiplicity = 1
 Mg                    0.        0.        0. 
 C                    -0.217    -2.218     2.801 
 C                    -1.255     2.442     2.026 
 C                    -0.245     1.85     -2.564 
 C                     0.146    -2.824    -2.037 
 N                    -0.617    -0.009     2.126 
 C                    -0.594    -0.908     3.105 
 C                    -0.936    -0.309     4.502 
 C                    -1.773     0.964     4.032 
 C                    -1.155     1.168     2.66 
 C                    -3.263     0.685     3.863 
 C                     0.345     0.11      5.299 
 C                     0.124     0.397     6.787 
 H                     1.168     0.033     7.733 
 N                    -0.185     1.961    -0.152 
 C                    -0.703     2.8       0.777 
 C                    -0.62      4.156     0.193 
 C                    -0.187     4.015    -1.225 
 C                    -0.214     2.583    -1.38 
 C                    -0.887     5.406     0.974 
 C                     0.181     5.013    -2.277 
 O                     0.303     4.69     -3.508 
 C                     0.31      6.414    -1.837 
 N                    -0.265    -0.413    -2.029 
 C                    -0.279     0.569    -2.937 
 C                    -0.196     0.024    -4.332 
 C                     0.124    -1.533    -4.18 
 C                     0.086    -1.632    -2.635 
 C                    -1.451     0.205    -5.197 
 C                     1.373    -2.07     -4.923 
 C                     2.626    -1.49     -4.306 
 N                     0.15     -2.144     0.303 
 C                     0.173    -3.136    -0.688 
 C                     0.173    -4.438     0.004 
 C                     0.133    -4.111     1.358 
 C                     0.083    -2.695     1.502 
 C                     0.149    -5.715    -0.623 
 C                     0.096    -4.629     2.716 
 O                     0.208    -5.747     3.221 
 C                    -0.255    -3.428     3.701 
 C                     0.717    -3.482     4.848 
 O                     1.931    -3.255     4.669 
 O                     0.038    -3.556     6.003 
 C                     0.943    -3.583     7.183 
 H                    -1.859     3.22      2.497 
 H                    -0.218     2.453    -3.474 
 H                     0.276    -3.747    -2.605 
 H                    -1.554    -0.949     5.132 
 H                    -1.585     1.831     4.665 
 H                    -3.484    -0.377     3.969 
 H                    -3.511     1.027     2.858 
 H                    -3.852     1.301     4.543 
 H                     0.669     1.096     4.966 
 H                     1.13     -0.639     5.189 
 H                    -0.844     0.026     7.125 
 H                     0.062     1.477     6.921 
 H                    -1.344     5.186     1.938 
 H                    -1.651     5.963     0.432 
 H                     0.007     6.02      1.084 
 H                    -0.635     6.744    -1.405 
 H                     0.665     6.97     -2.704 
 H                     1.048     6.466    -1.036 
 H                     0.608     0.501    -4.891 
 H                    -0.692    -2.156    -4.547 
 H                    -1.267     0.74     -6.129 
 H                    -2.204     0.714    -4.596 
 H                    -1.967    -0.72     -5.453 
 H                     1.356    -1.759    -5.967 
 H                     1.452    -3.157    -4.902 
 H                     2.714    -0.522    -4.798 
 H                     3.487    -2.121    -4.529 
 H                     2.495    -1.303    -3.24 
 H                     0.867    -6.333    -0.084 
 H                     0.404    -5.642    -1.68 
 H                    -0.891    -5.999    -0.463 
 H                    -1.283    -3.581     4.028 
 H                     0.698    -4.478     7.755 
 H                     0.833    -2.619     7.68 
 H                     2.       -3.754     6.976 
 Mg                    31.52518   2.84256   2.40194 
 C                     29.17089   0.13398   2.39824 
 C                     29.01842   4.82589   1.2115 
 C                     33.67807   5.13236   1.9669 
 C                     34.06184   0.45424   2.48535 
 N                     29.41077   2.41932   1.90961 
 C                     28.61099   1.36802   2.00694 
 C                     27.1121   1.67354   1.74321 
 C                     27.29009   2.99152   0.84314 
 C                     28.6405   3.46902   1.3733 
 C                     27.43771   2.69239  -0.63944 
 C                     26.32359   1.98224   3.06418 
 C                     24.8003   1.98504   2.91812 
 H                     23.99356   1.48952   4.02992 
 N                     31.28946   4.79892   2.16601 
 C                     30.19834   5.43567   1.69137 
 C                     30.53482   6.86778   1.6952 
 C                     31.97162   7.01109   2.05543 
 C                     32.38299   5.62153   2.05645 
 C                     29.51595   7.94367   1.45479 
 C                     32.83582   8.20251   2.33806 
 O                     34.1128   8.10933   2.39683 
 C                     32.14982   9.49791   2.45134 
 N                     33.57111   2.80291   2.03463 
 C                     34.27845   3.94237   1.93857 
 C                     35.7629   3.66545   1.94916 
 C                     35.90827   2.11596   2.31728 
 C                     34.41445   1.72729   2.37056 
 C                     36.50187   3.94912   0.64155 
 C                     36.80771   1.76289   3.53343 
 C                     36.17215   2.26712   4.80905 
 N                     31.63377   0.69595   2.62183 
 C                     32.79614  -0.10569   2.60314 
 C                     32.35505  -1.51383   2.67378 
 C                     30.95466  -1.43401   2.7057 
 C                     30.55088  -0.07317   2.63793 
 C                     33.20646  -2.65434   2.65232 
 C                     29.72589  -2.19203   2.7706 
 O                     29.44495  -3.37918   2.93027 
 C                     28.513   -1.2171    2.44687 
 C                     27.44757  -1.44064   3.48485 
 O                     27.65632  -1.15378   4.6768 
 O                     26.29128  -1.74945   2.87003 
 C                     25.2013  -1.96955   3.85761 
 H                     28.37087   5.47845   0.62522 
 H                     34.46587   5.88818   1.92698 
 H                     34.79467  -0.3451    2.61462 
 H                     26.58439   0.91006   1.18428 
 H                     26.51585   3.72365   1.05739 
 H                     27.51723   1.63255  -0.83065 
 H                     28.33885   3.20226  -0.95411 
 H                     26.61936   3.15298  -1.20024 
 H                     26.4876   3.0313    3.34223 
 H                     26.61039   1.30609   3.84596 
 H                     24.47583   1.52924   1.97476 
 H                     24.46051   3.02108   2.84601 
 H                     28.58211   7.53092   1.05357 
 H                     29.90247   8.57552   0.6478 
 H                     29.34209   8.5638    2.33676 
 H                     31.61301   9.7042    1.52845 
 H                     32.92161   10.21277   2.7432 
 H                     31.39688   9.4269    3.24423 
 H                     36.26093   4.25535   2.70882 
 H                     36.35331   1.54108   1.49188 
 H                     37.33734   4.66488   0.75876 
 H                     35.78617   4.3153   -0.08248 
 H                     36.90845   3.07189   0.14119 
 H                     37.77416   2.26579   3.44835 
 H                     37.00495   0.70053   3.63081 
 H                     36.47949   3.31673   4.83974 
 H                     36.5522   1.71925   5.66895 
 H                     35.0784   2.24583   4.73893 
 H                     32.83509  -3.33436   3.4074 
 H                     34.24289  -2.38033   2.83811 
 H                     33.04979  -2.9954    1.62548 
 H                     28.16156  -1.45393   1.44189 
 H                     24.79103  -2.96547   3.66397 
 H                     24.51437  -1.11034   3.74082 
 H                     25.48035  -2.05502   4.9013 
 
 ITRead=  0  0  0  0  0  0  0  0  0  0  0  0  0  0  0  0  0  0  0  0
 ITRead=  0  0  0  0  0  0  0  0  0  0  0  0  0  0  0  0  0  0  0  0
 ITRead=  0  0  0  0  0  0  0  0  0  0  0  0  0  0  0  0  0  0  0  0
 ITRead=  0  0  0  0  0  0  0  0  0  0  0  0  0  0  0  0  0  0  0  0
 ITRead=  0  0  0  0  0  0  0  0  0  0  0  0  0  0  0  0  0  0  0  0
 ITRead=  0  0  0  0  0  0  0  0  0  0  0  0  0  0  0  0  0  0  0  0
 ITRead=  0  0  0  0  0  0  0  0  0  0  0  0  0  0  0  0  0  0  0  0
 ITRead=  0  0  0  0  0  0  0  0  0  0  0  0  0  0  0  0  0  0
 MicOpt= -1 -1 -1 -1 -1 -1 -1 -1 -1 -1 -1 -1 -1 -1 -1 -1 -1 -1 -1 -1
 MicOpt= -1 -1 -1 -1 -1 -1 -1 -1 -1 -1 -1 -1 -1 -1 -1 -1 -1 -1 -1 -1
 MicOpt= -1 -1 -1 -1 -1 -1 -1 -1 -1 -1 -1 -1 -1 -1 -1 -1 -1 -1 -1 -1
 MicOpt= -1 -1 -1 -1 -1 -1 -1 -1 -1 -1 -1 -1 -1 -1 -1 -1 -1 -1 -1 -1
 MicOpt= -1 -1 -1 -1 -1 -1 -1 -1 -1 -1 -1 -1 -1 -1 -1 -1 -1 -1 -1 -1
 MicOpt= -1 -1 -1 -1 -1 -1 -1 -1 -1 -1 -1 -1 -1 -1 -1 -1 -1 -1 -1 -1
 MicOpt= -1 -1 -1 -1 -1 -1 -1 -1 -1 -1 -1 -1 -1 -1 -1 -1 -1 -1 -1 -1
 MicOpt= -1 -1 -1 -1 -1 -1 -1 -1 -1 -1 -1 -1 -1 -1 -1 -1 -1 -1
 NAtoms=    158 NQM=      158 NQMF=       0 NMMI=      0 NMMIF=      0
                NMic=       0 NMicF=      0.
                    Isotopes and Nuclear Properties:
 (Nuclear quadrupole moments (NQMom) in fm**2, nuclear magnetic moments (NMagM)
  in nuclear magnetons)

  Atom         1           2           3           4           5           6           7           8           9          10
 IAtWgt=          24          12          12          12          12          14          12          12          12          12
 AtmWgt=  23.9850450  12.0000000  12.0000000  12.0000000  12.0000000  14.0030740  12.0000000  12.0000000  12.0000000  12.0000000
 NucSpn=           0           0           0           0           0           2           0           0           0           0
 AtZEff=  -0.0000000  -0.0000000  -0.0000000  -0.0000000  -0.0000000  -0.0000000  -0.0000000  -0.0000000  -0.0000000  -0.0000000
 NQMom=    0.0000000   0.0000000   0.0000000   0.0000000   0.0000000   2.0440000   0.0000000   0.0000000   0.0000000   0.0000000
 NMagM=    0.0000000   0.0000000   0.0000000   0.0000000   0.0000000   0.4037610   0.0000000   0.0000000   0.0000000   0.0000000
 AtZNuc=  12.0000000   6.0000000   6.0000000   6.0000000   6.0000000   7.0000000   6.0000000   6.0000000   6.0000000   6.0000000

  Atom        11          12          13          14          15          16          17          18          19          20
 IAtWgt=          12          12          12           1          14          12          12          12          12          12
 AtmWgt=  12.0000000  12.0000000  12.0000000   1.0078250  14.0030740  12.0000000  12.0000000  12.0000000  12.0000000  12.0000000
 NucSpn=           0           0           0           1           2           0           0           0           0           0
 AtZEff=  -0.0000000  -0.0000000  -0.0000000  -0.0000000  -0.0000000  -0.0000000  -0.0000000  -0.0000000  -0.0000000  -0.0000000
 NQMom=    0.0000000   0.0000000   0.0000000   0.0000000   2.0440000   0.0000000   0.0000000   0.0000000   0.0000000   0.0000000
 NMagM=    0.0000000   0.0000000   0.0000000   2.7928460   0.4037610   0.0000000   0.0000000   0.0000000   0.0000000   0.0000000
 AtZNuc=   6.0000000   6.0000000   6.0000000   1.0000000   7.0000000   6.0000000   6.0000000   6.0000000   6.0000000   6.0000000

  Atom        21          22          23          24          25          26          27          28          29          30
 IAtWgt=          12          16          12          14          12          12          12          12          12          12
 AtmWgt=  12.0000000  15.9949146  12.0000000  14.0030740  12.0000000  12.0000000  12.0000000  12.0000000  12.0000000  12.0000000
 NucSpn=           0           0           0           2           0           0           0           0           0           0
 AtZEff=  -0.0000000  -0.0000000  -0.0000000  -0.0000000  -0.0000000  -0.0000000  -0.0000000  -0.0000000  -0.0000000  -0.0000000
 NQMom=    0.0000000   0.0000000   0.0000000   2.0440000   0.0000000   0.0000000   0.0000000   0.0000000   0.0000000   0.0000000
 NMagM=    0.0000000   0.0000000   0.0000000   0.4037610   0.0000000   0.0000000   0.0000000   0.0000000   0.0000000   0.0000000
 AtZNuc=   6.0000000   8.0000000   6.0000000   7.0000000   6.0000000   6.0000000   6.0000000   6.0000000   6.0000000   6.0000000

  Atom        31          32          33          34          35          36          37          38          39          40
 IAtWgt=          12          14          12          12          12          12          12          12          16          12
 AtmWgt=  12.0000000  14.0030740  12.0000000  12.0000000  12.0000000  12.0000000  12.0000000  12.0000000  15.9949146  12.0000000
 NucSpn=           0           2           0           0           0           0           0           0           0           0
 AtZEff=  -0.0000000  -0.0000000  -0.0000000  -0.0000000  -0.0000000  -0.0000000  -0.0000000  -0.0000000  -0.0000000  -0.0000000
 NQMom=    0.0000000   2.0440000   0.0000000   0.0000000   0.0000000   0.0000000   0.0000000   0.0000000   0.0000000   0.0000000
 NMagM=    0.0000000   0.4037610   0.0000000   0.0000000   0.0000000   0.0000000   0.0000000   0.0000000   0.0000000   0.0000000
 AtZNuc=   6.0000000   7.0000000   6.0000000   6.0000000   6.0000000   6.0000000   6.0000000   6.0000000   8.0000000   6.0000000

  Atom        41          42          43          44          45          46          47          48          49          50
 IAtWgt=          12          16          16          12           1           1           1           1           1           1
 AtmWgt=  12.0000000  15.9949146  15.9949146  12.0000000   1.0078250   1.0078250   1.0078250   1.0078250   1.0078250   1.0078250
 NucSpn=           0           0           0           0           1           1           1           1           1           1
 AtZEff=  -0.0000000  -0.0000000  -0.0000000  -0.0000000  -0.0000000  -0.0000000  -0.0000000  -0.0000000  -0.0000000  -0.0000000
 NQMom=    0.0000000   0.0000000   0.0000000   0.0000000   0.0000000   0.0000000   0.0000000   0.0000000   0.0000000   0.0000000
 NMagM=    0.0000000   0.0000000   0.0000000   0.0000000   2.7928460   2.7928460   2.7928460   2.7928460   2.7928460   2.7928460
 AtZNuc=   6.0000000   8.0000000   8.0000000   6.0000000   1.0000000   1.0000000   1.0000000   1.0000000   1.0000000   1.0000000

  Atom        51          52          53          54          55          56          57          58          59          60
 IAtWgt=           1           1           1           1           1           1           1           1           1           1
 AtmWgt=   1.0078250   1.0078250   1.0078250   1.0078250   1.0078250   1.0078250   1.0078250   1.0078250   1.0078250   1.0078250
 NucSpn=           1           1           1           1           1           1           1           1           1           1
 AtZEff=  -0.0000000  -0.0000000  -0.0000000  -0.0000000  -0.0000000  -0.0000000  -0.0000000  -0.0000000  -0.0000000  -0.0000000
 NQMom=    0.0000000   0.0000000   0.0000000   0.0000000   0.0000000   0.0000000   0.0000000   0.0000000   0.0000000   0.0000000
 NMagM=    2.7928460   2.7928460   2.7928460   2.7928460   2.7928460   2.7928460   2.7928460   2.7928460   2.7928460   2.7928460
 AtZNuc=   1.0000000   1.0000000   1.0000000   1.0000000   1.0000000   1.0000000   1.0000000   1.0000000   1.0000000   1.0000000

  Atom        61          62          63          64          65          66          67          68          69          70
 IAtWgt=           1           1           1           1           1           1           1           1           1           1
 AtmWgt=   1.0078250   1.0078250   1.0078250   1.0078250   1.0078250   1.0078250   1.0078250   1.0078250   1.0078250   1.0078250
 NucSpn=           1           1           1           1           1           1           1           1           1           1
 AtZEff=  -0.0000000  -0.0000000  -0.0000000  -0.0000000  -0.0000000  -0.0000000  -0.0000000  -0.0000000  -0.0000000  -0.0000000
 NQMom=    0.0000000   0.0000000   0.0000000   0.0000000   0.0000000   0.0000000   0.0000000   0.0000000   0.0000000   0.0000000
 NMagM=    2.7928460   2.7928460   2.7928460   2.7928460   2.7928460   2.7928460   2.7928460   2.7928460   2.7928460   2.7928460
 AtZNuc=   1.0000000   1.0000000   1.0000000   1.0000000   1.0000000   1.0000000   1.0000000   1.0000000   1.0000000   1.0000000

  Atom        71          72          73          74          75          76          77          78          79          80
 IAtWgt=           1           1           1           1           1           1           1           1           1          24
 AtmWgt=   1.0078250   1.0078250   1.0078250   1.0078250   1.0078250   1.0078250   1.0078250   1.0078250   1.0078250  23.9850450
 NucSpn=           1           1           1           1           1           1           1           1           1           0
 AtZEff=  -0.0000000  -0.0000000  -0.0000000  -0.0000000  -0.0000000  -0.0000000  -0.0000000  -0.0000000  -0.0000000  -0.0000000
 NQMom=    0.0000000   0.0000000   0.0000000   0.0000000   0.0000000   0.0000000   0.0000000   0.0000000   0.0000000   0.0000000
 NMagM=    2.7928460   2.7928460   2.7928460   2.7928460   2.7928460   2.7928460   2.7928460   2.7928460   2.7928460   0.0000000
 AtZNuc=   1.0000000   1.0000000   1.0000000   1.0000000   1.0000000   1.0000000   1.0000000   1.0000000   1.0000000  12.0000000

  Atom        81          82          83          84          85          86          87          88          89          90
 IAtWgt=          12          12          12          12          14          12          12          12          12          12
 AtmWgt=  12.0000000  12.0000000  12.0000000  12.0000000  14.0030740  12.0000000  12.0000000  12.0000000  12.0000000  12.0000000
 NucSpn=           0           0           0           0           2           0           0           0           0           0
 AtZEff=  -0.0000000  -0.0000000  -0.0000000  -0.0000000  -0.0000000  -0.0000000  -0.0000000  -0.0000000  -0.0000000  -0.0000000
 NQMom=    0.0000000   0.0000000   0.0000000   0.0000000   2.0440000   0.0000000   0.0000000   0.0000000   0.0000000   0.0000000
 NMagM=    0.0000000   0.0000000   0.0000000   0.0000000   0.4037610   0.0000000   0.0000000   0.0000000   0.0000000   0.0000000
 AtZNuc=   6.0000000   6.0000000   6.0000000   6.0000000   7.0000000   6.0000000   6.0000000   6.0000000   6.0000000   6.0000000

  Atom        91          92          93          94          95          96          97          98          99         100
 IAtWgt=          12          12           1          14          12          12          12          12          12          12
 AtmWgt=  12.0000000  12.0000000   1.0078250  14.0030740  12.0000000  12.0000000  12.0000000  12.0000000  12.0000000  12.0000000
 NucSpn=           0           0           1           2           0           0           0           0           0           0
 AtZEff=  -0.0000000  -0.0000000  -0.0000000  -0.0000000  -0.0000000  -0.0000000  -0.0000000  -0.0000000  -0.0000000  -0.0000000
 NQMom=    0.0000000   0.0000000   0.0000000   2.0440000   0.0000000   0.0000000   0.0000000   0.0000000   0.0000000   0.0000000
 NMagM=    0.0000000   0.0000000   2.7928460   0.4037610   0.0000000   0.0000000   0.0000000   0.0000000   0.0000000   0.0000000
 AtZNuc=   6.0000000   6.0000000   1.0000000   7.0000000   6.0000000   6.0000000   6.0000000   6.0000000   6.0000000   6.0000000

  Atom       101         102         103         104         105         106         107         108         109         110
 IAtWgt=          16          12          14          12          12          12          12          12          12          12
 AtmWgt=  15.9949146  12.0000000  14.0030740  12.0000000  12.0000000  12.0000000  12.0000000  12.0000000  12.0000000  12.0000000
 NucSpn=           0           0           2           0           0           0           0           0           0           0
 AtZEff=  -0.0000000  -0.0000000  -0.0000000  -0.0000000  -0.0000000  -0.0000000  -0.0000000  -0.0000000  -0.0000000  -0.0000000
 NQMom=    0.0000000   0.0000000   2.0440000   0.0000000   0.0000000   0.0000000   0.0000000   0.0000000   0.0000000   0.0000000
 NMagM=    0.0000000   0.0000000   0.4037610   0.0000000   0.0000000   0.0000000   0.0000000   0.0000000   0.0000000   0.0000000
 AtZNuc=   8.0000000   6.0000000   7.0000000   6.0000000   6.0000000   6.0000000   6.0000000   6.0000000   6.0000000   6.0000000

  Atom       111         112         113         114         115         116         117         118         119         120
 IAtWgt=          14          12          12          12          12          12          12          16          12          12
 AtmWgt=  14.0030740  12.0000000  12.0000000  12.0000000  12.0000000  12.0000000  12.0000000  15.9949146  12.0000000  12.0000000
 NucSpn=           2           0           0           0           0           0           0           0           0           0
 AtZEff=  -0.0000000  -0.0000000  -0.0000000  -0.0000000  -0.0000000  -0.0000000  -0.0000000  -0.0000000  -0.0000000  -0.0000000
 NQMom=    2.0440000   0.0000000   0.0000000   0.0000000   0.0000000   0.0000000   0.0000000   0.0000000   0.0000000   0.0000000
 NMagM=    0.4037610   0.0000000   0.0000000   0.0000000   0.0000000   0.0000000   0.0000000   0.0000000   0.0000000   0.0000000
 AtZNuc=   7.0000000   6.0000000   6.0000000   6.0000000   6.0000000   6.0000000   6.0000000   8.0000000   6.0000000   6.0000000

  Atom       121         122         123         124         125         126         127         128         129         130
 IAtWgt=          16          16          12           1           1           1           1           1           1           1
 AtmWgt=  15.9949146  15.9949146  12.0000000   1.0078250   1.0078250   1.0078250   1.0078250   1.0078250   1.0078250   1.0078250
 NucSpn=           0           0           0           1           1           1           1           1           1           1
 AtZEff=  -0.0000000  -0.0000000  -0.0000000  -0.0000000  -0.0000000  -0.0000000  -0.0000000  -0.0000000  -0.0000000  -0.0000000
 NQMom=    0.0000000   0.0000000   0.0000000   0.0000000   0.0000000   0.0000000   0.0000000   0.0000000   0.0000000   0.0000000
 NMagM=    0.0000000   0.0000000   0.0000000   2.7928460   2.7928460   2.7928460   2.7928460   2.7928460   2.7928460   2.7928460
 AtZNuc=   8.0000000   8.0000000   6.0000000   1.0000000   1.0000000   1.0000000   1.0000000   1.0000000   1.0000000   1.0000000

  Atom       131         132         133         134         135         136         137         138         139         140
 IAtWgt=           1           1           1           1           1           1           1           1           1           1
 AtmWgt=   1.0078250   1.0078250   1.0078250   1.0078250   1.0078250   1.0078250   1.0078250   1.0078250   1.0078250   1.0078250
 NucSpn=           1           1           1           1           1           1           1           1           1           1
 AtZEff=  -0.0000000  -0.0000000  -0.0000000  -0.0000000  -0.0000000  -0.0000000  -0.0000000  -0.0000000  -0.0000000  -0.0000000
 NQMom=    0.0000000   0.0000000   0.0000000   0.0000000   0.0000000   0.0000000   0.0000000   0.0000000   0.0000000   0.0000000
 NMagM=    2.7928460   2.7928460   2.7928460   2.7928460   2.7928460   2.7928460   2.7928460   2.7928460   2.7928460   2.7928460
 AtZNuc=   1.0000000   1.0000000   1.0000000   1.0000000   1.0000000   1.0000000   1.0000000   1.0000000   1.0000000   1.0000000

  Atom       141         142         143         144         145         146         147         148         149         150
 IAtWgt=           1           1           1           1           1           1           1           1           1           1
 AtmWgt=   1.0078250   1.0078250   1.0078250   1.0078250   1.0078250   1.0078250   1.0078250   1.0078250   1.0078250   1.0078250
 NucSpn=           1           1           1           1           1           1           1           1           1           1
 AtZEff=  -0.0000000  -0.0000000  -0.0000000  -0.0000000  -0.0000000  -0.0000000  -0.0000000  -0.0000000  -0.0000000  -0.0000000
 NQMom=    0.0000000   0.0000000   0.0000000   0.0000000   0.0000000   0.0000000   0.0000000   0.0000000   0.0000000   0.0000000
 NMagM=    2.7928460   2.7928460   2.7928460   2.7928460   2.7928460   2.7928460   2.7928460   2.7928460   2.7928460   2.7928460
 AtZNuc=   1.0000000   1.0000000   1.0000000   1.0000000   1.0000000   1.0000000   1.0000000   1.0000000   1.0000000   1.0000000

  Atom       151         152         153         154         155         156         157         158
 IAtWgt=           1           1           1           1           1           1           1           1
 AtmWgt=   1.0078250   1.0078250   1.0078250   1.0078250   1.0078250   1.0078250   1.0078250   1.0078250
 NucSpn=           1           1           1           1           1           1           1           1
 AtZEff=  -0.0000000  -0.0000000  -0.0000000  -0.0000000  -0.0000000  -0.0000000  -0.0000000  -0.0000000
 NQMom=    0.0000000   0.0000000   0.0000000   0.0000000   0.0000000   0.0000000   0.0000000   0.0000000
 NMagM=    2.7928460   2.7928460   2.7928460   2.7928460   2.7928460   2.7928460   2.7928460   2.7928460
 AtZNuc=   1.0000000   1.0000000   1.0000000   1.0000000   1.0000000   1.0000000   1.0000000   1.0000000
 Leave Link  101 at Sun Sep 12 16:04:18 2021, MaxMem= 23488102400 cpu:               3.2 elap:               0.2
 (Enter /sw/apps/gaussian-16.0/g16/l202.exe)
 Stoichiometry    C68H72Mg2N8O8
 Framework group  C1[X(C68H72Mg2N8O8)]
 Deg. of freedom   468
 Full point group                 C1      NOp   1
 Largest Abelian subgroup         C1      NOp   1
 Largest concise Abelian subgroup C1      NOp   1
                         Standard orientation:                         
 ---------------------------------------------------------------------
 Center     Atomic      Atomic             Coordinates (Angstroms)
 Number     Number       Type             X           Y           Z
 ---------------------------------------------------------------------
      1         12           0       15.493555    0.719479    0.442315
      2          6           0       15.768974   -2.466320   -1.166115
      3          6           0       16.410129    2.130760   -2.526059
      4          6           0       15.699261    3.500432    1.952482
      5          6           0       15.715640   -0.963265    3.486114
      6          7           0       15.997369   -0.161078   -1.525282
      7          6           0       16.006801   -1.392241   -2.026601
      8          6           0       16.218801   -1.429383   -3.569666
      9          6           0       16.957694   -0.028917   -3.756024
     10          6           0       16.395638    0.704506   -2.550990
     11          6           0       18.473883   -0.116418   -3.614541
     12          6           0       14.864825   -1.471727   -4.354960
     13          6           0       14.980653   -1.836574   -5.837803
     14          1           0       13.927056   -2.634077   -6.447123
     15          7           0       15.503926    2.563942   -0.265286
     16          6           0       15.893052    2.954414   -1.502783
     17          6           0       15.715389    4.421927   -1.541785
     18          6           0       15.371607    4.875386   -0.165455
     19          6           0       15.539042    3.652364    0.577217
     20          6           0       15.824590    5.230882   -2.797737
     21          6           0       14.968018    6.203009    0.393708
     22          8           0       14.940601    6.431437    1.651342
     23          6           0       14.687211    7.269763   -0.584160
     24          7           0       15.900769    1.232296    2.424442
     25          6           0       15.871015    2.507332    2.827409
     26          6           0       15.911450    2.608237    4.323445
     27          6           0       15.729452    1.119706    4.871991
     28          6           0       15.696074    0.371183    3.516680
     29          6           0       17.187580    3.219047    4.918772
     30          6           0       14.575836    0.876887    5.877292
     31          6           0       13.244160    1.058499    5.183928
     32          7           0       15.527071   -1.352481    1.087996
     33          6           0       15.647532   -1.823891    2.403266
     34          6           0       15.732051   -3.294073    2.329192
     35          6           0       15.671167   -3.576611    0.965994
     36          6           0       15.582350   -2.358567    0.233346
     37          6           0       15.906698   -4.175414    3.432447
     38          6           0       15.685294   -4.622878   -0.043453
     39          8           0       15.651140   -5.853984   -0.016891
     40          6           0       15.871950   -3.940290   -1.470008
     41          6           0       14.850806   -4.539948   -2.397901
     42          8           0       13.631963   -4.333327   -2.227326
     43          8           0       15.472769   -5.059488   -3.467379
     44          6           0       14.514032   -5.644812   -4.442250
     45          1           0       16.914226    2.667653   -3.332020
     46          1           0       15.663919    4.432105    2.520967
     47          1           0       15.701327   -1.560187    4.399860
     48          1           0       16.859786   -2.238151   -3.921030
     49          1           0       16.657607    0.470118   -4.677237
     50          1           0       18.786409   -1.105687   -3.280483
     51          1           0       18.741081    0.637543   -2.873838
     52          1           0       18.967192    0.183998   -4.539297
     53          1           0       14.468716   -0.460108   -4.443196
     54          1           0       14.159297   -2.148199   -3.871283
     55          1           0       15.959946   -2.256244   -6.069689
     56          1           0       14.935384   -0.916439   -6.420471
     57          1           0       16.249250    4.647844   -3.613995
     58          1           0       16.560904    6.012161   -2.610238
     59          1           0       14.873098    5.682344   -3.079121
     60          1           0       15.573871    7.440430   -1.195106
     61          1           0       14.327836    8.120468   -0.006232
     62          1           0       13.906924    6.928235   -1.264938
     63          1           0       15.096910    3.228202    4.695728
     64          1           0       16.617580    0.765384    5.395785
     65          1           0       17.003562    4.089174    5.549424
     66          1           0       17.857972    3.466914    4.096320
     67          1           0       17.799581    2.526460    5.496002
     68          1           0       14.618236    1.605388    6.686263
     69          1           0       14.596790   -0.116980    6.324551
     70          1           0       13.092650    2.136497    5.226330
     71          1           0       12.458016    0.532127    5.726258
     72          1           0       13.301691    0.778668    4.131849
     73          1           0       15.221926   -5.007574    3.269454
     74          1           0       15.701337   -3.672655    4.377256
     75          1           0       16.958787   -4.435994    3.318154
     76          1           0       16.891301   -4.155015   -1.789288
     77          1           0       14.810740   -6.681593   -4.601257
     78          1           0       14.508355   -4.981752   -5.307538
     79          1           0       13.489592   -5.775369   -4.091798
     80         12           0      -16.241459    0.314176   -0.198862
     81          6           0      -13.649605   -1.981388    0.745479
     82          6           0      -13.870523    2.766297   -0.179887
     83          6           0      -18.571483    2.432448   -0.587825
     84          6           0      -18.547089   -2.030858    0.954637
     85          7           0      -14.074229    0.273505    0.241264
     86          6           0      -13.186732   -0.666797    0.528555
     87          6           0      -11.710874   -0.186196    0.507710
     88          6           0      -11.963040    1.376544    0.778144
     89          6           0      -13.377575    1.496939    0.214869
     90          6           0      -12.005061    1.732649    2.254876
     91          6           0      -11.024067   -0.425038   -0.882705
     92          6           0       -9.502049   -0.266250   -0.883889
     93          1           0       -8.711811   -1.139464   -1.747306
     94          7           0      -16.175861    2.193517   -0.833169
     95          6           0      -15.125159    3.037976   -0.768441
     96          6           0      -15.592476    4.306791   -1.348006
     97          6           0      -17.053149    4.193341   -1.609271
     98          6           0      -17.333647    2.914801   -0.987371
     99          6           0      -14.666435    5.442421   -1.673928
    100          6           0      -18.037424    5.093301   -2.292996
    101          8           0      -19.301621    4.905562   -2.196173
    102          6           0      -17.481076    6.254898   -3.001979
    103          7           0      -18.253063    0.309848    0.326256
    104          6           0      -19.056867    1.334775   -0.007434
    105          6           0      -20.507852    0.989248    0.228451
    106          6           0      -20.528137   -0.574317    0.563740
    107          6           0      -19.009557   -0.855644    0.550703
    108          6           0      -21.200916    1.759483    1.352190
    109          6           0      -21.453048   -1.468756   -0.306427
    110          6           0      -20.934065   -1.521302   -1.725330
    111          7           0      -16.162203   -1.722000    0.519321
    112          6           0      -17.242844   -2.508248    0.975510
    113          6           0      -16.677598   -3.780906    1.468711
    114          6           0      -15.294167   -3.636455    1.285041
    115          6           0      -15.015088   -2.355692    0.736154
    116          6           0      -17.417530   -4.852355    2.043708
    117          6           0      -14.005561   -4.272062    1.440538
    118          8           0      -13.624642   -5.393459    1.773880
    119          6           0      -12.872921   -3.179839    1.215668
    120          6           0      -11.846788   -3.760316    0.281532
    121          8           0      -12.142877   -4.024954   -0.896988
    122          8           0      -10.636486   -3.704314    0.866688
    123          6           0       -9.583640   -4.258596   -0.025556
    124          1           0      -13.256544    3.645527    0.017250
    125          1           0      -19.422706    3.082504   -0.803075
    126          1           0      -19.208522   -2.851966    1.239211
    127          1           0      -11.086428   -0.602718    1.288965
    128          1           0      -11.272070    1.992502    0.208476
    129          1           0      -11.976105    0.854110    2.882154
    130          1           0      -12.931937    2.271643    2.401243
    131          1           0      -11.204805    2.438400    2.495378
    132          1           0      -11.298695    0.391612   -1.562706
    133          1           0      -11.287316   -1.387059   -1.277455
    134          1           0       -9.088183   -0.253257    0.131744
    135          1           0       -9.256313    0.719604   -1.286062
    136          1           0      -13.678812    5.299560   -1.218308
    137          1           0      -15.067291    6.333874   -1.179468
    138          1           0      -14.596803    5.634532   -2.746730
    139          1           0      -16.918409    6.869113   -2.302985
    140          1           0      -18.329838    6.726935   -3.500628
    141          1           0      -16.767041    5.897667   -3.752429
    142          1           0      -21.097157    1.165144   -0.663109
    143          1           0      -20.874546   -0.766540    1.589841
    144          1           0      -22.104001    2.303203    1.016234
    145          1           0      -20.485506    2.443701    1.788732
    146          1           0      -21.497999    1.157845    2.209496
    147          1           0      -22.456156   -1.038379   -0.358596
    148          1           0      -21.555917   -2.480390    0.071740
    149          1           0      -21.338403   -0.607049   -2.170002
    150          1           0      -21.305970   -2.406860   -2.236703
    151          1           0      -19.840878   -1.443179   -1.747687
    152          1           0      -17.024581   -5.765940    1.617747
    153          1           0      -18.483123   -4.748638    1.849950
    154          1           0      -17.176795   -4.710491    3.100679
    155          1           0      -12.449299   -2.941382    2.192022
    156          1           0       -9.073450   -5.048332    0.534532
    157          1           0       -8.974037   -3.391679   -0.342720
    158          1           0       -9.907465   -4.799754   -0.906889
 ---------------------------------------------------------------------
 Rotational constants (GHZ):           0.0265431           0.0016891           0.0016520
 Leave Link  202 at Sun Sep 12 16:04:18 2021, MaxMem= 23488102400 cpu:               0.2 elap:               0.0
 (Enter /sw/apps/gaussian-16.0/g16/l301.exe)
 Standard basis: def2SVP (5D, 7F)
 Ernie: Thresh=  0.10000D-02 Tol=  0.10000D-05 Strict=F.
 There are  1658 symmetry adapted cartesian basis functions of A   symmetry.
 There are  1572 symmetry adapted basis functions of A   symmetry.
  1572 basis functions,  2678 primitive gaussians,  1658 cartesian basis functions
   312 alpha electrons      312 beta electrons
       nuclear repulsion energy     12359.1888381446 Hartrees.
 IExCor=20419 DFT=T Ex+Corr=CAM-B3LYP ExCW=0 ScaHFX=  1.000000
 ScaDFX=  1.000000  1.000000  1.000000  0.810000 ScalE2=  1.000000  1.000000
 IRadAn=      5 IRanWt=     -1 IRanGd=            0 ICorTp=0 IEmpDi=  4
 HFx  wShort=  0.000000 wLong=  0.330000 cFull=  0.190000 cShort=  0.000000 cLong=  0.460000
 DFx  wShort=  0.000000 wLong=  0.330000 cFull=  0.190000 cShort=  0.000000 cLong=  0.460000
 NAtoms=  158 NActive=  158 NUniq=  158 SFac= 1.00D+00 NAtFMM=   60 NAOKFM=T Big=T
 Integral buffers will be    131072 words long.
 Raffenetti 1 integral format.
 Two-electron integral symmetry is turned on.
 Leave Link  301 at Sun Sep 12 16:04:18 2021, MaxMem= 23488102400 cpu:               1.4 elap:               0.1
 (Enter /sw/apps/gaussian-16.0/g16/l302.exe)
 NPDir=0 NMtPBC=     1 NCelOv=     1 NCel=       1 NClECP=     1 NCelD=      1
         NCelK=      1 NCelE2=     1 NClLst=     1 CellRange=     0.0.
 One-electron integrals computed using PRISM.
 One-electron integral symmetry used in STVInt
   1 Symmetry operations used in ECPInt.
 ECPInt:  NShTT=  271216 NPrTT=  987664 LenC2=  103958 LenP2D=  239867.
 LDataN:  DoStor=T MaxTD1= 4 Len=   56
 NBasis=  1572 RedAO= T EigKep=  3.36D-04  NBF=  1572
 NBsUse=  1572 1.00D-06 EigRej= -1.00D+00 NBFU=  1572
 Precomputing XC quadrature grid using
 IXCGrd= 4 IRadAn=           5 IRanWt=          -1 IRanGd=           0 AccXCQ= 0.00D+00.
 Generated NRdTot=       0 NPtTot=           0 NUsed=           0 NTot=          32
 NSgBfM=   812   812   812   812   812 MxSgAt=   158 MxSgA2=    80.
 Leave Link  302 at Sun Sep 12 16:04:22 2021, MaxMem= 23488102400 cpu:              98.6 elap:               4.1
 (Enter /sw/apps/gaussian-16.0/g16/l303.exe)
 DipDrv:  MaxL=1.
 Leave Link  303 at Sun Sep 12 16:04:22 2021, MaxMem= 23488102400 cpu:               8.4 elap:               0.4
 (Enter /sw/apps/gaussian-16.0/g16/l308.exe)
 Leave Link  308 at Sun Sep 12 16:04:23 2021, MaxMem= 23488102400 cpu:              12.7 elap:               0.6
 (Enter /sw/apps/gaussian-16.0/g16/l401.exe)
 ExpMin= 3.36D-02 ExpMax= 4.95D+03 ExpMxC= 7.45D+02 IAcc=3 IRadAn=         5 AccDes= 0.00D+00
 Harris functional with IExCor=20419 and IRadAn=       5 diagonalized for initial guess.
 HarFok:  IExCor=20419 AccDes= 0.00D+00 IRadAn=         5 IDoV= 1 UseB2=F ITyADJ=14
 ICtDFT=  3500011 ScaDFX=  1.000000  1.000000  1.000000  1.000000
 FoFCou: FMM=F IPFlag=           0 FMFlag=      100000 FMFlg1=        2001
         NFxFlg=           0 DoJE=T BraDBF=F KetDBF=T FulRan=T
         wScrn=  0.000000 ICntrl=       500 IOpCl=  0 I1Cent=   200000004 NGrid=           0
         NMat0=    1 NMatS0=      1 NMatT0=    0 NMatD0=    1 NMtDS0=    0 NMtDT0=    0
 Petite list used in FoFCou.
 Harris En= -3918.65801366307    
 JPrj=0 DoOrth=F DoCkMO=F.
 Leave Link  401 at Sun Sep 12 16:04:29 2021, MaxMem= 23488102400 cpu:             153.5 elap:               6.4
 (Enter /sw/apps/gaussian-16.0/g16/l502.exe)
 Integral symmetry usage will be decided dynamically.
 Closed shell SCF:
 Using DIIS extrapolation, IDIIS=  1040.
 NGot= 23488102400 LenX= 23482547354 LenY= 23479796732
 Requested convergence on RMS density matrix=1.00D-08 within 128 cycles.
 Requested convergence on MAX density matrix=1.00D-06.
 Requested convergence on             energy=1.00D-06.
 No special actions if energy rises.
 Fock matrices will be formed incrementally for  20 cycles.

 Cycle   1  Pass 1  IDiag  1:
 FoFJK:  IHMeth= 1 ICntrl=       0 DoSepK=T KAlg= 0 I1Cent=           0 FoldK=F
 IRaf=         1 NMat=       1 IRICut=       1 DoRegI=T DoRafI=F ISym2E= 0 IDoP0=0 IntGTp=1.
 FoFCou: FMM=T IPFlag=           0 FMFlag=      100000 FMFlg1=        2001
         NFxFlg=           0 DoJE=T BraDBF=F KetDBF=F FulRan=T
         wScrn=  0.000000 ICntrl=       500 IOpCl=  0 I1Cent=           0 NGrid=           0
         NMat0=    1 NMatS0=      1 NMatT0=    0 NMatD0=    1 NMtDS0=    0 NMtDT0=    0
 Symmetry not used in FoFCou.
 FMM levels:  10  Number of levels for PrismC:   9
 E= -4068.94930536779    
 DIIS: error= 2.04D-02 at cycle   1 NSaved=   1.
 NSaved= 1 IEnMin= 1 EnMin= -4068.94930536779     IErMin= 1 ErrMin= 2.04D-02
 ErrMax= 2.04D-02  0.00D+00 EMaxC= 1.00D-01 BMatC= 1.69D+00 BMatP= 1.69D+00
 IDIUse=3 WtCom= 7.96D-01 WtEn= 2.04D-01
 Coeff-Com:  0.100D+01
 Coeff-En:   0.100D+01
 Coeff:      0.100D+01
 Gap=     0.120 Goal=   None    Shift=    0.000
 GapD=    0.120 DampG=1.000 DampE=0.500 DampFc=0.5000 IDamp=-1.
 Damping current iteration by 5.00D-01
 RMSDP=1.57D-03 MaxDP=1.35D-01              OVMax= 2.03D-01

 Cycle   2  Pass 1  IDiag  1:
 RMSU=  7.69D-04    CP:  9.82D-01
 E= -4069.33822767915     Delta-E=       -0.388922311358 Rises=F Damp=T
 DIIS: error= 1.27D-02 at cycle   2 NSaved=   2.
 NSaved= 2 IEnMin= 2 EnMin= -4069.33822767915     IErMin= 2 ErrMin= 1.27D-02
 ErrMax= 1.27D-02  0.00D+00 EMaxC= 1.00D-01 BMatC= 3.07D-01 BMatP= 1.69D+00
 IDIUse=3 WtCom= 8.73D-01 WtEn= 1.27D-01
 Coeff-Com: -0.213D+00 0.121D+01
 Coeff-En:   0.000D+00 0.100D+01
 Coeff:     -0.186D+00 0.119D+01
 Gap=     0.137 Goal=   None    Shift=    0.000
 RMSDP=7.65D-04 MaxDP=9.44D-02 DE=-3.89D-01 OVMax= 1.88D-01

 Cycle   3  Pass 1  IDiag  1:
 RMSU=  7.32D-04    CP:  9.68D-01  1.24D+00
 E= -4069.62804758627     Delta-E=       -0.289819907124 Rises=F Damp=F
 DIIS: error= 1.58D-02 at cycle   3 NSaved=   3.
 NSaved= 3 IEnMin= 3 EnMin= -4069.62804758627     IErMin= 2 ErrMin= 1.27D-02
 ErrMax= 1.58D-02  0.00D+00 EMaxC= 1.00D-01 BMatC= 2.02D-01 BMatP= 3.07D-01
 IDIUse=3 WtCom= 8.42D-01 WtEn= 1.58D-01
 Coeff-Com: -0.267D+00 0.652D+00 0.616D+00
 Coeff-En:   0.000D+00 0.000D+00 0.100D+01
 Coeff:     -0.225D+00 0.549D+00 0.676D+00
 Gap=     0.125 Goal=   None    Shift=    0.000
 RMSDP=5.08D-04 MaxDP=4.90D-02 DE=-2.90D-01 OVMax= 1.42D-01

 Cycle   4  Pass 1  IDiag  1:
 RMSU=  2.65D-04    CP:  9.65D-01  1.55D+00  5.06D-01
 E= -4069.76513795683     Delta-E=       -0.137090370557 Rises=F Damp=F
 DIIS: error= 7.31D-03 at cycle   4 NSaved=   4.
 NSaved= 4 IEnMin= 4 EnMin= -4069.76513795683     IErMin= 4 ErrMin= 7.31D-03
 ErrMax= 7.31D-03  0.00D+00 EMaxC= 1.00D-01 BMatC= 5.03D-02 BMatP= 2.02D-01
 IDIUse=3 WtCom= 9.27D-01 WtEn= 7.31D-02
 Coeff-Com: -0.109D+00 0.226D+00 0.409D+00 0.474D+00
 Coeff-En:   0.000D+00 0.000D+00 0.221D+00 0.779D+00
 Coeff:     -0.101D+00 0.209D+00 0.395D+00 0.497D+00
 Gap=     0.123 Goal=   None    Shift=    0.000
 RMSDP=2.00D-04 MaxDP=2.02D-02 DE=-1.37D-01 OVMax= 6.17D-02

 Cycle   5  Pass 1  IDiag  1:
 RMSU=  7.58D-05    CP:  9.64D-01  1.49D+00  6.89D-01  5.50D-01
 E= -4069.81054271925     Delta-E=       -0.045404762415 Rises=F Damp=F
 DIIS: error= 7.85D-04 at cycle   5 NSaved=   5.
 NSaved= 5 IEnMin= 5 EnMin= -4069.81054271925     IErMin= 5 ErrMin= 7.85D-04
 ErrMax= 7.85D-04  0.00D+00 EMaxC= 1.00D-01 BMatC= 1.16D-03 BMatP= 5.03D-02
 IDIUse=3 WtCom= 9.92D-01 WtEn= 7.85D-03
 Coeff-Com: -0.357D-01 0.701D-01 0.165D+00 0.249D+00 0.552D+00
 Coeff-En:   0.000D+00 0.000D+00 0.000D+00 0.000D+00 0.100D+01
 Coeff:     -0.354D-01 0.696D-01 0.164D+00 0.247D+00 0.555D+00
 Gap=     0.123 Goal=   None    Shift=    0.000
 RMSDP=4.07D-05 MaxDP=4.17D-03 DE=-4.54D-02 OVMax= 1.64D-02

 Cycle   6  Pass 1  IDiag  1:
 RMSU=  3.02D-05    CP:  9.64D-01  1.49D+00  6.81D-01  6.21D-01  7.59D-01
 E= -4069.81154666563     Delta-E=       -0.001003946381 Rises=F Damp=F
 DIIS: error= 2.19D-04 at cycle   6 NSaved=   6.
 NSaved= 6 IEnMin= 6 EnMin= -4069.81154666563     IErMin= 6 ErrMin= 2.19D-04
 ErrMax= 2.19D-04  0.00D+00 EMaxC= 1.00D-01 BMatC= 1.76D-04 BMatP= 1.16D-03
 IDIUse=3 WtCom= 9.98D-01 WtEn= 2.19D-03
 Coeff-Com:  0.231D-02-0.677D-02 0.109D-01 0.398D-01 0.306D+00 0.647D+00
 Coeff-En:   0.000D+00 0.000D+00 0.000D+00 0.000D+00 0.103D+00 0.897D+00
 Coeff:      0.230D-02-0.675D-02 0.108D-01 0.397D-01 0.306D+00 0.648D+00
 Gap=     0.123 Goal=   None    Shift=    0.000
 RMSDP=1.58D-05 MaxDP=1.24D-03 DE=-1.00D-03 OVMax= 7.23D-03

 Cycle   7  Pass 1  IDiag  1:
 RMSU=  1.07D-05    CP:  9.64D-01  1.50D+00  6.87D-01  6.21D-01  8.60D-01
                    CP:  7.49D-01
 E= -4069.81173514447     Delta-E=       -0.000188478847 Rises=F Damp=F
 DIIS: error= 8.37D-05 at cycle   7 NSaved=   7.
 NSaved= 7 IEnMin= 7 EnMin= -4069.81173514447     IErMin= 7 ErrMin= 8.37D-05
 ErrMax= 8.37D-05  0.00D+00 EMaxC= 1.00D-01 BMatC= 2.07D-05 BMatP= 1.76D-04
 IDIUse=1 WtCom= 1.00D+00 WtEn= 0.00D+00
 Coeff-Com:  0.445D-02-0.974D-02-0.898D-02-0.382D-02 0.102D+00 0.329D+00
 Coeff-Com:  0.587D+00
 Coeff:      0.445D-02-0.974D-02-0.898D-02-0.382D-02 0.102D+00 0.329D+00
 Coeff:      0.587D+00
 Gap=     0.123 Goal=   None    Shift=    0.000
 RMSDP=6.50D-06 MaxDP=1.11D-03 DE=-1.88D-04 OVMax= 3.41D-03

 Cycle   8  Pass 1  IDiag  1:
 RMSU=  4.67D-06    CP:  9.64D-01  1.50D+00  6.88D-01  6.26D-01  8.64D-01
                    CP:  8.75D-01  8.23D-01
 E= -4069.81176085282     Delta-E=       -0.000025708348 Rises=F Damp=F
 DIIS: error= 4.99D-05 at cycle   8 NSaved=   8.
 NSaved= 8 IEnMin= 8 EnMin= -4069.81176085282     IErMin= 8 ErrMin= 4.99D-05
 ErrMax= 4.99D-05  0.00D+00 EMaxC= 1.00D-01 BMatC= 4.82D-06 BMatP= 2.07D-05
 IDIUse=1 WtCom= 1.00D+00 WtEn= 0.00D+00
 Coeff-Com:  0.215D-02-0.426D-02-0.775D-02-0.121D-01-0.117D-01 0.335D-01
 Coeff-Com:  0.344D+00 0.656D+00
 Coeff:      0.215D-02-0.426D-02-0.775D-02-0.121D-01-0.117D-01 0.335D-01
 Coeff:      0.344D+00 0.656D+00
 Gap=     0.123 Goal=   None    Shift=    0.000
 RMSDP=3.27D-06 MaxDP=3.52D-04 DE=-2.57D-05 OVMax= 1.11D-03

 Cycle   9  Pass 1  IDiag  1:
 RMSU=  1.91D-06    CP:  9.64D-01  1.50D+00  6.88D-01  6.27D-01  8.81D-01
                    CP:  9.01D-01  1.02D+00  9.40D-01
 E= -4069.81176855419     Delta-E=       -0.000007701365 Rises=F Damp=F
 DIIS: error= 1.95D-05 at cycle   9 NSaved=   9.
 NSaved= 9 IEnMin= 9 EnMin= -4069.81176855419     IErMin= 9 ErrMin= 1.95D-05
 ErrMax= 1.95D-05  0.00D+00 EMaxC= 1.00D-01 BMatC= 6.87D-07 BMatP= 4.82D-06
 IDIUse=1 WtCom= 1.00D+00 WtEn= 0.00D+00
 Coeff-Com:  0.462D-03-0.767D-03-0.266D-02-0.599D-02-0.213D-01-0.386D-01
 Coeff-Com:  0.104D+00 0.326D+00 0.639D+00
 Coeff:      0.462D-03-0.767D-03-0.266D-02-0.599D-02-0.213D-01-0.386D-01
 Coeff:      0.104D+00 0.326D+00 0.639D+00
 Gap=     0.123 Goal=   None    Shift=    0.000
 RMSDP=1.42D-06 MaxDP=1.50D-04 DE=-7.70D-06 OVMax= 7.45D-04

 Cycle  10  Pass 1  IDiag  1:
 RMSU=  9.37D-07    CP:  9.64D-01  1.50D+00  6.88D-01  6.28D-01  8.84D-01
                    CP:  9.15D-01  1.07D+00  1.11D+00  1.05D+00
 E= -4069.81177014009     Delta-E=       -0.000001585900 Rises=F Damp=F
 DIIS: error= 1.02D-05 at cycle  10 NSaved=  10.
 NSaved=10 IEnMin=10 EnMin= -4069.81177014009     IErMin=10 ErrMin= 1.02D-05
 ErrMax= 1.02D-05  0.00D+00 EMaxC= 1.00D-01 BMatC= 1.71D-07 BMatP= 6.87D-07
 IDIUse=1 WtCom= 1.00D+00 WtEn= 0.00D+00
 Coeff-Com: -0.427D-03 0.895D-03 0.124D-02 0.113D-02-0.375D-02-0.310D-01
 Coeff-Com: -0.466D-01-0.767D-01 0.255D+00 0.900D+00
 Coeff:     -0.427D-03 0.895D-03 0.124D-02 0.113D-02-0.375D-02-0.310D-01
 Coeff:     -0.466D-01-0.767D-01 0.255D+00 0.900D+00
 Gap=     0.123 Goal=   None    Shift=    0.000
 RMSDP=1.22D-06 MaxDP=1.25D-04 DE=-1.59D-06 OVMax= 6.08D-04

 Cycle  11  Pass 1  IDiag  1:
 RMSU=  5.15D-07    CP:  9.64D-01  1.50D+00  6.88D-01  6.28D-01  8.87D-01
                    CP:  9.25D-01  1.11D+00  1.22D+00  1.39D+00  1.37D+00
 E= -4069.81177092826     Delta-E=       -0.000000788168 Rises=F Damp=F
 DIIS: error= 3.99D-06 at cycle  11 NSaved=  11.
 NSaved=11 IEnMin=11 EnMin= -4069.81177092826     IErMin=11 ErrMin= 3.99D-06
 ErrMax= 3.99D-06  0.00D+00 EMaxC= 1.00D-01 BMatC= 6.11D-08 BMatP= 1.71D-07
 IDIUse=1 WtCom= 1.00D+00 WtEn= 0.00D+00
 Coeff-Com: -0.327D-03 0.635D-03 0.133D-02 0.212D-02 0.443D-02-0.834D-02
 Coeff-Com: -0.435D-01-0.132D+00-0.236D-01 0.465D+00 0.735D+00
 Coeff:     -0.327D-03 0.635D-03 0.133D-02 0.212D-02 0.443D-02-0.834D-02
 Coeff:     -0.435D-01-0.132D+00-0.236D-01 0.465D+00 0.735D+00
 Gap=     0.123 Goal=   None    Shift=    0.000
 RMSDP=6.87D-07 MaxDP=5.82D-05 DE=-7.88D-07 OVMax= 3.72D-04

 Cycle  12  Pass 1  IDiag  1:
 RMSU=  2.62D-07    CP:  9.64D-01  1.50D+00  6.88D-01  6.28D-01  8.88D-01
                    CP:  9.28D-01  1.14D+00  1.28D+00  1.56D+00  1.76D+00
                    CP:  1.20D+00
 E= -4069.81177119118     Delta-E=       -0.000000262928 Rises=F Damp=F
 DIIS: error= 2.34D-06 at cycle  12 NSaved=  12.
 NSaved=12 IEnMin=12 EnMin= -4069.81177119118     IErMin=12 ErrMin= 2.34D-06
 ErrMax= 2.34D-06  0.00D+00 EMaxC= 1.00D-01 BMatC= 1.48D-08 BMatP= 6.11D-08
 IDIUse=1 WtCom= 1.00D+00 WtEn= 0.00D+00
 Coeff-Com:  0.103D-05-0.186D-04 0.175D-03 0.505D-03 0.330D-02 0.408D-02
 Coeff-Com:  0.296D-02-0.346D-01-0.680D-01-0.772D-01 0.249D+00 0.920D+00
 Coeff:      0.103D-05-0.186D-04 0.175D-03 0.505D-03 0.330D-02 0.408D-02
 Coeff:      0.296D-02-0.346D-01-0.680D-01-0.772D-01 0.249D+00 0.920D+00
 Gap=     0.123 Goal=   None    Shift=    0.000
 RMSDP=4.39D-07 MaxDP=3.02D-05 DE=-2.63D-07 OVMax= 2.49D-04

 Cycle  13  Pass 1  IDiag  1:
 RMSU=  1.65D-07    CP:  9.64D-01  1.50D+00  6.88D-01  6.28D-01  8.88D-01
                    CP:  9.28D-01  1.14D+00  1.31D+00  1.67D+00  1.99D+00
                    CP:  1.62D+00  1.28D+00
 E= -4069.81177128364     Delta-E=       -0.000000092459 Rises=F Damp=F
 DIIS: error= 1.25D-06 at cycle  13 NSaved=  13.
 NSaved=13 IEnMin=13 EnMin= -4069.81177128364     IErMin=13 ErrMin= 1.25D-06
 ErrMax= 1.25D-06  0.00D+00 EMaxC= 1.00D-01 BMatC= 8.13D-09 BMatP= 1.48D-08
 IDIUse=1 WtCom= 1.00D+00 WtEn= 0.00D+00
 Coeff-Com:  0.120D-03-0.245D-03-0.371D-03-0.459D-03 0.567D-03 0.508D-02
 Coeff-Com:  0.197D-01 0.228D-01-0.338D-01-0.242D+00-0.157D+00 0.600D+00
 Coeff-Com:  0.785D+00
 Coeff:      0.120D-03-0.245D-03-0.371D-03-0.459D-03 0.567D-03 0.508D-02
 Coeff:      0.197D-01 0.228D-01-0.338D-01-0.242D+00-0.157D+00 0.600D+00
 Coeff:      0.785D+00
 Gap=     0.123 Goal=   None    Shift=    0.000
 RMSDP=3.39D-07 MaxDP=2.22D-05 DE=-9.25D-08 OVMax= 1.96D-04

 Cycle  14  Pass 1  IDiag  1:
 RMSU=  7.61D-08    CP:  9.64D-01  1.50D+00  6.88D-01  6.28D-01  8.88D-01
                    CP:  9.29D-01  1.15D+00  1.33D+00  1.74D+00  2.18D+00
                    CP:  1.88D+00  1.79D+00  1.09D+00
 E= -4069.81177131929     Delta-E=       -0.000000035649 Rises=F Damp=F
 DIIS: error= 6.33D-07 at cycle  14 NSaved=  14.
 NSaved=14 IEnMin=14 EnMin= -4069.81177131929     IErMin=14 ErrMin= 6.33D-07
 ErrMax= 6.33D-07  0.00D+00 EMaxC= 1.00D-01 BMatC= 1.25D-09 BMatP= 8.13D-09
 IDIUse=1 WtCom= 1.00D+00 WtEn= 0.00D+00
 Coeff-Com:  0.662D-04-0.131D-03-0.246D-03-0.387D-03-0.485D-03 0.129D-02
 Coeff-Com:  0.108D-01 0.191D-01 0.375D-02-0.994D-01-0.142D+00 0.942D-01
 Coeff-Com:  0.404D+00 0.709D+00
 Coeff:      0.662D-04-0.131D-03-0.246D-03-0.387D-03-0.485D-03 0.129D-02
 Coeff:      0.108D-01 0.191D-01 0.375D-02-0.994D-01-0.142D+00 0.942D-01
 Coeff:      0.404D+00 0.709D+00
 Gap=     0.123 Goal=   None    Shift=    0.000
 RMSDP=1.01D-07 MaxDP=6.94D-06 DE=-3.56D-08 OVMax= 5.42D-05

 Cycle  15  Pass 1  IDiag  1:
 RMSU=  3.83D-08    CP:  9.64D-01  1.50D+00  6.88D-01  6.28D-01  8.88D-01
                    CP:  9.28D-01  1.15D+00  1.34D+00  1.76D+00  2.22D+00
                    CP:  1.98D+00  1.93D+00  1.32D+00  1.03D+00
 E= -4069.81177132338     Delta-E=       -0.000000004085 Rises=F Damp=F
 DIIS: error= 3.37D-07 at cycle  15 NSaved=  15.
 NSaved=15 IEnMin=15 EnMin= -4069.81177132338     IErMin=15 ErrMin= 3.37D-07
 ErrMax= 3.37D-07  0.00D+00 EMaxC= 1.00D-01 BMatC= 2.26D-10 BMatP= 1.25D-09
 IDIUse=1 WtCom= 1.00D+00 WtEn= 0.00D+00
 Coeff-Com:  0.512D-05-0.846D-05-0.318D-04-0.806D-04-0.299D-03-0.518D-03
 Coeff-Com:  0.111D-02 0.248D-02 0.876D-02 0.196D-02-0.306D-01-0.730D-01
 Coeff-Com:  0.286D-01 0.297D+00 0.765D+00
 Coeff:      0.512D-05-0.846D-05-0.318D-04-0.806D-04-0.299D-03-0.518D-03
 Coeff:      0.111D-02 0.248D-02 0.876D-02 0.196D-02-0.306D-01-0.730D-01
 Coeff:      0.286D-01 0.297D+00 0.765D+00
 Gap=     0.123 Goal=   None    Shift=    0.000
 RMSDP=4.07D-08 MaxDP=2.74D-06 DE=-4.09D-09 OVMax= 2.69D-05

 Cycle  16  Pass 1  IDiag  1:
 RMSU=  1.87D-08    CP:  9.64D-01  1.50D+00  6.88D-01  6.28D-01  8.88D-01
                    CP:  9.28D-01  1.15D+00  1.34D+00  1.77D+00  2.24D+00
                    CP:  2.01D+00  1.99D+00  1.40D+00  1.24D+00  1.14D+00
 E= -4069.81177132438     Delta-E=       -0.000000001004 Rises=F Damp=F
 DIIS: error= 1.64D-07 at cycle  16 NSaved=  16.
 NSaved=16 IEnMin=16 EnMin= -4069.81177132438     IErMin=16 ErrMin= 1.64D-07
 ErrMax= 1.64D-07  0.00D+00 EMaxC= 1.00D-01 BMatC= 8.16D-11 BMatP= 2.26D-10
 IDIUse=1 WtCom= 1.00D+00 WtEn= 0.00D+00
 Coeff-Com: -0.142D-04 0.288D-04 0.471D-04 0.540D-04-0.262D-04-0.634D-03
 Coeff-Com: -0.199D-02-0.427D-02 0.453D-02 0.256D-01 0.206D-01-0.647D-01
 Coeff-Com: -0.833D-01-0.371D-01 0.398D+00 0.743D+00
 Coeff:     -0.142D-04 0.288D-04 0.471D-04 0.540D-04-0.262D-04-0.634D-03
 Coeff:     -0.199D-02-0.427D-02 0.453D-02 0.256D-01 0.206D-01-0.647D-01
 Coeff:     -0.833D-01-0.371D-01 0.398D+00 0.743D+00
 Gap=     0.123 Goal=   None    Shift=    0.000
 RMSDP=2.29D-08 MaxDP=1.57D-06 DE=-1.00D-09 OVMax= 1.30D-05

 Cycle  17  Pass 1  IDiag  1:
 RMSU=  1.04D-08    CP:  9.64D-01  1.50D+00  6.88D-01  6.28D-01  8.88D-01
                    CP:  9.28D-01  1.15D+00  1.34D+00  1.77D+00  2.24D+00
                    CP:  2.02D+00  2.01D+00  1.45D+00  1.34D+00  1.44D+00
                    CP:  1.25D+00
 E= -4069.81177132464     Delta-E=       -0.000000000255 Rises=F Damp=F
 DIIS: error= 9.41D-08 at cycle  17 NSaved=  17.
 NSaved=17 IEnMin=17 EnMin= -4069.81177132464     IErMin=17 ErrMin= 9.41D-08
 ErrMax= 9.41D-08  0.00D+00 EMaxC= 1.00D-01 BMatC= 1.78D-11 BMatP= 8.16D-11
 IDIUse=1 WtCom= 1.00D+00 WtEn= 0.00D+00
 Coeff-Com: -0.718D-05 0.140D-04 0.285D-04 0.425D-04 0.842D-04-0.122D-03
 Coeff-Com: -0.960D-03-0.280D-02 0.132D-03 0.919D-02 0.174D-01-0.723D-02
 Coeff-Com: -0.368D-01-0.101D+00-0.315D-01 0.294D+00 0.860D+00
 Coeff:     -0.718D-05 0.140D-04 0.285D-04 0.425D-04 0.842D-04-0.122D-03
 Coeff:     -0.960D-03-0.280D-02 0.132D-03 0.919D-02 0.174D-01-0.723D-02
 Coeff:     -0.368D-01-0.101D+00-0.315D-01 0.294D+00 0.860D+00
 Gap=     0.123 Goal=   None    Shift=    0.000
 RMSDP=1.37D-08 MaxDP=1.05D-06 DE=-2.55D-10 OVMax= 8.89D-06

 Cycle  18  Pass 1  IDiag  1:
 RMSU=  4.87D-09    CP:  9.64D-01  1.50D+00  6.88D-01  6.28D-01  8.88D-01
                    CP:  9.28D-01  1.15D+00  1.34D+00  1.77D+00  2.24D+00
                    CP:  2.03D+00  2.02D+00  1.47D+00  1.41D+00  1.61D+00
                    CP:  1.66D+00  1.39D+00
 E= -4069.81177132445     Delta-E=        0.000000000182 Rises=F Damp=F
 DIIS: error= 5.10D-08 at cycle  18 NSaved=  18.
 NSaved=18 IEnMin=17 EnMin= -4069.81177132464     IErMin=18 ErrMin= 5.10D-08
 ErrMax= 5.10D-08  0.00D+00 EMaxC= 1.00D-01 BMatC= 6.90D-12 BMatP= 1.78D-11
 IDIUse=1 WtCom= 1.00D+00 WtEn= 0.00D+00
 Coeff-Com:  0.208D-05-0.447D-05-0.469D-05-0.187D-05 0.590D-04 0.184D-03
 Coeff-Com:  0.408D-03 0.235D-03-0.129D-02-0.624D-02-0.171D-03 0.203D-01
 Coeff-Com:  0.186D-01-0.326D-01-0.163D+00-0.193D+00 0.348D+00 0.101D+01
 Coeff:      0.208D-05-0.447D-05-0.469D-05-0.187D-05 0.590D-04 0.184D-03
 Coeff:      0.408D-03 0.235D-03-0.129D-02-0.624D-02-0.171D-03 0.203D-01
 Coeff:      0.186D-01-0.326D-01-0.163D+00-0.193D+00 0.348D+00 0.101D+01
 Gap=     0.123 Goal=   None    Shift=    0.000
 RMSDP=1.18D-08 MaxDP=8.10D-07 DE= 1.82D-10 OVMax= 6.79D-06

 Cycle  19  Pass 1  IDiag  1:
 RMSU=  2.79D-09    CP:  9.64D-01  1.50D+00  6.88D-01  6.28D-01  8.88D-01
                    CP:  9.28D-01  1.15D+00  1.34D+00  1.77D+00  2.24D+00
                    CP:  2.03D+00  2.03D+00  1.48D+00  1.46D+00  1.77D+00
                    CP:  1.99D+00  1.94D+00  1.38D+00
 E= -4069.81177132453     Delta-E=       -0.000000000080 Rises=F Damp=F
 DIIS: error= 3.35D-08 at cycle  19 NSaved=  19.
 NSaved=19 IEnMin=17 EnMin= -4069.81177132464     IErMin=19 ErrMin= 3.35D-08
 ErrMax= 3.35D-08  0.00D+00 EMaxC= 1.00D-01 BMatC= 1.40D-12 BMatP= 6.90D-12
 IDIUse=1 WtCom= 1.00D+00 WtEn= 0.00D+00
 Coeff-Com:  0.286D-05-0.577D-05-0.981D-05-0.123D-04 0.106D-04 0.118D-03
 Coeff-Com:  0.472D-03 0.788D-03-0.586D-03-0.589D-02-0.478D-02 0.119D-01
 Coeff-Com:  0.199D-01 0.113D-01-0.678D-01-0.176D+00-0.333D-01 0.487D+00
 Coeff-Com:  0.757D+00
 Coeff:      0.286D-05-0.577D-05-0.981D-05-0.123D-04 0.106D-04 0.118D-03
 Coeff:      0.472D-03 0.788D-03-0.586D-03-0.589D-02-0.478D-02 0.119D-01
 Coeff:      0.199D-01 0.113D-01-0.678D-01-0.176D+00-0.333D-01 0.487D+00
 Coeff:      0.757D+00
 Gap=     0.123 Goal=   None    Shift=    0.000
 RMSDP=4.47D-09 MaxDP=3.18D-07 DE=-8.00D-11 OVMax= 2.91D-06

 SCF Done:  E(RCAM-B3LYP) =  -4069.81177132     A.U. after   19 cycles
            NFock= 19  Conv=0.45D-08     -V/T= 2.0102
 KE= 4.028802086089D+03 PE=-3.419917796787D+04 EE= 1.374137527231D+04
 Leave Link  502 at Sun Sep 12 16:12:49 2021, MaxMem= 23488102400 cpu:           11443.9 elap:             500.2
 (Enter /sw/apps/gaussian-16.0/g16/l801.exe)
 DoSCS=F DFT=T ScalE2(SS,OS)=  1.000000  1.000000
 ExpMin= 3.36D-02 ExpMax= 4.95D+03 ExpMxC= 7.45D+02 IAcc=3 IRadAn=         5 AccDes= 0.00D+00
 HarFok:  IExCor=  205 AccDes= 0.00D+00 IRadAn=         5 IDoV=-2 UseB2=F ITyADJ=14
 ICtDFT= 12500011 ScaDFX=  1.000000  1.000000  1.000000  1.000000
 GSVD:  LWork=       -9588 too small for GESVD, short by       45590 words or       45590 for optimal perf.
 Largest valence mixing into a core orbital is  2.03D-04
 Largest core mixing into a valence orbital is  5.24D-05
 Range of M.O.s used for correlation:    95  1572
 NBasis=  1572 NAE=   312 NBE=   312 NFC=    94 NFV=     0
 NROrb=   1478 NOA=   218 NOB=   218 NVA=  1260 NVB=  1260
 Leave Link  801 at Sun Sep 12 16:12:50 2021, MaxMem= 23488102400 cpu:               9.6 elap:               0.4
 (Enter /sw/apps/gaussian-16.0/g16/l914.exe)
 RHF ground state
 Two-electron integrals replicated using symmetry.
 MDV= 23488102400 DFT=T DoStab=F Mixed=T DoRPA=T DoScal=F NonHer=T
 Making orbital integer symmetry assigments:
 Orbital symmetries:
       Occupied  (A) (A) (A) (A) (A) (A) (A) (A) (A) (A) (A) (A)
                 (A) (A) (A) (A) (A) (A) (A) (A) (A) (A) (A) (A)
                 (A) (A) (A) (A) (A) (A) (A) (A) (A) (A) (A) (A)
                 (A) (A) (A) (A) (A) (A) (A) (A) (A) (A) (A) (A)
                 (A) (A) (A) (A) (A) (A) (A) (A) (A) (A) (A) (A)
                 (A) (A) (A) (A) (A) (A) (A) (A) (A) (A) (A) (A)
                 (A) (A) (A) (A) (A) (A) (A) (A) (A) (A) (A) (A)
                 (A) (A) (A) (A) (A) (A) (A) (A) (A) (A) (A) (A)
                 (A) (A) (A) (A) (A) (A) (A) (A) (A) (A) (A) (A)
                 (A) (A) (A) (A) (A) (A) (A) (A) (A) (A) (A) (A)
                 (A) (A) (A) (A) (A) (A) (A) (A) (A) (A) (A) (A)
                 (A) (A) (A) (A) (A) (A) (A) (A) (A) (A) (A) (A)
                 (A) (A) (A) (A) (A) (A) (A) (A) (A) (A) (A) (A)
                 (A) (A) (A) (A) (A) (A) (A) (A) (A) (A) (A) (A)
                 (A) (A) (A) (A) (A) (A) (A) (A) (A) (A) (A) (A)
                 (A) (A) (A) (A) (A) (A) (A) (A) (A) (A) (A) (A)
                 (A) (A) (A) (A) (A) (A) (A) (A) (A) (A) (A) (A)
                 (A) (A) (A) (A) (A) (A) (A) (A) (A) (A) (A) (A)
                 (A) (A) (A) (A) (A) (A) (A) (A) (A) (A) (A) (A)
                 (A) (A) (A) (A) (A) (A) (A) (A) (A) (A) (A) (A)
                 (A) (A) (A) (A) (A) (A) (A) (A) (A) (A) (A) (A)
                 (A) (A) (A) (A) (A) (A) (A) (A) (A) (A) (A) (A)
                 (A) (A) (A) (A) (A) (A) (A) (A) (A) (A) (A) (A)
                 (A) (A) (A) (A) (A) (A) (A) (A) (A) (A) (A) (A)
                 (A) (A) (A) (A) (A) (A) (A) (A) (A) (A) (A) (A)
                 (A) (A) (A) (A) (A) (A) (A) (A) (A) (A) (A) (A)
       Virtual   (A) (A) (A) (A) (A) (A) (A) (A) (A) (A) (A) (A)
                 (A) (A) (A) (A) (A) (A) (A) (A) (A) (A) (A) (A)
                 (A) (A) (A) (A) (A) (A) (A) (A) (A) (A) (A) (A)
                 (A) (A) (A) (A) (A) (A) (A) (A) (A) (A) (A) (A)
                 (A) (A) (A) (A) (A) (A) (A) (A) (A) (A) (A) (A)
                 (A) (A) (A) (A) (A) (A) (A) (A) (A) (A) (A) (A)
                 (A) (A) (A) (A) (A) (A) (A) (A) (A) (A) (A) (A)
                 (A) (A) (A) (A) (A) (A) (A) (A) (A) (A) (A) (A)
                 (A) (A) (A) (A) (A) (A) (A) (A) (A) (A) (A) (A)
                 (A) (A) (A) (A) (A) (A) (A) (A) (A) (A) (A) (A)
                 (A) (A) (A) (A) (A) (A) (A) (A) (A) (A) (A) (A)
                 (A) (A) (A) (A) (A) (A) (A) (A) (A) (A) (A) (A)
                 (A) (A) (A) (A) (A) (A) (A) (A) (A) (A) (A) (A)
                 (A) (A) (A) (A) (A) (A) (A) (A) (A) (A) (A) (A)
                 (A) (A) (A) (A) (A) (A) (A) (A) (A) (A) (A) (A)
                 (A) (A) (A) (A) (A) (A) (A) (A) (A) (A) (A) (A)
                 (A) (A) (A) (A) (A) (A) (A) (A) (A) (A) (A) (A)
                 (A) (A) (A) (A) (A) (A) (A) (A) (A) (A) (A) (A)
                 (A) (A) (A) (A) (A) (A) (A) (A) (A) (A) (A) (A)
                 (A) (A) (A) (A) (A) (A) (A) (A) (A) (A) (A) (A)
                 (A) (A) (A) (A) (A) (A) (A) (A) (A) (A) (A) (A)
                 (A) (A) (A) (A) (A) (A) (A) (A) (A) (A) (A) (A)
                 (A) (A) (A) (A) (A) (A) (A) (A) (A) (A) (A) (A)
                 (A) (A) (A) (A) (A) (A) (A) (A) (A) (A) (A) (A)
                 (A) (A) (A) (A) (A) (A) (A) (A) (A) (A) (A) (A)
                 (A) (A) (A) (A) (A) (A) (A) (A) (A) (A) (A) (A)
                 (A) (A) (A) (A) (A) (A) (A) (A) (A) (A) (A) (A)
                 (A) (A) (A) (A) (A) (A) (A) (A) (A) (A) (A) (A)
                 (A) (A) (A) (A) (A) (A) (A) (A) (A) (A) (A) (A)
                 (A) (A) (A) (A) (A) (A) (A) (A) (A) (A) (A) (A)
                 (A) (A) (A) (A) (A) (A) (A) (A) (A) (A) (A) (A)
                 (A) (A) (A) (A) (A) (A) (A) (A) (A) (A) (A) (A)
                 (A) (A) (A) (A) (A) (A) (A) (A) (A) (A) (A) (A)
                 (A) (A) (A) (A) (A) (A) (A) (A) (A) (A) (A) (A)
                 (A) (A) (A) (A) (A) (A) (A) (A) (A) (A) (A) (A)
                 (A) (A) (A) (A) (A) (A) (A) (A) (A) (A) (A) (A)
                 (A) (A) (A) (A) (A) (A) (A) (A) (A) (A) (A) (A)
                 (A) (A) (A) (A) (A) (A) (A) (A) (A) (A) (A) (A)
                 (A) (A) (A) (A) (A) (A) (A) (A) (A) (A) (A) (A)
                 (A) (A) (A) (A) (A) (A) (A) (A) (A) (A) (A) (A)
                 (A) (A) (A) (A) (A) (A) (A) (A) (A) (A) (A) (A)
                 (A) (A) (A) (A) (A) (A) (A) (A) (A) (A) (A) (A)
                 (A) (A) (A) (A) (A) (A) (A) (A) (A) (A) (A) (A)
                 (A) (A) (A) (A) (A) (A) (A) (A) (A) (A) (A) (A)
                 (A) (A) (A) (A) (A) (A) (A) (A) (A) (A) (A) (A)
                 (A) (A) (A) (A) (A) (A) (A) (A) (A) (A) (A) (A)
                 (A) (A) (A) (A) (A) (A) (A) (A) (A) (A) (A) (A)
                 (A) (A) (A) (A) (A) (A) (A) (A) (A) (A) (A) (A)
                 (A) (A) (A) (A) (A) (A) (A) (A) (A) (A) (A) (A)
                 (A) (A) (A) (A) (A) (A) (A) (A) (A) (A) (A) (A)
                 (A) (A) (A) (A) (A) (A) (A) (A) (A) (A) (A) (A)
                 (A) (A) (A) (A) (A) (A) (A) (A) (A) (A) (A) (A)
                 (A) (A) (A) (A) (A) (A) (A) (A) (A) (A) (A) (A)
                 (A) (A) (A) (A) (A) (A) (A) (A) (A) (A) (A) (A)
                 (A) (A) (A) (A) (A) (A) (A) (A) (A) (A) (A) (A)
                 (A) (A) (A) (A) (A) (A) (A) (A) (A) (A) (A) (A)
                 (A) (A) (A) (A) (A) (A) (A) (A) (A) (A) (A) (A)
                 (A) (A) (A) (A) (A) (A) (A) (A) (A) (A) (A) (A)
                 (A) (A) (A) (A) (A) (A) (A) (A) (A) (A) (A) (A)
                 (A) (A) (A) (A) (A) (A) (A) (A) (A) (A) (A) (A)
                 (A) (A) (A) (A) (A) (A) (A) (A) (A) (A) (A) (A)
                 (A) (A) (A) (A) (A) (A) (A) (A) (A) (A) (A) (A)
                 (A) (A) (A) (A) (A) (A) (A) (A) (A) (A) (A) (A)
                 (A) (A) (A) (A) (A) (A) (A) (A) (A) (A) (A) (A)
                 (A) (A) (A) (A) (A) (A) (A) (A) (A) (A) (A) (A)
                 (A) (A) (A) (A) (A) (A) (A) (A) (A) (A) (A) (A)
                 (A) (A) (A) (A) (A) (A) (A) (A) (A) (A) (A) (A)
                 (A) (A) (A) (A) (A) (A) (A) (A) (A) (A) (A) (A)
                 (A) (A) (A) (A) (A) (A) (A) (A) (A) (A) (A) (A)
                 (A) (A) (A) (A) (A) (A) (A) (A) (A) (A) (A) (A)
                 (A) (A) (A) (A) (A) (A) (A) (A) (A) (A) (A) (A)
                 (A) (A) (A) (A) (A) (A) (A) (A) (A) (A) (A) (A)
                 (A) (A) (A) (A) (A) (A) (A) (A) (A) (A) (A) (A)
                 (A) (A) (A) (A) (A) (A) (A) (A) (A) (A) (A) (A)
                 (A) (A) (A) (A) (A) (A) (A) (A) (A) (A) (A) (A)
                 (A) (A) (A) (A) (A) (A) (A) (A) (A) (A) (A) (A)
                 (A) (A) (A) (A) (A) (A) (A) (A) (A) (A) (A) (A)
                 (A) (A) (A) (A) (A) (A) (A) (A) (A) (A) (A) (A)
                 (A) (A) (A) (A) (A) (A) (A) (A) (A) (A) (A) (A)
                 (A) (A) (A) (A) (A) (A) (A) (A) (A) (A) (A) (A)
                 (A) (A) (A) (A) (A) (A) (A) (A) (A) (A) (A) (A)
                 (A) (A) (A) (A) (A) (A) (A) (A) (A) (A) (A) (A)
                 (A) (A) (A) (A) (A) (A) (A) (A) (A) (A) (A) (A)
                 (A) (A) (A) (A) (A) (A) (A) (A) (A) (A) (A) (A)
                 (A) (A) (A) (A) (A) (A) (A) (A) (A) (A) (A) (A)
                 (A) (A) (A) (A) (A) (A) (A) (A) (A) (A) (A) (A)
                 (A) (A) (A) (A) (A) (A) (A) (A) (A) (A) (A) (A)
                 (A) (A) (A) (A) (A) (A) (A) (A) (A) (A) (A) (A)
                 (A) (A) (A) (A) (A) (A) (A) (A) (A) (A) (A) (A)
                 (A) (A) (A) (A) (A) (A) (A) (A) (A) (A) (A) (A)
                 (A) (A) (A) (A) (A) (A) (A) (A) (A) (A) (A) (A)
                 (A) (A) (A) (A) (A) (A) (A) (A) (A) (A) (A) (A)
                 (A) (A) (A) (A) (A) (A) (A) (A) (A) (A) (A) (A)
                 (A) (A) (A) (A) (A) (A) (A) (A) (A) (A) (A) (A)
                 (A) (A) (A) (A) (A) (A) (A) (A) (A) (A) (A) (A)
                 (A) (A) (A) (A) (A) (A) (A) (A) (A) (A) (A) (A)
                 (A) (A) (A) (A) (A) (A) (A) (A) (A) (A) (A) (A)
                 (A) (A) (A) (A) (A) (A) (A) (A) (A) (A) (A) (A)
                 (A) (A) (A) (A) (A) (A) (A) (A) (A) (A) (A) (A)
                 (A) (A) (A) (A) (A) (A) (A) (A) (A) (A) (A) (A)
                 (A) (A) (A) (A) (A) (A) (A) (A) (A) (A) (A) (A)
                 (A) (A) (A) (A) (A) (A) (A) (A) (A) (A) (A) (A)
                 (A) (A) (A) (A) (A) (A) (A) (A) (A) (A) (A) (A)
                 (A) (A) (A) (A) (A) (A) (A) (A) (A) (A) (A) (A)
                 (A) (A) (A) (A) (A) (A) (A) (A) (A) (A) (A) (A)
    20 initial guesses have been made.
 Convergence on wavefunction:    0.001000000000000
 Davidson Disk Diagonalization:  ConvIn= 1.00D-03 SkipCon=T Conv= 1.00D-03.
 Max sub-space:  2000 roots to seek:    20 dimension of matrix:       549360
 Iteration     1 Dimension    20 NMult     0 NNew     20
 CISAX will form    20 AO SS matrices at one time.
 NMat=    20 NSing=    20 JSym2X= 0.
 FoFJK:  IHMeth= 1 ICntrl=       0 DoSepK=T KAlg= 0 I1Cent=           0 FoldK=F
 IRaf=         1 NMat=      40 IRICut=       1 DoRegI=T DoRafI=F ISym2E= 0 IDoP0=3 IntGTp=3.
 FoFCou: FMM=T IPFlag=           0 FMFlag=      100000 FMFlg1=        2001
         NFxFlg=           0 DoJE=F BraDBF=F KetDBF=F FulRan=T
         wScrn=  0.000000 ICntrl=       500 IOpCl=  0 I1Cent=           0 NGrid=           0
         NMat0=   20 NMatS0=     20 NMatT0=    0 NMatD0=   20 NMtDS0=    0 NMtDT0=    0
 Symmetry not used in FoFCou.
 FMM levels:  10  Number of levels for PrismC:   9
 New state      1 was old state      8
 New state      2 was old state      5
 New state      3 was old state      1
 New state      5 was old state      2
 Excitation Energies [eV] at current iteration:
 Root      1 :     2.614468399230437
 Root      2 :     2.619440705152109
 Root      3 :     2.680336039442211
 Root      4 :     2.690299195769479
 Root      5 :     3.062861045768022
 Root      6 :     3.069398911350153
 Root      7 :     3.628523192407851
 Root      8 :     3.668940115080132
 Root      9 :     3.735993470585750
 Root     10 :     3.759420026160765
 Root     11 :     3.855665307914927
 Root     12 :     3.872676450555849
 Root     13 :     4.304217230982909
 Root     14 :     4.305299302741868
 Root     15 :     4.973558275274428
 Root     16 :     5.008314261254561
 Root     17 :     5.265781288506743
 Root     18 :     5.297783440099137
 Root     19 :     5.301283674922940
 Root     20 :     5.332251187184982
 Iteration     2 Dimension    30 NMult    20 NNew     10
 CISAX will form    10 AO SS matrices at one time.
 NMat=    10 NSing=    10 JSym2X= 0.
 New state      1 was old state      3
 Root      1 not converged, maximum delta is    0.186752049074350
 New state      2 was old state      4
 Root      2 not converged, maximum delta is    0.188137520349670
 New state      3 was old state      2
 Root      3 not converged, maximum delta is    0.067586086156970
 New state      4 was old state      1
 Root      4 not converged, maximum delta is    0.089988823662111
 Root      5 not converged, maximum delta is    0.003508507779259
 Excitation Energies [eV] at current iteration:
 Root      1 :     1.801314935178222   Change is   -0.879021104263989
 Root      2 :     1.807439470528408   Change is   -0.882859725241071
 Root      3 :     2.235898166646221   Change is   -0.383542538505887
 Root      4 :     2.239084431148243   Change is   -0.375383968082194
 Root      5 :     3.062772553029291   Change is   -0.000088492738731
 Iteration     3 Dimension    40 NMult    30 NNew     10
 CISAX will form    10 AO SS matrices at one time.
 NMat=    10 NSing=    10 JSym2X= 0.
 Root      1 not converged, maximum delta is    0.069104242239360
 Root      2 not converged, maximum delta is    0.070266338268625
 Root      3 not converged, maximum delta is    0.044052905779175
 Root      4 not converged, maximum delta is    0.042592684582766
 Root      5 has converged.
 Excitation Energies [eV] at current iteration:
 Root      1 :     1.694069685541732   Change is   -0.107245249636491
 Root      2 :     1.699047500166956   Change is   -0.108391970361452
 Root      3 :     2.194365385283198   Change is   -0.041532781363023
 Root      4 :     2.200172498868501   Change is   -0.038911932279743
 Root      5 :     3.062772528683242   Change is   -0.000000024346049
 Iteration     4 Dimension    48 NMult    40 NNew      8
 CISAX will form     8 AO SS matrices at one time.
 NMat=     8 NSing=     8 JSym2X= 0.
 Root      1 not converged, maximum delta is    0.012984880206536
 Root      2 not converged, maximum delta is    0.013239063840196
 Root      3 not converged, maximum delta is    0.009756831596155
 Root      4 not converged, maximum delta is    0.008914543027854
 Root      5 has converged.
 Excitation Energies [eV] at current iteration:
 Root      1 :     1.677354329871849   Change is   -0.016715355669882
 Root      2 :     1.682170636560125   Change is   -0.016876863606831
 Root      3 :     2.187053824882544   Change is   -0.007311560400654
 Root      4 :     2.193393709238720   Change is   -0.006778789629780
 Root      5 :     3.062772528683242   Change is    0.000000000000000
 Iteration     5 Dimension    56 NMult    48 NNew      8
 CISAX will form     8 AO SS matrices at one time.
 NMat=     8 NSing=     8 JSym2X= 0.
 Root      1 not converged, maximum delta is    0.002155892094290
 Root      2 not converged, maximum delta is    0.002159653176699
 Root      3 not converged, maximum delta is    0.002504801240097
 Root      4 not converged, maximum delta is    0.002389235709653
 Root      5 has converged.
 Excitation Energies [eV] at current iteration:
 Root      1 :     1.675575865137570   Change is   -0.001778464734280
 Root      2 :     1.680397651463951   Change is   -0.001772985096173
 Root      3 :     2.186206382352805   Change is   -0.000847442529739
 Root      4 :     2.192616838899669   Change is   -0.000776870339051
 Root      5 :     3.062772528683269   Change is    0.000000000000027
 Iteration     6 Dimension    64 NMult    56 NNew      8
 CISAX will form     8 AO SS matrices at one time.
 NMat=     8 NSing=     8 JSym2X= 0.
 Root      1 not converged, maximum delta is    0.001352673242212
 Root      2 not converged, maximum delta is    0.001372052921152
 Root      3 not converged, maximum delta is    0.001072982860746
 Root      4 not converged, maximum delta is    0.001017322565113
 Root      5 has converged.
 Excitation Energies [eV] at current iteration:
 Root      1 :     1.675322092204334   Change is   -0.000253772933235
 Root      2 :     1.680142641277786   Change is   -0.000255010186166
 Root      3 :     2.186078018845775   Change is   -0.000128363507030
 Root      4 :     2.192499067793456   Change is   -0.000117771106213
 Root      5 :     3.062772528683323   Change is    0.000000000000054
 Iteration     7 Dimension    72 NMult    64 NNew      8
 CISAX will form     8 AO SS matrices at one time.
 NMat=     8 NSing=     8 JSym2X= 0.
 Root      1 has converged.
 Root      2 has converged.
 Root      3 has converged.
 Root      4 has converged.
 Root      5 has converged.
 Excitation Energies [eV] at current iteration:
 Root      1 :     1.675297848632680   Change is   -0.000024243571655
[...]
 Alpha virt. eigenvalues --    1.83482   1.83783   1.83848   1.84048   1.84163
 Alpha virt. eigenvalues --    1.84474   1.84483   1.84745   1.84835   1.85083
 Alpha virt. eigenvalues --    1.85126   1.85298   1.85304   1.85445   1.85503
 Alpha virt. eigenvalues --    1.85858   1.85891   1.86338   1.86384   1.86579
 Alpha virt. eigenvalues --    1.86610   1.86780   1.86807   1.87003   1.87064
 Alpha virt. eigenvalues --    1.87440   1.87470   1.87705   1.87732   1.87892
 Alpha virt. eigenvalues --    1.87970   1.88064   1.88136   1.88531   1.88560
 Alpha virt. eigenvalues --    1.88848   1.88896   1.89029   1.89149   1.89616
 Alpha virt. eigenvalues --    1.89649   1.89769   1.89833   1.90143   1.90147
 Alpha virt. eigenvalues --    1.90777   1.90852   1.91374   1.91381   1.91464
 Alpha virt. eigenvalues --    1.91550   1.92141   1.92179   1.92620   1.92651
 Alpha virt. eigenvalues --    1.93006   1.93106   1.93361   1.93456   1.94264
 Alpha virt. eigenvalues --    1.94306   1.94712   1.94770   1.95497   1.95545
 Alpha virt. eigenvalues --    1.95752   1.95772   1.96004   1.96020   1.96132
 Alpha virt. eigenvalues --    1.96175   1.96439   1.96619   1.96892   1.96923
 Alpha virt. eigenvalues --    1.97474   1.97500   1.97759   1.97859   1.98124
 Alpha virt. eigenvalues --    1.98195   1.98310   1.98702   1.99027   1.99161
 Alpha virt. eigenvalues --    1.99847   1.99890   2.00680   2.00683   2.01021
 Alpha virt. eigenvalues --    2.01053   2.01459   2.01506   2.01566   2.01696
 Alpha virt. eigenvalues --    2.01744   2.01783   2.02666   2.02810   2.03094
 Alpha virt. eigenvalues --    2.03259   2.03336   2.03429   2.03478   2.03510
 Alpha virt. eigenvalues --    2.03982   2.04060   2.04930   2.04982   2.05537
 Alpha virt. eigenvalues --    2.05583   2.06102   2.06241   2.06929   2.06993
 Alpha virt. eigenvalues --    2.07208   2.07301   2.08504   2.08607   2.08960
 Alpha virt. eigenvalues --    2.09005   2.09567   2.09614   2.10800   2.10984
 Alpha virt. eigenvalues --    2.11207   2.11360   2.11490   2.11564   2.11751
 Alpha virt. eigenvalues --    2.11818   2.12421   2.12489   2.12753   2.12823
 Alpha virt. eigenvalues --    2.12828   2.12858   2.13587   2.13792   2.14159
 Alpha virt. eigenvalues --    2.14202   2.15359   2.15359   2.15950   2.16035
 Alpha virt. eigenvalues --    2.16544   2.16544   2.16779   2.17125   2.17439
 Alpha virt. eigenvalues --    2.17599   2.17727   2.17887   2.17954   2.18092
 Alpha virt. eigenvalues --    2.18349   2.18628   2.18893   2.19190   2.19665
 Alpha virt. eigenvalues --    2.19773   2.20062   2.20196   2.20236   2.20392
 Alpha virt. eigenvalues --    2.21121   2.21171   2.21692   2.21716   2.21769
 Alpha virt. eigenvalues --    2.21829   2.22653   2.22703   2.23292   2.23336
 Alpha virt. eigenvalues --    2.24368   2.24416   2.24954   2.24979   2.26322
 Alpha virt. eigenvalues --    2.26393   2.26801   2.26960   2.27126   2.27155
 Alpha virt. eigenvalues --    2.28160   2.28266   2.29290   2.29386   2.29758
 Alpha virt. eigenvalues --    2.29830   2.30478   2.30576   2.30784   2.31105
 Alpha virt. eigenvalues --    2.31149   2.31206   2.32141   2.32188   2.33157
 Alpha virt. eigenvalues --    2.33186   2.33433   2.33483   2.34090   2.34161
 Alpha virt. eigenvalues --    2.35254   2.35395   2.35819   2.35860   2.36282
 Alpha virt. eigenvalues --    2.36372   2.36395   2.36645   2.37624   2.37679
 Alpha virt. eigenvalues --    2.38277   2.38328   2.38735   2.38880   2.39617
 Alpha virt. eigenvalues --    2.39632   2.40202   2.40213   2.40508   2.40779
 Alpha virt. eigenvalues --    2.41164   2.41291   2.41641   2.41706   2.42062
 Alpha virt. eigenvalues --    2.42079   2.42767   2.42962   2.43031   2.43559
 Alpha virt. eigenvalues --    2.43924   2.44191   2.44752   2.44752   2.44925
 Alpha virt. eigenvalues --    2.44935   2.45516   2.45568   2.46230   2.46320
 Alpha virt. eigenvalues --    2.46441   2.46499   2.46746   2.46820   2.47274
 Alpha virt. eigenvalues --    2.47321   2.47733   2.47829   2.49329   2.49335
 Alpha virt. eigenvalues --    2.49834   2.50087   2.50398   2.50567   2.51141
 Alpha virt. eigenvalues --    2.51212   2.51554   2.51906   2.52345   2.52460
 Alpha virt. eigenvalues --    2.52830   2.53106   2.53910   2.53938   2.54167
 Alpha virt. eigenvalues --    2.54222   2.54747   2.54807   2.55537   2.55606
 Alpha virt. eigenvalues --    2.57883   2.58016   2.58663   2.58841   2.60227
 Alpha virt. eigenvalues --    2.60243   2.60633   2.60864   2.61729   2.61758
 Alpha virt. eigenvalues --    2.62369   2.62553   2.62975   2.63063   2.63955
 Alpha virt. eigenvalues --    2.64156   2.64261   2.64359   2.65035   2.65098
 Alpha virt. eigenvalues --    2.65800   2.65806   2.66754   2.66795   2.66928
 Alpha virt. eigenvalues --    2.66991   2.67915   2.67926   2.68753   2.68876
 Alpha virt. eigenvalues --    2.68971   2.69043   2.69408   2.69528   2.70016
 Alpha virt. eigenvalues --    2.70070   2.70999   2.71003   2.71830   2.72073
 Alpha virt. eigenvalues --    2.72430   2.72672   2.72673   2.72850   2.73216
 Alpha virt. eigenvalues --    2.73292   2.73408   2.73554   2.74439   2.74529
 Alpha virt. eigenvalues --    2.74987   2.74994   2.76450   2.76608   2.76996
 Alpha virt. eigenvalues --    2.77251   2.77473   2.77534   2.78205   2.78224
 Alpha virt. eigenvalues --    2.78619   2.78748   2.79087   2.79152   2.80193
 Alpha virt. eigenvalues --    2.80362   2.80608   2.80622   2.81079   2.81134
 Alpha virt. eigenvalues --    2.81920   2.81952   2.82261   2.82359   2.83770
 Alpha virt. eigenvalues --    2.83773   2.83784   2.83835   2.84452   2.84563
 Alpha virt. eigenvalues --    2.84809   2.84899   2.85618   2.85683   2.86588
 Alpha virt. eigenvalues --    2.87014   2.87109   2.87628   2.88163   2.88171
 Alpha virt. eigenvalues --    2.88526   2.88541   2.88796   2.88951   2.90516
 Alpha virt. eigenvalues --    2.90585   2.90992   2.91205   2.93173   2.93246
 Alpha virt. eigenvalues --    2.93695   2.94217   2.94494   2.94573   2.95387
 Alpha virt. eigenvalues --    2.95401   2.95776   2.96223   2.96298   2.96458
 Alpha virt. eigenvalues --    2.96804   2.97197   2.97836   2.97954   2.98225
 Alpha virt. eigenvalues --    2.98286   2.98384   2.98497   2.98620   2.98702
 Alpha virt. eigenvalues --    2.98844   2.98900   2.99601   2.99721   2.99947
 Alpha virt. eigenvalues --    3.00050   3.00239   3.00259   3.00480   3.00917
 Alpha virt. eigenvalues --    3.01823   3.02005   3.02042   3.02050   3.02751
 Alpha virt. eigenvalues --    3.02754   3.02998   3.03239   3.03344   3.03633
 Alpha virt. eigenvalues --    3.03976   3.04186   3.04354   3.04469   3.04564
 Alpha virt. eigenvalues --    3.04649   3.05272   3.05312   3.06085   3.06131
 Alpha virt. eigenvalues --    3.06823   3.06859   3.07842   3.08161   3.09276
 Alpha virt. eigenvalues --    3.09420   3.09711   3.10361   3.10461   3.10662
 Alpha virt. eigenvalues --    3.11346   3.11398   3.11817   3.11964   3.12191
 Alpha virt. eigenvalues --    3.12229   3.13302   3.13573   3.13608   3.13657
 Alpha virt. eigenvalues --    3.14115   3.14405   3.15906   3.15936   3.17283
 Alpha virt. eigenvalues --    3.17440   3.17798   3.18094   3.18951   3.19145
 Alpha virt. eigenvalues --    3.22328   3.22525   3.23967   3.24360   3.24696
 Alpha virt. eigenvalues --    3.25116   3.26524   3.26576   3.27315   3.27641
 Alpha virt. eigenvalues --    3.29124   3.29151   3.31299   3.31545   3.33104
 Alpha virt. eigenvalues --    3.33438   3.40194   3.40655   3.42737   3.42835
 Alpha virt. eigenvalues --    3.48618   3.48681   3.50043   3.50201   3.50756
 Alpha virt. eigenvalues --    3.51495   3.56571   3.56924   3.59119   3.59257
 Alpha virt. eigenvalues --    3.62435   3.62859   3.66034   3.66203   3.67210
 Alpha virt. eigenvalues --    3.67474   3.73295   3.73949   3.76080   3.76606
          Condensed to atoms (all electrons):
 Mulliken charges:
               1
     1  Mg   0.838704
     2  C   -0.002964
     3  C   -0.094118
     4  C   -0.045928
     5  C   -0.063963
     6  N   -0.256782
     7  C   -0.052466
     8  C   -0.013991
     9  C   -0.087017
    10  C    0.046325
    11  C    0.104809
    12  C    0.053477
    13  C   -0.071837
    14  H    0.036175
    15  N   -0.433152
    16  C    0.168399
    17  C   -0.177160
    18  C   -0.004032
    19  C    0.148721
    20  C    0.110175
    21  C    0.012240
    22  O   -0.249668
    23  C    0.062496
    24  N   -0.341153
    25  C    0.041270
    26  C   -0.028163
    27  C   -0.023986
    28  C    0.074836
    29  C    0.076171
    30  C    0.035149
    31  C   -0.004503
    32  N   -0.310472
    33  C    0.080410
    34  C   -0.169706
    35  C    0.008382
    36  C    0.082996
    37  C    0.127309
    38  C    0.046142
    39  O   -0.188355
    40  C   -0.005345
    41  C    0.212895
    42  O   -0.257123
    43  O   -0.304785
    44  C    0.157665
    45  H   -0.017589
    46  H   -0.016871
    47  H   -0.041474
    48  H    0.000978
    49  H   -0.004027
    50  H    0.025497
    51  H    0.016442
    52  H    0.016684
    53  H    0.011167
    54  H    0.044116
    55  H    0.017910
    56  H    0.017945
    57  H    0.005897
    58  H    0.026824
    59  H    0.039495
    60  H    0.037375
    61  H    0.035583
    62  H    0.031451
    63  H    0.016500
    64  H    0.009490
    65  H    0.023183
    66  H    0.012564
    67  H    0.004775
    68  H    0.006347
    69  H    0.004761
    70  H    0.008725
    71  H    0.018118
    72  H    0.028983
    73  H    0.047609
    74  H    0.009112
    75  H    0.046048
    76  H    0.035189
    77  H    0.043010
    78  H    0.046408
    79  H    0.053702
    80  Mg   0.837845
    81  C   -0.016815
    82  C   -0.087779
    83  C   -0.045537
    84  C   -0.064916
    85  N   -0.254574
    86  C   -0.049834
    87  C   -0.015086
    88  C   -0.090501
    89  C    0.045768
    90  C    0.114372
    91  C    0.062543
    92  C   -0.077972
    93  H    0.035048
    94  N   -0.423482
    95  C    0.162908
    96  C   -0.174619
    97  C   -0.007825
    98  C    0.152105
    99  C    0.099362
   100  C    0.015556
   101  O   -0.253203
   102  C    0.061200
   103  N   -0.350067
   104  C    0.037507
   105  C   -0.019810
   106  C   -0.034814
   107  C    0.088930
   108  C    0.073659
   109  C    0.034730
   110  C   -0.007670
   111  N   -0.324109
   112  C    0.078451
   113  C   -0.163144
   114  C    0.002271
   115  C    0.096189
   116  C    0.131487
   117  C    0.042397
   118  O   -0.187784
   119  C    0.000925
   120  C    0.211270
   121  O   -0.251027
   122  O   -0.305620
   123  C    0.151985
   124  H   -0.019644
   125  H   -0.015596
   126  H   -0.040465
   127  H   -0.000568
   128  H   -0.004288
   129  H    0.022485
   130  H    0.014376
   131  H    0.016335
   132  H    0.013877
   133  H    0.037681
   134  H    0.020867
   135  H    0.019581
   136  H    0.008787
   137  H    0.026127
   138  H    0.039781
   139  H    0.038247
   140  H    0.036371
   141  H    0.033897
   142  H    0.014386
   143  H    0.012404
   144  H    0.025121
   145  H    0.011636
   146  H    0.005658
   147  H    0.006245
   148  H    0.003653
   149  H    0.010919
   150  H    0.017933
   151  H    0.030121
   152  H    0.046040
   153  H    0.008493
   154  H    0.046948
   155  H    0.035074
   156  H    0.044049
   157  H    0.049551
   158  H    0.053594
 Sum of Mulliken charges =  -0.00000
 Mulliken charges with hydrogens summed into heavy atoms:
               1
     1  Mg   0.838704
     2  C   -0.002964
     3  C   -0.111707
     4  C   -0.062799
     5  C   -0.105437
     6  N   -0.256782
     7  C   -0.052466
     8  C   -0.013013
     9  C   -0.091044
    10  C    0.046325
    11  C    0.163431
    12  C    0.108760
    13  C    0.000193
    15  N   -0.433152
    16  C    0.168399
    17  C   -0.177160
    18  C   -0.004032
    19  C    0.148721
    20  C    0.182391
    21  C    0.012240
    22  O   -0.249668
    23  C    0.166905
    24  N   -0.341153
    25  C    0.041270
    26  C   -0.011663
    27  C   -0.014496
    28  C    0.074836
    29  C    0.116693
    30  C    0.046256
    31  C    0.051323
    32  N   -0.310472
    33  C    0.080410
    34  C   -0.169706
    35  C    0.008382
    36  C    0.082996
    37  C    0.230078
    38  C    0.046142
    39  O   -0.188355
    40  C    0.029844
    41  C    0.212895
    42  O   -0.257123
    43  O   -0.304785
    44  C    0.300785
    80  Mg   0.837845
    81  C   -0.016815
    82  C   -0.107423
    83  C   -0.061133
    84  C   -0.105381
    85  N   -0.254574
    86  C   -0.049834
    87  C   -0.015655
    88  C   -0.094788
    89  C    0.045768
    90  C    0.167568
    91  C    0.114101
    92  C   -0.002476
    94  N   -0.423482
    95  C    0.162908
    96  C   -0.174619
    97  C   -0.007825
    98  C    0.152105
    99  C    0.174057
   100  C    0.015556
   101  O   -0.253203
   102  C    0.169716
   103  N   -0.350067
   104  C    0.037507
   105  C   -0.005424
   106  C   -0.022409
   107  C    0.088930
   108  C    0.116074
   109  C    0.044628
   110  C    0.051304
   111  N   -0.324109
   112  C    0.078451
   113  C   -0.163144
   114  C    0.002271
   115  C    0.096189
   116  C    0.232969
   117  C    0.042397
   118  O   -0.187784
   119  C    0.035999
   120  C    0.211270
   121  O   -0.251027
   122  O   -0.305620
   123  C    0.299179
 Electronic spatial extent (au):  <R**2>=         594215.7589
 Charge=             -0.0000 electrons
 Dipole moment (field-independent basis, Debye):
    X=              3.7207    Y=              7.2062    Z=             -2.0846  Tot=              8.3737
 Quadrupole moment (field-independent basis, Debye-Ang):
   XX=           -477.1169   YY=           -554.0096   ZZ=           -474.1534
   XY=             11.3247   XZ=            -62.5634   YZ=            -10.0491
 Traceless Quadrupole moment (field-independent basis, Debye-Ang):
   XX=             24.6431   YY=            -52.2496   ZZ=             27.6066
   XY=             11.3247   XZ=            -62.5634   YZ=            -10.0491
 Octapole moment (field-independent basis, Debye-Ang**2):
  XXX=           1478.4154  YYY=            228.9613  ZZZ=             -6.5116  XYY=           -139.4701
  XXY=            666.9354  XXZ=           -282.6917  XZZ=            672.8384  YZZ=            -49.0241
  YYZ=           -232.2904  XYZ=           -200.1072
 Hexadecapole moment (field-independent basis, Debye-Ang**3):
 XXXX=        -733039.5605 YYYY=         -35112.9583 ZZZZ=         -16700.3617 XXXY=          21871.9231
 XXXZ=         -22582.1260 YYYX=          -1132.8974 YYYZ=           -255.8276 ZZZX=            133.5413
 ZZZY=            325.6454 XXYY=        -144967.5116 XXZZ=        -121812.5483 YYZZ=          -8139.0795
 XXYZ=          -2215.0479 YYXZ=          -2130.6400 ZZXY=          -1178.7782
 N-N= 1.235918883814D+04 E-N=-3.419917795879D+04  KE= 4.028802086089D+03
 Leave Link  601 at Sun Sep 12 16:31:46 2021, MaxMem= 23488102400 cpu:              15.6 elap:               0.8
 (Enter /sw/apps/gaussian-16.0/g16/l9999.exe)
 1\1\GINC-BP1-COMPUTE00090\SP\RCAM-B3LYP TD-FC\def2SVP\C68H72Mg2N8O8\OF
 15641\12-Sep-2021\0\\#p cam-b3lyp/Def2SVP td=(nstates=5)\\TDDFT excite
 d states in gaussian\\0,1\Mg,0,0.,0.,0.\C,0,-0.217,-2.218,2.801\C,0,-1
 .255,2.442,2.026\C,0,-0.245,1.85,-2.564\C,0,0.146,-2.824,-2.037\N,0,-0
 .617,-0.009,2.126\C,0,-0.594,-0.908,3.105\C,0,-0.936,-0.309,4.502\C,0,
 -1.773,0.964,4.032\C,0,-1.155,1.168,2.66\C,0,-3.263,0.685,3.863\C,0,0.
 345,0.11,5.299\C,0,0.124,0.397,6.787\H,0,1.168,0.033,7.733\N,0,-0.185,
 1.961,-0.152\C,0,-0.703,2.8,0.777\C,0,-0.62,4.156,0.193\C,0,-0.187,4.0
 15,-1.225\C,0,-0.214,2.583,-1.38\C,0,-0.887,5.406,0.974\C,0,0.181,5.01
 3,-2.277\O,0,0.303,4.69,-3.508\C,0,0.31,6.414,-1.837\N,0,-0.265,-0.413
 ,-2.029\C,0,-0.279,0.569,-2.937\C,0,-0.196,0.024,-4.332\C,0,0.124,-1.5
 33,-4.18\C,0,0.086,-1.632,-2.635\C,0,-1.451,0.205,-5.197\C,0,1.373,-2.
 07,-4.923\C,0,2.626,-1.49,-4.306\N,0,0.15,-2.144,0.303\C,0,0.173,-3.13
 6,-0.688\C,0,0.173,-4.438,0.004\C,0,0.133,-4.111,1.358\C,0,0.083,-2.69
 5,1.502\C,0,0.149,-5.715,-0.623\C,0,0.096,-4.629,2.716\O,0,0.208,-5.74
 7,3.221\C,0,-0.255,-3.428,3.701\C,0,0.717,-3.482,4.848\O,0,1.931,-3.25
 5,4.669\O,0,0.038,-3.556,6.003\C,0,0.943,-3.583,7.183\H,0,-1.859,3.22,
 2.497\H,0,-0.218,2.453,-3.474\H,0,0.276,-3.747,-2.605\H,0,-1.554,-0.94
 9,5.132\H,0,-1.585,1.831,4.665\H,0,-3.484,-0.377,3.969\H,0,-3.511,1.02
 7,2.858\H,0,-3.852,1.301,4.543\H,0,0.669,1.096,4.966\H,0,1.13,-0.639,5
 .189\H,0,-0.844,0.026,7.125\H,0,0.062,1.477,6.921\H,0,-1.344,5.186,1.9
 38\H,0,-1.651,5.963,0.432\H,0,0.007,6.02,1.084\H,0,-0.635,6.744,-1.405
 \H,0,0.665,6.97,-2.704\H,0,1.048,6.466,-1.036\H,0,0.608,0.501,-4.891\H
 ,0,-0.692,-2.156,-4.547\H,0,-1.267,0.74,-6.129\H,0,-2.204,0.714,-4.596
 \H,0,-1.967,-0.72,-5.453\H,0,1.356,-1.759,-5.967\H,0,1.452,-3.157,-4.9
 02\H,0,2.714,-0.522,-4.798\H,0,3.487,-2.121,-4.529\H,0,2.495,-1.303,-3
 .24\H,0,0.867,-6.333,-0.084\H,0,0.404,-5.642,-1.68\H,0,-0.891,-5.999,-
 0.463\H,0,-1.283,-3.581,4.028\H,0,0.698,-4.478,7.755\H,0,0.833,-2.619,
 7.68\H,0,2.,-3.754,6.976\Mg,0,31.52518,2.84256,2.40194\C,0,29.17089,0.
 13398,2.39824\C,0,29.01842,4.82589,1.2115\C,0,33.67807,5.13236,1.9669\
 C,0,34.06184,0.45424,2.48535\N,0,29.41077,2.41932,1.90961\C,0,28.61099
 ,1.36802,2.00694\C,0,27.1121,1.67354,1.74321\C,0,27.29009,2.99152,0.84
 314\C,0,28.6405,3.46902,1.3733\C,0,27.43771,2.69239,-0.63944\C,0,26.32
 359,1.98224,3.06418\C,0,24.8003,1.98504,2.91812\H,0,23.99356,1.48952,4
 .02992\N,0,31.28946,4.79892,2.16601\C,0,30.19834,5.43567,1.69137\C,0,3
 0.53482,6.86778,1.6952\C,0,31.97162,7.01109,2.05543\C,0,32.38299,5.621
 53,2.05645\C,0,29.51595,7.94367,1.45479\C,0,32.83582,8.20251,2.33806\O
 ,0,34.1128,8.10933,2.39683\C,0,32.14982,9.49791,2.45134\N,0,33.57111,2
 .80291,2.03463\C,0,34.27845,3.94237,1.93857\C,0,35.7629,3.66545,1.9491
 6\C,0,35.90827,2.11596,2.31728\C,0,34.41445,1.72729,2.37056\C,0,36.501
 87,3.94912,0.64155\C,0,36.80771,1.76289,3.53343\C,0,36.17215,2.26712,4
 .80905\N,0,31.63377,0.69595,2.62183\C,0,32.79614,-0.10569,2.60314\C,0,
 32.35505,-1.51383,2.67378\C,0,30.95466,-1.43401,2.7057\C,0,30.55088,-0
 .07317,2.63793\C,0,33.20646,-2.65434,2.65232\C,0,29.72589,-2.19203,2.7
 706\O,0,29.44495,-3.37918,2.93027\C,0,28.513,-1.2171,2.44687\C,0,27.44
 757,-1.44064,3.48485\O,0,27.65632,-1.15378,4.6768\O,0,26.29128,-1.7494
 5,2.87003\C,0,25.2013,-1.96955,3.85761\H,0,28.37087,5.47845,0.62522\H,
 0,34.46587,5.88818,1.92698\H,0,34.79467,-0.3451,2.61462\H,0,26.58439,0
 .91006,1.18428\H,0,26.51585,3.72365,1.05739\H,0,27.51723,1.63255,-0.83
 065\H,0,28.33885,3.20226,-0.95411\H,0,26.61936,3.15298,-1.20024\H,0,26
 .4876,3.0313,3.34223\H,0,26.61039,1.30609,3.84596\H,0,24.47583,1.52924
 ,1.97476\H,0,24.46051,3.02108,2.84601\H,0,28.58211,7.53092,1.05357\H,0
 ,29.90247,8.57552,0.6478\H,0,29.34209,8.5638,2.33676\H,0,31.61301,9.70
 42,1.52845\H,0,32.92161,10.21277,2.7432\H,0,31.39688,9.4269,3.24423\H,
 0,36.26093,4.25535,2.70882\H,0,36.35331,1.54108,1.49188\H,0,37.33734,4
 .66488,0.75876\H,0,35.78617,4.3153,-0.08248\H,0,36.90845,3.07189,0.141
 19\H,0,37.77416,2.26579,3.44835\H,0,37.00495,0.70053,3.63081\H,0,36.47
 949,3.31673,4.83974\H,0,36.5522,1.71925,5.66895\H,0,35.0784,2.24583,4.
 73893\H,0,32.83509,-3.33436,3.4074\H,0,34.24289,-2.38033,2.83811\H,0,3
 3.04979,-2.9954,1.62548\H,0,28.16156,-1.45393,1.44189\H,0,24.79103,-2.
 96547,3.66397\H,0,24.51437,-1.11034,3.74082\H,0,25.48035,-2.05502,4.90
 13\\Version=ES64L-G16RevA.03\State=1-A\HF=-4069.8117713\RMSD=4.475e-09
 \PG=C01 [X(C68H72Mg2N8O8)]\\@


 IF NO USE IS MADE OF THE LABOR OF PAST AGES,
 THE WORLD MUST REMAIN ALWAYS IN THE INFANCY OF KNOWLEDGE.

                          -- CICERO
 Job cpu time:       0 days 10 hours 45 minutes 38.9 seconds.
 Elapsed time:       0 days  0 hours 27 minutes 28.5 seconds.
 File lengths (MBytes):  RWF=  13225 Int=      0 D2E=      0 Chk=    574 Scr=      1
 Normal termination of Gaussian 16 at Sun Sep 12 16:31:47 2021.
