 Entering Gaussian System, Link 0=g16
 Initial command:
 /sw/apps/gaussian-16.0/g16/l1.exe "/tmp/Gau-63719.inp" -scrdir="/tmp/"
 Entering Link 1 = /sw/apps/gaussian-16.0/g16/l1.exe PID=     63720.
  
 Copyright (c) 1988,1990,1992,1993,1995,1998,2003,2009,2016,
            Gaussian, Inc.  All Rights Reserved.
  
 This is part of the Gaussian(R) 16 program.  It is based on
 the Gaussian(R) 09 system (copyright 2009, Gaussian, Inc.),
 the Gaussian(R) 03 system (copyright 2003, Gaussian, Inc.),
 the Gaussian(R) 98 system (copyright 1998, Gaussian, Inc.),
 the Gaussian(R) 94 system (copyright 1995, Gaussian, Inc.),
 the Gaussian 92(TM) system (copyright 1992, Gaussian, Inc.),
 the Gaussian 90(TM) system (copyright 1990, Gaussian, Inc.),
 the Gaussian 88(TM) system (copyright 1988, Gaussian, Inc.),
 the Gaussian 86(TM) system (copyright 1986, Carnegie Mellon
 University), and the Gaussian 82(TM) system (copyright 1983,
 Carnegie Mellon University). Gaussian is a federally registered
 trademark of Gaussian, Inc.
  
 This software contains proprietary and confidential information,
 including trade secrets, belonging to Gaussian, Inc.
  
 This software is provided under written license and may be
 used, copied, transmitted, or stored only in accord with that
 written license.
  
 The following legend is applicable only to US Government
 contracts under FAR:
  
                    RESTRICTED RIGHTS LEGEND
  
 Use, reproduction and disclosure by the US Government is
 subject to restrictions as set forth in subparagraphs (a)
 and (c) of the Commercial Computer Software - Restricted
 Rights clause in FAR 52.227-19.
  
 Gaussian, Inc.
 340 Quinnipiac St., Bldg. 40, Wallingford CT 06492
  
  
 ---------------------------------------------------------------
 Warning -- This program may not be used in any manner that
 competes with the business of Gaussian, Inc. or will provide
 assistance to any competitor of Gaussian, Inc.  The licensee
 of this program is prohibited from giving any competitor of
 Gaussian, Inc. access to this program.  By using this program,
 the user acknowledges that Gaussian, Inc. is engaged in the
 business of creating and licensing software in the field of
 computational chemistry and represents and warrants to the
 licensee that it is not a competitor of Gaussian, Inc. and that
 it will not use this program in any manner prohibited above.
 ---------------------------------------------------------------
  

 Cite this work as:
 Gaussian 16, Revision A.03,
 M. J. Frisch, G. W. Trucks, H. B. Schlegel, G. E. Scuseria, 
 M. A. Robb, J. R. Cheeseman, G. Scalmani, V. Barone, 
 G. A. Petersson, H. Nakatsuji, X. Li, M. Caricato, A. V. Marenich, 
 J. Bloino, B. G. Janesko, R. Gomperts, B. Mennucci, H. P. Hratchian, 
 J. V. Ortiz, A. F. Izmaylov, J. L. Sonnenberg, D. Williams-Young, 
 F. Ding, F. Lipparini, F. Egidi, J. Goings, B. Peng, A. Petrone, 
 T. Henderson, D. Ranasinghe, V. G. Zakrzewski, J. Gao, N. Rega, 
 G. Zheng, W. Liang, M. Hada, M. Ehara, K. Toyota, R. Fukuda, 
 J. Hasegawa, M. Ishida, T. Nakajima, Y. Honda, O. Kitao, H. Nakai, 
 T. Vreven, K. Throssell, J. A. Montgomery, Jr., J. E. Peralta, 
 F. Ogliaro, M. J. Bearpark, J. J. Heyd, E. N. Brothers, K. N. Kudin, 
 V. N. Staroverov, T. A. Keith, R. Kobayashi, J. Normand, 
 K. Raghavachari, A. P. Rendell, J. C. Burant, S. S. Iyengar, 
 J. Tomasi, M. Cossi, J. M. Millam, M. Klene, C. Adamo, R. Cammi, 
 J. W. Ochterski, R. L. Martin, K. Morokuma, O. Farkas, 
 J. B. Foresman, and D. J. Fox, Gaussian, Inc., Wallingford CT, 2016.
 
 ******************************************
 Gaussian 16:  ES64L-G16RevA.03 25-Dec-2016
                 9-Sep-2021 
 ******************************************
 %nproc=24
 Will use up to   24 processors via shared memory.
 %mem=175gb
 -----------------------------------
 #p cam-b3lyp/Def2SVP td=(nstates=5)
 -----------------------------------
 1/38=1,172=1/1;
 2/12=2,17=6,18=5,40=1/2;
 3/5=43,7=101,11=9,25=1,30=1,74=-40/1,2,3,8;
 4//1;
 5/5=2,38=5/2;
 8/6=1,10=1,108=5/1;
 9/41=5,42=1,70=2/14;
 6/7=2,8=2,9=2,10=2/1;
 99/5=1,9=1/99;
 Leave Link    1 at Thu Sep  9 13:01:10 2021, MaxMem= 23488102400 cpu:               0.6 elap:               0.0
 (Enter /sw/apps/gaussian-16.0/g16/l101.exe)
 --------------------------------
 TDDFT excited states in gaussian
 --------------------------------
 Symbolic Z-matrix:
 Charge =  0 Multiplicity = 1
 Mg                    0.        0.        0. 
 C                    -0.217    -2.218     2.801 
 C                    -1.255     2.442     2.026 
 C                    -0.245     1.85     -2.564 
 C                     0.146    -2.824    -2.037 
 N                    -0.617    -0.009     2.126 
 C                    -0.594    -0.908     3.105 
 C                    -0.936    -0.309     4.502 
 C                    -1.773     0.964     4.032 
 C                    -1.155     1.168     2.66 
 C                    -3.263     0.685     3.863 
 C                     0.345     0.11      5.299 
 C                     0.124     0.397     6.787 
 H                     1.168     0.033     7.733 
 N                    -0.185     1.961    -0.152 
 C                    -0.703     2.8       0.777 
 C                    -0.62      4.156     0.193 
 C                    -0.187     4.015    -1.225 
 C                    -0.214     2.583    -1.38 
 C                    -0.887     5.406     0.974 
 C                     0.181     5.013    -2.277 
 O                     0.303     4.69     -3.508 
 C                     0.31      6.414    -1.837 
 N                    -0.265    -0.413    -2.029 
 C                    -0.279     0.569    -2.937 
 C                    -0.196     0.024    -4.332 
 C                     0.124    -1.533    -4.18 
 C                     0.086    -1.632    -2.635 
 C                    -1.451     0.205    -5.197 
 C                     1.373    -2.07     -4.923 
 C                     2.626    -1.49     -4.306 
 N                     0.15     -2.144     0.303 
 C                     0.173    -3.136    -0.688 
 C                     0.173    -4.438     0.004 
 C                     0.133    -4.111     1.358 
 C                     0.083    -2.695     1.502 
 C                     0.149    -5.715    -0.623 
 C                     0.096    -4.629     2.716 
 O                     0.208    -5.747     3.221 
 C                    -0.255    -3.428     3.701 
 C                     0.717    -3.482     4.848 
 O                     1.931    -3.255     4.669 
 O                     0.038    -3.556     6.003 
 C                     0.943    -3.583     7.183 
 H                    -1.859     3.22      2.497 
 H                    -0.218     2.453    -3.474 
 H                     0.276    -3.747    -2.605 
 H                    -1.554    -0.949     5.132 
 H                    -1.585     1.831     4.665 
 H                    -3.484    -0.377     3.969 
 H                    -3.511     1.027     2.858 
 H                    -3.852     1.301     4.543 
 H                     0.669     1.096     4.966 
 H                     1.13     -0.639     5.189 
 H                    -0.844     0.026     7.125 
 H                     0.062     1.477     6.921 
 H                    -1.344     5.186     1.938 
 H                    -1.651     5.963     0.432 
 H                     0.007     6.02      1.084 
 H                    -0.635     6.744    -1.405 
 H                     0.665     6.97     -2.704 
 H                     1.048     6.466    -1.036 
 H                     0.608     0.501    -4.891 
 H                    -0.692    -2.156    -4.547 
 H                    -1.267     0.74     -6.129 
 H                    -2.204     0.714    -4.596 
 H                    -1.967    -0.72     -5.453 
 H                     1.356    -1.759    -5.967 
 H                     1.452    -3.157    -4.902 
 H                     2.714    -0.522    -4.798 
 H                     3.487    -2.121    -4.529 
 H                     2.495    -1.303    -3.24 
 H                     0.867    -6.333    -0.084 
 H                     0.404    -5.642    -1.68 
 H                    -0.891    -5.999    -0.463 
 H                    -1.283    -3.581     4.028 
 H                     0.698    -4.478     7.755 
 H                     0.833    -2.619     7.68 
 H                     2.       -3.754     6.976 
 Mg                    8.94199   0.79741   0.68073 
 C                     9.12979  -0.95776  -2.44388 
 C                     8.21684  -2.1955    2.14743 
 C                     8.32718   2.37434   3.36452 
 C                     8.54762   3.73522  -1.15215 
 N                     8.72955  -1.24285  -0.14658 
 C                     8.88415  -1.799    -1.3387 
 C                     8.84874  -3.35086  -1.33393 
 C                     8.001    -3.56792   0.01258 
 C                     8.36056  -2.2735    0.73912 
 C                     6.49905  -3.58485  -0.21801 
 C                     10.28109  -3.98107  -1.2188 
 C                     10.35002  -5.48022  -1.51803 
 H                     11.53708  -6.00206  -2.18964 
 N                     8.84143   0.15254   2.55492 
 C                     8.55728  -1.09959   2.97049 
 C                     8.58699  -1.05207   4.44053 
 C                     8.74938   0.36628   4.86081 
 C                     8.62196   1.03633   3.58218 
 C                     8.54673  -2.28528   5.29552 
 C                     8.96863   1.01354   6.19467 
 O                     8.84325   2.27863   6.35797 
 C                     9.24272   0.11239   7.32352 
 N                     8.29037   2.73491   1.05997 
 C                     8.15446   3.18442   2.31989 
 C                     7.94302   4.67941   2.34584 
 C                     8.20769   5.1768    0.84913 
 C                     8.44966   3.81194   0.16796 
 C                     6.56103   5.14801   2.8007 
 C                     9.26636   6.29699   0.65661 
 C                     10.64242   5.77028   0.99491 
 N                     9.03478   1.35376  -1.40492 
 C                     8.81273   2.63447  -1.95679 
 C                     8.87253   2.49179  -3.42597 
 C                     9.10418   1.12301  -3.62908 
 C                     9.16307   0.45609  -2.37558 
 C                     8.67398   3.53665  -4.372 
 C                     9.30171   0.0889   -4.61918 
 O                     9.4384    0.07154  -5.84178 
 C                     9.20108  -1.32503  -3.90012 
 C                     10.36522  -2.16163  -4.35552 
 O                     11.52927  -1.83957  -4.05911 
 O                     9.90337  -3.3132   -4.87606 
 C                     11.02128  -4.1817   -5.33189 
 H                     7.76102  -3.03705   2.66983 
 H                     8.21597   2.98495   4.26355 
 H                     8.53212   4.62076  -1.7911 
 H                     8.331    -3.79601  -2.1751 
 H                     8.35856  -4.4299    0.56981 
 H                     6.24481  -3.32921  -1.23593 
 H                     6.08774  -2.85684   0.46892 
 H                     6.08254  -4.55083   0.08157 
 H                     10.58656  -3.98566  -0.16456 
 H                     10.97952  -3.45591  -1.84091 
 H                     9.43938  -5.84492  -2.00861 
 H                     10.37911  -6.02238  -0.56976 
 H                     8.25966  -3.1694    4.71301 
 H                     7.72685  -2.15259   6.0097 
 H                     9.47481  -2.44488   5.84856 
 H                     8.41578  -0.58433   7.43845 
 H                     9.45973   0.76436   8.17188 
 H                     10.12853  -0.48705   7.08556 
 H                     8.65457   5.1592    3.0066 
 H                     7.29989   5.59886   0.3935 
 H                     6.59648   5.83581   3.66657 
 H                     5.96393   4.27593   3.03199 
 H                     5.96461   5.63963   2.03402 
 H                     9.07259   7.12351   1.34471 
 H                     9.28088   6.70978  -0.34657 
 H                     10.68326   5.86812   2.08387 
 H                     11.4116   6.37234   0.5154 
 H                     10.7251   4.70353   0.75645 
 H                     9.43795   3.4204   -5.12918 
 H                     8.72658   4.51557  -3.90006 
 H                     7.66314   3.29997  -4.71471 
 H                     8.24443  -1.76768  -4.18026 
 H                     10.83646  -4.41382  -6.38529 
 H                     11.04576  -5.03258  -4.62538 
 H                     12.00991  -3.7407   -5.38281 
 
 ITRead=  0  0  0  0  0  0  0  0  0  0  0  0  0  0  0  0  0  0  0  0
 ITRead=  0  0  0  0  0  0  0  0  0  0  0  0  0  0  0  0  0  0  0  0
 ITRead=  0  0  0  0  0  0  0  0  0  0  0  0  0  0  0  0  0  0  0  0
 ITRead=  0  0  0  0  0  0  0  0  0  0  0  0  0  0  0  0  0  0  0  0
 ITRead=  0  0  0  0  0  0  0  0  0  0  0  0  0  0  0  0  0  0  0  0
 ITRead=  0  0  0  0  0  0  0  0  0  0  0  0  0  0  0  0  0  0  0  0
 ITRead=  0  0  0  0  0  0  0  0  0  0  0  0  0  0  0  0  0  0  0  0
 ITRead=  0  0  0  0  0  0  0  0  0  0  0  0  0  0  0  0  0  0
 MicOpt= -1 -1 -1 -1 -1 -1 -1 -1 -1 -1 -1 -1 -1 -1 -1 -1 -1 -1 -1 -1
 MicOpt= -1 -1 -1 -1 -1 -1 -1 -1 -1 -1 -1 -1 -1 -1 -1 -1 -1 -1 -1 -1
 MicOpt= -1 -1 -1 -1 -1 -1 -1 -1 -1 -1 -1 -1 -1 -1 -1 -1 -1 -1 -1 -1
 MicOpt= -1 -1 -1 -1 -1 -1 -1 -1 -1 -1 -1 -1 -1 -1 -1 -1 -1 -1 -1 -1
 MicOpt= -1 -1 -1 -1 -1 -1 -1 -1 -1 -1 -1 -1 -1 -1 -1 -1 -1 -1 -1 -1
 MicOpt= -1 -1 -1 -1 -1 -1 -1 -1 -1 -1 -1 -1 -1 -1 -1 -1 -1 -1 -1 -1
 MicOpt= -1 -1 -1 -1 -1 -1 -1 -1 -1 -1 -1 -1 -1 -1 -1 -1 -1 -1 -1 -1
 MicOpt= -1 -1 -1 -1 -1 -1 -1 -1 -1 -1 -1 -1 -1 -1 -1 -1 -1 -1
 NAtoms=    158 NQM=      158 NQMF=       0 NMMI=      0 NMMIF=      0
                NMic=       0 NMicF=      0.
                    Isotopes and Nuclear Properties:
 (Nuclear quadrupole moments (NQMom) in fm**2, nuclear magnetic moments (NMagM)
  in nuclear magnetons)

  Atom         1           2           3           4           5           6           7           8           9          10
 IAtWgt=          24          12          12          12          12          14          12          12          12          12
 AtmWgt=  23.9850450  12.0000000  12.0000000  12.0000000  12.0000000  14.0030740  12.0000000  12.0000000  12.0000000  12.0000000
 NucSpn=           0           0           0           0           0           2           0           0           0           0
 AtZEff=  -0.0000000  -0.0000000  -0.0000000  -0.0000000  -0.0000000  -0.0000000  -0.0000000  -0.0000000  -0.0000000  -0.0000000
 NQMom=    0.0000000   0.0000000   0.0000000   0.0000000   0.0000000   2.0440000   0.0000000   0.0000000   0.0000000   0.0000000
 NMagM=    0.0000000   0.0000000   0.0000000   0.0000000   0.0000000   0.4037610   0.0000000   0.0000000   0.0000000   0.0000000
 AtZNuc=  12.0000000   6.0000000   6.0000000   6.0000000   6.0000000   7.0000000   6.0000000   6.0000000   6.0000000   6.0000000

  Atom        11          12          13          14          15          16          17          18          19          20
 IAtWgt=          12          12          12           1          14          12          12          12          12          12
 AtmWgt=  12.0000000  12.0000000  12.0000000   1.0078250  14.0030740  12.0000000  12.0000000  12.0000000  12.0000000  12.0000000
 NucSpn=           0           0           0           1           2           0           0           0           0           0
 AtZEff=  -0.0000000  -0.0000000  -0.0000000  -0.0000000  -0.0000000  -0.0000000  -0.0000000  -0.0000000  -0.0000000  -0.0000000
 NQMom=    0.0000000   0.0000000   0.0000000   0.0000000   2.0440000   0.0000000   0.0000000   0.0000000   0.0000000   0.0000000
 NMagM=    0.0000000   0.0000000   0.0000000   2.7928460   0.4037610   0.0000000   0.0000000   0.0000000   0.0000000   0.0000000
 AtZNuc=   6.0000000   6.0000000   6.0000000   1.0000000   7.0000000   6.0000000   6.0000000   6.0000000   6.0000000   6.0000000

  Atom        21          22          23          24          25          26          27          28          29          30
 IAtWgt=          12          16          12          14          12          12          12          12          12          12
 AtmWgt=  12.0000000  15.9949146  12.0000000  14.0030740  12.0000000  12.0000000  12.0000000  12.0000000  12.0000000  12.0000000
 NucSpn=           0           0           0           2           0           0           0           0           0           0
 AtZEff=  -0.0000000  -0.0000000  -0.0000000  -0.0000000  -0.0000000  -0.0000000  -0.0000000  -0.0000000  -0.0000000  -0.0000000
 NQMom=    0.0000000   0.0000000   0.0000000   2.0440000   0.0000000   0.0000000   0.0000000   0.0000000   0.0000000   0.0000000
 NMagM=    0.0000000   0.0000000   0.0000000   0.4037610   0.0000000   0.0000000   0.0000000   0.0000000   0.0000000   0.0000000
 AtZNuc=   6.0000000   8.0000000   6.0000000   7.0000000   6.0000000   6.0000000   6.0000000   6.0000000   6.0000000   6.0000000

  Atom        31          32          33          34          35          36          37          38          39          40
 IAtWgt=          12          14          12          12          12          12          12          12          16          12
 AtmWgt=  12.0000000  14.0030740  12.0000000  12.0000000  12.0000000  12.0000000  12.0000000  12.0000000  15.9949146  12.0000000
 NucSpn=           0           2           0           0           0           0           0           0           0           0
 AtZEff=  -0.0000000  -0.0000000  -0.0000000  -0.0000000  -0.0000000  -0.0000000  -0.0000000  -0.0000000  -0.0000000  -0.0000000
 NQMom=    0.0000000   2.0440000   0.0000000   0.0000000   0.0000000   0.0000000   0.0000000   0.0000000   0.0000000   0.0000000
 NMagM=    0.0000000   0.4037610   0.0000000   0.0000000   0.0000000   0.0000000   0.0000000   0.0000000   0.0000000   0.0000000
 AtZNuc=   6.0000000   7.0000000   6.0000000   6.0000000   6.0000000   6.0000000   6.0000000   6.0000000   8.0000000   6.0000000

  Atom        41          42          43          44          45          46          47          48          49          50
 IAtWgt=          12          16          16          12           1           1           1           1           1           1
 AtmWgt=  12.0000000  15.9949146  15.9949146  12.0000000   1.0078250   1.0078250   1.0078250   1.0078250   1.0078250   1.0078250
 NucSpn=           0           0           0           0           1           1           1           1           1           1
 AtZEff=  -0.0000000  -0.0000000  -0.0000000  -0.0000000  -0.0000000  -0.0000000  -0.0000000  -0.0000000  -0.0000000  -0.0000000
 NQMom=    0.0000000   0.0000000   0.0000000   0.0000000   0.0000000   0.0000000   0.0000000   0.0000000   0.0000000   0.0000000
 NMagM=    0.0000000   0.0000000   0.0000000   0.0000000   2.7928460   2.7928460   2.7928460   2.7928460   2.7928460   2.7928460
 AtZNuc=   6.0000000   8.0000000   8.0000000   6.0000000   1.0000000   1.0000000   1.0000000   1.0000000   1.0000000   1.0000000

  Atom        51          52          53          54          55          56          57          58          59          60
 IAtWgt=           1           1           1           1           1           1           1           1           1           1
 AtmWgt=   1.0078250   1.0078250   1.0078250   1.0078250   1.0078250   1.0078250   1.0078250   1.0078250   1.0078250   1.0078250
 NucSpn=           1           1           1           1           1           1           1           1           1           1
 AtZEff=  -0.0000000  -0.0000000  -0.0000000  -0.0000000  -0.0000000  -0.0000000  -0.0000000  -0.0000000  -0.0000000  -0.0000000
 NQMom=    0.0000000   0.0000000   0.0000000   0.0000000   0.0000000   0.0000000   0.0000000   0.0000000   0.0000000   0.0000000
 NMagM=    2.7928460   2.7928460   2.7928460   2.7928460   2.7928460   2.7928460   2.7928460   2.7928460   2.7928460   2.7928460
 AtZNuc=   1.0000000   1.0000000   1.0000000   1.0000000   1.0000000   1.0000000   1.0000000   1.0000000   1.0000000   1.0000000

  Atom        61          62          63          64          65          66          67          68          69          70
 IAtWgt=           1           1           1           1           1           1           1           1           1           1
 AtmWgt=   1.0078250   1.0078250   1.0078250   1.0078250   1.0078250   1.0078250   1.0078250   1.0078250   1.0078250   1.0078250
 NucSpn=           1           1           1           1           1           1           1           1           1           1
 AtZEff=  -0.0000000  -0.0000000  -0.0000000  -0.0000000  -0.0000000  -0.0000000  -0.0000000  -0.0000000  -0.0000000  -0.0000000
 NQMom=    0.0000000   0.0000000   0.0000000   0.0000000   0.0000000   0.0000000   0.0000000   0.0000000   0.0000000   0.0000000
 NMagM=    2.7928460   2.7928460   2.7928460   2.7928460   2.7928460   2.7928460   2.7928460   2.7928460   2.7928460   2.7928460
 AtZNuc=   1.0000000   1.0000000   1.0000000   1.0000000   1.0000000   1.0000000   1.0000000   1.0000000   1.0000000   1.0000000

  Atom        71          72          73          74          75          76          77          78          79          80
 IAtWgt=           1           1           1           1           1           1           1           1           1          24
 AtmWgt=   1.0078250   1.0078250   1.0078250   1.0078250   1.0078250   1.0078250   1.0078250   1.0078250   1.0078250  23.9850450
 NucSpn=           1           1           1           1           1           1           1           1           1           0
 AtZEff=  -0.0000000  -0.0000000  -0.0000000  -0.0000000  -0.0000000  -0.0000000  -0.0000000  -0.0000000  -0.0000000  -0.0000000
 NQMom=    0.0000000   0.0000000   0.0000000   0.0000000   0.0000000   0.0000000   0.0000000   0.0000000   0.0000000   0.0000000
 NMagM=    2.7928460   2.7928460   2.7928460   2.7928460   2.7928460   2.7928460   2.7928460   2.7928460   2.7928460   0.0000000
 AtZNuc=   1.0000000   1.0000000   1.0000000   1.0000000   1.0000000   1.0000000   1.0000000   1.0000000   1.0000000  12.0000000

  Atom        81          82          83          84          85          86          87          88          89          90
 IAtWgt=          12          12          12          12          14          12          12          12          12          12
 AtmWgt=  12.0000000  12.0000000  12.0000000  12.0000000  14.0030740  12.0000000  12.0000000  12.0000000  12.0000000  12.0000000
 NucSpn=           0           0           0           0           2           0           0           0           0           0
 AtZEff=  -0.0000000  -0.0000000  -0.0000000  -0.0000000  -0.0000000  -0.0000000  -0.0000000  -0.0000000  -0.0000000  -0.0000000
 NQMom=    0.0000000   0.0000000   0.0000000   0.0000000   2.0440000   0.0000000   0.0000000   0.0000000   0.0000000   0.0000000
 NMagM=    0.0000000   0.0000000   0.0000000   0.0000000   0.4037610   0.0000000   0.0000000   0.0000000   0.0000000   0.0000000
 AtZNuc=   6.0000000   6.0000000   6.0000000   6.0000000   7.0000000   6.0000000   6.0000000   6.0000000   6.0000000   6.0000000

  Atom        91          92          93          94          95          96          97          98          99         100
 IAtWgt=          12          12           1          14          12          12          12          12          12          12
 AtmWgt=  12.0000000  12.0000000   1.0078250  14.0030740  12.0000000  12.0000000  12.0000000  12.0000000  12.0000000  12.0000000
 NucSpn=           0           0           1           2           0           0           0           0           0           0
 AtZEff=  -0.0000000  -0.0000000  -0.0000000  -0.0000000  -0.0000000  -0.0000000  -0.0000000  -0.0000000  -0.0000000  -0.0000000
 NQMom=    0.0000000   0.0000000   0.0000000   2.0440000   0.0000000   0.0000000   0.0000000   0.0000000   0.0000000   0.0000000
 NMagM=    0.0000000   0.0000000   2.7928460   0.4037610   0.0000000   0.0000000   0.0000000   0.0000000   0.0000000   0.0000000
 AtZNuc=   6.0000000   6.0000000   1.0000000   7.0000000   6.0000000   6.0000000   6.0000000   6.0000000   6.0000000   6.0000000

  Atom       101         102         103         104         105         106         107         108         109         110
 IAtWgt=          16          12          14          12          12          12          12          12          12          12
 AtmWgt=  15.9949146  12.0000000  14.0030740  12.0000000  12.0000000  12.0000000  12.0000000  12.0000000  12.0000000  12.0000000
 NucSpn=           0           0           2           0           0           0           0           0           0           0
 AtZEff=  -0.0000000  -0.0000000  -0.0000000  -0.0000000  -0.0000000  -0.0000000  -0.0000000  -0.0000000  -0.0000000  -0.0000000
 NQMom=    0.0000000   0.0000000   2.0440000   0.0000000   0.0000000   0.0000000   0.0000000   0.0000000   0.0000000   0.0000000
 NMagM=    0.0000000   0.0000000   0.4037610   0.0000000   0.0000000   0.0000000   0.0000000   0.0000000   0.0000000   0.0000000
 AtZNuc=   8.0000000   6.0000000   7.0000000   6.0000000   6.0000000   6.0000000   6.0000000   6.0000000   6.0000000   6.0000000

  Atom       111         112         113         114         115         116         117         118         119         120
 IAtWgt=          14          12          12          12          12          12          12          16          12          12
 AtmWgt=  14.0030740  12.0000000  12.0000000  12.0000000  12.0000000  12.0000000  12.0000000  15.9949146  12.0000000  12.0000000
 NucSpn=           2           0           0           0           0           0           0           0           0           0
 AtZEff=  -0.0000000  -0.0000000  -0.0000000  -0.0000000  -0.0000000  -0.0000000  -0.0000000  -0.0000000  -0.0000000  -0.0000000
 NQMom=    2.0440000   0.0000000   0.0000000   0.0000000   0.0000000   0.0000000   0.0000000   0.0000000   0.0000000   0.0000000
 NMagM=    0.4037610   0.0000000   0.0000000   0.0000000   0.0000000   0.0000000   0.0000000   0.0000000   0.0000000   0.0000000
 AtZNuc=   7.0000000   6.0000000   6.0000000   6.0000000   6.0000000   6.0000000   6.0000000   8.0000000   6.0000000   6.0000000

  Atom       121         122         123         124         125         126         127         128         129         130
 IAtWgt=          16          16          12           1           1           1           1           1           1           1
 AtmWgt=  15.9949146  15.9949146  12.0000000   1.0078250   1.0078250   1.0078250   1.0078250   1.0078250   1.0078250   1.0078250
 NucSpn=           0           0           0           1           1           1           1           1           1           1
 AtZEff=  -0.0000000  -0.0000000  -0.0000000  -0.0000000  -0.0000000  -0.0000000  -0.0000000  -0.0000000  -0.0000000  -0.0000000
 NQMom=    0.0000000   0.0000000   0.0000000   0.0000000   0.0000000   0.0000000   0.0000000   0.0000000   0.0000000   0.0000000
 NMagM=    0.0000000   0.0000000   0.0000000   2.7928460   2.7928460   2.7928460   2.7928460   2.7928460   2.7928460   2.7928460
 AtZNuc=   8.0000000   8.0000000   6.0000000   1.0000000   1.0000000   1.0000000   1.0000000   1.0000000   1.0000000   1.0000000

  Atom       131         132         133         134         135         136         137         138         139         140
 IAtWgt=           1           1           1           1           1           1           1           1           1           1
 AtmWgt=   1.0078250   1.0078250   1.0078250   1.0078250   1.0078250   1.0078250   1.0078250   1.0078250   1.0078250   1.0078250
 NucSpn=           1           1           1           1           1           1           1           1           1           1
 AtZEff=  -0.0000000  -0.0000000  -0.0000000  -0.0000000  -0.0000000  -0.0000000  -0.0000000  -0.0000000  -0.0000000  -0.0000000
 NQMom=    0.0000000   0.0000000   0.0000000   0.0000000   0.0000000   0.0000000   0.0000000   0.0000000   0.0000000   0.0000000
 NMagM=    2.7928460   2.7928460   2.7928460   2.7928460   2.7928460   2.7928460   2.7928460   2.7928460   2.7928460   2.7928460
 AtZNuc=   1.0000000   1.0000000   1.0000000   1.0000000   1.0000000   1.0000000   1.0000000   1.0000000   1.0000000   1.0000000

  Atom       141         142         143         144         145         146         147         148         149         150
 IAtWgt=           1           1           1           1           1           1           1           1           1           1
 AtmWgt=   1.0078250   1.0078250   1.0078250   1.0078250   1.0078250   1.0078250   1.0078250   1.0078250   1.0078250   1.0078250
 NucSpn=           1           1           1           1           1           1           1           1           1           1
 AtZEff=  -0.0000000  -0.0000000  -0.0000000  -0.0000000  -0.0000000  -0.0000000  -0.0000000  -0.0000000  -0.0000000  -0.0000000
 NQMom=    0.0000000   0.0000000   0.0000000   0.0000000   0.0000000   0.0000000   0.0000000   0.0000000   0.0000000   0.0000000
 NMagM=    2.7928460   2.7928460   2.7928460   2.7928460   2.7928460   2.7928460   2.7928460   2.7928460   2.7928460   2.7928460
 AtZNuc=   1.0000000   1.0000000   1.0000000   1.0000000   1.0000000   1.0000000   1.0000000   1.0000000   1.0000000   1.0000000

  Atom       151         152         153         154         155         156         157         158
 IAtWgt=           1           1           1           1           1           1           1           1
 AtmWgt=   1.0078250   1.0078250   1.0078250   1.0078250   1.0078250   1.0078250   1.0078250   1.0078250
 NucSpn=           1           1           1           1           1           1           1           1
 AtZEff=  -0.0000000  -0.0000000  -0.0000000  -0.0000000  -0.0000000  -0.0000000  -0.0000000  -0.0000000
 NQMom=    0.0000000   0.0000000   0.0000000   0.0000000   0.0000000   0.0000000   0.0000000   0.0000000
 NMagM=    2.7928460   2.7928460   2.7928460   2.7928460   2.7928460   2.7928460   2.7928460   2.7928460
 AtZNuc=   1.0000000   1.0000000   1.0000000   1.0000000   1.0000000   1.0000000   1.0000000   1.0000000
 Leave Link  101 at Thu Sep  9 13:01:10 2021, MaxMem= 23488102400 cpu:               3.9 elap:               0.2
 (Enter /sw/apps/gaussian-16.0/g16/l202.exe)
 Stoichiometry    C68H72Mg2N8O8
 Framework group  C1[X(C68H72Mg2N8O8)]
 Deg. of freedom   468
 Full point group                 C1      NOp   1
 Largest Abelian subgroup         C1      NOp   1
 Largest concise Abelian subgroup C1      NOp   1
                         Standard orientation:                         
 ---------------------------------------------------------------------
 Center     Atomic      Atomic             Coordinates (Angstroms)
 Number     Number       Type             X           Y           Z
 ---------------------------------------------------------------------
      1         12           0        4.208198   -1.394611    0.203295
      2          6           0        5.186523    1.380096   -1.835354
      3          6           0        5.762932    0.163973    2.810339
      4          6           0        3.753399   -4.029643    1.908108
      5          6           0        3.748963   -3.204868   -2.739108
      6          7           0        5.299267    0.526364    0.344952
      7          6           0        5.551905    1.525137   -0.495166
      8          6           0        6.174405    2.773552    0.198610
      9          6           0        6.809819    2.061191    1.475634
     10          6           0        5.881407    0.863464    1.572717
     11          6           0        8.233338    1.562175    1.249631
     12          6           0        5.091416    3.826993    0.609861
     13          6           0        5.634328    5.206849    0.992743
     14          1           0        4.858483    6.386748    0.641675
     15          7           0        4.246381   -1.678432    2.157991
     16          6           0        4.918698   -0.937023    3.071001
     17          6           0        4.629554   -1.549087    4.385708
     18          6           0        3.888950   -2.818353    4.143709
     19          6           0        3.957072   -2.907294    2.707454
     20          6           0        5.001545   -0.912255    5.689479
     21          6           0        3.234245   -3.801363    5.061959
     22          8           0        2.848837   -4.953052    4.662400
     23          6           0        3.134569   -3.410339    6.479777
     24          7           0        4.019238   -3.407441   -0.316749
     25          6           0        3.769758   -4.339094    0.609948
     26          6           0        3.396390   -5.648639   -0.019040
     27          6           0        3.205142   -5.352433   -1.576422
     28          6           0        3.604399   -3.856163   -1.582828
     29          6           0        4.405852   -6.790494    0.163070
     30          6           0        1.849299   -5.756737   -2.207807
     31          6           0        0.743184   -4.892282   -1.645379
     32          7           0        4.248833   -0.963644   -1.923595
     33          6           0        4.051350   -1.873662   -2.972186
     34          6           0        4.281888   -1.139880   -4.230154
     35          6           0        4.615841    0.150231   -3.822803
     36          6           0        4.620846    0.211257   -2.399939
     37          6           0        4.229629   -1.693860   -5.539661
     38          6           0        4.993658    1.484993   -4.258145
     39          8           0        5.062205    2.054609   -5.348251
     40          6           0        5.497041    2.302641   -2.987758
     41          6           0        4.820757    3.646224   -3.014820
     42          8           0        3.587768    3.745256   -2.849602
     43          8           0        5.751234    4.612793   -2.992441
     44          6           0        5.146195    5.971491   -2.987838
     45          1           0        6.416282    0.443388    3.639195
     46          1           0        3.484195   -4.935689    2.454961
     47          1           0        3.541527   -3.682355   -3.698499
     48          1           0        6.955037    3.271346   -0.376923
     49          1           0        6.726398    2.678755    2.369713
     50          1           0        8.530143    1.663840    0.205844
     51          1           0        8.223490    0.511994    1.542062
     52          1           0        8.929196    2.055750    1.928559
     53          1           0        4.646229    3.532541    1.560213
     54          1           0        4.344073    3.939083   -0.176422
     55          1           0        6.672897    5.326535    0.682970
     56          1           0        5.666913    5.271291    2.080395
     57          1           0        5.680157   -0.072390    5.545751
     58          1           0        5.588262   -1.643536    6.245087
     59          1           0        4.125186   -0.625669    6.271024
     60          1           0        4.134474   -3.227228    6.873742
     61          1           0        2.559222   -4.195763    6.968586
     62          1           0        2.599904   -2.462476    6.547884
     63          1           0        2.460322   -6.026295    0.390323
     64          1           0        3.946838   -5.869959   -2.185296
     65          1           0        3.982741   -7.678000    0.634254
     66          1           0        5.248578   -6.406884    0.737481
     67          1           0        4.898155   -7.115810   -0.753023
     68          1           0        1.607721   -6.789354   -1.958229
     69          1           0        1.836393   -5.666345   -3.294045
     70          1           0        0.491495   -5.395434   -0.712468
     71          1           0       -0.110499   -4.877773   -2.323779
     72          1           0        1.106592   -3.896490   -1.390781
     73          1           0        3.690215   -0.973348   -6.154367
     74          1           0        3.733735   -2.664268   -5.539582
     75          1           0        5.292293   -1.767988   -5.770111
     76          1           0        6.579524    2.387289   -3.078240
     77          1           0        5.564921    6.512194   -3.836685
     78          1           0        5.315573    6.382753   -1.992559
     79          1           0        4.080848    6.025520   -3.214676
     80         12           0       -4.364287    1.317852    0.665341
     81          6           0       -5.173418   -1.589569   -1.276640
     82          6           0       -3.158570    2.714751   -2.203366
     83          6           0       -3.232527    3.705849    2.421478
     84          6           0       -4.564088   -0.693617    3.504316
     85          7           0       -4.238354    0.561501   -1.409341
     86          6           0       -4.633796   -0.533757   -2.040522
     87          6           0       -4.514086   -0.463816   -3.586589
     88          6           0       -3.367679    0.656100   -3.688605
     89          6           0       -3.619340    1.384323   -2.369884
     90          6           0       -1.961003    0.082052   -3.656338
     91          6           0       -5.844712    0.012524   -4.268191
     92          6           0       -5.899460   -0.190892   -5.783897
     93          1           0       -7.179461   -0.541055   -6.393382
     94          7           0       -3.798577    3.145086    0.136432
     95          6           0       -3.358584    3.541656   -1.076171
     96          6           0       -3.050372    4.973999   -0.943667
     97          6           0       -3.187982    5.352851    0.488903
     98          6           0       -3.395988    4.049547    1.087426
     99          6           0       -2.746799    5.853404   -2.121770
    100          6           0       -3.127903    6.668787    1.203677
    101          8           0       -3.037024    6.738101    2.480304
    102          6           0       -3.084442    7.871854    0.359735
    103          7           0       -3.748799    1.442049    2.647281
    104          6           0       -3.350061    2.612575    3.175302
    105          6           0       -3.219790    2.517492    4.676756
    106          6           0       -3.849702    1.102188    5.073890
    107          6           0       -4.168080    0.561906    3.662467
    108          6           0       -1.797620    2.614136    5.228545
    109          6           0       -4.983391    1.109449    6.135666
    110          6           0       -6.213388    1.784466    5.572754
    111          7           0       -4.966504   -0.712364    1.093864
    112          6           0       -4.947803   -1.360926    2.348098
    113          6           0       -5.337605   -2.767009    2.116995
    114          6           0       -5.535290   -2.845240    0.730173
    115          6           0       -5.266687   -1.582501    0.136157
    116          6           0       -5.420006   -3.781693    3.111859
    117          6           0       -5.899823   -3.711610   -0.367651
    118          8           0       -6.314146   -4.866201   -0.462485
    119          6           0       -5.559204   -2.969752   -1.731468
    120          6           0       -6.749905   -3.100369   -2.641238
    121          8           0       -7.829686   -2.555812   -2.351197
    122          8           0       -6.359033   -3.659204   -3.801110
    123          6           0       -7.503192   -3.799527   -4.740793
    124          1           0       -2.549408    3.155495   -2.993015
    125          1           0       -2.949908    4.524023    3.087950
    126          1           0       -4.744712   -1.359754    4.350670
    127          1           0       -4.181335   -1.380589   -4.058378
    128          1           0       -3.539501    1.321673   -4.530539
    129          1           0       -1.963088   -0.978040   -3.450540
    130          1           0       -1.442235    0.618560   -2.872702
    131          1           0       -1.434758    0.321484   -4.584823
    132          1           0       -5.897624    1.107954   -4.223596
    133          1           0       -6.695422   -0.453371   -3.810093
    134          1           0       -5.108397   -0.862793   -6.138451
    135          1           0       -5.679202    0.762540   -6.270162
    136          1           0       -2.554544    5.262540   -3.025823
    137          1           0       -1.792534    6.349148   -1.913250
    138          1           0       -3.511921    6.614899   -2.287212
    139          1           0       -2.216768    7.823303   -0.293903
    140          1           0       -3.134617    8.715542    1.050782
    141          1           0       -3.967395    7.876135   -0.289102
    142          1           0       -3.784377    3.302695    5.164407
    143          1           0       -3.096016    0.427589    5.505985
    144          1           0       -1.669321    3.430711    5.963937
    145          1           0       -1.116819    2.740603    4.397243
    146          1           0       -1.422059    1.706906    5.698751
    147          1           0       -4.681023    1.693248    7.008544
    148          1           0       -5.251680    0.119013    6.487852
    149          1           0       -6.006767    2.846931    5.732599
    150          1           0       -7.104052    1.469942    6.112975
    151          1           0       -6.290916    1.622778    4.491320
    152          1           0       -6.330785   -4.333039    2.919544
    153          1           0       -5.415182   -3.357486    4.113759
    154          1           0       -4.504388   -4.339468    2.897861
    155          1           0       -4.670594   -3.444334   -2.149487
    156          1           0       -7.554444   -4.854729   -5.026470
    157          1           0       -7.317562   -3.067324   -5.548984
    158          1           0       -8.499270   -3.638910   -4.345200
 ---------------------------------------------------------------------
 Rotational constants (GHZ):           0.0208073           0.0136408           0.0128932
 Leave Link  202 at Thu Sep  9 13:01:10 2021, MaxMem= 23488102400 cpu:               0.2 elap:               0.0
 (Enter /sw/apps/gaussian-16.0/g16/l301.exe)
 Standard basis: def2SVP (5D, 7F)
 Ernie: Thresh=  0.10000D-02 Tol=  0.10000D-05 Strict=F.
 There are  1658 symmetry adapted cartesian basis functions of A   symmetry.
 There are  1572 symmetry adapted basis functions of A   symmetry.
  1572 basis functions,  2678 primitive gaussians,  1658 cartesian basis functions
   312 alpha electrons      312 beta electrons
       nuclear repulsion energy     15479.0176319285 Hartrees.
 IExCor=20419 DFT=T Ex+Corr=CAM-B3LYP ExCW=0 ScaHFX=  1.000000
 ScaDFX=  1.000000  1.000000  1.000000  0.810000 ScalE2=  1.000000  1.000000
 IRadAn=      5 IRanWt=     -1 IRanGd=            0 ICorTp=0 IEmpDi=  4
 HFx  wShort=  0.000000 wLong=  0.330000 cFull=  0.190000 cShort=  0.000000 cLong=  0.460000
 DFx  wShort=  0.000000 wLong=  0.330000 cFull=  0.190000 cShort=  0.000000 cLong=  0.460000
 NAtoms=  158 NActive=  158 NUniq=  158 SFac= 1.00D+00 NAtFMM=   60 NAOKFM=T Big=T
 Integral buffers will be    131072 words long.
 Raffenetti 1 integral format.
 Two-electron integral symmetry is turned on.
 Leave Link  301 at Thu Sep  9 13:01:10 2021, MaxMem= 23488102400 cpu:               1.3 elap:               0.1
 (Enter /sw/apps/gaussian-16.0/g16/l302.exe)
 NPDir=0 NMtPBC=     1 NCelOv=     1 NCel=       1 NClECP=     1 NCelD=      1
         NCelK=      1 NCelE2=     1 NClLst=     1 CellRange=     0.0.
 One-electron integrals computed using PRISM.
 One-electron integral symmetry used in STVInt
   1 Symmetry operations used in ECPInt.
 ECPInt:  NShTT=  271216 NPrTT=  987664 LenC2=  153621 LenP2D=  320192.
 LDataN:  DoStor=T MaxTD1= 4 Len=   56
 NBasis=  1572 RedAO= T EigKep=  3.36D-04  NBF=  1572
 NBsUse=  1572 1.00D-06 EigRej= -1.00D+00 NBFU=  1572
 Precomputing XC quadrature grid using
 IXCGrd= 4 IRadAn=           5 IRanWt=          -1 IRanGd=           0 AccXCQ= 0.00D+00.
 Generated NRdTot=       0 NPtTot=           0 NUsed=           0 NTot=          32
 NSgBfM=  1212  1195  1198  1205  1212 MxSgAt=   158 MxSgA2=   158.
 Leave Link  302 at Thu Sep  9 13:01:16 2021, MaxMem= 23488102400 cpu:             128.4 elap:               5.4
 (Enter /sw/apps/gaussian-16.0/g16/l303.exe)
 DipDrv:  MaxL=1.
 Leave Link  303 at Thu Sep  9 13:01:16 2021, MaxMem= 23488102400 cpu:               8.6 elap:               0.4
 (Enter /sw/apps/gaussian-16.0/g16/l308.exe)
 Leave Link  308 at Thu Sep  9 13:01:17 2021, MaxMem= 23488102400 cpu:              13.6 elap:               0.7
 (Enter /sw/apps/gaussian-16.0/g16/l401.exe)
 ExpMin= 3.36D-02 ExpMax= 4.95D+03 ExpMxC= 7.45D+02 IAcc=3 IRadAn=         5 AccDes= 0.00D+00
 Harris functional with IExCor=20419 and IRadAn=       5 diagonalized for initial guess.
 HarFok:  IExCor=20419 AccDes= 0.00D+00 IRadAn=         5 IDoV= 1 UseB2=F ITyADJ=14
 ICtDFT=  3500011 ScaDFX=  1.000000  1.000000  1.000000  1.000000
 FoFCou: FMM=F IPFlag=           0 FMFlag=      100000 FMFlg1=        2001
         NFxFlg=           0 DoJE=T BraDBF=F KetDBF=T FulRan=T
         wScrn=  0.000000 ICntrl=       500 IOpCl=  0 I1Cent=   200000004 NGrid=           0
         NMat0=    1 NMatS0=      1 NMatT0=    0 NMatD0=    1 NMtDS0=    0 NMtDT0=    0
 Petite list used in FoFCou.
 Harris En= -3918.65798660271    
 JPrj=0 DoOrth=F DoCkMO=F.
 Leave Link  401 at Thu Sep  9 13:01:25 2021, MaxMem= 23488102400 cpu:             188.7 elap:               7.9
 (Enter /sw/apps/gaussian-16.0/g16/l502.exe)
 Integral symmetry usage will be decided dynamically.
 Closed shell SCF:
 Using DIIS extrapolation, IDIIS=  1040.
 NGot= 23488102400 LenX= 23482547354 LenY= 23479796732
 Requested convergence on RMS density matrix=1.00D-08 within 128 cycles.
 Requested convergence on MAX density matrix=1.00D-06.
 Requested convergence on             energy=1.00D-06.
 No special actions if energy rises.
 Fock matrices will be formed incrementally for  20 cycles.

 Cycle   1  Pass 1  IDiag  1:
 FoFJK:  IHMeth= 1 ICntrl=       0 DoSepK=T KAlg= 0 I1Cent=           0 FoldK=F
 IRaf=         1 NMat=       1 IRICut=       1 DoRegI=T DoRafI=F ISym2E= 0 IDoP0=0 IntGTp=1.
 FoFCou: FMM=T IPFlag=           0 FMFlag=      100000 FMFlg1=        2001
         NFxFlg=           0 DoJE=T BraDBF=F KetDBF=F FulRan=T
         wScrn=  0.000000 ICntrl=       500 IOpCl=  0 I1Cent=           0 NGrid=           0
         NMat0=    1 NMatS0=      1 NMatT0=    0 NMatD0=    1 NMtDS0=    0 NMtDT0=    0
 Symmetry not used in FoFCou.
 FMM levels:  10  Number of levels for PrismC:   9
 E= -4068.95126410725    
 DIIS: error= 2.04D-02 at cycle   1 NSaved=   1.
 NSaved= 1 IEnMin= 1 EnMin= -4068.95126410725     IErMin= 1 ErrMin= 2.04D-02
 ErrMax= 2.04D-02  0.00D+00 EMaxC= 1.00D-01 BMatC= 1.69D+00 BMatP= 1.69D+00
 IDIUse=3 WtCom= 7.96D-01 WtEn= 2.04D-01
 Coeff-Com:  0.100D+01
 Coeff-En:   0.100D+01
 Coeff:      0.100D+01
 Gap=     0.120 Goal=   None    Shift=    0.000
 GapD=    0.120 DampG=1.000 DampE=0.500 DampFc=0.5000 IDamp=-1.
 Damping current iteration by 5.00D-01
 RMSDP=1.57D-03 MaxDP=1.36D-01              OVMax= 1.94D-01

 Cycle   2  Pass 1  IDiag  1:
 RMSU=  7.68D-04    CP:  9.82D-01
 E= -4069.34017138565     Delta-E=       -0.388907278397 Rises=F Damp=T
 DIIS: error= 1.27D-02 at cycle   2 NSaved=   2.
 NSaved= 2 IEnMin= 2 EnMin= -4069.34017138565     IErMin= 2 ErrMin= 1.27D-02
 ErrMax= 1.27D-02  0.00D+00 EMaxC= 1.00D-01 BMatC= 3.06D-01 BMatP= 1.69D+00
 IDIUse=3 WtCom= 8.73D-01 WtEn= 1.27D-01
 Coeff-Com: -0.214D+00 0.121D+01
 Coeff-En:   0.000D+00 0.100D+01
 Coeff:     -0.187D+00 0.119D+01
 Gap=     0.133 Goal=   None    Shift=    0.000
 RMSDP=7.62D-04 MaxDP=9.49D-02 DE=-3.89D-01 OVMax= 1.84D-01

 Cycle   3  Pass 1  IDiag  1:
 RMSU=  7.29D-04    CP:  9.68D-01  1.24D+00
 E= -4069.63185608861     Delta-E=       -0.291684702963 Rises=F Damp=F
 DIIS: error= 1.55D-02 at cycle   3 NSaved=   3.
 NSaved= 3 IEnMin= 3 EnMin= -4069.63185608861     IErMin= 2 ErrMin= 1.27D-02
 ErrMax= 1.55D-02  0.00D+00 EMaxC= 1.00D-01 BMatC= 1.99D-01 BMatP= 3.06D-01
 IDIUse=3 WtCom= 8.45D-01 WtEn= 1.55D-01
 Coeff-Com: -0.267D+00 0.650D+00 0.617D+00
 Coeff-En:   0.000D+00 0.000D+00 0.100D+01
 Coeff:     -0.226D+00 0.549D+00 0.676D+00
 Gap=     0.120 Goal=   None    Shift=    0.000
 RMSDP=5.00D-04 MaxDP=4.70D-02 DE=-2.92D-01 OVMax= 1.29D-01

 Cycle   4  Pass 1  IDiag  1:
 RMSU=  2.61D-04    CP:  9.65D-01  1.55D+00  5.12D-01
 E= -4069.76850763872     Delta-E=       -0.136651550110 Rises=F Damp=F
 DIIS: error= 7.03D-03 at cycle   4 NSaved=   4.
 NSaved= 4 IEnMin= 4 EnMin= -4069.76850763872     IErMin= 4 ErrMin= 7.03D-03
 ErrMax= 7.03D-03  0.00D+00 EMaxC= 1.00D-01 BMatC= 4.81D-02 BMatP= 1.99D-01
 IDIUse=3 WtCom= 9.30D-01 WtEn= 7.03D-02
 Coeff-Com: -0.108D+00 0.224D+00 0.406D+00 0.478D+00
 Coeff-En:   0.000D+00 0.000D+00 0.212D+00 0.788D+00
 Coeff:     -0.100D+00 0.208D+00 0.393D+00 0.500D+00
 Gap=     0.120 Goal=   None    Shift=    0.000
 RMSDP=1.92D-04 MaxDP=2.01D-02 DE=-1.37D-01 OVMax= 5.25D-02

 Cycle   5  Pass 1  IDiag  1:
 RMSU=  7.26D-05    CP:  9.64D-01  1.49D+00  6.90D-01  5.62D-01
 E= -4069.81149566544     Delta-E=       -0.042988026722 Rises=F Damp=F
 DIIS: error= 7.98D-04 at cycle   5 NSaved=   5.
 NSaved= 5 IEnMin= 5 EnMin= -4069.81149566544     IErMin= 5 ErrMin= 7.98D-04
 ErrMax= 7.98D-04  0.00D+00 EMaxC= 1.00D-01 BMatC= 1.01D-03 BMatP= 4.81D-02
 IDIUse=3 WtCom= 9.92D-01 WtEn= 7.98D-03
 Coeff-Com: -0.340D-01 0.666D-01 0.158D+00 0.242D+00 0.568D+00
 Coeff-En:   0.000D+00 0.000D+00 0.000D+00 0.000D+00 0.100D+01
 Coeff:     -0.338D-01 0.661D-01 0.156D+00 0.240D+00 0.571D+00
 Gap=     0.119 Goal=   None    Shift=    0.000
 RMSDP=3.73D-05 MaxDP=4.12D-03 DE=-4.30D-02 OVMax= 1.19D-02

 Cycle   6  Pass 1  IDiag  1:
 RMSU=  2.87D-05    CP:  9.64D-01  1.50D+00  6.83D-01  6.27D-01  7.87D-01
 E= -4069.81232808990     Delta-E=       -0.000832424459 Rises=F Damp=F
 DIIS: error= 2.43D-04 at cycle   6 NSaved=   6.
 NSaved= 6 IEnMin= 6 EnMin= -4069.81232808990     IErMin= 6 ErrMin= 2.43D-04
 ErrMax= 2.43D-04  0.00D+00 EMaxC= 1.00D-01 BMatC= 1.60D-04 BMatP= 1.01D-03
 IDIUse=3 WtCom= 9.98D-01 WtEn= 2.43D-03
 Coeff-Com:  0.247D-02-0.703D-02 0.940D-02 0.376D-01 0.313D+00 0.645D+00
 Coeff-En:   0.000D+00 0.000D+00 0.000D+00 0.000D+00 0.997D-01 0.900D+00
 Coeff:      0.247D-02-0.702D-02 0.938D-02 0.375D-01 0.312D+00 0.646D+00
 Gap=     0.120 Goal=   None    Shift=    0.000
 RMSDP=1.46D-05 MaxDP=1.21D-03 DE=-8.32D-04 OVMax= 5.85D-03

 Cycle   7  Pass 1  IDiag  1:
 RMSU=  9.98D-06    CP:  9.64D-01  1.50D+00  6.89D-01  6.28D-01  8.79D-01
                    CP:  7.52D-01
 E= -4069.81249419261     Delta-E=       -0.000166102713 Rises=F Damp=F
 DIIS: error= 7.16D-05 at cycle   7 NSaved=   7.
 NSaved= 7 IEnMin= 7 EnMin= -4069.81249419261     IErMin= 7 ErrMin= 7.16D-05
 ErrMax= 7.16D-05  0.00D+00 EMaxC= 1.00D-01 BMatC= 1.74D-05 BMatP= 1.60D-04
 IDIUse=1 WtCom= 1.00D+00 WtEn= 0.00D+00
 Coeff-Com:  0.432D-02-0.941D-02-0.907D-02-0.472D-02 0.984D-01 0.318D+00
 Coeff-Com:  0.602D+00
 Coeff:      0.432D-02-0.941D-02-0.907D-02-0.472D-02 0.984D-01 0.318D+00
 Coeff:      0.602D+00
 Gap=     0.120 Goal=   None    Shift=    0.000
 RMSDP=6.26D-06 MaxDP=1.19D-03 DE=-1.66D-04 OVMax= 2.88D-03

 Cycle   8  Pass 1  IDiag  1:
 RMSU=  4.50D-06    CP:  9.64D-01  1.50D+00  6.89D-01  6.32D-01  8.87D-01
                    CP:  8.82D-01  8.40D-01
 E= -4069.81251563971     Delta-E=       -0.000021447100 Rises=F Damp=F
 DIIS: error= 3.98D-05 at cycle   8 NSaved=   8.
 NSaved= 8 IEnMin= 8 EnMin= -4069.81251563971     IErMin= 8 ErrMin= 3.98D-05
 ErrMax= 3.98D-05  0.00D+00 EMaxC= 1.00D-01 BMatC= 4.42D-06 BMatP= 1.74D-05
 IDIUse=1 WtCom= 1.00D+00 WtEn= 0.00D+00
 Coeff-Com:  0.209D-02-0.413D-02-0.761D-02-0.122D-01-0.145D-01 0.342D-01
 Coeff-Com:  0.358D+00 0.644D+00
 Coeff:      0.209D-02-0.413D-02-0.761D-02-0.122D-01-0.145D-01 0.342D-01
 Coeff:      0.358D+00 0.644D+00
 Gap=     0.120 Goal=   None    Shift=    0.000
 RMSDP=3.13D-06 MaxDP=3.13D-04 DE=-2.14D-05 OVMax= 1.17D-03

 Cycle   9  Pass 1  IDiag  1:
 RMSU=  1.85D-06    CP:  9.64D-01  1.50D+00  6.90D-01  6.34D-01  9.03D-01
                    CP:  9.06D-01  1.04D+00  9.05D-01
 E= -4069.81252264895     Delta-E=       -0.000007009239 Rises=F Damp=F
 DIIS: error= 2.00D-05 at cycle   9 NSaved=   9.
 NSaved= 9 IEnMin= 9 EnMin= -4069.81252264895     IErMin= 9 ErrMin= 2.00D-05
 ErrMax= 2.00D-05  0.00D+00 EMaxC= 1.00D-01 BMatC= 6.43D-07 BMatP= 4.42D-06
 IDIUse=1 WtCom= 1.00D+00 WtEn= 0.00D+00
 Coeff-Com:  0.471D-03-0.789D-03-0.266D-02-0.599D-02-0.227D-01-0.349D-01
 Coeff-Com:  0.112D+00 0.330D+00 0.625D+00
 Coeff:      0.471D-03-0.789D-03-0.266D-02-0.599D-02-0.227D-01-0.349D-01
 Coeff:      0.112D+00 0.330D+00 0.625D+00
 Gap=     0.120 Goal=   None    Shift=    0.000
 RMSDP=1.36D-06 MaxDP=1.58D-04 DE=-7.01D-06 OVMax= 7.51D-04

 Cycle  10  Pass 1  IDiag  1:
 RMSU=  9.10D-07    CP:  9.64D-01  1.50D+00  6.90D-01  6.34D-01  9.06D-01
                    CP:  9.20D-01  1.08D+00  1.07D+00  1.02D+00
 E= -4069.81252408099     Delta-E=       -0.000001432036 Rises=F Damp=F
 DIIS: error= 9.83D-06 at cycle  10 NSaved=  10.
 NSaved=10 IEnMin=10 EnMin= -4069.81252408099     IErMin=10 ErrMin= 9.83D-06
 ErrMax= 9.83D-06  0.00D+00 EMaxC= 1.00D-01 BMatC= 1.60D-07 BMatP= 6.43D-07
 IDIUse=1 WtCom= 1.00D+00 WtEn= 0.00D+00
 Coeff-Com: -0.412D-03 0.863D-03 0.118D-02 0.109D-02-0.430D-02-0.299D-01
 Coeff-Com: -0.489D-01-0.697D-01 0.270D+00 0.880D+00
 Coeff:     -0.412D-03 0.863D-03 0.118D-02 0.109D-02-0.430D-02-0.299D-01
 Coeff:     -0.489D-01-0.697D-01 0.270D+00 0.880D+00
 Gap=     0.120 Goal=   None    Shift=    0.000
 RMSDP=1.15D-06 MaxDP=1.19D-04 DE=-1.43D-06 OVMax= 5.72D-04

 Cycle  11  Pass 1  IDiag  1:
 RMSU=  4.81D-07    CP:  9.64D-01  1.50D+00  6.90D-01  6.34D-01  9.09D-01
                    CP:  9.31D-01  1.13D+00  1.18D+00  1.34D+00  1.34D+00
 E= -4069.81252477881     Delta-E=       -0.000000697823 Rises=F Damp=F
 DIIS: error= 4.05D-06 at cycle  11 NSaved=  11.
 NSaved=11 IEnMin=11 EnMin= -4069.81252477881     IErMin=11 ErrMin= 4.05D-06
 ErrMax= 4.05D-06  0.00D+00 EMaxC= 1.00D-01 BMatC= 4.95D-08 BMatP= 1.60D-07
 IDIUse=1 WtCom= 1.00D+00 WtEn= 0.00D+00
 Coeff-Com: -0.311D-03 0.605D-03 0.126D-02 0.206D-02 0.433D-02-0.798D-02
 Coeff-Com: -0.455D-01-0.128D+00-0.859D-02 0.431D+00 0.751D+00
 Coeff:     -0.311D-03 0.605D-03 0.126D-02 0.206D-02 0.433D-02-0.798D-02
 Coeff:     -0.455D-01-0.128D+00-0.859D-02 0.431D+00 0.751D+00
 Gap=     0.120 Goal=   None    Shift=    0.000
 RMSDP=6.35D-07 MaxDP=5.44D-05 DE=-6.98D-07 OVMax= 3.36D-04

 Cycle  12  Pass 1  IDiag  1:
 RMSU=  2.44D-07    CP:  9.64D-01  1.50D+00  6.90D-01  6.35D-01  9.10D-01
                    CP:  9.33D-01  1.16D+00  1.24D+00  1.50D+00  1.71D+00
                    CP:  1.23D+00
 E= -4069.81252500376     Delta-E=       -0.000000224951 Rises=F Damp=F
 DIIS: error= 2.43D-06 at cycle  12 NSaved=  12.
 NSaved=12 IEnMin=12 EnMin= -4069.81252500376     IErMin=12 ErrMin= 2.43D-06
 ErrMax= 2.43D-06  0.00D+00 EMaxC= 1.00D-01 BMatC= 1.22D-08 BMatP= 4.95D-08
 IDIUse=1 WtCom= 1.00D+00 WtEn= 0.00D+00
 Coeff-Com:  0.112D-04-0.374D-04 0.122D-03 0.421D-03 0.304D-02 0.418D-02
 Coeff-Com:  0.421D-02-0.310D-01-0.604D-01-0.105D+00 0.235D+00 0.949D+00
 Coeff:      0.112D-04-0.374D-04 0.122D-03 0.421D-03 0.304D-02 0.418D-02
 Coeff:      0.421D-02-0.310D-01-0.604D-01-0.105D+00 0.235D+00 0.949D+00
 Gap=     0.120 Goal=   None    Shift=    0.000
 RMSDP=4.13D-07 MaxDP=2.62D-05 DE=-2.25D-07 OVMax= 2.34D-04

 Cycle  13  Pass 1  IDiag  1:
 RMSU=  1.52D-07    CP:  9.64D-01  1.50D+00  6.90D-01  6.35D-01  9.10D-01
                    CP:  9.34D-01  1.16D+00  1.27D+00  1.61D+00  1.94D+00
                    CP:  1.64D+00  1.33D+00
 E= -4069.81252508400     Delta-E=       -0.000000080243 Rises=F Damp=F
 DIIS: error= 1.35D-06 at cycle  13 NSaved=  13.
 NSaved=13 IEnMin=13 EnMin= -4069.81252508400     IErMin=13 ErrMin= 1.35D-06
 ErrMax= 1.35D-06  0.00D+00 EMaxC= 1.00D-01 BMatC= 6.48D-09 BMatP= 1.22D-08
 IDIUse=1 WtCom= 1.00D+00 WtEn= 0.00D+00
 Coeff-Com:  0.117D-03-0.237D-03-0.365D-03-0.464D-03 0.414D-03 0.489D-02
 Coeff-Com:  0.204D-01 0.216D-01-0.323D-01-0.238D+00-0.154D+00 0.599D+00
 Coeff-Com:  0.779D+00
 Coeff:      0.117D-03-0.237D-03-0.365D-03-0.464D-03 0.414D-03 0.489D-02
 Coeff:      0.204D-01 0.216D-01-0.323D-01-0.238D+00-0.154D+00 0.599D+00
 Coeff:      0.779D+00
 Gap=     0.120 Goal=   None    Shift=    0.000
 RMSDP=3.01D-07 MaxDP=2.03D-05 DE=-8.02D-08 OVMax= 1.68D-04

 Cycle  14  Pass 1  IDiag  1:
 RMSU=  7.02D-08    CP:  9.64D-01  1.50D+00  6.90D-01  6.35D-01  9.10D-01
                    CP:  9.34D-01  1.17D+00  1.29D+00  1.68D+00  2.11D+00
                    CP:  1.90D+00  1.83D+00  1.08D+00
 E= -4069.81252511258     Delta-E=       -0.000000028580 Rises=F Damp=F
 DIIS: error= 7.71D-07 at cycle  14 NSaved=  14.
 NSaved=14 IEnMin=14 EnMin= -4069.81252511258     IErMin=14 ErrMin= 7.71D-07
 ErrMax= 7.71D-07  0.00D+00 EMaxC= 1.00D-01 BMatC= 1.06D-09 BMatP= 6.48D-09
 IDIUse=1 WtCom= 1.00D+00 WtEn= 0.00D+00
 Coeff-Com:  0.629D-04-0.124D-03-0.234D-03-0.372D-03-0.523D-03 0.126D-02
 Coeff-Com:  0.110D-01 0.178D-01 0.304D-02-0.941D-01-0.137D+00 0.942D-01
 Coeff-Com:  0.402D+00 0.703D+00
 Coeff:      0.629D-04-0.124D-03-0.234D-03-0.372D-03-0.523D-03 0.126D-02
 Coeff:      0.110D-01 0.178D-01 0.304D-02-0.941D-01-0.137D+00 0.942D-01
 Coeff:      0.402D+00 0.703D+00
 Gap=     0.120 Goal=   None    Shift=    0.000
 RMSDP=9.06D-08 MaxDP=7.28D-06 DE=-2.86D-08 OVMax= 4.91D-05

 Cycle  15  Pass 1  IDiag  1:
 RMSU=  3.64D-08    CP:  9.64D-01  1.50D+00  6.90D-01  6.35D-01  9.10D-01
                    CP:  9.34D-01  1.17D+00  1.29D+00  1.69D+00  2.15D+00
                    CP:  2.00D+00  1.97D+00  1.32D+00  1.01D+00
 E= -4069.81252511602     Delta-E=       -0.000000003438 Rises=F Damp=F
 DIIS: error= 3.05D-07 at cycle  15 NSaved=  15.
 NSaved=15 IEnMin=15 EnMin= -4069.81252511602     IErMin=15 ErrMin= 3.05D-07
 ErrMax= 3.05D-07  0.00D+00 EMaxC= 1.00D-01 BMatC= 2.18D-10 BMatP= 1.06D-09
 IDIUse=1 WtCom= 1.00D+00 WtEn= 0.00D+00
 Coeff-Com:  0.427D-05-0.685D-05-0.275D-04-0.731D-04-0.299D-03-0.491D-03
 Coeff-Com:  0.108D-02 0.213D-02 0.852D-02 0.322D-02-0.300D-01-0.746D-01
 Coeff-Com:  0.207D-01 0.310D+00 0.760D+00
 Coeff:      0.427D-05-0.685D-05-0.275D-04-0.731D-04-0.299D-03-0.491D-03
 Coeff:      0.108D-02 0.213D-02 0.852D-02 0.322D-02-0.300D-01-0.746D-01
 Coeff:      0.207D-01 0.310D+00 0.760D+00
 Gap=     0.120 Goal=   None    Shift=    0.000
 RMSDP=4.04D-08 MaxDP=2.48D-06 DE=-3.44D-09 OVMax= 2.70D-05

 Cycle  16  Pass 1  IDiag  1:
 RMSU=  1.76D-08    CP:  9.64D-01  1.50D+00  6.90D-01  6.35D-01  9.10D-01
                    CP:  9.34D-01  1.17D+00  1.29D+00  1.70D+00  2.16D+00
                    CP:  2.03D+00  2.03D+00  1.40D+00  1.25D+00  1.13D+00
 E= -4069.81252511675     Delta-E=       -0.000000000731 Rises=F Damp=F
 DIIS: error= 1.74D-07 at cycle  16 NSaved=  16.
 NSaved=16 IEnMin=16 EnMin= -4069.81252511675     IErMin=16 ErrMin= 1.74D-07
 ErrMax= 1.74D-07  0.00D+00 EMaxC= 1.00D-01 BMatC= 7.07D-11 BMatP= 2.18D-10
 IDIUse=1 WtCom= 1.00D+00 WtEn= 0.00D+00
 Coeff-Com: -0.138D-04 0.279D-04 0.462D-04 0.544D-04-0.192D-04-0.612D-03
 Coeff-Com: -0.207D-02-0.415D-02 0.481D-02 0.250D-01 0.198D-01-0.642D-01
 Coeff-Com: -0.899D-01-0.212D-01 0.393D+00 0.739D+00
 Coeff:     -0.138D-04 0.279D-04 0.462D-04 0.544D-04-0.192D-04-0.612D-03
 Coeff:     -0.207D-02-0.415D-02 0.481D-02 0.250D-01 0.198D-01-0.642D-01
 Coeff:     -0.899D-01-0.212D-01 0.393D+00 0.739D+00
 Gap=     0.120 Goal=   None    Shift=    0.000
 RMSDP=2.14D-08 MaxDP=1.30D-06 DE=-7.31D-10 OVMax= 1.11D-05

 Cycle  17  Pass 1  IDiag  1:
 RMSU=  1.01D-08    CP:  9.64D-01  1.50D+00  6.90D-01  6.35D-01  9.10D-01
                    CP:  9.34D-01  1.17D+00  1.29D+00  1.70D+00  2.17D+00
                    CP:  2.04D+00  2.06D+00  1.45D+00  1.34D+00  1.43D+00
                    CP:  1.24D+00
 E= -4069.81252511727     Delta-E=       -0.000000000513 Rises=F Damp=F
 DIIS: error= 1.06D-07 at cycle  17 NSaved=  17.
 NSaved=17 IEnMin=17 EnMin= -4069.81252511727     IErMin=17 ErrMin= 1.06D-07
 ErrMax= 1.06D-07  0.00D+00 EMaxC= 1.00D-01 BMatC= 1.75D-11 BMatP= 7.07D-11
 IDIUse=1 WtCom= 1.00D+00 WtEn= 0.00D+00
 Coeff-Com: -0.710D-05 0.138D-04 0.281D-04 0.423D-04 0.852D-04-0.131D-03
 Coeff-Com: -0.105D-02-0.278D-02 0.502D-03 0.916D-02 0.174D-01-0.729D-02
 Coeff-Com: -0.421D-01-0.975D-01-0.328D-01 0.323D+00 0.834D+00
 Coeff:     -0.710D-05 0.138D-04 0.281D-04 0.423D-04 0.852D-04-0.131D-03
 Coeff:     -0.105D-02-0.278D-02 0.502D-03 0.916D-02 0.174D-01-0.729D-02
 Coeff:     -0.421D-01-0.975D-01-0.328D-01 0.323D+00 0.834D+00
 Gap=     0.120 Goal=   None    Shift=    0.000
 RMSDP=1.32D-08 MaxDP=8.56D-07 DE=-5.13D-10 OVMax= 8.94D-06

 Cycle  18  Pass 1  IDiag  1:
 RMSU=  4.74D-09    CP:  9.64D-01  1.50D+00  6.90D-01  6.35D-01  9.10D-01
                    CP:  9.34D-01  1.17D+00  1.29D+00  1.70D+00  2.17D+00
                    CP:  2.04D+00  2.07D+00  1.47D+00  1.42D+00  1.60D+00
                    CP:  1.67D+00  1.35D+00
 E= -4069.81252511727     Delta-E=       -0.000000000007 Rises=F Damp=F
 DIIS: error= 5.95D-08 at cycle  18 NSaved=  18.
 NSaved=18 IEnMin=18 EnMin= -4069.81252511727     IErMin=18 ErrMin= 5.95D-08
 ErrMax= 5.95D-08  0.00D+00 EMaxC= 1.00D-01 BMatC= 6.45D-12 BMatP= 1.75D-11
 IDIUse=1 WtCom= 1.00D+00 WtEn= 0.00D+00
 Coeff-Com:  0.181D-05-0.392D-05-0.382D-05-0.993D-06 0.590D-04 0.173D-03
 Coeff-Com:  0.380D-03 0.948D-04-0.121D-02-0.600D-02 0.591D-03 0.210D-01
 Coeff-Com:  0.169D-01-0.382D-01-0.167D+00-0.160D+00 0.356D+00 0.978D+00
 Coeff:      0.181D-05-0.392D-05-0.382D-05-0.993D-06 0.590D-04 0.173D-03
 Coeff:      0.380D-03 0.948D-04-0.121D-02-0.600D-02 0.591D-03 0.210D-01
 Coeff:      0.169D-01-0.382D-01-0.167D+00-0.160D+00 0.356D+00 0.978D+00
 Gap=     0.120 Goal=   None    Shift=    0.000
 RMSDP=1.12D-08 MaxDP=7.28D-07 DE=-7.28D-12 OVMax= 6.36D-06

 Cycle  19  Pass 1  IDiag  1:
 RMSU=  2.94D-09    CP:  9.64D-01  1.50D+00  6.90D-01  6.35D-01  9.10D-01
                    CP:  9.34D-01  1.17D+00  1.29D+00  1.70D+00  2.17D+00
                    CP:  2.05D+00  2.07D+00  1.48D+00  1.46D+00  1.75D+00
                    CP:  2.00D+00  1.89D+00  1.33D+00
 E= -4069.81252511712     Delta-E=        0.000000000149 Rises=F Damp=F
 DIIS: error= 3.26D-08 at cycle  19 NSaved=  19.
 NSaved=19 IEnMin=18 EnMin= -4069.81252511727     IErMin=19 ErrMin= 3.26D-08
 ErrMax= 3.26D-08  0.00D+00 EMaxC= 1.00D-01 BMatC= 1.86D-12 BMatP= 6.45D-12
 IDIUse=1 WtCom= 1.00D+00 WtEn= 0.00D+00
 Coeff-Com:  0.313D-05-0.631D-05-0.106D-04-0.133D-04 0.125D-04 0.134D-03
 Coeff-Com:  0.552D-03 0.819D-03-0.723D-03-0.653D-02-0.487D-02 0.145D-01
 Coeff-Com:  0.230D-01 0.748D-02-0.871D-01-0.193D+00-0.284D-01 0.562D+00
 Coeff-Com:  0.712D+00
 Coeff:      0.313D-05-0.631D-05-0.106D-04-0.133D-04 0.125D-04 0.134D-03
 Coeff:      0.552D-03 0.819D-03-0.723D-03-0.653D-02-0.487D-02 0.145D-01
 Coeff:      0.230D-01 0.748D-02-0.871D-01-0.193D+00-0.284D-01 0.562D+00
 Coeff:      0.712D+00
 Gap=     0.120 Goal=   None    Shift=    0.000
 RMSDP=5.07D-09 MaxDP=2.94D-07 DE= 1.49D-10 OVMax= 3.56D-06

 SCF Done:  E(RCAM-B3LYP) =  -4069.81252512     A.U. after   19 cycles
            NFock= 19  Conv=0.51D-08     -V/T= 2.0102
 KE= 4.028800975042D+03 PE=-4.043910300498D+04 EE= 1.686147187289D+04
 Leave Link  502 at Thu Sep  9 13:12:24 2021, MaxMem= 23488102400 cpu:           15221.8 elap:             659.5
 (Enter /sw/apps/gaussian-16.0/g16/l801.exe)
 DoSCS=F DFT=T ScalE2(SS,OS)=  1.000000  1.000000
 ExpMin= 3.36D-02 ExpMax= 4.95D+03 ExpMxC= 7.45D+02 IAcc=3 IRadAn=         5 AccDes= 0.00D+00
 HarFok:  IExCor=  205 AccDes= 0.00D+00 IRadAn=         5 IDoV=-2 UseB2=F ITyADJ=14
 ICtDFT= 12500011 ScaDFX=  1.000000  1.000000  1.000000  1.000000
 GSVD:  LWork=       -9588 too small for GESVD, short by       45590 words or       45590 for optimal perf.
 Largest valence mixing into a core orbital is  2.03D-04
 Largest core mixing into a valence orbital is  5.22D-05
 Range of M.O.s used for correlation:    95  1572
 NBasis=  1572 NAE=   312 NBE=   312 NFC=    94 NFV=     0
 NROrb=   1478 NOA=   218 NOB=   218 NVA=  1260 NVB=  1260
 Leave Link  801 at Thu Sep  9 13:12:24 2021, MaxMem= 23488102400 cpu:               8.6 elap:               0.4
 (Enter /sw/apps/gaussian-16.0/g16/l914.exe)
 RHF ground state
 Two-electron integrals replicated using symmetry.
 MDV= 23488102400 DFT=T DoStab=F Mixed=T DoRPA=T DoScal=F NonHer=T
 Making orbital integer symmetry assigments:
 Orbital symmetries:
       Occupied  (A) (A) (A) (A) (A) (A) (A) (A) (A) (A) (A) (A)
                 (A) (A) (A) (A) (A) (A) (A) (A) (A) (A) (A) (A)
                 (A) (A) (A) (A) (A) (A) (A) (A) (A) (A) (A) (A)
                 (A) (A) (A) (A) (A) (A) (A) (A) (A) (A) (A) (A)
                 (A) (A) (A) (A) (A) (A) (A) (A) (A) (A) (A) (A)
                 (A) (A) (A) (A) (A) (A) (A) (A) (A) (A) (A) (A)
                 (A) (A) (A) (A) (A) (A) (A) (A) (A) (A) (A) (A)
                 (A) (A) (A) (A) (A) (A) (A) (A) (A) (A) (A) (A)
                 (A) (A) (A) (A) (A) (A) (A) (A) (A) (A) (A) (A)
                 (A) (A) (A) (A) (A) (A) (A) (A) (A) (A) (A) (A)
                 (A) (A) (A) (A) (A) (A) (A) (A) (A) (A) (A) (A)
                 (A) (A) (A) (A) (A) (A) (A) (A) (A) (A) (A) (A)
                 (A) (A) (A) (A) (A) (A) (A) (A) (A) (A) (A) (A)
                 (A) (A) (A) (A) (A) (A) (A) (A) (A) (A) (A) (A)
                 (A) (A) (A) (A) (A) (A) (A) (A) (A) (A) (A) (A)
                 (A) (A) (A) (A) (A) (A) (A) (A) (A) (A) (A) (A)
                 (A) (A) (A) (A) (A) (A) (A) (A) (A) (A) (A) (A)
                 (A) (A) (A) (A) (A) (A) (A) (A) (A) (A) (A) (A)
                 (A) (A) (A) (A) (A) (A) (A) (A) (A) (A) (A) (A)
                 (A) (A) (A) (A) (A) (A) (A) (A) (A) (A) (A) (A)
                 (A) (A) (A) (A) (A) (A) (A) (A) (A) (A) (A) (A)
                 (A) (A) (A) (A) (A) (A) (A) (A) (A) (A) (A) (A)
                 (A) (A) (A) (A) (A) (A) (A) (A) (A) (A) (A) (A)
                 (A) (A) (A) (A) (A) (A) (A) (A) (A) (A) (A) (A)
                 (A) (A) (A) (A) (A) (A) (A) (A) (A) (A) (A) (A)
                 (A) (A) (A) (A) (A) (A) (A) (A) (A) (A) (A) (A)
       Virtual   (A) (A) (A) (A) (A) (A) (A) (A) (A) (A) (A) (A)
                 (A) (A) (A) (A) (A) (A) (A) (A) (A) (A) (A) (A)
                 (A) (A) (A) (A) (A) (A) (A) (A) (A) (A) (A) (A)
                 (A) (A) (A) (A) (A) (A) (A) (A) (A) (A) (A) (A)
                 (A) (A) (A) (A) (A) (A) (A) (A) (A) (A) (A) (A)
                 (A) (A) (A) (A) (A) (A) (A) (A) (A) (A) (A) (A)
                 (A) (A) (A) (A) (A) (A) (A) (A) (A) (A) (A) (A)
                 (A) (A) (A) (A) (A) (A) (A) (A) (A) (A) (A) (A)
                 (A) (A) (A) (A) (A) (A) (A) (A) (A) (A) (A) (A)
                 (A) (A) (A) (A) (A) (A) (A) (A) (A) (A) (A) (A)
                 (A) (A) (A) (A) (A) (A) (A) (A) (A) (A) (A) (A)
                 (A) (A) (A) (A) (A) (A) (A) (A) (A) (A) (A) (A)
                 (A) (A) (A) (A) (A) (A) (A) (A) (A) (A) (A) (A)
                 (A) (A) (A) (A) (A) (A) (A) (A) (A) (A) (A) (A)
                 (A) (A) (A) (A) (A) (A) (A) (A) (A) (A) (A) (A)
                 (A) (A) (A) (A) (A) (A) (A) (A) (A) (A) (A) (A)
                 (A) (A) (A) (A) (A) (A) (A) (A) (A) (A) (A) (A)
                 (A) (A) (A) (A) (A) (A) (A) (A) (A) (A) (A) (A)
                 (A) (A) (A) (A) (A) (A) (A) (A) (A) (A) (A) (A)
                 (A) (A) (A) (A) (A) (A) (A) (A) (A) (A) (A) (A)
                 (A) (A) (A) (A) (A) (A) (A) (A) (A) (A) (A) (A)
                 (A) (A) (A) (A) (A) (A) (A) (A) (A) (A) (A) (A)
                 (A) (A) (A) (A) (A) (A) (A) (A) (A) (A) (A) (A)
                 (A) (A) (A) (A) (A) (A) (A) (A) (A) (A) (A) (A)
                 (A) (A) (A) (A) (A) (A) (A) (A) (A) (A) (A) (A)
                 (A) (A) (A) (A) (A) (A) (A) (A) (A) (A) (A) (A)
                 (A) (A) (A) (A) (A) (A) (A) (A) (A) (A) (A) (A)
                 (A) (A) (A) (A) (A) (A) (A) (A) (A) (A) (A) (A)
                 (A) (A) (A) (A) (A) (A) (A) (A) (A) (A) (A) (A)
                 (A) (A) (A) (A) (A) (A) (A) (A) (A) (A) (A) (A)
                 (A) (A) (A) (A) (A) (A) (A) (A) (A) (A) (A) (A)
                 (A) (A) (A) (A) (A) (A) (A) (A) (A) (A) (A) (A)
                 (A) (A) (A) (A) (A) (A) (A) (A) (A) (A) (A) (A)
                 (A) (A) (A) (A) (A) (A) (A) (A) (A) (A) (A) (A)
                 (A) (A) (A) (A) (A) (A) (A) (A) (A) (A) (A) (A)
                 (A) (A) (A) (A) (A) (A) (A) (A) (A) (A) (A) (A)
                 (A) (A) (A) (A) (A) (A) (A) (A) (A) (A) (A) (A)
                 (A) (A) (A) (A) (A) (A) (A) (A) (A) (A) (A) (A)
                 (A) (A) (A) (A) (A) (A) (A) (A) (A) (A) (A) (A)
                 (A) (A) (A) (A) (A) (A) (A) (A) (A) (A) (A) (A)
                 (A) (A) (A) (A) (A) (A) (A) (A) (A) (A) (A) (A)
                 (A) (A) (A) (A) (A) (A) (A) (A) (A) (A) (A) (A)
                 (A) (A) (A) (A) (A) (A) (A) (A) (A) (A) (A) (A)
                 (A) (A) (A) (A) (A) (A) (A) (A) (A) (A) (A) (A)
                 (A) (A) (A) (A) (A) (A) (A) (A) (A) (A) (A) (A)
                 (A) (A) (A) (A) (A) (A) (A) (A) (A) (A) (A) (A)
                 (A) (A) (A) (A) (A) (A) (A) (A) (A) (A) (A) (A)
                 (A) (A) (A) (A) (A) (A) (A) (A) (A) (A) (A) (A)
                 (A) (A) (A) (A) (A) (A) (A) (A) (A) (A) (A) (A)
                 (A) (A) (A) (A) (A) (A) (A) (A) (A) (A) (A) (A)
                 (A) (A) (A) (A) (A) (A) (A) (A) (A) (A) (A) (A)
                 (A) (A) (A) (A) (A) (A) (A) (A) (A) (A) (A) (A)
                 (A) (A) (A) (A) (A) (A) (A) (A) (A) (A) (A) (A)
                 (A) (A) (A) (A) (A) (A) (A) (A) (A) (A) (A) (A)
                 (A) (A) (A) (A) (A) (A) (A) (A) (A) (A) (A) (A)
                 (A) (A) (A) (A) (A) (A) (A) (A) (A) (A) (A) (A)
                 (A) (A) (A) (A) (A) (A) (A) (A) (A) (A) (A) (A)
                 (A) (A) (A) (A) (A) (A) (A) (A) (A) (A) (A) (A)
                 (A) (A) (A) (A) (A) (A) (A) (A) (A) (A) (A) (A)
                 (A) (A) (A) (A) (A) (A) (A) (A) (A) (A) (A) (A)
                 (A) (A) (A) (A) (A) (A) (A) (A) (A) (A) (A) (A)
                 (A) (A) (A) (A) (A) (A) (A) (A) (A) (A) (A) (A)
                 (A) (A) (A) (A) (A) (A) (A) (A) (A) (A) (A) (A)
                 (A) (A) (A) (A) (A) (A) (A) (A) (A) (A) (A) (A)
                 (A) (A) (A) (A) (A) (A) (A) (A) (A) (A) (A) (A)
                 (A) (A) (A) (A) (A) (A) (A) (A) (A) (A) (A) (A)
                 (A) (A) (A) (A) (A) (A) (A) (A) (A) (A) (A) (A)
                 (A) (A) (A) (A) (A) (A) (A) (A) (A) (A) (A) (A)
                 (A) (A) (A) (A) (A) (A) (A) (A) (A) (A) (A) (A)
                 (A) (A) (A) (A) (A) (A) (A) (A) (A) (A) (A) (A)
                 (A) (A) (A) (A) (A) (A) (A) (A) (A) (A) (A) (A)
                 (A) (A) (A) (A) (A) (A) (A) (A) (A) (A) (A) (A)
                 (A) (A) (A) (A) (A) (A) (A) (A) (A) (A) (A) (A)
                 (A) (A) (A) (A) (A) (A) (A) (A) (A) (A) (A) (A)
                 (A) (A) (A) (A) (A) (A) (A) (A) (A) (A) (A) (A)
                 (A) (A) (A) (A) (A) (A) (A) (A) (A) (A) (A) (A)
                 (A) (A) (A) (A) (A) (A) (A) (A) (A) (A) (A) (A)
                 (A) (A) (A) (A) (A) (A) (A) (A) (A) (A) (A) (A)
                 (A) (A) (A) (A) (A) (A) (A) (A) (A) (A) (A) (A)
                 (A) (A) (A) (A) (A) (A) (A) (A) (A) (A) (A) (A)
                 (A) (A) (A) (A) (A) (A) (A) (A) (A) (A) (A) (A)
                 (A) (A) (A) (A) (A) (A) (A) (A) (A) (A) (A) (A)
                 (A) (A) (A) (A) (A) (A) (A) (A) (A) (A) (A) (A)
                 (A) (A) (A) (A) (A) (A) (A) (A) (A) (A) (A) (A)
                 (A) (A) (A) (A) (A) (A) (A) (A) (A) (A) (A) (A)
                 (A) (A) (A) (A) (A) (A) (A) (A) (A) (A) (A) (A)
                 (A) (A) (A) (A) (A) (A) (A) (A) (A) (A) (A) (A)
                 (A) (A) (A) (A) (A) (A) (A) (A) (A) (A) (A) (A)
                 (A) (A) (A) (A) (A) (A) (A) (A) (A) (A) (A) (A)
                 (A) (A) (A) (A) (A) (A) (A) (A) (A) (A) (A) (A)
                 (A) (A) (A) (A) (A) (A) (A) (A) (A) (A) (A) (A)
                 (A) (A) (A) (A) (A) (A) (A) (A) (A) (A) (A) (A)
                 (A) (A) (A) (A) (A) (A) (A) (A) (A) (A) (A) (A)
                 (A) (A) (A) (A) (A) (A) (A) (A) (A) (A) (A) (A)
                 (A) (A) (A) (A) (A) (A) (A) (A) (A) (A) (A) (A)
                 (A) (A) (A) (A) (A) (A) (A) (A) (A) (A) (A) (A)
                 (A) (A) (A) (A) (A) (A) (A) (A) (A) (A) (A) (A)
                 (A) (A) (A) (A) (A) (A) (A) (A) (A) (A) (A) (A)
                 (A) (A) (A) (A) (A) (A) (A) (A) (A) (A) (A) (A)
                 (A) (A) (A) (A) (A) (A) (A) (A) (A) (A) (A) (A)
                 (A) (A) (A) (A) (A) (A) (A) (A) (A) (A) (A) (A)
                 (A) (A) (A) (A) (A) (A) (A) (A) (A) (A) (A) (A)
                 (A) (A) (A) (A) (A) (A) (A) (A) (A) (A) (A) (A)
                 (A) (A) (A) (A) (A) (A) (A) (A) (A) (A) (A) (A)
                 (A) (A) (A) (A) (A) (A) (A) (A) (A) (A) (A) (A)
    20 initial guesses have been made.
 Convergence on wavefunction:    0.001000000000000
 Davidson Disk Diagonalization:  ConvIn= 1.00D-03 SkipCon=T Conv= 1.00D-03.
 Max sub-space:  2000 roots to seek:    20 dimension of matrix:       549360
 Iteration     1 Dimension    20 NMult     0 NNew     20
 CISAX will form    20 AO SS matrices at one time.
 NMat=    20 NSing=    20 JSym2X= 0.
 FoFJK:  IHMeth= 1 ICntrl=       0 DoSepK=T KAlg= 0 I1Cent=           0 FoldK=F
 IRaf=         1 NMat=      40 IRICut=       1 DoRegI=T DoRafI=F ISym2E= 0 IDoP0=3 IntGTp=3.
 FoFCou: FMM=T IPFlag=           0 FMFlag=      100000 FMFlg1=        2001
         NFxFlg=           0 DoJE=F BraDBF=F KetDBF=F FulRan=T
         wScrn=  0.000000 ICntrl=       500 IOpCl=  0 I1Cent=           0 NGrid=           0
         NMat0=   20 NMatS0=     20 NMatT0=    0 NMatD0=   20 NMtDS0=    0 NMtDT0=    0
 Symmetry not used in FoFCou.
 FMM levels:  10  Number of levels for PrismC:   9
 New state      2 was old state      4
 New state      3 was old state      7
 New state      4 was old state      6
 New state      5 was old state      2
 Excitation Energies [eV] at current iteration:
 Root      1 :     2.338091570222390
 Root      2 :     2.540692493846180
 Root      3 :     2.605215644665047
 Root      4 :     2.619469526360374
 Root      5 :     2.663379856211347
 Root      6 :     2.713179419588318
 Root      7 :     3.122622556506563
 Root      8 :     3.335242602995143
 Root      9 :     3.634727933736877
 Root     10 :     3.676146766618287
 Root     11 :     3.731215086266811
 Root     12 :     3.758892422184497
 Root     13 :     4.242341952238958
 Root     14 :     4.286473488514687
 Root     15 :     4.322392688502830
 Root     16 :     4.467385470244300
 Root     17 :     4.573809195948963
 Root     18 :     4.607983850912225
 Root     19 :     4.726674623371008
 Root     20 :     4.855548159487341
 Iteration     2 Dimension    30 NMult    20 NNew     10
 CISAX will form    10 AO SS matrices at one time.
 NMat=    10 NSing=    10 JSym2X= 0.
 New state      1 was old state      5
 Root      1 not converged, maximum delta is    0.243651940802699
 New state      2 was old state      4
 Root      2 not converged, maximum delta is    0.124473605493776
 Root      3 not converged, maximum delta is    0.205144464568730
 New state      4 was old state      1
 Root      4 not converged, maximum delta is    0.003674221693609
 New state      5 was old state      2
 Root      5 not converged, maximum delta is    0.006230716629353
 Excitation Energies [eV] at current iteration:
 Root      1 :     1.786945491289267   Change is   -0.876434364922079
 Root      2 :     2.196022350967226   Change is   -0.423447175393148
 Root      3 :     2.239752031162998   Change is   -0.365463613502049
 Root      4 :     2.337265357525036   Change is   -0.000826212697354
 Root      5 :     2.539679204260816   Change is   -0.001013289585364
 Iteration     3 Dimension    40 NMult    30 NNew     10
 CISAX will form    10 AO SS matrices at one time.
 NMat=    10 NSing=    10 JSym2X= 0.
 Root      1 not converged, maximum delta is    0.054003572415032
 Root      2 not converged, maximum delta is    0.250200799552169
 Root      3 not converged, maximum delta is    0.041949667797003
 No map to state      4
 New state      5 was old state      4
 Root      5 not converged, maximum delta is    0.002108294012629
 Excitation Energies [eV] at current iteration:
 Root      1 :     1.681401335749904   Change is   -0.105544155539363
 Root      2 :     1.967344673367127   Change is   -0.228677677600099
 Root      3 :     2.200486981918209   Change is   -0.039265049244789
 Root      4 :     2.329285750949999
 Root      5 :     2.337259633998925   Change is   -0.000005723526111
 Iteration     4 Dimension    50 NMult    40 NNew     10
 CISAX will form    10 AO SS matrices at one time.
 NMat=    10 NSing=    10 JSym2X= 0.
 Root      1 not converged, maximum delta is    0.009953940556991
 Root      2 not converged, maximum delta is    0.270363201504171
 Root      3 not converged, maximum delta is    0.273817866455620
 Root      4 not converged, maximum delta is    0.248593349447663
 Root      5 not converged, maximum delta is    0.002049433822129
 Excitation Energies [eV] at current iteration:
 Root      1 :     1.664698825700444   Change is   -0.016702510049460
 Root      2 :     1.726878443647153   Change is   -0.240466229719974
 Root      3 :     2.193080730473694   Change is   -0.007406251444515
 Root      4 :     2.194949638969189   Change is   -0.134336111980810
 Root      5 :     2.337259399468212   Change is   -0.000000234530713
 Iteration     5 Dimension    60 NMult    50 NNew     10
 CISAX will form    10 AO SS matrices at one time.
 NMat=    10 NSing=    10 JSym2X= 0.
 Root      1 not converged, maximum delta is    0.002016397946669
 Root      2 not converged, maximum delta is    0.023592600312587
 New state      3 was old state      4
 Root      3 not converged, maximum delta is    0.334167869551623
 New state      4 was old state      3
 Root      4 not converged, maximum delta is    0.331825656571470
 Root      5 has converged.
 Excitation Energies [eV] at current iteration:
 Root      1 :     1.662958866720450   Change is   -0.001739958979994
 Root      2 :     1.692069749738416   Change is   -0.034808693908737
 Root      3 :     2.186956489920288   Change is   -0.007993149048901
 Root      4 :     2.192650594663012   Change is   -0.000430135810682
 Root      5 :     2.337259374465164   Change is   -0.000000025003048
 Iteration     6 Dimension    68 NMult    60 NNew      8
 CISAX will form     8 AO SS matrices at one time.
 NMat=     8 NSing=     8 JSym2X= 0.
 Root      1 not converged, maximum delta is    0.001017751901968
 Root      2 not converged, maximum delta is    0.005438873251471
 Root      3 not converged, maximum delta is    0.008800235538529
 Root      4 not converged, maximum delta is    0.008995823820605
 Root      5 has converged.
 Excitation Energies [eV] at current iteration:
 Root      1 :     1.662710821421398   Change is   -0.000248045299052
 Root      2 :     1.686704958401036   Change is   -0.005364791337380
 Root      3 :     2.185901522198408   Change is   -0.001054967721880
 Root      4 :     2.192519484859743   Change is   -0.000131109803269
 Root      5 :     2.337259373325712   Change is   -0.000000001139452
 Iteration     7 Dimension    76 NMult    68 NNew      8
 CISAX will form     8 AO SS matrices at one time.
 NMat=     8 NSing=     8 JSym2X= 0.
 Root      1 has converged.
 Root      2 not converged, maximum delta is    0.001700233416105
 Root      3 not converged, maximum delta is    0.001047225741713
 Root      4 not converged, maximum delta is    0.001089585688904
[...]
 Alpha virt. eigenvalues --    1.83684   1.83713   1.83960   1.84057   1.84359
 Alpha virt. eigenvalues --    1.84442   1.84663   1.84726   1.85001   1.85037
 Alpha virt. eigenvalues --    1.85194   1.85259   1.85405   1.85506   1.85654
 Alpha virt. eigenvalues --    1.85789   1.86091   1.86293   1.86483   1.86544
 Alpha virt. eigenvalues --    1.86705   1.86817   1.86943   1.86952   1.87176
 Alpha virt. eigenvalues --    1.87373   1.87577   1.87671   1.87797   1.87911
 Alpha virt. eigenvalues --    1.87972   1.88141   1.88362   1.88464   1.88746
 Alpha virt. eigenvalues --    1.88782   1.89077   1.89116   1.89254   1.89553
 Alpha virt. eigenvalues --    1.89661   1.89845   1.90028   1.90046   1.90384
 Alpha virt. eigenvalues --    1.90658   1.91056   1.91263   1.91379   1.91507
 Alpha virt. eigenvalues --    1.91839   1.92072   1.92387   1.92557   1.92835
 Alpha virt. eigenvalues --    1.92904   1.93277   1.93320   1.93624   1.94226
 Alpha virt. eigenvalues --    1.94424   1.94623   1.94948   1.95435   1.95633
 Alpha virt. eigenvalues --    1.95674   1.95900   1.95978   1.96105   1.96209
 Alpha virt. eigenvalues --    1.96346   1.96518   1.96644   1.96834   1.97137
 Alpha virt. eigenvalues --    1.97374   1.97660   1.97767   1.97955   1.98080
 Alpha virt. eigenvalues --    1.98353   1.98502   1.98545   1.99051   1.99239
 Alpha virt. eigenvalues --    1.99727   2.00176   2.00583   2.00873   2.00919
 Alpha virt. eigenvalues --    2.01268   2.01379   2.01597   2.01612   2.01620
 Alpha virt. eigenvalues --    2.01791   2.02010   2.02708   2.02866   2.03185
 Alpha virt. eigenvalues --    2.03238   2.03294   2.03376   2.03561   2.03692
 Alpha virt. eigenvalues --    2.03951   2.04188   2.04881   2.05142   2.05435
 Alpha virt. eigenvalues --    2.05786   2.05986   2.06437   2.06770   2.07082
 Alpha virt. eigenvalues --    2.07197   2.07510   2.08513   2.08674   2.08890
 Alpha virt. eigenvalues --    2.09201   2.09491   2.09794   2.10738   2.11084
 Alpha virt. eigenvalues --    2.11129   2.11460   2.11580   2.11642   2.11711
 Alpha virt. eigenvalues --    2.12099   2.12381   2.12648   2.12725   2.12750
 Alpha virt. eigenvalues --    2.12987   2.13062   2.13690   2.13888   2.14085
 Alpha virt. eigenvalues --    2.14334   2.15248   2.15559   2.15827   2.16278
 Alpha virt. eigenvalues --    2.16447   2.16635   2.16782   2.17337   2.17348
 Alpha virt. eigenvalues --    2.17631   2.17744   2.17990   2.18099   2.18177
 Alpha virt. eigenvalues --    2.18218   2.18764   2.18844   2.19423   2.19545
 Alpha virt. eigenvalues --    2.19951   2.20041   2.20096   2.20408   2.20651
 Alpha virt. eigenvalues --    2.21109   2.21260   2.21572   2.21613   2.21942
 Alpha virt. eigenvalues --    2.22023   2.22606   2.22912   2.23234   2.23472
 Alpha virt. eigenvalues --    2.24308   2.24541   2.24921   2.25133   2.26184
 Alpha virt. eigenvalues --    2.26619   2.26703   2.26988   2.27164   2.27380
 Alpha virt. eigenvalues --    2.28058   2.28551   2.29191   2.29632   2.29638
 Alpha virt. eigenvalues --    2.30073   2.30368   2.30806   2.30975   2.31003
 Alpha virt. eigenvalues --    2.31061   2.31347   2.32055   2.32375   2.33035
 Alpha virt. eigenvalues --    2.33373   2.33438   2.33605   2.34090   2.34270
 Alpha virt. eigenvalues --    2.35240   2.35435   2.35708   2.36148   2.36303
 Alpha virt. eigenvalues --    2.36517   2.36525   2.36559   2.37593   2.37795
 Alpha virt. eigenvalues --    2.38183   2.38525   2.38771   2.39010   2.39518
 Alpha virt. eigenvalues --    2.39835   2.40132   2.40358   2.40395   2.41032
 Alpha virt. eigenvalues --    2.41193   2.41401   2.41635   2.41825   2.41909
 Alpha virt. eigenvalues --    2.42285   2.42898   2.42917   2.43162   2.43346
 Alpha virt. eigenvalues --    2.44062   2.44148   2.44636   2.44818   2.44978
 Alpha virt. eigenvalues --    2.45172   2.45447   2.45744   2.46202   2.46368
 Alpha virt. eigenvalues --    2.46465   2.46666   2.46686   2.46971   2.47156
 Alpha virt. eigenvalues --    2.47493   2.47632   2.48016   2.49245   2.49507
 Alpha virt. eigenvalues --    2.49998   2.50016   2.50494   2.50629   2.51018
 Alpha virt. eigenvalues --    2.51438   2.51788   2.51795   2.52349   2.52559
 Alpha virt. eigenvalues --    2.52723   2.53380   2.53841   2.54067   2.54124
 Alpha virt. eigenvalues --    2.54389   2.54697   2.54925   2.55426   2.55804
 Alpha virt. eigenvalues --    2.57776   2.58239   2.58575   2.59067   2.60083
 Alpha virt. eigenvalues --    2.60471   2.60537   2.61133   2.61631   2.61982
 Alpha virt. eigenvalues --    2.62451   2.62597   2.62860   2.63272   2.63851
 Alpha virt. eigenvalues --    2.64205   2.64427   2.64484   2.65001   2.65237
 Alpha virt. eigenvalues --    2.65703   2.66046   2.66715   2.66837   2.66946
 Alpha virt. eigenvalues --    2.67259   2.67831   2.68135   2.68763   2.68910
 Alpha virt. eigenvalues --    2.68960   2.69183   2.69328   2.69759   2.69918
 Alpha virt. eigenvalues --    2.70276   2.70885   2.71232   2.71927   2.72021
 Alpha virt. eigenvalues --    2.72519   2.72611   2.72668   2.72902   2.73224
 Alpha virt. eigenvalues --    2.73328   2.73384   2.73571   2.74402   2.74642
 Alpha virt. eigenvalues --    2.74865   2.75207   2.76513   2.76643   2.77104
 Alpha virt. eigenvalues --    2.77207   2.77367   2.77765   2.78106   2.78425
 Alpha virt. eigenvalues --    2.78611   2.78805   2.79040   2.79311   2.80227
 Alpha virt. eigenvalues --    2.80417   2.80453   2.80835   2.80969   2.81291
 Alpha virt. eigenvalues --    2.81823   2.82138   2.82254   2.82464   2.83606
 Alpha virt. eigenvalues --    2.83673   2.83998   2.84025   2.84440   2.84651
 Alpha virt. eigenvalues --    2.84808   2.84970   2.85583   2.85808   2.86749
 Alpha virt. eigenvalues --    2.86881   2.87277   2.87450   2.88061   2.88373
 Alpha virt. eigenvalues --    2.88407   2.88745   2.88835   2.88996   2.90423
 Alpha virt. eigenvalues --    2.90800   2.91129   2.91180   2.93060   2.93491
 Alpha virt. eigenvalues --    2.93916   2.94124   2.94492   2.94665   2.95293
 Alpha virt. eigenvalues --    2.95663   2.95935   2.96032   2.96359   2.96482
 Alpha virt. eigenvalues --    2.96959   2.97036   2.97704   2.98109   2.98160
 Alpha virt. eigenvalues --    2.98253   2.98470   2.98520   2.98745   2.98793
 Alpha virt. eigenvalues --    2.98953   2.99064   2.99529   2.99883   2.99905
 Alpha virt. eigenvalues --    3.00089   3.00175   3.00358   3.00508   3.01175
 Alpha virt. eigenvalues --    3.01932   3.01935   3.02027   3.02292   3.02566
 Alpha virt. eigenvalues --    3.02889   3.02937   3.03252   3.03506   3.03897
 Alpha virt. eigenvalues --    3.04125   3.04221   3.04315   3.04476   3.04595
 Alpha virt. eigenvalues --    3.04865   3.05250   3.05481   3.06045   3.06251
 Alpha virt. eigenvalues --    3.06731   3.07111   3.08060   3.08082   3.09328
 Alpha virt. eigenvalues --    3.09421   3.09631   3.10370   3.10620   3.10932
 Alpha virt. eigenvalues --    3.11294   3.11499   3.11845   3.11930   3.12159
 Alpha virt. eigenvalues --    3.12473   3.13194   3.13573   3.13785   3.13823
 Alpha virt. eigenvalues --    3.13914   3.14567   3.15889   3.16030   3.17140
 Alpha virt. eigenvalues --    3.17651   3.17977   3.18003   3.19036   3.19159
 Alpha virt. eigenvalues --    3.22103   3.22696   3.23830   3.24509   3.24576
 Alpha virt. eigenvalues --    3.25310   3.26394   3.26800   3.27514   3.27535
 Alpha virt. eigenvalues --    3.28885   3.29311   3.31412   3.31519   3.33321
 Alpha virt. eigenvalues --    3.33331   3.40331   3.40403   3.42729   3.42943
 Alpha virt. eigenvalues --    3.48521   3.48825   3.49929   3.50438   3.50991
 Alpha virt. eigenvalues --    3.51381   3.56454   3.57135   3.59018   3.59456
 Alpha virt. eigenvalues --    3.62643   3.62713   3.66104   3.66211   3.66971
 Alpha virt. eigenvalues --    3.67622   3.73060   3.74111   3.75857   3.76776
          Condensed to atoms (all electrons):
 Mulliken charges:
               1
     1  Mg   0.839013
     2  C   -0.003395
     3  C   -0.093872
     4  C   -0.045512
     5  C   -0.064179
     6  N   -0.256948
     7  C   -0.052254
     8  C   -0.014201
     9  C   -0.087134
    10  C    0.046714
    11  C    0.104725
    12  C    0.053390
    13  C   -0.071953
    14  H    0.036056
    15  N   -0.433265
    16  C    0.168833
    17  C   -0.176998
    18  C   -0.003741
    19  C    0.149128
    20  C    0.110135
    21  C    0.012365
    22  O   -0.248782
    23  C    0.062534
    24  N   -0.341243
    25  C    0.041559
    26  C   -0.028477
    27  C   -0.024021
    28  C    0.074937
    29  C    0.076005
    30  C    0.034979
    31  C   -0.004834
    32  N   -0.310095
    33  C    0.079849
    34  C   -0.171180
    35  C    0.007645
    36  C    0.082245
    37  C    0.127718
    38  C    0.044689
    39  O   -0.189758
    40  C   -0.004877
    41  C    0.212982
    42  O   -0.259389
    43  O   -0.304082
    44  C    0.158344
    45  H   -0.017216
    46  H   -0.016149
    47  H   -0.041658
    48  H    0.000766
    49  H   -0.003511
    50  H    0.025440
    51  H    0.016560
    52  H    0.017042
    53  H    0.012250
    54  H    0.043189
    55  H    0.017724
    56  H    0.018933
    57  H    0.006330
    58  H    0.027248
    59  H    0.039507
    60  H    0.037698
    61  H    0.035944
    62  H    0.030723
    63  H    0.017582
    64  H    0.009586
    65  H    0.024033
    66  H    0.012372
    67  H    0.004967
    68  H    0.007967
    69  H    0.004049
    70  H    0.010973
    71  H    0.017902
    72  H    0.027706
    73  H    0.045535
    74  H    0.009099
    75  H    0.046488
    76  H    0.035559
    77  H    0.043037
    78  H    0.047376
    79  H    0.051289
    80  Mg   0.837491
    81  C   -0.016727
    82  C   -0.085947
    83  C   -0.045879
    84  C   -0.065015
    85  N   -0.254657
    86  C   -0.049838
    87  C   -0.015078
    88  C   -0.090192
    89  C    0.044428
    90  C    0.113181
    91  C    0.062479
    92  C   -0.077542
    93  H    0.033700
    94  N   -0.423875
    95  C    0.162147
    96  C   -0.171374
    97  C   -0.008582
    98  C    0.153085
    99  C    0.098760
   100  C    0.015439
   101  O   -0.254583
   102  C    0.061251
   103  N   -0.350058
   104  C    0.037499
   105  C   -0.019583
   106  C   -0.034595
   107  C    0.088572
   108  C    0.074461
   109  C    0.034988
   110  C   -0.007528
   111  N   -0.323959
   112  C    0.077874
   113  C   -0.163319
   114  C    0.002006
   115  C    0.095908
   116  C    0.131547
   117  C    0.041965
   118  O   -0.189062
   119  C    0.001040
   120  C    0.211349
   121  O   -0.251099
   122  O   -0.305896
   123  C    0.152144
   124  H   -0.013503
   125  H   -0.016831
   126  H   -0.041145
   127  H   -0.001707
   128  H   -0.003664
   129  H    0.019771
   130  H    0.019202
   131  H    0.020165
   132  H    0.013944
   133  H    0.036979
   134  H    0.020640
   135  H    0.020231
   136  H    0.011615
   137  H    0.028622
   138  H    0.038480
   139  H    0.038754
   140  H    0.035156
   141  H    0.033925
   142  H    0.013924
   143  H    0.011276
   144  H    0.023729
   145  H    0.011706
   146  H    0.003230
   147  H    0.004995
   148  H    0.003517
   149  H    0.010513
   150  H    0.017566
   151  H    0.030811
   152  H    0.045245
   153  H    0.007912
   154  H    0.047627
   155  H    0.034064
   156  H    0.043170
   157  H    0.049749
   158  H    0.053410
 Sum of Mulliken charges =  -0.00000
 Mulliken charges with hydrogens summed into heavy atoms:
               1
     1  Mg   0.839013
     2  C   -0.003395
     3  C   -0.111088
     4  C   -0.061660
     5  C   -0.105837
     6  N   -0.256948
     7  C   -0.052254
     8  C   -0.013436
     9  C   -0.090645
    10  C    0.046714
    11  C    0.163768
    12  C    0.108830
    13  C    0.000760
    15  N   -0.433265
    16  C    0.168833
    17  C   -0.176998
    18  C   -0.003741
    19  C    0.149128
    20  C    0.183220
    21  C    0.012365
    22  O   -0.248782
    23  C    0.166900
    24  N   -0.341243
    25  C    0.041559
    26  C   -0.010895
    27  C   -0.014435
    28  C    0.074937
    29  C    0.117376
    30  C    0.046996
    31  C    0.051747
    32  N   -0.310095
    33  C    0.079849
    34  C   -0.171180
    35  C    0.007645
    36  C    0.082245
    37  C    0.228841
    38  C    0.044689
    39  O   -0.189758
    40  C    0.030681
    41  C    0.212982
    42  O   -0.259389
    43  O   -0.304082
    44  C    0.300045
    80  Mg   0.837491
    81  C   -0.016727
    82  C   -0.099449
    83  C   -0.062710
    84  C   -0.106160
    85  N   -0.254657
    86  C   -0.049838
    87  C   -0.016786
    88  C   -0.093856
    89  C    0.044428
    90  C    0.172319
    91  C    0.113402
    92  C   -0.002971
    94  N   -0.423875
    95  C    0.162147
    96  C   -0.171374
    97  C   -0.008582
    98  C    0.153085
    99  C    0.177478
   100  C    0.015439
   101  O   -0.254583
   102  C    0.169086
   103  N   -0.350058
   104  C    0.037499
   105  C   -0.005659
   106  C   -0.023319
   107  C    0.088572
   108  C    0.113126
   109  C    0.043500
   110  C    0.051362
   111  N   -0.323959
   112  C    0.077874
   113  C   -0.163319
   114  C    0.002006
   115  C    0.095908
   116  C    0.232330
   117  C    0.041965
   118  O   -0.189062
   119  C    0.035104
   120  C    0.211349
   121  O   -0.251099
   122  O   -0.305896
   123  C    0.298474
 Electronic spatial extent (au):  <R**2>=          98242.9455
 Charge=             -0.0000 electrons
 Dipole moment (field-independent basis, Debye):
    X=              5.3677    Y=              2.7271    Z=              1.3326  Tot=              6.1665
 Quadrupole moment (field-independent basis, Debye-Ang):
   XX=           -521.8977   YY=           -517.5233   ZZ=           -480.4913
   XY=            -11.1284   XZ=             34.8213   YZ=             10.7123
 Traceless Quadrupole moment (field-independent basis, Debye-Ang):
   XX=            -15.2603   YY=            -10.8859   ZZ=             26.1462
   XY=            -11.1284   XZ=             34.8213   YZ=             10.7123
 Octapole moment (field-independent basis, Debye-Ang**2):
  XXX=            446.3684  YYY=            200.7348  ZZZ=            191.5094  XYY=            173.8164
  XXY=            197.4428  XXZ=            112.1845  XZZ=           -208.2296  YZZ=           -110.5893
  YYZ=           -318.8667  XYZ=            120.9260
 Hexadecapole moment (field-independent basis, Debye-Ang**3):
 XXXX=         -69464.9774 YYYY=         -34942.4133 ZZZZ=         -29349.5130 XXXY=            -32.0606
 XXXZ=           1294.6978 YYYX=            320.5319 YYYZ=           -656.1106 ZZZX=           1344.4883
 ZZZY=            562.3083 XXYY=         -17442.1342 XXZZ=         -15258.6150 YYZZ=         -11264.7724
 XXYZ=            502.2199 YYXZ=            120.4129 ZZXY=            353.4929
 N-N= 1.547901763193D+04 E-N=-4.043910300332D+04  KE= 4.028800975042D+03
 Leave Link  601 at Thu Sep  9 13:40:56 2021, MaxMem= 23488102400 cpu:              15.5 elap:               0.8
 (Enter /sw/apps/gaussian-16.0/g16/l9999.exe)
 1\1\GINC-BP1-COMPUTE00108\SP\RCAM-B3LYP TD-FC\def2SVP\C68H72Mg2N8O8\OF
 15641\09-Sep-2021\0\\#p cam-b3lyp/Def2SVP td=(nstates=5)\\TDDFT excite
 d states in gaussian\\0,1\Mg,0,0.,0.,0.\C,0,-0.217,-2.218,2.801\C,0,-1
 .255,2.442,2.026\C,0,-0.245,1.85,-2.564\C,0,0.146,-2.824,-2.037\N,0,-0
 .617,-0.009,2.126\C,0,-0.594,-0.908,3.105\C,0,-0.936,-0.309,4.502\C,0,
 -1.773,0.964,4.032\C,0,-1.155,1.168,2.66\C,0,-3.263,0.685,3.863\C,0,0.
 345,0.11,5.299\C,0,0.124,0.397,6.787\H,0,1.168,0.033,7.733\N,0,-0.185,
 1.961,-0.152\C,0,-0.703,2.8,0.777\C,0,-0.62,4.156,0.193\C,0,-0.187,4.0
 15,-1.225\C,0,-0.214,2.583,-1.38\C,0,-0.887,5.406,0.974\C,0,0.181,5.01
 3,-2.277\O,0,0.303,4.69,-3.508\C,0,0.31,6.414,-1.837\N,0,-0.265,-0.413
 ,-2.029\C,0,-0.279,0.569,-2.937\C,0,-0.196,0.024,-4.332\C,0,0.124,-1.5
 33,-4.18\C,0,0.086,-1.632,-2.635\C,0,-1.451,0.205,-5.197\C,0,1.373,-2.
 07,-4.923\C,0,2.626,-1.49,-4.306\N,0,0.15,-2.144,0.303\C,0,0.173,-3.13
 6,-0.688\C,0,0.173,-4.438,0.004\C,0,0.133,-4.111,1.358\C,0,0.083,-2.69
 5,1.502\C,0,0.149,-5.715,-0.623\C,0,0.096,-4.629,2.716\O,0,0.208,-5.74
 7,3.221\C,0,-0.255,-3.428,3.701\C,0,0.717,-3.482,4.848\O,0,1.931,-3.25
 5,4.669\O,0,0.038,-3.556,6.003\C,0,0.943,-3.583,7.183\H,0,-1.859,3.22,
 2.497\H,0,-0.218,2.453,-3.474\H,0,0.276,-3.747,-2.605\H,0,-1.554,-0.94
 9,5.132\H,0,-1.585,1.831,4.665\H,0,-3.484,-0.377,3.969\H,0,-3.511,1.02
 7,2.858\H,0,-3.852,1.301,4.543\H,0,0.669,1.096,4.966\H,0,1.13,-0.639,5
 .189\H,0,-0.844,0.026,7.125\H,0,0.062,1.477,6.921\H,0,-1.344,5.186,1.9
 38\H,0,-1.651,5.963,0.432\H,0,0.007,6.02,1.084\H,0,-0.635,6.744,-1.405
 \H,0,0.665,6.97,-2.704\H,0,1.048,6.466,-1.036\H,0,0.608,0.501,-4.891\H
 ,0,-0.692,-2.156,-4.547\H,0,-1.267,0.74,-6.129\H,0,-2.204,0.714,-4.596
 \H,0,-1.967,-0.72,-5.453\H,0,1.356,-1.759,-5.967\H,0,1.452,-3.157,-4.9
 02\H,0,2.714,-0.522,-4.798\H,0,3.487,-2.121,-4.529\H,0,2.495,-1.303,-3
 .24\H,0,0.867,-6.333,-0.084\H,0,0.404,-5.642,-1.68\H,0,-0.891,-5.999,-
 0.463\H,0,-1.283,-3.581,4.028\H,0,0.698,-4.478,7.755\H,0,0.833,-2.619,
 7.68\H,0,2.,-3.754,6.976\Mg,0,8.94199,0.79741,0.68073\C,0,9.12979,-0.9
 5776,-2.44388\C,0,8.21684,-2.1955,2.14743\C,0,8.32718,2.37434,3.36452\
 C,0,8.54762,3.73522,-1.15215\N,0,8.72955,-1.24285,-0.14658\C,0,8.88415
 ,-1.799,-1.3387\C,0,8.84874,-3.35086,-1.33393\C,0,8.001,-3.56792,0.012
 58\C,0,8.36056,-2.2735,0.73912\C,0,6.49905,-3.58485,-0.21801\C,0,10.28
 109,-3.98107,-1.2188\C,0,10.35002,-5.48022,-1.51803\H,0,11.53708,-6.00
 206,-2.18964\N,0,8.84143,0.15254,2.55492\C,0,8.55728,-1.09959,2.97049\
 C,0,8.58699,-1.05207,4.44053\C,0,8.74938,0.36628,4.86081\C,0,8.62196,1
 .03633,3.58218\C,0,8.54673,-2.28528,5.29552\C,0,8.96863,1.01354,6.1946
 7\O,0,8.84325,2.27863,6.35797\C,0,9.24272,0.11239,7.32352\N,0,8.29037,
 2.73491,1.05997\C,0,8.15446,3.18442,2.31989\C,0,7.94302,4.67941,2.3458
 4\C,0,8.20769,5.1768,0.84913\C,0,8.44966,3.81194,0.16796\C,0,6.56103,5
 .14801,2.8007\C,0,9.26636,6.29699,0.65661\C,0,10.64242,5.77028,0.99491
 \N,0,9.03478,1.35376,-1.40492\C,0,8.81273,2.63447,-1.95679\C,0,8.87253
 ,2.49179,-3.42597\C,0,9.10418,1.12301,-3.62908\C,0,9.16307,0.45609,-2.
 37558\C,0,8.67398,3.53665,-4.372\C,0,9.30171,0.0889,-4.61918\O,0,9.438
 4,0.07154,-5.84178\C,0,9.20108,-1.32503,-3.90012\C,0,10.36522,-2.16163
 ,-4.35552\O,0,11.52927,-1.83957,-4.05911\O,0,9.90337,-3.3132,-4.87606\
 C,0,11.02128,-4.1817,-5.33189\H,0,7.76102,-3.03705,2.66983\H,0,8.21597
 ,2.98495,4.26355\H,0,8.53212,4.62076,-1.7911\H,0,8.331,-3.79601,-2.175
 1\H,0,8.35856,-4.4299,0.56981\H,0,6.24481,-3.32921,-1.23593\H,0,6.0877
 4,-2.85684,0.46892\H,0,6.08254,-4.55083,0.08157\H,0,10.58656,-3.98566,
 -0.16456\H,0,10.97952,-3.45591,-1.84091\H,0,9.43938,-5.84492,-2.00861\
 H,0,10.37911,-6.02238,-0.56976\H,0,8.25966,-3.1694,4.71301\H,0,7.72685
 ,-2.15259,6.0097\H,0,9.47481,-2.44488,5.84856\H,0,8.41578,-0.58433,7.4
 3845\H,0,9.45973,0.76436,8.17188\H,0,10.12853,-0.48705,7.08556\H,0,8.6
 5457,5.1592,3.0066\H,0,7.29989,5.59886,0.3935\H,0,6.59648,5.83581,3.66
 657\H,0,5.96393,4.27593,3.03199\H,0,5.96461,5.63963,2.03402\H,0,9.0725
 9,7.12351,1.34471\H,0,9.28088,6.70978,-0.34657\H,0,10.68326,5.86812,2.
 08387\H,0,11.4116,6.37234,0.5154\H,0,10.7251,4.70353,0.75645\H,0,9.437
 95,3.4204,-5.12918\H,0,8.72658,4.51557,-3.90006\H,0,7.66314,3.29997,-4
 .71471\H,0,8.24443,-1.76768,-4.18026\H,0,10.83646,-4.41382,-6.38529\H,
 0,11.04576,-5.03258,-4.62538\H,0,12.00991,-3.7407,-5.38281\\Version=ES
 64L-G16RevA.03\State=1-A\HF=-4069.8125251\RMSD=5.075e-09\PG=C01 [X(C68
 H72Mg2N8O8)]\\@


 THERE'S NOTHING WRONG WITH FOLLOWING A TRAIN OF THOUGHT...
 AS LONG AS IT ULTIMATELY PULLS INTO THE STATION.
 Job cpu time:       0 days 15 hours 38 minutes 43.0 seconds.
 Elapsed time:       0 days  0 hours 39 minutes 46.3 seconds.
 File lengths (MBytes):  RWF=  13225 Int=      0 D2E=      0 Chk=    574 Scr=      1
 Normal termination of Gaussian 16 at Thu Sep  9 13:40:57 2021.
