 Entering Gaussian System, Link 0=g16
 Initial command:
 /sw/apps/gaussian-16.0/g16/l1.exe "/tmp/Gau-79799.inp" -scrdir="/tmp/"
 Entering Link 1 = /sw/apps/gaussian-16.0/g16/l1.exe PID=     79800.
  
 Copyright (c) 1988,1990,1992,1993,1995,1998,2003,2009,2016,
            Gaussian, Inc.  All Rights Reserved.
  
 This is part of the Gaussian(R) 16 program.  It is based on
 the Gaussian(R) 09 system (copyright 2009, Gaussian, Inc.),
 the Gaussian(R) 03 system (copyright 2003, Gaussian, Inc.),
 the Gaussian(R) 98 system (copyright 1998, Gaussian, Inc.),
 the Gaussian(R) 94 system (copyright 1995, Gaussian, Inc.),
 the Gaussian 92(TM) system (copyright 1992, Gaussian, Inc.),
 the Gaussian 90(TM) system (copyright 1990, Gaussian, Inc.),
 the Gaussian 88(TM) system (copyright 1988, Gaussian, Inc.),
 the Gaussian 86(TM) system (copyright 1986, Carnegie Mellon
 University), and the Gaussian 82(TM) system (copyright 1983,
 Carnegie Mellon University). Gaussian is a federally registered
 trademark of Gaussian, Inc.
  
 This software contains proprietary and confidential information,
 including trade secrets, belonging to Gaussian, Inc.
  
 This software is provided under written license and may be
 used, copied, transmitted, or stored only in accord with that
 written license.
  
 The following legend is applicable only to US Government
 contracts under FAR:
  
                    RESTRICTED RIGHTS LEGEND
  
 Use, reproduction and disclosure by the US Government is
 subject to restrictions as set forth in subparagraphs (a)
 and (c) of the Commercial Computer Software - Restricted
 Rights clause in FAR 52.227-19.
  
 Gaussian, Inc.
 340 Quinnipiac St., Bldg. 40, Wallingford CT 06492
  
  
 ---------------------------------------------------------------
 Warning -- This program may not be used in any manner that
 competes with the business of Gaussian, Inc. or will provide
 assistance to any competitor of Gaussian, Inc.  The licensee
 of this program is prohibited from giving any competitor of
 Gaussian, Inc. access to this program.  By using this program,
 the user acknowledges that Gaussian, Inc. is engaged in the
 business of creating and licensing software in the field of
 computational chemistry and represents and warrants to the
 licensee that it is not a competitor of Gaussian, Inc. and that
 it will not use this program in any manner prohibited above.
 ---------------------------------------------------------------
  

 Cite this work as:
 Gaussian 16, Revision A.03,
 M. J. Frisch, G. W. Trucks, H. B. Schlegel, G. E. Scuseria, 
 M. A. Robb, J. R. Cheeseman, G. Scalmani, V. Barone, 
 G. A. Petersson, H. Nakatsuji, X. Li, M. Caricato, A. V. Marenich, 
 J. Bloino, B. G. Janesko, R. Gomperts, B. Mennucci, H. P. Hratchian, 
 J. V. Ortiz, A. F. Izmaylov, J. L. Sonnenberg, D. Williams-Young, 
 F. Ding, F. Lipparini, F. Egidi, J. Goings, B. Peng, A. Petrone, 
 T. Henderson, D. Ranasinghe, V. G. Zakrzewski, J. Gao, N. Rega, 
 G. Zheng, W. Liang, M. Hada, M. Ehara, K. Toyota, R. Fukuda, 
 J. Hasegawa, M. Ishida, T. Nakajima, Y. Honda, O. Kitao, H. Nakai, 
 T. Vreven, K. Throssell, J. A. Montgomery, Jr., J. E. Peralta, 
 F. Ogliaro, M. J. Bearpark, J. J. Heyd, E. N. Brothers, K. N. Kudin, 
 V. N. Staroverov, T. A. Keith, R. Kobayashi, J. Normand, 
 K. Raghavachari, A. P. Rendell, J. C. Burant, S. S. Iyengar, 
 J. Tomasi, M. Cossi, J. M. Millam, M. Klene, C. Adamo, R. Cammi, 
 J. W. Ochterski, R. L. Martin, K. Morokuma, O. Farkas, 
 J. B. Foresman, and D. J. Fox, Gaussian, Inc., Wallingford CT, 2016.
 
 ******************************************
 Gaussian 16:  ES64L-G16RevA.03 25-Dec-2016
                11-Sep-2021 
 ******************************************
 %nproc=24
 Will use up to   24 processors via shared memory.
 %mem=175gb
 -----------------------------------
 #p cam-b3lyp/Def2SVP td=(nstates=5)
 -----------------------------------
 1/38=1,172=1/1;
 2/12=2,17=6,18=5,40=1/2;
 3/5=43,7=101,11=9,25=1,30=1,74=-40/1,2,3,8;
 4//1;
 5/5=2,38=5/2;
 8/6=1,10=1,108=5/1;
 9/41=5,42=1,70=2/14;
 6/7=2,8=2,9=2,10=2/1;
 99/5=1,9=1/99;
 Leave Link    1 at Sat Sep 11 02:40:42 2021, MaxMem= 23488102400 cpu:               0.9 elap:               0.0
 (Enter /sw/apps/gaussian-16.0/g16/l101.exe)
 --------------------------------
 TDDFT excited states in gaussian
 --------------------------------
 Symbolic Z-matrix:
 Charge =  0 Multiplicity = 1
 Mg                    0.        0.        0. 
 C                    -0.217    -2.218     2.801 
 C                    -1.255     2.442     2.026 
 C                    -0.245     1.85     -2.564 
 C                     0.146    -2.824    -2.037 
 N                    -0.617    -0.009     2.126 
 C                    -0.594    -0.908     3.105 
 C                    -0.936    -0.309     4.502 
 C                    -1.773     0.964     4.032 
 C                    -1.155     1.168     2.66 
 C                    -3.263     0.685     3.863 
 C                     0.345     0.11      5.299 
 C                     0.124     0.397     6.787 
 H                     1.168     0.033     7.733 
 N                    -0.185     1.961    -0.152 
 C                    -0.703     2.8       0.777 
 C                    -0.62      4.156     0.193 
 C                    -0.187     4.015    -1.225 
 C                    -0.214     2.583    -1.38 
 C                    -0.887     5.406     0.974 
 C                     0.181     5.013    -2.277 
 O                     0.303     4.69     -3.508 
 C                     0.31      6.414    -1.837 
 N                    -0.265    -0.413    -2.029 
 C                    -0.279     0.569    -2.937 
 C                    -0.196     0.024    -4.332 
 C                     0.124    -1.533    -4.18 
 C                     0.086    -1.632    -2.635 
 C                    -1.451     0.205    -5.197 
 C                     1.373    -2.07     -4.923 
 C                     2.626    -1.49     -4.306 
 N                     0.15     -2.144     0.303 
 C                     0.173    -3.136    -0.688 
 C                     0.173    -4.438     0.004 
 C                     0.133    -4.111     1.358 
 C                     0.083    -2.695     1.502 
 C                     0.149    -5.715    -0.623 
 C                     0.096    -4.629     2.716 
 O                     0.208    -5.747     3.221 
 C                    -0.255    -3.428     3.701 
 C                     0.717    -3.482     4.848 
 O                     1.931    -3.255     4.669 
 O                     0.038    -3.556     6.003 
 C                     0.943    -3.583     7.183 
 H                    -1.859     3.22      2.497 
 H                    -0.218     2.453    -3.474 
 H                     0.276    -3.747    -2.605 
 H                    -1.554    -0.949     5.132 
 H                    -1.585     1.831     4.665 
 H                    -3.484    -0.377     3.969 
 H                    -3.511     1.027     2.858 
 H                    -3.852     1.301     4.543 
 H                     0.669     1.096     4.966 
 H                     1.13     -0.639     5.189 
 H                    -0.844     0.026     7.125 
 H                     0.062     1.477     6.921 
 H                    -1.344     5.186     1.938 
 H                    -1.651     5.963     0.432 
 H                     0.007     6.02      1.084 
 H                    -0.635     6.744    -1.405 
 H                     0.665     6.97     -2.704 
 H                     1.048     6.466    -1.036 
 H                     0.608     0.501    -4.891 
 H                    -0.692    -2.156    -4.547 
 H                    -1.267     0.74     -6.129 
 H                    -2.204     0.714    -4.596 
 H                    -1.967    -0.72     -5.453 
 H                     1.356    -1.759    -5.967 
 H                     1.452    -3.157    -4.902 
 H                     2.714    -0.522    -4.798 
 H                     3.487    -2.121    -4.529 
 H                     2.495    -1.303    -3.24 
 H                     0.867    -6.333    -0.084 
 H                     0.404    -5.642    -1.68 
 H                    -0.891    -5.999    -0.463 
 H                    -1.283    -3.581     4.028 
 H                     0.698    -4.478     7.755 
 H                     0.833    -2.619     7.68 
 H                     2.       -3.754     6.976 
 Mg                    13.14418   1.18598   0.98963 
 C                     15.91695  -1.08776   1.13413 
 C                     15.40211   3.72412   1.29655 
 C                     10.7025   3.18545   1.31796 
 C                     11.08233  -1.49294   1.8369 
 N                     15.34765   1.19099   1.18181 
 C                     16.29905   0.26968   1.16259 
 C                     17.74234   0.83687   1.09348 
 C                     17.46125   2.287     1.72357 
 C                     15.98743   2.43394   1.35085 
 C                     17.57611   2.31744   3.23857 
 C                     18.27275   0.94355  -0.37937 
 C                     19.77691   1.19573  -0.50452 
 H                     20.4961   0.57837  -1.61542 
 N                     13.06129   3.1575    0.77793 
 C                     14.07804   4.03415   0.91567 
 C                     13.49683   5.36474   0.67926 
 C                     12.02141   5.2165    0.55328 
 C                     11.86571   3.81971   0.90661 
 C                     14.33313   6.60042   0.51458 
 C                     10.92973   6.17662   0.18913 
 O                     9.69366   5.89231   0.37387 
 C                     11.3538   7.4955   -0.303 
 N                     11.20853   0.94174   1.70793 
 C                     10.33146   1.96077   1.69189 
 C                     8.93235   1.48112   1.99656 
 C                     9.0131   -0.11602   1.9824 
 C                     10.52996  -0.29066   1.74996 
 C                     8.3438    1.9489    3.32742 
 C                     8.03006  -0.86205   1.03915 
 C                     8.38321  -0.57839  -0.40314 
 N                     13.38675  -0.94705   1.23335 
 C                     12.39818  -1.87964   1.61687 
 C                     13.06676  -3.18937   1.75843 
 C                     14.41284  -2.92119   1.46753 
 C                     14.5755  -1.53786   1.18569 
 C                     12.44141  -4.40357   2.1594 
 C                     15.73502  -3.49179   1.34519 
 O                     16.19616  -4.63178   1.38391 
 C                     16.78978  -2.30674   1.24753 
 C                     17.72328  -2.60858   0.10736 
 O                     17.30369  -2.63484  -1.06305 
 O                     18.98993  -2.60122   0.56116 
 C                     19.95375  -2.88471  -0.53542 
 H                     15.99935   4.57864   1.61589 
 H                     9.80696   3.81075   1.33988 
 H                     10.49139  -2.39627   2.00259 
 H                     18.46896   0.30443   1.69539 
 H                     18.05671   3.05283   1.23338 
 H                     17.71226   1.32927   3.65223 
 H                     16.65169   2.75272   3.59498 
 H                     18.37013   3.00548   3.54266 
 H                     17.88913   1.86692  -0.8321 
 H                     18.00406   0.0727   -0.9451 
 H                     20.30456   1.01878   0.44058 
 H                     19.93515   2.25818  -0.70498 
 H                     15.3717   6.42723   0.82247 
 H                     13.95703   7.33888   1.23089 
 H                     14.27059   7.02036  -0.4916 
 H                     11.96866   7.98161   0.45073 
 H                     10.435    8.00766  -0.59519 
 H                     11.98991   7.35236  -1.18362 
 H                     8.23741   1.80465   1.23139 
 H                     8.79555  -0.54378   2.97211 
 H                     7.38704   2.49289   3.2144 
 H                     9.07713   2.56884   3.82585 
 H                     8.17195   1.16099   4.05876 
 H                     7.01135  -0.49533   1.18714 
 H                     8.01187  -1.93543   1.19578 
 H                     7.89418   0.38181  -0.5927 
 H                     7.99016  -1.35681  -1.054 
 H                     9.46251  -0.42772  -0.52175 
 H                     12.81847  -5.17868   1.50554 
 H                     11.35729  -4.32921   2.10517 
 H                     12.7969  -4.47469   3.19082 
 H                     17.31362  -2.25487   2.20277 
 H                     20.55624  -3.74131  -0.21772 
 H                     20.48768  -1.93309  -0.71732 
 H                     19.55198  -3.24557  -1.475 
 
 ITRead=  0  0  0  0  0  0  0  0  0  0  0  0  0  0  0  0  0  0  0  0
 ITRead=  0  0  0  0  0  0  0  0  0  0  0  0  0  0  0  0  0  0  0  0
 ITRead=  0  0  0  0  0  0  0  0  0  0  0  0  0  0  0  0  0  0  0  0
 ITRead=  0  0  0  0  0  0  0  0  0  0  0  0  0  0  0  0  0  0  0  0
 ITRead=  0  0  0  0  0  0  0  0  0  0  0  0  0  0  0  0  0  0  0  0
 ITRead=  0  0  0  0  0  0  0  0  0  0  0  0  0  0  0  0  0  0  0  0
 ITRead=  0  0  0  0  0  0  0  0  0  0  0  0  0  0  0  0  0  0  0  0
 ITRead=  0  0  0  0  0  0  0  0  0  0  0  0  0  0  0  0  0  0
 MicOpt= -1 -1 -1 -1 -1 -1 -1 -1 -1 -1 -1 -1 -1 -1 -1 -1 -1 -1 -1 -1
 MicOpt= -1 -1 -1 -1 -1 -1 -1 -1 -1 -1 -1 -1 -1 -1 -1 -1 -1 -1 -1 -1
 MicOpt= -1 -1 -1 -1 -1 -1 -1 -1 -1 -1 -1 -1 -1 -1 -1 -1 -1 -1 -1 -1
 MicOpt= -1 -1 -1 -1 -1 -1 -1 -1 -1 -1 -1 -1 -1 -1 -1 -1 -1 -1 -1 -1
 MicOpt= -1 -1 -1 -1 -1 -1 -1 -1 -1 -1 -1 -1 -1 -1 -1 -1 -1 -1 -1 -1
 MicOpt= -1 -1 -1 -1 -1 -1 -1 -1 -1 -1 -1 -1 -1 -1 -1 -1 -1 -1 -1 -1
 MicOpt= -1 -1 -1 -1 -1 -1 -1 -1 -1 -1 -1 -1 -1 -1 -1 -1 -1 -1 -1 -1
 MicOpt= -1 -1 -1 -1 -1 -1 -1 -1 -1 -1 -1 -1 -1 -1 -1 -1 -1 -1
 NAtoms=    158 NQM=      158 NQMF=       0 NMMI=      0 NMMIF=      0
                NMic=       0 NMicF=      0.
                    Isotopes and Nuclear Properties:
 (Nuclear quadrupole moments (NQMom) in fm**2, nuclear magnetic moments (NMagM)
  in nuclear magnetons)

  Atom         1           2           3           4           5           6           7           8           9          10
 IAtWgt=          24          12          12          12          12          14          12          12          12          12
 AtmWgt=  23.9850450  12.0000000  12.0000000  12.0000000  12.0000000  14.0030740  12.0000000  12.0000000  12.0000000  12.0000000
 NucSpn=           0           0           0           0           0           2           0           0           0           0
 AtZEff=  -0.0000000  -0.0000000  -0.0000000  -0.0000000  -0.0000000  -0.0000000  -0.0000000  -0.0000000  -0.0000000  -0.0000000
 NQMom=    0.0000000   0.0000000   0.0000000   0.0000000   0.0000000   2.0440000   0.0000000   0.0000000   0.0000000   0.0000000
 NMagM=    0.0000000   0.0000000   0.0000000   0.0000000   0.0000000   0.4037610   0.0000000   0.0000000   0.0000000   0.0000000
 AtZNuc=  12.0000000   6.0000000   6.0000000   6.0000000   6.0000000   7.0000000   6.0000000   6.0000000   6.0000000   6.0000000

  Atom        11          12          13          14          15          16          17          18          19          20
 IAtWgt=          12          12          12           1          14          12          12          12          12          12
 AtmWgt=  12.0000000  12.0000000  12.0000000   1.0078250  14.0030740  12.0000000  12.0000000  12.0000000  12.0000000  12.0000000
 NucSpn=           0           0           0           1           2           0           0           0           0           0
 AtZEff=  -0.0000000  -0.0000000  -0.0000000  -0.0000000  -0.0000000  -0.0000000  -0.0000000  -0.0000000  -0.0000000  -0.0000000
 NQMom=    0.0000000   0.0000000   0.0000000   0.0000000   2.0440000   0.0000000   0.0000000   0.0000000   0.0000000   0.0000000
 NMagM=    0.0000000   0.0000000   0.0000000   2.7928460   0.4037610   0.0000000   0.0000000   0.0000000   0.0000000   0.0000000
 AtZNuc=   6.0000000   6.0000000   6.0000000   1.0000000   7.0000000   6.0000000   6.0000000   6.0000000   6.0000000   6.0000000

  Atom        21          22          23          24          25          26          27          28          29          30
 IAtWgt=          12          16          12          14          12          12          12          12          12          12
 AtmWgt=  12.0000000  15.9949146  12.0000000  14.0030740  12.0000000  12.0000000  12.0000000  12.0000000  12.0000000  12.0000000
 NucSpn=           0           0           0           2           0           0           0           0           0           0
 AtZEff=  -0.0000000  -0.0000000  -0.0000000  -0.0000000  -0.0000000  -0.0000000  -0.0000000  -0.0000000  -0.0000000  -0.0000000
 NQMom=    0.0000000   0.0000000   0.0000000   2.0440000   0.0000000   0.0000000   0.0000000   0.0000000   0.0000000   0.0000000
 NMagM=    0.0000000   0.0000000   0.0000000   0.4037610   0.0000000   0.0000000   0.0000000   0.0000000   0.0000000   0.0000000
 AtZNuc=   6.0000000   8.0000000   6.0000000   7.0000000   6.0000000   6.0000000   6.0000000   6.0000000   6.0000000   6.0000000

  Atom        31          32          33          34          35          36          37          38          39          40
 IAtWgt=          12          14          12          12          12          12          12          12          16          12
 AtmWgt=  12.0000000  14.0030740  12.0000000  12.0000000  12.0000000  12.0000000  12.0000000  12.0000000  15.9949146  12.0000000
 NucSpn=           0           2           0           0           0           0           0           0           0           0
 AtZEff=  -0.0000000  -0.0000000  -0.0000000  -0.0000000  -0.0000000  -0.0000000  -0.0000000  -0.0000000  -0.0000000  -0.0000000
 NQMom=    0.0000000   2.0440000   0.0000000   0.0000000   0.0000000   0.0000000   0.0000000   0.0000000   0.0000000   0.0000000
 NMagM=    0.0000000   0.4037610   0.0000000   0.0000000   0.0000000   0.0000000   0.0000000   0.0000000   0.0000000   0.0000000
 AtZNuc=   6.0000000   7.0000000   6.0000000   6.0000000   6.0000000   6.0000000   6.0000000   6.0000000   8.0000000   6.0000000

  Atom        41          42          43          44          45          46          47          48          49          50
 IAtWgt=          12          16          16          12           1           1           1           1           1           1
 AtmWgt=  12.0000000  15.9949146  15.9949146  12.0000000   1.0078250   1.0078250   1.0078250   1.0078250   1.0078250   1.0078250
 NucSpn=           0           0           0           0           1           1           1           1           1           1
 AtZEff=  -0.0000000  -0.0000000  -0.0000000  -0.0000000  -0.0000000  -0.0000000  -0.0000000  -0.0000000  -0.0000000  -0.0000000
 NQMom=    0.0000000   0.0000000   0.0000000   0.0000000   0.0000000   0.0000000   0.0000000   0.0000000   0.0000000   0.0000000
 NMagM=    0.0000000   0.0000000   0.0000000   0.0000000   2.7928460   2.7928460   2.7928460   2.7928460   2.7928460   2.7928460
 AtZNuc=   6.0000000   8.0000000   8.0000000   6.0000000   1.0000000   1.0000000   1.0000000   1.0000000   1.0000000   1.0000000

  Atom        51          52          53          54          55          56          57          58          59          60
 IAtWgt=           1           1           1           1           1           1           1           1           1           1
 AtmWgt=   1.0078250   1.0078250   1.0078250   1.0078250   1.0078250   1.0078250   1.0078250   1.0078250   1.0078250   1.0078250
 NucSpn=           1           1           1           1           1           1           1           1           1           1
 AtZEff=  -0.0000000  -0.0000000  -0.0000000  -0.0000000  -0.0000000  -0.0000000  -0.0000000  -0.0000000  -0.0000000  -0.0000000
 NQMom=    0.0000000   0.0000000   0.0000000   0.0000000   0.0000000   0.0000000   0.0000000   0.0000000   0.0000000   0.0000000
 NMagM=    2.7928460   2.7928460   2.7928460   2.7928460   2.7928460   2.7928460   2.7928460   2.7928460   2.7928460   2.7928460
 AtZNuc=   1.0000000   1.0000000   1.0000000   1.0000000   1.0000000   1.0000000   1.0000000   1.0000000   1.0000000   1.0000000

  Atom        61          62          63          64          65          66          67          68          69          70
 IAtWgt=           1           1           1           1           1           1           1           1           1           1
 AtmWgt=   1.0078250   1.0078250   1.0078250   1.0078250   1.0078250   1.0078250   1.0078250   1.0078250   1.0078250   1.0078250
 NucSpn=           1           1           1           1           1           1           1           1           1           1
 AtZEff=  -0.0000000  -0.0000000  -0.0000000  -0.0000000  -0.0000000  -0.0000000  -0.0000000  -0.0000000  -0.0000000  -0.0000000
 NQMom=    0.0000000   0.0000000   0.0000000   0.0000000   0.0000000   0.0000000   0.0000000   0.0000000   0.0000000   0.0000000
 NMagM=    2.7928460   2.7928460   2.7928460   2.7928460   2.7928460   2.7928460   2.7928460   2.7928460   2.7928460   2.7928460
 AtZNuc=   1.0000000   1.0000000   1.0000000   1.0000000   1.0000000   1.0000000   1.0000000   1.0000000   1.0000000   1.0000000

  Atom        71          72          73          74          75          76          77          78          79          80
 IAtWgt=           1           1           1           1           1           1           1           1           1          24
 AtmWgt=   1.0078250   1.0078250   1.0078250   1.0078250   1.0078250   1.0078250   1.0078250   1.0078250   1.0078250  23.9850450
 NucSpn=           1           1           1           1           1           1           1           1           1           0
 AtZEff=  -0.0000000  -0.0000000  -0.0000000  -0.0000000  -0.0000000  -0.0000000  -0.0000000  -0.0000000  -0.0000000  -0.0000000
 NQMom=    0.0000000   0.0000000   0.0000000   0.0000000   0.0000000   0.0000000   0.0000000   0.0000000   0.0000000   0.0000000
 NMagM=    2.7928460   2.7928460   2.7928460   2.7928460   2.7928460   2.7928460   2.7928460   2.7928460   2.7928460   0.0000000
 AtZNuc=   1.0000000   1.0000000   1.0000000   1.0000000   1.0000000   1.0000000   1.0000000   1.0000000   1.0000000  12.0000000

  Atom        81          82          83          84          85          86          87          88          89          90
 IAtWgt=          12          12          12          12          14          12          12          12          12          12
 AtmWgt=  12.0000000  12.0000000  12.0000000  12.0000000  14.0030740  12.0000000  12.0000000  12.0000000  12.0000000  12.0000000
 NucSpn=           0           0           0           0           2           0           0           0           0           0
 AtZEff=  -0.0000000  -0.0000000  -0.0000000  -0.0000000  -0.0000000  -0.0000000  -0.0000000  -0.0000000  -0.0000000  -0.0000000
 NQMom=    0.0000000   0.0000000   0.0000000   0.0000000   2.0440000   0.0000000   0.0000000   0.0000000   0.0000000   0.0000000
 NMagM=    0.0000000   0.0000000   0.0000000   0.0000000   0.4037610   0.0000000   0.0000000   0.0000000   0.0000000   0.0000000
 AtZNuc=   6.0000000   6.0000000   6.0000000   6.0000000   7.0000000   6.0000000   6.0000000   6.0000000   6.0000000   6.0000000

  Atom        91          92          93          94          95          96          97          98          99         100
 IAtWgt=          12          12           1          14          12          12          12          12          12          12
 AtmWgt=  12.0000000  12.0000000   1.0078250  14.0030740  12.0000000  12.0000000  12.0000000  12.0000000  12.0000000  12.0000000
 NucSpn=           0           0           1           2           0           0           0           0           0           0
 AtZEff=  -0.0000000  -0.0000000  -0.0000000  -0.0000000  -0.0000000  -0.0000000  -0.0000000  -0.0000000  -0.0000000  -0.0000000
 NQMom=    0.0000000   0.0000000   0.0000000   2.0440000   0.0000000   0.0000000   0.0000000   0.0000000   0.0000000   0.0000000
 NMagM=    0.0000000   0.0000000   2.7928460   0.4037610   0.0000000   0.0000000   0.0000000   0.0000000   0.0000000   0.0000000
 AtZNuc=   6.0000000   6.0000000   1.0000000   7.0000000   6.0000000   6.0000000   6.0000000   6.0000000   6.0000000   6.0000000

  Atom       101         102         103         104         105         106         107         108         109         110
 IAtWgt=          16          12          14          12          12          12          12          12          12          12
 AtmWgt=  15.9949146  12.0000000  14.0030740  12.0000000  12.0000000  12.0000000  12.0000000  12.0000000  12.0000000  12.0000000
 NucSpn=           0           0           2           0           0           0           0           0           0           0
 AtZEff=  -0.0000000  -0.0000000  -0.0000000  -0.0000000  -0.0000000  -0.0000000  -0.0000000  -0.0000000  -0.0000000  -0.0000000
 NQMom=    0.0000000   0.0000000   2.0440000   0.0000000   0.0000000   0.0000000   0.0000000   0.0000000   0.0000000   0.0000000
 NMagM=    0.0000000   0.0000000   0.4037610   0.0000000   0.0000000   0.0000000   0.0000000   0.0000000   0.0000000   0.0000000
 AtZNuc=   8.0000000   6.0000000   7.0000000   6.0000000   6.0000000   6.0000000   6.0000000   6.0000000   6.0000000   6.0000000

  Atom       111         112         113         114         115         116         117         118         119         120
 IAtWgt=          14          12          12          12          12          12          12          16          12          12
 AtmWgt=  14.0030740  12.0000000  12.0000000  12.0000000  12.0000000  12.0000000  12.0000000  15.9949146  12.0000000  12.0000000
 NucSpn=           2           0           0           0           0           0           0           0           0           0
 AtZEff=  -0.0000000  -0.0000000  -0.0000000  -0.0000000  -0.0000000  -0.0000000  -0.0000000  -0.0000000  -0.0000000  -0.0000000
 NQMom=    2.0440000   0.0000000   0.0000000   0.0000000   0.0000000   0.0000000   0.0000000   0.0000000   0.0000000   0.0000000
 NMagM=    0.4037610   0.0000000   0.0000000   0.0000000   0.0000000   0.0000000   0.0000000   0.0000000   0.0000000   0.0000000
 AtZNuc=   7.0000000   6.0000000   6.0000000   6.0000000   6.0000000   6.0000000   6.0000000   8.0000000   6.0000000   6.0000000

  Atom       121         122         123         124         125         126         127         128         129         130
 IAtWgt=          16          16          12           1           1           1           1           1           1           1
 AtmWgt=  15.9949146  15.9949146  12.0000000   1.0078250   1.0078250   1.0078250   1.0078250   1.0078250   1.0078250   1.0078250
 NucSpn=           0           0           0           1           1           1           1           1           1           1
 AtZEff=  -0.0000000  -0.0000000  -0.0000000  -0.0000000  -0.0000000  -0.0000000  -0.0000000  -0.0000000  -0.0000000  -0.0000000
 NQMom=    0.0000000   0.0000000   0.0000000   0.0000000   0.0000000   0.0000000   0.0000000   0.0000000   0.0000000   0.0000000
 NMagM=    0.0000000   0.0000000   0.0000000   2.7928460   2.7928460   2.7928460   2.7928460   2.7928460   2.7928460   2.7928460
 AtZNuc=   8.0000000   8.0000000   6.0000000   1.0000000   1.0000000   1.0000000   1.0000000   1.0000000   1.0000000   1.0000000

  Atom       131         132         133         134         135         136         137         138         139         140
 IAtWgt=           1           1           1           1           1           1           1           1           1           1
 AtmWgt=   1.0078250   1.0078250   1.0078250   1.0078250   1.0078250   1.0078250   1.0078250   1.0078250   1.0078250   1.0078250
 NucSpn=           1           1           1           1           1           1           1           1           1           1
 AtZEff=  -0.0000000  -0.0000000  -0.0000000  -0.0000000  -0.0000000  -0.0000000  -0.0000000  -0.0000000  -0.0000000  -0.0000000
 NQMom=    0.0000000   0.0000000   0.0000000   0.0000000   0.0000000   0.0000000   0.0000000   0.0000000   0.0000000   0.0000000
 NMagM=    2.7928460   2.7928460   2.7928460   2.7928460   2.7928460   2.7928460   2.7928460   2.7928460   2.7928460   2.7928460
 AtZNuc=   1.0000000   1.0000000   1.0000000   1.0000000   1.0000000   1.0000000   1.0000000   1.0000000   1.0000000   1.0000000

  Atom       141         142         143         144         145         146         147         148         149         150
 IAtWgt=           1           1           1           1           1           1           1           1           1           1
 AtmWgt=   1.0078250   1.0078250   1.0078250   1.0078250   1.0078250   1.0078250   1.0078250   1.0078250   1.0078250   1.0078250
 NucSpn=           1           1           1           1           1           1           1           1           1           1
 AtZEff=  -0.0000000  -0.0000000  -0.0000000  -0.0000000  -0.0000000  -0.0000000  -0.0000000  -0.0000000  -0.0000000  -0.0000000
 NQMom=    0.0000000   0.0000000   0.0000000   0.0000000   0.0000000   0.0000000   0.0000000   0.0000000   0.0000000   0.0000000
 NMagM=    2.7928460   2.7928460   2.7928460   2.7928460   2.7928460   2.7928460   2.7928460   2.7928460   2.7928460   2.7928460
 AtZNuc=   1.0000000   1.0000000   1.0000000   1.0000000   1.0000000   1.0000000   1.0000000   1.0000000   1.0000000   1.0000000

  Atom       151         152         153         154         155         156         157         158
 IAtWgt=           1           1           1           1           1           1           1           1
 AtmWgt=   1.0078250   1.0078250   1.0078250   1.0078250   1.0078250   1.0078250   1.0078250   1.0078250
 NucSpn=           1           1           1           1           1           1           1           1
 AtZEff=  -0.0000000  -0.0000000  -0.0000000  -0.0000000  -0.0000000  -0.0000000  -0.0000000  -0.0000000
 NQMom=    0.0000000   0.0000000   0.0000000   0.0000000   0.0000000   0.0000000   0.0000000   0.0000000
 NMagM=    2.7928460   2.7928460   2.7928460   2.7928460   2.7928460   2.7928460   2.7928460   2.7928460
 AtZNuc=   1.0000000   1.0000000   1.0000000   1.0000000   1.0000000   1.0000000   1.0000000   1.0000000
 Leave Link  101 at Sat Sep 11 02:40:42 2021, MaxMem= 23488102400 cpu:               3.1 elap:               0.2
 (Enter /sw/apps/gaussian-16.0/g16/l202.exe)
 Stoichiometry    C68H72Mg2N8O8
 Framework group  C1[X(C68H72Mg2N8O8)]
 Deg. of freedom   468
 Full point group                 C1      NOp   1
 Largest Abelian subgroup         C1      NOp   1
 Largest concise Abelian subgroup C1      NOp   1
                         Standard orientation:                         
 ---------------------------------------------------------------------
 Center     Atomic      Atomic             Coordinates (Angstroms)
 Number     Number       Type             X           Y           Z
 ---------------------------------------------------------------------
      1         12           0        6.869352    0.392742    0.707093
      2          6           0        7.169057   -2.630602   -1.185467
      3          6           0        7.987119    2.056567   -2.054310
      4          6           0        7.046832    3.009642    2.489495
      5          6           0        6.877818   -1.579245    3.580567
      6          7           0        7.467581   -0.308586   -1.305594
      7          6           0        7.479594   -1.485862   -1.922883
      8          6           0        7.780076   -1.380736   -3.448017
      9          6           0        8.558569    0.010625   -3.455885
     10          6           0        7.943361    0.640179   -2.218506
     11          6           0       10.061731   -0.131037   -3.239239
     12          6           0        6.473436   -1.310989   -4.307992
     13          6           0        6.667366   -1.535105   -5.810496
     14          1           0        5.634020   -2.241754   -6.552245
     15          7           0        6.960591    2.295549    0.183785
     16          6           0        7.429315    2.792099   -0.986267
     17          6           0        7.285894    4.260868   -0.892308
     18          6           0        6.872550    4.589530    0.500252
     19          6           0        6.970132    3.296904    1.128722
     20          6           0        7.485325    5.183167   -2.055640
     21          6           0        6.465854    5.867916    1.162414
     22          8           0        6.370315    5.975472    2.432799
     23          6           0        6.265421    7.030651    0.278719
     24          7           0        7.171627    0.702104    2.749288
     25          6           0        7.145994    1.933009    3.271975
     26          6           0        7.101569    1.889001    4.770651
     27          6           0        6.855951    0.360240    5.160926
     28          6           0        6.885278   -0.253825    3.739541
     29          6           0        8.353809    2.405201    5.492762
     30          6           0        5.640887    0.053548    6.071958
     31          6           0        4.355988    0.336729    5.326344
     32          7           0        6.820611   -1.731688    1.149208
     33          6           0        6.854229   -2.330017    2.417099
     34          6           0        6.911200   -3.788089    2.205321
     35          6           0        6.923577   -3.936983    0.819853
     36          6           0        6.903772   -2.652398    0.205245
     37          6           0        7.002386   -4.775469    3.225713
     38          6           0        6.973797   -4.881732   -0.284133
     39          8           0        6.911627   -6.108342   -0.379291
     40          6           0        7.257726   -4.070925   -1.624955
     41          6           0        6.279553   -4.551071   -2.662234
     42          8           0        5.057594   -4.328824   -2.540627
     43          8           0        6.951283   -4.982413   -3.740781
     44          6           0        6.038436   -5.445486   -4.819868
     45          1           0        8.548667    2.654358   -2.774902
     46          1           0        6.998598    3.883183    3.142976
     47          1           0        6.797554   -2.260350    4.429747
     48          1           0        8.422817   -2.169178   -3.840022
     49          1           0        8.323361    0.603555   -4.339533
     50          1           0       10.332915   -1.155854   -2.985999
     51          1           0       10.301615    0.540988   -2.415023
     52          1           0       10.614318    0.243124   -4.101462
     53          1           0        6.105024   -0.285219   -4.319447
     54          1           0        5.726570   -2.011337   -3.932454
     55          1           0        7.649207   -1.956984   -6.027092
     56          1           0        6.675886   -0.562496   -6.302594
     57          1           0        7.944044    4.669726   -2.899737
     58          1           0        8.226165    5.922671   -1.752327
     59          1           0        6.561750    5.685098   -2.344440
     60          1           0        7.189565    7.234996   -0.262344
     61          1           0        5.891483    7.831494    0.915642
     62          1           0        5.518842    6.777158   -0.474481
     63          1           0        6.280321    2.492270    5.155415
     64          1           0        7.704287   -0.066541    5.696517
     65          1           0        8.152245    3.215571    6.193745
     66          1           0        9.076059    2.712479    4.736968
     67          1           0        8.916152    1.644190    6.033178
     68          1           0        5.651889    0.699785    6.949001
     69          1           0        5.614381   -0.978795    6.420978
     70          1           0        4.225543    1.409411    5.464796
     71          1           0        3.528488   -0.217702    5.770257
     72          1           0        4.468528    0.157518    4.256903
     73          1           0        6.310467   -5.569345    2.944681
     74          1           0        6.753341   -4.360160    4.201980
     75          1           0        8.053478   -5.052284    3.145490
     76          1           0        8.289045   -4.281590   -1.906243
     77          1           0        6.321466   -6.469916   -5.062089
     78          1           0        6.097357   -4.702672   -5.615583
     79          1           0        4.992782   -5.581236   -4.541446
     80         12           0       -6.324907    0.613130   -0.302045
     81          6           0       -8.985596   -1.691351    0.397330
     82          6           0       -8.705548    2.799225   -1.392064
     83          6           0       -3.985746    2.485733   -1.345678
     84          6           0       -4.143321   -2.104079   -0.245814
     85          7           0       -8.527625    0.458991   -0.430539
     86          6           0       -9.433143   -0.441138   -0.078193
     87          6           0      -10.901525    0.053981   -0.169180
     88          6           0      -10.696391    1.216067   -1.258390
     89          6           0       -9.228223    1.543047   -0.993392
     90          6           0      -10.825740    0.727325   -2.691479
     91          6           0      -11.423666    0.629889    1.193796
     92          6           0      -12.937120    0.845235    1.263347
     93          1           0      -13.615932    0.610008    2.534704
     94          7           0       -6.335644    2.541672   -0.770220
     95          6           0       -7.394767    3.275907   -1.170754
     96          6           0       -6.876569    4.631500   -1.411595
     97          6           0       -5.394668    4.597590   -1.279203
     98          6           0       -5.174659    3.171598   -1.144116
     99          6           0       -7.770201    5.813236   -1.653140
    100          6           0       -4.347587    5.669858   -1.287331
    101          8           0       -3.100863    5.392733   -1.395539
    102          6           0       -4.830668    7.058130   -1.258930
    103          7           0       -4.386018    0.222985   -0.943020
    104          6           0       -3.559161    1.223741   -1.293341
    105          6           0       -2.141186    0.729355   -1.452479
    106          6           0       -2.144459   -0.770746   -0.898167
    107          6           0       -3.649020   -0.920898   -0.583298
    108          6           0       -1.587530    0.743996   -2.877137
    109          6           0       -1.118329   -1.111149    0.217106
    110          6           0       -1.472250   -0.371652    1.487249
    111          7           0       -6.466121   -1.484878    0.194422
    112          6           0       -5.436965   -2.449223    0.124013
    113          6           0       -6.042612   -3.756842    0.449212
    114          6           0       -7.397512   -3.463656    0.665459
    115          6           0       -7.624443   -2.074796    0.467813
    116          6           0       -5.362767   -5.007297    0.466329
    117          6           0       -8.689431   -4.014996    1.005577
    118          8           0       -9.095207   -5.119424    1.365178
    119          6           0       -9.799392   -2.912831    0.723410
    120          6           0      -10.707263   -2.850667    1.921084
    121          8           0      -10.276747   -2.461579    3.021026
    122          8           0      -11.976679   -3.051195    1.522634
    123          6           0      -12.916100   -2.987817    2.673840
    124          1           0       -9.346173    3.469093   -1.966305
    125          1           0       -3.121725    3.104294   -1.599296
    126          1           0       -3.510838   -2.984169   -0.111365
    127          1           0      -11.606739   -0.681108   -0.538074
    128          1           0      -11.323920    2.076467   -1.040966
    129          1           0      -10.917518   -0.347365   -2.743909
    130          1           0       -9.926587    1.055336   -3.196437
    131          1           0      -11.654723    1.237466   -3.190360
    132          1           0      -11.081243    1.667417    1.298790
    133          1           0      -11.108263    0.014021    2.013462
    134          1           0      -13.463779    0.336724    0.446654
    135          1           0      -13.144820    1.905100    1.097304
    136          1           0       -8.801812    5.502044   -1.858948
    137          1           0       -7.436496    6.281171   -2.585638
    138          1           0       -7.719313    6.551032   -0.849569
    139          1           0       -5.474844    7.233972   -2.117173
    140          1           0       -3.935216    7.677571   -1.179355
    141          1           0       -5.451439    7.194355   -0.366348
    142          1           0       -1.456091    1.321926   -0.858675
    143          1           0       -1.915074   -1.498394   -1.690469
    144          1           0       -0.657259    1.334371   -2.977836
    145          1           0       -2.354290    1.126963   -3.537400
    146          1           0       -1.384126   -0.236774   -3.303645
    147          1           0       -0.119874   -0.773074   -0.070900
    148          1           0       -1.049600   -2.172428    0.431517
    149          1           0       -1.028612    0.615968    1.329583
    150          1           0       -1.036370   -0.866536    2.352780
    151          1           0       -2.556504   -0.235853    1.574484
    152          1           0       -5.696200   -5.530852    1.352454
    153          1           0       -4.283083   -4.872878    0.465677
    154          1           0       -5.723343   -5.438186   -0.471529
    155          1           0      -10.333402   -3.209498   -0.180140
    156          1           0      -13.479185   -3.926221    2.678745
    157          1           0      -13.493837   -2.054420    2.536949
    158          1           0      -12.489201   -2.992123    3.669927
 ---------------------------------------------------------------------
 Rotational constants (GHZ):           0.0264613           0.0071258           0.0065883
 Leave Link  202 at Sat Sep 11 02:40:42 2021, MaxMem= 23488102400 cpu:               0.2 elap:               0.0
 (Enter /sw/apps/gaussian-16.0/g16/l301.exe)
 Standard basis: def2SVP (5D, 7F)
 Ernie: Thresh=  0.10000D-02 Tol=  0.10000D-05 Strict=F.
 There are  1658 symmetry adapted cartesian basis functions of A   symmetry.
 There are  1572 symmetry adapted basis functions of A   symmetry.
  1572 basis functions,  2678 primitive gaussians,  1658 cartesian basis functions
   312 alpha electrons      312 beta electrons
       nuclear repulsion energy     14296.4109076844 Hartrees.
 IExCor=20419 DFT=T Ex+Corr=CAM-B3LYP ExCW=0 ScaHFX=  1.000000
 ScaDFX=  1.000000  1.000000  1.000000  0.810000 ScalE2=  1.000000  1.000000
 IRadAn=      5 IRanWt=     -1 IRanGd=            0 ICorTp=0 IEmpDi=  4
 HFx  wShort=  0.000000 wLong=  0.330000 cFull=  0.190000 cShort=  0.000000 cLong=  0.460000
 DFx  wShort=  0.000000 wLong=  0.330000 cFull=  0.190000 cShort=  0.000000 cLong=  0.460000
 NAtoms=  158 NActive=  158 NUniq=  158 SFac= 1.00D+00 NAtFMM=   60 NAOKFM=T Big=T
 Integral buffers will be    131072 words long.
 Raffenetti 1 integral format.
 Two-electron integral symmetry is turned on.
 Leave Link  301 at Sat Sep 11 02:40:43 2021, MaxMem= 23488102400 cpu:               1.3 elap:               0.1
 (Enter /sw/apps/gaussian-16.0/g16/l302.exe)
 NPDir=0 NMtPBC=     1 NCelOv=     1 NCel=       1 NClECP=     1 NCelD=      1
         NCelK=      1 NCelE2=     1 NClLst=     1 CellRange=     0.0.
 One-electron integrals computed using PRISM.
 One-electron integral symmetry used in STVInt
   1 Symmetry operations used in ECPInt.
 ECPInt:  NShTT=  271216 NPrTT=  987664 LenC2=  123944 LenP2D=  270410.
 LDataN:  DoStor=T MaxTD1= 4 Len=   56
 NBasis=  1572 RedAO= T EigKep=  3.36D-04  NBF=  1572
 NBsUse=  1572 1.00D-06 EigRej= -1.00D+00 NBFU=  1572
 Precomputing XC quadrature grid using
 IXCGrd= 4 IRadAn=           5 IRanWt=          -1 IRanGd=           0 AccXCQ= 0.00D+00.
 Generated NRdTot=       0 NPtTot=           0 NUsed=           0 NTot=          32
 NSgBfM=  1292  1284  1285  1285  1292 MxSgAt=   158 MxSgA2=   158.
 Leave Link  302 at Sat Sep 11 02:40:48 2021, MaxMem= 23488102400 cpu:             124.9 elap:               5.2
 (Enter /sw/apps/gaussian-16.0/g16/l303.exe)
 DipDrv:  MaxL=1.
 Leave Link  303 at Sat Sep 11 02:40:48 2021, MaxMem= 23488102400 cpu:               8.0 elap:               0.4
 (Enter /sw/apps/gaussian-16.0/g16/l308.exe)
 Leave Link  308 at Sat Sep 11 02:40:49 2021, MaxMem= 23488102400 cpu:              14.2 elap:               0.7
 (Enter /sw/apps/gaussian-16.0/g16/l401.exe)
 ExpMin= 3.36D-02 ExpMax= 4.95D+03 ExpMxC= 7.45D+02 IAcc=3 IRadAn=         5 AccDes= 0.00D+00
 Harris functional with IExCor=20419 and IRadAn=       5 diagonalized for initial guess.
 HarFok:  IExCor=20419 AccDes= 0.00D+00 IRadAn=         5 IDoV= 1 UseB2=F ITyADJ=14
 ICtDFT=  3500011 ScaDFX=  1.000000  1.000000  1.000000  1.000000
 FoFCou: FMM=F IPFlag=           0 FMFlag=      100000 FMFlg1=        2001
         NFxFlg=           0 DoJE=T BraDBF=F KetDBF=T FulRan=T
         wScrn=  0.000000 ICntrl=       500 IOpCl=  0 I1Cent=   200000004 NGrid=           0
         NMat0=    1 NMatS0=      1 NMatT0=    0 NMatD0=    1 NMtDS0=    0 NMtDT0=    0
 Petite list used in FoFCou.
 Harris En= -3918.65802220796    
 JPrj=0 DoOrth=F DoCkMO=F.
 Leave Link  401 at Sat Sep 11 02:40:56 2021, MaxMem= 23488102400 cpu:             171.4 elap:               7.2
 (Enter /sw/apps/gaussian-16.0/g16/l502.exe)
 Integral symmetry usage will be decided dynamically.
 Closed shell SCF:
 Using DIIS extrapolation, IDIIS=  1040.
 NGot= 23488102400 LenX= 23482547354 LenY= 23479796732
 Requested convergence on RMS density matrix=1.00D-08 within 128 cycles.
 Requested convergence on MAX density matrix=1.00D-06.
 Requested convergence on             energy=1.00D-06.
 No special actions if energy rises.
 Fock matrices will be formed incrementally for  20 cycles.

 Cycle   1  Pass 1  IDiag  1:
 FoFJK:  IHMeth= 1 ICntrl=       0 DoSepK=T KAlg= 0 I1Cent=           0 FoldK=F
 IRaf=         1 NMat=       1 IRICut=       1 DoRegI=T DoRafI=F ISym2E= 0 IDoP0=0 IntGTp=1.
 FoFCou: FMM=T IPFlag=           0 FMFlag=      100000 FMFlg1=        2001
         NFxFlg=           0 DoJE=T BraDBF=F KetDBF=F FulRan=T
         wScrn=  0.000000 ICntrl=       500 IOpCl=  0 I1Cent=           0 NGrid=           0
         NMat0=    1 NMatS0=      1 NMatT0=    0 NMatD0=    1 NMtDS0=    0 NMtDT0=    0
 Symmetry not used in FoFCou.
 FMM levels:  10  Number of levels for PrismC:   9
 E= -4068.94941468707    
 DIIS: error= 2.04D-02 at cycle   1 NSaved=   1.
 NSaved= 1 IEnMin= 1 EnMin= -4068.94941468707     IErMin= 1 ErrMin= 2.04D-02
 ErrMax= 2.04D-02  0.00D+00 EMaxC= 1.00D-01 BMatC= 1.69D+00 BMatP= 1.69D+00
 IDIUse=3 WtCom= 7.96D-01 WtEn= 2.04D-01
 Coeff-Com:  0.100D+01
 Coeff-En:   0.100D+01
 Coeff:      0.100D+01
 Gap=     0.120 Goal=   None    Shift=    0.000
 GapD=    0.120 DampG=1.000 DampE=0.500 DampFc=0.5000 IDamp=-1.
 Damping current iteration by 5.00D-01
 RMSDP=1.57D-03 MaxDP=1.35D-01              OVMax= 2.02D-01

 Cycle   2  Pass 1  IDiag  1:
 RMSU=  7.70D-04    CP:  9.82D-01
 E= -4069.33813272644     Delta-E=       -0.388718039369 Rises=F Damp=T
 DIIS: error= 1.27D-02 at cycle   2 NSaved=   2.
 NSaved= 2 IEnMin= 2 EnMin= -4069.33813272644     IErMin= 2 ErrMin= 1.27D-02
 ErrMax= 1.27D-02  0.00D+00 EMaxC= 1.00D-01 BMatC= 3.07D-01 BMatP= 1.69D+00
 IDIUse=3 WtCom= 8.73D-01 WtEn= 1.27D-01
 Coeff-Com: -0.213D+00 0.121D+01
 Coeff-En:   0.000D+00 0.100D+01
 Coeff:     -0.186D+00 0.119D+01
 Gap=     0.140 Goal=   None    Shift=    0.000
 RMSDP=7.66D-04 MaxDP=9.43D-02 DE=-3.89D-01 OVMax= 1.90D-01

 Cycle   3  Pass 1  IDiag  1:
 RMSU=  7.34D-04    CP:  9.68D-01  1.24D+00
 E= -4069.62663185929     Delta-E=       -0.288499132850 Rises=F Damp=F
 DIIS: error= 1.58D-02 at cycle   3 NSaved=   3.
 NSaved= 3 IEnMin= 3 EnMin= -4069.62663185929     IErMin= 2 ErrMin= 1.27D-02
 ErrMax= 1.58D-02  0.00D+00 EMaxC= 1.00D-01 BMatC= 2.03D-01 BMatP= 3.07D-01
 IDIUse=3 WtCom= 8.42D-01 WtEn= 1.58D-01
 Coeff-Com: -0.267D+00 0.653D+00 0.615D+00
 Coeff-En:   0.000D+00 0.000D+00 0.100D+01
 Coeff:     -0.225D+00 0.549D+00 0.676D+00
 Gap=     0.124 Goal=   None    Shift=    0.000
 RMSDP=5.12D-04 MaxDP=4.74D-02 DE=-2.88D-01 OVMax= 1.46D-01

 Cycle   4  Pass 1  IDiag  1:
 RMSU=  2.68D-04    CP:  9.65D-01  1.55D+00  5.02D-01
 E= -4069.76413592410     Delta-E=       -0.137504064809 Rises=F Damp=F
 DIIS: error= 7.38D-03 at cycle   4 NSaved=   4.
 NSaved= 4 IEnMin= 4 EnMin= -4069.76413592410     IErMin= 4 ErrMin= 7.38D-03
 ErrMax= 7.38D-03  0.00D+00 EMaxC= 1.00D-01 BMatC= 5.13D-02 BMatP= 2.03D-01
 IDIUse=3 WtCom= 9.26D-01 WtEn= 7.38D-02
 Coeff-Com: -0.109D+00 0.227D+00 0.410D+00 0.473D+00
 Coeff-En:   0.000D+00 0.000D+00 0.224D+00 0.776D+00
 Coeff:     -0.101D+00 0.210D+00 0.396D+00 0.495D+00
 Gap=     0.122 Goal=   None    Shift=    0.000
 RMSDP=2.04D-04 MaxDP=2.04D-02 DE=-1.38D-01 OVMax= 6.48D-02

 Cycle   5  Pass 1  IDiag  1:
 RMSU=  7.72D-05    CP:  9.64D-01  1.49D+00  6.88D-01  5.44D-01
 E= -4069.81072432579     Delta-E=       -0.046588401699 Rises=F Damp=F
 DIIS: error= 7.63D-04 at cycle   5 NSaved=   5.
 NSaved= 5 IEnMin= 5 EnMin= -4069.81072432579     IErMin= 5 ErrMin= 7.63D-04
 ErrMax= 7.63D-04  0.00D+00 EMaxC= 1.00D-01 BMatC= 1.25D-03 BMatP= 5.13D-02
 IDIUse=3 WtCom= 9.92D-01 WtEn= 7.63D-03
 Coeff-Com: -0.369D-01 0.725D-01 0.169D+00 0.253D+00 0.542D+00
 Coeff-En:   0.000D+00 0.000D+00 0.000D+00 0.000D+00 0.100D+01
 Coeff:     -0.366D-01 0.719D-01 0.168D+00 0.251D+00 0.546D+00
 Gap=     0.121 Goal=   None    Shift=    0.000
 RMSDP=4.28D-05 MaxDP=4.12D-03 DE=-4.66D-02 OVMax= 1.77D-02

 Cycle   6  Pass 1  IDiag  1:
 RMSU=  3.13D-05    CP:  9.64D-01  1.49D+00  6.80D-01  6.19D-01  7.42D-01
 E= -4069.81183012414     Delta-E=       -0.001105798350 Rises=F Damp=F
 DIIS: error= 2.03D-04 at cycle   6 NSaved=   6.
 NSaved= 6 IEnMin= 6 EnMin= -4069.81183012414     IErMin= 6 ErrMin= 2.03D-04
 ErrMax= 2.03D-04  0.00D+00 EMaxC= 1.00D-01 BMatC= 1.86D-04 BMatP= 1.25D-03
 IDIUse=3 WtCom= 9.98D-01 WtEn= 2.03D-03
 Coeff-Com:  0.209D-02-0.637D-02 0.121D-01 0.414D-01 0.304D+00 0.647D+00
 Coeff-En:   0.000D+00 0.000D+00 0.000D+00 0.000D+00 0.108D+00 0.892D+00
 Coeff:      0.209D-02-0.636D-02 0.120D-01 0.413D-01 0.304D+00 0.647D+00
 Gap=     0.122 Goal=   None    Shift=    0.000
 RMSDP=1.66D-05 MaxDP=1.16D-03 DE=-1.11D-03 OVMax= 7.72D-03

 Cycle   7  Pass 1  IDiag  1:
 RMSU=  1.10D-05    CP:  9.64D-01  1.50D+00  6.86D-01  6.18D-01  8.49D-01
                    CP:  7.42D-01
 E= -4069.81203380538     Delta-E=       -0.000203681233 Rises=F Damp=F
 DIIS: error= 8.70D-05 at cycle   7 NSaved=   7.
 NSaved= 7 IEnMin= 7 EnMin= -4069.81203380538     IErMin= 7 ErrMin= 8.70D-05
 ErrMax= 8.70D-05  0.00D+00 EMaxC= 1.00D-01 BMatC= 2.34D-05 BMatP= 1.86D-04
 IDIUse=1 WtCom= 1.00D+00 WtEn= 0.00D+00
 Coeff-Com:  0.452D-02-0.991D-02-0.884D-02-0.320D-02 0.105D+00 0.337D+00
 Coeff-Com:  0.575D+00
 Coeff:      0.452D-02-0.991D-02-0.884D-02-0.320D-02 0.105D+00 0.337D+00
 Coeff:      0.575D+00
 Gap=     0.122 Goal=   None    Shift=    0.000
 RMSDP=6.70D-06 MaxDP=1.09D-03 DE=-2.04D-04 OVMax= 3.37D-03

 Cycle   8  Pass 1  IDiag  1:
 RMSU=  4.76D-06    CP:  9.64D-01  1.50D+00  6.86D-01  6.23D-01  8.50D-01
                    CP:  8.67D-01  8.11D-01
 E= -4069.81206277703     Delta-E=       -0.000028971648 Rises=F Damp=F
 DIIS: error= 5.05D-05 at cycle   8 NSaved=   8.
 NSaved= 8 IEnMin= 8 EnMin= -4069.81206277703     IErMin= 8 ErrMin= 5.05D-05
 ErrMax= 5.05D-05  0.00D+00 EMaxC= 1.00D-01 BMatC= 4.87D-06 BMatP= 2.34D-05
 IDIUse=1 WtCom= 1.00D+00 WtEn= 0.00D+00
 Coeff-Com:  0.219D-02-0.434D-02-0.781D-02-0.121D-01-0.104D-01 0.345D-01
 Coeff-Com:  0.330D+00 0.668D+00
 Coeff:      0.219D-02-0.434D-02-0.781D-02-0.121D-01-0.104D-01 0.345D-01
 Coeff:      0.330D+00 0.668D+00
 Gap=     0.122 Goal=   None    Shift=    0.000
 RMSDP=3.33D-06 MaxDP=3.69D-04 DE=-2.90D-05 OVMax= 1.09D-03

 Cycle   9  Pass 1  IDiag  1:
 RMSU=  1.94D-06    CP:  9.64D-01  1.50D+00  6.87D-01  6.24D-01  8.67D-01
                    CP:  8.94D-01  1.00D+00  9.53D-01
 E= -4069.81207062313     Delta-E=       -0.000007846105 Rises=F Damp=F
 DIIS: error= 1.96D-05 at cycle   9 NSaved=   9.
 NSaved= 9 IEnMin= 9 EnMin= -4069.81207062313     IErMin= 9 ErrMin= 1.96D-05
 ErrMax= 1.96D-05  0.00D+00 EMaxC= 1.00D-01 BMatC= 7.24D-07 BMatP= 4.87D-06
 IDIUse=1 WtCom= 1.00D+00 WtEn= 0.00D+00
 Coeff-Com:  0.477D-03-0.795D-03-0.272D-02-0.604D-02-0.208D-01-0.390D-01
 Coeff-Com:  0.975D-01 0.334D+00 0.637D+00
 Coeff:      0.477D-03-0.795D-03-0.272D-02-0.604D-02-0.208D-01-0.390D-01
 Coeff:      0.975D-01 0.334D+00 0.637D+00
 Gap=     0.122 Goal=   None    Shift=    0.000
 RMSDP=1.43D-06 MaxDP=1.47D-04 DE=-7.85D-06 OVMax= 7.67D-04

 Cycle  10  Pass 1  IDiag  1:
 RMSU=  9.48D-07    CP:  9.64D-01  1.50D+00  6.87D-01  6.25D-01  8.71D-01
                    CP:  9.07D-01  1.05D+00  1.12D+00  1.05D+00
 E= -4069.81207225843     Delta-E=       -0.000001635297 Rises=F Damp=F
 DIIS: error= 9.59D-06 at cycle  10 NSaved=  10.
 NSaved=10 IEnMin=10 EnMin= -4069.81207225843     IErMin=10 ErrMin= 9.59D-06
 ErrMax= 9.59D-06  0.00D+00 EMaxC= 1.00D-01 BMatC= 1.67D-07 BMatP= 7.24D-07
 IDIUse=1 WtCom= 1.00D+00 WtEn= 0.00D+00
 Coeff-Com: -0.421D-03 0.884D-03 0.120D-02 0.105D-02-0.378D-02-0.309D-01
 Coeff-Com: -0.447D-01-0.703D-01 0.242D+00 0.905D+00
 Coeff:     -0.421D-03 0.884D-03 0.120D-02 0.105D-02-0.378D-02-0.309D-01
 Coeff:     -0.447D-01-0.703D-01 0.242D+00 0.905D+00
 Gap=     0.122 Goal=   None    Shift=    0.000
 RMSDP=1.22D-06 MaxDP=1.22D-04 DE=-1.64D-06 OVMax= 6.40D-04

 Cycle  11  Pass 1  IDiag  1:
 RMSU=  5.28D-07    CP:  9.64D-01  1.50D+00  6.87D-01  6.25D-01  8.73D-01
                    CP:  9.16D-01  1.10D+00  1.23D+00  1.39D+00  1.36D+00
 E= -4069.81207304422     Delta-E=       -0.000000785796 Rises=F Damp=F
 DIIS: error= 3.93D-06 at cycle  11 NSaved=  11.
 NSaved=11 IEnMin=11 EnMin= -4069.81207304422     IErMin=11 ErrMin= 3.93D-06
 ErrMax= 3.93D-06  0.00D+00 EMaxC= 1.00D-01 BMatC= 6.43D-08 BMatP= 1.67D-07
 IDIUse=1 WtCom= 1.00D+00 WtEn= 0.00D+00
 Coeff-Com: -0.333D-03 0.649D-03 0.134D-02 0.211D-02 0.427D-02-0.859D-02
 Coeff-Com: -0.422D-01-0.130D+00-0.324D-01 0.481D+00 0.724D+00
 Coeff:     -0.333D-03 0.649D-03 0.134D-02 0.211D-02 0.427D-02-0.859D-02
 Coeff:     -0.422D-01-0.130D+00-0.324D-01 0.481D+00 0.724D+00
 Gap=     0.122 Goal=   None    Shift=    0.000
 RMSDP=6.91D-07 MaxDP=6.54D-05 DE=-7.86D-07 OVMax= 3.95D-04

 Cycle  12  Pass 1  IDiag  1:
 RMSU=  2.68D-07    CP:  9.64D-01  1.50D+00  6.87D-01  6.25D-01  8.74D-01
                    CP:  9.19D-01  1.12D+00  1.29D+00  1.55D+00  1.75D+00
                    CP:  1.18D+00
 E= -4069.81207331062     Delta-E=       -0.000000266395 Rises=F Damp=F
 DIIS: error= 2.59D-06 at cycle  12 NSaved=  12.
 NSaved=12 IEnMin=12 EnMin= -4069.81207331062     IErMin=12 ErrMin= 2.59D-06
 ErrMax= 2.59D-06  0.00D+00 EMaxC= 1.00D-01 BMatC= 1.52D-08 BMatP= 6.43D-08
 IDIUse=1 WtCom= 1.00D+00 WtEn= 0.00D+00
 Coeff-Com: -0.964D-05 0.242D-05 0.216D-03 0.562D-03 0.337D-02 0.375D-02
 Coeff-Com:  0.157D-02-0.364D-01-0.711D-01-0.550D-01 0.256D+00 0.897D+00
 Coeff:     -0.964D-05 0.242D-05 0.216D-03 0.562D-03 0.337D-02 0.375D-02
 Coeff:      0.157D-02-0.364D-01-0.711D-01-0.550D-01 0.256D+00 0.897D+00
 Gap=     0.122 Goal=   None    Shift=    0.000
 RMSDP=4.31D-07 MaxDP=2.97D-05 DE=-2.66D-07 OVMax= 2.59D-04

 Cycle  13  Pass 1  IDiag  1:
 RMSU=  1.67D-07    CP:  9.64D-01  1.50D+00  6.87D-01  6.25D-01  8.74D-01
                    CP:  9.19D-01  1.12D+00  1.32D+00  1.66D+00  1.97D+00
                    CP:  1.59D+00  1.25D+00
 E= -4069.81207340237     Delta-E=       -0.000000091750 Rises=F Damp=F
 DIIS: error= 1.26D-06 at cycle  13 NSaved=  13.
 NSaved=13 IEnMin=13 EnMin= -4069.81207340237     IErMin=13 ErrMin= 1.26D-06
 ErrMax= 1.26D-06  0.00D+00 EMaxC= 1.00D-01 BMatC= 8.39D-09 BMatP= 1.52D-08
 IDIUse=1 WtCom= 1.00D+00 WtEn= 0.00D+00
 Coeff-Com:  0.119D-03-0.243D-03-0.363D-03-0.442D-03 0.642D-03 0.497D-02
 Coeff-Com:  0.188D-01 0.228D-01-0.328D-01-0.238D+00-0.160D+00 0.586D+00
 Coeff-Com:  0.799D+00
 Coeff:      0.119D-03-0.243D-03-0.363D-03-0.442D-03 0.642D-03 0.497D-02
 Coeff:      0.188D-01 0.228D-01-0.328D-01-0.238D+00-0.160D+00 0.586D+00
 Coeff:      0.799D+00
 Gap=     0.122 Goal=   None    Shift=    0.000
 RMSDP=3.46D-07 MaxDP=2.27D-05 DE=-9.17D-08 OVMax= 2.16D-04

 Cycle  14  Pass 1  IDiag  1:
 RMSU=  7.69D-08    CP:  9.64D-01  1.50D+00  6.87D-01  6.25D-01  8.74D-01
                    CP:  9.20D-01  1.13D+00  1.34D+00  1.73D+00  2.17D+00
                    CP:  1.85D+00  1.77D+00  1.11D+00
 E= -4069.81207343986     Delta-E=       -0.000000037489 Rises=F Damp=F
 DIIS: error= 7.28D-07 at cycle  14 NSaved=  14.
 NSaved=14 IEnMin=14 EnMin= -4069.81207343986     IErMin=14 ErrMin= 7.28D-07
 ErrMax= 7.28D-07  0.00D+00 EMaxC= 1.00D-01 BMatC= 1.27D-09 BMatP= 8.39D-09
 IDIUse=1 WtCom= 1.00D+00 WtEn= 0.00D+00
 Coeff-Com:  0.671D-04-0.132D-03-0.248D-03-0.386D-03-0.449D-03 0.126D-02
 Coeff-Com:  0.104D-01 0.194D-01 0.444D-02-0.101D+00-0.144D+00 0.865D-01
 Coeff-Com:  0.405D+00 0.719D+00
 Coeff:      0.671D-04-0.132D-03-0.248D-03-0.386D-03-0.449D-03 0.126D-02
 Coeff:      0.104D-01 0.194D-01 0.444D-02-0.101D+00-0.144D+00 0.865D-01
 Coeff:      0.405D+00 0.719D+00
 Gap=     0.122 Goal=   None    Shift=    0.000
 RMSDP=1.05D-07 MaxDP=7.02D-06 DE=-3.75D-08 OVMax= 6.03D-05

 Cycle  15  Pass 1  IDiag  1:
 RMSU=  3.82D-08    CP:  9.64D-01  1.50D+00  6.87D-01  6.25D-01  8.74D-01
                    CP:  9.20D-01  1.13D+00  1.35D+00  1.75D+00  2.21D+00
                    CP:  1.96D+00  1.91D+00  1.35D+00  1.04D+00
 E= -4069.81207344399     Delta-E=       -0.000000004129 Rises=F Damp=F
 DIIS: error= 3.24D-07 at cycle  15 NSaved=  15.
 NSaved=15 IEnMin=15 EnMin= -4069.81207344399     IErMin=15 ErrMin= 3.24D-07
 ErrMax= 3.24D-07  0.00D+00 EMaxC= 1.00D-01 BMatC= 2.24D-10 BMatP= 1.27D-09
 IDIUse=1 WtCom= 1.00D+00 WtEn= 0.00D+00
 Coeff-Com:  0.599D-05-0.102D-04-0.350D-04-0.845D-04-0.291D-03-0.512D-03
 Coeff-Com:  0.116D-02 0.274D-02 0.867D-02 0.788D-03-0.305D-01-0.719D-01
 Coeff-Com:  0.300D-01 0.299D+00 0.761D+00
 Coeff:      0.599D-05-0.102D-04-0.350D-04-0.845D-04-0.291D-03-0.512D-03
 Coeff:      0.116D-02 0.274D-02 0.867D-02 0.788D-03-0.305D-01-0.719D-01
 Coeff:      0.300D-01 0.299D+00 0.761D+00
 Gap=     0.122 Goal=   None    Shift=    0.000
 RMSDP=3.93D-08 MaxDP=2.83D-06 DE=-4.13D-09 OVMax= 2.94D-05

 Cycle  16  Pass 1  IDiag  1:
 RMSU=  1.88D-08    CP:  9.64D-01  1.50D+00  6.87D-01  6.25D-01  8.74D-01
                    CP:  9.20D-01  1.13D+00  1.35D+00  1.75D+00  2.22D+00
                    CP:  1.98D+00  1.97D+00  1.42D+00  1.25D+00  1.14D+00
 E= -4069.81207344477     Delta-E=       -0.000000000779 Rises=F Damp=F
 DIIS: error= 1.93D-07 at cycle  16 NSaved=  16.
 NSaved=16 IEnMin=16 EnMin= -4069.81207344477     IErMin=16 ErrMin= 1.93D-07
 ErrMax= 1.93D-07  0.00D+00 EMaxC= 1.00D-01 BMatC= 8.37D-11 BMatP= 2.24D-10
 IDIUse=1 WtCom= 1.00D+00 WtEn= 0.00D+00
 Coeff-Com: -0.136D-04 0.277D-04 0.446D-04 0.496D-04-0.335D-04-0.622D-03
 Coeff-Com: -0.181D-02-0.406D-02 0.418D-02 0.247D-01 0.202D-01-0.626D-01
 Coeff-Com: -0.809D-01-0.350D-01 0.400D+00 0.735D+00
 Coeff:     -0.136D-04 0.277D-04 0.446D-04 0.496D-04-0.335D-04-0.622D-03
 Coeff:     -0.181D-02-0.406D-02 0.418D-02 0.247D-01 0.202D-01-0.626D-01
 Coeff:     -0.809D-01-0.350D-01 0.400D+00 0.735D+00
 Gap=     0.122 Goal=   None    Shift=    0.000
 RMSDP=2.28D-08 MaxDP=1.61D-06 DE=-7.79D-10 OVMax= 1.29D-05

 Cycle  17  Pass 1  IDiag  1:
 RMSU=  1.04D-08    CP:  9.64D-01  1.50D+00  6.87D-01  6.25D-01  8.74D-01
                    CP:  9.20D-01  1.13D+00  1.35D+00  1.75D+00  2.23D+00
                    CP:  1.99D+00  1.99D+00  1.47D+00  1.34D+00  1.43D+00
                    CP:  1.23D+00
 E= -4069.81207344526     Delta-E=       -0.000000000498 Rises=F Damp=F
 DIIS: error= 9.11D-08 at cycle  17 NSaved=  17.
 NSaved=17 IEnMin=17 EnMin= -4069.81207344526     IErMin=17 ErrMin= 9.11D-08
 ErrMax= 9.11D-08  0.00D+00 EMaxC= 1.00D-01 BMatC= 1.77D-11 BMatP= 8.37D-11
 IDIUse=1 WtCom= 1.00D+00 WtEn= 0.00D+00
 Coeff-Com: -0.722D-05 0.141D-04 0.284D-04 0.415D-04 0.785D-04-0.131D-03
 Coeff-Com: -0.903D-03-0.277D-02 0.404D-04 0.949D-02 0.173D-01-0.752D-02
 Coeff-Com: -0.361D-01-0.990D-01-0.224D-01 0.289D+00 0.853D+00
 Coeff:     -0.722D-05 0.141D-04 0.284D-04 0.415D-04 0.785D-04-0.131D-03
 Coeff:     -0.903D-03-0.277D-02 0.404D-04 0.949D-02 0.173D-01-0.752D-02
 Coeff:     -0.361D-01-0.990D-01-0.224D-01 0.289D+00 0.853D+00
 Gap=     0.122 Goal=   None    Shift=    0.000
 RMSDP=1.34D-08 MaxDP=1.01D-06 DE=-4.98D-10 OVMax= 9.97D-06

 Cycle  18  Pass 1  IDiag  1:
 RMSU=  5.10D-09    CP:  9.64D-01  1.50D+00  6.87D-01  6.25D-01  8.74D-01
                    CP:  9.20D-01  1.13D+00  1.35D+00  1.75D+00  2.23D+00
                    CP:  2.00D+00  2.00D+00  1.49D+00  1.41D+00  1.60D+00
                    CP:  1.63D+00  1.37D+00
 E= -4069.81207344541     Delta-E=       -0.000000000142 Rises=F Damp=F
 DIIS: error= 6.82D-08 at cycle  18 NSaved=  18.
 NSaved=18 IEnMin=18 EnMin= -4069.81207344541     IErMin=18 ErrMin= 6.82D-08
 ErrMax= 6.82D-08  0.00D+00 EMaxC= 1.00D-01 BMatC= 7.71D-12 BMatP= 1.77D-11
 IDIUse=1 WtCom= 1.00D+00 WtEn= 0.00D+00
 Coeff-Com:  0.133D-05-0.298D-05-0.192D-05 0.193D-05 0.619D-04 0.161D-03
 Coeff-Com:  0.296D-03 0.180D-05-0.120D-02-0.501D-02 0.974D-03 0.179D-01
 Coeff-Com:  0.150D-01-0.378D-01-0.155D+00-0.168D+00 0.399D+00 0.933D+00
 Coeff:      0.133D-05-0.298D-05-0.192D-05 0.193D-05 0.619D-04 0.161D-03
 Coeff:      0.296D-03 0.180D-05-0.120D-02-0.501D-02 0.974D-03 0.179D-01
 Coeff:      0.150D-01-0.378D-01-0.155D+00-0.168D+00 0.399D+00 0.933D+00
 Gap=     0.122 Goal=   None    Shift=    0.000
 RMSDP=1.12D-08 MaxDP=7.41D-07 DE=-1.42D-10 OVMax= 6.24D-06

 Cycle  19  Pass 1  IDiag  1:
 RMSU=  3.05D-09    CP:  9.64D-01  1.50D+00  6.87D-01  6.25D-01  8.74D-01
                    CP:  9.20D-01  1.13D+00  1.35D+00  1.75D+00  2.23D+00
                    CP:  2.00D+00  2.00D+00  1.50D+00  1.45D+00  1.74D+00
                    CP:  1.92D+00  1.91D+00  1.26D+00
 E= -4069.81207344544     Delta-E=       -0.000000000036 Rises=F Damp=F
 DIIS: error= 2.93D-08 at cycle  19 NSaved=  19.
 NSaved=19 IEnMin=19 EnMin= -4069.81207344544     IErMin=19 ErrMin= 2.93D-08
 ErrMax= 2.93D-08  0.00D+00 EMaxC= 1.00D-01 BMatC= 1.94D-12 BMatP= 7.71D-12
 IDIUse=1 WtCom= 1.00D+00 WtEn= 0.00D+00
 Coeff-Com:  0.299D-05-0.606D-05-0.994D-05-0.120D-04 0.168D-04 0.130D-03
 Coeff-Com:  0.481D-03 0.801D-03-0.628D-03-0.623D-02-0.484D-02 0.130D-01
 Coeff-Com:  0.215D-01 0.926D-02-0.809D-01-0.196D+00-0.674D-02 0.530D+00
 Coeff-Com:  0.720D+00
 Coeff:      0.299D-05-0.606D-05-0.994D-05-0.120D-04 0.168D-04 0.130D-03
 Coeff:      0.481D-03 0.801D-03-0.628D-03-0.623D-02-0.484D-02 0.130D-01
 Coeff:      0.215D-01 0.926D-02-0.809D-01-0.196D+00-0.674D-02 0.530D+00
 Coeff:      0.720D+00
 Gap=     0.122 Goal=   None    Shift=    0.000
 RMSDP=5.10D-09 MaxDP=3.88D-07 DE=-3.64D-11 OVMax= 3.87D-06

 SCF Done:  E(RCAM-B3LYP) =  -4069.81207345     A.U. after   19 cycles
            NFock= 19  Conv=0.51D-08     -V/T= 2.0102
 KE= 4.028802246500D+03 PE=-3.807403255292D+04 EE= 1.567900732529D+04
 Leave Link  502 at Sat Sep 11 02:50:30 2021, MaxMem= 23488102400 cpu:           13198.6 elap:             574.4
 (Enter /sw/apps/gaussian-16.0/g16/l801.exe)
 DoSCS=F DFT=T ScalE2(SS,OS)=  1.000000  1.000000
 ExpMin= 3.36D-02 ExpMax= 4.95D+03 ExpMxC= 7.45D+02 IAcc=3 IRadAn=         5 AccDes= 0.00D+00
 HarFok:  IExCor=  205 AccDes= 0.00D+00 IRadAn=         5 IDoV=-2 UseB2=F ITyADJ=14
 ICtDFT= 12500011 ScaDFX=  1.000000  1.000000  1.000000  1.000000
 GSVD:  LWork=       -9588 too small for GESVD, short by       45590 words or       45590 for optimal perf.
 Largest valence mixing into a core orbital is  2.03D-04
 Largest core mixing into a valence orbital is  5.24D-05
 Range of M.O.s used for correlation:    95  1572
 NBasis=  1572 NAE=   312 NBE=   312 NFC=    94 NFV=     0
 NROrb=   1478 NOA=   218 NOB=   218 NVA=  1260 NVB=  1260
 Leave Link  801 at Sat Sep 11 02:50:31 2021, MaxMem= 23488102400 cpu:               8.4 elap:               0.4
 (Enter /sw/apps/gaussian-16.0/g16/l914.exe)
 RHF ground state
 Two-electron integrals replicated using symmetry.
 MDV= 23488102400 DFT=T DoStab=F Mixed=T DoRPA=T DoScal=F NonHer=T
 Making orbital integer symmetry assigments:
 Orbital symmetries:
       Occupied  (A) (A) (A) (A) (A) (A) (A) (A) (A) (A) (A) (A)
                 (A) (A) (A) (A) (A) (A) (A) (A) (A) (A) (A) (A)
                 (A) (A) (A) (A) (A) (A) (A) (A) (A) (A) (A) (A)
                 (A) (A) (A) (A) (A) (A) (A) (A) (A) (A) (A) (A)
                 (A) (A) (A) (A) (A) (A) (A) (A) (A) (A) (A) (A)
                 (A) (A) (A) (A) (A) (A) (A) (A) (A) (A) (A) (A)
                 (A) (A) (A) (A) (A) (A) (A) (A) (A) (A) (A) (A)
                 (A) (A) (A) (A) (A) (A) (A) (A) (A) (A) (A) (A)
                 (A) (A) (A) (A) (A) (A) (A) (A) (A) (A) (A) (A)
                 (A) (A) (A) (A) (A) (A) (A) (A) (A) (A) (A) (A)
                 (A) (A) (A) (A) (A) (A) (A) (A) (A) (A) (A) (A)
                 (A) (A) (A) (A) (A) (A) (A) (A) (A) (A) (A) (A)
                 (A) (A) (A) (A) (A) (A) (A) (A) (A) (A) (A) (A)
                 (A) (A) (A) (A) (A) (A) (A) (A) (A) (A) (A) (A)
                 (A) (A) (A) (A) (A) (A) (A) (A) (A) (A) (A) (A)
                 (A) (A) (A) (A) (A) (A) (A) (A) (A) (A) (A) (A)
                 (A) (A) (A) (A) (A) (A) (A) (A) (A) (A) (A) (A)
                 (A) (A) (A) (A) (A) (A) (A) (A) (A) (A) (A) (A)
                 (A) (A) (A) (A) (A) (A) (A) (A) (A) (A) (A) (A)
                 (A) (A) (A) (A) (A) (A) (A) (A) (A) (A) (A) (A)
                 (A) (A) (A) (A) (A) (A) (A) (A) (A) (A) (A) (A)
                 (A) (A) (A) (A) (A) (A) (A) (A) (A) (A) (A) (A)
                 (A) (A) (A) (A) (A) (A) (A) (A) (A) (A) (A) (A)
                 (A) (A) (A) (A) (A) (A) (A) (A) (A) (A) (A) (A)
                 (A) (A) (A) (A) (A) (A) (A) (A) (A) (A) (A) (A)
                 (A) (A) (A) (A) (A) (A) (A) (A) (A) (A) (A) (A)
       Virtual   (A) (A) (A) (A) (A) (A) (A) (A) (A) (A) (A) (A)
                 (A) (A) (A) (A) (A) (A) (A) (A) (A) (A) (A) (A)
                 (A) (A) (A) (A) (A) (A) (A) (A) (A) (A) (A) (A)
                 (A) (A) (A) (A) (A) (A) (A) (A) (A) (A) (A) (A)
                 (A) (A) (A) (A) (A) (A) (A) (A) (A) (A) (A) (A)
                 (A) (A) (A) (A) (A) (A) (A) (A) (A) (A) (A) (A)
                 (A) (A) (A) (A) (A) (A) (A) (A) (A) (A) (A) (A)
                 (A) (A) (A) (A) (A) (A) (A) (A) (A) (A) (A) (A)
                 (A) (A) (A) (A) (A) (A) (A) (A) (A) (A) (A) (A)
                 (A) (A) (A) (A) (A) (A) (A) (A) (A) (A) (A) (A)
                 (A) (A) (A) (A) (A) (A) (A) (A) (A) (A) (A) (A)
                 (A) (A) (A) (A) (A) (A) (A) (A) (A) (A) (A) (A)
                 (A) (A) (A) (A) (A) (A) (A) (A) (A) (A) (A) (A)
                 (A) (A) (A) (A) (A) (A) (A) (A) (A) (A) (A) (A)
                 (A) (A) (A) (A) (A) (A) (A) (A) (A) (A) (A) (A)
                 (A) (A) (A) (A) (A) (A) (A) (A) (A) (A) (A) (A)
                 (A) (A) (A) (A) (A) (A) (A) (A) (A) (A) (A) (A)
                 (A) (A) (A) (A) (A) (A) (A) (A) (A) (A) (A) (A)
                 (A) (A) (A) (A) (A) (A) (A) (A) (A) (A) (A) (A)
                 (A) (A) (A) (A) (A) (A) (A) (A) (A) (A) (A) (A)
                 (A) (A) (A) (A) (A) (A) (A) (A) (A) (A) (A) (A)
                 (A) (A) (A) (A) (A) (A) (A) (A) (A) (A) (A) (A)
                 (A) (A) (A) (A) (A) (A) (A) (A) (A) (A) (A) (A)
                 (A) (A) (A) (A) (A) (A) (A) (A) (A) (A) (A) (A)
                 (A) (A) (A) (A) (A) (A) (A) (A) (A) (A) (A) (A)
                 (A) (A) (A) (A) (A) (A) (A) (A) (A) (A) (A) (A)
                 (A) (A) (A) (A) (A) (A) (A) (A) (A) (A) (A) (A)
                 (A) (A) (A) (A) (A) (A) (A) (A) (A) (A) (A) (A)
                 (A) (A) (A) (A) (A) (A) (A) (A) (A) (A) (A) (A)
                 (A) (A) (A) (A) (A) (A) (A) (A) (A) (A) (A) (A)
                 (A) (A) (A) (A) (A) (A) (A) (A) (A) (A) (A) (A)
                 (A) (A) (A) (A) (A) (A) (A) (A) (A) (A) (A) (A)
                 (A) (A) (A) (A) (A) (A) (A) (A) (A) (A) (A) (A)
                 (A) (A) (A) (A) (A) (A) (A) (A) (A) (A) (A) (A)
                 (A) (A) (A) (A) (A) (A) (A) (A) (A) (A) (A) (A)
                 (A) (A) (A) (A) (A) (A) (A) (A) (A) (A) (A) (A)
                 (A) (A) (A) (A) (A) (A) (A) (A) (A) (A) (A) (A)
                 (A) (A) (A) (A) (A) (A) (A) (A) (A) (A) (A) (A)
                 (A) (A) (A) (A) (A) (A) (A) (A) (A) (A) (A) (A)
                 (A) (A) (A) (A) (A) (A) (A) (A) (A) (A) (A) (A)
                 (A) (A) (A) (A) (A) (A) (A) (A) (A) (A) (A) (A)
                 (A) (A) (A) (A) (A) (A) (A) (A) (A) (A) (A) (A)
                 (A) (A) (A) (A) (A) (A) (A) (A) (A) (A) (A) (A)
                 (A) (A) (A) (A) (A) (A) (A) (A) (A) (A) (A) (A)
                 (A) (A) (A) (A) (A) (A) (A) (A) (A) (A) (A) (A)
                 (A) (A) (A) (A) (A) (A) (A) (A) (A) (A) (A) (A)
                 (A) (A) (A) (A) (A) (A) (A) (A) (A) (A) (A) (A)
                 (A) (A) (A) (A) (A) (A) (A) (A) (A) (A) (A) (A)
                 (A) (A) (A) (A) (A) (A) (A) (A) (A) (A) (A) (A)
                 (A) (A) (A) (A) (A) (A) (A) (A) (A) (A) (A) (A)
                 (A) (A) (A) (A) (A) (A) (A) (A) (A) (A) (A) (A)
                 (A) (A) (A) (A) (A) (A) (A) (A) (A) (A) (A) (A)
                 (A) (A) (A) (A) (A) (A) (A) (A) (A) (A) (A) (A)
                 (A) (A) (A) (A) (A) (A) (A) (A) (A) (A) (A) (A)
                 (A) (A) (A) (A) (A) (A) (A) (A) (A) (A) (A) (A)
                 (A) (A) (A) (A) (A) (A) (A) (A) (A) (A) (A) (A)
                 (A) (A) (A) (A) (A) (A) (A) (A) (A) (A) (A) (A)
                 (A) (A) (A) (A) (A) (A) (A) (A) (A) (A) (A) (A)
                 (A) (A) (A) (A) (A) (A) (A) (A) (A) (A) (A) (A)
                 (A) (A) (A) (A) (A) (A) (A) (A) (A) (A) (A) (A)
                 (A) (A) (A) (A) (A) (A) (A) (A) (A) (A) (A) (A)
                 (A) (A) (A) (A) (A) (A) (A) (A) (A) (A) (A) (A)
                 (A) (A) (A) (A) (A) (A) (A) (A) (A) (A) (A) (A)
                 (A) (A) (A) (A) (A) (A) (A) (A) (A) (A) (A) (A)
                 (A) (A) (A) (A) (A) (A) (A) (A) (A) (A) (A) (A)
                 (A) (A) (A) (A) (A) (A) (A) (A) (A) (A) (A) (A)
                 (A) (A) (A) (A) (A) (A) (A) (A) (A) (A) (A) (A)
                 (A) (A) (A) (A) (A) (A) (A) (A) (A) (A) (A) (A)
                 (A) (A) (A) (A) (A) (A) (A) (A) (A) (A) (A) (A)
                 (A) (A) (A) (A) (A) (A) (A) (A) (A) (A) (A) (A)
                 (A) (A) (A) (A) (A) (A) (A) (A) (A) (A) (A) (A)
                 (A) (A) (A) (A) (A) (A) (A) (A) (A) (A) (A) (A)
                 (A) (A) (A) (A) (A) (A) (A) (A) (A) (A) (A) (A)
                 (A) (A) (A) (A) (A) (A) (A) (A) (A) (A) (A) (A)
                 (A) (A) (A) (A) (A) (A) (A) (A) (A) (A) (A) (A)
                 (A) (A) (A) (A) (A) (A) (A) (A) (A) (A) (A) (A)
                 (A) (A) (A) (A) (A) (A) (A) (A) (A) (A) (A) (A)
                 (A) (A) (A) (A) (A) (A) (A) (A) (A) (A) (A) (A)
                 (A) (A) (A) (A) (A) (A) (A) (A) (A) (A) (A) (A)
                 (A) (A) (A) (A) (A) (A) (A) (A) (A) (A) (A) (A)
                 (A) (A) (A) (A) (A) (A) (A) (A) (A) (A) (A) (A)
                 (A) (A) (A) (A) (A) (A) (A) (A) (A) (A) (A) (A)
                 (A) (A) (A) (A) (A) (A) (A) (A) (A) (A) (A) (A)
                 (A) (A) (A) (A) (A) (A) (A) (A) (A) (A) (A) (A)
                 (A) (A) (A) (A) (A) (A) (A) (A) (A) (A) (A) (A)
                 (A) (A) (A) (A) (A) (A) (A) (A) (A) (A) (A) (A)
                 (A) (A) (A) (A) (A) (A) (A) (A) (A) (A) (A) (A)
                 (A) (A) (A) (A) (A) (A) (A) (A) (A) (A) (A) (A)
                 (A) (A) (A) (A) (A) (A) (A) (A) (A) (A) (A) (A)
                 (A) (A) (A) (A) (A) (A) (A) (A) (A) (A) (A) (A)
                 (A) (A) (A) (A) (A) (A) (A) (A) (A) (A) (A) (A)
                 (A) (A) (A) (A) (A) (A) (A) (A) (A) (A) (A) (A)
                 (A) (A) (A) (A) (A) (A) (A) (A) (A) (A) (A) (A)
                 (A) (A) (A) (A) (A) (A) (A) (A) (A) (A) (A) (A)
                 (A) (A) (A) (A) (A) (A) (A) (A) (A) (A) (A) (A)
                 (A) (A) (A) (A) (A) (A) (A) (A) (A) (A) (A) (A)
                 (A) (A) (A) (A) (A) (A) (A) (A) (A) (A) (A) (A)
                 (A) (A) (A) (A) (A) (A) (A) (A) (A) (A) (A) (A)
                 (A) (A) (A) (A) (A) (A) (A) (A) (A) (A) (A) (A)
                 (A) (A) (A) (A) (A) (A) (A) (A) (A) (A) (A) (A)
                 (A) (A) (A) (A) (A) (A) (A) (A) (A) (A) (A) (A)
                 (A) (A) (A) (A) (A) (A) (A) (A) (A) (A) (A) (A)
                 (A) (A) (A) (A) (A) (A) (A) (A) (A) (A) (A) (A)
                 (A) (A) (A) (A) (A) (A) (A) (A) (A) (A) (A) (A)
                 (A) (A) (A) (A) (A) (A) (A) (A) (A) (A) (A) (A)
    20 initial guesses have been made.
 Convergence on wavefunction:    0.001000000000000
 Davidson Disk Diagonalization:  ConvIn= 1.00D-03 SkipCon=T Conv= 1.00D-03.
 Max sub-space:  2000 roots to seek:    20 dimension of matrix:       549360
 Iteration     1 Dimension    20 NMult     0 NNew     20
 CISAX will form    20 AO SS matrices at one time.
 NMat=    20 NSing=    20 JSym2X= 0.
 FoFJK:  IHMeth= 1 ICntrl=       0 DoSepK=T KAlg= 0 I1Cent=           0 FoldK=F
 IRaf=         1 NMat=      40 IRICut=       1 DoRegI=T DoRafI=F ISym2E= 0 IDoP0=3 IntGTp=3.
 FoFCou: FMM=T IPFlag=           0 FMFlag=      100000 FMFlg1=        2001
         NFxFlg=           0 DoJE=F BraDBF=F KetDBF=F FulRan=T
         wScrn=  0.000000 ICntrl=       500 IOpCl=  0 I1Cent=           0 NGrid=           0
         NMat0=   20 NMatS0=     20 NMatT0=    0 NMatD0=   20 NMtDS0=    0 NMtDT0=    0
 Symmetry not used in FoFCou.
 FMM levels:  10  Number of levels for PrismC:   9
 New state      1 was old state      7
 New state      2 was old state      6
 New state      3 was old state      2
 New state      4 was old state      1
 New state      5 was old state      3
 Excitation Energies [eV] at current iteration:
 Root      1 :     2.613317264267335
 Root      2 :     2.618107851553668
 Root      3 :     2.657113368785893
 Root      4 :     2.658028102193056
 Root      5 :     2.713337472380921
 Root      6 :     2.737339216621887
 Root      7 :     3.455808382795650
 Root      8 :     3.539152919338965
 Root      9 :     3.626671594544422
 Root     10 :     3.672973994209886
 Root     11 :     3.740563872559767
 Root     12 :     3.756511912228938
 Root     13 :     4.301706769096152
 Root     14 :     4.309894397486748
 Root     15 :     4.565537833220593
 Root     16 :     4.637881540660060
 Root     17 :     4.881266937811287
 Root     18 :     4.910597951959884
 Root     19 :     4.962570843089704
 Root     20 :     4.993442270127720
 Iteration     2 Dimension    30 NMult    20 NNew     10
 CISAX will form    10 AO SS matrices at one time.
 NMat=    10 NSing=    10 JSym2X= 0.
 New state      1 was old state      3
 Root      1 not converged, maximum delta is    0.147706271011760
 New state      2 was old state      5
 Root      2 not converged, maximum delta is    0.154373471444261
 New state      3 was old state      2
 Root      3 not converged, maximum delta is    0.078713156007697
 New state      4 was old state      1
 Root      4 not converged, maximum delta is    0.110467770858839
 New state      5 was old state      4
 Root      5 not converged, maximum delta is    0.017033630483896
 Excitation Energies [eV] at current iteration:
 Root      1 :     1.789328046090209   Change is   -0.867785322695683
 Root      2 :     1.817384928349519   Change is   -0.895952544031402
 Root      3 :     2.234924714505030   Change is   -0.383183137048638
 Root      4 :     2.239950157663322   Change is   -0.373367106604012
 Root      5 :     2.655728973872671   Change is   -0.002299128320385
 Iteration     3 Dimension    40 NMult    30 NNew     10
 CISAX will form    10 AO SS matrices at one time.
 NMat=    10 NSing=    10 JSym2X= 0.
 Root      1 not converged, maximum delta is    0.055311624924266
 Root      2 not converged, maximum delta is    0.056322538495529
 Root      3 not converged, maximum delta is    0.044260499860895
 Root      4 not converged, maximum delta is    0.041395857873188
 Root      5 has converged.
 Excitation Energies [eV] at current iteration:
 Root      1 :     1.682964710139745   Change is   -0.106363335950465
 Root      2 :     1.708534380575284   Change is   -0.108850547774235
 Root      3 :     2.193375442962305   Change is   -0.041549271542724
 Root      4 :     2.201724397781654   Change is   -0.038225759881668
 Root      5 :     2.655724933812664   Change is   -0.000004040060007
 Iteration     4 Dimension    48 NMult    40 NNew      8
 CISAX will form     8 AO SS matrices at one time.
 NMat=     8 NSing=     8 JSym2X= 0.
 Root      1 not converged, maximum delta is    0.010595789206449
 Root      2 not converged, maximum delta is    0.010378103566530
 Root      3 not converged, maximum delta is    0.009831748331948
 Root      4 not converged, maximum delta is    0.008602967791597
 Root      5 has converged.
 Excitation Energies [eV] at current iteration:
 Root      1 :     1.666222587339334   Change is   -0.016742122800410
 Root      2 :     1.691690652200093   Change is   -0.016843728375192
 Root      3 :     2.186039191344317   Change is   -0.007336251617988
 Root      4 :     2.195040753296169   Change is   -0.006683644485486
 Root      5 :     2.655724926930291   Change is   -0.000000006882373
 Iteration     5 Dimension    56 NMult    48 NNew      8
 CISAX will form     8 AO SS matrices at one time.
 NMat=     8 NSing=     8 JSym2X= 0.
 Root      1 not converged, maximum delta is    0.001759822580241
 Root      2 not converged, maximum delta is    0.001760321881989
 Root      3 not converged, maximum delta is    0.002514458155754
 Root      4 not converged, maximum delta is    0.002331945569909
 Root      5 has converged.
 Excitation Energies [eV] at current iteration:
 Root      1 :     1.664461948128494   Change is   -0.001760639210840
 Root      2 :     1.689905327447320   Change is   -0.001785324752772
 Root      3 :     2.185192207561917   Change is   -0.000846983782400
 Root      4 :     2.194279424759096   Change is   -0.000761328537072
 Root      5 :     2.655724920960528   Change is   -0.000000005969763
 Iteration     6 Dimension    64 NMult    56 NNew      8
 CISAX will form     8 AO SS matrices at one time.
 NMat=     8 NSing=     8 JSym2X= 0.
 Root      1 not converged, maximum delta is    0.001075645287354
 Root      2 not converged, maximum delta is    0.001070594118361
 Root      3 not converged, maximum delta is    0.001077702646058
 Root      4 has converged.
 Root      5 has converged.
 Excitation Energies [eV] at current iteration:
 Root      1 :     1.664212108076198   Change is   -0.000249840052296
 Root      2 :     1.689648361588656   Change is   -0.000256965858664
 Root      3 :     2.185063020595481   Change is   -0.000129186966436
 Root      4 :     2.194163955256456   Change is   -0.000115469502641
 Root      5 :     2.655724919378953   Change is   -0.000000001581575
 Iteration     7 Dimension    70 NMult    64 NNew      6
 CISAX will form     6 AO SS matrices at one time.
 NMat=     6 NSing=     6 JSym2X= 0.
 Root      1 has converged.
 Root      2 has converged.
 Root      3 has converged.
 Root      4 has converged.
 Root      5 has converged.
 Excitation Energies [eV] at current iteration:
 Root      1 :     1.664187756404472   Change is   -0.000024351671727
[...]
 Alpha virt. eigenvalues --    1.84485   1.84642   1.84857   1.84860   1.85130
 Alpha virt. eigenvalues --    1.85248   1.85311   1.85389   1.85569   1.85583
 Alpha virt. eigenvalues --    1.85904   1.85993   1.86404   1.86484   1.86612
 Alpha virt. eigenvalues --    1.86738   1.86822   1.86957   1.87060   1.87163
 Alpha virt. eigenvalues --    1.87474   1.87574   1.87707   1.87851   1.87907
 Alpha virt. eigenvalues --    1.88076   1.88119   1.88267   1.88579   1.88655
 Alpha virt. eigenvalues --    1.88855   1.89010   1.89162   1.89204   1.89683
 Alpha virt. eigenvalues --    1.89723   1.89803   1.89955   1.90160   1.90265
 Alpha virt. eigenvalues --    1.90775   1.90983   1.91376   1.91476   1.91543
 Alpha virt. eigenvalues --    1.91658   1.92184   1.92265   1.92642   1.92752
 Alpha virt. eigenvalues --    1.93019   1.93249   1.93379   1.93623   1.94314
 Alpha virt. eigenvalues --    1.94449   1.94737   1.94907   1.95516   1.95729
 Alpha virt. eigenvalues --    1.95765   1.95906   1.96013   1.96154   1.96191
 Alpha virt. eigenvalues --    1.96255   1.96592   1.96627   1.96940   1.97015
 Alpha virt. eigenvalues --    1.97479   1.97668   1.97865   1.97908   1.98192
 Alpha virt. eigenvalues --    1.98251   1.98441   1.98683   1.99161   1.99166
 Alpha virt. eigenvalues --    1.99843   1.99996   2.00694   2.00835   2.01021
 Alpha virt. eigenvalues --    2.01168   2.01490   2.01636   2.01674   2.01707
 Alpha virt. eigenvalues --    2.01744   2.01897   2.02795   2.02817   2.03258
 Alpha virt. eigenvalues --    2.03271   2.03430   2.03451   2.03498   2.03598
 Alpha virt. eigenvalues --    2.04062   2.04116   2.05001   2.05072   2.05559
 Alpha virt. eigenvalues --    2.05719   2.06125   2.06356   2.06914   2.07093
 Alpha virt. eigenvalues --    2.07210   2.07446   2.08627   2.08653   2.09017
 Alpha virt. eigenvalues --    2.09082   2.09614   2.09686   2.10823   2.11177
 Alpha virt. eigenvalues --    2.11213   2.11498   2.11553   2.11596   2.11765
 Alpha virt. eigenvalues --    2.11928   2.12490   2.12537   2.12842   2.12865
 Alpha virt. eigenvalues --    2.12898   2.12958   2.13687   2.13777   2.14178
 Alpha virt. eigenvalues --    2.14368   2.15374   2.15496   2.15947   2.16163
 Alpha virt. eigenvalues --    2.16563   2.16681   2.16783   2.17258   2.17449
 Alpha virt. eigenvalues --    2.17740   2.17755   2.18005   2.18103   2.18125
 Alpha virt. eigenvalues --    2.18347   2.18730   2.18882   2.19303   2.19667
 Alpha virt. eigenvalues --    2.19886   2.20066   2.20232   2.20332   2.20502
 Alpha virt. eigenvalues --    2.21199   2.21312   2.21714   2.21760   2.21838
 Alpha virt. eigenvalues --    2.21947   2.22712   2.22784   2.23342   2.23455
 Alpha virt. eigenvalues --    2.24439   2.24538   2.25006   2.25116   2.26313
 Alpha virt. eigenvalues --    2.26508   2.26814   2.27092   2.27120   2.27277
 Alpha virt. eigenvalues --    2.28163   2.28380   2.29303   2.29522   2.29755
 Alpha virt. eigenvalues --    2.29947   2.30472   2.30678   2.30872   2.31102
 Alpha virt. eigenvalues --    2.31189   2.31310   2.32163   2.32332   2.33158
 Alpha virt. eigenvalues --    2.33292   2.33483   2.33579   2.34168   2.34248
 Alpha virt. eigenvalues --    2.35363   2.35376   2.35823   2.35966   2.36396
 Alpha virt. eigenvalues --    2.36398   2.36581   2.36658   2.37693   2.37816
 Alpha virt. eigenvalues --    2.38317   2.38459   2.38829   2.38874   2.39643
 Alpha virt. eigenvalues --    2.39740   2.40213   2.40387   2.40505   2.40881
 Alpha virt. eigenvalues --    2.41272   2.41281   2.41724   2.41804   2.42049
 Alpha virt. eigenvalues --    2.42190   2.42944   2.42991   2.43108   2.43523
 Alpha virt. eigenvalues --    2.44040   2.44198   2.44764   2.44872   2.44930
 Alpha virt. eigenvalues --    2.45063   2.45577   2.45649   2.46335   2.46358
 Alpha virt. eigenvalues --    2.46504   2.46567   2.46826   2.46861   2.47278
 Alpha virt. eigenvalues --    2.47479   2.47744   2.47974   2.49359   2.49493
 Alpha virt. eigenvalues --    2.50033   2.50112   2.50546   2.50598   2.51133
 Alpha virt. eigenvalues --    2.51325   2.51675   2.51910   2.52443   2.52453
 Alpha virt. eigenvalues --    2.52831   2.53224   2.53952   2.54048   2.54219
 Alpha virt. eigenvalues --    2.54340   2.54816   2.54900   2.55563   2.55740
 Alpha virt. eigenvalues --    2.57905   2.58142   2.58676   2.58981   2.60215
 Alpha virt. eigenvalues --    2.60345   2.60629   2.60969   2.61750   2.61888
 Alpha virt. eigenvalues --    2.62490   2.62554   2.62976   2.63198   2.63961
 Alpha virt. eigenvalues --    2.64265   2.64280   2.64551   2.65102   2.65179
 Alpha virt. eigenvalues --    2.65807   2.65905   2.66808   2.66931   2.66941
 Alpha virt. eigenvalues --    2.67120   2.67936   2.68059   2.68886   2.68890
 Alpha virt. eigenvalues --    2.69038   2.69079   2.69416   2.69678   2.70019
 Alpha virt. eigenvalues --    2.70227   2.70999   2.71128   2.71949   2.72070
 Alpha virt. eigenvalues --    2.72541   2.72668   2.72784   2.72820   2.73313
 Alpha virt. eigenvalues --    2.73395   2.73504   2.73508   2.74530   2.74580
 Alpha virt. eigenvalues --    2.74993   2.75110   2.76605   2.76621   2.77122
 Alpha virt. eigenvalues --    2.77244   2.77494   2.77641   2.78254   2.78325
 Alpha virt. eigenvalues --    2.78740   2.78759   2.79158   2.79198   2.80292
 Alpha virt. eigenvalues --    2.80384   2.80594   2.80726   2.81133   2.81204
 Alpha virt. eigenvalues --    2.81956   2.82027   2.82367   2.82410   2.83760
 Alpha virt. eigenvalues --    2.83821   2.83888   2.83946   2.84574   2.84598
 Alpha virt. eigenvalues --    2.84915   2.84971   2.85717   2.85743   2.86723
 Alpha virt. eigenvalues --    2.87019   2.87213   2.87601   2.88212   2.88265
 Alpha virt. eigenvalues --    2.88529   2.88707   2.88933   2.88961   2.90513
 Alpha virt. eigenvalues --    2.90728   2.91145   2.91220   2.93172   2.93365
 Alpha virt. eigenvalues --    2.93829   2.94226   2.94605   2.94649   2.95377
 Alpha virt. eigenvalues --    2.95503   2.95858   2.96191   2.96455   2.96470
 Alpha virt. eigenvalues --    2.96920   2.97169   2.97819   2.98081   2.98252
 Alpha virt. eigenvalues --    2.98382   2.98388   2.98619   2.98622   2.98844
 Alpha virt. eigenvalues --    2.98922   2.98993   2.99633   2.99883   3.00043
 Alpha virt. eigenvalues --    3.00047   3.00246   3.00396   3.00473   3.01038
 Alpha virt. eigenvalues --    3.01998   3.02020   3.02078   3.02136   3.02740
 Alpha virt. eigenvalues --    3.02836   3.02988   3.03341   3.03382   3.03754
 Alpha virt. eigenvalues --    3.04116   3.04203   3.04470   3.04515   3.04575
 Alpha virt. eigenvalues --    3.04816   3.05344   3.05404   3.06142   3.06227
 Alpha virt. eigenvalues --    3.06814   3.06993   3.07976   3.08201   3.09415
 Alpha virt. eigenvalues --    3.09437   3.09719   3.10445   3.10466   3.10773
 Alpha virt. eigenvalues --    3.11377   3.11568   3.11948   3.12061   3.12216
 Alpha virt. eigenvalues --    3.12337   3.13295   3.13679   3.13683   3.13769
 Alpha virt. eigenvalues --    3.14080   3.14492   3.15964   3.16166   3.17285
 Alpha virt. eigenvalues --    3.17571   3.17918   3.18142   3.19081   3.19172
 Alpha virt. eigenvalues --    3.22286   3.22620   3.23969   3.24479   3.24680
 Alpha virt. eigenvalues --    3.25229   3.26526   3.26707   3.27440   3.27640
 Alpha virt. eigenvalues --    3.29074   3.29240   3.31422   3.31547   3.33233
 Alpha virt. eigenvalues --    3.33445   3.40271   3.40600   3.42842   3.42873
 Alpha virt. eigenvalues --    3.48675   3.48738   3.50046   3.50332   3.50877
 Alpha virt. eigenvalues --    3.51503   3.56583   3.57049   3.59129   3.59404
 Alpha virt. eigenvalues --    3.62557   3.62857   3.66127   3.66260   3.67161
 Alpha virt. eigenvalues --    3.67558   3.73252   3.74043   3.76047   3.76705
          Condensed to atoms (all electrons):
 Mulliken charges:
               1
     1  Mg   0.837425
     2  C   -0.003487
     3  C   -0.094016
     4  C   -0.045632
     5  C   -0.063971
     6  N   -0.256828
     7  C   -0.052835
     8  C   -0.013876
     9  C   -0.086991
    10  C    0.046211
    11  C    0.104762
    12  C    0.053419
    13  C   -0.071784
    14  H    0.035701
    15  N   -0.433320
    16  C    0.168464
    17  C   -0.176784
    18  C   -0.003547
    19  C    0.148738
    20  C    0.110056
    21  C    0.012951
    22  O   -0.249278
    23  C    0.062128
    24  N   -0.341082
    25  C    0.041228
    26  C   -0.028293
    27  C   -0.023928
    28  C    0.074570
    29  C    0.076115
    30  C    0.035095
    31  C   -0.004514
    32  N   -0.310301
    33  C    0.079806
    34  C   -0.170110
    35  C    0.008235
    36  C    0.082257
    37  C    0.127408
    38  C    0.045620
    39  O   -0.188633
    40  C   -0.005110
    41  C    0.213124
    42  O   -0.258344
    43  O   -0.304517
    44  C    0.157760
    45  H   -0.017392
    46  H   -0.016444
    47  H   -0.041408
    48  H    0.000973
    49  H   -0.003897
    50  H    0.025513
    51  H    0.016581
    52  H    0.016796
    53  H    0.011167
    54  H    0.043243
    55  H    0.018112
    56  H    0.018265
    57  H    0.005791
    58  H    0.026957
    59  H    0.040612
    60  H    0.036998
    61  H    0.036205
    62  H    0.032828
    63  H    0.016927
    64  H    0.009558
    65  H    0.023476
    66  H    0.012536
    67  H    0.004830
    68  H    0.006747
    69  H    0.004766
    70  H    0.009430
    71  H    0.018166
    72  H    0.027998
    73  H    0.047242
    74  H    0.009201
    75  H    0.046138
    76  H    0.035328
    77  H    0.043224
    78  H    0.046524
    79  H    0.053094
    80  Mg   0.837641
    81  C   -0.017092
    82  C   -0.088113
    83  C   -0.045552
    84  C   -0.064735
    85  N   -0.254575
    86  C   -0.049842
    87  C   -0.015115
    88  C   -0.090447
    89  C    0.045668
    90  C    0.114482
    91  C    0.062589
    92  C   -0.077744
    93  H    0.034649
    94  N   -0.423382
    95  C    0.162787
    96  C   -0.174995
    97  C   -0.008144
    98  C    0.152081
    99  C    0.099509
   100  C    0.015387
   101  O   -0.253764
   102  C    0.061300
   103  N   -0.350134
   104  C    0.037544
   105  C   -0.019923
   106  C   -0.035678
   107  C    0.088703
   108  C    0.073984
   109  C    0.034967
   110  C   -0.007921
   111  N   -0.324173
   112  C    0.078548
   113  C   -0.162740
   114  C    0.002132
   115  C    0.096369
   116  C    0.131280
   117  C    0.042457
   118  O   -0.187905
   119  C    0.000908
   120  C    0.211227
   121  O   -0.251058
   122  O   -0.305668
   123  C    0.152096
   124  H   -0.020152
   125  H   -0.016038
   126  H   -0.038584
   127  H   -0.000819
   128  H   -0.004602
   129  H    0.022371
   130  H    0.014361
   131  H    0.015910
   132  H    0.013892
   133  H    0.037673
   134  H    0.020675
   135  H    0.019438
   136  H    0.008538
   137  H    0.025571
   138  H    0.039452
   139  H    0.037919
   140  H    0.035748
   141  H    0.034003
   142  H    0.014127
   143  H    0.014573
   144  H    0.024095
   145  H    0.010519
   146  H    0.007176
   147  H    0.008201
   148  H    0.006474
   149  H    0.010170
   150  H    0.018182
   151  H    0.028930
   152  H    0.045969
   153  H    0.010130
   154  H    0.047033
   155  H    0.034832
   156  H    0.043780
   157  H    0.049351
   158  H    0.053515
 Sum of Mulliken charges =  -0.00000
 Mulliken charges with hydrogens summed into heavy atoms:
               1
     1  Mg   0.837425
     2  C   -0.003487
     3  C   -0.111408
     4  C   -0.062076
     5  C   -0.105378
     6  N   -0.256828
     7  C   -0.052835
     8  C   -0.012903
     9  C   -0.090888
    10  C    0.046211
    11  C    0.163652
    12  C    0.107829
    13  C    0.000294
    15  N   -0.433320
    16  C    0.168464
    17  C   -0.176784
    18  C   -0.003547
    19  C    0.148738
    20  C    0.183416
    21  C    0.012951
    22  O   -0.249278
    23  C    0.168159
    24  N   -0.341082
    25  C    0.041228
    26  C   -0.011366
    27  C   -0.014370
    28  C    0.074570
    29  C    0.116957
    30  C    0.046607
    31  C    0.051079
    32  N   -0.310301
    33  C    0.079806
    34  C   -0.170110
    35  C    0.008235
    36  C    0.082257
    37  C    0.229990
    38  C    0.045620
    39  O   -0.188633
    40  C    0.030219
    41  C    0.213124
    42  O   -0.258344
    43  O   -0.304517
    44  C    0.300602
    80  Mg   0.837641
    81  C   -0.017092
    82  C   -0.108265
    83  C   -0.061590
    84  C   -0.103319
    85  N   -0.254575
    86  C   -0.049842
    87  C   -0.015934
    88  C   -0.095049
    89  C    0.045668
    90  C    0.167124
    91  C    0.114154
    92  C   -0.002982
    94  N   -0.423382
    95  C    0.162787
    96  C   -0.174995
    97  C   -0.008144
    98  C    0.152081
    99  C    0.173071
   100  C    0.015387
   101  O   -0.253764
   102  C    0.168971
   103  N   -0.350134
   104  C    0.037544
   105  C   -0.005796
   106  C   -0.021105
   107  C    0.088703
   108  C    0.115774
   109  C    0.049642
   110  C    0.049362
   111  N   -0.324173
   112  C    0.078548
   113  C   -0.162740
   114  C    0.002132
   115  C    0.096369
   116  C    0.234411
   117  C    0.042457
   118  O   -0.187905
   119  C    0.035740
   120  C    0.211227
   121  O   -0.251058
   122  O   -0.305668
   123  C    0.298742
 Electronic spatial extent (au):  <R**2>=         160993.0382
 Charge=             -0.0000 electrons
 Dipole moment (field-independent basis, Debye):
    X=              0.7212    Y=              6.5118    Z=             -4.7604  Tot=              8.0985
 Quadrupole moment (field-independent basis, Debye-Ang):
   XX=           -435.7115   YY=           -545.4516   ZZ=           -480.9963
   XY=            -29.5547   XZ=              3.0238   YZ=             -9.4722
 Traceless Quadrupole moment (field-independent basis, Debye-Ang):
   XX=             51.6750   YY=            -58.0651   ZZ=              6.3902
   XY=            -29.5547   XZ=              3.0238   YZ=             -9.4722
 Octapole moment (field-independent basis, Debye-Ang**2):
  XXX=           -579.2859  YYY=            303.8679  ZZZ=             -0.9746  XYY=           -146.4461
  XXY=            598.2321  XXZ=           -336.6894  XZZ=            260.5080  YZZ=           -111.3098
  YYZ=           -189.0230  XYZ=           -123.1017
 Hexadecapole moment (field-independent basis, Debye-Ang**3):
 XXXX=        -153054.3488 YYYY=         -33608.5673 ZZZZ=         -17913.9124 XXXY=          -2000.0876
 XXXZ=          -1304.5942 YYYX=           -699.4549 YYYZ=           -279.0401 ZZZX=            -79.0784
 ZZZY=            385.8997 XXYY=         -34853.8757 XXZZ=         -29375.8628 YYZZ=          -8290.3934
 XXYZ=          -1085.5710 YYXZ=           -511.7777 ZZXY=           -652.3468
 N-N= 1.429641090768D+04 E-N=-3.807403254515D+04  KE= 4.028802246500D+03
 Leave Link  601 at Sat Sep 11 03:12:37 2021, MaxMem= 23488102400 cpu:              15.8 elap:               0.8
 (Enter /sw/apps/gaussian-16.0/g16/l9999.exe)
 1\1\GINC-BP1-COMPUTE00089\SP\RCAM-B3LYP TD-FC\def2SVP\C68H72Mg2N8O8\OF
 15641\11-Sep-2021\0\\#p cam-b3lyp/Def2SVP td=(nstates=5)\\TDDFT excite
 d states in gaussian\\0,1\Mg,0,0.,0.,0.\C,0,-0.217,-2.218,2.801\C,0,-1
 .255,2.442,2.026\C,0,-0.245,1.85,-2.564\C,0,0.146,-2.824,-2.037\N,0,-0
 .617,-0.009,2.126\C,0,-0.594,-0.908,3.105\C,0,-0.936,-0.309,4.502\C,0,
 -1.773,0.964,4.032\C,0,-1.155,1.168,2.66\C,0,-3.263,0.685,3.863\C,0,0.
 345,0.11,5.299\C,0,0.124,0.397,6.787\H,0,1.168,0.033,7.733\N,0,-0.185,
 1.961,-0.152\C,0,-0.703,2.8,0.777\C,0,-0.62,4.156,0.193\C,0,-0.187,4.0
 15,-1.225\C,0,-0.214,2.583,-1.38\C,0,-0.887,5.406,0.974\C,0,0.181,5.01
 3,-2.277\O,0,0.303,4.69,-3.508\C,0,0.31,6.414,-1.837\N,0,-0.265,-0.413
 ,-2.029\C,0,-0.279,0.569,-2.937\C,0,-0.196,0.024,-4.332\C,0,0.124,-1.5
 33,-4.18\C,0,0.086,-1.632,-2.635\C,0,-1.451,0.205,-5.197\C,0,1.373,-2.
 07,-4.923\C,0,2.626,-1.49,-4.306\N,0,0.15,-2.144,0.303\C,0,0.173,-3.13
 6,-0.688\C,0,0.173,-4.438,0.004\C,0,0.133,-4.111,1.358\C,0,0.083,-2.69
 5,1.502\C,0,0.149,-5.715,-0.623\C,0,0.096,-4.629,2.716\O,0,0.208,-5.74
 7,3.221\C,0,-0.255,-3.428,3.701\C,0,0.717,-3.482,4.848\O,0,1.931,-3.25
 5,4.669\O,0,0.038,-3.556,6.003\C,0,0.943,-3.583,7.183\H,0,-1.859,3.22,
 2.497\H,0,-0.218,2.453,-3.474\H,0,0.276,-3.747,-2.605\H,0,-1.554,-0.94
 9,5.132\H,0,-1.585,1.831,4.665\H,0,-3.484,-0.377,3.969\H,0,-3.511,1.02
 7,2.858\H,0,-3.852,1.301,4.543\H,0,0.669,1.096,4.966\H,0,1.13,-0.639,5
 .189\H,0,-0.844,0.026,7.125\H,0,0.062,1.477,6.921\H,0,-1.344,5.186,1.9
 38\H,0,-1.651,5.963,0.432\H,0,0.007,6.02,1.084\H,0,-0.635,6.744,-1.405
 \H,0,0.665,6.97,-2.704\H,0,1.048,6.466,-1.036\H,0,0.608,0.501,-4.891\H
 ,0,-0.692,-2.156,-4.547\H,0,-1.267,0.74,-6.129\H,0,-2.204,0.714,-4.596
 \H,0,-1.967,-0.72,-5.453\H,0,1.356,-1.759,-5.967\H,0,1.452,-3.157,-4.9
 02\H,0,2.714,-0.522,-4.798\H,0,3.487,-2.121,-4.529\H,0,2.495,-1.303,-3
 .24\H,0,0.867,-6.333,-0.084\H,0,0.404,-5.642,-1.68\H,0,-0.891,-5.999,-
 0.463\H,0,-1.283,-3.581,4.028\H,0,0.698,-4.478,7.755\H,0,0.833,-2.619,
 7.68\H,0,2.,-3.754,6.976\Mg,0,13.14418,1.18598,0.98963\C,0,15.91695,-1
 .08776,1.13413\C,0,15.40211,3.72412,1.29655\C,0,10.7025,3.18545,1.3179
 6\C,0,11.08233,-1.49294,1.8369\N,0,15.34765,1.19099,1.18181\C,0,16.299
 05,0.26968,1.16259\C,0,17.74234,0.83687,1.09348\C,0,17.46125,2.287,1.7
 2357\C,0,15.98743,2.43394,1.35085\C,0,17.57611,2.31744,3.23857\C,0,18.
 27275,0.94355,-0.37937\C,0,19.77691,1.19573,-0.50452\H,0,20.4961,0.578
 37,-1.61542\N,0,13.06129,3.1575,0.77793\C,0,14.07804,4.03415,0.91567\C
 ,0,13.49683,5.36474,0.67926\C,0,12.02141,5.2165,0.55328\C,0,11.86571,3
 .81971,0.90661\C,0,14.33313,6.60042,0.51458\C,0,10.92973,6.17662,0.189
 13\O,0,9.69366,5.89231,0.37387\C,0,11.3538,7.4955,-0.303\N,0,11.20853,
 0.94174,1.70793\C,0,10.33146,1.96077,1.69189\C,0,8.93235,1.48112,1.996
 56\C,0,9.0131,-0.11602,1.9824\C,0,10.52996,-0.29066,1.74996\C,0,8.3438
 ,1.9489,3.32742\C,0,8.03006,-0.86205,1.03915\C,0,8.38321,-0.57839,-0.4
 0314\N,0,13.38675,-0.94705,1.23335\C,0,12.39818,-1.87964,1.61687\C,0,1
 3.06676,-3.18937,1.75843\C,0,14.41284,-2.92119,1.46753\C,0,14.5755,-1.
 53786,1.18569\C,0,12.44141,-4.40357,2.1594\C,0,15.73502,-3.49179,1.345
 19\O,0,16.19616,-4.63178,1.38391\C,0,16.78978,-2.30674,1.24753\C,0,17.
 72328,-2.60858,0.10736\O,0,17.30369,-2.63484,-1.06305\O,0,18.98993,-2.
 60122,0.56116\C,0,19.95375,-2.88471,-0.53542\H,0,15.99935,4.57864,1.61
 589\H,0,9.80696,3.81075,1.33988\H,0,10.49139,-2.39627,2.00259\H,0,18.4
 6896,0.30443,1.69539\H,0,18.05671,3.05283,1.23338\H,0,17.71226,1.32927
 ,3.65223\H,0,16.65169,2.75272,3.59498\H,0,18.37013,3.00548,3.54266\H,0
 ,17.88913,1.86692,-0.8321\H,0,18.00406,0.0727,-0.9451\H,0,20.30456,1.0
 1878,0.44058\H,0,19.93515,2.25818,-0.70498\H,0,15.3717,6.42723,0.82247
 \H,0,13.95703,7.33888,1.23089\H,0,14.27059,7.02036,-0.4916\H,0,11.9686
 6,7.98161,0.45073\H,0,10.435,8.00766,-0.59519\H,0,11.98991,7.35236,-1.
 18362\H,0,8.23741,1.80465,1.23139\H,0,8.79555,-0.54378,2.97211\H,0,7.3
 8704,2.49289,3.2144\H,0,9.07713,2.56884,3.82585\H,0,8.17195,1.16099,4.
 05876\H,0,7.01135,-0.49533,1.18714\H,0,8.01187,-1.93543,1.19578\H,0,7.
 89418,0.38181,-0.5927\H,0,7.99016,-1.35681,-1.054\H,0,9.46251,-0.42772
 ,-0.52175\H,0,12.81847,-5.17868,1.50554\H,0,11.35729,-4.32921,2.10517\
 H,0,12.7969,-4.47469,3.19082\H,0,17.31362,-2.25487,2.20277\H,0,20.5562
 4,-3.74131,-0.21772\H,0,20.48768,-1.93309,-0.71732\H,0,19.55198,-3.245
 57,-1.475\\Version=ES64L-G16RevA.03\State=1-A\HF=-4069.8120734\RMSD=5.
 095e-09\PG=C01 [X(C68H72Mg2N8O8)]\\@


 ACCORDING TO HEN3RY, LIFE IS MUCH LIKE A SEWER........
 YOU GET OUT OF IT JUST WHAT YOU PUT INTO IT...........
                         TOM LEHRER - (THE 3 IS SILENT)
 Job cpu time:       0 days 12 hours 31 minutes 31.6 seconds.
 Elapsed time:       0 days  0 hours 31 minutes 54.9 seconds.
 File lengths (MBytes):  RWF=  13225 Int=      0 D2E=      0 Chk=    574 Scr=      1
 Normal termination of Gaussian 16 at Sat Sep 11 03:12:38 2021.
