 Entering Gaussian System, Link 0=g16
 Initial command:
 /sw/apps/gaussian-16.0/g16/l1.exe "/tmp/Gau-70464.inp" -scrdir="/tmp/"
 Entering Link 1 = /sw/apps/gaussian-16.0/g16/l1.exe PID=     70465.
  
 Copyright (c) 1988,1990,1992,1993,1995,1998,2003,2009,2016,
            Gaussian, Inc.  All Rights Reserved.
  
 This is part of the Gaussian(R) 16 program.  It is based on
 the Gaussian(R) 09 system (copyright 2009, Gaussian, Inc.),
 the Gaussian(R) 03 system (copyright 2003, Gaussian, Inc.),
 the Gaussian(R) 98 system (copyright 1998, Gaussian, Inc.),
 the Gaussian(R) 94 system (copyright 1995, Gaussian, Inc.),
 the Gaussian 92(TM) system (copyright 1992, Gaussian, Inc.),
 the Gaussian 90(TM) system (copyright 1990, Gaussian, Inc.),
 the Gaussian 88(TM) system (copyright 1988, Gaussian, Inc.),
 the Gaussian 86(TM) system (copyright 1986, Carnegie Mellon
 University), and the Gaussian 82(TM) system (copyright 1983,
 Carnegie Mellon University). Gaussian is a federally registered
 trademark of Gaussian, Inc.
  
 This software contains proprietary and confidential information,
 including trade secrets, belonging to Gaussian, Inc.
  
 This software is provided under written license and may be
 used, copied, transmitted, or stored only in accord with that
 written license.
  
 The following legend is applicable only to US Government
 contracts under FAR:
  
                    RESTRICTED RIGHTS LEGEND
  
 Use, reproduction and disclosure by the US Government is
 subject to restrictions as set forth in subparagraphs (a)
 and (c) of the Commercial Computer Software - Restricted
 Rights clause in FAR 52.227-19.
  
 Gaussian, Inc.
 340 Quinnipiac St., Bldg. 40, Wallingford CT 06492
  
  
 ---------------------------------------------------------------
 Warning -- This program may not be used in any manner that
 competes with the business of Gaussian, Inc. or will provide
 assistance to any competitor of Gaussian, Inc.  The licensee
 of this program is prohibited from giving any competitor of
 Gaussian, Inc. access to this program.  By using this program,
 the user acknowledges that Gaussian, Inc. is engaged in the
 business of creating and licensing software in the field of
 computational chemistry and represents and warrants to the
 licensee that it is not a competitor of Gaussian, Inc. and that
 it will not use this program in any manner prohibited above.
 ---------------------------------------------------------------
  

 Cite this work as:
 Gaussian 16, Revision A.03,
 M. J. Frisch, G. W. Trucks, H. B. Schlegel, G. E. Scuseria, 
 M. A. Robb, J. R. Cheeseman, G. Scalmani, V. Barone, 
 G. A. Petersson, H. Nakatsuji, X. Li, M. Caricato, A. V. Marenich, 
 J. Bloino, B. G. Janesko, R. Gomperts, B. Mennucci, H. P. Hratchian, 
 J. V. Ortiz, A. F. Izmaylov, J. L. Sonnenberg, D. Williams-Young, 
 F. Ding, F. Lipparini, F. Egidi, J. Goings, B. Peng, A. Petrone, 
 T. Henderson, D. Ranasinghe, V. G. Zakrzewski, J. Gao, N. Rega, 
 G. Zheng, W. Liang, M. Hada, M. Ehara, K. Toyota, R. Fukuda, 
 J. Hasegawa, M. Ishida, T. Nakajima, Y. Honda, O. Kitao, H. Nakai, 
 T. Vreven, K. Throssell, J. A. Montgomery, Jr., J. E. Peralta, 
 F. Ogliaro, M. J. Bearpark, J. J. Heyd, E. N. Brothers, K. N. Kudin, 
 V. N. Staroverov, T. A. Keith, R. Kobayashi, J. Normand, 
 K. Raghavachari, A. P. Rendell, J. C. Burant, S. S. Iyengar, 
 J. Tomasi, M. Cossi, J. M. Millam, M. Klene, C. Adamo, R. Cammi, 
 J. W. Ochterski, R. L. Martin, K. Morokuma, O. Farkas, 
 J. B. Foresman, and D. J. Fox, Gaussian, Inc., Wallingford CT, 2016.
 
 ******************************************
 Gaussian 16:  ES64L-G16RevA.03 25-Dec-2016
                10-Sep-2021 
 ******************************************
 %nproc=24
 Will use up to   24 processors via shared memory.
 %mem=175gb
 -----------------------------------
 #p cam-b3lyp/Def2SVP td=(nstates=5)
 -----------------------------------
 1/38=1,172=1/1;
 2/12=2,17=6,18=5,40=1/2;
 3/5=43,7=101,11=9,25=1,30=1,74=-40/1,2,3,8;
 4//1;
 5/5=2,38=5/2;
 8/6=1,10=1,108=5/1;
 9/41=5,42=1,70=2/14;
 6/7=2,8=2,9=2,10=2/1;
 99/5=1,9=1/99;
 Leave Link    1 at Fri Sep 10 16:26:15 2021, MaxMem= 23488102400 cpu:               0.8 elap:               0.0
 (Enter /sw/apps/gaussian-16.0/g16/l101.exe)
 --------------------------------
 TDDFT excited states in gaussian
 --------------------------------
 Symbolic Z-matrix:
 Charge =  0 Multiplicity = 1
 Mg                    0.        0.        0. 
 C                    -0.217    -2.218     2.801 
 C                    -1.255     2.442     2.026 
 C                    -0.245     1.85     -2.564 
 C                     0.146    -2.824    -2.037 
 N                    -0.617    -0.009     2.126 
 C                    -0.594    -0.908     3.105 
 C                    -0.936    -0.309     4.502 
 C                    -1.773     0.964     4.032 
 C                    -1.155     1.168     2.66 
 C                    -3.263     0.685     3.863 
 C                     0.345     0.11      5.299 
 C                     0.124     0.397     6.787 
 H                     1.168     0.033     7.733 
 N                    -0.185     1.961    -0.152 
 C                    -0.703     2.8       0.777 
 C                    -0.62      4.156     0.193 
 C                    -0.187     4.015    -1.225 
 C                    -0.214     2.583    -1.38 
 C                    -0.887     5.406     0.974 
 C                     0.181     5.013    -2.277 
 O                     0.303     4.69     -3.508 
 C                     0.31      6.414    -1.837 
 N                    -0.265    -0.413    -2.029 
 C                    -0.279     0.569    -2.937 
 C                    -0.196     0.024    -4.332 
 C                     0.124    -1.533    -4.18 
 C                     0.086    -1.632    -2.635 
 C                    -1.451     0.205    -5.197 
 C                     1.373    -2.07     -4.923 
 C                     2.626    -1.49     -4.306 
 N                     0.15     -2.144     0.303 
 C                     0.173    -3.136    -0.688 
 C                     0.173    -4.438     0.004 
 C                     0.133    -4.111     1.358 
 C                     0.083    -2.695     1.502 
 C                     0.149    -5.715    -0.623 
 C                     0.096    -4.629     2.716 
 O                     0.208    -5.747     3.221 
 C                    -0.255    -3.428     3.701 
 C                     0.717    -3.482     4.848 
 O                     1.931    -3.255     4.669 
 O                     0.038    -3.556     6.003 
 C                     0.943    -3.583     7.183 
 H                    -1.859     3.22      2.497 
 H                    -0.218     2.453    -3.474 
 H                     0.276    -3.747    -2.605 
 H                    -1.554    -0.949     5.132 
 H                    -1.585     1.831     4.665 
 H                    -3.484    -0.377     3.969 
 H                    -3.511     1.027     2.858 
 H                    -3.852     1.301     4.543 
 H                     0.669     1.096     4.966 
 H                     1.13     -0.639     5.189 
 H                    -0.844     0.026     7.125 
 H                     0.062     1.477     6.921 
 H                    -1.344     5.186     1.938 
 H                    -1.651     5.963     0.432 
 H                     0.007     6.02      1.084 
 H                    -0.635     6.744    -1.405 
 H                     0.665     6.97     -2.704 
 H                     1.048     6.466    -1.036 
 H                     0.608     0.501    -4.891 
 H                    -0.692    -2.156    -4.547 
 H                    -1.267     0.74     -6.129 
 H                    -2.204     0.714    -4.596 
 H                    -1.967    -0.72     -5.453 
 H                     1.356    -1.759    -5.967 
 H                     1.452    -3.157    -4.902 
 H                     2.714    -0.522    -4.798 
 H                     3.487    -2.121    -4.529 
 H                     2.495    -1.303    -3.24 
 H                     0.867    -6.333    -0.084 
 H                     0.404    -5.642    -1.68 
 H                    -0.891    -5.999    -0.463 
 H                    -1.283    -3.581     4.028 
 H                     0.698    -4.478     7.755 
 H                     0.833    -2.619     7.68 
 H                     2.       -3.754     6.976 
 Mg                    10.51149   0.93895   0.80609 
 C                     8.01198   2.12829   3.09016 
 C                     12.77705   1.30233   3.32993 
 C                     12.80555   0.32768  -1.29891 
 C                     8.32893   1.74977  -1.78712 
 N                     10.30029   1.63359   2.89538 
 C                     9.29119   2.00118   3.67058 
 C                     9.65931   2.16878   5.16924 
 C                     11.23207   2.4462    5.00096 
 C                     11.46793   1.72122   3.67754 
 C                     11.56656   3.9158    4.80673 
 C                     9.39169   0.86479   5.99991 
 C                     9.43515   1.04936   7.5184 
 H                     8.51877   0.26491   8.34141 
 N                     12.39047   0.36428   1.08492 
 C                     13.15207   0.57514   2.17889 
 C                     14.46168  -0.02414   1.87899 
 C                     14.46301  -0.46073   0.45628 
 C                     13.19947   0.09101   0.01005 
 C                     15.52928  -0.2086    2.91805 
 C                     15.44557  -1.23436  -0.36973 
 O                     15.35225  -1.29394  -1.64667 
 C                     16.5731  -1.84252   0.35159 
 N                     10.65056   1.2198   -1.24918 
 C                     11.73847   0.81827  -1.92975 
 C                     11.49969   0.87047  -3.41993 
 C                     9.93692   1.16168  -3.59469 
 C                     9.54204   1.32306  -2.1103 
 C                     12.30187   1.92233  -4.18575 
 C                     9.12895   0.16517  -4.47037 
 C                     9.06019  -1.18247  -3.78879 
 N                     8.46387   1.61025   0.64905 
 C                     7.75419   1.91429  -0.53332 
 C                     6.43474   2.43945  -0.1263 
 C                     6.4773    2.42598   1.27602 
 C                     7.74199   1.9466    1.71218 
 C                     5.41309   2.89496  -1.00657 
 C                     5.74383   2.7183    2.4865 
 O                     4.59167   3.06656   2.74142 
 C                     6.75092   2.65772   3.71471 
 C                     6.10974   1.83857   4.80117 
 O                     5.88718   0.62687   4.63128 
 O                     6.06483   2.5653    5.93263 
 C                     5.44707   1.79157   7.04239 
 H                     13.60415   1.59333   3.97809 
 H                     13.52138   0.02865  -2.06811 
 H                     7.55562   1.93267  -2.53626 
 H                     9.18435   3.00834   5.66252 
 H                     11.8032   1.97873   5.79886 
 H                     10.67837   4.51985   4.6954 
 H                     12.17156   3.96388   3.91079 
 H                     12.20594   4.26774   5.62139 
 H                     10.23756   0.17752   5.86989 
 H                     8.45875   0.41747   5.71682 
 H                     9.40054   2.10715   7.80621 
 H                     10.40597   0.70422   7.88227 
 H                     15.30497   0.35799   3.83023 
 H                     16.44038   0.25662   2.52647 
 H                     15.7328  -1.26026   3.13077 
 H                     17.13179  -1.06617   0.86889 
 H                     17.11581  -2.42698  -0.3939 
 H                     16.17511  -2.51103   1.12315 
 H                     11.73386  -0.08041  -3.88265 
 H                     9.75493   2.13394  -4.07577 
 H                     12.91754   1.49464  -4.99945 
 H                     12.92305   2.45817  -3.48037 
 H                     11.71068   2.72269  -4.62746 
 H                     9.63458   0.00437  -5.42568 
 H                     8.12202   0.5029   -4.69178 
 H                     10.00938  -1.64922  -4.06856 
 H                     8.21356  -1.75661  -4.15975 
 H                     9.05593  -1.07215  -2.69817 
 H                     4.47942   2.49623  -0.63271 
 H                     5.60004   2.57799  -2.03046 
 H                     5.51938   3.97633  -0.88573 
 H                     6.941     3.68334   4.03339 
 H                     4.61218   2.38863   7.42207 
 H                     6.27049   1.57129   7.74752 
 H                     4.94613   0.86461   6.78892 
 
 ITRead=  0  0  0  0  0  0  0  0  0  0  0  0  0  0  0  0  0  0  0  0
 ITRead=  0  0  0  0  0  0  0  0  0  0  0  0  0  0  0  0  0  0  0  0
 ITRead=  0  0  0  0  0  0  0  0  0  0  0  0  0  0  0  0  0  0  0  0
 ITRead=  0  0  0  0  0  0  0  0  0  0  0  0  0  0  0  0  0  0  0  0
 ITRead=  0  0  0  0  0  0  0  0  0  0  0  0  0  0  0  0  0  0  0  0
 ITRead=  0  0  0  0  0  0  0  0  0  0  0  0  0  0  0  0  0  0  0  0
 ITRead=  0  0  0  0  0  0  0  0  0  0  0  0  0  0  0  0  0  0  0  0
 ITRead=  0  0  0  0  0  0  0  0  0  0  0  0  0  0  0  0  0  0
 MicOpt= -1 -1 -1 -1 -1 -1 -1 -1 -1 -1 -1 -1 -1 -1 -1 -1 -1 -1 -1 -1
 MicOpt= -1 -1 -1 -1 -1 -1 -1 -1 -1 -1 -1 -1 -1 -1 -1 -1 -1 -1 -1 -1
 MicOpt= -1 -1 -1 -1 -1 -1 -1 -1 -1 -1 -1 -1 -1 -1 -1 -1 -1 -1 -1 -1
 MicOpt= -1 -1 -1 -1 -1 -1 -1 -1 -1 -1 -1 -1 -1 -1 -1 -1 -1 -1 -1 -1
 MicOpt= -1 -1 -1 -1 -1 -1 -1 -1 -1 -1 -1 -1 -1 -1 -1 -1 -1 -1 -1 -1
 MicOpt= -1 -1 -1 -1 -1 -1 -1 -1 -1 -1 -1 -1 -1 -1 -1 -1 -1 -1 -1 -1
 MicOpt= -1 -1 -1 -1 -1 -1 -1 -1 -1 -1 -1 -1 -1 -1 -1 -1 -1 -1 -1 -1
 MicOpt= -1 -1 -1 -1 -1 -1 -1 -1 -1 -1 -1 -1 -1 -1 -1 -1 -1 -1
 NAtoms=    158 NQM=      158 NQMF=       0 NMMI=      0 NMMIF=      0
                NMic=       0 NMicF=      0.
                    Isotopes and Nuclear Properties:
 (Nuclear quadrupole moments (NQMom) in fm**2, nuclear magnetic moments (NMagM)
  in nuclear magnetons)

  Atom         1           2           3           4           5           6           7           8           9          10
 IAtWgt=          24          12          12          12          12          14          12          12          12          12
 AtmWgt=  23.9850450  12.0000000  12.0000000  12.0000000  12.0000000  14.0030740  12.0000000  12.0000000  12.0000000  12.0000000
 NucSpn=           0           0           0           0           0           2           0           0           0           0
 AtZEff=  -0.0000000  -0.0000000  -0.0000000  -0.0000000  -0.0000000  -0.0000000  -0.0000000  -0.0000000  -0.0000000  -0.0000000
 NQMom=    0.0000000   0.0000000   0.0000000   0.0000000   0.0000000   2.0440000   0.0000000   0.0000000   0.0000000   0.0000000
 NMagM=    0.0000000   0.0000000   0.0000000   0.0000000   0.0000000   0.4037610   0.0000000   0.0000000   0.0000000   0.0000000
 AtZNuc=  12.0000000   6.0000000   6.0000000   6.0000000   6.0000000   7.0000000   6.0000000   6.0000000   6.0000000   6.0000000

  Atom        11          12          13          14          15          16          17          18          19          20
 IAtWgt=          12          12          12           1          14          12          12          12          12          12
 AtmWgt=  12.0000000  12.0000000  12.0000000   1.0078250  14.0030740  12.0000000  12.0000000  12.0000000  12.0000000  12.0000000
 NucSpn=           0           0           0           1           2           0           0           0           0           0
 AtZEff=  -0.0000000  -0.0000000  -0.0000000  -0.0000000  -0.0000000  -0.0000000  -0.0000000  -0.0000000  -0.0000000  -0.0000000
 NQMom=    0.0000000   0.0000000   0.0000000   0.0000000   2.0440000   0.0000000   0.0000000   0.0000000   0.0000000   0.0000000
 NMagM=    0.0000000   0.0000000   0.0000000   2.7928460   0.4037610   0.0000000   0.0000000   0.0000000   0.0000000   0.0000000
 AtZNuc=   6.0000000   6.0000000   6.0000000   1.0000000   7.0000000   6.0000000   6.0000000   6.0000000   6.0000000   6.0000000

  Atom        21          22          23          24          25          26          27          28          29          30
 IAtWgt=          12          16          12          14          12          12          12          12          12          12
 AtmWgt=  12.0000000  15.9949146  12.0000000  14.0030740  12.0000000  12.0000000  12.0000000  12.0000000  12.0000000  12.0000000
 NucSpn=           0           0           0           2           0           0           0           0           0           0
 AtZEff=  -0.0000000  -0.0000000  -0.0000000  -0.0000000  -0.0000000  -0.0000000  -0.0000000  -0.0000000  -0.0000000  -0.0000000
 NQMom=    0.0000000   0.0000000   0.0000000   2.0440000   0.0000000   0.0000000   0.0000000   0.0000000   0.0000000   0.0000000
 NMagM=    0.0000000   0.0000000   0.0000000   0.4037610   0.0000000   0.0000000   0.0000000   0.0000000   0.0000000   0.0000000
 AtZNuc=   6.0000000   8.0000000   6.0000000   7.0000000   6.0000000   6.0000000   6.0000000   6.0000000   6.0000000   6.0000000

  Atom        31          32          33          34          35          36          37          38          39          40
 IAtWgt=          12          14          12          12          12          12          12          12          16          12
 AtmWgt=  12.0000000  14.0030740  12.0000000  12.0000000  12.0000000  12.0000000  12.0000000  12.0000000  15.9949146  12.0000000
 NucSpn=           0           2           0           0           0           0           0           0           0           0
 AtZEff=  -0.0000000  -0.0000000  -0.0000000  -0.0000000  -0.0000000  -0.0000000  -0.0000000  -0.0000000  -0.0000000  -0.0000000
 NQMom=    0.0000000   2.0440000   0.0000000   0.0000000   0.0000000   0.0000000   0.0000000   0.0000000   0.0000000   0.0000000
 NMagM=    0.0000000   0.4037610   0.0000000   0.0000000   0.0000000   0.0000000   0.0000000   0.0000000   0.0000000   0.0000000
 AtZNuc=   6.0000000   7.0000000   6.0000000   6.0000000   6.0000000   6.0000000   6.0000000   6.0000000   8.0000000   6.0000000

  Atom        41          42          43          44          45          46          47          48          49          50
 IAtWgt=          12          16          16          12           1           1           1           1           1           1
 AtmWgt=  12.0000000  15.9949146  15.9949146  12.0000000   1.0078250   1.0078250   1.0078250   1.0078250   1.0078250   1.0078250
 NucSpn=           0           0           0           0           1           1           1           1           1           1
 AtZEff=  -0.0000000  -0.0000000  -0.0000000  -0.0000000  -0.0000000  -0.0000000  -0.0000000  -0.0000000  -0.0000000  -0.0000000
 NQMom=    0.0000000   0.0000000   0.0000000   0.0000000   0.0000000   0.0000000   0.0000000   0.0000000   0.0000000   0.0000000
 NMagM=    0.0000000   0.0000000   0.0000000   0.0000000   2.7928460   2.7928460   2.7928460   2.7928460   2.7928460   2.7928460
 AtZNuc=   6.0000000   8.0000000   8.0000000   6.0000000   1.0000000   1.0000000   1.0000000   1.0000000   1.0000000   1.0000000

  Atom        51          52          53          54          55          56          57          58          59          60
 IAtWgt=           1           1           1           1           1           1           1           1           1           1
 AtmWgt=   1.0078250   1.0078250   1.0078250   1.0078250   1.0078250   1.0078250   1.0078250   1.0078250   1.0078250   1.0078250
 NucSpn=           1           1           1           1           1           1           1           1           1           1
 AtZEff=  -0.0000000  -0.0000000  -0.0000000  -0.0000000  -0.0000000  -0.0000000  -0.0000000  -0.0000000  -0.0000000  -0.0000000
 NQMom=    0.0000000   0.0000000   0.0000000   0.0000000   0.0000000   0.0000000   0.0000000   0.0000000   0.0000000   0.0000000
 NMagM=    2.7928460   2.7928460   2.7928460   2.7928460   2.7928460   2.7928460   2.7928460   2.7928460   2.7928460   2.7928460
 AtZNuc=   1.0000000   1.0000000   1.0000000   1.0000000   1.0000000   1.0000000   1.0000000   1.0000000   1.0000000   1.0000000

  Atom        61          62          63          64          65          66          67          68          69          70
 IAtWgt=           1           1           1           1           1           1           1           1           1           1
 AtmWgt=   1.0078250   1.0078250   1.0078250   1.0078250   1.0078250   1.0078250   1.0078250   1.0078250   1.0078250   1.0078250
 NucSpn=           1           1           1           1           1           1           1           1           1           1
 AtZEff=  -0.0000000  -0.0000000  -0.0000000  -0.0000000  -0.0000000  -0.0000000  -0.0000000  -0.0000000  -0.0000000  -0.0000000
 NQMom=    0.0000000   0.0000000   0.0000000   0.0000000   0.0000000   0.0000000   0.0000000   0.0000000   0.0000000   0.0000000
 NMagM=    2.7928460   2.7928460   2.7928460   2.7928460   2.7928460   2.7928460   2.7928460   2.7928460   2.7928460   2.7928460
 AtZNuc=   1.0000000   1.0000000   1.0000000   1.0000000   1.0000000   1.0000000   1.0000000   1.0000000   1.0000000   1.0000000

  Atom        71          72          73          74          75          76          77          78          79          80
 IAtWgt=           1           1           1           1           1           1           1           1           1          24
 AtmWgt=   1.0078250   1.0078250   1.0078250   1.0078250   1.0078250   1.0078250   1.0078250   1.0078250   1.0078250  23.9850450
 NucSpn=           1           1           1           1           1           1           1           1           1           0
 AtZEff=  -0.0000000  -0.0000000  -0.0000000  -0.0000000  -0.0000000  -0.0000000  -0.0000000  -0.0000000  -0.0000000  -0.0000000
 NQMom=    0.0000000   0.0000000   0.0000000   0.0000000   0.0000000   0.0000000   0.0000000   0.0000000   0.0000000   0.0000000
 NMagM=    2.7928460   2.7928460   2.7928460   2.7928460   2.7928460   2.7928460   2.7928460   2.7928460   2.7928460   0.0000000
 AtZNuc=   1.0000000   1.0000000   1.0000000   1.0000000   1.0000000   1.0000000   1.0000000   1.0000000   1.0000000  12.0000000

  Atom        81          82          83          84          85          86          87          88          89          90
 IAtWgt=          12          12          12          12          14          12          12          12          12          12
 AtmWgt=  12.0000000  12.0000000  12.0000000  12.0000000  14.0030740  12.0000000  12.0000000  12.0000000  12.0000000  12.0000000
 NucSpn=           0           0           0           0           2           0           0           0           0           0
 AtZEff=  -0.0000000  -0.0000000  -0.0000000  -0.0000000  -0.0000000  -0.0000000  -0.0000000  -0.0000000  -0.0000000  -0.0000000
 NQMom=    0.0000000   0.0000000   0.0000000   0.0000000   2.0440000   0.0000000   0.0000000   0.0000000   0.0000000   0.0000000
 NMagM=    0.0000000   0.0000000   0.0000000   0.0000000   0.4037610   0.0000000   0.0000000   0.0000000   0.0000000   0.0000000
 AtZNuc=   6.0000000   6.0000000   6.0000000   6.0000000   7.0000000   6.0000000   6.0000000   6.0000000   6.0000000   6.0000000

  Atom        91          92          93          94          95          96          97          98          99         100
 IAtWgt=          12          12           1          14          12          12          12          12          12          12
 AtmWgt=  12.0000000  12.0000000   1.0078250  14.0030740  12.0000000  12.0000000  12.0000000  12.0000000  12.0000000  12.0000000
 NucSpn=           0           0           1           2           0           0           0           0           0           0
 AtZEff=  -0.0000000  -0.0000000  -0.0000000  -0.0000000  -0.0000000  -0.0000000  -0.0000000  -0.0000000  -0.0000000  -0.0000000
 NQMom=    0.0000000   0.0000000   0.0000000   2.0440000   0.0000000   0.0000000   0.0000000   0.0000000   0.0000000   0.0000000
 NMagM=    0.0000000   0.0000000   2.7928460   0.4037610   0.0000000   0.0000000   0.0000000   0.0000000   0.0000000   0.0000000
 AtZNuc=   6.0000000   6.0000000   1.0000000   7.0000000   6.0000000   6.0000000   6.0000000   6.0000000   6.0000000   6.0000000

  Atom       101         102         103         104         105         106         107         108         109         110
 IAtWgt=          16          12          14          12          12          12          12          12          12          12
 AtmWgt=  15.9949146  12.0000000  14.0030740  12.0000000  12.0000000  12.0000000  12.0000000  12.0000000  12.0000000  12.0000000
 NucSpn=           0           0           2           0           0           0           0           0           0           0
 AtZEff=  -0.0000000  -0.0000000  -0.0000000  -0.0000000  -0.0000000  -0.0000000  -0.0000000  -0.0000000  -0.0000000  -0.0000000
 NQMom=    0.0000000   0.0000000   2.0440000   0.0000000   0.0000000   0.0000000   0.0000000   0.0000000   0.0000000   0.0000000
 NMagM=    0.0000000   0.0000000   0.4037610   0.0000000   0.0000000   0.0000000   0.0000000   0.0000000   0.0000000   0.0000000
 AtZNuc=   8.0000000   6.0000000   7.0000000   6.0000000   6.0000000   6.0000000   6.0000000   6.0000000   6.0000000   6.0000000

  Atom       111         112         113         114         115         116         117         118         119         120
 IAtWgt=          14          12          12          12          12          12          12          16          12          12
 AtmWgt=  14.0030740  12.0000000  12.0000000  12.0000000  12.0000000  12.0000000  12.0000000  15.9949146  12.0000000  12.0000000
 NucSpn=           2           0           0           0           0           0           0           0           0           0
 AtZEff=  -0.0000000  -0.0000000  -0.0000000  -0.0000000  -0.0000000  -0.0000000  -0.0000000  -0.0000000  -0.0000000  -0.0000000
 NQMom=    2.0440000   0.0000000   0.0000000   0.0000000   0.0000000   0.0000000   0.0000000   0.0000000   0.0000000   0.0000000
 NMagM=    0.4037610   0.0000000   0.0000000   0.0000000   0.0000000   0.0000000   0.0000000   0.0000000   0.0000000   0.0000000
 AtZNuc=   7.0000000   6.0000000   6.0000000   6.0000000   6.0000000   6.0000000   6.0000000   8.0000000   6.0000000   6.0000000

  Atom       121         122         123         124         125         126         127         128         129         130
 IAtWgt=          16          16          12           1           1           1           1           1           1           1
 AtmWgt=  15.9949146  15.9949146  12.0000000   1.0078250   1.0078250   1.0078250   1.0078250   1.0078250   1.0078250   1.0078250
 NucSpn=           0           0           0           1           1           1           1           1           1           1
 AtZEff=  -0.0000000  -0.0000000  -0.0000000  -0.0000000  -0.0000000  -0.0000000  -0.0000000  -0.0000000  -0.0000000  -0.0000000
 NQMom=    0.0000000   0.0000000   0.0000000   0.0000000   0.0000000   0.0000000   0.0000000   0.0000000   0.0000000   0.0000000
 NMagM=    0.0000000   0.0000000   0.0000000   2.7928460   2.7928460   2.7928460   2.7928460   2.7928460   2.7928460   2.7928460
 AtZNuc=   8.0000000   8.0000000   6.0000000   1.0000000   1.0000000   1.0000000   1.0000000   1.0000000   1.0000000   1.0000000

  Atom       131         132         133         134         135         136         137         138         139         140
 IAtWgt=           1           1           1           1           1           1           1           1           1           1
 AtmWgt=   1.0078250   1.0078250   1.0078250   1.0078250   1.0078250   1.0078250   1.0078250   1.0078250   1.0078250   1.0078250
 NucSpn=           1           1           1           1           1           1           1           1           1           1
 AtZEff=  -0.0000000  -0.0000000  -0.0000000  -0.0000000  -0.0000000  -0.0000000  -0.0000000  -0.0000000  -0.0000000  -0.0000000
 NQMom=    0.0000000   0.0000000   0.0000000   0.0000000   0.0000000   0.0000000   0.0000000   0.0000000   0.0000000   0.0000000
 NMagM=    2.7928460   2.7928460   2.7928460   2.7928460   2.7928460   2.7928460   2.7928460   2.7928460   2.7928460   2.7928460
 AtZNuc=   1.0000000   1.0000000   1.0000000   1.0000000   1.0000000   1.0000000   1.0000000   1.0000000   1.0000000   1.0000000

  Atom       141         142         143         144         145         146         147         148         149         150
 IAtWgt=           1           1           1           1           1           1           1           1           1           1
 AtmWgt=   1.0078250   1.0078250   1.0078250   1.0078250   1.0078250   1.0078250   1.0078250   1.0078250   1.0078250   1.0078250
 NucSpn=           1           1           1           1           1           1           1           1           1           1
 AtZEff=  -0.0000000  -0.0000000  -0.0000000  -0.0000000  -0.0000000  -0.0000000  -0.0000000  -0.0000000  -0.0000000  -0.0000000
 NQMom=    0.0000000   0.0000000   0.0000000   0.0000000   0.0000000   0.0000000   0.0000000   0.0000000   0.0000000   0.0000000
 NMagM=    2.7928460   2.7928460   2.7928460   2.7928460   2.7928460   2.7928460   2.7928460   2.7928460   2.7928460   2.7928460
 AtZNuc=   1.0000000   1.0000000   1.0000000   1.0000000   1.0000000   1.0000000   1.0000000   1.0000000   1.0000000   1.0000000

  Atom       151         152         153         154         155         156         157         158
 IAtWgt=           1           1           1           1           1           1           1           1
 AtmWgt=   1.0078250   1.0078250   1.0078250   1.0078250   1.0078250   1.0078250   1.0078250   1.0078250
 NucSpn=           1           1           1           1           1           1           1           1
 AtZEff=  -0.0000000  -0.0000000  -0.0000000  -0.0000000  -0.0000000  -0.0000000  -0.0000000  -0.0000000
 NQMom=    0.0000000   0.0000000   0.0000000   0.0000000   0.0000000   0.0000000   0.0000000   0.0000000
 NMagM=    2.7928460   2.7928460   2.7928460   2.7928460   2.7928460   2.7928460   2.7928460   2.7928460
 AtZNuc=   1.0000000   1.0000000   1.0000000   1.0000000   1.0000000   1.0000000   1.0000000   1.0000000
 Leave Link  101 at Fri Sep 10 16:26:15 2021, MaxMem= 23488102400 cpu:               3.3 elap:               0.2
 (Enter /sw/apps/gaussian-16.0/g16/l202.exe)
 Stoichiometry    C68H72Mg2N8O8
 Framework group  C1[X(C68H72Mg2N8O8)]
 Deg. of freedom   468
 Full point group                 C1      NOp   1
 Largest Abelian subgroup         C1      NOp   1
 Largest concise Abelian subgroup C1      NOp   1
                         Standard orientation:                         
 ---------------------------------------------------------------------
 Center     Atomic      Atomic             Coordinates (Angstroms)
 Number     Number       Type             X           Y           Z
 ---------------------------------------------------------------------
      1         12           0       -5.007233   -0.977273    0.055322
      2          6           0       -5.382799    1.977605    2.040230
      3          6           0       -6.026867    0.872807   -2.624345
      4          6           0       -5.120851   -3.667054   -1.620621
      5          6           0       -5.125253   -2.805604    3.019936
      6          7           0       -5.599729    1.146651   -0.140999
      7          6           0       -5.643101    2.187918    0.684260
      8          6           0       -5.917514    3.539563   -0.040397
      9          6           0       -6.647634    2.982705   -1.343790
     10          6           0       -6.029319    1.596712   -1.395123
     11          6           0       -8.157772    2.841186   -1.182676
     12          6           0       -4.596840    4.298287   -0.403566
     13          6           0       -4.776397    5.762672   -0.814283
     14          1           0       -3.757180    6.727662   -0.430433
     15          7           0       -5.025515   -1.269677   -1.898396
     16          6           0       -5.459810   -0.401328   -2.843195
     17          6           0       -5.267488   -1.082134   -4.141731
     18          6           0       -4.863480   -2.488229   -3.862862
     19          6           0       -5.014496   -2.539254   -2.431091
     20          6           0       -5.418174   -0.392246   -5.462753
     21          6           0       -4.422887   -3.611263   -4.747624
     22          8           0       -4.342263   -4.816265   -4.328048
     23          6           0       -4.169822   -3.274218   -6.160211
     24          7           0       -5.328488   -2.969892    0.588144
     25          6           0       -5.268286   -3.946382   -0.323901
     26          6           0       -5.247271   -5.298737    0.324663
     27          6           0       -5.059947   -5.036140    1.888538
     28          6           0       -5.089573   -3.487866    1.873064
     29          6           0       -6.491474   -6.168745    0.098707
     30          6           0       -3.869540   -5.744170    2.582832
     31          6           0       -2.564942   -5.176475    2.070148
     32          7           0       -5.037835   -0.520883    2.177071
     33          6           0       -5.110450   -1.437730    3.235746
     34          6           0       -5.214297   -0.653492    4.480034
     35          6           0       -5.211555    0.673520    4.054736
     36          6           0       -5.138740    0.715084    2.633025
     37          6           0       -5.354172   -1.186489    5.791821
     38          6           0       -5.278031    2.065547    4.469099
     39          8           0       -5.256582    2.649467    5.553567
     40          6           0       -5.514390    2.962828    3.174939
     41          6           0       -4.538227    4.106229    3.230155
     42          8           0       -3.311269    3.905692    3.121870
     43          8           0       -5.208545    5.266682    3.162587
     44          6           0       -4.296467    6.441355    3.182845
     45          1           0       -6.557008    1.289161   -3.483148
     46          1           0       -5.052228   -4.618351   -2.152376
     47          1           0       -5.080795   -3.306040    3.988977
     48          1           0       -6.581128    4.216998    0.497304
     49          1           0       -6.379360    3.550546   -2.234468
     50          1           0       -8.467608    3.024646   -0.153956
     51          1           0       -8.386469    1.815263   -1.471938
     52          1           0       -8.684561    3.477625   -1.894164
     53          1           0       -4.193339    3.893437   -1.331652
     54          1           0       -3.879992    4.239055    0.416157
     55          1           0       -5.768864    6.131058   -0.553113
     56          1           0       -4.744374    5.818590   -1.902423
     57          1           0       -5.881866    0.587228   -5.352462
     58          1           0       -6.137564   -0.969531   -6.043209
     59          1           0       -4.473813   -0.331019   -6.003830
     60          1           0       -5.078420   -2.862824   -6.600383
     61          1           0       -3.777973   -4.180748   -6.620111
     62          1           0       -3.421464   -2.482485   -6.205703
     63          1           0       -4.411518   -5.894442   -0.040138
     64          1           0       -5.930146   -5.353403    2.463666
     65          1           0       -6.272487   -7.137797   -0.350389
     66          1           0       -7.191655   -5.602611   -0.514913
     67          1           0       -7.087411   -6.354869    0.991810
     68          1           0       -3.871168   -6.807818    2.347046
     69          1           0       -3.883549   -5.645067    3.668296
     70          1           0       -2.399819   -5.737517    1.151019
     71          1           0       -1.763508   -5.357286    2.787241
     72          1           0       -2.667944   -4.126175    1.796752
     73          1           0       -4.685859   -0.607577    6.429150
     74          1           0       -5.105303   -2.247167    5.816878
     75          1           0       -6.412856   -1.001588    5.973082
     76          1           0       -6.548113    3.304772    3.215104
     77          1           0       -4.610899    7.077639    4.010195
     78          1           0       -4.318261    6.867923    2.179864
     79          1           0       -3.260258    6.242368    3.458551
     80         12           0        5.554142   -0.289688   -0.030806
     81          6           0        3.190311    1.914023   -1.591259
     82          6           0        7.869620    2.190814   -0.377570
     83          6           0        7.764651   -2.355608    0.924712
     84          6           0        3.421004   -2.924584   -0.838755
     85          7           0        5.425703    1.744917   -0.888795
     86          6           0        4.460166    2.496192   -1.396402
     87          6           0        4.857444    3.977113   -1.638533
     88          6           0        6.446253    3.781968   -1.766814
     89          6           0        6.604944    2.513301   -0.931370
     90          6           0        6.903055    3.480542   -3.184491
     91          6           0        4.488302    4.901038   -0.425223
     92          6           0        4.563793    6.402010   -0.713578
     93          1           0        3.592644    7.283762   -0.071827
     94          7           0        7.380008    0.021242    0.682000
     95          6           0        8.168627    1.093592    0.459709
     96          6           0        9.418883    0.831718    1.189393
     97          6           0        9.367502   -0.555727    1.725182
     98          6           0        8.151016   -1.034806    1.100108
     99          6           0       10.477969    1.876445    1.390201
    100          6           0       10.271331   -1.328225    2.637630
    101          8           0       10.159463   -2.597080    2.780200
    102          6           0       11.350462   -0.570074    3.287375
    103          7           0        5.694496   -2.360497   -0.150819
    104          6           0        6.736670   -3.015303    0.390524
    105          6           0        6.487136   -4.504241    0.424760
    106          6           0        4.953192   -4.692359    0.013397
    107          6           0        4.589622   -3.221696   -0.287196
    108          6           0        7.367992   -5.347742   -0.496641
    109          6           0        4.053559   -5.490023    0.996787
    110          6           0        3.877193   -4.712563    2.281257
    111          7           0        3.569842   -0.485349   -0.862865
    112          6           0        2.876020   -1.683302   -1.141443
    113          6           0        1.610782   -1.309190   -1.805986
    114          6           0        1.667187    0.090227   -1.889307
    115          6           0        2.890897    0.554030   -1.335318
    116          6           0        0.622367   -2.215336   -2.283552
    117          6           0        0.974523    1.279804   -2.329551
    118          8           0       -0.140817    1.514221   -2.793023
    119          6           0        1.985961    2.504516   -2.270590
    120          6           0        1.288869    3.650261   -1.589529
    121          8           0        0.961696    3.569376   -0.392438
    122          8           0        1.318492    4.726463   -2.396540
    123          6           0        0.648868    5.892059   -1.760267
    124          1           0        8.725529    2.812431   -0.641952
    125          1           0        8.443936   -3.104497    1.338521
    126          1           0        2.658113   -3.681398   -1.033438
    127          1           0        4.461367    4.410646   -2.548998
    128          1           0        6.983912    4.608905   -1.310239
    129          1           0        6.068615    3.329972   -3.853214
    130          1           0        7.500232    2.580684   -3.116077
    131          1           0        7.578953    4.264687   -3.537502
    132          1           0        5.270855    4.817097    0.339829
    133          1           0        3.517526    4.655314   -0.040741
    134          1           0        4.622867    6.612813   -1.788298
    135          1           0        5.505423    6.785373   -0.313102
    136          1           0       10.312797    2.746340    0.742580
    137          1           0       11.421225    1.448077    1.034341
    138          1           0       10.593110    2.163636    2.437542
    139          1           0       11.979044   -0.112794    2.526960
    140          1           0       11.833122   -1.273896    3.968226
    141          1           0       10.905131    0.249592    3.862210
    142          1           0        6.634131   -4.898140    1.422936
    143          1           0        4.849811   -5.241570   -0.933982
    144          1           0        7.936008   -6.131257    0.039585
    145          1           0        8.040301   -4.685790   -1.026142
    146          1           0        6.842662   -5.843378   -1.311234
    147          1           0        4.533234   -6.433548    1.268466
    148          1           0        3.076859   -5.730597    0.590370
    149          1           0        4.779919   -4.962268    2.846785
    150          1           0        2.980613   -5.037164    2.805479
    151          1           0        3.894169   -3.632754    2.093204
    152          1           0       -0.337882   -1.809340   -1.994438
    153          1           0        0.770453   -3.214507   -1.879201
    154          1           0        0.822028   -2.173420   -3.357628
    155          1           0        2.266472    2.747393   -3.296215
    156          1           0       -0.127761    6.231470   -2.452600
    157          1           0        1.458011    6.607447   -1.520976
    158          1           0        0.067794    5.708530   -0.864101
 ---------------------------------------------------------------------
 Rotational constants (GHZ):           0.0251823           0.0114558           0.0101305
 Leave Link  202 at Fri Sep 10 16:26:15 2021, MaxMem= 23488102400 cpu:               0.2 elap:               0.0
 (Enter /sw/apps/gaussian-16.0/g16/l301.exe)
 Standard basis: def2SVP (5D, 7F)
 Ernie: Thresh=  0.10000D-02 Tol=  0.10000D-05 Strict=F.
 There are  1658 symmetry adapted cartesian basis functions of A   symmetry.
 There are  1572 symmetry adapted basis functions of A   symmetry.
  1572 basis functions,  2678 primitive gaussians,  1658 cartesian basis functions
   312 alpha electrons      312 beta electrons
       nuclear repulsion energy     15306.5612385881 Hartrees.
 IExCor=20419 DFT=T Ex+Corr=CAM-B3LYP ExCW=0 ScaHFX=  1.000000
 ScaDFX=  1.000000  1.000000  1.000000  0.810000 ScalE2=  1.000000  1.000000
 IRadAn=      5 IRanWt=     -1 IRanGd=            0 ICorTp=0 IEmpDi=  4
 HFx  wShort=  0.000000 wLong=  0.330000 cFull=  0.190000 cShort=  0.000000 cLong=  0.460000
 DFx  wShort=  0.000000 wLong=  0.330000 cFull=  0.190000 cShort=  0.000000 cLong=  0.460000
 NAtoms=  158 NActive=  158 NUniq=  158 SFac= 1.00D+00 NAtFMM=   60 NAOKFM=T Big=T
 Integral buffers will be    131072 words long.
 Raffenetti 1 integral format.
 Two-electron integral symmetry is turned on.
 Leave Link  301 at Fri Sep 10 16:26:15 2021, MaxMem= 23488102400 cpu:               1.4 elap:               0.1
 (Enter /sw/apps/gaussian-16.0/g16/l302.exe)
 NPDir=0 NMtPBC=     1 NCelOv=     1 NCel=       1 NClECP=     1 NCelD=      1
         NCelK=      1 NCelE2=     1 NClLst=     1 CellRange=     0.0.
 One-electron integrals computed using PRISM.
 One-electron integral symmetry used in STVInt
   1 Symmetry operations used in ECPInt.
 ECPInt:  NShTT=  271216 NPrTT=  987664 LenC2=  144259 LenP2D=  306306.
 LDataN:  DoStor=T MaxTD1= 4 Len=   56
 NBasis=  1572 RedAO= T EigKep=  3.36D-04  NBF=  1572
 NBsUse=  1572 1.00D-06 EigRej= -1.00D+00 NBFU=  1572
 Precomputing XC quadrature grid using
 IXCGrd= 4 IRadAn=           5 IRanWt=          -1 IRanGd=           0 AccXCQ= 0.00D+00.
 Generated NRdTot=       0 NPtTot=           0 NUsed=           0 NTot=          32
 NSgBfM=  1428  1428  1428  1428  1428 MxSgAt=   158 MxSgA2=   158.
 Leave Link  302 at Fri Sep 10 16:26:21 2021, MaxMem= 23488102400 cpu:             133.7 elap:               5.6
 (Enter /sw/apps/gaussian-16.0/g16/l303.exe)
 DipDrv:  MaxL=1.
 Leave Link  303 at Fri Sep 10 16:26:21 2021, MaxMem= 23488102400 cpu:               9.3 elap:               0.4
 (Enter /sw/apps/gaussian-16.0/g16/l308.exe)
 Leave Link  308 at Fri Sep 10 16:26:22 2021, MaxMem= 23488102400 cpu:              13.2 elap:               0.6
 (Enter /sw/apps/gaussian-16.0/g16/l401.exe)
 ExpMin= 3.36D-02 ExpMax= 4.95D+03 ExpMxC= 7.45D+02 IAcc=3 IRadAn=         5 AccDes= 0.00D+00
 Harris functional with IExCor=20419 and IRadAn=       5 diagonalized for initial guess.
 HarFok:  IExCor=20419 AccDes= 0.00D+00 IRadAn=         5 IDoV= 1 UseB2=F ITyADJ=14
 ICtDFT=  3500011 ScaDFX=  1.000000  1.000000  1.000000  1.000000
 FoFCou: FMM=F IPFlag=           0 FMFlag=      100000 FMFlg1=        2001
         NFxFlg=           0 DoJE=T BraDBF=F KetDBF=T FulRan=T
         wScrn=  0.000000 ICntrl=       500 IOpCl=  0 I1Cent=   200000004 NGrid=           0
         NMat0=    1 NMatS0=      1 NMatT0=    0 NMatD0=    1 NMtDS0=    0 NMtDT0=    0
 Petite list used in FoFCou.
 Harris En= -3918.65840897121    
 JPrj=0 DoOrth=F DoCkMO=F.
 Leave Link  401 at Fri Sep 10 16:26:30 2021, MaxMem= 23488102400 cpu:             190.1 elap:               8.0
 (Enter /sw/apps/gaussian-16.0/g16/l502.exe)
 Integral symmetry usage will be decided dynamically.
 Closed shell SCF:
 Using DIIS extrapolation, IDIIS=  1040.
 NGot= 23488102400 LenX= 23482547354 LenY= 23479796732
 Requested convergence on RMS density matrix=1.00D-08 within 128 cycles.
 Requested convergence on MAX density matrix=1.00D-06.
 Requested convergence on             energy=1.00D-06.
 No special actions if energy rises.
 Fock matrices will be formed incrementally for  20 cycles.

 Cycle   1  Pass 1  IDiag  1:
 FoFJK:  IHMeth= 1 ICntrl=       0 DoSepK=T KAlg= 0 I1Cent=           0 FoldK=F
 IRaf=         1 NMat=       1 IRICut=       1 DoRegI=T DoRafI=F ISym2E= 0 IDoP0=0 IntGTp=1.
 FoFCou: FMM=T IPFlag=           0 FMFlag=      100000 FMFlg1=        2001
         NFxFlg=           0 DoJE=T BraDBF=F KetDBF=F FulRan=T
         wScrn=  0.000000 ICntrl=       500 IOpCl=  0 I1Cent=           0 NGrid=           0
         NMat0=    1 NMatS0=      1 NMatT0=    0 NMatD0=    1 NMtDS0=    0 NMtDT0=    0
 Symmetry not used in FoFCou.
 FMM levels:  10  Number of levels for PrismC:   9
 E= -4068.94899611679    
 DIIS: error= 2.04D-02 at cycle   1 NSaved=   1.
 NSaved= 1 IEnMin= 1 EnMin= -4068.94899611679     IErMin= 1 ErrMin= 2.04D-02
 ErrMax= 2.04D-02  0.00D+00 EMaxC= 1.00D-01 BMatC= 1.69D+00 BMatP= 1.69D+00
 IDIUse=3 WtCom= 7.96D-01 WtEn= 2.04D-01
 Coeff-Com:  0.100D+01
 Coeff-En:   0.100D+01
 Coeff:      0.100D+01
 Gap=     0.118 Goal=   None    Shift=    0.000
 GapD=    0.118 DampG=1.000 DampE=0.500 DampFc=0.5000 IDamp=-1.
 Damping current iteration by 5.00D-01
 RMSDP=1.57D-03 MaxDP=1.37D-01              OVMax= 1.93D-01

 Cycle   2  Pass 1  IDiag  1:
 RMSU=  7.68D-04    CP:  9.82D-01
 E= -4069.33800681418     Delta-E=       -0.389010697389 Rises=F Damp=T
 DIIS: error= 1.27D-02 at cycle   2 NSaved=   2.
 NSaved= 2 IEnMin= 2 EnMin= -4069.33800681418     IErMin= 2 ErrMin= 1.27D-02
 ErrMax= 1.27D-02  0.00D+00 EMaxC= 1.00D-01 BMatC= 3.07D-01 BMatP= 1.69D+00
 IDIUse=3 WtCom= 8.73D-01 WtEn= 1.27D-01
 Coeff-Com: -0.213D+00 0.121D+01
 Coeff-En:   0.000D+00 0.100D+01
 Coeff:     -0.186D+00 0.119D+01
 Gap=     0.134 Goal=   None    Shift=    0.000
 RMSDP=7.65D-04 MaxDP=9.12D-02 DE=-3.89D-01 OVMax= 1.89D-01

 Cycle   3  Pass 1  IDiag  1:
 RMSU=  7.31D-04    CP:  9.68D-01  1.25D+00
 E= -4069.62762968519     Delta-E=       -0.289622871009 Rises=F Damp=F
 DIIS: error= 1.63D-02 at cycle   3 NSaved=   3.
 NSaved= 3 IEnMin= 3 EnMin= -4069.62762968519     IErMin= 2 ErrMin= 1.27D-02
 ErrMax= 1.63D-02  0.00D+00 EMaxC= 1.00D-01 BMatC= 2.03D-01 BMatP= 3.07D-01
 IDIUse=3 WtCom= 8.37D-01 WtEn= 1.63D-01
 Coeff-Com: -0.268D+00 0.653D+00 0.614D+00
 Coeff-En:   0.000D+00 0.000D+00 0.100D+01
 Coeff:     -0.224D+00 0.547D+00 0.677D+00
 Gap=     0.119 Goal=   None    Shift=    0.000
 RMSDP=5.09D-04 MaxDP=4.95D-02 DE=-2.90D-01 OVMax= 1.35D-01

 Cycle   4  Pass 1  IDiag  1:
 RMSU=  2.67D-04    CP:  9.65D-01  1.55D+00  5.02D-01
 E= -4069.76302275360     Delta-E=       -0.135393068409 Rises=F Damp=F
 DIIS: error= 7.81D-03 at cycle   4 NSaved=   4.
 NSaved= 4 IEnMin= 4 EnMin= -4069.76302275360     IErMin= 4 ErrMin= 7.81D-03
 ErrMax= 7.81D-03  0.00D+00 EMaxC= 1.00D-01 BMatC= 5.30D-02 BMatP= 2.03D-01
 IDIUse=3 WtCom= 9.22D-01 WtEn= 7.81D-02
 Coeff-Com: -0.109D+00 0.227D+00 0.412D+00 0.470D+00
 Coeff-En:   0.000D+00 0.000D+00 0.228D+00 0.772D+00
 Coeff:     -0.101D+00 0.209D+00 0.397D+00 0.494D+00
 Gap=     0.119 Goal=   None    Shift=    0.000
 RMSDP=2.04D-04 MaxDP=2.24D-02 DE=-1.35D-01 OVMax= 5.86D-02

 Cycle   5  Pass 1  IDiag  1:
 RMSU=  7.78D-05    CP:  9.64D-01  1.49D+00  6.88D-01  5.41D-01
 E= -4069.80994180819     Delta-E=       -0.046919054592 Rises=F Damp=F
 DIIS: error= 8.71D-04 at cycle   5 NSaved=   5.
 NSaved= 5 IEnMin= 5 EnMin= -4069.80994180819     IErMin= 5 ErrMin= 8.71D-04
 ErrMax= 8.71D-04  0.00D+00 EMaxC= 1.00D-01 BMatC= 1.31D-03 BMatP= 5.30D-02
 IDIUse=3 WtCom= 9.91D-01 WtEn= 8.71D-03
 Coeff-Com: -0.367D-01 0.723D-01 0.171D+00 0.254D+00 0.540D+00
 Coeff-En:   0.000D+00 0.000D+00 0.000D+00 0.000D+00 0.100D+01
 Coeff:     -0.364D-01 0.716D-01 0.169D+00 0.252D+00 0.544D+00
 Gap=     0.118 Goal=   None    Shift=    0.000
 RMSDP=4.18D-05 MaxDP=4.44D-03 DE=-4.69D-02 OVMax= 1.53D-02

 Cycle   6  Pass 1  IDiag  1:
 RMSU=  3.03D-05    CP:  9.64D-01  1.50D+00  6.80D-01  6.15D-01  7.46D-01
 E= -4069.81105092041     Delta-E=       -0.001109112218 Rises=F Damp=F
 DIIS: error= 2.20D-04 at cycle   6 NSaved=   6.
 NSaved= 6 IEnMin= 6 EnMin= -4069.81105092041     IErMin= 6 ErrMin= 2.20D-04
 ErrMax= 2.20D-04  0.00D+00 EMaxC= 1.00D-01 BMatC= 1.73D-04 BMatP= 1.31D-03
 IDIUse=3 WtCom= 9.98D-01 WtEn= 2.20D-03
 Coeff-Com:  0.215D-02-0.648D-02 0.119D-01 0.413D-01 0.294D+00 0.657D+00
 Coeff-En:   0.000D+00 0.000D+00 0.000D+00 0.000D+00 0.829D-01 0.917D+00
 Coeff:      0.215D-02-0.646D-02 0.119D-01 0.412D-01 0.294D+00 0.657D+00
 Gap=     0.119 Goal=   None    Shift=    0.000
 RMSDP=1.56D-05 MaxDP=1.14D-03 DE=-1.11D-03 OVMax= 7.03D-03

 Cycle   7  Pass 1  IDiag  1:
 RMSU=  1.08D-05    CP:  9.64D-01  1.50D+00  6.86D-01  6.16D-01  8.41D-01
                    CP:  7.63D-01
 E= -4069.81123064734     Delta-E=       -0.000179726925 Rises=F Damp=F
 DIIS: error= 8.05D-05 at cycle   7 NSaved=   7.
 NSaved= 7 IEnMin= 7 EnMin= -4069.81123064734     IErMin= 7 ErrMin= 8.05D-05
 ErrMax= 8.05D-05  0.00D+00 EMaxC= 1.00D-01 BMatC= 2.16D-05 BMatP= 1.73D-04
 IDIUse=1 WtCom= 1.00D+00 WtEn= 0.00D+00
 Coeff-Com:  0.442D-02-0.969D-02-0.867D-02-0.295D-02 0.981D-01 0.337D+00
 Coeff-Com:  0.582D+00
 Coeff:      0.442D-02-0.969D-02-0.867D-02-0.295D-02 0.981D-01 0.337D+00
 Coeff:      0.582D+00
 Gap=     0.119 Goal=   None    Shift=    0.000
 RMSDP=6.49D-06 MaxDP=1.05D-03 DE=-1.80D-04 OVMax= 3.36D-03

 Cycle   8  Pass 1  IDiag  1:
 RMSU=  4.66D-06    CP:  9.64D-01  1.50D+00  6.86D-01  6.20D-01  8.45D-01
                    CP:  8.86D-01  8.08D-01
 E= -4069.81125695651     Delta-E=       -0.000026309172 Rises=F Damp=F
 DIIS: error= 5.44D-05 at cycle   8 NSaved=   8.
 NSaved= 8 IEnMin= 8 EnMin= -4069.81125695651     IErMin= 8 ErrMin= 5.44D-05
 ErrMax= 5.44D-05  0.00D+00 EMaxC= 1.00D-01 BMatC= 4.76D-06 BMatP= 2.16D-05
 IDIUse=1 WtCom= 1.00D+00 WtEn= 0.00D+00
 Coeff-Com:  0.216D-02-0.430D-02-0.778D-02-0.119D-01-0.107D-01 0.380D-01
 Coeff-Com:  0.338D+00 0.656D+00
 Coeff:      0.216D-02-0.430D-02-0.778D-02-0.119D-01-0.107D-01 0.380D-01
 Coeff:      0.338D+00 0.656D+00
 Gap=     0.119 Goal=   None    Shift=    0.000
 RMSDP=3.22D-06 MaxDP=3.16D-04 DE=-2.63D-05 OVMax= 1.15D-03

 Cycle   9  Pass 1  IDiag  1:
 RMSU=  1.89D-06    CP:  9.64D-01  1.50D+00  6.87D-01  6.22D-01  8.61D-01
                    CP:  9.11D-01  1.00D+00  9.38D-01
 E= -4069.81126437932     Delta-E=       -0.000007422808 Rises=F Damp=F
 DIIS: error= 1.94D-05 at cycle   9 NSaved=   9.
 NSaved= 9 IEnMin= 9 EnMin= -4069.81126437932     IErMin= 9 ErrMin= 1.94D-05
 ErrMax= 1.94D-05  0.00D+00 EMaxC= 1.00D-01 BMatC= 6.66D-07 BMatP= 4.76D-06
 IDIUse=1 WtCom= 1.00D+00 WtEn= 0.00D+00
 Coeff-Com:  0.469D-03-0.784D-03-0.272D-02-0.598D-02-0.205D-01-0.371D-01
 Coeff-Com:  0.100D+00 0.325D+00 0.641D+00
 Coeff:      0.469D-03-0.784D-03-0.272D-02-0.598D-02-0.205D-01-0.371D-01
 Coeff:      0.100D+00 0.325D+00 0.641D+00
 Gap=     0.119 Goal=   None    Shift=    0.000
 RMSDP=1.39D-06 MaxDP=1.61D-04 DE=-7.42D-06 OVMax= 7.17D-04

 Cycle  10  Pass 1  IDiag  1:
 RMSU=  9.13D-07    CP:  9.64D-01  1.50D+00  6.87D-01  6.22D-01  8.64D-01
                    CP:  9.25D-01  1.04D+00  1.10D+00  1.05D+00
 E= -4069.81126588177     Delta-E=       -0.000001502453 Rises=F Damp=F
 DIIS: error= 1.04D-05 at cycle  10 NSaved=  10.
 NSaved=10 IEnMin=10 EnMin= -4069.81126588177     IErMin=10 ErrMin= 1.04D-05
 ErrMax= 1.04D-05  0.00D+00 EMaxC= 1.00D-01 BMatC= 1.59D-07 BMatP= 6.66D-07
 IDIUse=1 WtCom= 1.00D+00 WtEn= 0.00D+00
 Coeff-Com: -0.390D-03 0.825D-03 0.109D-02 0.890D-03-0.393D-02-0.299D-01
 Coeff-Com: -0.418D-01-0.657D-01 0.255D+00 0.884D+00
 Coeff:     -0.390D-03 0.825D-03 0.109D-02 0.890D-03-0.393D-02-0.299D-01
 Coeff:     -0.418D-01-0.657D-01 0.255D+00 0.884D+00
 Gap=     0.119 Goal=   None    Shift=    0.000
 RMSDP=1.14D-06 MaxDP=1.15D-04 DE=-1.50D-06 OVMax= 5.71D-04

 Cycle  11  Pass 1  IDiag  1:
 RMSU=  5.09D-07    CP:  9.64D-01  1.50D+00  6.87D-01  6.22D-01  8.66D-01
                    CP:  9.35D-01  1.09D+00  1.20D+00  1.36D+00  1.36D+00
 E= -4069.81126658830     Delta-E=       -0.000000706528 Rises=F Damp=F
 DIIS: error= 3.87D-06 at cycle  11 NSaved=  11.
 NSaved=11 IEnMin=11 EnMin= -4069.81126658830     IErMin=11 ErrMin= 3.87D-06
 ErrMax= 3.87D-06  0.00D+00 EMaxC= 1.00D-01 BMatC= 5.77D-08 BMatP= 1.59D-07
 IDIUse=1 WtCom= 1.00D+00 WtEn= 0.00D+00
 Coeff-Com: -0.317D-03 0.617D-03 0.129D-02 0.204D-02 0.404D-02-0.806D-02
 Coeff-Com: -0.417D-01-0.129D+00-0.250D-01 0.461D+00 0.734D+00
 Coeff:     -0.317D-03 0.617D-03 0.129D-02 0.204D-02 0.404D-02-0.806D-02
 Coeff:     -0.417D-01-0.129D+00-0.250D-01 0.461D+00 0.734D+00
 Gap=     0.119 Goal=   None    Shift=    0.000
 RMSDP=6.68D-07 MaxDP=6.42D-05 DE=-7.07D-07 OVMax= 3.61D-04

 Cycle  12  Pass 1  IDiag  1:
 RMSU=  2.62D-07    CP:  9.64D-01  1.50D+00  6.87D-01  6.23D-01  8.67D-01
                    CP:  9.38D-01  1.11D+00  1.27D+00  1.52D+00  1.75D+00
                    CP:  1.18D+00
 E= -4069.81126683565     Delta-E=       -0.000000247353 Rises=F Damp=F
 DIIS: error= 2.21D-06 at cycle  12 NSaved=  12.
 NSaved=12 IEnMin=12 EnMin= -4069.81126683565     IErMin=12 ErrMin= 2.21D-06
 ErrMax= 2.21D-06  0.00D+00 EMaxC= 1.00D-01 BMatC= 1.37D-08 BMatP= 5.77D-08
 IDIUse=1 WtCom= 1.00D+00 WtEn= 0.00D+00
 Coeff-Com: -0.980D-05 0.344D-05 0.212D-03 0.553D-03 0.307D-02 0.376D-02
 Coeff-Com:  0.134D-02-0.366D-01-0.659D-01-0.627D-01 0.256D+00 0.901D+00
 Coeff:     -0.980D-05 0.344D-05 0.212D-03 0.553D-03 0.307D-02 0.376D-02
 Coeff:      0.134D-02-0.366D-01-0.659D-01-0.627D-01 0.256D+00 0.901D+00
 Gap=     0.119 Goal=   None    Shift=    0.000
 RMSDP=4.17D-07 MaxDP=2.75D-05 DE=-2.47D-07 OVMax= 2.44D-04

 Cycle  13  Pass 1  IDiag  1:
 RMSU=  1.65D-07    CP:  9.64D-01  1.50D+00  6.87D-01  6.23D-01  8.67D-01
                    CP:  9.38D-01  1.11D+00  1.29D+00  1.63D+00  1.98D+00
                    CP:  1.58D+00  1.27D+00
 E= -4069.81126692178     Delta-E=       -0.000000086129 Rises=F Damp=F
 DIIS: error= 1.20D-06 at cycle  13 NSaved=  13.
 NSaved=13 IEnMin=13 EnMin= -4069.81126692178     IErMin=13 ErrMin= 1.20D-06
 ErrMax= 1.20D-06  0.00D+00 EMaxC= 1.00D-01 BMatC= 7.91D-09 BMatP= 1.37D-08
 IDIUse=1 WtCom= 1.00D+00 WtEn= 0.00D+00
 Coeff-Com:  0.116D-03-0.237D-03-0.356D-03-0.428D-03 0.510D-03 0.506D-02
 Coeff-Com:  0.189D-01 0.224D-01-0.319D-01-0.242D+00-0.166D+00 0.595D+00
 Coeff-Com:  0.800D+00
 Coeff:      0.116D-03-0.237D-03-0.356D-03-0.428D-03 0.510D-03 0.506D-02
 Coeff:      0.189D-01 0.224D-01-0.319D-01-0.242D+00-0.166D+00 0.595D+00
 Coeff:      0.800D+00
 Gap=     0.119 Goal=   None    Shift=    0.000
 RMSDP=3.40D-07 MaxDP=2.11D-05 DE=-8.61D-08 OVMax= 1.98D-04

 Cycle  14  Pass 1  IDiag  1:
 RMSU=  7.73D-08    CP:  9.64D-01  1.50D+00  6.87D-01  6.23D-01  8.68D-01
                    CP:  9.39D-01  1.12D+00  1.32D+00  1.70D+00  2.18D+00
                    CP:  1.85D+00  1.80D+00  1.11D+00
 E= -4069.81126695767     Delta-E=       -0.000000035889 Rises=F Damp=F
 DIIS: error= 6.59D-07 at cycle  14 NSaved=  14.
 NSaved=14 IEnMin=14 EnMin= -4069.81126695767     IErMin=14 ErrMin= 6.59D-07
 ErrMax= 6.59D-07  0.00D+00 EMaxC= 1.00D-01 BMatC= 1.25D-09 BMatP= 7.91D-09
 IDIUse=1 WtCom= 1.00D+00 WtEn= 0.00D+00
 Coeff-Com:  0.670D-04-0.132D-03-0.250D-03-0.385D-03-0.481D-03 0.139D-02
 Coeff-Com:  0.108D-01 0.197D-01 0.407D-02-0.105D+00-0.150D+00 0.101D+00
 Coeff-Com:  0.416D+00 0.704D+00
 Coeff:      0.670D-04-0.132D-03-0.250D-03-0.385D-03-0.481D-03 0.139D-02
 Coeff:      0.108D-01 0.197D-01 0.407D-02-0.105D+00-0.150D+00 0.101D+00
 Coeff:      0.416D+00 0.704D+00
 Gap=     0.119 Goal=   None    Shift=    0.000
 RMSDP=1.04D-07 MaxDP=6.77D-06 DE=-3.59D-08 OVMax= 6.21D-05

 Cycle  15  Pass 1  IDiag  1:
 RMSU=  3.90D-08    CP:  9.64D-01  1.50D+00  6.87D-01  6.23D-01  8.68D-01
                    CP:  9.38D-01  1.12D+00  1.32D+00  1.71D+00  2.22D+00
                    CP:  1.95D+00  1.94D+00  1.36D+00  1.01D+00
 E= -4069.81126696195     Delta-E=       -0.000000004278 Rises=F Damp=F
 DIIS: error= 3.88D-07 at cycle  15 NSaved=  15.
 NSaved=15 IEnMin=15 EnMin= -4069.81126696195     IErMin=15 ErrMin= 3.88D-07
 ErrMax= 3.88D-07  0.00D+00 EMaxC= 1.00D-01 BMatC= 2.46D-10 BMatP= 1.25D-09
 IDIUse=1 WtCom= 1.00D+00 WtEn= 0.00D+00
 Coeff-Com:  0.793D-05-0.140D-04-0.428D-04-0.961D-04-0.314D-03-0.448D-03
 Coeff-Com:  0.147D-02 0.341D-02 0.889D-02-0.952D-03-0.365D-01-0.719D-01
 Coeff-Com:  0.332D-01 0.315D+00 0.748D+00
 Coeff:      0.793D-05-0.140D-04-0.428D-04-0.961D-04-0.314D-03-0.448D-03
 Coeff:      0.147D-02 0.341D-02 0.889D-02-0.952D-03-0.365D-01-0.719D-01
 Coeff:      0.332D-01 0.315D+00 0.748D+00
 Gap=     0.119 Goal=   None    Shift=    0.000
 RMSDP=4.35D-08 MaxDP=2.58D-06 DE=-4.28D-09 OVMax= 2.69D-05

 Cycle  16  Pass 1  IDiag  1:
 RMSU=  1.95D-08    CP:  9.64D-01  1.50D+00  6.87D-01  6.23D-01  8.68D-01
                    CP:  9.39D-01  1.12D+00  1.32D+00  1.72D+00  2.24D+00
                    CP:  1.98D+00  2.01D+00  1.44D+00  1.24D+00  1.12D+00
 E= -4069.81126696278     Delta-E=       -0.000000000833 Rises=F Damp=F
 DIIS: error= 1.97D-07 at cycle  16 NSaved=  16.
 NSaved=16 IEnMin=16 EnMin= -4069.81126696278     IErMin=16 ErrMin= 1.97D-07
 ErrMax= 1.97D-07  0.00D+00 EMaxC= 1.00D-01 BMatC= 8.54D-11 BMatP= 2.46D-10
 IDIUse=1 WtCom= 1.00D+00 WtEn= 0.00D+00
 Coeff-Com: -0.138D-04 0.280D-04 0.455D-04 0.506D-04-0.306D-04-0.639D-03
 Coeff-Com: -0.191D-02-0.418D-02 0.429D-02 0.265D-01 0.209D-01-0.650D-01
 Coeff-Com: -0.874D-01-0.292D-01 0.399D+00 0.738D+00
 Coeff:     -0.138D-04 0.280D-04 0.455D-04 0.506D-04-0.306D-04-0.639D-03
 Coeff:     -0.191D-02-0.418D-02 0.429D-02 0.265D-01 0.209D-01-0.650D-01
 Coeff:     -0.874D-01-0.292D-01 0.399D+00 0.738D+00
 Gap=     0.119 Goal=   None    Shift=    0.000
 RMSDP=2.34D-08 MaxDP=1.44D-06 DE=-8.33D-10 OVMax= 1.58D-05

 Cycle  17  Pass 1  IDiag  1:
 RMSU=  1.11D-08    CP:  9.64D-01  1.50D+00  6.87D-01  6.23D-01  8.68D-01
                    CP:  9.39D-01  1.12D+00  1.32D+00  1.72D+00  2.24D+00
                    CP:  1.99D+00  2.04D+00  1.49D+00  1.33D+00  1.43D+00
                    CP:  1.21D+00
 E= -4069.81126696324     Delta-E=       -0.000000000462 Rises=F Damp=F
 DIIS: error= 9.31D-08 at cycle  17 NSaved=  17.
 NSaved=17 IEnMin=17 EnMin= -4069.81126696324     IErMin=17 ErrMin= 9.31D-08
 ErrMax= 9.31D-08  0.00D+00 EMaxC= 1.00D-01 BMatC= 1.89D-11 BMatP= 8.54D-11
 IDIUse=1 WtCom= 1.00D+00 WtEn= 0.00D+00
 Coeff-Com: -0.789D-05 0.154D-04 0.310D-04 0.454D-04 0.792D-04-0.152D-03
 Coeff-Com: -0.106D-02-0.302D-02 0.989D-04 0.111D-01 0.190D-01-0.966D-02
 Coeff-Com: -0.427D-01-0.104D+00-0.208D-01 0.301D+00 0.849D+00
 Coeff:     -0.789D-05 0.154D-04 0.310D-04 0.454D-04 0.792D-04-0.152D-03
 Coeff:     -0.106D-02-0.302D-02 0.989D-04 0.111D-01 0.190D-01-0.966D-02
 Coeff:     -0.427D-01-0.104D+00-0.208D-01 0.301D+00 0.849D+00
 Gap=     0.119 Goal=   None    Shift=    0.000
 RMSDP=1.45D-08 MaxDP=9.31D-07 DE=-4.62D-10 OVMax= 8.35D-06

 Cycle  18  Pass 1  IDiag  1:
 RMSU=  5.33D-09    CP:  9.64D-01  1.50D+00  6.87D-01  6.23D-01  8.68D-01
                    CP:  9.39D-01  1.12D+00  1.32D+00  1.72D+00  2.24D+00
                    CP:  2.00D+00  2.05D+00  1.51D+00  1.40D+00  1.60D+00
                    CP:  1.60D+00  1.37D+00
 E= -4069.81126696308     Delta-E=        0.000000000160 Rises=F Damp=F
 DIIS: error= 5.37D-08 at cycle  18 NSaved=  18.
 NSaved=18 IEnMin=17 EnMin= -4069.81126696324     IErMin=18 ErrMin= 5.37D-08
 ErrMax= 5.37D-08  0.00D+00 EMaxC= 1.00D-01 BMatC= 6.95D-12 BMatP= 1.89D-11
 IDIUse=1 WtCom= 1.00D+00 WtEn= 0.00D+00
 Coeff-Com:  0.817D-06-0.197D-05 0.457D-07 0.473D-05 0.609D-04 0.151D-03
 Coeff-Com:  0.223D-03-0.198D-03-0.115D-02-0.437D-02 0.201D-02 0.180D-01
 Coeff-Com:  0.129D-01-0.409D-01-0.141D+00-0.134D+00 0.387D+00 0.902D+00
 Coeff:      0.817D-06-0.197D-05 0.457D-07 0.473D-05 0.609D-04 0.151D-03
 Coeff:      0.223D-03-0.198D-03-0.115D-02-0.437D-02 0.201D-02 0.180D-01
 Coeff:      0.129D-01-0.409D-01-0.141D+00-0.134D+00 0.387D+00 0.902D+00
 Gap=     0.119 Goal=   None    Shift=    0.000
 RMSDP=1.05D-08 MaxDP=8.15D-07 DE= 1.60D-10 OVMax= 7.37D-06

 Cycle  19  Pass 1  IDiag  1:
 RMSU=  3.24D-09    CP:  9.64D-01  1.50D+00  6.87D-01  6.23D-01  8.68D-01
                    CP:  9.39D-01  1.12D+00  1.32D+00  1.72D+00  2.24D+00
                    CP:  2.00D+00  2.05D+00  1.52D+00  1.44D+00  1.73D+00
                    CP:  1.87D+00  1.87D+00  1.22D+00
 E= -4069.81126696323     Delta-E=       -0.000000000153 Rises=F Damp=F
 DIIS: error= 3.78D-08 at cycle  19 NSaved=  19.
 NSaved=19 IEnMin=17 EnMin= -4069.81126696324     IErMin=19 ErrMin= 3.78D-08
 ErrMax= 3.78D-08  0.00D+00 EMaxC= 1.00D-01 BMatC= 2.83D-12 BMatP= 6.95D-12
 IDIUse=1 WtCom= 1.00D+00 WtEn= 0.00D+00
 Coeff-Com:  0.319D-05-0.648D-05-0.106D-04-0.125D-04 0.162D-04 0.150D-03
 Coeff-Com:  0.525D-03 0.874D-03-0.725D-03-0.706D-02-0.543D-02 0.151D-01
 Coeff-Com:  0.239D-01 0.782D-02-0.882D-01-0.207D+00-0.407D-01 0.591D+00
 Coeff-Com:  0.710D+00
 Coeff:      0.319D-05-0.648D-05-0.106D-04-0.125D-04 0.162D-04 0.150D-03
 Coeff:      0.525D-03 0.874D-03-0.725D-03-0.706D-02-0.543D-02 0.151D-01
 Coeff:      0.239D-01 0.782D-02-0.882D-01-0.207D+00-0.407D-01 0.591D+00
 Coeff:      0.710D+00
 Gap=     0.119 Goal=   None    Shift=    0.000
 RMSDP=6.46D-09 MaxDP=3.87D-07 DE=-1.53D-10 OVMax= 3.56D-06

 SCF Done:  E(RCAM-B3LYP) =  -4069.81126696     A.U. after   19 cycles
            NFock= 19  Conv=0.65D-08     -V/T= 2.0102
 KE= 4.028798506273D+03 PE=-4.009575140690D+04 EE= 1.669058039507D+04
 Leave Link  502 at Fri Sep 10 16:37:43 2021, MaxMem= 23488102400 cpu:           15544.2 elap:             673.2
 (Enter /sw/apps/gaussian-16.0/g16/l801.exe)
 DoSCS=F DFT=T ScalE2(SS,OS)=  1.000000  1.000000
 ExpMin= 3.36D-02 ExpMax= 4.95D+03 ExpMxC= 7.45D+02 IAcc=3 IRadAn=         5 AccDes= 0.00D+00
 HarFok:  IExCor=  205 AccDes= 0.00D+00 IRadAn=         5 IDoV=-2 UseB2=F ITyADJ=14
 ICtDFT= 12500011 ScaDFX=  1.000000  1.000000  1.000000  1.000000
 GSVD:  LWork=       -9588 too small for GESVD, short by       45590 words or       45590 for optimal perf.
 Largest valence mixing into a core orbital is  2.02D-04
 Largest core mixing into a valence orbital is  5.24D-05
 Range of M.O.s used for correlation:    95  1572
 NBasis=  1572 NAE=   312 NBE=   312 NFC=    94 NFV=     0
 NROrb=   1478 NOA=   218 NOB=   218 NVA=  1260 NVB=  1260
 Leave Link  801 at Fri Sep 10 16:37:44 2021, MaxMem= 23488102400 cpu:               9.2 elap:               0.4
 (Enter /sw/apps/gaussian-16.0/g16/l914.exe)
 RHF ground state
 Two-electron integrals replicated using symmetry.
 MDV= 23488102400 DFT=T DoStab=F Mixed=T DoRPA=T DoScal=F NonHer=T
 Making orbital integer symmetry assigments:
 Orbital symmetries:
       Occupied  (A) (A) (A) (A) (A) (A) (A) (A) (A) (A) (A) (A)
                 (A) (A) (A) (A) (A) (A) (A) (A) (A) (A) (A) (A)
                 (A) (A) (A) (A) (A) (A) (A) (A) (A) (A) (A) (A)
                 (A) (A) (A) (A) (A) (A) (A) (A) (A) (A) (A) (A)
                 (A) (A) (A) (A) (A) (A) (A) (A) (A) (A) (A) (A)
                 (A) (A) (A) (A) (A) (A) (A) (A) (A) (A) (A) (A)
                 (A) (A) (A) (A) (A) (A) (A) (A) (A) (A) (A) (A)
                 (A) (A) (A) (A) (A) (A) (A) (A) (A) (A) (A) (A)
                 (A) (A) (A) (A) (A) (A) (A) (A) (A) (A) (A) (A)
                 (A) (A) (A) (A) (A) (A) (A) (A) (A) (A) (A) (A)
                 (A) (A) (A) (A) (A) (A) (A) (A) (A) (A) (A) (A)
                 (A) (A) (A) (A) (A) (A) (A) (A) (A) (A) (A) (A)
                 (A) (A) (A) (A) (A) (A) (A) (A) (A) (A) (A) (A)
                 (A) (A) (A) (A) (A) (A) (A) (A) (A) (A) (A) (A)
                 (A) (A) (A) (A) (A) (A) (A) (A) (A) (A) (A) (A)
                 (A) (A) (A) (A) (A) (A) (A) (A) (A) (A) (A) (A)
                 (A) (A) (A) (A) (A) (A) (A) (A) (A) (A) (A) (A)
                 (A) (A) (A) (A) (A) (A) (A) (A) (A) (A) (A) (A)
                 (A) (A) (A) (A) (A) (A) (A) (A) (A) (A) (A) (A)
                 (A) (A) (A) (A) (A) (A) (A) (A) (A) (A) (A) (A)
                 (A) (A) (A) (A) (A) (A) (A) (A) (A) (A) (A) (A)
                 (A) (A) (A) (A) (A) (A) (A) (A) (A) (A) (A) (A)
                 (A) (A) (A) (A) (A) (A) (A) (A) (A) (A) (A) (A)
                 (A) (A) (A) (A) (A) (A) (A) (A) (A) (A) (A) (A)
                 (A) (A) (A) (A) (A) (A) (A) (A) (A) (A) (A) (A)
                 (A) (A) (A) (A) (A) (A) (A) (A) (A) (A) (A) (A)
       Virtual   (A) (A) (A) (A) (A) (A) (A) (A) (A) (A) (A) (A)
                 (A) (A) (A) (A) (A) (A) (A) (A) (A) (A) (A) (A)
                 (A) (A) (A) (A) (A) (A) (A) (A) (A) (A) (A) (A)
                 (A) (A) (A) (A) (A) (A) (A) (A) (A) (A) (A) (A)
                 (A) (A) (A) (A) (A) (A) (A) (A) (A) (A) (A) (A)
                 (A) (A) (A) (A) (A) (A) (A) (A) (A) (A) (A) (A)
                 (A) (A) (A) (A) (A) (A) (A) (A) (A) (A) (A) (A)
                 (A) (A) (A) (A) (A) (A) (A) (A) (A) (A) (A) (A)
                 (A) (A) (A) (A) (A) (A) (A) (A) (A) (A) (A) (A)
                 (A) (A) (A) (A) (A) (A) (A) (A) (A) (A) (A) (A)
                 (A) (A) (A) (A) (A) (A) (A) (A) (A) (A) (A) (A)
                 (A) (A) (A) (A) (A) (A) (A) (A) (A) (A) (A) (A)
                 (A) (A) (A) (A) (A) (A) (A) (A) (A) (A) (A) (A)
                 (A) (A) (A) (A) (A) (A) (A) (A) (A) (A) (A) (A)
                 (A) (A) (A) (A) (A) (A) (A) (A) (A) (A) (A) (A)
                 (A) (A) (A) (A) (A) (A) (A) (A) (A) (A) (A) (A)
                 (A) (A) (A) (A) (A) (A) (A) (A) (A) (A) (A) (A)
                 (A) (A) (A) (A) (A) (A) (A) (A) (A) (A) (A) (A)
                 (A) (A) (A) (A) (A) (A) (A) (A) (A) (A) (A) (A)
                 (A) (A) (A) (A) (A) (A) (A) (A) (A) (A) (A) (A)
                 (A) (A) (A) (A) (A) (A) (A) (A) (A) (A) (A) (A)
                 (A) (A) (A) (A) (A) (A) (A) (A) (A) (A) (A) (A)
                 (A) (A) (A) (A) (A) (A) (A) (A) (A) (A) (A) (A)
                 (A) (A) (A) (A) (A) (A) (A) (A) (A) (A) (A) (A)
                 (A) (A) (A) (A) (A) (A) (A) (A) (A) (A) (A) (A)
                 (A) (A) (A) (A) (A) (A) (A) (A) (A) (A) (A) (A)
                 (A) (A) (A) (A) (A) (A) (A) (A) (A) (A) (A) (A)
                 (A) (A) (A) (A) (A) (A) (A) (A) (A) (A) (A) (A)
                 (A) (A) (A) (A) (A) (A) (A) (A) (A) (A) (A) (A)
                 (A) (A) (A) (A) (A) (A) (A) (A) (A) (A) (A) (A)
                 (A) (A) (A) (A) (A) (A) (A) (A) (A) (A) (A) (A)
                 (A) (A) (A) (A) (A) (A) (A) (A) (A) (A) (A) (A)
                 (A) (A) (A) (A) (A) (A) (A) (A) (A) (A) (A) (A)
                 (A) (A) (A) (A) (A) (A) (A) (A) (A) (A) (A) (A)
                 (A) (A) (A) (A) (A) (A) (A) (A) (A) (A) (A) (A)
                 (A) (A) (A) (A) (A) (A) (A) (A) (A) (A) (A) (A)
                 (A) (A) (A) (A) (A) (A) (A) (A) (A) (A) (A) (A)
                 (A) (A) (A) (A) (A) (A) (A) (A) (A) (A) (A) (A)
                 (A) (A) (A) (A) (A) (A) (A) (A) (A) (A) (A) (A)
                 (A) (A) (A) (A) (A) (A) (A) (A) (A) (A) (A) (A)
                 (A) (A) (A) (A) (A) (A) (A) (A) (A) (A) (A) (A)
                 (A) (A) (A) (A) (A) (A) (A) (A) (A) (A) (A) (A)
                 (A) (A) (A) (A) (A) (A) (A) (A) (A) (A) (A) (A)
                 (A) (A) (A) (A) (A) (A) (A) (A) (A) (A) (A) (A)
                 (A) (A) (A) (A) (A) (A) (A) (A) (A) (A) (A) (A)
                 (A) (A) (A) (A) (A) (A) (A) (A) (A) (A) (A) (A)
                 (A) (A) (A) (A) (A) (A) (A) (A) (A) (A) (A) (A)
                 (A) (A) (A) (A) (A) (A) (A) (A) (A) (A) (A) (A)
                 (A) (A) (A) (A) (A) (A) (A) (A) (A) (A) (A) (A)
                 (A) (A) (A) (A) (A) (A) (A) (A) (A) (A) (A) (A)
                 (A) (A) (A) (A) (A) (A) (A) (A) (A) (A) (A) (A)
                 (A) (A) (A) (A) (A) (A) (A) (A) (A) (A) (A) (A)
                 (A) (A) (A) (A) (A) (A) (A) (A) (A) (A) (A) (A)
                 (A) (A) (A) (A) (A) (A) (A) (A) (A) (A) (A) (A)
                 (A) (A) (A) (A) (A) (A) (A) (A) (A) (A) (A) (A)
                 (A) (A) (A) (A) (A) (A) (A) (A) (A) (A) (A) (A)
                 (A) (A) (A) (A) (A) (A) (A) (A) (A) (A) (A) (A)
                 (A) (A) (A) (A) (A) (A) (A) (A) (A) (A) (A) (A)
                 (A) (A) (A) (A) (A) (A) (A) (A) (A) (A) (A) (A)
                 (A) (A) (A) (A) (A) (A) (A) (A) (A) (A) (A) (A)
                 (A) (A) (A) (A) (A) (A) (A) (A) (A) (A) (A) (A)
                 (A) (A) (A) (A) (A) (A) (A) (A) (A) (A) (A) (A)
                 (A) (A) (A) (A) (A) (A) (A) (A) (A) (A) (A) (A)
                 (A) (A) (A) (A) (A) (A) (A) (A) (A) (A) (A) (A)
                 (A) (A) (A) (A) (A) (A) (A) (A) (A) (A) (A) (A)
                 (A) (A) (A) (A) (A) (A) (A) (A) (A) (A) (A) (A)
                 (A) (A) (A) (A) (A) (A) (A) (A) (A) (A) (A) (A)
                 (A) (A) (A) (A) (A) (A) (A) (A) (A) (A) (A) (A)
                 (A) (A) (A) (A) (A) (A) (A) (A) (A) (A) (A) (A)
                 (A) (A) (A) (A) (A) (A) (A) (A) (A) (A) (A) (A)
                 (A) (A) (A) (A) (A) (A) (A) (A) (A) (A) (A) (A)
                 (A) (A) (A) (A) (A) (A) (A) (A) (A) (A) (A) (A)
                 (A) (A) (A) (A) (A) (A) (A) (A) (A) (A) (A) (A)
                 (A) (A) (A) (A) (A) (A) (A) (A) (A) (A) (A) (A)
                 (A) (A) (A) (A) (A) (A) (A) (A) (A) (A) (A) (A)
                 (A) (A) (A) (A) (A) (A) (A) (A) (A) (A) (A) (A)
                 (A) (A) (A) (A) (A) (A) (A) (A) (A) (A) (A) (A)
                 (A) (A) (A) (A) (A) (A) (A) (A) (A) (A) (A) (A)
                 (A) (A) (A) (A) (A) (A) (A) (A) (A) (A) (A) (A)
                 (A) (A) (A) (A) (A) (A) (A) (A) (A) (A) (A) (A)
                 (A) (A) (A) (A) (A) (A) (A) (A) (A) (A) (A) (A)
                 (A) (A) (A) (A) (A) (A) (A) (A) (A) (A) (A) (A)
                 (A) (A) (A) (A) (A) (A) (A) (A) (A) (A) (A) (A)
                 (A) (A) (A) (A) (A) (A) (A) (A) (A) (A) (A) (A)
                 (A) (A) (A) (A) (A) (A) (A) (A) (A) (A) (A) (A)
                 (A) (A) (A) (A) (A) (A) (A) (A) (A) (A) (A) (A)
                 (A) (A) (A) (A) (A) (A) (A) (A) (A) (A) (A) (A)
                 (A) (A) (A) (A) (A) (A) (A) (A) (A) (A) (A) (A)
                 (A) (A) (A) (A) (A) (A) (A) (A) (A) (A) (A) (A)
                 (A) (A) (A) (A) (A) (A) (A) (A) (A) (A) (A) (A)
                 (A) (A) (A) (A) (A) (A) (A) (A) (A) (A) (A) (A)
                 (A) (A) (A) (A) (A) (A) (A) (A) (A) (A) (A) (A)
                 (A) (A) (A) (A) (A) (A) (A) (A) (A) (A) (A) (A)
                 (A) (A) (A) (A) (A) (A) (A) (A) (A) (A) (A) (A)
                 (A) (A) (A) (A) (A) (A) (A) (A) (A) (A) (A) (A)
                 (A) (A) (A) (A) (A) (A) (A) (A) (A) (A) (A) (A)
                 (A) (A) (A) (A) (A) (A) (A) (A) (A) (A) (A) (A)
                 (A) (A) (A) (A) (A) (A) (A) (A) (A) (A) (A) (A)
                 (A) (A) (A) (A) (A) (A) (A) (A) (A) (A) (A) (A)
                 (A) (A) (A) (A) (A) (A) (A) (A) (A) (A) (A) (A)
                 (A) (A) (A) (A) (A) (A) (A) (A) (A) (A) (A) (A)
                 (A) (A) (A) (A) (A) (A) (A) (A) (A) (A) (A) (A)
                 (A) (A) (A) (A) (A) (A) (A) (A) (A) (A) (A) (A)
                 (A) (A) (A) (A) (A) (A) (A) (A) (A) (A) (A) (A)
                 (A) (A) (A) (A) (A) (A) (A) (A) (A) (A) (A) (A)
    20 initial guesses have been made.
 Convergence on wavefunction:    0.001000000000000
 Davidson Disk Diagonalization:  ConvIn= 1.00D-03 SkipCon=T Conv= 1.00D-03.
 Max sub-space:  2000 roots to seek:    20 dimension of matrix:       549360
 Iteration     1 Dimension    20 NMult     0 NNew     20
 CISAX will form    20 AO SS matrices at one time.
 NMat=    20 NSing=    20 JSym2X= 0.
 FoFJK:  IHMeth= 1 ICntrl=       0 DoSepK=T KAlg= 0 I1Cent=           0 FoldK=F
 IRaf=         1 NMat=      40 IRICut=       1 DoRegI=T DoRafI=F ISym2E= 0 IDoP0=3 IntGTp=3.
 FoFCou: FMM=T IPFlag=           0 FMFlag=      100000 FMFlg1=        2001
         NFxFlg=           0 DoJE=F BraDBF=F KetDBF=F FulRan=T
         wScrn=  0.000000 ICntrl=       500 IOpCl=  0 I1Cent=           0 NGrid=           0
         NMat0=   20 NMatS0=     20 NMatT0=    0 NMatD0=   20 NMtDS0=    0 NMtDT0=    0
 Symmetry not used in FoFCou.
 FMM levels:  10  Number of levels for PrismC:   9
 New state      2 was old state      7
 New state      3 was old state      6
 New state      5 was old state      2
 Excitation Energies [eV] at current iteration:
 Root      1 :     2.388625692192212
 Root      2 :     2.613028257088778
 Root      3 :     2.622312365811176
 Root      4 :     2.646036415448842
 Root      5 :     2.654592194379909
 Root      6 :     2.717084653722190
 Root      7 :     3.185644630957215
 Root      8 :     3.437454720847514
 Root      9 :     3.630034790656487
 Root     10 :     3.670387990980004
 Root     11 :     3.735858241231613
 Root     12 :     3.753845127801811
 Root     13 :     4.262294474192851
 Root     14 :     4.341370267436196
 Root     15 :     4.377662195743827
 Root     16 :     4.540236685330333
 Root     17 :     4.600761859897492
 Root     18 :     4.667403403509962
 Root     19 :     4.885957744864525
 Root     20 :     4.908272297594050
 Iteration     2 Dimension    30 NMult    20 NNew     10
 CISAX will form    10 AO SS matrices at one time.
 NMat=    10 NSing=    10 JSym2X= 0.
 New state      1 was old state      5
 Root      1 not converged, maximum delta is    0.141551173146354
 Root      2 not converged, maximum delta is    0.092935852566621
 Root      3 not converged, maximum delta is    0.121016114518295
 New state      4 was old state      1
 Root      4 not converged, maximum delta is    0.020418378523216
 New state      5 was old state      6
 Root      5 not converged, maximum delta is    0.352819962912749
 Excitation Energies [eV] at current iteration:
 Root      1 :     1.787230786444528   Change is   -0.867361407935381
 Root      2 :     2.219347642460614   Change is   -0.393680614628164
 Root      3 :     2.242246723778558   Change is   -0.380065642032618
 Root      4 :     2.385076780740546   Change is   -0.003548911451666
 Root      5 :     2.636102022389850   Change is   -0.080982631332341
 Iteration     3 Dimension    40 NMult    30 NNew     10
 CISAX will form    10 AO SS matrices at one time.
 NMat=    10 NSing=    10 JSym2X= 0.
 Root      1 not converged, maximum delta is    0.056541748353648
 New state      2 was old state      5
 Root      2 not converged, maximum delta is    0.351037323267401
 New state      3 was old state      2
 Root      3 not converged, maximum delta is    0.122050176073832
 New state      4 was old state      3
 Root      4 not converged, maximum delta is    0.120177766495173
 New state      5 was old state      4
 Root      5 not converged, maximum delta is    0.003557754059871
 Excitation Energies [eV] at current iteration:
 Root      1 :     1.680318627612811   Change is   -0.106912158831718
 Root      2 :     1.792992969417078   Change is   -0.843109052972772
 Root      3 :     2.190058891310368   Change is   -0.029288751150247
 Root      4 :     2.201544232824373   Change is   -0.040702490954185
 Root      5 :     2.385058640855885   Change is   -0.000018139884660
 Iteration     4 Dimension    50 NMult    40 NNew     10
 CISAX will form    10 AO SS matrices at one time.
 NMat=    10 NSing=    10 JSym2X= 0.
 Root      1 not converged, maximum delta is    0.011839489908636
 Root      2 not converged, maximum delta is    0.044417429243511
 Root      3 not converged, maximum delta is    0.027899351536185
 Root      4 not converged, maximum delta is    0.027434913639579
 Root      5 has converged.
 Excitation Energies [eV] at current iteration:
 Root      1 :     1.663175817557783   Change is   -0.017142810055027
 Root      2 :     1.706566843728536   Change is   -0.086426125688542
 Root      3 :     2.181066865668599   Change is   -0.008992025641768
 Root      4 :     2.194014043961281   Change is   -0.007530188863092
 Root      5 :     2.385055716286117   Change is   -0.000002924569769
 Iteration     5 Dimension    58 NMult    50 NNew      8
 CISAX will form     8 AO SS matrices at one time.
 NMat=     8 NSing=     8 JSym2X= 0.
 Root      1 not converged, maximum delta is    0.004751953428188
 Root      2 not converged, maximum delta is    0.012038635493359
 Root      3 not converged, maximum delta is    0.002297015850657
 Root      4 not converged, maximum delta is    0.002332636216901
 Root      5 has converged.
 Excitation Energies [eV] at current iteration:
 Root      1 :     1.661307279261230   Change is   -0.001868538296553
 Root      2 :     1.692334725451064   Change is   -0.014232118277472
 Root      3 :     2.180068459141046   Change is   -0.000998406527554
 Root      4 :     2.193178388977428   Change is   -0.000835654983853
 Root      5 :     2.385055654825559   Change is   -0.000000061460558
 Iteration     6 Dimension    66 NMult    58 NNew      8
 CISAX will form     8 AO SS matrices at one time.
 NMat=     8 NSing=     8 JSym2X= 0.
 Root      1 not converged, maximum delta is    0.001053125655883
 Root      2 not converged, maximum delta is    0.001314538904601
 Root      3 has converged.
 Root      4 has converged.
 Root      5 has converged.
 Excitation Energies [eV] at current iteration:
 Root      1 :     1.661049733607964   Change is   -0.000257545653266
 Root      2 :     1.690868296657630   Change is   -0.001466428793433
 Root      3 :     2.179912920310859   Change is   -0.000155538830187
 Root      4 :     2.193061358518926   Change is   -0.000117030458502
 Root      5 :     2.385055646591626   Change is   -0.000000008233933
 Iteration     7 Dimension    70 NMult    66 NNew      4
 CISAX will form     4 AO SS matrices at one time.
 NMat=     4 NSing=     4 JSym2X= 0.
 Root      1 has converged.
 Root      2 has converged.
 Root      3 has converged.
 Root      4 has converged.
 Root      5 has converged.
 Excitation Energies [eV] at current iteration:
 Root      1 :     1.661024486395961   Change is   -0.000025247212003
[...]
 Alpha virt. eigenvalues --    1.84576   1.84832   1.84914   1.85175   1.85341
 Alpha virt. eigenvalues --    1.85390   1.85525   1.85541   1.85808   1.85947
 Alpha virt. eigenvalues --    1.85958   1.86371   1.86428   1.86691   1.86817
 Alpha virt. eigenvalues --    1.86870   1.87039   1.87096   1.87265   1.87473
 Alpha virt. eigenvalues --    1.87531   1.87811   1.87936   1.88055   1.88200
 Alpha virt. eigenvalues --    1.88220   1.88365   1.88549   1.88610   1.88970
 Alpha virt. eigenvalues --    1.89047   1.89122   1.89348   1.89555   1.89702
 Alpha virt. eigenvalues --    1.89927   1.90126   1.90228   1.90271   1.90653
 Alpha virt. eigenvalues --    1.90945   1.91264   1.91467   1.91620   1.91812
 Alpha virt. eigenvalues --    1.91947   1.92224   1.92664   1.92709   1.93146
 Alpha virt. eigenvalues --    1.93197   1.93506   1.93549   1.93810   1.94357
 Alpha virt. eigenvalues --    1.94730   1.94854   1.95177   1.95640   1.95848
 Alpha virt. eigenvalues --    1.95899   1.96088   1.96204   1.96280   1.96527
 Alpha virt. eigenvalues --    1.96531   1.96608   1.96974   1.97081   1.97427
 Alpha virt. eigenvalues --    1.97578   1.97851   1.97940   1.98196   1.98318
 Alpha virt. eigenvalues --    1.98382   1.98731   1.99110   1.99209   1.99682
 Alpha virt. eigenvalues --    1.99971   2.00378   2.00779   2.01135   2.01179
 Alpha virt. eigenvalues --    2.01553   2.01573   2.01701   2.01875   2.02060
 Alpha virt. eigenvalues --    2.02152   2.02270   2.02754   2.03184   2.03280
 Alpha virt. eigenvalues --    2.03433   2.03588   2.03687   2.03945   2.04062
 Alpha virt. eigenvalues --    2.04088   2.04567   2.05022   2.05486   2.05672
 Alpha virt. eigenvalues --    2.06023   2.06330   2.06587   2.07068   2.07383
 Alpha virt. eigenvalues --    2.07521   2.07692   2.08596   2.09028   2.09078
 Alpha virt. eigenvalues --    2.09530   2.09661   2.10177   2.11070   2.11216
 Alpha virt. eigenvalues --    2.11455   2.11579   2.11724   2.11899   2.12092
 Alpha virt. eigenvalues --    2.12303   2.12503   2.12842   2.12904   2.13010
 Alpha virt. eigenvalues --    2.13352   2.13364   2.13663   2.14302   2.14402
 Alpha virt. eigenvalues --    2.14572   2.15463   2.15850   2.16122   2.16453
 Alpha virt. eigenvalues --    2.16648   2.16998   2.17259   2.17455   2.17686
 Alpha virt. eigenvalues --    2.17952   2.17971   2.18055   2.18210   2.18515
 Alpha virt. eigenvalues --    2.18773   2.18876   2.19281   2.19431   2.19868
 Alpha virt. eigenvalues --    2.20185   2.20345   2.20500   2.20653   2.20738
 Alpha virt. eigenvalues --    2.21214   2.21556   2.21818   2.21908   2.22174
 Alpha virt. eigenvalues --    2.22288   2.22767   2.23210   2.23385   2.23804
 Alpha virt. eigenvalues --    2.24458   2.24890   2.25045   2.25377   2.26475
 Alpha virt. eigenvalues --    2.26873   2.27047   2.27245   2.27284   2.27657
 Alpha virt. eigenvalues --    2.28342   2.28685   2.29479   2.29812   2.29916
 Alpha virt. eigenvalues --    2.30312   2.30642   2.30837   2.31034   2.31279
 Alpha virt. eigenvalues --    2.31595   2.31699   2.32283   2.32620   2.33269
 Alpha virt. eigenvalues --    2.33538   2.33692   2.33974   2.34198   2.34613
 Alpha virt. eigenvalues --    2.35330   2.35899   2.35940   2.36339   2.36394
 Alpha virt. eigenvalues --    2.36489   2.36793   2.37193   2.37722   2.38117
 Alpha virt. eigenvalues --    2.38422   2.38758   2.38812   2.39428   2.39707
 Alpha virt. eigenvalues --    2.40136   2.40301   2.40630   2.40872   2.41075
 Alpha virt. eigenvalues --    2.41246   2.41708   2.41836   2.42135   2.42181
 Alpha virt. eigenvalues --    2.42570   2.42865   2.43077   2.43372   2.44003
 Alpha virt. eigenvalues --    2.44020   2.44674   2.44837   2.45022   2.45269
 Alpha virt. eigenvalues --    2.45421   2.45623   2.46053   2.46362   2.46525
 Alpha virt. eigenvalues --    2.46812   2.46950   2.47018   2.47345   2.47543
 Alpha virt. eigenvalues --    2.47733   2.47923   2.48255   2.49425   2.49787
 Alpha virt. eigenvalues --    2.49950   2.50483   2.50495   2.51020   2.51292
 Alpha virt. eigenvalues --    2.51641   2.51700   2.52436   2.52449   2.53008
 Alpha virt. eigenvalues --    2.53193   2.53346   2.53998   2.54313   2.54425
 Alpha virt. eigenvalues --    2.54622   2.54839   2.55283   2.55689   2.56030
 Alpha virt. eigenvalues --    2.58100   2.58395   2.58924   2.59139   2.60316
 Alpha virt. eigenvalues --    2.60783   2.60943   2.61167   2.61843   2.62229
 Alpha virt. eigenvalues --    2.62460   2.63062   2.63172   2.63488   2.64234
 Alpha virt. eigenvalues --    2.64451   2.64491   2.64644   2.65124   2.65602
 Alpha virt. eigenvalues --    2.65881   2.66331   2.66849   2.67071   2.67240
 Alpha virt. eigenvalues --    2.67427   2.68004   2.68412   2.68845   2.69066
 Alpha virt. eigenvalues --    2.69365   2.69571   2.69630   2.69871   2.70161
 Alpha virt. eigenvalues --    2.70490   2.71108   2.71476   2.71961   2.72556
 Alpha virt. eigenvalues --    2.72570   2.72805   2.73215   2.73309   2.73354
 Alpha virt. eigenvalues --    2.73546   2.73706   2.74120   2.74528   2.75038
 Alpha virt. eigenvalues --    2.75082   2.75516   2.76543   2.77068   2.77078
 Alpha virt. eigenvalues --    2.77620   2.77794   2.77985   2.78312   2.78678
 Alpha virt. eigenvalues --    2.78714   2.79187   2.79273   2.79670   2.80286
 Alpha virt. eigenvalues --    2.80734   2.80870   2.81149   2.81190   2.81652
 Alpha virt. eigenvalues --    2.81968   2.82358   2.82484   2.82853   2.83865
 Alpha virt. eigenvalues --    2.83889   2.84287   2.84300   2.84567   2.84897
 Alpha virt. eigenvalues --    2.85072   2.85351   2.85706   2.86159   2.86665
 Alpha virt. eigenvalues --    2.87177   2.87461   2.88118   2.88253   2.88659
 Alpha virt. eigenvalues --    2.88695   2.88923   2.88979   2.89475   2.90673
 Alpha virt. eigenvalues --    2.90989   2.91088   2.91631   2.93328   2.93717
 Alpha virt. eigenvalues --    2.93789   2.94587   2.94719   2.95024   2.95476
 Alpha virt. eigenvalues --    2.95811   2.95920   2.96389   2.96683   2.96881
 Alpha virt. eigenvalues --    2.96933   2.97703   2.98044   2.98345   2.98405
 Alpha virt. eigenvalues --    2.98585   2.98688   2.98823   2.98896   2.99060
 Alpha virt. eigenvalues --    2.99231   2.99385   2.99802   3.00002   3.00077
 Alpha virt. eigenvalues --    3.00353   3.00590   3.00768   3.00993   3.01027
 Alpha virt. eigenvalues --    3.01912   3.02115   3.02396   3.02546   3.02832
 Alpha virt. eigenvalues --    3.03246   3.03315   3.03489   3.03701   3.03834
 Alpha virt. eigenvalues --    3.04071   3.04432   3.04587   3.04873   3.04953
 Alpha virt. eigenvalues --    3.05026   3.05367   3.05755   3.06174   3.06682
 Alpha virt. eigenvalues --    3.06941   3.07387   3.07933   3.08631   3.09366
 Alpha virt. eigenvalues --    3.09941   3.10240   3.10444   3.10751   3.10992
 Alpha virt. eigenvalues --    3.11484   3.11732   3.11932   3.12308   3.12507
 Alpha virt. eigenvalues --    3.12522   3.13668   3.13700   3.13919   3.14104
 Alpha virt. eigenvalues --    3.14477   3.14643   3.16009   3.16286   3.17511
 Alpha virt. eigenvalues --    3.17801   3.17887   3.18548   3.19039   3.19639
 Alpha virt. eigenvalues --    3.22633   3.22893   3.24422   3.24517   3.25177
 Alpha virt. eigenvalues --    3.25230   3.26663   3.27067   3.27402   3.28189
 Alpha virt. eigenvalues --    3.29278   3.29709   3.31383   3.32083   3.33197
 Alpha virt. eigenvalues --    3.33984   3.40292   3.41202   3.42824   3.43341
 Alpha virt. eigenvalues --    3.48680   3.49217   3.50287   3.50605   3.50843
 Alpha virt. eigenvalues --    3.52043   3.57007   3.57107   3.59351   3.59639
 Alpha virt. eigenvalues --    3.62514   3.63404   3.66121   3.66658   3.67594
 Alpha virt. eigenvalues --    3.67778   3.73864   3.74064   3.76634   3.76755
          Condensed to atoms (all electrons):
 Mulliken charges:
               1
     1  Mg   0.843029
     2  C    0.000199
     3  C   -0.089531
     4  C   -0.047657
     5  C   -0.065192
     6  N   -0.256459
     7  C   -0.050337
     8  C   -0.015565
     9  C   -0.088346
    10  C    0.049413
    11  C    0.105142
    12  C    0.052259
    13  C   -0.069944
    14  H    0.028422
    15  N   -0.433464
    16  C    0.173764
    17  C   -0.174094
    18  C   -0.004021
    19  C    0.147947
    20  C    0.110882
    21  C    0.011575
    22  O   -0.252191
    23  C    0.061848
    24  N   -0.341064
    25  C    0.041216
    26  C   -0.027693
    27  C   -0.023642
    28  C    0.074384
    29  C    0.076634
    30  C    0.035757
    31  C   -0.004644
    32  N   -0.310511
    33  C    0.080614
    34  C   -0.170529
    35  C    0.007735
    36  C    0.084280
    37  C    0.127411
    38  C    0.046614
    39  O   -0.190034
    40  C   -0.006074
    41  C    0.211237
    42  O   -0.251986
    43  O   -0.305755
    44  C    0.158416
    45  H   -0.018896
    46  H   -0.018912
    47  H   -0.043254
    48  H   -0.000807
    49  H   -0.003749
    50  H    0.024688
    51  H    0.015877
    52  H    0.015315
    53  H    0.019441
    54  H    0.048997
    55  H    0.016623
    56  H    0.017476
    57  H    0.005854
    58  H    0.024469
    59  H    0.042813
    60  H    0.036860
    61  H    0.033387
    62  H    0.034046
    63  H    0.014408
    64  H    0.008703
    65  H    0.021824
    66  H    0.012723
    67  H    0.004013
    68  H    0.004829
    69  H    0.004585
    70  H    0.005993
    71  H    0.016130
    72  H    0.031241
    73  H    0.046993
    74  H    0.007933
    75  H    0.044847
    76  H    0.033724
    77  H    0.041144
    78  H    0.044929
    79  H    0.054290
    80  Mg   0.839262
    81  C   -0.015909
    82  C   -0.087848
    83  C   -0.045474
    84  C   -0.064952
    85  N   -0.254595
    86  C   -0.049683
    87  C   -0.015264
    88  C   -0.090526
    89  C    0.046043
    90  C    0.114519
    91  C    0.062348
    92  C   -0.077740
    93  H    0.035027
    94  N   -0.423418
    95  C    0.163223
    96  C   -0.174675
    97  C   -0.007753
    98  C    0.152248
    99  C    0.099450
   100  C    0.015699
   101  O   -0.253263
   102  C    0.061121
   103  N   -0.350124
   104  C    0.037549
   105  C   -0.019831
   106  C   -0.034854
   107  C    0.088946
   108  C    0.073728
   109  C    0.034594
   110  C   -0.007574
   111  N   -0.324149
   112  C    0.078590
   113  C   -0.163637
   114  C    0.000979
   115  C    0.097610
   116  C    0.130369
   117  C    0.043710
   118  O   -0.190839
   119  C    0.000697
   120  C    0.209289
   121  O   -0.245322
   122  O   -0.306945
   123  C    0.151243
   124  H   -0.019967
   125  H   -0.015671
   126  H   -0.039776
   127  H   -0.001476
   128  H   -0.004346
   129  H    0.021850
   130  H    0.014348
   131  H    0.015920
   132  H    0.014401
   133  H    0.039512
   134  H    0.019815
   135  H    0.019479
   136  H    0.008630
   137  H    0.025876
   138  H    0.039990
   139  H    0.038046
   140  H    0.036311
   141  H    0.034187
   142  H    0.014408
   143  H    0.012525
   144  H    0.024972
   145  H    0.011420
   146  H    0.005624
   147  H    0.005848
   148  H    0.004138
   149  H    0.010765
   150  H    0.017498
   151  H    0.030910
   152  H    0.047766
   153  H    0.011157
   154  H    0.045412
   155  H    0.033410
   156  H    0.040573
   157  H    0.049305
   158  H    0.056683
 Sum of Mulliken charges =  -0.00000
 Mulliken charges with hydrogens summed into heavy atoms:
               1
     1  Mg   0.843029
     2  C    0.000199
     3  C   -0.108427
     4  C   -0.066569
     5  C   -0.108446
     6  N   -0.256459
     7  C   -0.050337
     8  C   -0.016372
     9  C   -0.092095
    10  C    0.049413
    11  C    0.161023
    12  C    0.120698
    13  C   -0.007422
    15  N   -0.433464
    16  C    0.173764
    17  C   -0.174094
    18  C   -0.004021
    19  C    0.147947
    20  C    0.184018
    21  C    0.011575
    22  O   -0.252191
    23  C    0.166142
    24  N   -0.341064
    25  C    0.041216
    26  C   -0.013285
    27  C   -0.014938
    28  C    0.074384
    29  C    0.115194
    30  C    0.045172
    31  C    0.048720
    32  N   -0.310511
    33  C    0.080614
    34  C   -0.170529
    35  C    0.007735
    36  C    0.084280
    37  C    0.227183
    38  C    0.046614
    39  O   -0.190034
    40  C    0.027650
    41  C    0.211237
    42  O   -0.251986
    43  O   -0.305755
    44  C    0.298779
    80  Mg   0.839262
    81  C   -0.015909
    82  C   -0.107816
    83  C   -0.061145
    84  C   -0.104728
    85  N   -0.254595
    86  C   -0.049683
    87  C   -0.016740
    88  C   -0.094872
    89  C    0.046043
    90  C    0.166637
    91  C    0.116261
    92  C   -0.003419
    94  N   -0.423418
    95  C    0.163223
    96  C   -0.174675
    97  C   -0.007753
    98  C    0.152248
    99  C    0.173946
   100  C    0.015699
   101  O   -0.253263
   102  C    0.169665
   103  N   -0.350124
   104  C    0.037549
   105  C   -0.005423
   106  C   -0.022329
   107  C    0.088946
   108  C    0.115744
   109  C    0.044580
   110  C    0.051599
   111  N   -0.324149
   112  C    0.078590
   113  C   -0.163637
   114  C    0.000979
   115  C    0.097610
   116  C    0.234704
   117  C    0.043710
   118  O   -0.190839
   119  C    0.034107
   120  C    0.209289
   121  O   -0.245322
   122  O   -0.306945
   123  C    0.297804
 Electronic spatial extent (au):  <R**2>=         111364.8433
 Charge=             -0.0000 electrons
 Dipole moment (field-independent basis, Debye):
    X=              2.1107    Y=              2.7934    Z=             -4.8793  Tot=              6.0055
 Quadrupole moment (field-independent basis, Debye-Ang):
   XX=           -470.6839   YY=           -469.4100   ZZ=           -523.2307
   XY=             26.4251   XZ=              9.7597   YZ=            -30.6264
 Traceless Quadrupole moment (field-independent basis, Debye-Ang):
   XX=             17.0909   YY=             18.3649   ZZ=            -35.4558
   XY=             26.4251   XZ=              9.7597   YZ=            -30.6264
 Octapole moment (field-independent basis, Debye-Ang**2):
  XXX=             87.4131  YYY=            266.0797  ZZZ=           -202.1984  XYY=              5.9490
  XXY=            454.8792  XXZ=           -180.4595  XZZ=             18.6336  YZZ=            -26.1471
  YYZ=             79.4689  XYZ=            213.1165
 Hexadecapole moment (field-independent basis, Debye-Ang**3):
 XXXX=         -94796.3481 YYYY=         -33389.9353 ZZZZ=         -19482.7529 XXXY=           3399.4515
 XXXZ=            398.4391 YYYX=           -697.5228 YYYZ=           -349.4795 ZZZX=           1103.3230
 ZZZY=           -387.7930 XXYY=         -21896.9858 XXZZ=         -19672.1950 YYZZ=          -9461.9579
 XXYZ=           -202.9327 YYXZ=           -833.4259 ZZXY=            536.3383
 N-N= 1.530656123859D+04 E-N=-4.009575140846D+04  KE= 4.028798506273D+03
 Leave Link  601 at Fri Sep 10 17:02:21 2021, MaxMem= 23488102400 cpu:              17.8 elap:               0.9
 (Enter /sw/apps/gaussian-16.0/g16/l9999.exe)
 1\1\GINC-BP1-COMPUTE00089\SP\RCAM-B3LYP TD-FC\def2SVP\C68H72Mg2N8O8\OF
 15641\10-Sep-2021\0\\#p cam-b3lyp/Def2SVP td=(nstates=5)\\TDDFT excite
 d states in gaussian\\0,1\Mg,0,0.,0.,0.\C,0,-0.217,-2.218,2.801\C,0,-1
 .255,2.442,2.026\C,0,-0.245,1.85,-2.564\C,0,0.146,-2.824,-2.037\N,0,-0
 .617,-0.009,2.126\C,0,-0.594,-0.908,3.105\C,0,-0.936,-0.309,4.502\C,0,
 -1.773,0.964,4.032\C,0,-1.155,1.168,2.66\C,0,-3.263,0.685,3.863\C,0,0.
 345,0.11,5.299\C,0,0.124,0.397,6.787\H,0,1.168,0.033,7.733\N,0,-0.185,
 1.961,-0.152\C,0,-0.703,2.8,0.777\C,0,-0.62,4.156,0.193\C,0,-0.187,4.0
 15,-1.225\C,0,-0.214,2.583,-1.38\C,0,-0.887,5.406,0.974\C,0,0.181,5.01
 3,-2.277\O,0,0.303,4.69,-3.508\C,0,0.31,6.414,-1.837\N,0,-0.265,-0.413
 ,-2.029\C,0,-0.279,0.569,-2.937\C,0,-0.196,0.024,-4.332\C,0,0.124,-1.5
 33,-4.18\C,0,0.086,-1.632,-2.635\C,0,-1.451,0.205,-5.197\C,0,1.373,-2.
 07,-4.923\C,0,2.626,-1.49,-4.306\N,0,0.15,-2.144,0.303\C,0,0.173,-3.13
 6,-0.688\C,0,0.173,-4.438,0.004\C,0,0.133,-4.111,1.358\C,0,0.083,-2.69
 5,1.502\C,0,0.149,-5.715,-0.623\C,0,0.096,-4.629,2.716\O,0,0.208,-5.74
 7,3.221\C,0,-0.255,-3.428,3.701\C,0,0.717,-3.482,4.848\O,0,1.931,-3.25
 5,4.669\O,0,0.038,-3.556,6.003\C,0,0.943,-3.583,7.183\H,0,-1.859,3.22,
 2.497\H,0,-0.218,2.453,-3.474\H,0,0.276,-3.747,-2.605\H,0,-1.554,-0.94
 9,5.132\H,0,-1.585,1.831,4.665\H,0,-3.484,-0.377,3.969\H,0,-3.511,1.02
 7,2.858\H,0,-3.852,1.301,4.543\H,0,0.669,1.096,4.966\H,0,1.13,-0.639,5
 .189\H,0,-0.844,0.026,7.125\H,0,0.062,1.477,6.921\H,0,-1.344,5.186,1.9
 38\H,0,-1.651,5.963,0.432\H,0,0.007,6.02,1.084\H,0,-0.635,6.744,-1.405
 \H,0,0.665,6.97,-2.704\H,0,1.048,6.466,-1.036\H,0,0.608,0.501,-4.891\H
 ,0,-0.692,-2.156,-4.547\H,0,-1.267,0.74,-6.129\H,0,-2.204,0.714,-4.596
 \H,0,-1.967,-0.72,-5.453\H,0,1.356,-1.759,-5.967\H,0,1.452,-3.157,-4.9
 02\H,0,2.714,-0.522,-4.798\H,0,3.487,-2.121,-4.529\H,0,2.495,-1.303,-3
 .24\H,0,0.867,-6.333,-0.084\H,0,0.404,-5.642,-1.68\H,0,-0.891,-5.999,-
 0.463\H,0,-1.283,-3.581,4.028\H,0,0.698,-4.478,7.755\H,0,0.833,-2.619,
 7.68\H,0,2.,-3.754,6.976\Mg,0,10.51149,0.93895,0.80609\C,0,8.01198,2.1
 2829,3.09016\C,0,12.77705,1.30233,3.32993\C,0,12.80555,0.32768,-1.2989
 1\C,0,8.32893,1.74977,-1.78712\N,0,10.30029,1.63359,2.89538\C,0,9.2911
 9,2.00118,3.67058\C,0,9.65931,2.16878,5.16924\C,0,11.23207,2.4462,5.00
 096\C,0,11.46793,1.72122,3.67754\C,0,11.56656,3.9158,4.80673\C,0,9.391
 69,0.86479,5.99991\C,0,9.43515,1.04936,7.5184\H,0,8.51877,0.26491,8.34
 141\N,0,12.39047,0.36428,1.08492\C,0,13.15207,0.57514,2.17889\C,0,14.4
 6168,-0.02414,1.87899\C,0,14.46301,-0.46073,0.45628\C,0,13.19947,0.091
 01,0.01005\C,0,15.52928,-0.2086,2.91805\C,0,15.44557,-1.23436,-0.36973
 \O,0,15.35225,-1.29394,-1.64667\C,0,16.5731,-1.84252,0.35159\N,0,10.65
 056,1.2198,-1.24918\C,0,11.73847,0.81827,-1.92975\C,0,11.49969,0.87047
 ,-3.41993\C,0,9.93692,1.16168,-3.59469\C,0,9.54204,1.32306,-2.1103\C,0
 ,12.30187,1.92233,-4.18575\C,0,9.12895,0.16517,-4.47037\C,0,9.06019,-1
 .18247,-3.78879\N,0,8.46387,1.61025,0.64905\C,0,7.75419,1.91429,-0.533
 32\C,0,6.43474,2.43945,-0.1263\C,0,6.4773,2.42598,1.27602\C,0,7.74199,
 1.9466,1.71218\C,0,5.41309,2.89496,-1.00657\C,0,5.74383,2.7183,2.4865\
 O,0,4.59167,3.06656,2.74142\C,0,6.75092,2.65772,3.71471\C,0,6.10974,1.
 83857,4.80117\O,0,5.88718,0.62687,4.63128\O,0,6.06483,2.5653,5.93263\C
 ,0,5.44707,1.79157,7.04239\H,0,13.60415,1.59333,3.97809\H,0,13.52138,0
 .02865,-2.06811\H,0,7.55562,1.93267,-2.53626\H,0,9.18435,3.00834,5.662
 52\H,0,11.8032,1.97873,5.79886\H,0,10.67837,4.51985,4.6954\H,0,12.1715
 6,3.96388,3.91079\H,0,12.20594,4.26774,5.62139\H,0,10.23756,0.17752,5.
 86989\H,0,8.45875,0.41747,5.71682\H,0,9.40054,2.10715,7.80621\H,0,10.4
 0597,0.70422,7.88227\H,0,15.30497,0.35799,3.83023\H,0,16.44038,0.25662
 ,2.52647\H,0,15.7328,-1.26026,3.13077\H,0,17.13179,-1.06617,0.86889\H,
 0,17.11581,-2.42698,-0.3939\H,0,16.17511,-2.51103,1.12315\H,0,11.73386
 ,-0.08041,-3.88265\H,0,9.75493,2.13394,-4.07577\H,0,12.91754,1.49464,-
 4.99945\H,0,12.92305,2.45817,-3.48037\H,0,11.71068,2.72269,-4.62746\H,
 0,9.63458,0.00437,-5.42568\H,0,8.12202,0.5029,-4.69178\H,0,10.00938,-1
 .64922,-4.06856\H,0,8.21356,-1.75661,-4.15975\H,0,9.05593,-1.07215,-2.
 69817\H,0,4.47942,2.49623,-0.63271\H,0,5.60004,2.57799,-2.03046\H,0,5.
 51938,3.97633,-0.88573\H,0,6.941,3.68334,4.03339\H,0,4.61218,2.38863,7
 .42207\H,0,6.27049,1.57129,7.74752\H,0,4.94613,0.86461,6.78892\\Versio
 n=ES64L-G16RevA.03\State=1-A\HF=-4069.811267\RMSD=6.461e-09\PG=C01 [X(
 C68H72Mg2N8O8)]\\@


 THOSE WHO TRY TO PASS CHEMISTRY OFF AS A NEW SCIENCE
 SHOW HOW LITTLE KNOWLEDGE THEY HAVE OF THE CHARACTER
 AND LITERATURE OF THE ANCIENTS.
   -- NICOLAS LEFEVRE
 "COURS DE CHYMIE" J.-N.LELOUP, PARIS, 1751
 Job cpu time:       0 days 14 hours 11 minutes  9.8 seconds.
 Elapsed time:       0 days  0 hours 36 minutes  6.2 seconds.
 File lengths (MBytes):  RWF=  13225 Int=      0 D2E=      0 Chk=    574 Scr=      1
 Normal termination of Gaussian 16 at Fri Sep 10 17:02:22 2021.
