 Entering Gaussian System, Link 0=g16
 Initial command:
 /sw/apps/gaussian-16.0/g16/l1.exe "/tmp/Gau-117888.inp" -scrdir="/tmp/"
 Entering Link 1 = /sw/apps/gaussian-16.0/g16/l1.exe PID=    117889.
  
 Copyright (c) 1988,1990,1992,1993,1995,1998,2003,2009,2016,
            Gaussian, Inc.  All Rights Reserved.
  
 This is part of the Gaussian(R) 16 program.  It is based on
 the Gaussian(R) 09 system (copyright 2009, Gaussian, Inc.),
 the Gaussian(R) 03 system (copyright 2003, Gaussian, Inc.),
 the Gaussian(R) 98 system (copyright 1998, Gaussian, Inc.),
 the Gaussian(R) 94 system (copyright 1995, Gaussian, Inc.),
 the Gaussian 92(TM) system (copyright 1992, Gaussian, Inc.),
 the Gaussian 90(TM) system (copyright 1990, Gaussian, Inc.),
 the Gaussian 88(TM) system (copyright 1988, Gaussian, Inc.),
 the Gaussian 86(TM) system (copyright 1986, Carnegie Mellon
 University), and the Gaussian 82(TM) system (copyright 1983,
 Carnegie Mellon University). Gaussian is a federally registered
 trademark of Gaussian, Inc.
  
 This software contains proprietary and confidential information,
 including trade secrets, belonging to Gaussian, Inc.
  
 This software is provided under written license and may be
 used, copied, transmitted, or stored only in accord with that
 written license.
  
 The following legend is applicable only to US Government
 contracts under FAR:
  
                    RESTRICTED RIGHTS LEGEND
  
 Use, reproduction and disclosure by the US Government is
 subject to restrictions as set forth in subparagraphs (a)
 and (c) of the Commercial Computer Software - Restricted
 Rights clause in FAR 52.227-19.
  
 Gaussian, Inc.
 340 Quinnipiac St., Bldg. 40, Wallingford CT 06492
  
  
 ---------------------------------------------------------------
 Warning -- This program may not be used in any manner that
 competes with the business of Gaussian, Inc. or will provide
 assistance to any competitor of Gaussian, Inc.  The licensee
 of this program is prohibited from giving any competitor of
 Gaussian, Inc. access to this program.  By using this program,
 the user acknowledges that Gaussian, Inc. is engaged in the
 business of creating and licensing software in the field of
 computational chemistry and represents and warrants to the
 licensee that it is not a competitor of Gaussian, Inc. and that
 it will not use this program in any manner prohibited above.
 ---------------------------------------------------------------
  

 Cite this work as:
 Gaussian 16, Revision A.03,
 M. J. Frisch, G. W. Trucks, H. B. Schlegel, G. E. Scuseria, 
 M. A. Robb, J. R. Cheeseman, G. Scalmani, V. Barone, 
 G. A. Petersson, H. Nakatsuji, X. Li, M. Caricato, A. V. Marenich, 
 J. Bloino, B. G. Janesko, R. Gomperts, B. Mennucci, H. P. Hratchian, 
 J. V. Ortiz, A. F. Izmaylov, J. L. Sonnenberg, D. Williams-Young, 
 F. Ding, F. Lipparini, F. Egidi, J. Goings, B. Peng, A. Petrone, 
 T. Henderson, D. Ranasinghe, V. G. Zakrzewski, J. Gao, N. Rega, 
 G. Zheng, W. Liang, M. Hada, M. Ehara, K. Toyota, R. Fukuda, 
 J. Hasegawa, M. Ishida, T. Nakajima, Y. Honda, O. Kitao, H. Nakai, 
 T. Vreven, K. Throssell, J. A. Montgomery, Jr., J. E. Peralta, 
 F. Ogliaro, M. J. Bearpark, J. J. Heyd, E. N. Brothers, K. N. Kudin, 
 V. N. Staroverov, T. A. Keith, R. Kobayashi, J. Normand, 
 K. Raghavachari, A. P. Rendell, J. C. Burant, S. S. Iyengar, 
 J. Tomasi, M. Cossi, J. M. Millam, M. Klene, C. Adamo, R. Cammi, 
 J. W. Ochterski, R. L. Martin, K. Morokuma, O. Farkas, 
 J. B. Foresman, and D. J. Fox, Gaussian, Inc., Wallingford CT, 2016.
 
 ******************************************
 Gaussian 16:  ES64L-G16RevA.03 25-Dec-2016
                11-Sep-2021 
 ******************************************
 %nproc=24
 Will use up to   24 processors via shared memory.
 %mem=175gb
 -----------------------------------
 #p cam-b3lyp/Def2SVP td=(nstates=5)
 -----------------------------------
 1/38=1,172=1/1;
 2/12=2,17=6,18=5,40=1/2;
 3/5=43,7=101,11=9,25=1,30=1,74=-40/1,2,3,8;
 4//1;
 5/5=2,38=5/2;
 8/6=1,10=1,108=5/1;
 9/41=5,42=1,70=2/14;
 6/7=2,8=2,9=2,10=2/1;
 99/5=1,9=1/99;
 Leave Link    1 at Sat Sep 11 03:57:18 2021, MaxMem= 23488102400 cpu:               0.8 elap:               0.0
 (Enter /sw/apps/gaussian-16.0/g16/l101.exe)
 --------------------------------
 TDDFT excited states in gaussian
 --------------------------------
 Symbolic Z-matrix:
 Charge =  0 Multiplicity = 1
 Mg                    0.        0.        0. 
 C                    -0.217    -2.218     2.801 
 C                    -1.255     2.442     2.026 
 C                    -0.245     1.85     -2.564 
 C                     0.146    -2.824    -2.037 
 N                    -0.617    -0.009     2.126 
 C                    -0.594    -0.908     3.105 
 C                    -0.936    -0.309     4.502 
 C                    -1.773     0.964     4.032 
 C                    -1.155     1.168     2.66 
 C                    -3.263     0.685     3.863 
 C                     0.345     0.11      5.299 
 C                     0.124     0.397     6.787 
 H                     1.168     0.033     7.733 
 N                    -0.185     1.961    -0.152 
 C                    -0.703     2.8       0.777 
 C                    -0.62      4.156     0.193 
 C                    -0.187     4.015    -1.225 
 C                    -0.214     2.583    -1.38 
 C                    -0.887     5.406     0.974 
 C                     0.181     5.013    -2.277 
 O                     0.303     4.69     -3.508 
 C                     0.31      6.414    -1.837 
 N                    -0.265    -0.413    -2.029 
 C                    -0.279     0.569    -2.937 
 C                    -0.196     0.024    -4.332 
 C                     0.124    -1.533    -4.18 
 C                     0.086    -1.632    -2.635 
 C                    -1.451     0.205    -5.197 
 C                     1.373    -2.07     -4.923 
 C                     2.626    -1.49     -4.306 
 N                     0.15     -2.144     0.303 
 C                     0.173    -3.136    -0.688 
 C                     0.173    -4.438     0.004 
 C                     0.133    -4.111     1.358 
 C                     0.083    -2.695     1.502 
 C                     0.149    -5.715    -0.623 
 C                     0.096    -4.629     2.716 
 O                     0.208    -5.747     3.221 
 C                    -0.255    -3.428     3.701 
 C                     0.717    -3.482     4.848 
 O                     1.931    -3.255     4.669 
 O                     0.038    -3.556     6.003 
 C                     0.943    -3.583     7.183 
 H                    -1.859     3.22      2.497 
 H                    -0.218     2.453    -3.474 
 H                     0.276    -3.747    -2.605 
 H                    -1.554    -0.949     5.132 
 H                    -1.585     1.831     4.665 
 H                    -3.484    -0.377     3.969 
 H                    -3.511     1.027     2.858 
 H                    -3.852     1.301     4.543 
 H                     0.669     1.096     4.966 
 H                     1.13     -0.639     5.189 
 H                    -0.844     0.026     7.125 
 H                     0.062     1.477     6.921 
 H                    -1.344     5.186     1.938 
 H                    -1.651     5.963     0.432 
 H                     0.007     6.02      1.084 
 H                    -0.635     6.744    -1.405 
 H                     0.665     6.97     -2.704 
 H                     1.048     6.466    -1.036 
 H                     0.608     0.501    -4.891 
 H                    -0.692    -2.156    -4.547 
 H                    -1.267     0.74     -6.129 
 H                    -2.204     0.714    -4.596 
 H                    -1.967    -0.72     -5.453 
 H                     1.356    -1.759    -5.967 
 H                     1.452    -3.157    -4.902 
 H                     2.714    -0.522    -4.798 
 H                     3.487    -2.121    -4.529 
 H                     2.495    -1.303    -3.24 
 H                     0.867    -6.333    -0.084 
 H                     0.404    -5.642    -1.68 
 H                    -0.891    -5.999    -0.463 
 H                    -1.283    -3.581     4.028 
 H                     0.698    -4.478     7.755 
 H                     0.833    -2.619     7.68 
 H                     2.       -3.754     6.976 
 Mg                    13.13047   1.18638   1.0039 
 C                     14.88458   2.94701   3.59279 
 C                     11.80312  -0.78527   3.4504 
 C                     11.92904  -0.66362  -1.27678 
 C                     15.42592   2.5101   -1.25981 
 N                     13.38638   1.18042   3.20089 
 C                     14.02986   1.93555   4.07841 
 C                     13.67913   1.63939   5.56126 
 C                     13.1794   0.12267   5.39186 
 C                     12.72604   0.17603   3.93436 
 C                     14.3006  -0.89673   5.50629 
 C                     12.53274   2.56503   6.10069 
 C                     12.35114   2.54481   7.62002 
 H                     11.96377   3.78251   8.29123 
 N                     11.66612  -0.1513    1.07369 
 C                     11.24383  -0.83986   2.15482 
 C                     10.15798  -1.71054   1.67836 
 C                     10.0843  -1.60008   0.19611 
 C                     11.26292  -0.79917  -0.06746 
 C                     9.26264  -2.47737   2.60775 
 C                     9.12058  -2.13832  -0.81767 
 O                     9.38206  -2.11835  -2.07229 
 C                     7.90338  -2.77388  -0.29233 
 N                     13.72876   0.78342  -0.94597 
 C                     12.99824  -0.01716  -1.74179 
 C                     13.47001   0.0601   -3.17422 
 C                     14.51787   1.26748  -3.21689 
 C                     14.53827   1.63796  -1.71765 
 C                     14.12777  -1.20405  -3.72708 
 C                     14.25208   2.39372  -4.25304 
 C                     13.0025   3.15682  -3.87673 
 N                     14.73377   2.6326    1.08081 
 C                     15.58507   3.01941   0.02263 
 C                     16.59064   3.94226   0.58796 
 C                     16.26601   4.01087   1.95119 
 C                     15.15019   3.17308   2.22053 
 C                     17.6599   4.54855  -0.12983 
 C                     16.6201   4.59327   3.2256 
 O                     17.42572   5.44562   3.59737 
 C                     15.81983   3.8323    4.36879 
 C                     15.21347   4.86577   5.27807 
 O                     14.3318   5.63658   4.85958 
 O                     15.61489   4.63166   6.54077 
 C                     15.03067   5.62429   7.48162 
 H                     11.50959  -1.60135   4.11127 
 H                     11.48589  -1.19618  -2.12145 
 H                     16.11546   3.04184  -1.91895 
 H                     14.51963   1.67992   6.24368 
 H                     12.33768  -0.0912    6.04541 
 H                     15.26998  -0.42452   5.56514 
 H                     14.23203  -1.51043   4.61763 
 H                     14.11582  -1.56714   6.35052 
 H                     11.56392   2.15308   5.79017 
 H                     12.66959   3.5751    5.76653 
 H                     13.20375   2.08117   8.13093 
 H                     11.50789   1.89265   7.86007 
 H                     9.66198  -2.49289   3.62936 
 H                     9.29232  -3.5248    2.28858 
 H                     8.22818  -2.12845   2.57941 
 H                     8.17947  -3.60131   0.35697 
 H                     7.29832  -3.01525  -1.16841 
 H                     7.37121  -2.04773   0.33226 
 H                     12.64673   0.28558  -3.8409 
 H                     15.53052   0.91943  -3.46839 
 H                     13.63397  -1.58998  -4.63883 
 H                     14.13041  -1.95571  -2.94891 
 H                     15.18692  -1.10932  -3.96037 
 H                     14.06766   1.9639   -5.24066 
 H                     15.07703   3.09102  -4.35422 
 H                     12.20106   2.5371   -4.28993 
 H                     13.00804   4.14713  -4.32761 
 H                     12.87059   3.18402  -2.78883 
 H                     17.70127   5.58207   0.18737 
 H                     17.5135   4.46738  -1.20489 
 H                     18.49835   3.93891   0.21745 
 H                     16.52881   3.19076   4.89353 
 H                     15.86567   6.08818   8.01572 
 H                     14.29413   5.06396   8.08766 
 H                     14.54378   6.49328   7.05472 
 
 ITRead=  0  0  0  0  0  0  0  0  0  0  0  0  0  0  0  0  0  0  0  0
 ITRead=  0  0  0  0  0  0  0  0  0  0  0  0  0  0  0  0  0  0  0  0
 ITRead=  0  0  0  0  0  0  0  0  0  0  0  0  0  0  0  0  0  0  0  0
 ITRead=  0  0  0  0  0  0  0  0  0  0  0  0  0  0  0  0  0  0  0  0
 ITRead=  0  0  0  0  0  0  0  0  0  0  0  0  0  0  0  0  0  0  0  0
 ITRead=  0  0  0  0  0  0  0  0  0  0  0  0  0  0  0  0  0  0  0  0
 ITRead=  0  0  0  0  0  0  0  0  0  0  0  0  0  0  0  0  0  0  0  0
 ITRead=  0  0  0  0  0  0  0  0  0  0  0  0  0  0  0  0  0  0
 MicOpt= -1 -1 -1 -1 -1 -1 -1 -1 -1 -1 -1 -1 -1 -1 -1 -1 -1 -1 -1 -1
 MicOpt= -1 -1 -1 -1 -1 -1 -1 -1 -1 -1 -1 -1 -1 -1 -1 -1 -1 -1 -1 -1
 MicOpt= -1 -1 -1 -1 -1 -1 -1 -1 -1 -1 -1 -1 -1 -1 -1 -1 -1 -1 -1 -1
 MicOpt= -1 -1 -1 -1 -1 -1 -1 -1 -1 -1 -1 -1 -1 -1 -1 -1 -1 -1 -1 -1
 MicOpt= -1 -1 -1 -1 -1 -1 -1 -1 -1 -1 -1 -1 -1 -1 -1 -1 -1 -1 -1 -1
 MicOpt= -1 -1 -1 -1 -1 -1 -1 -1 -1 -1 -1 -1 -1 -1 -1 -1 -1 -1 -1 -1
 MicOpt= -1 -1 -1 -1 -1 -1 -1 -1 -1 -1 -1 -1 -1 -1 -1 -1 -1 -1 -1 -1
 MicOpt= -1 -1 -1 -1 -1 -1 -1 -1 -1 -1 -1 -1 -1 -1 -1 -1 -1 -1
 NAtoms=    158 NQM=      158 NQMF=       0 NMMI=      0 NMMIF=      0
                NMic=       0 NMicF=      0.
                    Isotopes and Nuclear Properties:
 (Nuclear quadrupole moments (NQMom) in fm**2, nuclear magnetic moments (NMagM)
  in nuclear magnetons)

  Atom         1           2           3           4           5           6           7           8           9          10
 IAtWgt=          24          12          12          12          12          14          12          12          12          12
 AtmWgt=  23.9850450  12.0000000  12.0000000  12.0000000  12.0000000  14.0030740  12.0000000  12.0000000  12.0000000  12.0000000
 NucSpn=           0           0           0           0           0           2           0           0           0           0
 AtZEff=  -0.0000000  -0.0000000  -0.0000000  -0.0000000  -0.0000000  -0.0000000  -0.0000000  -0.0000000  -0.0000000  -0.0000000
 NQMom=    0.0000000   0.0000000   0.0000000   0.0000000   0.0000000   2.0440000   0.0000000   0.0000000   0.0000000   0.0000000
 NMagM=    0.0000000   0.0000000   0.0000000   0.0000000   0.0000000   0.4037610   0.0000000   0.0000000   0.0000000   0.0000000
 AtZNuc=  12.0000000   6.0000000   6.0000000   6.0000000   6.0000000   7.0000000   6.0000000   6.0000000   6.0000000   6.0000000

  Atom        11          12          13          14          15          16          17          18          19          20
 IAtWgt=          12          12          12           1          14          12          12          12          12          12
 AtmWgt=  12.0000000  12.0000000  12.0000000   1.0078250  14.0030740  12.0000000  12.0000000  12.0000000  12.0000000  12.0000000
 NucSpn=           0           0           0           1           2           0           0           0           0           0
 AtZEff=  -0.0000000  -0.0000000  -0.0000000  -0.0000000  -0.0000000  -0.0000000  -0.0000000  -0.0000000  -0.0000000  -0.0000000
 NQMom=    0.0000000   0.0000000   0.0000000   0.0000000   2.0440000   0.0000000   0.0000000   0.0000000   0.0000000   0.0000000
 NMagM=    0.0000000   0.0000000   0.0000000   2.7928460   0.4037610   0.0000000   0.0000000   0.0000000   0.0000000   0.0000000
 AtZNuc=   6.0000000   6.0000000   6.0000000   1.0000000   7.0000000   6.0000000   6.0000000   6.0000000   6.0000000   6.0000000

  Atom        21          22          23          24          25          26          27          28          29          30
 IAtWgt=          12          16          12          14          12          12          12          12          12          12
 AtmWgt=  12.0000000  15.9949146  12.0000000  14.0030740  12.0000000  12.0000000  12.0000000  12.0000000  12.0000000  12.0000000
 NucSpn=           0           0           0           2           0           0           0           0           0           0
 AtZEff=  -0.0000000  -0.0000000  -0.0000000  -0.0000000  -0.0000000  -0.0000000  -0.0000000  -0.0000000  -0.0000000  -0.0000000
 NQMom=    0.0000000   0.0000000   0.0000000   2.0440000   0.0000000   0.0000000   0.0000000   0.0000000   0.0000000   0.0000000
 NMagM=    0.0000000   0.0000000   0.0000000   0.4037610   0.0000000   0.0000000   0.0000000   0.0000000   0.0000000   0.0000000
 AtZNuc=   6.0000000   8.0000000   6.0000000   7.0000000   6.0000000   6.0000000   6.0000000   6.0000000   6.0000000   6.0000000

  Atom        31          32          33          34          35          36          37          38          39          40
 IAtWgt=          12          14          12          12          12          12          12          12          16          12
 AtmWgt=  12.0000000  14.0030740  12.0000000  12.0000000  12.0000000  12.0000000  12.0000000  12.0000000  15.9949146  12.0000000
 NucSpn=           0           2           0           0           0           0           0           0           0           0
 AtZEff=  -0.0000000  -0.0000000  -0.0000000  -0.0000000  -0.0000000  -0.0000000  -0.0000000  -0.0000000  -0.0000000  -0.0000000
 NQMom=    0.0000000   2.0440000   0.0000000   0.0000000   0.0000000   0.0000000   0.0000000   0.0000000   0.0000000   0.0000000
 NMagM=    0.0000000   0.4037610   0.0000000   0.0000000   0.0000000   0.0000000   0.0000000   0.0000000   0.0000000   0.0000000
 AtZNuc=   6.0000000   7.0000000   6.0000000   6.0000000   6.0000000   6.0000000   6.0000000   6.0000000   8.0000000   6.0000000

  Atom        41          42          43          44          45          46          47          48          49          50
 IAtWgt=          12          16          16          12           1           1           1           1           1           1
 AtmWgt=  12.0000000  15.9949146  15.9949146  12.0000000   1.0078250   1.0078250   1.0078250   1.0078250   1.0078250   1.0078250
 NucSpn=           0           0           0           0           1           1           1           1           1           1
 AtZEff=  -0.0000000  -0.0000000  -0.0000000  -0.0000000  -0.0000000  -0.0000000  -0.0000000  -0.0000000  -0.0000000  -0.0000000
 NQMom=    0.0000000   0.0000000   0.0000000   0.0000000   0.0000000   0.0000000   0.0000000   0.0000000   0.0000000   0.0000000
 NMagM=    0.0000000   0.0000000   0.0000000   0.0000000   2.7928460   2.7928460   2.7928460   2.7928460   2.7928460   2.7928460
 AtZNuc=   6.0000000   8.0000000   8.0000000   6.0000000   1.0000000   1.0000000   1.0000000   1.0000000   1.0000000   1.0000000

  Atom        51          52          53          54          55          56          57          58          59          60
 IAtWgt=           1           1           1           1           1           1           1           1           1           1
 AtmWgt=   1.0078250   1.0078250   1.0078250   1.0078250   1.0078250   1.0078250   1.0078250   1.0078250   1.0078250   1.0078250
 NucSpn=           1           1           1           1           1           1           1           1           1           1
 AtZEff=  -0.0000000  -0.0000000  -0.0000000  -0.0000000  -0.0000000  -0.0000000  -0.0000000  -0.0000000  -0.0000000  -0.0000000
 NQMom=    0.0000000   0.0000000   0.0000000   0.0000000   0.0000000   0.0000000   0.0000000   0.0000000   0.0000000   0.0000000
 NMagM=    2.7928460   2.7928460   2.7928460   2.7928460   2.7928460   2.7928460   2.7928460   2.7928460   2.7928460   2.7928460
 AtZNuc=   1.0000000   1.0000000   1.0000000   1.0000000   1.0000000   1.0000000   1.0000000   1.0000000   1.0000000   1.0000000

  Atom        61          62          63          64          65          66          67          68          69          70
 IAtWgt=           1           1           1           1           1           1           1           1           1           1
 AtmWgt=   1.0078250   1.0078250   1.0078250   1.0078250   1.0078250   1.0078250   1.0078250   1.0078250   1.0078250   1.0078250
 NucSpn=           1           1           1           1           1           1           1           1           1           1
 AtZEff=  -0.0000000  -0.0000000  -0.0000000  -0.0000000  -0.0000000  -0.0000000  -0.0000000  -0.0000000  -0.0000000  -0.0000000
 NQMom=    0.0000000   0.0000000   0.0000000   0.0000000   0.0000000   0.0000000   0.0000000   0.0000000   0.0000000   0.0000000
 NMagM=    2.7928460   2.7928460   2.7928460   2.7928460   2.7928460   2.7928460   2.7928460   2.7928460   2.7928460   2.7928460
 AtZNuc=   1.0000000   1.0000000   1.0000000   1.0000000   1.0000000   1.0000000   1.0000000   1.0000000   1.0000000   1.0000000

  Atom        71          72          73          74          75          76          77          78          79          80
 IAtWgt=           1           1           1           1           1           1           1           1           1          24
 AtmWgt=   1.0078250   1.0078250   1.0078250   1.0078250   1.0078250   1.0078250   1.0078250   1.0078250   1.0078250  23.9850450
 NucSpn=           1           1           1           1           1           1           1           1           1           0
 AtZEff=  -0.0000000  -0.0000000  -0.0000000  -0.0000000  -0.0000000  -0.0000000  -0.0000000  -0.0000000  -0.0000000  -0.0000000
 NQMom=    0.0000000   0.0000000   0.0000000   0.0000000   0.0000000   0.0000000   0.0000000   0.0000000   0.0000000   0.0000000
 NMagM=    2.7928460   2.7928460   2.7928460   2.7928460   2.7928460   2.7928460   2.7928460   2.7928460   2.7928460   0.0000000
 AtZNuc=   1.0000000   1.0000000   1.0000000   1.0000000   1.0000000   1.0000000   1.0000000   1.0000000   1.0000000  12.0000000

  Atom        81          82          83          84          85          86          87          88          89          90
 IAtWgt=          12          12          12          12          14          12          12          12          12          12
 AtmWgt=  12.0000000  12.0000000  12.0000000  12.0000000  14.0030740  12.0000000  12.0000000  12.0000000  12.0000000  12.0000000
 NucSpn=           0           0           0           0           2           0           0           0           0           0
 AtZEff=  -0.0000000  -0.0000000  -0.0000000  -0.0000000  -0.0000000  -0.0000000  -0.0000000  -0.0000000  -0.0000000  -0.0000000
 NQMom=    0.0000000   0.0000000   0.0000000   0.0000000   2.0440000   0.0000000   0.0000000   0.0000000   0.0000000   0.0000000
 NMagM=    0.0000000   0.0000000   0.0000000   0.0000000   0.4037610   0.0000000   0.0000000   0.0000000   0.0000000   0.0000000
 AtZNuc=   6.0000000   6.0000000   6.0000000   6.0000000   7.0000000   6.0000000   6.0000000   6.0000000   6.0000000   6.0000000

  Atom        91          92          93          94          95          96          97          98          99         100
 IAtWgt=          12          12           1          14          12          12          12          12          12          12
 AtmWgt=  12.0000000  12.0000000   1.0078250  14.0030740  12.0000000  12.0000000  12.0000000  12.0000000  12.0000000  12.0000000
 NucSpn=           0           0           1           2           0           0           0           0           0           0
 AtZEff=  -0.0000000  -0.0000000  -0.0000000  -0.0000000  -0.0000000  -0.0000000  -0.0000000  -0.0000000  -0.0000000  -0.0000000
 NQMom=    0.0000000   0.0000000   0.0000000   2.0440000   0.0000000   0.0000000   0.0000000   0.0000000   0.0000000   0.0000000
 NMagM=    0.0000000   0.0000000   2.7928460   0.4037610   0.0000000   0.0000000   0.0000000   0.0000000   0.0000000   0.0000000
 AtZNuc=   6.0000000   6.0000000   1.0000000   7.0000000   6.0000000   6.0000000   6.0000000   6.0000000   6.0000000   6.0000000

  Atom       101         102         103         104         105         106         107         108         109         110
 IAtWgt=          16          12          14          12          12          12          12          12          12          12
 AtmWgt=  15.9949146  12.0000000  14.0030740  12.0000000  12.0000000  12.0000000  12.0000000  12.0000000  12.0000000  12.0000000
 NucSpn=           0           0           2           0           0           0           0           0           0           0
 AtZEff=  -0.0000000  -0.0000000  -0.0000000  -0.0000000  -0.0000000  -0.0000000  -0.0000000  -0.0000000  -0.0000000  -0.0000000
 NQMom=    0.0000000   0.0000000   2.0440000   0.0000000   0.0000000   0.0000000   0.0000000   0.0000000   0.0000000   0.0000000
 NMagM=    0.0000000   0.0000000   0.4037610   0.0000000   0.0000000   0.0000000   0.0000000   0.0000000   0.0000000   0.0000000
 AtZNuc=   8.0000000   6.0000000   7.0000000   6.0000000   6.0000000   6.0000000   6.0000000   6.0000000   6.0000000   6.0000000

  Atom       111         112         113         114         115         116         117         118         119         120
 IAtWgt=          14          12          12          12          12          12          12          16          12          12
 AtmWgt=  14.0030740  12.0000000  12.0000000  12.0000000  12.0000000  12.0000000  12.0000000  15.9949146  12.0000000  12.0000000
 NucSpn=           2           0           0           0           0           0           0           0           0           0
 AtZEff=  -0.0000000  -0.0000000  -0.0000000  -0.0000000  -0.0000000  -0.0000000  -0.0000000  -0.0000000  -0.0000000  -0.0000000
 NQMom=    2.0440000   0.0000000   0.0000000   0.0000000   0.0000000   0.0000000   0.0000000   0.0000000   0.0000000   0.0000000
 NMagM=    0.4037610   0.0000000   0.0000000   0.0000000   0.0000000   0.0000000   0.0000000   0.0000000   0.0000000   0.0000000
 AtZNuc=   7.0000000   6.0000000   6.0000000   6.0000000   6.0000000   6.0000000   6.0000000   8.0000000   6.0000000   6.0000000

  Atom       121         122         123         124         125         126         127         128         129         130
 IAtWgt=          16          16          12           1           1           1           1           1           1           1
 AtmWgt=  15.9949146  15.9949146  12.0000000   1.0078250   1.0078250   1.0078250   1.0078250   1.0078250   1.0078250   1.0078250
 NucSpn=           0           0           0           1           1           1           1           1           1           1
 AtZEff=  -0.0000000  -0.0000000  -0.0000000  -0.0000000  -0.0000000  -0.0000000  -0.0000000  -0.0000000  -0.0000000  -0.0000000
 NQMom=    0.0000000   0.0000000   0.0000000   0.0000000   0.0000000   0.0000000   0.0000000   0.0000000   0.0000000   0.0000000
 NMagM=    0.0000000   0.0000000   0.0000000   2.7928460   2.7928460   2.7928460   2.7928460   2.7928460   2.7928460   2.7928460
 AtZNuc=   8.0000000   8.0000000   6.0000000   1.0000000   1.0000000   1.0000000   1.0000000   1.0000000   1.0000000   1.0000000

  Atom       131         132         133         134         135         136         137         138         139         140
 IAtWgt=           1           1           1           1           1           1           1           1           1           1
 AtmWgt=   1.0078250   1.0078250   1.0078250   1.0078250   1.0078250   1.0078250   1.0078250   1.0078250   1.0078250   1.0078250
 NucSpn=           1           1           1           1           1           1           1           1           1           1
 AtZEff=  -0.0000000  -0.0000000  -0.0000000  -0.0000000  -0.0000000  -0.0000000  -0.0000000  -0.0000000  -0.0000000  -0.0000000
 NQMom=    0.0000000   0.0000000   0.0000000   0.0000000   0.0000000   0.0000000   0.0000000   0.0000000   0.0000000   0.0000000
 NMagM=    2.7928460   2.7928460   2.7928460   2.7928460   2.7928460   2.7928460   2.7928460   2.7928460   2.7928460   2.7928460
 AtZNuc=   1.0000000   1.0000000   1.0000000   1.0000000   1.0000000   1.0000000   1.0000000   1.0000000   1.0000000   1.0000000

  Atom       141         142         143         144         145         146         147         148         149         150
 IAtWgt=           1           1           1           1           1           1           1           1           1           1
 AtmWgt=   1.0078250   1.0078250   1.0078250   1.0078250   1.0078250   1.0078250   1.0078250   1.0078250   1.0078250   1.0078250
 NucSpn=           1           1           1           1           1           1           1           1           1           1
 AtZEff=  -0.0000000  -0.0000000  -0.0000000  -0.0000000  -0.0000000  -0.0000000  -0.0000000  -0.0000000  -0.0000000  -0.0000000
 NQMom=    0.0000000   0.0000000   0.0000000   0.0000000   0.0000000   0.0000000   0.0000000   0.0000000   0.0000000   0.0000000
 NMagM=    2.7928460   2.7928460   2.7928460   2.7928460   2.7928460   2.7928460   2.7928460   2.7928460   2.7928460   2.7928460
 AtZNuc=   1.0000000   1.0000000   1.0000000   1.0000000   1.0000000   1.0000000   1.0000000   1.0000000   1.0000000   1.0000000

  Atom       151         152         153         154         155         156         157         158
 IAtWgt=           1           1           1           1           1           1           1           1
 AtmWgt=   1.0078250   1.0078250   1.0078250   1.0078250   1.0078250   1.0078250   1.0078250   1.0078250
 NucSpn=           1           1           1           1           1           1           1           1
 AtZEff=  -0.0000000  -0.0000000  -0.0000000  -0.0000000  -0.0000000  -0.0000000  -0.0000000  -0.0000000
 NQMom=    0.0000000   0.0000000   0.0000000   0.0000000   0.0000000   0.0000000   0.0000000   0.0000000
 NMagM=    2.7928460   2.7928460   2.7928460   2.7928460   2.7928460   2.7928460   2.7928460   2.7928460
 AtZNuc=   1.0000000   1.0000000   1.0000000   1.0000000   1.0000000   1.0000000   1.0000000   1.0000000
 Leave Link  101 at Sat Sep 11 03:57:18 2021, MaxMem= 23488102400 cpu:               3.5 elap:               0.2
 (Enter /sw/apps/gaussian-16.0/g16/l202.exe)
 Stoichiometry    C68H72Mg2N8O8
 Framework group  C1[X(C68H72Mg2N8O8)]
 Deg. of freedom   468
 Full point group                 C1      NOp   1
 Largest Abelian subgroup         C1      NOp   1
 Largest concise Abelian subgroup C1      NOp   1
                         Standard orientation:                         
 ---------------------------------------------------------------------
 Center     Atomic      Atomic             Coordinates (Angstroms)
 Number     Number       Type             X           Y           Z
 ---------------------------------------------------------------------
      1         12           0        6.740104   -0.573412    0.718141
      2          6           0        7.115291    2.372606   -1.279965
      3          6           0        7.311299    1.387796    3.451356
      4          6           0        6.864623   -3.222130    2.457511
      5          6           0        7.326588   -2.429914   -2.172377
      6          7           0        7.146887    1.592264    0.930324
      7          6           0        7.205083    2.621780    0.091347
      8          6           0        7.294816    4.000786    0.810835
      9          6           0        7.913196    3.520347    2.199642
     10          6           0        7.398011    2.091953    2.213747
     11          6           0        9.438193    3.492599    2.210467
     12          6           0        5.888854    4.661288    1.007659
     13          6           0        5.911497    6.140897    1.402118
     14          1           0        4.872865    7.019349    0.885482
     15          7           0        6.560329   -0.835340    2.667994
     16          6           0        6.819735    0.077262    3.635027
     17          6           0        6.533882   -0.597469    4.919436
     18          6           0        6.269672   -2.034254    4.629721
     19          6           0        6.584095   -2.094213    3.225114
     20          6           0        6.483263    0.120921    6.232868
     21          6           0        5.817285   -3.174853    5.485590
     22          8           0        5.874343   -4.388417    5.087371
     23          6           0        5.382594   -2.837836    6.853254
     24          7           0        7.266778   -2.543051    0.270066
     25          6           0        7.177321   -3.508024    1.191917
     26          6           0        7.330168   -4.867232    0.576180
     27          6           0        7.300834   -4.642344   -1.004427
     28          6           0        7.213107   -3.096287   -1.021231
     29          6           0        8.602408   -5.636037    0.958743
     30          6           0        6.252116   -5.449412   -1.810187
     31          6           0        4.859502   -4.975970   -1.458652
     32          7           0        6.974994   -0.146678   -1.396988
     33          6           0        7.234284   -1.070448   -2.419774
     34          6           0        7.418665   -0.298593   -3.662477
     35          6           0        7.269270    1.030307   -3.270623
     36          6           0        7.034168    1.086680   -1.867113
     37          6           0        7.744464   -0.838181   -4.938069
     38          6           0        7.278027    2.417214   -3.706823
     39          8           0        7.335211    2.982068   -4.800058
     40          6           0        7.299868    3.348539   -2.415319
     41          6           0        6.253654    4.412899   -2.604746
     42          8           0        5.040672    4.120559   -2.628785
     43          8           0        6.823800    5.622138   -2.489778
     44          6           0        5.834825    6.723089   -2.638074
     45          1           0        7.709015    1.855878    4.353942
     46          1           0        6.807706   -4.168117    3.000012
     47          1           0        7.428775   -2.946213   -3.128644
     48          1           0        7.962357    4.719230    0.334757
     49          1           0        7.504925    4.078763    3.041787
     50          1           0        9.847199    3.684390    1.218574
     51          1           0        9.708703    2.491487    2.546756
     52          1           0        9.832757    4.177715    2.961275
     53          1           0        5.414846    4.240154    1.894239
     54          1           0        5.275137    4.535504    0.114991
     55          1           0        6.896817    6.580409    1.244378
     56          1           0        5.753252    6.209891    2.478408
     57          1           0        6.882151    1.131340    6.152331
     58          1           0        7.173820   -0.391134    6.902675
     59          1           0        5.482132    0.117437    6.664210
     60          1           0        6.202750   -2.351751    7.382040
     61          1           0        5.010149   -3.764986    7.287453
     62          1           0        4.576978   -2.105173    6.797232
     63          1           0        6.505413   -5.519874    0.859488
     64          1           0        8.251383   -4.900289   -1.471969
     65          1           0        8.407118   -6.612435    1.402830
     66          1           0        9.185022   -5.009144    1.633174
     67          1           0        9.307185   -5.788836    0.141822
     68          1           0        6.306456   -6.506299   -1.551375
     69          1           0        6.380662   -5.365199   -2.889370
     70          1           0        4.634338   -5.534692   -0.550928
     71          1           0        4.159490   -5.227960   -2.255957
     72          1           0        4.852579   -3.917031   -1.199642
     73          1           0        7.110791   -0.321413   -5.658748
     74          1           0        7.579703   -1.915056   -4.966298
     75          1           0        8.800080   -0.575371   -5.004860
     76          1           0        8.303188    3.768039   -2.348292
     77          1           0        6.192009    7.369584   -3.439758
     78          1           0        5.711868    7.164498   -1.648910
     79          1           0        4.853909    6.441363   -3.022486
     80         12           0       -6.410503   -0.729918   -0.646261
     81          6           0       -8.701865    1.587662    0.856254
     82          6           0       -4.964414    1.938930   -2.202121
     83          6           0       -4.670800   -2.780634   -2.330135
     84          6           0       -8.695783   -3.254891    0.093817
     85          7           0       -6.863875    1.434452   -0.598857
     86          6           0       -7.718600    2.205820    0.055945
     87          6           0       -7.457285    3.728422   -0.095599
     88          6           0       -6.663404    3.698420   -1.491206
     89          6           0       -6.094965    2.282685   -1.418676
     90          6           0       -7.574859    3.785590   -2.704058
     91          6           0       -6.564147    4.299638    1.061130
     92          6           0       -6.524218    5.826902    1.148428
     93          1           0       -6.444650    6.446779    2.468239
     94          7           0       -4.730507   -0.454286   -1.666172
     95          6           0       -4.286907    0.699869   -2.206942
     96          6           0       -3.015162    0.371138   -2.869338
     97          6           0       -2.826336   -1.104072   -2.816466
     98          6           0       -4.106535   -1.514476   -2.275421
     99          6           0       -2.080243    1.418271   -3.401191
    100          6           0       -1.687449   -1.998579   -3.202474
    101          8           0       -1.830019   -3.269123   -3.293215
    102          6           0       -0.425505   -1.335282   -3.561681
    103          7           0       -6.736679   -2.692427   -1.249990
    104          6           0       -5.795822   -3.372471   -1.928403
    105          6           0       -6.138277   -4.840811   -2.012617
    106          6           0       -7.388925   -5.046886   -1.037420
    107          6           0       -7.619164   -3.581292   -0.607981
    108          6           0       -6.488018   -5.363499   -3.405764
    109          6           0       -7.247979   -6.127889    0.069032
    110          6           0       -6.207772   -5.699986    1.079105
    111          7           0       -8.260665   -0.878037    0.459632
    112          6           0       -9.067954   -2.025231    0.621836
    113          6           0      -10.279491   -1.604870    1.355250
    114          6           0      -10.102246   -0.226810    1.550242
    115          6           0       -8.876903    0.186543    0.961036
    116          6           0      -11.373373   -2.445534    1.705727
    117          6           0      -10.678122    0.974154    2.111262
    118          8           0      -11.662794    1.222964    2.805705
    119          6           0       -9.857117    2.225734    1.576577
    120          6           0       -9.546693    3.113492    2.750479
    121          8           0       -8.793501    2.720208    3.658584
    122          8           0      -10.011714    4.351365    2.501923
    123          6           0       -9.718059    5.271325    3.632969
    124          1           0       -4.583159    2.672729   -2.912810
    125          1           0       -4.057413   -3.550085   -2.804657
    126          1           0       -9.409833   -4.001240    0.448464
    127          1           0       -8.349832    4.335467   -0.188527
    128          1           0       -5.860866    4.431294   -1.504942
    129          1           0       -8.617796    3.734150   -2.428778
    130          1           0       -7.307897    2.946827   -3.333545
    131          1           0       -7.344766    4.683458   -3.284754
    132          1           0       -5.509852    4.096864    0.832918
    133          1           0       -6.859772    3.891180    2.007914
    134          1           0       -7.316306    6.294760    0.551233
    135          1           0       -5.597961    6.176809    0.686237
    136          1           0       -2.562563    2.402500   -3.446584
    137          1           0       -1.879408    1.165679   -4.447959
    138          1           0       -1.133447    1.452660   -2.858005
    139          1           0       -0.597611   -0.659059   -4.395682
    140          1           0        0.293378   -2.141374   -3.720733
    141          1           0       -0.102363   -0.717018   -2.716731
    142          1           0       -5.314848   -5.450703   -1.661774
    143          1           0       -8.288534   -5.357853   -1.588649
    144          1           0       -5.846913   -6.204921   -3.729895
    145          1           0       -6.419391   -4.541509   -4.105887
    146          1           0       -7.519362   -5.688616   -3.531560
    147          1           0       -6.893739   -7.067366   -0.362300
    148          1           0       -8.177902   -6.341078    0.585559
    149          1           0       -5.267778   -6.005286    0.609748
    150          1           0       -6.360449   -6.212470    2.026780
    151          1           0       -6.185310   -4.608927    1.182805
    152          1           0      -11.640793   -2.199845    2.724852
    153          1           0      -11.114765   -3.497491    1.604321
    154          1           0      -12.108500   -2.129873    0.960604
    155          1           0      -10.476150    2.730573    0.833938
    156          1           0      -10.672322    5.704118    3.948808
    157          1           0       -8.947679    5.970561    3.257033
    158          1           0       -9.368606    4.830938    4.559463
 ---------------------------------------------------------------------
 Rotational constants (GHZ):           0.0238663           0.0073687           0.0069009
 Leave Link  202 at Sat Sep 11 03:57:18 2021, MaxMem= 23488102400 cpu:               0.2 elap:               0.0
 (Enter /sw/apps/gaussian-16.0/g16/l301.exe)
 Standard basis: def2SVP (5D, 7F)
 Ernie: Thresh=  0.10000D-02 Tol=  0.10000D-05 Strict=F.
 There are  1658 symmetry adapted cartesian basis functions of A   symmetry.
 There are  1572 symmetry adapted basis functions of A   symmetry.
  1572 basis functions,  2678 primitive gaussians,  1658 cartesian basis functions
   312 alpha electrons      312 beta electrons
       nuclear repulsion energy     14270.7828898890 Hartrees.
 IExCor=20419 DFT=T Ex+Corr=CAM-B3LYP ExCW=0 ScaHFX=  1.000000
 ScaDFX=  1.000000  1.000000  1.000000  0.810000 ScalE2=  1.000000  1.000000
 IRadAn=      5 IRanWt=     -1 IRanGd=            0 ICorTp=0 IEmpDi=  4
 HFx  wShort=  0.000000 wLong=  0.330000 cFull=  0.190000 cShort=  0.000000 cLong=  0.460000
 DFx  wShort=  0.000000 wLong=  0.330000 cFull=  0.190000 cShort=  0.000000 cLong=  0.460000
 NAtoms=  158 NActive=  158 NUniq=  158 SFac= 1.00D+00 NAtFMM=   60 NAOKFM=T Big=T
 Integral buffers will be    131072 words long.
 Raffenetti 1 integral format.
 Two-electron integral symmetry is turned on.
 Leave Link  301 at Sat Sep 11 03:57:19 2021, MaxMem= 23488102400 cpu:               1.3 elap:               0.1
 (Enter /sw/apps/gaussian-16.0/g16/l302.exe)
 NPDir=0 NMtPBC=     1 NCelOv=     1 NCel=       1 NClECP=     1 NCelD=      1
         NCelK=      1 NCelE2=     1 NClLst=     1 CellRange=     0.0.
 One-electron integrals computed using PRISM.
 One-electron integral symmetry used in STVInt
   1 Symmetry operations used in ECPInt.
 ECPInt:  NShTT=  271216 NPrTT=  987664 LenC2=  120051 LenP2D=  262946.
 LDataN:  DoStor=T MaxTD1= 4 Len=   56
 NBasis=  1572 RedAO= T EigKep=  3.36D-04  NBF=  1572
 NBsUse=  1572 1.00D-06 EigRej= -1.00D+00 NBFU=  1572
 Precomputing XC quadrature grid using
 IXCGrd= 4 IRadAn=           5 IRanWt=          -1 IRanGd=           0 AccXCQ= 0.00D+00.
 Generated NRdTot=       0 NPtTot=           0 NUsed=           0 NTot=          32
 NSgBfM=  1366  1366  1366  1366  1366 MxSgAt=   158 MxSgA2=   158.
 Leave Link  302 at Sat Sep 11 03:57:24 2021, MaxMem= 23488102400 cpu:             118.7 elap:               5.0
 (Enter /sw/apps/gaussian-16.0/g16/l303.exe)
 DipDrv:  MaxL=1.
 Leave Link  303 at Sat Sep 11 03:57:24 2021, MaxMem= 23488102400 cpu:               9.3 elap:               0.4
 (Enter /sw/apps/gaussian-16.0/g16/l308.exe)
 Leave Link  308 at Sat Sep 11 03:57:25 2021, MaxMem= 23488102400 cpu:              15.3 elap:               0.7
 (Enter /sw/apps/gaussian-16.0/g16/l401.exe)
 ExpMin= 3.36D-02 ExpMax= 4.95D+03 ExpMxC= 7.45D+02 IAcc=3 IRadAn=         5 AccDes= 0.00D+00
 Harris functional with IExCor=20419 and IRadAn=       5 diagonalized for initial guess.
 HarFok:  IExCor=20419 AccDes= 0.00D+00 IRadAn=         5 IDoV= 1 UseB2=F ITyADJ=14
 ICtDFT=  3500011 ScaDFX=  1.000000  1.000000  1.000000  1.000000
 FoFCou: FMM=F IPFlag=           0 FMFlag=      100000 FMFlg1=        2001
         NFxFlg=           0 DoJE=T BraDBF=F KetDBF=T FulRan=T
         wScrn=  0.000000 ICntrl=       500 IOpCl=  0 I1Cent=   200000004 NGrid=           0
         NMat0=    1 NMatS0=      1 NMatT0=    0 NMatD0=    1 NMtDS0=    0 NMtDT0=    0
 Petite list used in FoFCou.
 Harris En= -3918.65801435934    
 JPrj=0 DoOrth=F DoCkMO=F.
 Leave Link  401 at Sat Sep 11 03:57:32 2021, MaxMem= 23488102400 cpu:             164.6 elap:               6.9
 (Enter /sw/apps/gaussian-16.0/g16/l502.exe)
 Integral symmetry usage will be decided dynamically.
 Closed shell SCF:
 Using DIIS extrapolation, IDIIS=  1040.
 NGot= 23488102400 LenX= 23482547354 LenY= 23479796732
 Requested convergence on RMS density matrix=1.00D-08 within 128 cycles.
 Requested convergence on MAX density matrix=1.00D-06.
 Requested convergence on             energy=1.00D-06.
 No special actions if energy rises.
 Fock matrices will be formed incrementally for  20 cycles.

 Cycle   1  Pass 1  IDiag  1:
 FoFJK:  IHMeth= 1 ICntrl=       0 DoSepK=T KAlg= 0 I1Cent=           0 FoldK=F
 IRaf=         1 NMat=       1 IRICut=       1 DoRegI=T DoRafI=F ISym2E= 0 IDoP0=0 IntGTp=1.
 FoFCou: FMM=T IPFlag=           0 FMFlag=      100000 FMFlg1=        2001
         NFxFlg=           0 DoJE=T BraDBF=F KetDBF=F FulRan=T
         wScrn=  0.000000 ICntrl=       500 IOpCl=  0 I1Cent=           0 NGrid=           0
         NMat0=    1 NMatS0=      1 NMatT0=    0 NMatD0=    1 NMtDS0=    0 NMtDT0=    0
 Symmetry not used in FoFCou.
 FMM levels:  10  Number of levels for PrismC:   9
 E= -4068.95005405614    
 DIIS: error= 2.04D-02 at cycle   1 NSaved=   1.
 NSaved= 1 IEnMin= 1 EnMin= -4068.95005405614     IErMin= 1 ErrMin= 2.04D-02
 ErrMax= 2.04D-02  0.00D+00 EMaxC= 1.00D-01 BMatC= 1.69D+00 BMatP= 1.69D+00
 IDIUse=3 WtCom= 7.96D-01 WtEn= 2.04D-01
 Coeff-Com:  0.100D+01
 Coeff-En:   0.100D+01
 Coeff:      0.100D+01
 Gap=     0.120 Goal=   None    Shift=    0.000
 GapD=    0.120 DampG=1.000 DampE=0.500 DampFc=0.5000 IDamp=-1.
 Damping current iteration by 5.00D-01
 RMSDP=1.57D-03 MaxDP=1.35D-01              OVMax= 2.01D-01

 Cycle   2  Pass 1  IDiag  1:
 RMSU=  7.70D-04    CP:  9.82D-01
 E= -4069.33880230470     Delta-E=       -0.388748248552 Rises=F Damp=T
 DIIS: error= 1.27D-02 at cycle   2 NSaved=   2.
 NSaved= 2 IEnMin= 2 EnMin= -4069.33880230470     IErMin= 2 ErrMin= 1.27D-02
 ErrMax= 1.27D-02  0.00D+00 EMaxC= 1.00D-01 BMatC= 3.07D-01 BMatP= 1.69D+00
 IDIUse=3 WtCom= 8.73D-01 WtEn= 1.27D-01
 Coeff-Com: -0.213D+00 0.121D+01
 Coeff-En:   0.000D+00 0.100D+01
 Coeff:     -0.186D+00 0.119D+01
 Gap=     0.134 Goal=   None    Shift=    0.000
 RMSDP=7.65D-04 MaxDP=9.42D-02 DE=-3.89D-01 OVMax= 1.88D-01

 Cycle   3  Pass 1  IDiag  1:
 RMSU=  7.32D-04    CP:  9.68D-01  1.24D+00
 E= -4069.62863208963     Delta-E=       -0.289829784939 Rises=F Damp=F
 DIIS: error= 1.56D-02 at cycle   3 NSaved=   3.
 NSaved= 3 IEnMin= 3 EnMin= -4069.62863208963     IErMin= 2 ErrMin= 1.27D-02
 ErrMax= 1.56D-02  0.00D+00 EMaxC= 1.00D-01 BMatC= 2.01D-01 BMatP= 3.07D-01
 IDIUse=3 WtCom= 8.44D-01 WtEn= 1.56D-01
 Coeff-Com: -0.267D+00 0.651D+00 0.616D+00
 Coeff-En:   0.000D+00 0.000D+00 0.100D+01
 Coeff:     -0.225D+00 0.550D+00 0.676D+00
 Gap=     0.122 Goal=   None    Shift=    0.000
 RMSDP=5.07D-04 MaxDP=4.89D-02 DE=-2.90D-01 OVMax= 1.43D-01

 Cycle   4  Pass 1  IDiag  1:
 RMSU=  2.65D-04    CP:  9.65D-01  1.54D+00  5.07D-01
 E= -4069.76611481428     Delta-E=       -0.137482724644 Rises=F Damp=F
 DIIS: error= 7.19D-03 at cycle   4 NSaved=   4.
 NSaved= 4 IEnMin= 4 EnMin= -4069.76611481428     IErMin= 4 ErrMin= 7.19D-03
 ErrMax= 7.19D-03  0.00D+00 EMaxC= 1.00D-01 BMatC= 4.98D-02 BMatP= 2.01D-01
 IDIUse=3 WtCom= 9.28D-01 WtEn= 7.19D-02
 Coeff-Com: -0.109D+00 0.226D+00 0.408D+00 0.475D+00
 Coeff-En:   0.000D+00 0.000D+00 0.219D+00 0.781D+00
 Coeff:     -0.101D+00 0.209D+00 0.394D+00 0.497D+00
 Gap=     0.121 Goal=   None    Shift=    0.000
 RMSDP=1.98D-04 MaxDP=2.06D-02 DE=-1.37D-01 OVMax= 6.20D-02

 Cycle   5  Pass 1  IDiag  1:
 RMSU=  7.50D-05    CP:  9.64D-01  1.49D+00  6.89D-01  5.52D-01
 E= -4069.81114268812     Delta-E=       -0.045027873846 Rises=F Damp=F
 DIIS: error= 7.80D-04 at cycle   5 NSaved=   5.
 NSaved= 5 IEnMin= 5 EnMin= -4069.81114268812     IErMin= 5 ErrMin= 7.80D-04
 ErrMax= 7.80D-04  0.00D+00 EMaxC= 1.00D-01 BMatC= 1.13D-03 BMatP= 4.98D-02
 IDIUse=3 WtCom= 9.92D-01 WtEn= 7.80D-03
 Coeff-Com: -0.354D-01 0.695D-01 0.163D+00 0.247D+00 0.555D+00
 Coeff-En:   0.000D+00 0.000D+00 0.000D+00 0.000D+00 0.100D+01
 Coeff:     -0.352D-01 0.690D-01 0.162D+00 0.246D+00 0.559D+00
 Gap=     0.121 Goal=   None    Shift=    0.000
 RMSDP=3.98D-05 MaxDP=4.18D-03 DE=-4.50D-02 OVMax= 1.62D-02

 Cycle   6  Pass 1  IDiag  1:
 RMSU=  2.97D-05    CP:  9.64D-01  1.49D+00  6.81D-01  6.22D-01  7.65D-01
 E= -4069.81211335075     Delta-E=       -0.000970662630 Rises=F Damp=F
 DIIS: error= 2.20D-04 at cycle   6 NSaved=   6.
 NSaved= 6 IEnMin= 6 EnMin= -4069.81211335075     IErMin= 6 ErrMin= 2.20D-04
 ErrMax= 2.20D-04  0.00D+00 EMaxC= 1.00D-01 BMatC= 1.70D-04 BMatP= 1.13D-03
 IDIUse=3 WtCom= 9.98D-01 WtEn= 2.20D-03
 Coeff-Com:  0.243D-02-0.699D-02 0.100D-01 0.385D-01 0.306D+00 0.650D+00
 Coeff-En:   0.000D+00 0.000D+00 0.000D+00 0.000D+00 0.100D+00 0.900D+00
 Coeff:      0.242D-02-0.698D-02 0.100D-01 0.384D-01 0.306D+00 0.651D+00
 Gap=     0.121 Goal=   None    Shift=    0.000
 RMSDP=1.55D-05 MaxDP=1.25D-03 DE=-9.71D-04 OVMax= 7.46D-03

 Cycle   7  Pass 1  IDiag  1:
 RMSU=  1.05D-05    CP:  9.64D-01  1.50D+00  6.87D-01  6.22D-01  8.64D-01
                    CP:  7.54D-01
 E= -4069.81229554580     Delta-E=       -0.000182195050 Rises=F Damp=F
 DIIS: error= 8.07D-05 at cycle   7 NSaved=   7.
 NSaved= 7 IEnMin= 7 EnMin= -4069.81229554580     IErMin= 7 ErrMin= 8.07D-05
 ErrMax= 8.07D-05  0.00D+00 EMaxC= 1.00D-01 BMatC= 1.95D-05 BMatP= 1.70D-04
 IDIUse=1 WtCom= 1.00D+00 WtEn= 0.00D+00
 Coeff-Com:  0.442D-02-0.965D-02-0.909D-02-0.423D-02 0.999D-01 0.326D+00
 Coeff-Com:  0.592D+00
 Coeff:      0.442D-02-0.965D-02-0.909D-02-0.423D-02 0.999D-01 0.326D+00
 Coeff:      0.592D+00
 Gap=     0.121 Goal=   None    Shift=    0.000
 RMSDP=6.29D-06 MaxDP=1.12D-03 DE=-1.82D-04 OVMax= 3.41D-03

 Cycle   8  Pass 1  IDiag  1:
 RMSU=  4.55D-06    CP:  9.64D-01  1.50D+00  6.88D-01  6.27D-01  8.70D-01
                    CP:  8.77D-01  8.28D-01
 E= -4069.81231951375     Delta-E=       -0.000023967943 Rises=F Damp=F
 DIIS: error= 5.26D-05 at cycle   8 NSaved=   8.
 NSaved= 8 IEnMin= 8 EnMin= -4069.81231951375     IErMin= 8 ErrMin= 5.26D-05
 ErrMax= 5.26D-05  0.00D+00 EMaxC= 1.00D-01 BMatC= 4.56D-06 BMatP= 1.95D-05
 IDIUse=1 WtCom= 1.00D+00 WtEn= 0.00D+00
 Coeff-Com:  0.212D-02-0.419D-02-0.766D-02-0.120D-01-0.126D-01 0.338D-01
 Coeff-Com:  0.346D+00 0.654D+00
 Coeff:      0.212D-02-0.419D-02-0.766D-02-0.120D-01-0.126D-01 0.338D-01
 Coeff:      0.346D+00 0.654D+00
 Gap=     0.121 Goal=   None    Shift=    0.000
 RMSDP=3.20D-06 MaxDP=3.82D-04 DE=-2.40D-05 OVMax= 1.26D-03

 Cycle   9  Pass 1  IDiag  1:
 RMSU=  1.87D-06    CP:  9.64D-01  1.50D+00  6.88D-01  6.28D-01  8.86D-01
                    CP:  9.03D-01  1.03D+00  9.30D-01
 E= -4069.81232672261     Delta-E=       -0.000007208866 Rises=F Damp=F
 DIIS: error= 2.03D-05 at cycle   9 NSaved=   9.
 NSaved= 9 IEnMin= 9 EnMin= -4069.81232672261     IErMin= 9 ErrMin= 2.03D-05
 ErrMax= 2.03D-05  0.00D+00 EMaxC= 1.00D-01 BMatC= 6.55D-07 BMatP= 4.56D-06
 IDIUse=1 WtCom= 1.00D+00 WtEn= 0.00D+00
 Coeff-Com:  0.464D-03-0.773D-03-0.264D-02-0.590D-02-0.215D-01-0.366D-01
 Coeff-Com:  0.106D+00 0.330D+00 0.632D+00
 Coeff:      0.464D-03-0.773D-03-0.264D-02-0.590D-02-0.215D-01-0.366D-01
 Coeff:      0.106D+00 0.330D+00 0.632D+00
 Gap=     0.121 Goal=   None    Shift=    0.000
 RMSDP=1.34D-06 MaxDP=1.48D-04 DE=-7.21D-06 OVMax= 7.32D-04

 Cycle  10  Pass 1  IDiag  1:
 RMSU=  9.05D-07    CP:  9.64D-01  1.50D+00  6.88D-01  6.28D-01  8.89D-01
                    CP:  9.16D-01  1.07D+00  1.09D+00  1.04D+00
 E= -4069.81232817123     Delta-E=       -0.000001448614 Rises=F Damp=F
 DIIS: error= 1.10D-05 at cycle  10 NSaved=  10.
 NSaved=10 IEnMin=10 EnMin= -4069.81232817123     IErMin=10 ErrMin= 1.10D-05
 ErrMax= 1.10D-05  0.00D+00 EMaxC= 1.00D-01 BMatC= 1.53D-07 BMatP= 6.55D-07
 IDIUse=1 WtCom= 1.00D+00 WtEn= 0.00D+00
 Coeff-Com: -0.409D-03 0.858D-03 0.117D-02 0.107D-02-0.400D-02-0.299D-01
 Coeff-Com: -0.467D-01-0.688D-01 0.254D+00 0.893D+00
 Coeff:     -0.409D-03 0.858D-03 0.117D-02 0.107D-02-0.400D-02-0.299D-01
 Coeff:     -0.467D-01-0.688D-01 0.254D+00 0.893D+00
 Gap=     0.121 Goal=   None    Shift=    0.000
 RMSDP=1.15D-06 MaxDP=1.29D-04 DE=-1.45D-06 OVMax= 5.84D-04

 Cycle  11  Pass 1  IDiag  1:
 RMSU=  4.89D-07    CP:  9.64D-01  1.50D+00  6.88D-01  6.29D-01  8.92D-01
                    CP:  9.26D-01  1.12D+00  1.19D+00  1.36D+00  1.35D+00
 E= -4069.81232886070     Delta-E=       -0.000000689477 Rises=F Damp=F
 DIIS: error= 3.87D-06 at cycle  11 NSaved=  11.
 NSaved=11 IEnMin=11 EnMin= -4069.81232886070     IErMin=11 ErrMin= 3.87D-06
 ErrMax= 3.87D-06  0.00D+00 EMaxC= 1.00D-01 BMatC= 5.31D-08 BMatP= 1.53D-07
 IDIUse=1 WtCom= 1.00D+00 WtEn= 0.00D+00
 Coeff-Com: -0.313D-03 0.609D-03 0.126D-02 0.202D-02 0.406D-02-0.821D-02
 Coeff-Com: -0.436D-01-0.125D+00-0.188D-01 0.460D+00 0.728D+00
 Coeff:     -0.313D-03 0.609D-03 0.126D-02 0.202D-02 0.406D-02-0.821D-02
 Coeff:     -0.436D-01-0.125D+00-0.188D-01 0.460D+00 0.728D+00
 Gap=     0.121 Goal=   None    Shift=    0.000
 RMSDP=6.27D-07 MaxDP=5.25D-05 DE=-6.89D-07 OVMax= 3.33D-04

 Cycle  12  Pass 1  IDiag  1:
 RMSU=  2.50D-07    CP:  9.64D-01  1.50D+00  6.88D-01  6.29D-01  8.93D-01
                    CP:  9.28D-01  1.14D+00  1.25D+00  1.51D+00  1.72D+00
                    CP:  1.19D+00
 E= -4069.81232908382     Delta-E=       -0.000000223121 Rises=F Damp=F
 DIIS: error= 2.31D-06 at cycle  12 NSaved=  12.
 NSaved=12 IEnMin=12 EnMin= -4069.81232908382     IErMin=12 ErrMin= 2.31D-06
 ErrMax= 2.31D-06  0.00D+00 EMaxC= 1.00D-01 BMatC= 1.23D-08 BMatP= 5.31D-08
 IDIUse=1 WtCom= 1.00D+00 WtEn= 0.00D+00
 Coeff-Com: -0.108D-05-0.131D-04 0.170D-03 0.484D-03 0.306D-02 0.375D-02
 Coeff-Com:  0.214D-02-0.329D-01-0.651D-01-0.706D-01 0.245D+00 0.914D+00
 Coeff:     -0.108D-05-0.131D-04 0.170D-03 0.484D-03 0.306D-02 0.375D-02
 Coeff:      0.214D-02-0.329D-01-0.651D-01-0.706D-01 0.245D+00 0.914D+00
 Gap=     0.121 Goal=   None    Shift=    0.000
 RMSDP=4.00D-07 MaxDP=3.08D-05 DE=-2.23D-07 OVMax= 2.31D-04

 Cycle  13  Pass 1  IDiag  1:
 RMSU=  1.57D-07    CP:  9.64D-01  1.50D+00  6.88D-01  6.29D-01  8.93D-01
                    CP:  9.28D-01  1.14D+00  1.28D+00  1.61D+00  1.94D+00
                    CP:  1.59D+00  1.27D+00
 E= -4069.81232916173     Delta-E=       -0.000000077907 Rises=F Damp=F
 DIIS: error= 1.24D-06 at cycle  13 NSaved=  13.
 NSaved=13 IEnMin=13 EnMin= -4069.81232916173     IErMin=13 ErrMin= 1.24D-06
 ErrMax= 1.24D-06  0.00D+00 EMaxC= 1.00D-01 BMatC= 7.26D-09 BMatP= 1.23D-08
 IDIUse=1 WtCom= 1.00D+00 WtEn= 0.00D+00
 Coeff-Com:  0.115D-03-0.234D-03-0.350D-03-0.428D-03 0.568D-03 0.495D-02
 Coeff-Com:  0.192D-01 0.216D-01-0.355D-01-0.236D+00-0.152D+00 0.610D+00
 Coeff-Com:  0.768D+00
 Coeff:      0.115D-03-0.234D-03-0.350D-03-0.428D-03 0.568D-03 0.495D-02
 Coeff:      0.192D-01 0.216D-01-0.355D-01-0.236D+00-0.152D+00 0.610D+00
 Coeff:      0.768D+00
 Gap=     0.121 Goal=   None    Shift=    0.000
 RMSDP=3.08D-07 MaxDP=1.76D-05 DE=-7.79D-08 OVMax= 1.68D-04

 Cycle  14  Pass 1  IDiag  1:
 RMSU=  7.38D-08    CP:  9.64D-01  1.50D+00  6.88D-01  6.29D-01  8.93D-01
                    CP:  9.28D-01  1.15D+00  1.30D+00  1.68D+00  2.12D+00
                    CP:  1.84D+00  1.78D+00  1.07D+00
 E= -4069.81232919257     Delta-E=       -0.000000030843 Rises=F Damp=F
 DIIS: error= 8.05D-07 at cycle  14 NSaved=  14.
 NSaved=14 IEnMin=14 EnMin= -4069.81232919257     IErMin=14 ErrMin= 8.05D-07
 ErrMax= 8.05D-07  0.00D+00 EMaxC= 1.00D-01 BMatC= 1.10D-09 BMatP= 7.26D-09
 IDIUse=1 WtCom= 1.00D+00 WtEn= 0.00D+00
 Coeff-Com:  0.647D-04-0.128D-03-0.238D-03-0.371D-03-0.456D-03 0.135D-02
 Coeff-Com:  0.107D-01 0.187D-01 0.180D-02-0.993D-01-0.143D+00 0.104D+00
 Coeff-Com:  0.395D+00 0.711D+00
 Coeff:      0.647D-04-0.128D-03-0.238D-03-0.371D-03-0.456D-03 0.135D-02
 Coeff:      0.107D-01 0.187D-01 0.180D-02-0.993D-01-0.143D+00 0.104D+00
 Coeff:      0.395D+00 0.711D+00
 Gap=     0.121 Goal=   None    Shift=    0.000
 RMSDP=9.70D-08 MaxDP=6.16D-06 DE=-3.08D-08 OVMax= 5.87D-05

 Cycle  15  Pass 1  IDiag  1:
 RMSU=  3.71D-08    CP:  9.64D-01  1.50D+00  6.88D-01  6.29D-01  8.93D-01
                    CP:  9.28D-01  1.15D+00  1.30D+00  1.69D+00  2.16D+00
                    CP:  1.95D+00  1.92D+00  1.31D+00  1.00D+00
 E= -4069.81232919645     Delta-E=       -0.000000003871 Rises=F Damp=F
 DIIS: error= 4.40D-07 at cycle  15 NSaved=  15.
 NSaved=15 IEnMin=15 EnMin= -4069.81232919645     IErMin=15 ErrMin= 4.40D-07
 ErrMax= 4.40D-07  0.00D+00 EMaxC= 1.00D-01 BMatC= 2.36D-10 BMatP= 1.10D-09
 IDIUse=1 WtCom= 1.00D+00 WtEn= 0.00D+00
 Coeff-Com:  0.790D-05-0.140D-04-0.410D-04-0.931D-04-0.314D-03-0.427D-03
 Coeff-Com:  0.154D-02 0.344D-02 0.829D-02-0.172D-02-0.374D-01-0.674D-01
 Coeff-Com:  0.335D-01 0.334D+00 0.727D+00
 Coeff:      0.790D-05-0.140D-04-0.410D-04-0.931D-04-0.314D-03-0.427D-03
 Coeff:      0.154D-02 0.344D-02 0.829D-02-0.172D-02-0.374D-01-0.674D-01
 Coeff:      0.335D-01 0.334D+00 0.727D+00
 Gap=     0.121 Goal=   None    Shift=    0.000
 RMSDP=3.92D-08 MaxDP=2.57D-06 DE=-3.87D-09 OVMax= 2.32D-05

 Cycle  16  Pass 1  IDiag  1:
 RMSU=  1.81D-08    CP:  9.64D-01  1.50D+00  6.88D-01  6.29D-01  8.93D-01
                    CP:  9.28D-01  1.15D+00  1.31D+00  1.70D+00  2.18D+00
                    CP:  1.98D+00  1.98D+00  1.38D+00  1.22D+00  1.12D+00
 E= -4069.81232919718     Delta-E=       -0.000000000735 Rises=F Damp=F
 DIIS: error= 2.34D-07 at cycle  16 NSaved=  16.
 NSaved=16 IEnMin=16 EnMin= -4069.81232919718     IErMin=16 ErrMin= 2.34D-07
 ErrMax= 2.34D-07  0.00D+00 EMaxC= 1.00D-01 BMatC= 7.22D-11 BMatP= 2.36D-10
 IDIUse=1 WtCom= 1.00D+00 WtEn= 0.00D+00
 Coeff-Com: -0.128D-04 0.261D-04 0.419D-04 0.460D-04-0.396D-04-0.612D-03
 Coeff-Com: -0.184D-02-0.377D-02 0.465D-02 0.244D-01 0.177D-01-0.637D-01
 Coeff-Com: -0.841D-01-0.960D-02 0.377D+00 0.740D+00
 Coeff:     -0.128D-04 0.261D-04 0.419D-04 0.460D-04-0.396D-04-0.612D-03
 Coeff:     -0.184D-02-0.377D-02 0.465D-02 0.244D-01 0.177D-01-0.637D-01
 Coeff:     -0.841D-01-0.960D-02 0.377D+00 0.740D+00
 Gap=     0.121 Goal=   None    Shift=    0.000
 RMSDP=2.21D-08 MaxDP=1.43D-06 DE=-7.35D-10 OVMax= 1.60D-05

 Cycle  17  Pass 1  IDiag  1:
 RMSU=  1.10D-08    CP:  9.64D-01  1.50D+00  6.88D-01  6.29D-01  8.93D-01
                    CP:  9.28D-01  1.15D+00  1.31D+00  1.70D+00  2.18D+00
                    CP:  1.99D+00  2.00D+00  1.43D+00  1.31D+00  1.41D+00
                    CP:  1.19D+00
 E= -4069.81232919742     Delta-E=       -0.000000000240 Rises=F Damp=F
 DIIS: error= 1.14D-07 at cycle  17 NSaved=  17.
 NSaved=17 IEnMin=17 EnMin= -4069.81232919742     IErMin=17 ErrMin= 1.14D-07
 ErrMax= 1.14D-07  0.00D+00 EMaxC= 1.00D-01 BMatC= 2.10D-11 BMatP= 7.22D-11
 IDIUse=1 WtCom= 1.00D+00 WtEn= 0.00D+00
 Coeff-Com: -0.837D-05 0.164D-04 0.321D-04 0.460D-04 0.729D-04-0.195D-03
 Coeff-Com: -0.119D-02-0.307D-02 0.712D-03 0.121D-01 0.191D-01-0.140D-01
 Coeff-Com: -0.485D-01-0.960D-01-0.158D-01 0.372D+00 0.774D+00
 Coeff:     -0.837D-05 0.164D-04 0.321D-04 0.460D-04 0.729D-04-0.195D-03
 Coeff:     -0.119D-02-0.307D-02 0.712D-03 0.121D-01 0.191D-01-0.140D-01
 Coeff:     -0.485D-01-0.960D-01-0.158D-01 0.372D+00 0.774D+00
 Gap=     0.121 Goal=   None    Shift=    0.000
 RMSDP=1.32D-08 MaxDP=8.05D-07 DE=-2.40D-10 OVMax= 7.62D-06

 Cycle  18  Pass 1  IDiag  1:
 RMSU=  5.31D-09    CP:  9.64D-01  1.50D+00  6.88D-01  6.29D-01  8.93D-01
                    CP:  9.28D-01  1.15D+00  1.31D+00  1.70D+00  2.18D+00
                    CP:  1.99D+00  2.01D+00  1.45D+00  1.38D+00  1.57D+00
                    CP:  1.59D+00  1.30D+00
 E= -4069.81232919765     Delta-E=       -0.000000000229 Rises=F Damp=F
 DIIS: error= 6.75D-08 at cycle  18 NSaved=  18.
 NSaved=18 IEnMin=18 EnMin= -4069.81232919765     IErMin=18 ErrMin= 6.75D-08
 ErrMax= 6.75D-08  0.00D+00 EMaxC= 1.00D-01 BMatC= 6.56D-12 BMatP= 2.10D-11
 IDIUse=1 WtCom= 1.00D+00 WtEn= 0.00D+00
 Coeff-Com:  0.295D-06-0.925D-06 0.184D-05 0.680D-05 0.654D-04 0.126D-03
 Coeff-Com:  0.145D-03-0.387D-03-0.105D-02-0.336D-02 0.343D-02 0.166D-01
 Coeff-Com:  0.845D-02-0.448D-01-0.147D+00-0.767D-01 0.361D+00 0.883D+00
 Coeff:      0.295D-06-0.925D-06 0.184D-05 0.680D-05 0.654D-04 0.126D-03
 Coeff:      0.145D-03-0.387D-03-0.105D-02-0.336D-02 0.343D-02 0.166D-01
 Coeff:      0.845D-02-0.448D-01-0.147D+00-0.767D-01 0.361D+00 0.883D+00
 Gap=     0.121 Goal=   None    Shift=    0.000
 RMSDP=1.01D-08 MaxDP=8.29D-07 DE=-2.29D-10 OVMax= 7.18D-06

 Cycle  19  Pass 1  IDiag  1:
 RMSU=  3.22D-09    CP:  9.64D-01  1.50D+00  6.88D-01  6.29D-01  8.93D-01
                    CP:  9.28D-01  1.15D+00  1.31D+00  1.70D+00  2.18D+00
                    CP:  2.00D+00  2.02D+00  1.46D+00  1.42D+00  1.70D+00
                    CP:  1.86D+00  1.81D+00  1.17D+00
 E= -4069.81232919753     Delta-E=        0.000000000116 Rises=F Damp=F
 DIIS: error= 3.61D-08 at cycle  19 NSaved=  19.
 NSaved=19 IEnMin=18 EnMin= -4069.81232919765     IErMin=19 ErrMin= 3.61D-08
 ErrMax= 3.61D-08  0.00D+00 EMaxC= 1.00D-01 BMatC= 3.14D-12 BMatP= 6.56D-12
 IDIUse=1 WtCom= 1.00D+00 WtEn= 0.00D+00
 Coeff-Com:  0.331D-05-0.673D-05-0.108D-04-0.129D-04 0.208D-04 0.156D-03
 Coeff-Com:  0.566D-03 0.863D-03-0.886D-03-0.719D-02-0.507D-02 0.165D-01
 Coeff-Com:  0.247D-01 0.592D-02-0.994D-01-0.206D+00-0.810D-01 0.601D+00
 Coeff-Com:  0.751D+00
 Coeff:      0.331D-05-0.673D-05-0.108D-04-0.129D-04 0.208D-04 0.156D-03
 Coeff:      0.566D-03 0.863D-03-0.886D-03-0.719D-02-0.507D-02 0.165D-01
 Coeff:      0.247D-01 0.592D-02-0.994D-01-0.206D+00-0.810D-01 0.601D+00
 Coeff:      0.751D+00
 Gap=     0.121 Goal=   None    Shift=    0.000
 RMSDP=7.14D-09 MaxDP=4.21D-07 DE= 1.16D-10 OVMax= 3.83D-06

 SCF Done:  E(RCAM-B3LYP) =  -4069.81232920     A.U. after   19 cycles
            NFock= 19  Conv=0.71D-08     -V/T= 2.0102
 KE= 4.028802350124D+03 PE=-3.802258354524D+04 EE= 1.565318597603D+04
 Leave Link  502 at Sat Sep 11 04:06:53 2021, MaxMem= 23488102400 cpu:           12881.2 elap:             561.4
 (Enter /sw/apps/gaussian-16.0/g16/l801.exe)
 DoSCS=F DFT=T ScalE2(SS,OS)=  1.000000  1.000000
 ExpMin= 3.36D-02 ExpMax= 4.95D+03 ExpMxC= 7.45D+02 IAcc=3 IRadAn=         5 AccDes= 0.00D+00
 HarFok:  IExCor=  205 AccDes= 0.00D+00 IRadAn=         5 IDoV=-2 UseB2=F ITyADJ=14
 ICtDFT= 12500011 ScaDFX=  1.000000  1.000000  1.000000  1.000000
 GSVD:  LWork=       -9588 too small for GESVD, short by       45590 words or       45590 for optimal perf.
 Largest valence mixing into a core orbital is  2.03D-04
 Largest core mixing into a valence orbital is  5.23D-05
 Range of M.O.s used for correlation:    95  1572
 NBasis=  1572 NAE=   312 NBE=   312 NFC=    94 NFV=     0
 NROrb=   1478 NOA=   218 NOB=   218 NVA=  1260 NVB=  1260
 Leave Link  801 at Sat Sep 11 04:06:54 2021, MaxMem= 23488102400 cpu:               8.7 elap:               0.4
 (Enter /sw/apps/gaussian-16.0/g16/l914.exe)
 RHF ground state
 Two-electron integrals replicated using symmetry.
 MDV= 23488102400 DFT=T DoStab=F Mixed=T DoRPA=T DoScal=F NonHer=T
 Making orbital integer symmetry assigments:
 Orbital symmetries:
       Occupied  (A) (A) (A) (A) (A) (A) (A) (A) (A) (A) (A) (A)
                 (A) (A) (A) (A) (A) (A) (A) (A) (A) (A) (A) (A)
                 (A) (A) (A) (A) (A) (A) (A) (A) (A) (A) (A) (A)
                 (A) (A) (A) (A) (A) (A) (A) (A) (A) (A) (A) (A)
                 (A) (A) (A) (A) (A) (A) (A) (A) (A) (A) (A) (A)
                 (A) (A) (A) (A) (A) (A) (A) (A) (A) (A) (A) (A)
                 (A) (A) (A) (A) (A) (A) (A) (A) (A) (A) (A) (A)
                 (A) (A) (A) (A) (A) (A) (A) (A) (A) (A) (A) (A)
                 (A) (A) (A) (A) (A) (A) (A) (A) (A) (A) (A) (A)
                 (A) (A) (A) (A) (A) (A) (A) (A) (A) (A) (A) (A)
                 (A) (A) (A) (A) (A) (A) (A) (A) (A) (A) (A) (A)
                 (A) (A) (A) (A) (A) (A) (A) (A) (A) (A) (A) (A)
                 (A) (A) (A) (A) (A) (A) (A) (A) (A) (A) (A) (A)
                 (A) (A) (A) (A) (A) (A) (A) (A) (A) (A) (A) (A)
                 (A) (A) (A) (A) (A) (A) (A) (A) (A) (A) (A) (A)
                 (A) (A) (A) (A) (A) (A) (A) (A) (A) (A) (A) (A)
                 (A) (A) (A) (A) (A) (A) (A) (A) (A) (A) (A) (A)
                 (A) (A) (A) (A) (A) (A) (A) (A) (A) (A) (A) (A)
                 (A) (A) (A) (A) (A) (A) (A) (A) (A) (A) (A) (A)
                 (A) (A) (A) (A) (A) (A) (A) (A) (A) (A) (A) (A)
                 (A) (A) (A) (A) (A) (A) (A) (A) (A) (A) (A) (A)
                 (A) (A) (A) (A) (A) (A) (A) (A) (A) (A) (A) (A)
                 (A) (A) (A) (A) (A) (A) (A) (A) (A) (A) (A) (A)
                 (A) (A) (A) (A) (A) (A) (A) (A) (A) (A) (A) (A)
                 (A) (A) (A) (A) (A) (A) (A) (A) (A) (A) (A) (A)
                 (A) (A) (A) (A) (A) (A) (A) (A) (A) (A) (A) (A)
       Virtual   (A) (A) (A) (A) (A) (A) (A) (A) (A) (A) (A) (A)
                 (A) (A) (A) (A) (A) (A) (A) (A) (A) (A) (A) (A)
                 (A) (A) (A) (A) (A) (A) (A) (A) (A) (A) (A) (A)
                 (A) (A) (A) (A) (A) (A) (A) (A) (A) (A) (A) (A)
                 (A) (A) (A) (A) (A) (A) (A) (A) (A) (A) (A) (A)
                 (A) (A) (A) (A) (A) (A) (A) (A) (A) (A) (A) (A)
                 (A) (A) (A) (A) (A) (A) (A) (A) (A) (A) (A) (A)
                 (A) (A) (A) (A) (A) (A) (A) (A) (A) (A) (A) (A)
                 (A) (A) (A) (A) (A) (A) (A) (A) (A) (A) (A) (A)
                 (A) (A) (A) (A) (A) (A) (A) (A) (A) (A) (A) (A)
                 (A) (A) (A) (A) (A) (A) (A) (A) (A) (A) (A) (A)
                 (A) (A) (A) (A) (A) (A) (A) (A) (A) (A) (A) (A)
                 (A) (A) (A) (A) (A) (A) (A) (A) (A) (A) (A) (A)
                 (A) (A) (A) (A) (A) (A) (A) (A) (A) (A) (A) (A)
                 (A) (A) (A) (A) (A) (A) (A) (A) (A) (A) (A) (A)
                 (A) (A) (A) (A) (A) (A) (A) (A) (A) (A) (A) (A)
                 (A) (A) (A) (A) (A) (A) (A) (A) (A) (A) (A) (A)
                 (A) (A) (A) (A) (A) (A) (A) (A) (A) (A) (A) (A)
                 (A) (A) (A) (A) (A) (A) (A) (A) (A) (A) (A) (A)
                 (A) (A) (A) (A) (A) (A) (A) (A) (A) (A) (A) (A)
                 (A) (A) (A) (A) (A) (A) (A) (A) (A) (A) (A) (A)
                 (A) (A) (A) (A) (A) (A) (A) (A) (A) (A) (A) (A)
                 (A) (A) (A) (A) (A) (A) (A) (A) (A) (A) (A) (A)
                 (A) (A) (A) (A) (A) (A) (A) (A) (A) (A) (A) (A)
                 (A) (A) (A) (A) (A) (A) (A) (A) (A) (A) (A) (A)
                 (A) (A) (A) (A) (A) (A) (A) (A) (A) (A) (A) (A)
                 (A) (A) (A) (A) (A) (A) (A) (A) (A) (A) (A) (A)
                 (A) (A) (A) (A) (A) (A) (A) (A) (A) (A) (A) (A)
                 (A) (A) (A) (A) (A) (A) (A) (A) (A) (A) (A) (A)
                 (A) (A) (A) (A) (A) (A) (A) (A) (A) (A) (A) (A)
                 (A) (A) (A) (A) (A) (A) (A) (A) (A) (A) (A) (A)
                 (A) (A) (A) (A) (A) (A) (A) (A) (A) (A) (A) (A)
                 (A) (A) (A) (A) (A) (A) (A) (A) (A) (A) (A) (A)
                 (A) (A) (A) (A) (A) (A) (A) (A) (A) (A) (A) (A)
                 (A) (A) (A) (A) (A) (A) (A) (A) (A) (A) (A) (A)
                 (A) (A) (A) (A) (A) (A) (A) (A) (A) (A) (A) (A)
                 (A) (A) (A) (A) (A) (A) (A) (A) (A) (A) (A) (A)
                 (A) (A) (A) (A) (A) (A) (A) (A) (A) (A) (A) (A)
                 (A) (A) (A) (A) (A) (A) (A) (A) (A) (A) (A) (A)
                 (A) (A) (A) (A) (A) (A) (A) (A) (A) (A) (A) (A)
                 (A) (A) (A) (A) (A) (A) (A) (A) (A) (A) (A) (A)
                 (A) (A) (A) (A) (A) (A) (A) (A) (A) (A) (A) (A)
                 (A) (A) (A) (A) (A) (A) (A) (A) (A) (A) (A) (A)
                 (A) (A) (A) (A) (A) (A) (A) (A) (A) (A) (A) (A)
                 (A) (A) (A) (A) (A) (A) (A) (A) (A) (A) (A) (A)
                 (A) (A) (A) (A) (A) (A) (A) (A) (A) (A) (A) (A)
                 (A) (A) (A) (A) (A) (A) (A) (A) (A) (A) (A) (A)
                 (A) (A) (A) (A) (A) (A) (A) (A) (A) (A) (A) (A)
                 (A) (A) (A) (A) (A) (A) (A) (A) (A) (A) (A) (A)
                 (A) (A) (A) (A) (A) (A) (A) (A) (A) (A) (A) (A)
                 (A) (A) (A) (A) (A) (A) (A) (A) (A) (A) (A) (A)
                 (A) (A) (A) (A) (A) (A) (A) (A) (A) (A) (A) (A)
                 (A) (A) (A) (A) (A) (A) (A) (A) (A) (A) (A) (A)
                 (A) (A) (A) (A) (A) (A) (A) (A) (A) (A) (A) (A)
                 (A) (A) (A) (A) (A) (A) (A) (A) (A) (A) (A) (A)
                 (A) (A) (A) (A) (A) (A) (A) (A) (A) (A) (A) (A)
                 (A) (A) (A) (A) (A) (A) (A) (A) (A) (A) (A) (A)
                 (A) (A) (A) (A) (A) (A) (A) (A) (A) (A) (A) (A)
                 (A) (A) (A) (A) (A) (A) (A) (A) (A) (A) (A) (A)
                 (A) (A) (A) (A) (A) (A) (A) (A) (A) (A) (A) (A)
                 (A) (A) (A) (A) (A) (A) (A) (A) (A) (A) (A) (A)
                 (A) (A) (A) (A) (A) (A) (A) (A) (A) (A) (A) (A)
                 (A) (A) (A) (A) (A) (A) (A) (A) (A) (A) (A) (A)
                 (A) (A) (A) (A) (A) (A) (A) (A) (A) (A) (A) (A)
                 (A) (A) (A) (A) (A) (A) (A) (A) (A) (A) (A) (A)
                 (A) (A) (A) (A) (A) (A) (A) (A) (A) (A) (A) (A)
                 (A) (A) (A) (A) (A) (A) (A) (A) (A) (A) (A) (A)
                 (A) (A) (A) (A) (A) (A) (A) (A) (A) (A) (A) (A)
                 (A) (A) (A) (A) (A) (A) (A) (A) (A) (A) (A) (A)
                 (A) (A) (A) (A) (A) (A) (A) (A) (A) (A) (A) (A)
                 (A) (A) (A) (A) (A) (A) (A) (A) (A) (A) (A) (A)
                 (A) (A) (A) (A) (A) (A) (A) (A) (A) (A) (A) (A)
                 (A) (A) (A) (A) (A) (A) (A) (A) (A) (A) (A) (A)
                 (A) (A) (A) (A) (A) (A) (A) (A) (A) (A) (A) (A)
                 (A) (A) (A) (A) (A) (A) (A) (A) (A) (A) (A) (A)
                 (A) (A) (A) (A) (A) (A) (A) (A) (A) (A) (A) (A)
                 (A) (A) (A) (A) (A) (A) (A) (A) (A) (A) (A) (A)
                 (A) (A) (A) (A) (A) (A) (A) (A) (A) (A) (A) (A)
                 (A) (A) (A) (A) (A) (A) (A) (A) (A) (A) (A) (A)
                 (A) (A) (A) (A) (A) (A) (A) (A) (A) (A) (A) (A)
                 (A) (A) (A) (A) (A) (A) (A) (A) (A) (A) (A) (A)
                 (A) (A) (A) (A) (A) (A) (A) (A) (A) (A) (A) (A)
                 (A) (A) (A) (A) (A) (A) (A) (A) (A) (A) (A) (A)
                 (A) (A) (A) (A) (A) (A) (A) (A) (A) (A) (A) (A)
                 (A) (A) (A) (A) (A) (A) (A) (A) (A) (A) (A) (A)
                 (A) (A) (A) (A) (A) (A) (A) (A) (A) (A) (A) (A)
                 (A) (A) (A) (A) (A) (A) (A) (A) (A) (A) (A) (A)
                 (A) (A) (A) (A) (A) (A) (A) (A) (A) (A) (A) (A)
                 (A) (A) (A) (A) (A) (A) (A) (A) (A) (A) (A) (A)
                 (A) (A) (A) (A) (A) (A) (A) (A) (A) (A) (A) (A)
                 (A) (A) (A) (A) (A) (A) (A) (A) (A) (A) (A) (A)
                 (A) (A) (A) (A) (A) (A) (A) (A) (A) (A) (A) (A)
                 (A) (A) (A) (A) (A) (A) (A) (A) (A) (A) (A) (A)
                 (A) (A) (A) (A) (A) (A) (A) (A) (A) (A) (A) (A)
                 (A) (A) (A) (A) (A) (A) (A) (A) (A) (A) (A) (A)
                 (A) (A) (A) (A) (A) (A) (A) (A) (A) (A) (A) (A)
                 (A) (A) (A) (A) (A) (A) (A) (A) (A) (A) (A) (A)
                 (A) (A) (A) (A) (A) (A) (A) (A) (A) (A) (A) (A)
                 (A) (A) (A) (A) (A) (A) (A) (A) (A) (A) (A) (A)
                 (A) (A) (A) (A) (A) (A) (A) (A) (A) (A) (A) (A)
                 (A) (A) (A) (A) (A) (A) (A) (A) (A) (A) (A) (A)
                 (A) (A) (A) (A) (A) (A) (A) (A) (A) (A) (A) (A)
                 (A) (A) (A) (A) (A) (A) (A) (A) (A) (A) (A) (A)
                 (A) (A) (A) (A) (A) (A) (A) (A) (A) (A) (A) (A)
                 (A) (A) (A) (A) (A) (A) (A) (A) (A) (A) (A) (A)
    20 initial guesses have been made.
 Convergence on wavefunction:    0.001000000000000
 Davidson Disk Diagonalization:  ConvIn= 1.00D-03 SkipCon=T Conv= 1.00D-03.
 Max sub-space:  2000 roots to seek:    20 dimension of matrix:       549360
 Iteration     1 Dimension    20 NMult     0 NNew     20
 CISAX will form    20 AO SS matrices at one time.
 NMat=    20 NSing=    20 JSym2X= 0.
 FoFJK:  IHMeth= 1 ICntrl=       0 DoSepK=T KAlg= 0 I1Cent=           0 FoldK=F
 IRaf=         1 NMat=      40 IRICut=       1 DoRegI=T DoRafI=F ISym2E= 0 IDoP0=3 IntGTp=3.
 FoFCou: FMM=T IPFlag=           0 FMFlag=      100000 FMFlg1=        2001
         NFxFlg=           0 DoJE=F BraDBF=F KetDBF=F FulRan=T
         wScrn=  0.000000 ICntrl=       500 IOpCl=  0 I1Cent=           0 NGrid=           0
         NMat0=   20 NMatS0=     20 NMatT0=    0 NMatD0=   20 NMtDS0=    0 NMtDT0=    0
 Symmetry not used in FoFCou.
 FMM levels:  10  Number of levels for PrismC:   9
 New state      1 was old state      7
 New state      2 was old state      6
 New state      3 was old state      1
 New state      4 was old state      2
 New state      5 was old state      3
 Excitation Energies [eV] at current iteration:
 Root      1 :     2.612963236740690
 Root      2 :     2.619540176461076
 Root      3 :     2.640772065105924
 Root      4 :     2.664814357252321
 Root      5 :     2.707269048066385
 Root      6 :     2.748920635130432
 Root      7 :     3.449395021127593
 Root      8 :     3.550389110408045
 Root      9 :     3.635193444188587
 Root     10 :     3.674492415347610
 Root     11 :     3.727310505501983
 Root     12 :     3.757859655154180
 Root     13 :     4.288486671012718
 Root     14 :     4.327810147802693
 Root     15 :     4.550530607743597
 Root     16 :     4.668436985519707
 Root     17 :     4.704750290945539
 Root     18 :     4.961866719122231
 Root     19 :     4.974729514651219
 Root     20 :     5.024309953696641
 Iteration     2 Dimension    30 NMult    20 NNew     10
 CISAX will form    10 AO SS matrices at one time.
 NMat=    10 NSing=    10 JSym2X= 0.
 New state      1 was old state      4
 Root      1 not converged, maximum delta is    0.145501374137285
 New state      2 was old state      5
 Root      2 not converged, maximum delta is    0.150408303693721
 New state      3 was old state      2
 Root      3 not converged, maximum delta is    0.414337653555239
 New state      4 was old state      1
 Root      4 not converged, maximum delta is    0.430513000135542
 New state      5 was old state      3
 Root      5 not converged, maximum delta is    0.009554874192471
 Excitation Energies [eV] at current iteration:
 Root      1 :     1.791039070130660   Change is   -0.873775287121662
 Root      2 :     1.816795045471018   Change is   -0.890474002595367
 Root      3 :     2.235625936299584   Change is   -0.383914240161492
 Root      4 :     2.241180411062149   Change is   -0.371782825678541
 Root      5 :     2.639630860007563   Change is   -0.001141205098360
 Iteration     3 Dimension    40 NMult    30 NNew     10
 CISAX will form    10 AO SS matrices at one time.
 NMat=    10 NSing=    10 JSym2X= 0.
 Root      1 not converged, maximum delta is    0.053518975466435
 Root      2 not converged, maximum delta is    0.054474525287367
 Root      3 not converged, maximum delta is    0.103783775468074
 Root      4 not converged, maximum delta is    0.103390003184834
 Root      5 has converged.
 Excitation Energies [eV] at current iteration:
 Root      1 :     1.685031011122024   Change is   -0.106008059008636
 Root      2 :     1.707619571233381   Change is   -0.109175474237638
 Root      3 :     2.195520341012365   Change is   -0.040105595287219
 Root      4 :     2.202234549769984   Change is   -0.038945861292165
 Root      5 :     2.639628301907450   Change is   -0.000002558100114
 Iteration     4 Dimension    48 NMult    40 NNew      8
 CISAX will form     8 AO SS matrices at one time.
 NMat=     8 NSing=     8 JSym2X= 0.
 Root      1 not converged, maximum delta is    0.010232050157462
 Root      2 not converged, maximum delta is    0.010415622682332
 Root      3 not converged, maximum delta is    0.016021969225018
 Root      4 not converged, maximum delta is    0.015864473095132
 Root      5 has converged.
 Excitation Energies [eV] at current iteration:
 Root      1 :     1.668341594688817   Change is   -0.016689416433207
 Root      2 :     1.690717668089090   Change is   -0.016901903144291
 Root      3 :     2.188422985486123   Change is   -0.007097355526242
 Root      4 :     2.195455241022026   Change is   -0.006779308747958
 Root      5 :     2.639628301891349   Change is   -0.000000000016101
 Iteration     5 Dimension    56 NMult    48 NNew      8
 CISAX will form     8 AO SS matrices at one time.
 NMat=     8 NSing=     8 JSym2X= 0.
 Root      1 not converged, maximum delta is    0.001674153438090
 Root      2 not converged, maximum delta is    0.001749617227469
 Root      3 not converged, maximum delta is    0.002397721650371
 Root      4 not converged, maximum delta is    0.002356578100562
 Root      5 has converged.
 Excitation Energies [eV] at current iteration:
 Root      1 :     1.666607728988152   Change is   -0.001733865700665
 Root      2 :     1.688897455256768   Change is   -0.001820212832321
 Root      3 :     2.187600863498091   Change is   -0.000822121988031
 Root      4 :     2.194683303551529   Change is   -0.000771937470497
 Root      5 :     2.639628301855440   Change is   -0.000000000035909
 Iteration     6 Dimension    64 NMult    56 NNew      8
 CISAX will form     8 AO SS matrices at one time.
 NMat=     8 NSing=     8 JSym2X= 0.
 Root      1 not converged, maximum delta is    0.001044427160272
 Root      2 not converged, maximum delta is    0.001067534251292
 Root      3 has converged.
 Root      4 has converged.
 Root      5 has converged.
 Excitation Energies [eV] at current iteration:
 Root      1 :     1.666360108411845   Change is   -0.000247620576307
 Root      2 :     1.688637795060857   Change is   -0.000259660195911
 Root      3 :     2.187477418261566   Change is   -0.000123445236526
 Root      4 :     2.194565622721785   Change is   -0.000117680829744
 Root      5 :     2.639628301838872   Change is   -0.000000000016568
 Iteration     7 Dimension    68 NMult    64 NNew      4
 CISAX will form     4 AO SS matrices at one time.
 NMat=     4 NSing=     4 JSym2X= 0.
 Root      1 has converged.
 Root      2 has converged.
 Root      3 has converged.
 Root      4 has converged.
 Root      5 has converged.
 Excitation Energies [eV] at current iteration:
 Root      1 :     1.666335960417812   Change is   -0.000024147994033
[...]
 Alpha virt. eigenvalues --    1.84426   1.84629   1.84785   1.84917   1.85094
 Alpha virt. eigenvalues --    1.85209   1.85256   1.85494   1.85503   1.85672
 Alpha virt. eigenvalues --    1.85847   1.86009   1.86355   1.86500   1.86550
 Alpha virt. eigenvalues --    1.86764   1.86770   1.86932   1.87008   1.87119
 Alpha virt. eigenvalues --    1.87421   1.87580   1.87634   1.87848   1.87853
 Alpha virt. eigenvalues --    1.88021   1.88113   1.88289   1.88513   1.88699
 Alpha virt. eigenvalues --    1.88780   1.89045   1.89129   1.89138   1.89615
 Alpha virt. eigenvalues --    1.89734   1.89801   1.90025   1.90089   1.90317
 Alpha virt. eigenvalues --    1.90707   1.90974   1.91302   1.91428   1.91504
 Alpha virt. eigenvalues --    1.91679   1.92119   1.92267   1.92567   1.92734
 Alpha virt. eigenvalues --    1.92959   1.93250   1.93336   1.93595   1.94279
 Alpha virt. eigenvalues --    1.94391   1.94678   1.94931   1.95488   1.95665
 Alpha virt. eigenvalues --    1.95680   1.95883   1.95937   1.96137   1.96158
 Alpha virt. eigenvalues --    1.96251   1.96560   1.96574   1.96876   1.97055
 Alpha virt. eigenvalues --    1.97427   1.97609   1.97821   1.97870   1.98121
 Alpha virt. eigenvalues --    1.98246   1.98407   1.98580   1.99091   1.99164
 Alpha virt. eigenvalues --    1.99761   2.00027   2.00640   2.00807   2.00940
 Alpha virt. eigenvalues --    2.01186   2.01398   2.01595   2.01654   2.01671
 Alpha virt. eigenvalues --    2.01702   2.01899   2.02748   2.02797   2.03209
 Alpha virt. eigenvalues --    2.03225   2.03349   2.03414   2.03471   2.03604
 Alpha virt. eigenvalues --    2.03994   2.04109   2.04938   2.05095   2.05495
 Alpha virt. eigenvalues --    2.05755   2.06053   2.06412   2.06816   2.07099
 Alpha virt. eigenvalues --    2.07142   2.07429   2.08590   2.08724   2.08943
 Alpha virt. eigenvalues --    2.09092   2.09533   2.09713   2.10800   2.11114
 Alpha virt. eigenvalues --    2.11143   2.11474   2.11509   2.11597   2.11694
 Alpha virt. eigenvalues --    2.11995   2.12419   2.12546   2.12777   2.12806
 Alpha virt. eigenvalues --    2.12910   2.12951   2.13693   2.13699   2.14137
 Alpha virt. eigenvalues --    2.14325   2.15308   2.15521   2.15873   2.16155
 Alpha virt. eigenvalues --    2.16512   2.16693   2.16704   2.17263   2.17386
 Alpha virt. eigenvalues --    2.17681   2.17740   2.18011   2.18057   2.18088
 Alpha virt. eigenvalues --    2.18257   2.18756   2.18800   2.19304   2.19592
 Alpha virt. eigenvalues --    2.19913   2.19991   2.20159   2.20317   2.20540
 Alpha virt. eigenvalues --    2.21174   2.21265   2.21642   2.21676   2.21860
 Alpha virt. eigenvalues --    2.21971   2.22654   2.22799   2.23294   2.23419
 Alpha virt. eigenvalues --    2.24378   2.24508   2.24990   2.25128   2.26228
 Alpha virt. eigenvalues --    2.26519   2.26755   2.27038   2.27095   2.27284
 Alpha virt. eigenvalues --    2.28095   2.28399   2.29242   2.29535   2.29678
 Alpha virt. eigenvalues --    2.29964   2.30395   2.30687   2.30875   2.31015
 Alpha virt. eigenvalues --    2.31112   2.31277   2.32109   2.32339   2.33080
 Alpha virt. eigenvalues --    2.33325   2.33421   2.33550   2.34130   2.34203
 Alpha virt. eigenvalues --    2.35283   2.35355   2.35747   2.36008   2.36365
 Alpha virt. eigenvalues --    2.36452   2.36535   2.36584   2.37657   2.37752
 Alpha virt. eigenvalues --    2.38256   2.38523   2.38791   2.38863   2.39570
 Alpha virt. eigenvalues --    2.39759   2.40172   2.40334   2.40427   2.40896
 Alpha virt. eigenvalues --    2.41205   2.41273   2.41692   2.41777   2.41957
 Alpha virt. eigenvalues --    2.42198   2.42919   2.42962   2.43083   2.43398
 Alpha virt. eigenvalues --    2.44095   2.44118   2.44691   2.44861   2.44906
 Alpha virt. eigenvalues --    2.45061   2.45513   2.45665   2.46281   2.46413
 Alpha virt. eigenvalues --    2.46430   2.46608   2.46742   2.46885   2.47218
 Alpha virt. eigenvalues --    2.47445   2.47682   2.47969   2.49307   2.49512
 Alpha virt. eigenvalues --    2.49968   2.50083   2.50562   2.50599   2.51053
 Alpha virt. eigenvalues --    2.51330   2.51731   2.51831   2.52373   2.52445
 Alpha virt. eigenvalues --    2.52761   2.53244   2.53894   2.54070   2.54149
 Alpha virt. eigenvalues --    2.54434   2.54756   2.54878   2.55495   2.55761
 Alpha virt. eigenvalues --    2.57837   2.58184   2.58622   2.58983   2.60126
 Alpha virt. eigenvalues --    2.60357   2.60555   2.60997   2.61688   2.61921
 Alpha virt. eigenvalues --    2.62483   2.62510   2.62908   2.63190   2.63890
 Alpha virt. eigenvalues --    2.64260   2.64309   2.64476   2.65046   2.65160
 Alpha virt. eigenvalues --    2.65727   2.65926   2.66771   2.66885   2.66895
 Alpha virt. eigenvalues --    2.67138   2.67884   2.68046   2.68812   2.68909
 Alpha virt. eigenvalues --    2.68962   2.69087   2.69384   2.69652   2.69967
 Alpha virt. eigenvalues --    2.70203   2.70939   2.71123   2.71951   2.71986
 Alpha virt. eigenvalues --    2.72539   2.72579   2.72716   2.72776   2.73288
 Alpha virt. eigenvalues --    2.73356   2.73388   2.73488   2.74463   2.74567
 Alpha virt. eigenvalues --    2.74918   2.75119   2.76571   2.76579   2.77124
 Alpha virt. eigenvalues --    2.77162   2.77423   2.77703   2.78181   2.78414
 Alpha virt. eigenvalues --    2.78659   2.78753   2.79091   2.79218   2.80298
 Alpha virt. eigenvalues --    2.80401   2.80502   2.80742   2.81045   2.81225
 Alpha virt. eigenvalues --    2.81877   2.82052   2.82311   2.82389   2.83667
 Alpha virt. eigenvalues --    2.83748   2.83944   2.83973   2.84508   2.84605
 Alpha virt. eigenvalues --    2.84870   2.84937   2.85653   2.85800   2.86707
 Alpha virt. eigenvalues --    2.86945   2.87193   2.87501   2.88134   2.88367
 Alpha virt. eigenvalues --    2.88471   2.88661   2.88896   2.88944   2.90455
 Alpha virt. eigenvalues --    2.90698   2.91114   2.91181   2.93097   2.93382
 Alpha virt. eigenvalues --    2.93829   2.94163   2.94558   2.94658   2.95300
 Alpha virt. eigenvalues --    2.95511   2.95842   2.96080   2.96426   2.96435
 Alpha virt. eigenvalues --    2.96882   2.97074   2.97726   2.98157   2.98174
 Alpha virt. eigenvalues --    2.98330   2.98392   2.98543   2.98639   2.98828
 Alpha virt. eigenvalues --    2.98856   2.98992   2.99606   2.99902   2.99937
 Alpha virt. eigenvalues --    3.00040   3.00180   3.00396   3.00479   3.01040
 Alpha virt. eigenvalues --    3.01940   3.01989   3.01998   3.02188   3.02626
 Alpha virt. eigenvalues --    3.02892   3.02915   3.03317   3.03454   3.03744
 Alpha virt. eigenvalues --    3.04098   3.04174   3.04397   3.04476   3.04552
 Alpha virt. eigenvalues --    3.04766   3.05299   3.05458   3.06081   3.06203
 Alpha virt. eigenvalues --    3.06740   3.06985   3.08048   3.08147   3.09339
 Alpha virt. eigenvalues --    3.09442   3.09653   3.10395   3.10459   3.10791
 Alpha virt. eigenvalues --    3.11340   3.11526   3.11863   3.11929   3.12227
 Alpha virt. eigenvalues --    3.12340   3.13216   3.13641   3.13693   3.13764
 Alpha virt. eigenvalues --    3.13964   3.14483   3.15963   3.16032   3.17210
 Alpha virt. eigenvalues --    3.17573   3.17988   3.18081   3.19108   3.19123
 Alpha virt. eigenvalues --    3.22164   3.22614   3.23892   3.24495   3.24583
 Alpha virt. eigenvalues --    3.25232   3.26456   3.26716   3.27447   3.27569
 Alpha virt. eigenvalues --    3.28947   3.29229   3.31438   3.31472   3.33249
 Alpha virt. eigenvalues --    3.33377   3.40253   3.40462   3.42800   3.42922
 Alpha virt. eigenvalues --    3.48590   3.48747   3.49979   3.50343   3.50900
 Alpha virt. eigenvalues --    3.51434   3.56515   3.57072   3.59073   3.59396
 Alpha virt. eigenvalues --    3.62571   3.62777   3.66184   3.66230   3.67032
 Alpha virt. eigenvalues --    3.67545   3.73129   3.74034   3.75932   3.76699
          Condensed to atoms (all electrons):
 Mulliken charges:
               1
     1  Mg   0.837879
     2  C   -0.003754
     3  C   -0.094209
     4  C   -0.045435
     5  C   -0.063661
     6  N   -0.256861
     7  C   -0.052781
     8  C   -0.013943
     9  C   -0.087021
    10  C    0.046278
    11  C    0.104749
    12  C    0.053496
    13  C   -0.071612
    14  H    0.035006
    15  N   -0.433278
    16  C    0.168564
    17  C   -0.176947
    18  C   -0.003623
    19  C    0.148802
    20  C    0.110093
    21  C    0.012675
    22  O   -0.249003
    23  C    0.062307
    24  N   -0.341181
    25  C    0.041440
    26  C   -0.028304
    27  C   -0.023994
    28  C    0.074872
    29  C    0.076100
    30  C    0.034953
    31  C   -0.004740
    32  N   -0.310206
    33  C    0.079782
    34  C   -0.170194
    35  C    0.007961
    36  C    0.082148
    37  C    0.127471
    38  C    0.045243
    39  O   -0.189169
    40  C   -0.005011
    41  C    0.213127
    42  O   -0.259098
    43  O   -0.304271
    44  C    0.158033
    45  H   -0.017376
    46  H   -0.016255
    47  H   -0.041134
    48  H    0.000879
    49  H   -0.003946
    50  H    0.025486
    51  H    0.016714
    52  H    0.016866
    53  H    0.011305
    54  H    0.042866
    55  H    0.018229
    56  H    0.018409
    57  H    0.005882
    58  H    0.027167
    59  H    0.040112
    60  H    0.037332
    61  H    0.036251
    62  H    0.031875
    63  H    0.017270
    64  H    0.009449
    65  H    0.023603
    66  H    0.012372
    67  H    0.004873
    68  H    0.006840
    69  H    0.004727
    70  H    0.009475
    71  H    0.020623
    72  H    0.027455
    73  H    0.046766
    74  H    0.009577
    75  H    0.046151
    76  H    0.035397
    77  H    0.043143
    78  H    0.046674
    79  H    0.052255
    80  Mg   0.837414
    81  C   -0.016912
    82  C   -0.087362
    83  C   -0.045579
    84  C   -0.064958
    85  N   -0.254510
    86  C   -0.050284
    87  C   -0.015071
    88  C   -0.090509
    89  C    0.045602
    90  C    0.114356
    91  C    0.062503
    92  C   -0.077610
    93  H    0.033889
    94  N   -0.423649
    95  C    0.162859
    96  C   -0.174086
    97  C   -0.007557
    98  C    0.152162
    99  C    0.098902
   100  C    0.015286
   101  O   -0.254194
   102  C    0.061646
   103  N   -0.350038
   104  C    0.037682
   105  C   -0.019857
   106  C   -0.034620
   107  C    0.088583
   108  C    0.073759
   109  C    0.034834
   110  C   -0.007598
   111  N   -0.323951
   112  C    0.077955
   113  C   -0.163580
   114  C    0.001990
   115  C    0.095849
   116  C    0.131593
   117  C    0.042016
   118  O   -0.188688
   119  C    0.000991
   120  C    0.211198
   121  O   -0.251330
   122  O   -0.305571
   123  C    0.152203
   124  H   -0.018939
   125  H   -0.015705
   126  H   -0.040915
   127  H   -0.000961
   128  H   -0.004055
   129  H    0.022216
   130  H    0.014609
   131  H    0.016351
   132  H    0.014139
   133  H    0.037335
   134  H    0.020720
   135  H    0.019751
   136  H    0.008942
   137  H    0.027244
   138  H    0.044059
   139  H    0.039973
   140  H    0.035710
   141  H    0.035866
   142  H    0.014268
   143  H    0.012107
   144  H    0.024867
   145  H    0.011771
   146  H    0.005456
   147  H    0.005942
   148  H    0.003385
   149  H    0.010940
   150  H    0.017620
   151  H    0.030223
   152  H    0.045518
   153  H    0.008203
   154  H    0.046576
   155  H    0.034782
   156  H    0.043631
   157  H    0.049396
   158  H    0.053226
 Sum of Mulliken charges =  -0.00000
 Mulliken charges with hydrogens summed into heavy atoms:
               1
     1  Mg   0.837879
     2  C   -0.003754
     3  C   -0.111585
     4  C   -0.061690
     5  C   -0.104795
     6  N   -0.256861
     7  C   -0.052781
     8  C   -0.013064
     9  C   -0.090967
    10  C    0.046278
    11  C    0.163815
    12  C    0.107668
    13  C    0.000033
    15  N   -0.433278
    16  C    0.168564
    17  C   -0.176947
    18  C   -0.003623
    19  C    0.148802
    20  C    0.183254
    21  C    0.012675
    22  O   -0.249003
    23  C    0.167765
    24  N   -0.341181
    25  C    0.041440
    26  C   -0.011033
    27  C   -0.014546
    28  C    0.074872
    29  C    0.116948
    30  C    0.046519
    31  C    0.052814
    32  N   -0.310206
    33  C    0.079782
    34  C   -0.170194
    35  C    0.007961
    36  C    0.082148
    37  C    0.229965
    38  C    0.045243
    39  O   -0.189169
    40  C    0.030386
    41  C    0.213127
    42  O   -0.259098
    43  O   -0.304271
    44  C    0.300105
    80  Mg   0.837414
    81  C   -0.016912
    82  C   -0.106301
    83  C   -0.061285
    84  C   -0.105873
    85  N   -0.254510
    86  C   -0.050284
    87  C   -0.016032
    88  C   -0.094565
    89  C    0.045602
    90  C    0.167531
    91  C    0.113977
    92  C   -0.003250
    94  N   -0.423649
    95  C    0.162859
    96  C   -0.174086
    97  C   -0.007557
    98  C    0.152162
    99  C    0.179147
   100  C    0.015286
   101  O   -0.254194
   102  C    0.173195
   103  N   -0.350038
   104  C    0.037682
   105  C   -0.005588
   106  C   -0.022513
   107  C    0.088583
   108  C    0.115852
   109  C    0.044162
   110  C    0.051185
   111  N   -0.323951
   112  C    0.077955
   113  C   -0.163580
   114  C    0.001990
   115  C    0.095849
   116  C    0.231889
   117  C    0.042016
   118  O   -0.188688
   119  C    0.035773
   120  C    0.211198
   121  O   -0.251330
   122  O   -0.305571
   123  C    0.298456
 Electronic spatial extent (au):  <R**2>=         157137.5842
 Charge=             -0.0000 electrons
 Dipole moment (field-independent basis, Debye):
    X=              3.9872    Y=              3.0036    Z=              0.9371  Tot=              5.0791
 Quadrupole moment (field-independent basis, Debye-Ang):
   XX=           -534.3824   YY=           -465.0579   ZZ=           -521.1911
   XY=             10.8231   XZ=             60.8010   YZ=             23.7580
 Traceless Quadrupole moment (field-independent basis, Debye-Ang):
   XX=            -27.5053   YY=             41.8193   ZZ=            -14.3139
   XY=             10.8231   XZ=             60.8010   YZ=             23.7580
 Octapole moment (field-independent basis, Debye-Ang**2):
  XXX=            818.8687  YYY=            238.9298  ZZZ=            194.8330  XYY=           -205.1006
  XXY=           -110.6582  XXZ=           -149.1466  XZZ=             83.2000  YZZ=             70.5021
  YYZ=            -34.7223  XYZ=            267.6492
 Hexadecapole moment (field-independent basis, Debye-Ang**3):
 XXXX=        -165371.5090 YYYY=         -33248.9353 ZZZZ=         -21807.6063 XXXY=           1847.9838
 XXXZ=           4878.1959 YYYX=            447.1074 YYYZ=            394.5768 ZZZX=           1314.8373
 ZZZY=            525.6399 XXYY=         -28677.7236 XXZZ=         -31058.4720 YYZZ=          -9818.9097
 XXYZ=           1744.7449 YYXZ=          -1037.1505 ZZXY=           -367.1189
 N-N= 1.427078288989D+04 E-N=-3.802258354398D+04  KE= 4.028802350124D+03
 Leave Link  601 at Sat Sep 11 04:28:12 2021, MaxMem= 23488102400 cpu:              13.1 elap:               0.7
 (Enter /sw/apps/gaussian-16.0/g16/l9999.exe)
 1\1\GINC-BP1-COMPUTE00114\SP\RCAM-B3LYP TD-FC\def2SVP\C68H72Mg2N8O8\OF
 15641\11-Sep-2021\0\\#p cam-b3lyp/Def2SVP td=(nstates=5)\\TDDFT excite
 d states in gaussian\\0,1\Mg,0,0.,0.,0.\C,0,-0.217,-2.218,2.801\C,0,-1
 .255,2.442,2.026\C,0,-0.245,1.85,-2.564\C,0,0.146,-2.824,-2.037\N,0,-0
 .617,-0.009,2.126\C,0,-0.594,-0.908,3.105\C,0,-0.936,-0.309,4.502\C,0,
 -1.773,0.964,4.032\C,0,-1.155,1.168,2.66\C,0,-3.263,0.685,3.863\C,0,0.
 345,0.11,5.299\C,0,0.124,0.397,6.787\H,0,1.168,0.033,7.733\N,0,-0.185,
 1.961,-0.152\C,0,-0.703,2.8,0.777\C,0,-0.62,4.156,0.193\C,0,-0.187,4.0
 15,-1.225\C,0,-0.214,2.583,-1.38\C,0,-0.887,5.406,0.974\C,0,0.181,5.01
 3,-2.277\O,0,0.303,4.69,-3.508\C,0,0.31,6.414,-1.837\N,0,-0.265,-0.413
 ,-2.029\C,0,-0.279,0.569,-2.937\C,0,-0.196,0.024,-4.332\C,0,0.124,-1.5
 33,-4.18\C,0,0.086,-1.632,-2.635\C,0,-1.451,0.205,-5.197\C,0,1.373,-2.
 07,-4.923\C,0,2.626,-1.49,-4.306\N,0,0.15,-2.144,0.303\C,0,0.173,-3.13
 6,-0.688\C,0,0.173,-4.438,0.004\C,0,0.133,-4.111,1.358\C,0,0.083,-2.69
 5,1.502\C,0,0.149,-5.715,-0.623\C,0,0.096,-4.629,2.716\O,0,0.208,-5.74
 7,3.221\C,0,-0.255,-3.428,3.701\C,0,0.717,-3.482,4.848\O,0,1.931,-3.25
 5,4.669\O,0,0.038,-3.556,6.003\C,0,0.943,-3.583,7.183\H,0,-1.859,3.22,
 2.497\H,0,-0.218,2.453,-3.474\H,0,0.276,-3.747,-2.605\H,0,-1.554,-0.94
 9,5.132\H,0,-1.585,1.831,4.665\H,0,-3.484,-0.377,3.969\H,0,-3.511,1.02
 7,2.858\H,0,-3.852,1.301,4.543\H,0,0.669,1.096,4.966\H,0,1.13,-0.639,5
 .189\H,0,-0.844,0.026,7.125\H,0,0.062,1.477,6.921\H,0,-1.344,5.186,1.9
 38\H,0,-1.651,5.963,0.432\H,0,0.007,6.02,1.084\H,0,-0.635,6.744,-1.405
 \H,0,0.665,6.97,-2.704\H,0,1.048,6.466,-1.036\H,0,0.608,0.501,-4.891\H
 ,0,-0.692,-2.156,-4.547\H,0,-1.267,0.74,-6.129\H,0,-2.204,0.714,-4.596
 \H,0,-1.967,-0.72,-5.453\H,0,1.356,-1.759,-5.967\H,0,1.452,-3.157,-4.9
 02\H,0,2.714,-0.522,-4.798\H,0,3.487,-2.121,-4.529\H,0,2.495,-1.303,-3
 .24\H,0,0.867,-6.333,-0.084\H,0,0.404,-5.642,-1.68\H,0,-0.891,-5.999,-
 0.463\H,0,-1.283,-3.581,4.028\H,0,0.698,-4.478,7.755\H,0,0.833,-2.619,
 7.68\H,0,2.,-3.754,6.976\Mg,0,13.13047,1.18638,1.0039\C,0,14.88458,2.9
 4701,3.59279\C,0,11.80312,-0.78527,3.4504\C,0,11.92904,-0.66362,-1.276
 78\C,0,15.42592,2.5101,-1.25981\N,0,13.38638,1.18042,3.20089\C,0,14.02
 986,1.93555,4.07841\C,0,13.67913,1.63939,5.56126\C,0,13.1794,0.12267,5
 .39186\C,0,12.72604,0.17603,3.93436\C,0,14.3006,-0.89673,5.50629\C,0,1
 2.53274,2.56503,6.10069\C,0,12.35114,2.54481,7.62002\H,0,11.96377,3.78
 251,8.29123\N,0,11.66612,-0.1513,1.07369\C,0,11.24383,-0.83986,2.15482
 \C,0,10.15798,-1.71054,1.67836\C,0,10.0843,-1.60008,0.19611\C,0,11.262
 92,-0.79917,-0.06746\C,0,9.26264,-2.47737,2.60775\C,0,9.12058,-2.13832
 ,-0.81767\O,0,9.38206,-2.11835,-2.07229\C,0,7.90338,-2.77388,-0.29233\
 N,0,13.72876,0.78342,-0.94597\C,0,12.99824,-0.01716,-1.74179\C,0,13.47
 001,0.0601,-3.17422\C,0,14.51787,1.26748,-3.21689\C,0,14.53827,1.63796
 ,-1.71765\C,0,14.12777,-1.20405,-3.72708\C,0,14.25208,2.39372,-4.25304
 \C,0,13.0025,3.15682,-3.87673\N,0,14.73377,2.6326,1.08081\C,0,15.58507
 ,3.01941,0.02263\C,0,16.59064,3.94226,0.58796\C,0,16.26601,4.01087,1.9
 5119\C,0,15.15019,3.17308,2.22053\C,0,17.6599,4.54855,-0.12983\C,0,16.
 6201,4.59327,3.2256\O,0,17.42572,5.44562,3.59737\C,0,15.81983,3.8323,4
 .36879\C,0,15.21347,4.86577,5.27807\O,0,14.3318,5.63658,4.85958\O,0,15
 .61489,4.63166,6.54077\C,0,15.03067,5.62429,7.48162\H,0,11.50959,-1.60
 135,4.11127\H,0,11.48589,-1.19618,-2.12145\H,0,16.11546,3.04184,-1.918
 95\H,0,14.51963,1.67992,6.24368\H,0,12.33768,-0.0912,6.04541\H,0,15.26
 998,-0.42452,5.56514\H,0,14.23203,-1.51043,4.61763\H,0,14.11582,-1.567
 14,6.35052\H,0,11.56392,2.15308,5.79017\H,0,12.66959,3.5751,5.76653\H,
 0,13.20375,2.08117,8.13093\H,0,11.50789,1.89265,7.86007\H,0,9.66198,-2
 .49289,3.62936\H,0,9.29232,-3.5248,2.28858\H,0,8.22818,-2.12845,2.5794
 1\H,0,8.17947,-3.60131,0.35697\H,0,7.29832,-3.01525,-1.16841\H,0,7.371
 21,-2.04773,0.33226\H,0,12.64673,0.28558,-3.8409\H,0,15.53052,0.91943,
 -3.46839\H,0,13.63397,-1.58998,-4.63883\H,0,14.13041,-1.95571,-2.94891
 \H,0,15.18692,-1.10932,-3.96037\H,0,14.06766,1.9639,-5.24066\H,0,15.07
 703,3.09102,-4.35422\H,0,12.20106,2.5371,-4.28993\H,0,13.00804,4.14713
 ,-4.32761\H,0,12.87059,3.18402,-2.78883\H,0,17.70127,5.58207,0.18737\H
 ,0,17.5135,4.46738,-1.20489\H,0,18.49835,3.93891,0.21745\H,0,16.52881,
 3.19076,4.89353\H,0,15.86567,6.08818,8.01572\H,0,14.29413,5.06396,8.08
 766\H,0,14.54378,6.49328,7.05472\\Version=ES64L-G16RevA.03\State=1-A\H
 F=-4069.8123292\RMSD=7.143e-09\PG=C01 [X(C68H72Mg2N8O8)]\\@


 I do not feel obliged to believe that the same God who
 has endowed us with sense, reason, and intellect has
 intended us to forgo their use.
                   --Galileo Galilei
 Job cpu time:       0 days 12 hours  6 minutes 49.4 seconds.
 Elapsed time:       0 days  0 hours 30 minutes 53.6 seconds.
 File lengths (MBytes):  RWF=  13225 Int=      0 D2E=      0 Chk=    574 Scr=      1
 Normal termination of Gaussian 16 at Sat Sep 11 04:28:13 2021.
