 Entering Gaussian System, Link 0=g16
 Initial command:
 /sw/apps/gaussian-16.0/g16/l1.exe "/tmp/Gau-45858.inp" -scrdir="/tmp/"
 Entering Link 1 = /sw/apps/gaussian-16.0/g16/l1.exe PID=     45859.
  
 Copyright (c) 1988,1990,1992,1993,1995,1998,2003,2009,2016,
            Gaussian, Inc.  All Rights Reserved.
  
 This is part of the Gaussian(R) 16 program.  It is based on
 the Gaussian(R) 09 system (copyright 2009, Gaussian, Inc.),
 the Gaussian(R) 03 system (copyright 2003, Gaussian, Inc.),
 the Gaussian(R) 98 system (copyright 1998, Gaussian, Inc.),
 the Gaussian(R) 94 system (copyright 1995, Gaussian, Inc.),
 the Gaussian 92(TM) system (copyright 1992, Gaussian, Inc.),
 the Gaussian 90(TM) system (copyright 1990, Gaussian, Inc.),
 the Gaussian 88(TM) system (copyright 1988, Gaussian, Inc.),
 the Gaussian 86(TM) system (copyright 1986, Carnegie Mellon
 University), and the Gaussian 82(TM) system (copyright 1983,
 Carnegie Mellon University). Gaussian is a federally registered
 trademark of Gaussian, Inc.
  
 This software contains proprietary and confidential information,
 including trade secrets, belonging to Gaussian, Inc.
  
 This software is provided under written license and may be
 used, copied, transmitted, or stored only in accord with that
 written license.
  
 The following legend is applicable only to US Government
 contracts under FAR:
  
                    RESTRICTED RIGHTS LEGEND
  
 Use, reproduction and disclosure by the US Government is
 subject to restrictions as set forth in subparagraphs (a)
 and (c) of the Commercial Computer Software - Restricted
 Rights clause in FAR 52.227-19.
  
 Gaussian, Inc.
 340 Quinnipiac St., Bldg. 40, Wallingford CT 06492
  
  
 ---------------------------------------------------------------
 Warning -- This program may not be used in any manner that
 competes with the business of Gaussian, Inc. or will provide
 assistance to any competitor of Gaussian, Inc.  The licensee
 of this program is prohibited from giving any competitor of
 Gaussian, Inc. access to this program.  By using this program,
 the user acknowledges that Gaussian, Inc. is engaged in the
 business of creating and licensing software in the field of
 computational chemistry and represents and warrants to the
 licensee that it is not a competitor of Gaussian, Inc. and that
 it will not use this program in any manner prohibited above.
 ---------------------------------------------------------------
  

 Cite this work as:
 Gaussian 16, Revision A.03,
 M. J. Frisch, G. W. Trucks, H. B. Schlegel, G. E. Scuseria, 
 M. A. Robb, J. R. Cheeseman, G. Scalmani, V. Barone, 
 G. A. Petersson, H. Nakatsuji, X. Li, M. Caricato, A. V. Marenich, 
 J. Bloino, B. G. Janesko, R. Gomperts, B. Mennucci, H. P. Hratchian, 
 J. V. Ortiz, A. F. Izmaylov, J. L. Sonnenberg, D. Williams-Young, 
 F. Ding, F. Lipparini, F. Egidi, J. Goings, B. Peng, A. Petrone, 
 T. Henderson, D. Ranasinghe, V. G. Zakrzewski, J. Gao, N. Rega, 
 G. Zheng, W. Liang, M. Hada, M. Ehara, K. Toyota, R. Fukuda, 
 J. Hasegawa, M. Ishida, T. Nakajima, Y. Honda, O. Kitao, H. Nakai, 
 T. Vreven, K. Throssell, J. A. Montgomery, Jr., J. E. Peralta, 
 F. Ogliaro, M. J. Bearpark, J. J. Heyd, E. N. Brothers, K. N. Kudin, 
 V. N. Staroverov, T. A. Keith, R. Kobayashi, J. Normand, 
 K. Raghavachari, A. P. Rendell, J. C. Burant, S. S. Iyengar, 
 J. Tomasi, M. Cossi, J. M. Millam, M. Klene, C. Adamo, R. Cammi, 
 J. W. Ochterski, R. L. Martin, K. Morokuma, O. Farkas, 
 J. B. Foresman, and D. J. Fox, Gaussian, Inc., Wallingford CT, 2016.
 
 ******************************************
 Gaussian 16:  ES64L-G16RevA.03 25-Dec-2016
                 4-Sep-2021 
 ******************************************
 %nproc=24
 Will use up to   24 processors via shared memory.
 %mem=175gb
 -----------------------------------
 #p cam-b3lyp/Def2SVP td=(nstates=5)
 -----------------------------------
 1/38=1,172=1/1;
 2/12=2,17=6,18=5,40=1/2;
 3/5=43,7=101,11=9,25=1,30=1,74=-40/1,2,3,8;
 4//1;
 5/5=2,38=5/2;
 8/6=1,10=1,108=5/1;
 9/41=5,42=1,70=2/14;
 6/7=2,8=2,9=2,10=2/1;
 99/5=1,9=1/99;
 Leave Link    1 at Sat Sep  4 10:18:14 2021, MaxMem= 23488102400 cpu:               0.6 elap:               0.0
 (Enter /sw/apps/gaussian-16.0/g16/l101.exe)
 --------------------------------
 TDDFT excited states in gaussian
 --------------------------------
 Symbolic Z-matrix:
 Charge =  0 Multiplicity = 1
 Mg                    0.        0.        0. 
 C                    -0.217    -2.218     2.801 
 C                    -1.255     2.442     2.026 
 C                    -0.245     1.85     -2.564 
 C                     0.146    -2.824    -2.037 
 N                    -0.617    -0.009     2.126 
 C                    -0.594    -0.908     3.105 
 C                    -0.936    -0.309     4.502 
 C                    -1.773     0.964     4.032 
 C                    -1.155     1.168     2.66 
 C                    -3.263     0.685     3.863 
 C                     0.345     0.11      5.299 
 C                     0.124     0.397     6.787 
 H                     1.168     0.033     7.733 
 N                    -0.185     1.961    -0.152 
 C                    -0.703     2.8       0.777 
 C                    -0.62      4.156     0.193 
 C                    -0.187     4.015    -1.225 
 C                    -0.214     2.583    -1.38 
 C                    -0.887     5.406     0.974 
 C                     0.181     5.013    -2.277 
 O                     0.303     4.69     -3.508 
 C                     0.31      6.414    -1.837 
 N                    -0.265    -0.413    -2.029 
 C                    -0.279     0.569    -2.937 
 C                    -0.196     0.024    -4.332 
 C                     0.124    -1.533    -4.18 
 C                     0.086    -1.632    -2.635 
 C                    -1.451     0.205    -5.197 
 C                     1.373    -2.07     -4.923 
 C                     2.626    -1.49     -4.306 
 N                     0.15     -2.144     0.303 
 C                     0.173    -3.136    -0.688 
 C                     0.173    -4.438     0.004 
 C                     0.133    -4.111     1.358 
 C                     0.083    -2.695     1.502 
 C                     0.149    -5.715    -0.623 
 C                     0.096    -4.629     2.716 
 O                     0.208    -5.747     3.221 
 C                    -0.255    -3.428     3.701 
 C                     0.717    -3.482     4.848 
 O                     1.931    -3.255     4.669 
 O                     0.038    -3.556     6.003 
 C                     0.943    -3.583     7.183 
 H                    -1.859     3.22      2.497 
 H                    -0.218     2.453    -3.474 
 H                     0.276    -3.747    -2.605 
 H                    -1.554    -0.949     5.132 
 H                    -1.585     1.831     4.665 
 H                    -3.484    -0.377     3.969 
 H                    -3.511     1.027     2.858 
 H                    -3.852     1.301     4.543 
 H                     0.669     1.096     4.966 
 H                     1.13     -0.639     5.189 
 H                    -0.844     0.026     7.125 
 H                     0.062     1.477     6.921 
 H                    -1.344     5.186     1.938 
 H                    -1.651     5.963     0.432 
 H                     0.007     6.02      1.084 
 H                    -0.635     6.744    -1.405 
 H                     0.665     6.97     -2.704 
 H                     1.048     6.466    -1.036 
 H                     0.608     0.501    -4.891 
 H                    -0.692    -2.156    -4.547 
 H                    -1.267     0.74     -6.129 
 H                    -2.204     0.714    -4.596 
 H                    -1.967    -0.72     -5.453 
 H                     1.356    -1.759    -5.967 
 H                     1.452    -3.157    -4.902 
 H                     2.714    -0.522    -4.798 
 H                     3.487    -2.121    -4.529 
 H                     2.495    -1.303    -3.24 
 H                     0.867    -6.333    -0.084 
 H                     0.404    -5.642    -1.68 
 H                    -0.891    -5.999    -0.463 
 H                    -1.283    -3.581     4.028 
 H                     0.698    -4.478     7.755 
 H                     0.833    -2.619     7.68 
 H                     2.       -3.754     6.976 
 Mg                    13.14486   1.18888   1.00406 
 C                     12.84505  -0.46292   4.17593 
 C                     11.89576   3.98315   2.50952 
 C                     12.97245   2.53599  -1.86351 
 C                     13.27182  -1.96631  -0.4705 
 N                     12.49253   1.58498   3.08007 
 C                     12.48212   0.89955   4.2134 
 C                     12.13607   1.74121   5.47094 
 C                     11.31931   2.9225    4.75239 
 C                     11.96164   2.85695   3.36826 
 C                     9.83621   2.62568   4.60523 
 C                     13.41625   2.28654   6.19605 
 C                     13.17014   2.85295   7.59618 
 H                     14.19897   2.6624    8.61484 
 N                     12.99564   3.09984   0.48975 
 C                     12.48357   4.10448   1.2312 
 C                     12.58391   5.3119    0.39679 
 C                     13.04529   4.90798  -0.9592 
 C                     13.00143   3.46494  -0.83358 
 C                     12.33279   6.69256   0.92983 
 C                     13.44585   5.69087  -2.17281 
 O                     13.584    5.13313  -3.31853 
 C                     13.58056   7.14466  -2.00013 
 N                     12.91206   0.40829  -0.90874 
 C                     12.9222   1.20965  -1.9884 
 C                     13.01653   0.40595  -3.26338 
 C                     13.3126  -1.09673  -2.80309 
 C                     13.24677  -0.90985  -1.27138 
 C                     11.77711   0.42919  -4.15763 
 C                     14.5656  -1.78494  -3.41058 
 C                     15.82083  -1.11303  -2.90235 
 N                     13.25982  -0.85179   1.70442 
 C                     13.27647  -2.02408   0.91732 
 C                     13.24467  -3.17253   1.84602 
 C                     13.18803  -2.58399   3.11838 
 C                     13.16438  -1.16883   2.99083 
 C                     13.22042  -4.54538   1.47079 
 C                     13.13215  -2.83822   4.53998 
 O                     13.21111  -3.84227   5.24665 
 C                     12.77994  -1.47805   5.28313 
 C                     13.73222  -1.31884   6.43653 
 O                     14.94863  -1.15754   6.23421 
 O                     13.02711  -1.16586   7.57221 
 C                     13.92773  -0.99321   8.74307 
 H                     11.30259   4.84201   2.82479 
 H                     13.02396   2.94978  -2.87327 
 H                     13.40762  -2.98201  -0.8481 
 H                     11.50464   1.239     6.19403 
 H                     11.51958   3.88273   5.22059 
 H                     9.59598   1.61581   4.90285 
 H                     9.60868   2.77574   3.55797 
 H                     9.24718   3.3683    5.15103 
 H                     13.75857   3.19474   5.68347 
 H                     14.17916   1.53375   6.23974 
 H                     12.18503   2.5712    7.9875 
 H                     13.12956   3.94274   7.52745 
 H                     11.84984   6.66198   1.91432 
 H                     11.58697   7.15709   0.27574 
 H                     13.23231   7.31183   0.93581 
 H                     12.63613   7.55601  -1.65183 
 H                     13.95948   7.5183   -2.95338 
 H                     14.31718   7.33659  -1.21199 
 H                     13.83702   0.75291  -3.87942 
 H                     12.48972  -1.77504  -3.07256 
 H                     11.98626   0.78444  -5.18433 
 H                     11.02732   1.0502   -3.68573 
 H                     11.2599  -0.52383  -4.25491 
 H                     14.57079  -1.6709   -4.49737 
 H                     14.62057  -2.84737  -3.19799 
 H                     15.92618  -0.2511   -3.56799 
 H                     16.67441  -1.78273  -2.98567 
 H                     15.67755  -0.72883  -1.88573 
 H                     13.91301  -5.05902   2.12423 
 H                     13.48828  -4.67634   0.42443 
 H                     12.16917  -4.78017   1.65788 
 H                     11.743   -1.54484   5.61459 
 H                     13.656   -1.76346   9.47147 
 H                     13.81049   0.06096   9.05727 
 H                     14.98173  -1.20033   8.59949 
 
 ITRead=  0  0  0  0  0  0  0  0  0  0  0  0  0  0  0  0  0  0  0  0
 ITRead=  0  0  0  0  0  0  0  0  0  0  0  0  0  0  0  0  0  0  0  0
 ITRead=  0  0  0  0  0  0  0  0  0  0  0  0  0  0  0  0  0  0  0  0
 ITRead=  0  0  0  0  0  0  0  0  0  0  0  0  0  0  0  0  0  0  0  0
 ITRead=  0  0  0  0  0  0  0  0  0  0  0  0  0  0  0  0  0  0  0  0
 ITRead=  0  0  0  0  0  0  0  0  0  0  0  0  0  0  0  0  0  0  0  0
 ITRead=  0  0  0  0  0  0  0  0  0  0  0  0  0  0  0  0  0  0  0  0
 ITRead=  0  0  0  0  0  0  0  0  0  0  0  0  0  0  0  0  0  0
 MicOpt= -1 -1 -1 -1 -1 -1 -1 -1 -1 -1 -1 -1 -1 -1 -1 -1 -1 -1 -1 -1
 MicOpt= -1 -1 -1 -1 -1 -1 -1 -1 -1 -1 -1 -1 -1 -1 -1 -1 -1 -1 -1 -1
 MicOpt= -1 -1 -1 -1 -1 -1 -1 -1 -1 -1 -1 -1 -1 -1 -1 -1 -1 -1 -1 -1
 MicOpt= -1 -1 -1 -1 -1 -1 -1 -1 -1 -1 -1 -1 -1 -1 -1 -1 -1 -1 -1 -1
 MicOpt= -1 -1 -1 -1 -1 -1 -1 -1 -1 -1 -1 -1 -1 -1 -1 -1 -1 -1 -1 -1
 MicOpt= -1 -1 -1 -1 -1 -1 -1 -1 -1 -1 -1 -1 -1 -1 -1 -1 -1 -1 -1 -1
 MicOpt= -1 -1 -1 -1 -1 -1 -1 -1 -1 -1 -1 -1 -1 -1 -1 -1 -1 -1 -1 -1
 MicOpt= -1 -1 -1 -1 -1 -1 -1 -1 -1 -1 -1 -1 -1 -1 -1 -1 -1 -1
 NAtoms=    158 NQM=      158 NQMF=       0 NMMI=      0 NMMIF=      0
                NMic=       0 NMicF=      0.
                    Isotopes and Nuclear Properties:
 (Nuclear quadrupole moments (NQMom) in fm**2, nuclear magnetic moments (NMagM)
  in nuclear magnetons)

  Atom         1           2           3           4           5           6           7           8           9          10
 IAtWgt=          24          12          12          12          12          14          12          12          12          12
 AtmWgt=  23.9850450  12.0000000  12.0000000  12.0000000  12.0000000  14.0030740  12.0000000  12.0000000  12.0000000  12.0000000
 NucSpn=           0           0           0           0           0           2           0           0           0           0
 AtZEff=  -0.0000000  -0.0000000  -0.0000000  -0.0000000  -0.0000000  -0.0000000  -0.0000000  -0.0000000  -0.0000000  -0.0000000
 NQMom=    0.0000000   0.0000000   0.0000000   0.0000000   0.0000000   2.0440000   0.0000000   0.0000000   0.0000000   0.0000000
 NMagM=    0.0000000   0.0000000   0.0000000   0.0000000   0.0000000   0.4037610   0.0000000   0.0000000   0.0000000   0.0000000
 AtZNuc=  12.0000000   6.0000000   6.0000000   6.0000000   6.0000000   7.0000000   6.0000000   6.0000000   6.0000000   6.0000000

  Atom        11          12          13          14          15          16          17          18          19          20
 IAtWgt=          12          12          12           1          14          12          12          12          12          12
 AtmWgt=  12.0000000  12.0000000  12.0000000   1.0078250  14.0030740  12.0000000  12.0000000  12.0000000  12.0000000  12.0000000
 NucSpn=           0           0           0           1           2           0           0           0           0           0
 AtZEff=  -0.0000000  -0.0000000  -0.0000000  -0.0000000  -0.0000000  -0.0000000  -0.0000000  -0.0000000  -0.0000000  -0.0000000
 NQMom=    0.0000000   0.0000000   0.0000000   0.0000000   2.0440000   0.0000000   0.0000000   0.0000000   0.0000000   0.0000000
 NMagM=    0.0000000   0.0000000   0.0000000   2.7928460   0.4037610   0.0000000   0.0000000   0.0000000   0.0000000   0.0000000
 AtZNuc=   6.0000000   6.0000000   6.0000000   1.0000000   7.0000000   6.0000000   6.0000000   6.0000000   6.0000000   6.0000000

  Atom        21          22          23          24          25          26          27          28          29          30
 IAtWgt=          12          16          12          14          12          12          12          12          12          12
 AtmWgt=  12.0000000  15.9949146  12.0000000  14.0030740  12.0000000  12.0000000  12.0000000  12.0000000  12.0000000  12.0000000
 NucSpn=           0           0           0           2           0           0           0           0           0           0
 AtZEff=  -0.0000000  -0.0000000  -0.0000000  -0.0000000  -0.0000000  -0.0000000  -0.0000000  -0.0000000  -0.0000000  -0.0000000
 NQMom=    0.0000000   0.0000000   0.0000000   2.0440000   0.0000000   0.0000000   0.0000000   0.0000000   0.0000000   0.0000000
 NMagM=    0.0000000   0.0000000   0.0000000   0.4037610   0.0000000   0.0000000   0.0000000   0.0000000   0.0000000   0.0000000
 AtZNuc=   6.0000000   8.0000000   6.0000000   7.0000000   6.0000000   6.0000000   6.0000000   6.0000000   6.0000000   6.0000000

  Atom        31          32          33          34          35          36          37          38          39          40
 IAtWgt=          12          14          12          12          12          12          12          12          16          12
 AtmWgt=  12.0000000  14.0030740  12.0000000  12.0000000  12.0000000  12.0000000  12.0000000  12.0000000  15.9949146  12.0000000
 NucSpn=           0           2           0           0           0           0           0           0           0           0
 AtZEff=  -0.0000000  -0.0000000  -0.0000000  -0.0000000  -0.0000000  -0.0000000  -0.0000000  -0.0000000  -0.0000000  -0.0000000
 NQMom=    0.0000000   2.0440000   0.0000000   0.0000000   0.0000000   0.0000000   0.0000000   0.0000000   0.0000000   0.0000000
 NMagM=    0.0000000   0.4037610   0.0000000   0.0000000   0.0000000   0.0000000   0.0000000   0.0000000   0.0000000   0.0000000
 AtZNuc=   6.0000000   7.0000000   6.0000000   6.0000000   6.0000000   6.0000000   6.0000000   6.0000000   8.0000000   6.0000000

  Atom        41          42          43          44          45          46          47          48          49          50
 IAtWgt=          12          16          16          12           1           1           1           1           1           1
 AtmWgt=  12.0000000  15.9949146  15.9949146  12.0000000   1.0078250   1.0078250   1.0078250   1.0078250   1.0078250   1.0078250
 NucSpn=           0           0           0           0           1           1           1           1           1           1
 AtZEff=  -0.0000000  -0.0000000  -0.0000000  -0.0000000  -0.0000000  -0.0000000  -0.0000000  -0.0000000  -0.0000000  -0.0000000
 NQMom=    0.0000000   0.0000000   0.0000000   0.0000000   0.0000000   0.0000000   0.0000000   0.0000000   0.0000000   0.0000000
 NMagM=    0.0000000   0.0000000   0.0000000   0.0000000   2.7928460   2.7928460   2.7928460   2.7928460   2.7928460   2.7928460
 AtZNuc=   6.0000000   8.0000000   8.0000000   6.0000000   1.0000000   1.0000000   1.0000000   1.0000000   1.0000000   1.0000000

  Atom        51          52          53          54          55          56          57          58          59          60
 IAtWgt=           1           1           1           1           1           1           1           1           1           1
 AtmWgt=   1.0078250   1.0078250   1.0078250   1.0078250   1.0078250   1.0078250   1.0078250   1.0078250   1.0078250   1.0078250
 NucSpn=           1           1           1           1           1           1           1           1           1           1
 AtZEff=  -0.0000000  -0.0000000  -0.0000000  -0.0000000  -0.0000000  -0.0000000  -0.0000000  -0.0000000  -0.0000000  -0.0000000
 NQMom=    0.0000000   0.0000000   0.0000000   0.0000000   0.0000000   0.0000000   0.0000000   0.0000000   0.0000000   0.0000000
 NMagM=    2.7928460   2.7928460   2.7928460   2.7928460   2.7928460   2.7928460   2.7928460   2.7928460   2.7928460   2.7928460
 AtZNuc=   1.0000000   1.0000000   1.0000000   1.0000000   1.0000000   1.0000000   1.0000000   1.0000000   1.0000000   1.0000000

  Atom        61          62          63          64          65          66          67          68          69          70
 IAtWgt=           1           1           1           1           1           1           1           1           1           1
 AtmWgt=   1.0078250   1.0078250   1.0078250   1.0078250   1.0078250   1.0078250   1.0078250   1.0078250   1.0078250   1.0078250
 NucSpn=           1           1           1           1           1           1           1           1           1           1
 AtZEff=  -0.0000000  -0.0000000  -0.0000000  -0.0000000  -0.0000000  -0.0000000  -0.0000000  -0.0000000  -0.0000000  -0.0000000
 NQMom=    0.0000000   0.0000000   0.0000000   0.0000000   0.0000000   0.0000000   0.0000000   0.0000000   0.0000000   0.0000000
 NMagM=    2.7928460   2.7928460   2.7928460   2.7928460   2.7928460   2.7928460   2.7928460   2.7928460   2.7928460   2.7928460
 AtZNuc=   1.0000000   1.0000000   1.0000000   1.0000000   1.0000000   1.0000000   1.0000000   1.0000000   1.0000000   1.0000000

  Atom        71          72          73          74          75          76          77          78          79          80
 IAtWgt=           1           1           1           1           1           1           1           1           1          24
 AtmWgt=   1.0078250   1.0078250   1.0078250   1.0078250   1.0078250   1.0078250   1.0078250   1.0078250   1.0078250  23.9850450
 NucSpn=           1           1           1           1           1           1           1           1           1           0
 AtZEff=  -0.0000000  -0.0000000  -0.0000000  -0.0000000  -0.0000000  -0.0000000  -0.0000000  -0.0000000  -0.0000000  -0.0000000
 NQMom=    0.0000000   0.0000000   0.0000000   0.0000000   0.0000000   0.0000000   0.0000000   0.0000000   0.0000000   0.0000000
 NMagM=    2.7928460   2.7928460   2.7928460   2.7928460   2.7928460   2.7928460   2.7928460   2.7928460   2.7928460   0.0000000
 AtZNuc=   1.0000000   1.0000000   1.0000000   1.0000000   1.0000000   1.0000000   1.0000000   1.0000000   1.0000000  12.0000000

  Atom        81          82          83          84          85          86          87          88          89          90
 IAtWgt=          12          12          12          12          14          12          12          12          12          12
 AtmWgt=  12.0000000  12.0000000  12.0000000  12.0000000  14.0030740  12.0000000  12.0000000  12.0000000  12.0000000  12.0000000
 NucSpn=           0           0           0           0           2           0           0           0           0           0
 AtZEff=  -0.0000000  -0.0000000  -0.0000000  -0.0000000  -0.0000000  -0.0000000  -0.0000000  -0.0000000  -0.0000000  -0.0000000
 NQMom=    0.0000000   0.0000000   0.0000000   0.0000000   2.0440000   0.0000000   0.0000000   0.0000000   0.0000000   0.0000000
 NMagM=    0.0000000   0.0000000   0.0000000   0.0000000   0.4037610   0.0000000   0.0000000   0.0000000   0.0000000   0.0000000
 AtZNuc=   6.0000000   6.0000000   6.0000000   6.0000000   7.0000000   6.0000000   6.0000000   6.0000000   6.0000000   6.0000000

  Atom        91          92          93          94          95          96          97          98          99         100
 IAtWgt=          12          12           1          14          12          12          12          12          12          12
 AtmWgt=  12.0000000  12.0000000   1.0078250  14.0030740  12.0000000  12.0000000  12.0000000  12.0000000  12.0000000  12.0000000
 NucSpn=           0           0           1           2           0           0           0           0           0           0
 AtZEff=  -0.0000000  -0.0000000  -0.0000000  -0.0000000  -0.0000000  -0.0000000  -0.0000000  -0.0000000  -0.0000000  -0.0000000
 NQMom=    0.0000000   0.0000000   0.0000000   2.0440000   0.0000000   0.0000000   0.0000000   0.0000000   0.0000000   0.0000000
 NMagM=    0.0000000   0.0000000   2.7928460   0.4037610   0.0000000   0.0000000   0.0000000   0.0000000   0.0000000   0.0000000
 AtZNuc=   6.0000000   6.0000000   1.0000000   7.0000000   6.0000000   6.0000000   6.0000000   6.0000000   6.0000000   6.0000000

  Atom       101         102         103         104         105         106         107         108         109         110
 IAtWgt=          16          12          14          12          12          12          12          12          12          12
 AtmWgt=  15.9949146  12.0000000  14.0030740  12.0000000  12.0000000  12.0000000  12.0000000  12.0000000  12.0000000  12.0000000
 NucSpn=           0           0           2           0           0           0           0           0           0           0
 AtZEff=  -0.0000000  -0.0000000  -0.0000000  -0.0000000  -0.0000000  -0.0000000  -0.0000000  -0.0000000  -0.0000000  -0.0000000
 NQMom=    0.0000000   0.0000000   2.0440000   0.0000000   0.0000000   0.0000000   0.0000000   0.0000000   0.0000000   0.0000000
 NMagM=    0.0000000   0.0000000   0.4037610   0.0000000   0.0000000   0.0000000   0.0000000   0.0000000   0.0000000   0.0000000
 AtZNuc=   8.0000000   6.0000000   7.0000000   6.0000000   6.0000000   6.0000000   6.0000000   6.0000000   6.0000000   6.0000000

  Atom       111         112         113         114         115         116         117         118         119         120
 IAtWgt=          14          12          12          12          12          12          12          16          12          12
 AtmWgt=  14.0030740  12.0000000  12.0000000  12.0000000  12.0000000  12.0000000  12.0000000  15.9949146  12.0000000  12.0000000
 NucSpn=           2           0           0           0           0           0           0           0           0           0
 AtZEff=  -0.0000000  -0.0000000  -0.0000000  -0.0000000  -0.0000000  -0.0000000  -0.0000000  -0.0000000  -0.0000000  -0.0000000
 NQMom=    2.0440000   0.0000000   0.0000000   0.0000000   0.0000000   0.0000000   0.0000000   0.0000000   0.0000000   0.0000000
 NMagM=    0.4037610   0.0000000   0.0000000   0.0000000   0.0000000   0.0000000   0.0000000   0.0000000   0.0000000   0.0000000
 AtZNuc=   7.0000000   6.0000000   6.0000000   6.0000000   6.0000000   6.0000000   6.0000000   8.0000000   6.0000000   6.0000000

  Atom       121         122         123         124         125         126         127         128         129         130
 IAtWgt=          16          16          12           1           1           1           1           1           1           1
 AtmWgt=  15.9949146  15.9949146  12.0000000   1.0078250   1.0078250   1.0078250   1.0078250   1.0078250   1.0078250   1.0078250
 NucSpn=           0           0           0           1           1           1           1           1           1           1
 AtZEff=  -0.0000000  -0.0000000  -0.0000000  -0.0000000  -0.0000000  -0.0000000  -0.0000000  -0.0000000  -0.0000000  -0.0000000
 NQMom=    0.0000000   0.0000000   0.0000000   0.0000000   0.0000000   0.0000000   0.0000000   0.0000000   0.0000000   0.0000000
 NMagM=    0.0000000   0.0000000   0.0000000   2.7928460   2.7928460   2.7928460   2.7928460   2.7928460   2.7928460   2.7928460
 AtZNuc=   8.0000000   8.0000000   6.0000000   1.0000000   1.0000000   1.0000000   1.0000000   1.0000000   1.0000000   1.0000000

  Atom       131         132         133         134         135         136         137         138         139         140
 IAtWgt=           1           1           1           1           1           1           1           1           1           1
 AtmWgt=   1.0078250   1.0078250   1.0078250   1.0078250   1.0078250   1.0078250   1.0078250   1.0078250   1.0078250   1.0078250
 NucSpn=           1           1           1           1           1           1           1           1           1           1
 AtZEff=  -0.0000000  -0.0000000  -0.0000000  -0.0000000  -0.0000000  -0.0000000  -0.0000000  -0.0000000  -0.0000000  -0.0000000
 NQMom=    0.0000000   0.0000000   0.0000000   0.0000000   0.0000000   0.0000000   0.0000000   0.0000000   0.0000000   0.0000000
 NMagM=    2.7928460   2.7928460   2.7928460   2.7928460   2.7928460   2.7928460   2.7928460   2.7928460   2.7928460   2.7928460
 AtZNuc=   1.0000000   1.0000000   1.0000000   1.0000000   1.0000000   1.0000000   1.0000000   1.0000000   1.0000000   1.0000000

  Atom       141         142         143         144         145         146         147         148         149         150
 IAtWgt=           1           1           1           1           1           1           1           1           1           1
 AtmWgt=   1.0078250   1.0078250   1.0078250   1.0078250   1.0078250   1.0078250   1.0078250   1.0078250   1.0078250   1.0078250
 NucSpn=           1           1           1           1           1           1           1           1           1           1
 AtZEff=  -0.0000000  -0.0000000  -0.0000000  -0.0000000  -0.0000000  -0.0000000  -0.0000000  -0.0000000  -0.0000000  -0.0000000
 NQMom=    0.0000000   0.0000000   0.0000000   0.0000000   0.0000000   0.0000000   0.0000000   0.0000000   0.0000000   0.0000000
 NMagM=    2.7928460   2.7928460   2.7928460   2.7928460   2.7928460   2.7928460   2.7928460   2.7928460   2.7928460   2.7928460
 AtZNuc=   1.0000000   1.0000000   1.0000000   1.0000000   1.0000000   1.0000000   1.0000000   1.0000000   1.0000000   1.0000000

  Atom       151         152         153         154         155         156         157         158
 IAtWgt=           1           1           1           1           1           1           1           1
 AtmWgt=   1.0078250   1.0078250   1.0078250   1.0078250   1.0078250   1.0078250   1.0078250   1.0078250
 NucSpn=           1           1           1           1           1           1           1           1
 AtZEff=  -0.0000000  -0.0000000  -0.0000000  -0.0000000  -0.0000000  -0.0000000  -0.0000000  -0.0000000
 NQMom=    0.0000000   0.0000000   0.0000000   0.0000000   0.0000000   0.0000000   0.0000000   0.0000000
 NMagM=    2.7928460   2.7928460   2.7928460   2.7928460   2.7928460   2.7928460   2.7928460   2.7928460
 AtZNuc=   1.0000000   1.0000000   1.0000000   1.0000000   1.0000000   1.0000000   1.0000000   1.0000000
 Leave Link  101 at Sat Sep  4 10:18:14 2021, MaxMem= 23488102400 cpu:               3.3 elap:               0.2
 (Enter /sw/apps/gaussian-16.0/g16/l202.exe)
 Stoichiometry    C68H72Mg2N8O8
 Framework group  C1[X(C68H72Mg2N8O8)]
 Deg. of freedom   468
 Full point group                 C1      NOp   1
 Largest Abelian subgroup         C1      NOp   1
 Largest concise Abelian subgroup C1      NOp   1
                         Standard orientation:                         
 ---------------------------------------------------------------------
 Center     Atomic      Atomic             Coordinates (Angstroms)
 Number     Number       Type             X           Y           Z
 ---------------------------------------------------------------------
      1         12           0       -6.539554   -0.721438    0.035358
      2          6           0       -6.716131    2.810993    0.585786
      3          6           0       -7.388366   -0.107583   -3.212066
      4          6           0       -6.834483   -3.853325   -0.365789
      5          6           0       -6.826738   -1.124345    3.485119
      6          7           0       -6.969895    1.156332   -1.055253
      7          6           0       -6.944809    2.448352   -0.743440
      8          6           0       -7.109592    3.385038   -1.977474
      9          6           0       -7.864509    2.379474   -2.957749
     10          6           0       -7.350657    1.064175   -2.399298
     11          6           0       -9.382706    2.414045   -2.814975
     12          6           0       -5.732061    3.836335   -2.569481
     13          6           0       -5.797378    5.000960   -3.561820
     14          1           0       -4.713457    5.971682   -3.574646
     15          7           0       -6.557657   -1.805473   -1.616123
     16          6           0       -6.915411   -1.388732   -2.854519
     17          6           0       -6.759800   -2.562526   -3.740337
     18          6           0       -6.464848   -3.743871   -2.882712
     19          6           0       -6.635298   -3.179299   -1.568336
     20          6           0       -6.843830   -2.483198   -5.233788
     21          6           0       -6.099267   -5.159906   -3.197876
     22          8           0       -6.113373   -6.079748   -2.310032
     23          6           0       -5.805959   -5.463891   -4.610181
     24          7           0       -7.014358   -2.281512    1.338571
     25          6           0       -7.016860   -3.552390    0.921620
     26          6           0       -7.103954   -4.505726    2.076394
     27          6           0       -6.915139   -3.623028    3.393568
     28          6           0       -6.829134   -2.225909    2.731050
     29          6           0       -8.406916   -5.309988    2.183473
     30          6           0       -5.788666   -4.047405    4.368955
     31          6           0       -4.439723   -3.830835    3.720459
     32          7           0       -6.559863    0.584704    1.768744
     33          6           0       -6.712469    0.203777    3.109744
     34          6           0       -6.771540    1.442867    3.906761
     35          6           0       -6.665149    2.465522    2.966175
     36          6           0       -6.573495    1.901531    1.661642
     37          6           0       -6.965450    1.519990    5.314200
     38          6           0       -6.632355    3.904009    2.757517
     39          8           0       -6.579621    4.886736    3.498435
     40          6           0       -6.786661    4.187775    1.198192
     41          6           0       -5.728690    5.184725    0.810768
     42          8           0       -4.518950    4.880475    0.847192
     43          8           0       -6.309870    6.249169    0.236547
     44          6           0       -5.313080    7.263785   -0.198331
     45          1           0       -7.876340   -0.057916   -4.187441
     46          1           0       -6.830978   -4.942222   -0.447818
     47          1           0       -6.830569   -1.173276    4.575552
     48          1           0       -7.726870    4.265932   -1.800224
     49          1           0       -7.544693    2.502659   -3.992285
     50          1           0       -9.689531    3.031647   -1.970968
     51          1           0       -9.683957    1.378129   -2.658072
     52          1           0       -9.852590    2.724622   -3.748532
     53          1           0       -5.349464    3.054660   -3.225731
     54          1           0       -5.030861    4.081833   -1.771124
     55          1           0       -6.762502    5.506620   -3.519951
     56          1           0       -5.749073    4.592613   -4.571334
     57          1           0       -7.234453   -1.520918   -5.562385
     58          1           0       -7.597681   -3.204338   -5.549028
     59          1           0       -5.891522   -2.714419   -5.711257
     60          1           0       -6.676381   -5.219096   -5.219271
     61          1           0       -5.477617   -6.502425   -4.632320
     62          1           0       -5.000222   -4.813285   -4.951424
     63          1           0       -6.310877   -5.250850    2.029018
     64          1           0       -7.812958   -3.613981    4.012046
     65          1           0       -8.255724   -6.389712    2.190111
     66          1           0       -9.056036   -5.011053    1.360934
     67          1           0       -9.025047   -5.065941    3.047054
     68          1           0       -5.866905   -5.109310    4.599569
     69          1           0       -5.807427   -3.500965    5.311983
     70          1           0       -4.306566   -4.735158    3.127751
     71          1           0       -3.662086   -3.743833    4.480013
     72          1           0       -4.461100   -2.988259    3.029015
     73          1           0       -6.263048    2.269700    5.678254
     74          1           0       -6.796609    0.554549    5.790665
     75          1           0       -8.009379    1.830139    5.357512
     76          1           0       -7.792414    4.579281    1.048845
     77          1           0       -5.588485    8.207084    0.273446
     78          1           0       -5.291774    7.230159   -1.287744
     79          1           0       -4.297738    7.134198    0.178004
     80         12           0        6.696413   -0.830014    0.114754
     81          6           0        6.521074    2.752099   -0.014902
     82          6           0        5.840805   -0.842322   -3.187123
     83          6           0        6.401650   -3.983469    0.305094
     84          6           0        6.408506   -0.580097    3.578902
     85          7           0        6.263600    0.807514   -1.307717
     86          6           0        6.288235    2.130934   -1.259646
     87          6           0        6.129543    2.827661   -2.637665
     88          6           0        5.365008    1.649439   -3.416212
     89          6           0        5.877421    0.454375   -2.614991
     90          6           0        3.853911    1.711545   -3.267648
     91          6           0        7.511584    3.154617   -3.304819
     92          6           0        7.439240    4.106992   -4.500437
     93          1           0        8.530140    5.056899   -4.700646
     94          7           0        6.678131   -2.206752   -1.314515
     95          6           0        6.325227   -2.034631   -2.605677
     96          6           0        6.463006   -3.354859   -3.239858
     97          6           0        6.767509   -4.354660   -2.180421
     98          6           0        6.603433   -3.539409   -0.993613
     99          6           0        6.385324   -3.556077   -4.725419
    100          6           0        7.131931   -5.807668   -2.227104
    101          8           0        7.119807   -6.539047   -1.174597
    102          6           0        7.412747   -6.370766   -3.555838
    103          7           0        6.230078   -2.110307    1.685010
    104          6           0        6.220337   -3.443489    1.510435
    105          6           0        6.131246   -4.166218    2.833361
    106          6           0        6.327746   -3.040390    3.952053
    107          6           0        6.411021   -1.793542    3.044403
    108          6           0        4.826869   -4.919472    3.093354
    109          6           0        7.456064   -3.272888    4.993940
    110          6           0        8.806243   -3.196121    4.318300
    111          7           0        6.684879    0.773369    1.562885
    112          6           0        6.527077    0.658487    2.961444
    113          6           0        6.470767    2.030070    3.507357
    114          6           0        6.577442    2.854372    2.377032
    115          6           0        6.671836    2.053121    1.207163
    116          6           0        6.289511    2.373592    4.876751
    117          6           0        6.620978    4.220172    1.906501
    118          8           0        6.668627    5.324204    2.447404
    119          6           0        6.459184    4.215331    0.325304
    120          6           0        7.517547    5.114405   -0.252668
    121          8           0        8.721695    4.821808   -0.147695
    122          8           0        6.929464    6.052014   -1.017782
    123          6           0        7.939296    6.961345   -1.622093
    124          1           0        5.357559   -0.968291   -4.156396
    125          1           0        6.403680   -5.067784    0.438310
    126          1           0        6.418348   -0.417883    4.658837
    127          1           0        5.519479    3.722912   -2.626470
    128          1           0        5.691327    1.582995   -4.450843
    129          1           0        3.549212    2.471435   -2.563481
    130          1           0        3.551868    0.731822   -2.921305
    131          1           0        3.383994    1.843265   -4.246508
    132          1           0        7.889849    2.253713   -3.804854
    133          1           0        8.203725    3.536700   -2.579846
    134          1           0        6.469845    4.616125   -4.563788
    135          1           0        7.492273    3.516377   -5.418246
    136          1           0        5.987957   -2.667580   -5.231452
    137          1           0        5.631465   -4.330412   -4.904220
    138          1           0        7.334654   -3.880771   -5.156712
    139          1           0        6.543105   -6.238702   -4.195177
    140          1           0        7.740812   -7.396259   -3.375255
    141          1           0        8.228747   -5.799632   -4.012522
    142          1           0        6.923947   -4.898131    2.928326
    143          1           0        5.426445   -2.919065    4.570751
    144          1           0        4.978516   -5.994837    3.304666
    145          1           0        4.180039   -4.787913    2.236131
    146          1           0        4.218621   -4.523267    3.904694
    147          1           0        7.378237   -4.276665    5.418815
    148          1           0        7.432156   -2.570586    5.820483
    149          1           0        8.932042   -4.200664    3.903370
    150          1           0        9.584994   -2.968165    5.043298
    151          1           0        8.786390   -2.492490    3.477964
    152          1           0        6.986032    3.172967    5.092037
    153          1           0        6.453460    1.516587    5.526699
    154          1           0        5.241227    2.683697    4.862940
    155          1           0        5.452791    4.568925    0.097892
    156          1           0        7.662162    7.980997   -1.337146
    157          1           0        7.945924    6.724483   -2.702646
    158          1           0        8.953821    6.904798   -1.245303
 ---------------------------------------------------------------------
 Rotational constants (GHZ):           0.0202571           0.0082203           0.0073796
 Leave Link  202 at Sat Sep  4 10:18:14 2021, MaxMem= 23488102400 cpu:               0.2 elap:               0.0
 (Enter /sw/apps/gaussian-16.0/g16/l301.exe)
 Standard basis: def2SVP (5D, 7F)
 Ernie: Thresh=  0.10000D-02 Tol=  0.10000D-05 Strict=F.
 There are  1658 symmetry adapted cartesian basis functions of A   symmetry.
 There are  1572 symmetry adapted basis functions of A   symmetry.
  1572 basis functions,  2678 primitive gaussians,  1658 cartesian basis functions
   312 alpha electrons      312 beta electrons
       nuclear repulsion energy     14252.1643021718 Hartrees.
 IExCor=20419 DFT=T Ex+Corr=CAM-B3LYP ExCW=0 ScaHFX=  1.000000
 ScaDFX=  1.000000  1.000000  1.000000  0.810000 ScalE2=  1.000000  1.000000
 IRadAn=      5 IRanWt=     -1 IRanGd=            0 ICorTp=0 IEmpDi=  4
 HFx  wShort=  0.000000 wLong=  0.330000 cFull=  0.190000 cShort=  0.000000 cLong=  0.460000
 DFx  wShort=  0.000000 wLong=  0.330000 cFull=  0.190000 cShort=  0.000000 cLong=  0.460000
 NAtoms=  158 NActive=  158 NUniq=  158 SFac= 1.00D+00 NAtFMM=   60 NAOKFM=T Big=T
 Integral buffers will be    131072 words long.
 Raffenetti 1 integral format.
 Two-electron integral symmetry is turned on.
 Leave Link  301 at Sat Sep  4 10:18:15 2021, MaxMem= 23488102400 cpu:               1.3 elap:               0.1
 (Enter /sw/apps/gaussian-16.0/g16/l302.exe)
 NPDir=0 NMtPBC=     1 NCelOv=     1 NCel=       1 NClECP=     1 NCelD=      1
         NCelK=      1 NCelE2=     1 NClLst=     1 CellRange=     0.0.
 One-electron integrals computed using PRISM.
 One-electron integral symmetry used in STVInt
   1 Symmetry operations used in ECPInt.
 ECPInt:  NShTT=  271216 NPrTT=  987664 LenC2=  116470 LenP2D=  254962.
 LDataN:  DoStor=T MaxTD1= 4 Len=   56
 NBasis=  1572 RedAO= T EigKep=  3.36D-04  NBF=  1572
 NBsUse=  1572 1.00D-06 EigRej= -1.00D+00 NBFU=  1572
 Precomputing XC quadrature grid using
 IXCGrd= 4 IRadAn=           5 IRanWt=          -1 IRanGd=           0 AccXCQ= 0.00D+00.
 Generated NRdTot=       0 NPtTot=           0 NUsed=           0 NTot=          32
 NSgBfM=   969   952   958   959   969 MxSgAt=   158 MxSgA2=   156.
 Leave Link  302 at Sat Sep  4 10:18:19 2021, MaxMem= 23488102400 cpu:             116.6 elap:               4.9
 (Enter /sw/apps/gaussian-16.0/g16/l303.exe)
 DipDrv:  MaxL=1.
 Leave Link  303 at Sat Sep  4 10:18:20 2021, MaxMem= 23488102400 cpu:               9.0 elap:               0.4
 (Enter /sw/apps/gaussian-16.0/g16/l308.exe)
 Leave Link  308 at Sat Sep  4 10:18:20 2021, MaxMem= 23488102400 cpu:              14.0 elap:               0.7
 (Enter /sw/apps/gaussian-16.0/g16/l401.exe)
 ExpMin= 3.36D-02 ExpMax= 4.95D+03 ExpMxC= 7.45D+02 IAcc=3 IRadAn=         5 AccDes= 0.00D+00
 Harris functional with IExCor=20419 and IRadAn=       5 diagonalized for initial guess.
 HarFok:  IExCor=20419 AccDes= 0.00D+00 IRadAn=         5 IDoV= 1 UseB2=F ITyADJ=14
 ICtDFT=  3500011 ScaDFX=  1.000000  1.000000  1.000000  1.000000
 FoFCou: FMM=F IPFlag=           0 FMFlag=      100000 FMFlg1=        2001
         NFxFlg=           0 DoJE=T BraDBF=F KetDBF=T FulRan=T
         wScrn=  0.000000 ICntrl=       500 IOpCl=  0 I1Cent=   200000004 NGrid=           0
         NMat0=    1 NMatS0=      1 NMatT0=    0 NMatD0=    1 NMtDS0=    0 NMtDT0=    0
 Petite list used in FoFCou.
 Harris En= -3918.65800642549    
 JPrj=0 DoOrth=F DoCkMO=F.
 Leave Link  401 at Sat Sep  4 10:18:27 2021, MaxMem= 23488102400 cpu:             161.5 elap:               6.8
 (Enter /sw/apps/gaussian-16.0/g16/l502.exe)
 Integral symmetry usage will be decided dynamically.
 Closed shell SCF:
 Using DIIS extrapolation, IDIIS=  1040.
 NGot= 23488102400 LenX= 23482547354 LenY= 23479796732
 Requested convergence on RMS density matrix=1.00D-08 within 128 cycles.
 Requested convergence on MAX density matrix=1.00D-06.
 Requested convergence on             energy=1.00D-06.
 No special actions if energy rises.
 Fock matrices will be formed incrementally for  20 cycles.

 Cycle   1  Pass 1  IDiag  1:
 FoFJK:  IHMeth= 1 ICntrl=       0 DoSepK=T KAlg= 0 I1Cent=           0 FoldK=F
 IRaf=         1 NMat=       1 IRICut=       1 DoRegI=T DoRafI=F ISym2E= 0 IDoP0=0 IntGTp=1.
 FoFCou: FMM=T IPFlag=           0 FMFlag=      100000 FMFlg1=        2001
         NFxFlg=           0 DoJE=T BraDBF=F KetDBF=F FulRan=T
         wScrn=  0.000000 ICntrl=       500 IOpCl=  0 I1Cent=           0 NGrid=           0
         NMat0=    1 NMatS0=      1 NMatT0=    0 NMatD0=    1 NMtDS0=    0 NMtDT0=    0
 Symmetry not used in FoFCou.
 FMM levels:  10  Number of levels for PrismC:   9
 E= -4068.94865323367    
 DIIS: error= 2.04D-02 at cycle   1 NSaved=   1.
 NSaved= 1 IEnMin= 1 EnMin= -4068.94865323367     IErMin= 1 ErrMin= 2.04D-02
 ErrMax= 2.04D-02  0.00D+00 EMaxC= 1.00D-01 BMatC= 1.69D+00 BMatP= 1.69D+00
 IDIUse=3 WtCom= 7.96D-01 WtEn= 2.04D-01
 Coeff-Com:  0.100D+01
 Coeff-En:   0.100D+01
 Coeff:      0.100D+01
 Gap=     0.120 Goal=   None    Shift=    0.000
 GapD=    0.120 DampG=1.000 DampE=0.500 DampFc=0.5000 IDamp=-1.
 Damping current iteration by 5.00D-01
 RMSDP=1.57D-03 MaxDP=1.35D-01              OVMax= 2.06D-01

 Cycle   2  Pass 1  IDiag  1:
 RMSU=  7.70D-04    CP:  9.82D-01
 E= -4069.33743052043     Delta-E=       -0.388777286767 Rises=F Damp=T
 DIIS: error= 1.27D-02 at cycle   2 NSaved=   2.
 NSaved= 2 IEnMin= 2 EnMin= -4069.33743052043     IErMin= 2 ErrMin= 1.27D-02
 ErrMax= 1.27D-02  0.00D+00 EMaxC= 1.00D-01 BMatC= 3.07D-01 BMatP= 1.69D+00
 IDIUse=3 WtCom= 8.73D-01 WtEn= 1.27D-01
 Coeff-Com: -0.213D+00 0.121D+01
 Coeff-En:   0.000D+00 0.100D+01
 Coeff:     -0.186D+00 0.119D+01
 Gap=     0.135 Goal=   None    Shift=    0.000
 RMSDP=7.66D-04 MaxDP=9.44D-02 DE=-3.89D-01 OVMax= 1.91D-01

 Cycle   3  Pass 1  IDiag  1:
 RMSU=  7.34D-04    CP:  9.68D-01  1.24D+00
 E= -4069.62597943369     Delta-E=       -0.288548913253 Rises=F Damp=F
 DIIS: error= 1.57D-02 at cycle   3 NSaved=   3.
 NSaved= 3 IEnMin= 3 EnMin= -4069.62597943369     IErMin= 2 ErrMin= 1.27D-02
 ErrMax= 1.57D-02  0.00D+00 EMaxC= 1.00D-01 BMatC= 2.03D-01 BMatP= 3.07D-01
 IDIUse=3 WtCom= 8.43D-01 WtEn= 1.57D-01
 Coeff-Com: -0.267D+00 0.652D+00 0.615D+00
 Coeff-En:   0.000D+00 0.000D+00 0.100D+01
 Coeff:     -0.225D+00 0.550D+00 0.675D+00
 Gap=     0.123 Goal=   None    Shift=    0.000
 RMSDP=5.12D-04 MaxDP=4.87D-02 DE=-2.89D-01 OVMax= 1.48D-01

 Cycle   4  Pass 1  IDiag  1:
 RMSU=  2.67D-04    CP:  9.65D-01  1.55D+00  5.03D-01
 E= -4069.76389492179     Delta-E=       -0.137915488107 Rises=F Damp=F
 DIIS: error= 7.22D-03 at cycle   4 NSaved=   4.
 NSaved= 4 IEnMin= 4 EnMin= -4069.76389492179     IErMin= 4 ErrMin= 7.22D-03
 ErrMax= 7.22D-03  0.00D+00 EMaxC= 1.00D-01 BMatC= 5.08D-02 BMatP= 2.03D-01
 IDIUse=3 WtCom= 9.28D-01 WtEn= 7.22D-02
 Coeff-Com: -0.109D+00 0.227D+00 0.409D+00 0.473D+00
 Coeff-En:   0.000D+00 0.000D+00 0.223D+00 0.777D+00
 Coeff:     -0.101D+00 0.210D+00 0.396D+00 0.495D+00
 Gap=     0.122 Goal=   None    Shift=    0.000
 RMSDP=2.03D-04 MaxDP=1.99D-02 DE=-1.38D-01 OVMax= 6.57D-02

 Cycle   5  Pass 1  IDiag  1:
 RMSU=  7.75D-05    CP:  9.64D-01  1.49D+00  6.88D-01  5.46D-01
 E= -4069.81022732508     Delta-E=       -0.046332403286 Rises=F Damp=F
 DIIS: error= 7.54D-04 at cycle   5 NSaved=   5.
 NSaved= 5 IEnMin= 5 EnMin= -4069.81022732508     IErMin= 5 ErrMin= 7.54D-04
 ErrMax= 7.54D-04  0.00D+00 EMaxC= 1.00D-01 BMatC= 1.24D-03 BMatP= 5.08D-02
 IDIUse=3 WtCom= 9.92D-01 WtEn= 7.54D-03
 Coeff-Com: -0.368D-01 0.724D-01 0.169D+00 0.252D+00 0.543D+00
 Coeff-En:   0.000D+00 0.000D+00 0.000D+00 0.000D+00 0.100D+01
 Coeff:     -0.365D-01 0.718D-01 0.167D+00 0.250D+00 0.547D+00
 Gap=     0.121 Goal=   None    Shift=    0.000
 RMSDP=4.29D-05 MaxDP=4.18D-03 DE=-4.63D-02 OVMax= 1.82D-02

 Cycle   6  Pass 1  IDiag  1:
 RMSU=  3.14D-05    CP:  9.64D-01  1.49D+00  6.80D-01  6.20D-01  7.41D-01
 E= -4069.81132583469     Delta-E=       -0.001098509605 Rises=F Damp=F
 DIIS: error= 1.94D-04 at cycle   6 NSaved=   6.
 NSaved= 6 IEnMin= 6 EnMin= -4069.81132583469     IErMin= 6 ErrMin= 1.94D-04
 ErrMax= 1.94D-04  0.00D+00 EMaxC= 1.00D-01 BMatC= 1.90D-04 BMatP= 1.24D-03
 IDIUse=3 WtCom= 9.98D-01 WtEn= 1.94D-03
 Coeff-Com:  0.206D-02-0.632D-02 0.121D-01 0.415D-01 0.307D+00 0.644D+00
 Coeff-En:   0.000D+00 0.000D+00 0.000D+00 0.000D+00 0.114D+00 0.886D+00
 Coeff:      0.206D-02-0.630D-02 0.121D-01 0.414D-01 0.307D+00 0.644D+00
 Gap=     0.122 Goal=   None    Shift=    0.000
 RMSDP=1.68D-05 MaxDP=1.16D-03 DE=-1.10D-03 OVMax= 7.75D-03

 Cycle   7  Pass 1  IDiag  1:
 RMSU=  1.11D-05    CP:  9.64D-01  1.49D+00  6.86D-01  6.19D-01  8.49D-01
                    CP:  7.40D-01
 E= -4069.81153523904     Delta-E=       -0.000209404352 Rises=F Damp=F
 DIIS: error= 8.82D-05 at cycle   7 NSaved=   7.
 NSaved= 7 IEnMin= 7 EnMin= -4069.81153523904     IErMin= 7 ErrMin= 8.82D-05
 ErrMax= 8.82D-05  0.00D+00 EMaxC= 1.00D-01 BMatC= 2.37D-05 BMatP= 1.90D-04
 IDIUse=1 WtCom= 1.00D+00 WtEn= 0.00D+00
 Coeff-Com:  0.453D-02-0.995D-02-0.887D-02-0.328D-02 0.107D+00 0.336D+00
 Coeff-Com:  0.575D+00
 Coeff:      0.453D-02-0.995D-02-0.887D-02-0.328D-02 0.107D+00 0.336D+00
 Coeff:      0.575D+00
 Gap=     0.122 Goal=   None    Shift=    0.000
 RMSDP=6.69D-06 MaxDP=1.07D-03 DE=-2.09D-04 OVMax= 3.44D-03

 Cycle   8  Pass 1  IDiag  1:
 RMSU=  4.78D-06    CP:  9.64D-01  1.50D+00  6.86D-01  6.24D-01  8.51D-01
                    CP:  8.64D-01  8.14D-01
 E= -4069.81156449436     Delta-E=       -0.000029255323 Rises=F Damp=F
 DIIS: error= 5.34D-05 at cycle   8 NSaved=   8.
 NSaved= 8 IEnMin= 8 EnMin= -4069.81156449436     IErMin= 8 ErrMin= 5.34D-05
 ErrMax= 5.34D-05  0.00D+00 EMaxC= 1.00D-01 BMatC= 4.97D-06 BMatP= 2.37D-05
 IDIUse=1 WtCom= 1.00D+00 WtEn= 0.00D+00
 Coeff-Com:  0.220D-02-0.436D-02-0.783D-02-0.121D-01-0.990D-02 0.333D-01
 Coeff-Com:  0.330D+00 0.669D+00
 Coeff:      0.220D-02-0.436D-02-0.783D-02-0.121D-01-0.990D-02 0.333D-01
 Coeff:      0.330D+00 0.669D+00
 Gap=     0.122 Goal=   None    Shift=    0.000
 RMSDP=3.35D-06 MaxDP=3.75D-04 DE=-2.93D-05 OVMax= 1.07D-03

 Cycle   9  Pass 1  IDiag  1:
 RMSU=  1.95D-06    CP:  9.64D-01  1.50D+00  6.87D-01  6.25D-01  8.68D-01
                    CP:  8.91D-01  1.01D+00  9.59D-01
 E= -4069.81157247494     Delta-E=       -0.000007980580 Rises=F Damp=F
 DIIS: error= 2.02D-05 at cycle   9 NSaved=   9.
 NSaved= 9 IEnMin= 9 EnMin= -4069.81157247494     IErMin= 9 ErrMin= 2.02D-05
 ErrMax= 2.02D-05  0.00D+00 EMaxC= 1.00D-01 BMatC= 7.38D-07 BMatP= 4.97D-06
 IDIUse=1 WtCom= 1.00D+00 WtEn= 0.00D+00
 Coeff-Com:  0.478D-03-0.795D-03-0.272D-02-0.607D-02-0.206D-01-0.399D-01
 Coeff-Com:  0.986D-01 0.332D+00 0.639D+00
 Coeff:      0.478D-03-0.795D-03-0.272D-02-0.607D-02-0.206D-01-0.399D-01
 Coeff:      0.986D-01 0.332D+00 0.639D+00
 Gap=     0.122 Goal=   None    Shift=    0.000
 RMSDP=1.45D-06 MaxDP=1.45D-04 DE=-7.98D-06 OVMax= 7.59D-04

 Cycle  10  Pass 1  IDiag  1:
 RMSU=  9.59D-07    CP:  9.64D-01  1.50D+00  6.87D-01  6.26D-01  8.72D-01
                    CP:  9.03D-01  1.05D+00  1.12D+00  1.06D+00
 E= -4069.81157415671     Delta-E=       -0.000001681768 Rises=F Damp=F
 DIIS: error= 1.05D-05 at cycle  10 NSaved=  10.
 NSaved=10 IEnMin=10 EnMin= -4069.81157415671     IErMin=10 ErrMin= 1.05D-05
 ErrMax= 1.05D-05  0.00D+00 EMaxC= 1.00D-01 BMatC= 1.78D-07 BMatP= 7.38D-07
 IDIUse=1 WtCom= 1.00D+00 WtEn= 0.00D+00
 Coeff-Com: -0.429D-03 0.900D-03 0.123D-02 0.108D-02-0.370D-02-0.314D-01
 Coeff-Com: -0.443D-01-0.746D-01 0.244D+00 0.907D+00
 Coeff:     -0.429D-03 0.900D-03 0.123D-02 0.108D-02-0.370D-02-0.314D-01
 Coeff:     -0.443D-01-0.746D-01 0.244D+00 0.907D+00
 Gap=     0.122 Goal=   None    Shift=    0.000
 RMSDP=1.25D-06 MaxDP=1.24D-04 DE=-1.68D-06 OVMax= 6.35D-04

 Cycle  11  Pass 1  IDiag  1:
 RMSU=  5.37D-07    CP:  9.64D-01  1.50D+00  6.87D-01  6.26D-01  8.74D-01
                    CP:  9.13D-01  1.10D+00  1.24D+00  1.40D+00  1.37D+00
 E= -4069.81157498252     Delta-E=       -0.000000825807 Rises=F Damp=F
 DIIS: error= 4.20D-06 at cycle  11 NSaved=  11.
 NSaved=11 IEnMin=11 EnMin= -4069.81157498252     IErMin=11 ErrMin= 4.20D-06
 ErrMax= 4.20D-06  0.00D+00 EMaxC= 1.00D-01 BMatC= 6.88D-08 BMatP= 1.78D-07
 IDIUse=1 WtCom= 1.00D+00 WtEn= 0.00D+00
 Coeff-Com: -0.339D-03 0.659D-03 0.136D-02 0.214D-02 0.439D-02-0.880D-02
 Coeff-Com: -0.420D-01-0.133D+00-0.315D-01 0.485D+00 0.723D+00
 Coeff:     -0.339D-03 0.659D-03 0.136D-02 0.214D-02 0.439D-02-0.880D-02
 Coeff:     -0.420D-01-0.133D+00-0.315D-01 0.485D+00 0.723D+00
 Gap=     0.122 Goal=   None    Shift=    0.000
 RMSDP=7.09D-07 MaxDP=6.38D-05 DE=-8.26D-07 OVMax= 3.94D-04

 Cycle  12  Pass 1  IDiag  1:
 RMSU=  2.73D-07    CP:  9.64D-01  1.50D+00  6.87D-01  6.26D-01  8.75D-01
                    CP:  9.16D-01  1.12D+00  1.30D+00  1.57D+00  1.76D+00
                    CP:  1.18D+00
 E= -4069.81157526374     Delta-E=       -0.000000281223 Rises=F Damp=F
 DIIS: error= 2.61D-06 at cycle  12 NSaved=  12.
 NSaved=12 IEnMin=12 EnMin= -4069.81157526374     IErMin=12 ErrMin= 2.61D-06
 ErrMax= 2.61D-06  0.00D+00 EMaxC= 1.00D-01 BMatC= 1.68D-08 BMatP= 6.88D-08
 IDIUse=1 WtCom= 1.00D+00 WtEn= 0.00D+00
 Coeff-Com: -0.125D-04 0.748D-05 0.231D-03 0.586D-03 0.352D-02 0.369D-02
 Coeff-Com:  0.152D-02-0.384D-01-0.724D-01-0.518D-01 0.262D+00 0.891D+00
 Coeff:     -0.125D-04 0.748D-05 0.231D-03 0.586D-03 0.352D-02 0.369D-02
 Coeff:      0.152D-02-0.384D-01-0.724D-01-0.518D-01 0.262D+00 0.891D+00
 Gap=     0.122 Goal=   None    Shift=    0.000
 RMSDP=4.44D-07 MaxDP=3.21D-05 DE=-2.81D-07 OVMax= 2.55D-04

 Cycle  13  Pass 1  IDiag  1:
 RMSU=  1.71D-07    CP:  9.64D-01  1.50D+00  6.87D-01  6.26D-01  8.75D-01
                    CP:  9.16D-01  1.13D+00  1.33D+00  1.68D+00  1.98D+00
                    CP:  1.59D+00  1.24D+00
 E= -4069.81157536116     Delta-E=       -0.000000097418 Rises=F Damp=F
 DIIS: error= 1.33D-06 at cycle  13 NSaved=  13.
 NSaved=13 IEnMin=13 EnMin= -4069.81157536116     IErMin=13 ErrMin= 1.33D-06
 ErrMax= 1.33D-06  0.00D+00 EMaxC= 1.00D-01 BMatC= 9.00D-09 BMatP= 1.68D-08
 IDIUse=1 WtCom= 1.00D+00 WtEn= 0.00D+00
 Coeff-Com:  0.120D-03-0.247D-03-0.366D-03-0.446D-03 0.703D-03 0.503D-02
 Coeff-Com:  0.190D-01 0.229D-01-0.340D-01-0.239D+00-0.158D+00 0.585D+00
 Coeff-Com:  0.799D+00
 Coeff:      0.120D-03-0.247D-03-0.366D-03-0.446D-03 0.703D-03 0.503D-02
 Coeff:      0.190D-01 0.229D-01-0.340D-01-0.239D+00-0.158D+00 0.585D+00
 Coeff:      0.799D+00
 Gap=     0.122 Goal=   None    Shift=    0.000
 RMSDP=3.58D-07 MaxDP=2.47D-05 DE=-9.74D-08 OVMax= 2.16D-04

 Cycle  14  Pass 1  IDiag  1:
 RMSU=  7.89D-08    CP:  9.64D-01  1.50D+00  6.87D-01  6.26D-01  8.76D-01
                    CP:  9.16D-01  1.14D+00  1.36D+00  1.75D+00  2.18D+00
                    CP:  1.85D+00  1.76D+00  1.11D+00
 E= -4069.81157540146     Delta-E=       -0.000000040302 Rises=F Damp=F
 DIIS: error= 7.34D-07 at cycle  14 NSaved=  14.
 NSaved=14 IEnMin=14 EnMin= -4069.81157540146     IErMin=14 ErrMin= 7.34D-07
 ErrMax= 7.34D-07  0.00D+00 EMaxC= 1.00D-01 BMatC= 1.38D-09 BMatP= 9.00D-09
 IDIUse=1 WtCom= 1.00D+00 WtEn= 0.00D+00
 Coeff-Com:  0.688D-04-0.136D-03-0.254D-03-0.396D-03-0.452D-03 0.129D-02
 Coeff-Com:  0.105D-01 0.200D-01 0.421D-02-0.103D+00-0.145D+00 0.855D-01
 Coeff-Com:  0.410D+00 0.717D+00
 Coeff:      0.688D-04-0.136D-03-0.254D-03-0.396D-03-0.452D-03 0.129D-02
 Coeff:      0.105D-01 0.200D-01 0.421D-02-0.103D+00-0.145D+00 0.855D-01
 Coeff:      0.410D+00 0.717D+00
 Gap=     0.122 Goal=   None    Shift=    0.000
 RMSDP=1.10D-07 MaxDP=7.39D-06 DE=-4.03D-08 OVMax= 6.00D-05

 Cycle  15  Pass 1  IDiag  1:
 RMSU=  3.92D-08    CP:  9.64D-01  1.50D+00  6.87D-01  6.26D-01  8.76D-01
                    CP:  9.16D-01  1.14D+00  1.36D+00  1.77D+00  2.23D+00
                    CP:  1.96D+00  1.90D+00  1.35D+00  1.04D+00
 E= -4069.81157540575     Delta-E=       -0.000000004293 Rises=F Damp=F
 DIIS: error= 3.44D-07 at cycle  15 NSaved=  15.
 NSaved=15 IEnMin=15 EnMin= -4069.81157540575     IErMin=15 ErrMin= 3.44D-07
 ErrMax= 3.44D-07  0.00D+00 EMaxC= 1.00D-01 BMatC= 2.30D-10 BMatP= 1.38D-09
 IDIUse=1 WtCom= 1.00D+00 WtEn= 0.00D+00
 Coeff-Com:  0.646D-05-0.111D-04-0.367D-04-0.878D-04-0.299D-03-0.510D-03
 Coeff-Com:  0.121D-02 0.290D-02 0.880D-02 0.133D-03-0.309D-01-0.720D-01
 Coeff-Com:  0.356D-01 0.293D+00 0.762D+00
 Coeff:      0.646D-05-0.111D-04-0.367D-04-0.878D-04-0.299D-03-0.510D-03
 Coeff:      0.121D-02 0.290D-02 0.880D-02 0.133D-03-0.309D-01-0.720D-01
 Coeff:      0.356D-01 0.293D+00 0.762D+00
 Gap=     0.122 Goal=   None    Shift=    0.000
 RMSDP=3.94D-08 MaxDP=2.73D-06 DE=-4.29D-09 OVMax= 2.86D-05

 Cycle  16  Pass 1  IDiag  1:
 RMSU=  1.92D-08    CP:  9.64D-01  1.50D+00  6.87D-01  6.26D-01  8.76D-01
                    CP:  9.16D-01  1.14D+00  1.36D+00  1.78D+00  2.24D+00
                    CP:  1.99D+00  1.96D+00  1.42D+00  1.24D+00  1.14D+00
 E= -4069.81157540661     Delta-E=       -0.000000000859 Rises=F Damp=F
 DIIS: error= 1.93D-07 at cycle  16 NSaved=  16.
 NSaved=16 IEnMin=16 EnMin= -4069.81157540661     IErMin=16 ErrMin= 1.93D-07
 ErrMax= 1.93D-07  0.00D+00 EMaxC= 1.00D-01 BMatC= 9.06D-11 BMatP= 2.30D-10
 IDIUse=1 WtCom= 1.00D+00 WtEn= 0.00D+00
 Coeff-Com: -0.140D-04 0.285D-04 0.458D-04 0.510D-04-0.367D-04-0.634D-03
 Coeff-Com: -0.185D-02-0.417D-02 0.433D-02 0.250D-01 0.208D-01-0.638D-01
 Coeff-Com: -0.791D-01-0.412D-01 0.404D+00 0.737D+00
 Coeff:     -0.140D-04 0.285D-04 0.458D-04 0.510D-04-0.367D-04-0.634D-03
 Coeff:     -0.185D-02-0.417D-02 0.433D-02 0.250D-01 0.208D-01-0.638D-01
 Coeff:     -0.791D-01-0.412D-01 0.404D+00 0.737D+00
 Gap=     0.122 Goal=   None    Shift=    0.000
 RMSDP=2.38D-08 MaxDP=1.69D-06 DE=-8.59D-10 OVMax= 1.28D-05

 Cycle  17  Pass 1  IDiag  1:
 RMSU=  1.07D-08    CP:  9.64D-01  1.50D+00  6.87D-01  6.26D-01  8.76D-01
                    CP:  9.16D-01  1.14D+00  1.36D+00  1.78D+00  2.25D+00
                    CP:  2.00D+00  1.98D+00  1.47D+00  1.34D+00  1.44D+00
                    CP:  1.23D+00
 E= -4069.81157540709     Delta-E=       -0.000000000484 Rises=F Damp=F
 DIIS: error= 9.49D-08 at cycle  17 NSaved=  17.
 NSaved=17 IEnMin=17 EnMin= -4069.81157540709     IErMin=17 ErrMin= 9.49D-08
 ErrMax= 9.49D-08  0.00D+00 EMaxC= 1.00D-01 BMatC= 1.87D-11 BMatP= 9.06D-11
 IDIUse=1 WtCom= 1.00D+00 WtEn= 0.00D+00
 Coeff-Com: -0.756D-05 0.147D-04 0.295D-04 0.433D-04 0.801D-04-0.138D-03
 Coeff-Com: -0.939D-03-0.288D-02 0.870D-04 0.980D-02 0.179D-01-0.842D-02
 Coeff-Com: -0.360D-01-0.102D+00-0.183D-01 0.290D+00 0.850D+00
 Coeff:     -0.756D-05 0.147D-04 0.295D-04 0.433D-04 0.801D-04-0.138D-03
 Coeff:     -0.939D-03-0.288D-02 0.870D-04 0.980D-02 0.179D-01-0.842D-02
 Coeff:     -0.360D-01-0.102D+00-0.183D-01 0.290D+00 0.850D+00
 Gap=     0.122 Goal=   None    Shift=    0.000
 RMSDP=1.37D-08 MaxDP=1.08D-06 DE=-4.84D-10 OVMax= 9.76D-06

 Cycle  18  Pass 1  IDiag  1:
 RMSU=  5.30D-09    CP:  9.64D-01  1.50D+00  6.87D-01  6.26D-01  8.76D-01
                    CP:  9.16D-01  1.14D+00  1.36D+00  1.78D+00  2.25D+00
                    CP:  2.00D+00  1.99D+00  1.49D+00  1.40D+00  1.60D+00
                    CP:  1.63D+00  1.36D+00
 E= -4069.81157540694     Delta-E=        0.000000000149 Rises=F Damp=F
 DIIS: error= 6.86D-08 at cycle  18 NSaved=  18.
 NSaved=18 IEnMin=17 EnMin= -4069.81157540709     IErMin=18 ErrMin= 6.86D-08
 ErrMax= 6.86D-08  0.00D+00 EMaxC= 1.00D-01 BMatC= 8.27D-12 BMatP= 1.87D-11
 IDIUse=1 WtCom= 1.00D+00 WtEn= 0.00D+00
 Coeff-Com:  0.110D-05-0.254D-05-0.104D-05 0.324D-05 0.647D-04 0.157D-03
 Coeff-Com:  0.264D-03-0.760D-04-0.121D-02-0.466D-02 0.155D-02 0.171D-01
 Coeff-Com:  0.136D-01-0.394D-01-0.152D+00-0.158D+00 0.414D+00 0.908D+00
 Coeff:      0.110D-05-0.254D-05-0.104D-05 0.324D-05 0.647D-04 0.157D-03
 Coeff:      0.264D-03-0.760D-04-0.121D-02-0.466D-02 0.155D-02 0.171D-01
 Coeff:      0.136D-01-0.394D-01-0.152D+00-0.158D+00 0.414D+00 0.908D+00
 Gap=     0.122 Goal=   None    Shift=    0.000
 RMSDP=1.12D-08 MaxDP=7.69D-07 DE= 1.49D-10 OVMax= 5.99D-06

 Cycle  19  Pass 1  IDiag  1:
 RMSU=  3.14D-09    CP:  9.64D-01  1.50D+00  6.87D-01  6.26D-01  8.76D-01
                    CP:  9.16D-01  1.14D+00  1.36D+00  1.78D+00  2.25D+00
                    CP:  2.01D+00  2.00D+00  1.50D+00  1.44D+00  1.74D+00
                    CP:  1.92D+00  1.88D+00  1.23D+00
 E= -4069.81157540716     Delta-E=       -0.000000000218 Rises=F Damp=F
 DIIS: error= 3.04D-08 at cycle  19 NSaved=  19.
 NSaved=19 IEnMin=19 EnMin= -4069.81157540716     IErMin=19 ErrMin= 3.04D-08
 ErrMax= 3.04D-08  0.00D+00 EMaxC= 1.00D-01 BMatC= 2.18D-12 BMatP= 8.27D-12
 IDIUse=1 WtCom= 1.00D+00 WtEn= 0.00D+00
 Coeff-Com:  0.308D-05-0.624D-05-0.102D-04-0.122D-04 0.185D-04 0.136D-03
 Coeff-Com:  0.490D-03 0.828D-03-0.682D-03-0.638D-02-0.488D-02 0.133D-01
 Coeff-Com:  0.217D-01 0.915D-02-0.833D-01-0.199D+00-0.247D-02 0.533D+00
 Coeff-Com:  0.719D+00
 Coeff:      0.308D-05-0.624D-05-0.102D-04-0.122D-04 0.185D-04 0.136D-03
 Coeff:      0.490D-03 0.828D-03-0.682D-03-0.638D-02-0.488D-02 0.133D-01
 Coeff:      0.217D-01 0.915D-02-0.833D-01-0.199D+00-0.247D-02 0.533D+00
 Coeff:      0.719D+00
 Gap=     0.122 Goal=   None    Shift=    0.000
 RMSDP=5.41D-09 MaxDP=4.07D-07 DE=-2.18D-10 OVMax= 3.90D-06

 SCF Done:  E(RCAM-B3LYP) =  -4069.81157541     A.U. after   19 cycles
            NFock= 19  Conv=0.54D-08     -V/T= 2.0102
 KE= 4.028802073367D+03 PE=-3.798531799715D+04 EE= 1.563454004621D+04
 Leave Link  502 at Sat Sep  4 10:27:16 2021, MaxMem= 23488102400 cpu:           12118.6 elap:             528.6
 (Enter /sw/apps/gaussian-16.0/g16/l801.exe)
 DoSCS=F DFT=T ScalE2(SS,OS)=  1.000000  1.000000
 ExpMin= 3.36D-02 ExpMax= 4.95D+03 ExpMxC= 7.45D+02 IAcc=3 IRadAn=         5 AccDes= 0.00D+00
 HarFok:  IExCor=  205 AccDes= 0.00D+00 IRadAn=         5 IDoV=-2 UseB2=F ITyADJ=14
 ICtDFT= 12500011 ScaDFX=  1.000000  1.000000  1.000000  1.000000
 GSVD:  LWork=       -9588 too small for GESVD, short by       45590 words or       45590 for optimal perf.
 Largest valence mixing into a core orbital is  2.03D-04
 Largest core mixing into a valence orbital is  5.24D-05
 Range of M.O.s used for correlation:    95  1572
 NBasis=  1572 NAE=   312 NBE=   312 NFC=    94 NFV=     0
 NROrb=   1478 NOA=   218 NOB=   218 NVA=  1260 NVB=  1260
 Leave Link  801 at Sat Sep  4 10:27:16 2021, MaxMem= 23488102400 cpu:               8.9 elap:               0.4
 (Enter /sw/apps/gaussian-16.0/g16/l914.exe)
 RHF ground state
 Two-electron integrals replicated using symmetry.
 MDV= 23488102400 DFT=T DoStab=F Mixed=T DoRPA=T DoScal=F NonHer=T
 Making orbital integer symmetry assigments:
 Orbital symmetries:
       Occupied  (A) (A) (A) (A) (A) (A) (A) (A) (A) (A) (A) (A)
                 (A) (A) (A) (A) (A) (A) (A) (A) (A) (A) (A) (A)
                 (A) (A) (A) (A) (A) (A) (A) (A) (A) (A) (A) (A)
                 (A) (A) (A) (A) (A) (A) (A) (A) (A) (A) (A) (A)
                 (A) (A) (A) (A) (A) (A) (A) (A) (A) (A) (A) (A)
                 (A) (A) (A) (A) (A) (A) (A) (A) (A) (A) (A) (A)
                 (A) (A) (A) (A) (A) (A) (A) (A) (A) (A) (A) (A)
                 (A) (A) (A) (A) (A) (A) (A) (A) (A) (A) (A) (A)
                 (A) (A) (A) (A) (A) (A) (A) (A) (A) (A) (A) (A)
                 (A) (A) (A) (A) (A) (A) (A) (A) (A) (A) (A) (A)
                 (A) (A) (A) (A) (A) (A) (A) (A) (A) (A) (A) (A)
                 (A) (A) (A) (A) (A) (A) (A) (A) (A) (A) (A) (A)
                 (A) (A) (A) (A) (A) (A) (A) (A) (A) (A) (A) (A)
                 (A) (A) (A) (A) (A) (A) (A) (A) (A) (A) (A) (A)
                 (A) (A) (A) (A) (A) (A) (A) (A) (A) (A) (A) (A)
                 (A) (A) (A) (A) (A) (A) (A) (A) (A) (A) (A) (A)
                 (A) (A) (A) (A) (A) (A) (A) (A) (A) (A) (A) (A)
                 (A) (A) (A) (A) (A) (A) (A) (A) (A) (A) (A) (A)
                 (A) (A) (A) (A) (A) (A) (A) (A) (A) (A) (A) (A)
                 (A) (A) (A) (A) (A) (A) (A) (A) (A) (A) (A) (A)
                 (A) (A) (A) (A) (A) (A) (A) (A) (A) (A) (A) (A)
                 (A) (A) (A) (A) (A) (A) (A) (A) (A) (A) (A) (A)
                 (A) (A) (A) (A) (A) (A) (A) (A) (A) (A) (A) (A)
                 (A) (A) (A) (A) (A) (A) (A) (A) (A) (A) (A) (A)
                 (A) (A) (A) (A) (A) (A) (A) (A) (A) (A) (A) (A)
                 (A) (A) (A) (A) (A) (A) (A) (A) (A) (A) (A) (A)
       Virtual   (A) (A) (A) (A) (A) (A) (A) (A) (A) (A) (A) (A)
                 (A) (A) (A) (A) (A) (A) (A) (A) (A) (A) (A) (A)
                 (A) (A) (A) (A) (A) (A) (A) (A) (A) (A) (A) (A)
                 (A) (A) (A) (A) (A) (A) (A) (A) (A) (A) (A) (A)
                 (A) (A) (A) (A) (A) (A) (A) (A) (A) (A) (A) (A)
                 (A) (A) (A) (A) (A) (A) (A) (A) (A) (A) (A) (A)
                 (A) (A) (A) (A) (A) (A) (A) (A) (A) (A) (A) (A)
                 (A) (A) (A) (A) (A) (A) (A) (A) (A) (A) (A) (A)
                 (A) (A) (A) (A) (A) (A) (A) (A) (A) (A) (A) (A)
                 (A) (A) (A) (A) (A) (A) (A) (A) (A) (A) (A) (A)
                 (A) (A) (A) (A) (A) (A) (A) (A) (A) (A) (A) (A)
                 (A) (A) (A) (A) (A) (A) (A) (A) (A) (A) (A) (A)
                 (A) (A) (A) (A) (A) (A) (A) (A) (A) (A) (A) (A)
                 (A) (A) (A) (A) (A) (A) (A) (A) (A) (A) (A) (A)
                 (A) (A) (A) (A) (A) (A) (A) (A) (A) (A) (A) (A)
                 (A) (A) (A) (A) (A) (A) (A) (A) (A) (A) (A) (A)
                 (A) (A) (A) (A) (A) (A) (A) (A) (A) (A) (A) (A)
                 (A) (A) (A) (A) (A) (A) (A) (A) (A) (A) (A) (A)
                 (A) (A) (A) (A) (A) (A) (A) (A) (A) (A) (A) (A)
                 (A) (A) (A) (A) (A) (A) (A) (A) (A) (A) (A) (A)
                 (A) (A) (A) (A) (A) (A) (A) (A) (A) (A) (A) (A)
                 (A) (A) (A) (A) (A) (A) (A) (A) (A) (A) (A) (A)
                 (A) (A) (A) (A) (A) (A) (A) (A) (A) (A) (A) (A)
                 (A) (A) (A) (A) (A) (A) (A) (A) (A) (A) (A) (A)
                 (A) (A) (A) (A) (A) (A) (A) (A) (A) (A) (A) (A)
                 (A) (A) (A) (A) (A) (A) (A) (A) (A) (A) (A) (A)
                 (A) (A) (A) (A) (A) (A) (A) (A) (A) (A) (A) (A)
                 (A) (A) (A) (A) (A) (A) (A) (A) (A) (A) (A) (A)
                 (A) (A) (A) (A) (A) (A) (A) (A) (A) (A) (A) (A)
                 (A) (A) (A) (A) (A) (A) (A) (A) (A) (A) (A) (A)
                 (A) (A) (A) (A) (A) (A) (A) (A) (A) (A) (A) (A)
                 (A) (A) (A) (A) (A) (A) (A) (A) (A) (A) (A) (A)
                 (A) (A) (A) (A) (A) (A) (A) (A) (A) (A) (A) (A)
                 (A) (A) (A) (A) (A) (A) (A) (A) (A) (A) (A) (A)
                 (A) (A) (A) (A) (A) (A) (A) (A) (A) (A) (A) (A)
                 (A) (A) (A) (A) (A) (A) (A) (A) (A) (A) (A) (A)
                 (A) (A) (A) (A) (A) (A) (A) (A) (A) (A) (A) (A)
                 (A) (A) (A) (A) (A) (A) (A) (A) (A) (A) (A) (A)
                 (A) (A) (A) (A) (A) (A) (A) (A) (A) (A) (A) (A)
                 (A) (A) (A) (A) (A) (A) (A) (A) (A) (A) (A) (A)
                 (A) (A) (A) (A) (A) (A) (A) (A) (A) (A) (A) (A)
                 (A) (A) (A) (A) (A) (A) (A) (A) (A) (A) (A) (A)
                 (A) (A) (A) (A) (A) (A) (A) (A) (A) (A) (A) (A)
                 (A) (A) (A) (A) (A) (A) (A) (A) (A) (A) (A) (A)
                 (A) (A) (A) (A) (A) (A) (A) (A) (A) (A) (A) (A)
                 (A) (A) (A) (A) (A) (A) (A) (A) (A) (A) (A) (A)
                 (A) (A) (A) (A) (A) (A) (A) (A) (A) (A) (A) (A)
                 (A) (A) (A) (A) (A) (A) (A) (A) (A) (A) (A) (A)
                 (A) (A) (A) (A) (A) (A) (A) (A) (A) (A) (A) (A)
                 (A) (A) (A) (A) (A) (A) (A) (A) (A) (A) (A) (A)
                 (A) (A) (A) (A) (A) (A) (A) (A) (A) (A) (A) (A)
                 (A) (A) (A) (A) (A) (A) (A) (A) (A) (A) (A) (A)
                 (A) (A) (A) (A) (A) (A) (A) (A) (A) (A) (A) (A)
                 (A) (A) (A) (A) (A) (A) (A) (A) (A) (A) (A) (A)
                 (A) (A) (A) (A) (A) (A) (A) (A) (A) (A) (A) (A)
                 (A) (A) (A) (A) (A) (A) (A) (A) (A) (A) (A) (A)
                 (A) (A) (A) (A) (A) (A) (A) (A) (A) (A) (A) (A)
                 (A) (A) (A) (A) (A) (A) (A) (A) (A) (A) (A) (A)
                 (A) (A) (A) (A) (A) (A) (A) (A) (A) (A) (A) (A)
                 (A) (A) (A) (A) (A) (A) (A) (A) (A) (A) (A) (A)
                 (A) (A) (A) (A) (A) (A) (A) (A) (A) (A) (A) (A)
                 (A) (A) (A) (A) (A) (A) (A) (A) (A) (A) (A) (A)
                 (A) (A) (A) (A) (A) (A) (A) (A) (A) (A) (A) (A)
                 (A) (A) (A) (A) (A) (A) (A) (A) (A) (A) (A) (A)
                 (A) (A) (A) (A) (A) (A) (A) (A) (A) (A) (A) (A)
                 (A) (A) (A) (A) (A) (A) (A) (A) (A) (A) (A) (A)
                 (A) (A) (A) (A) (A) (A) (A) (A) (A) (A) (A) (A)
                 (A) (A) (A) (A) (A) (A) (A) (A) (A) (A) (A) (A)
                 (A) (A) (A) (A) (A) (A) (A) (A) (A) (A) (A) (A)
                 (A) (A) (A) (A) (A) (A) (A) (A) (A) (A) (A) (A)
                 (A) (A) (A) (A) (A) (A) (A) (A) (A) (A) (A) (A)
                 (A) (A) (A) (A) (A) (A) (A) (A) (A) (A) (A) (A)
                 (A) (A) (A) (A) (A) (A) (A) (A) (A) (A) (A) (A)
                 (A) (A) (A) (A) (A) (A) (A) (A) (A) (A) (A) (A)
                 (A) (A) (A) (A) (A) (A) (A) (A) (A) (A) (A) (A)
                 (A) (A) (A) (A) (A) (A) (A) (A) (A) (A) (A) (A)
                 (A) (A) (A) (A) (A) (A) (A) (A) (A) (A) (A) (A)
                 (A) (A) (A) (A) (A) (A) (A) (A) (A) (A) (A) (A)
                 (A) (A) (A) (A) (A) (A) (A) (A) (A) (A) (A) (A)
                 (A) (A) (A) (A) (A) (A) (A) (A) (A) (A) (A) (A)
                 (A) (A) (A) (A) (A) (A) (A) (A) (A) (A) (A) (A)
                 (A) (A) (A) (A) (A) (A) (A) (A) (A) (A) (A) (A)
                 (A) (A) (A) (A) (A) (A) (A) (A) (A) (A) (A) (A)
                 (A) (A) (A) (A) (A) (A) (A) (A) (A) (A) (A) (A)
                 (A) (A) (A) (A) (A) (A) (A) (A) (A) (A) (A) (A)
                 (A) (A) (A) (A) (A) (A) (A) (A) (A) (A) (A) (A)
                 (A) (A) (A) (A) (A) (A) (A) (A) (A) (A) (A) (A)
                 (A) (A) (A) (A) (A) (A) (A) (A) (A) (A) (A) (A)
                 (A) (A) (A) (A) (A) (A) (A) (A) (A) (A) (A) (A)
                 (A) (A) (A) (A) (A) (A) (A) (A) (A) (A) (A) (A)
                 (A) (A) (A) (A) (A) (A) (A) (A) (A) (A) (A) (A)
                 (A) (A) (A) (A) (A) (A) (A) (A) (A) (A) (A) (A)
                 (A) (A) (A) (A) (A) (A) (A) (A) (A) (A) (A) (A)
                 (A) (A) (A) (A) (A) (A) (A) (A) (A) (A) (A) (A)
                 (A) (A) (A) (A) (A) (A) (A) (A) (A) (A) (A) (A)
                 (A) (A) (A) (A) (A) (A) (A) (A) (A) (A) (A) (A)
                 (A) (A) (A) (A) (A) (A) (A) (A) (A) (A) (A) (A)
                 (A) (A) (A) (A) (A) (A) (A) (A) (A) (A) (A) (A)
                 (A) (A) (A) (A) (A) (A) (A) (A) (A) (A) (A) (A)
                 (A) (A) (A) (A) (A) (A) (A) (A) (A) (A) (A) (A)
                 (A) (A) (A) (A) (A) (A) (A) (A) (A) (A) (A) (A)
                 (A) (A) (A) (A) (A) (A) (A) (A) (A) (A) (A) (A)
                 (A) (A) (A) (A) (A) (A) (A) (A) (A) (A) (A) (A)
                 (A) (A) (A) (A) (A) (A) (A) (A) (A) (A) (A) (A)
                 (A) (A) (A) (A) (A) (A) (A) (A) (A) (A) (A) (A)
    20 initial guesses have been made.
 Convergence on wavefunction:    0.001000000000000
 Davidson Disk Diagonalization:  ConvIn= 1.00D-03 SkipCon=T Conv= 1.00D-03.
 Max sub-space:  2000 roots to seek:    20 dimension of matrix:       549360
 Iteration     1 Dimension    20 NMult     0 NNew     20
 CISAX will form    20 AO SS matrices at one time.
 NMat=    20 NSing=    20 JSym2X= 0.
 FoFJK:  IHMeth= 1 ICntrl=       0 DoSepK=T KAlg= 0 I1Cent=           0 FoldK=F
 IRaf=         1 NMat=      40 IRICut=       1 DoRegI=T DoRafI=F ISym2E= 0 IDoP0=3 IntGTp=3.
 FoFCou: FMM=T IPFlag=           0 FMFlag=      100000 FMFlg1=        2001
         NFxFlg=           0 DoJE=F BraDBF=F KetDBF=F FulRan=T
         wScrn=  0.000000 ICntrl=       500 IOpCl=  0 I1Cent=           0 NGrid=           0
         NMat0=   20 NMatS0=     20 NMatT0=    0 NMatD0=   20 NMtDS0=    0 NMtDT0=    0
 Symmetry not used in FoFCou.
 FMM levels:  10  Number of levels for PrismC:   9
 New state      1 was old state      7
 New state      2 was old state      6
 New state      3 was old state      1
 New state      4 was old state      2
 New state      5 was old state      3
 Excitation Energies [eV] at current iteration:
 Root      1 :     2.612145774270353
 Root      2 :     2.620022353815051
 Root      3 :     2.649810862164178
 Root      4 :     2.658941351152339
 Root      5 :     2.712530665900788
 Root      6 :     2.739567486401763
 Root      7 :     3.439115302734849
 Root      8 :     3.539640508545520
 Root      9 :     3.624695722243051
 Root     10 :     3.667267528921638
 Root     11 :     3.738518930712917
 Root     12 :     3.760461699318029
 Root     13 :     4.284061574825101
 Root     14 :     4.324614449294068
 Root     15 :     4.556766397720049
 Root     16 :     4.672078647082887
 Root     17 :     4.863167605493211
 Root     18 :     4.900832810666074
 Root     19 :     4.964274711570278
 Root     20 :     4.998215539490064
 Iteration     2 Dimension    30 NMult    20 NNew     10
 CISAX will form    10 AO SS matrices at one time.
 NMat=    10 NSing=    10 JSym2X= 0.
 New state      1 was old state      4
 Root      1 not converged, maximum delta is    0.146062406839069
 New state      2 was old state      5
 Root      2 not converged, maximum delta is    0.152026773483224
 New state      3 was old state      1
 Root      3 not converged, maximum delta is    0.351049496078742
 New state      4 was old state      2
 Root      4 not converged, maximum delta is    0.343082541095459
 New state      5 was old state      3
 Root      5 not converged, maximum delta is    0.001227819995990
 Excitation Energies [eV] at current iteration:
 Root      1 :     1.790703248999870   Change is   -0.868238102152470
 Root      2 :     1.817106766269360   Change is   -0.895423899631428
 Root      3 :     2.233845269933158   Change is   -0.378300504337196
 Root      4 :     2.240444494818919   Change is   -0.379577858996132
 Root      5 :     2.649641161093519   Change is   -0.000169701070660
 Iteration     3 Dimension    40 NMult    30 NNew     10
 CISAX will form    10 AO SS matrices at one time.
 NMat=    10 NSing=    10 JSym2X= 0.
 Root      1 not converged, maximum delta is    0.053953789903998
 Root      2 not converged, maximum delta is    0.054762317279053
 Root      3 not converged, maximum delta is    0.090944060998127
 Root      4 not converged, maximum delta is    0.090450085592825
 Root      5 has converged.
 Excitation Energies [eV] at current iteration:
 Root      1 :     1.684286591329954   Change is   -0.106416657669916
 Root      2 :     1.708063270310629   Change is   -0.109043495958731
 Root      3 :     2.192991818926953   Change is   -0.040853451006205
 Root      4 :     2.200897585542590   Change is   -0.039546909276329
 Root      5 :     2.649640380819002   Change is   -0.000000780274517
 Iteration     4 Dimension    48 NMult    40 NNew      8
 CISAX will form     8 AO SS matrices at one time.
 NMat=     8 NSing=     8 JSym2X= 0.
 Root      1 not converged, maximum delta is    0.010396631140388
 Root      2 not converged, maximum delta is    0.010226743143019
 Root      3 not converged, maximum delta is    0.014573754255699
 Root      4 not converged, maximum delta is    0.014409199933584
 Root      5 has converged.
 Excitation Energies [eV] at current iteration:
 Root      1 :     1.667587128950698   Change is   -0.016699462379256
 Root      2 :     1.691178852625596   Change is   -0.016884417685033
 Root      3 :     2.185757864564791   Change is   -0.007233954362161
 Root      4 :     2.194034733031477   Change is   -0.006862852511113
 Root      5 :     2.649640380816209   Change is   -0.000000000002793
 Iteration     5 Dimension    56 NMult    48 NNew      8
 CISAX will form     8 AO SS matrices at one time.
 NMat=     8 NSing=     8 JSym2X= 0.
 Root      1 not converged, maximum delta is    0.001681974750943
 Root      2 not converged, maximum delta is    0.001723738282382
 Root      3 not converged, maximum delta is    0.002378490033571
 Root      4 not converged, maximum delta is    0.002262192984554
 Root      5 has converged.
 Excitation Energies [eV] at current iteration:
 Root      1 :     1.665840492579077   Change is   -0.001746636371621
 Root      2 :     1.689375259427824   Change is   -0.001803593197772
 Root      3 :     2.184920202112683   Change is   -0.000837662452109
 Root      4 :     2.193250631181693   Change is   -0.000784101849784
 Root      5 :     2.649640380813882   Change is   -0.000000000002327
 Iteration     6 Dimension    64 NMult    56 NNew      8
 CISAX will form     8 AO SS matrices at one time.
 NMat=     8 NSing=     8 JSym2X= 0.
 Root      1 not converged, maximum delta is    0.001047971221788
 Root      2 not converged, maximum delta is    0.001066222436628
 Root      3 not converged, maximum delta is    0.001006795852087
 Root      4 has converged.
 Root      5 has converged.
 Excitation Energies [eV] at current iteration:
 Root      1 :     1.665592001513681   Change is   -0.000248491065396
 Root      2 :     1.689116228251196   Change is   -0.000259031176629
 Root      3 :     2.184793061450204   Change is   -0.000127140662478
 Root      4 :     2.193131077196875   Change is   -0.000119553984818
 Root      5 :     2.649640380813572   Change is   -0.000000000000310
 Iteration     7 Dimension    70 NMult    64 NNew      6
 CISAX will form     6 AO SS matrices at one time.
 NMat=     6 NSing=     6 JSym2X= 0.
 Root      1 has converged.
 Root      2 has converged.
 Root      3 has converged.
 Root      4 has converged.
 Root      5 has converged.
 Excitation Energies [eV] at current iteration:
 Root      1 :     1.665567733634525   Change is   -0.000024267879156
[...]
 Alpha virt. eigenvalues --    1.84438   1.84577   1.84790   1.84842   1.85090
 Alpha virt. eigenvalues --    1.85171   1.85258   1.85384   1.85452   1.85540
 Alpha virt. eigenvalues --    1.85851   1.85956   1.86342   1.86432   1.86537
 Alpha virt. eigenvalues --    1.86701   1.86770   1.86872   1.87034   1.87094
 Alpha virt. eigenvalues --    1.87428   1.87536   1.87671   1.87822   1.87851
 Alpha virt. eigenvalues --    1.88022   1.88067   1.88228   1.88515   1.88621
 Alpha virt. eigenvalues --    1.88802   1.88994   1.89113   1.89126   1.89604
 Alpha virt. eigenvalues --    1.89708   1.89724   1.89927   1.90102   1.90242
 Alpha virt. eigenvalues --    1.90741   1.90950   1.91335   1.91431   1.91477
 Alpha virt. eigenvalues --    1.91646   1.92140   1.92239   1.92600   1.92704
 Alpha virt. eigenvalues --    1.92968   1.93206   1.93324   1.93556   1.94268
 Alpha virt. eigenvalues --    1.94356   1.94672   1.94866   1.95464   1.95644
 Alpha virt. eigenvalues --    1.95712   1.95865   1.95980   1.96098   1.96137
 Alpha virt. eigenvalues --    1.96228   1.96536   1.96582   1.96878   1.96983
 Alpha virt. eigenvalues --    1.97437   1.97590   1.97823   1.97857   1.98153
 Alpha virt. eigenvalues --    1.98222   1.98402   1.98673   1.99123   1.99126
 Alpha virt. eigenvalues --    1.99802   1.99978   2.00645   2.00781   2.00983
 Alpha virt. eigenvalues --    2.01150   2.01460   2.01558   2.01654   2.01660
 Alpha virt. eigenvalues --    2.01708   2.01873   2.02761   2.02768   2.03191
 Alpha virt. eigenvalues --    2.03222   2.03391   2.03430   2.03470   2.03576
 Alpha virt. eigenvalues --    2.04022   2.04077   2.04938   2.05027   2.05495
 Alpha virt. eigenvalues --    2.05678   2.06062   2.06335   2.06895   2.07089
 Alpha virt. eigenvalues --    2.07175   2.07410   2.08565   2.08594   2.08961
 Alpha virt. eigenvalues --    2.09055   2.09569   2.09662   2.10765   2.11084
 Alpha virt. eigenvalues --    2.11168   2.11461   2.11514   2.11576   2.11706
 Alpha virt. eigenvalues --    2.11913   2.12446   2.12511   2.12785   2.12819
 Alpha virt. eigenvalues --    2.12850   2.12925   2.13675   2.13739   2.14128
 Alpha virt. eigenvalues --    2.14308   2.15317   2.15454   2.15912   2.16139
 Alpha virt. eigenvalues --    2.16506   2.16642   2.16744   2.17240   2.17402
 Alpha virt. eigenvalues --    2.17690   2.17699   2.17988   2.18055   2.18060
 Alpha virt. eigenvalues --    2.18312   2.18723   2.18851   2.19288   2.19622
 Alpha virt. eigenvalues --    2.19868   2.20014   2.20202   2.20298   2.20482
 Alpha virt. eigenvalues --    2.21136   2.21218   2.21653   2.21736   2.21820
 Alpha virt. eigenvalues --    2.21928   2.22660   2.22750   2.23302   2.23399
 Alpha virt. eigenvalues --    2.24376   2.24468   2.24943   2.25047   2.26284
 Alpha virt. eigenvalues --    2.26493   2.26763   2.27057   2.27088   2.27256
 Alpha virt. eigenvalues --    2.28116   2.28363   2.29248   2.29487   2.29715
 Alpha virt. eigenvalues --    2.29933   2.30432   2.30669   2.30865   2.31066
 Alpha virt. eigenvalues --    2.31176   2.31253   2.32102   2.32288   2.33115
 Alpha virt. eigenvalues --    2.33280   2.33444   2.33533   2.34123   2.34186
 Alpha virt. eigenvalues --    2.35351   2.35362   2.35773   2.35956   2.36337
 Alpha virt. eigenvalues --    2.36381   2.36494   2.36603   2.37645   2.37729
 Alpha virt. eigenvalues --    2.38234   2.38422   2.38817   2.38829   2.39589
 Alpha virt. eigenvalues --    2.39716   2.40165   2.40310   2.40462   2.40868
 Alpha virt. eigenvalues --    2.41241   2.41248   2.41666   2.41735   2.42028
 Alpha virt. eigenvalues --    2.42180   2.42861   2.42924   2.43103   2.43538
 Alpha virt. eigenvalues --    2.44012   2.44154   2.44709   2.44849   2.44883
 Alpha virt. eigenvalues --    2.45039   2.45531   2.45620   2.46277   2.46326
 Alpha virt. eigenvalues --    2.46461   2.46546   2.46780   2.46849   2.47243
 Alpha virt. eigenvalues --    2.47429   2.47695   2.47930   2.49289   2.49429
 Alpha virt. eigenvalues --    2.49930   2.50047   2.50487   2.50525   2.51099
 Alpha virt. eigenvalues --    2.51313   2.51645   2.51860   2.52413   2.52423
 Alpha virt. eigenvalues --    2.52786   2.53203   2.53897   2.54005   2.54123
 Alpha virt. eigenvalues --    2.54315   2.54773   2.54856   2.55498   2.55711
 Alpha virt. eigenvalues --    2.57839   2.58115   2.58624   2.58942   2.60188
 Alpha virt. eigenvalues --    2.60342   2.60583   2.60954   2.61686   2.61856
 Alpha virt. eigenvalues --    2.62462   2.62506   2.62937   2.63167   2.63909
 Alpha virt. eigenvalues --    2.64228   2.64253   2.64458   2.65059   2.65134
 Alpha virt. eigenvalues --    2.65756   2.65887   2.66756   2.66851   2.66884
 Alpha virt. eigenvalues --    2.67090   2.67888   2.68015   2.68833   2.68847
 Alpha virt. eigenvalues --    2.69005   2.69064   2.69369   2.69624   2.69976
 Alpha virt. eigenvalues --    2.70171   2.70962   2.71097   2.71922   2.72040
 Alpha virt. eigenvalues --    2.72526   2.72637   2.72767   2.72826   2.73255
 Alpha virt. eigenvalues --    2.73315   2.73499   2.73532   2.74494   2.74544
 Alpha virt. eigenvalues --    2.74956   2.75088   2.76553   2.76572   2.77107
 Alpha virt. eigenvalues --    2.77217   2.77431   2.77628   2.78163   2.78316
 Alpha virt. eigenvalues --    2.78713   2.78718   2.79113   2.79181   2.80279
 Alpha virt. eigenvalues --    2.80321   2.80572   2.80715   2.81104   2.81188
 Alpha virt. eigenvalues --    2.81912   2.82023   2.82323   2.82367   2.83729
 Alpha virt. eigenvalues --    2.83749   2.83867   2.83943   2.84527   2.84560
 Alpha virt. eigenvalues --    2.84864   2.84916   2.85641   2.85710   2.86682
 Alpha virt. eigenvalues --    2.86983   2.87196   2.87602   2.88125   2.88255
 Alpha virt. eigenvalues --    2.88492   2.88652   2.88903   2.88915   2.90471
 Alpha virt. eigenvalues --    2.90677   2.91095   2.91171   2.93129   2.93346
 Alpha virt. eigenvalues --    2.93793   2.94176   2.94533   2.94590   2.95335
 Alpha virt. eigenvalues --    2.95484   2.95858   2.96197   2.96389   2.96422
 Alpha virt. eigenvalues --    2.96891   2.97167   2.97794   2.98041   2.98177
 Alpha virt. eigenvalues --    2.98352   2.98375   2.98589   2.98597   2.98826
 Alpha virt. eigenvalues --    2.98862   2.98955   2.99557   2.99808   3.00012
 Alpha virt. eigenvalues --    3.00039   3.00200   3.00347   3.00440   3.01012
 Alpha virt. eigenvalues --    3.01921   3.01970   3.02006   3.02130   3.02725
 Alpha virt. eigenvalues --    3.02833   3.02957   3.03298   3.03326   3.03732
 Alpha virt. eigenvalues --    3.04073   3.04151   3.04439   3.04444   3.04527
 Alpha virt. eigenvalues --    3.04773   3.05276   3.05366   3.06088   3.06183
 Alpha virt. eigenvalues --    3.06773   3.06954   3.07930   3.08116   3.09370
 Alpha virt. eigenvalues --    3.09372   3.09661   3.10414   3.10432   3.10756
 Alpha virt. eigenvalues --    3.11315   3.11497   3.11912   3.11918   3.12159
 Alpha virt. eigenvalues --    3.12317   3.13254   3.13619   3.13664   3.13708
 Alpha virt. eigenvalues --    3.14090   3.14498   3.15902   3.15999   3.17250
 Alpha virt. eigenvalues --    3.17553   3.17891   3.18053   3.19053   3.19105
 Alpha virt. eigenvalues --    3.22306   3.22622   3.23930   3.24471   3.24671
 Alpha virt. eigenvalues --    3.25229   3.26487   3.26685   3.27422   3.27603
 Alpha virt. eigenvalues --    3.29103   3.29246   3.31405   3.31508   3.33210
 Alpha virt. eigenvalues --    3.33398   3.40279   3.40639   3.42793   3.42832
 Alpha virt. eigenvalues --    3.48650   3.48732   3.50002   3.50307   3.50861
 Alpha virt. eigenvalues --    3.51455   3.56533   3.57031   3.59082   3.59366
 Alpha virt. eigenvalues --    3.62546   3.62825   3.66126   3.66163   3.67191
 Alpha virt. eigenvalues --    3.67565   3.73276   3.74053   3.76060   3.76715
          Condensed to atoms (all electrons):
 Mulliken charges:
               1
     1  Mg   0.838571
     2  C   -0.002984
     3  C   -0.094449
     4  C   -0.045824
     5  C   -0.063909
     6  N   -0.256776
     7  C   -0.052508
     8  C   -0.013945
     9  C   -0.086942
    10  C    0.046198
    11  C    0.104809
    12  C    0.053599
    13  C   -0.071686
    14  H    0.035913
    15  N   -0.433125
    16  C    0.168261
    17  C   -0.177421
    18  C   -0.004113
    19  C    0.148643
    20  C    0.110243
    21  C    0.012224
    22  O   -0.249422
    23  C    0.062577
    24  N   -0.341110
    25  C    0.041203
    26  C   -0.028226
    27  C   -0.023985
    28  C    0.074852
    29  C    0.076134
    30  C    0.035109
    31  C   -0.004488
    32  N   -0.310541
    33  C    0.080487
    34  C   -0.169554
    35  C    0.008546
    36  C    0.083044
    37  C    0.127261
    38  C    0.046324
    39  O   -0.187867
    40  C   -0.005425
    41  C    0.213009
    42  O   -0.257037
    43  O   -0.304846
    44  C    0.157484
    45  H   -0.017706
    46  H   -0.016746
    47  H   -0.041342
    48  H    0.001141
    49  H   -0.004332
    50  H    0.025614
    51  H    0.016512
    52  H    0.016631
    53  H    0.010615
    54  H    0.044172
    55  H    0.018181
    56  H    0.017544
    57  H    0.005730
    58  H    0.026903
    59  H    0.038842
    60  H    0.037375
    61  H    0.035710
    62  H    0.030878
    63  H    0.016630
    64  H    0.009588
    65  H    0.023322
    66  H    0.012552
    67  H    0.004836
    68  H    0.006490
    69  H    0.004772
    70  H    0.008925
    71  H    0.017926
    72  H    0.028926
    73  H    0.047914
    74  H    0.009132
    75  H    0.046163
    76  H    0.035252
    77  H    0.043342
    78  H    0.046077
    79  H    0.054124
    80  Mg   0.838053
    81  C   -0.016697
    82  C   -0.087886
    83  C   -0.045493
    84  C   -0.064577
    85  N   -0.254530
    86  C   -0.049467
    87  C   -0.015126
    88  C   -0.090619
    89  C    0.045872
    90  C    0.114388
    91  C    0.062596
    92  C   -0.077656
    93  H    0.034572
    94  N   -0.423458
    95  C    0.162861
    96  C   -0.174901
    97  C   -0.007926
    98  C    0.152029
    99  C    0.099525
   100  C    0.015455
   101  O   -0.253308
   102  C    0.061270
   103  N   -0.349997
   104  C    0.037528
   105  C   -0.019816
   106  C   -0.034881
   107  C    0.089053
   108  C    0.073682
   109  C    0.034762
   110  C   -0.007629
   111  N   -0.324255
   112  C    0.078672
   113  C   -0.162681
   114  C    0.002706
   115  C    0.096261
   116  C    0.131320
   117  C    0.042932
   118  O   -0.187403
   119  C    0.000688
   120  C    0.211140
   121  O   -0.251276
   122  O   -0.305417
   123  C    0.152129
   124  H   -0.020281
   125  H   -0.015713
   126  H   -0.040325
   127  H   -0.000402
   128  H   -0.004947
   129  H    0.023748
   130  H    0.014631
   131  H    0.015252
   132  H    0.013744
   133  H    0.037681
   134  H    0.020694
   135  H    0.019218
   136  H    0.008291
   137  H    0.025711
   138  H    0.039429
   139  H    0.038050
   140  H    0.036175
   141  H    0.033700
   142  H    0.014161
   143  H    0.012621
   144  H    0.024842
   145  H    0.011977
   146  H    0.005624
   147  H    0.006047
   148  H    0.003685
   149  H    0.010801
   150  H    0.017768
   151  H    0.030156
   152  H    0.045869
   153  H    0.008268
   154  H    0.048405
   155  H    0.036126
   156  H    0.043909
   157  H    0.049171
   158  H    0.053419
 Sum of Mulliken charges =  -0.00000
 Mulliken charges with hydrogens summed into heavy atoms:
               1
     1  Mg   0.838571
     2  C   -0.002984
     3  C   -0.112155
     4  C   -0.062570
     5  C   -0.105252
     6  N   -0.256776
     7  C   -0.052508
     8  C   -0.012804
     9  C   -0.091273
    10  C    0.046198
    11  C    0.163566
    12  C    0.108386
    13  C   -0.000048
    15  N   -0.433125
    16  C    0.168261
    17  C   -0.177421
    18  C   -0.004113
    19  C    0.148643
    20  C    0.181719
    21  C    0.012224
    22  O   -0.249422
    23  C    0.166539
    24  N   -0.341110
    25  C    0.041203
    26  C   -0.011596
    27  C   -0.014397
    28  C    0.074852
    29  C    0.116844
    30  C    0.046371
    31  C    0.051290
    32  N   -0.310541
    33  C    0.080487
    34  C   -0.169554
    35  C    0.008546
    36  C    0.083044
    37  C    0.230470
    38  C    0.046324
    39  O   -0.187867
    40  C    0.029827
    41  C    0.213009
    42  O   -0.257037
    43  O   -0.304846
    44  C    0.301027
    80  Mg   0.838053
    81  C   -0.016697
    82  C   -0.108167
    83  C   -0.061206
    84  C   -0.104902
    85  N   -0.254530
    86  C   -0.049467
    87  C   -0.015529
    88  C   -0.095566
    89  C    0.045872
    90  C    0.168019
    91  C    0.114021
    92  C   -0.003172
    94  N   -0.423458
    95  C    0.162861
    96  C   -0.174901
    97  C   -0.007926
    98  C    0.152029
    99  C    0.172956
   100  C    0.015455
   101  O   -0.253308
   102  C    0.169195
   103  N   -0.349997
   104  C    0.037528
   105  C   -0.005655
   106  C   -0.022260
   107  C    0.089053
   108  C    0.116125
   109  C    0.044494
   110  C    0.051096
   111  N   -0.324255
   112  C    0.078672
   113  C   -0.162681
   114  C    0.002706
   115  C    0.096261
   116  C    0.233862
   117  C    0.042932
   118  O   -0.187403
   119  C    0.036814
   120  C    0.211140
   121  O   -0.251276
   122  O   -0.305417
   123  C    0.298628
 Electronic spatial extent (au):  <R**2>=         149771.2796
 Charge=             -0.0000 electrons
 Dipole moment (field-independent basis, Debye):
    X=             -4.0338    Y=             -2.2497    Z=             -7.5523  Tot=              8.8527
 Quadrupole moment (field-independent basis, Debye-Ang):
   XX=           -517.8993   YY=           -550.7053   ZZ=           -448.4096
   XY=             -9.4442   XZ=              1.1482   YZ=            -47.5958
 Traceless Quadrupole moment (field-independent basis, Debye-Ang):
   XX=            -12.2279   YY=            -45.0339   ZZ=             57.2618
   XY=             -9.4442   XZ=              1.1482   YZ=            -47.5958
 Octapole moment (field-independent basis, Debye-Ang**2):
  XXX=           -535.8833  YYY=            410.2500  ZZZ=            -85.3480  XYY=            -45.6495
  XXY=            -93.9176  XXZ=           -339.3446  XZZ=             49.1024  YZZ=           -213.7786
  YYZ=           -206.1806  XYZ=             57.6421
 Hexadecapole moment (field-independent basis, Debye-Ang**3):
 XXXX=        -139584.6574 YYYY=         -42670.1916 ZZZZ=         -23980.5648 XXXY=           -999.3802
 XXXZ=           -109.9376 YYYX=            509.2346 YYYZ=          -1533.8847 ZZZX=            526.4130
 ZZZY=            187.3900 XXYY=         -31676.1082 XXZZ=         -24331.0362 YYZZ=         -10909.8890
 XXYZ=          -2105.2521 YYXZ=           -701.9306 ZZXY=            153.7900
 N-N= 1.425216430217D+04 E-N=-3.798531799012D+04  KE= 4.028802073367D+03
 Leave Link  601 at Sat Sep  4 10:48:31 2021, MaxMem= 23488102400 cpu:              15.6 elap:               0.8
 (Enter /sw/apps/gaussian-16.0/g16/l9999.exe)
 1\1\GINC-BP1-COMPUTE00100\SP\RCAM-B3LYP TD-FC\def2SVP\C68H72Mg2N8O8\OF
 15641\04-Sep-2021\0\\#p cam-b3lyp/Def2SVP td=(nstates=5)\\TDDFT excite
 d states in gaussian\\0,1\Mg,0,0.,0.,0.\C,0,-0.217,-2.218,2.801\C,0,-1
 .255,2.442,2.026\C,0,-0.245,1.85,-2.564\C,0,0.146,-2.824,-2.037\N,0,-0
 .617,-0.009,2.126\C,0,-0.594,-0.908,3.105\C,0,-0.936,-0.309,4.502\C,0,
 -1.773,0.964,4.032\C,0,-1.155,1.168,2.66\C,0,-3.263,0.685,3.863\C,0,0.
 345,0.11,5.299\C,0,0.124,0.397,6.787\H,0,1.168,0.033,7.733\N,0,-0.185,
 1.961,-0.152\C,0,-0.703,2.8,0.777\C,0,-0.62,4.156,0.193\C,0,-0.187,4.0
 15,-1.225\C,0,-0.214,2.583,-1.38\C,0,-0.887,5.406,0.974\C,0,0.181,5.01
 3,-2.277\O,0,0.303,4.69,-3.508\C,0,0.31,6.414,-1.837\N,0,-0.265,-0.413
 ,-2.029\C,0,-0.279,0.569,-2.937\C,0,-0.196,0.024,-4.332\C,0,0.124,-1.5
 33,-4.18\C,0,0.086,-1.632,-2.635\C,0,-1.451,0.205,-5.197\C,0,1.373,-2.
 07,-4.923\C,0,2.626,-1.49,-4.306\N,0,0.15,-2.144,0.303\C,0,0.173,-3.13
 6,-0.688\C,0,0.173,-4.438,0.004\C,0,0.133,-4.111,1.358\C,0,0.083,-2.69
 5,1.502\C,0,0.149,-5.715,-0.623\C,0,0.096,-4.629,2.716\O,0,0.208,-5.74
 7,3.221\C,0,-0.255,-3.428,3.701\C,0,0.717,-3.482,4.848\O,0,1.931,-3.25
 5,4.669\O,0,0.038,-3.556,6.003\C,0,0.943,-3.583,7.183\H,0,-1.859,3.22,
 2.497\H,0,-0.218,2.453,-3.474\H,0,0.276,-3.747,-2.605\H,0,-1.554,-0.94
 9,5.132\H,0,-1.585,1.831,4.665\H,0,-3.484,-0.377,3.969\H,0,-3.511,1.02
 7,2.858\H,0,-3.852,1.301,4.543\H,0,0.669,1.096,4.966\H,0,1.13,-0.639,5
 .189\H,0,-0.844,0.026,7.125\H,0,0.062,1.477,6.921\H,0,-1.344,5.186,1.9
 38\H,0,-1.651,5.963,0.432\H,0,0.007,6.02,1.084\H,0,-0.635,6.744,-1.405
 \H,0,0.665,6.97,-2.704\H,0,1.048,6.466,-1.036\H,0,0.608,0.501,-4.891\H
 ,0,-0.692,-2.156,-4.547\H,0,-1.267,0.74,-6.129\H,0,-2.204,0.714,-4.596
 \H,0,-1.967,-0.72,-5.453\H,0,1.356,-1.759,-5.967\H,0,1.452,-3.157,-4.9
 02\H,0,2.714,-0.522,-4.798\H,0,3.487,-2.121,-4.529\H,0,2.495,-1.303,-3
 .24\H,0,0.867,-6.333,-0.084\H,0,0.404,-5.642,-1.68\H,0,-0.891,-5.999,-
 0.463\H,0,-1.283,-3.581,4.028\H,0,0.698,-4.478,7.755\H,0,0.833,-2.619,
 7.68\H,0,2.,-3.754,6.976\Mg,0,13.14486,1.18888,1.00406\C,0,12.84505,-0
 .46292,4.17593\C,0,11.89576,3.98315,2.50952\C,0,12.97245,2.53599,-1.86
 351\C,0,13.27182,-1.96631,-0.4705\N,0,12.49253,1.58498,3.08007\C,0,12.
 48212,0.89955,4.2134\C,0,12.13607,1.74121,5.47094\C,0,11.31931,2.9225,
 4.75239\C,0,11.96164,2.85695,3.36826\C,0,9.83621,2.62568,4.60523\C,0,1
 3.41625,2.28654,6.19605\C,0,13.17014,2.85295,7.59618\H,0,14.19897,2.66
 24,8.61484\N,0,12.99564,3.09984,0.48975\C,0,12.48357,4.10448,1.2312\C,
 0,12.58391,5.3119,0.39679\C,0,13.04529,4.90798,-0.9592\C,0,13.00143,3.
 46494,-0.83358\C,0,12.33279,6.69256,0.92983\C,0,13.44585,5.69087,-2.17
 281\O,0,13.584,5.13313,-3.31853\C,0,13.58056,7.14466,-2.00013\N,0,12.9
 1206,0.40829,-0.90874\C,0,12.9222,1.20965,-1.9884\C,0,13.01653,0.40595
 ,-3.26338\C,0,13.3126,-1.09673,-2.80309\C,0,13.24677,-0.90985,-1.27138
 \C,0,11.77711,0.42919,-4.15763\C,0,14.5656,-1.78494,-3.41058\C,0,15.82
 083,-1.11303,-2.90235\N,0,13.25982,-0.85179,1.70442\C,0,13.27647,-2.02
 408,0.91732\C,0,13.24467,-3.17253,1.84602\C,0,13.18803,-2.58399,3.1183
 8\C,0,13.16438,-1.16883,2.99083\C,0,13.22042,-4.54538,1.47079\C,0,13.1
 3215,-2.83822,4.53998\O,0,13.21111,-3.84227,5.24665\C,0,12.77994,-1.47
 805,5.28313\C,0,13.73222,-1.31884,6.43653\O,0,14.94863,-1.15754,6.2342
 1\O,0,13.02711,-1.16586,7.57221\C,0,13.92773,-0.99321,8.74307\H,0,11.3
 0259,4.84201,2.82479\H,0,13.02396,2.94978,-2.87327\H,0,13.40762,-2.982
 01,-0.8481\H,0,11.50464,1.239,6.19403\H,0,11.51958,3.88273,5.22059\H,0
 ,9.59598,1.61581,4.90285\H,0,9.60868,2.77574,3.55797\H,0,9.24718,3.368
 3,5.15103\H,0,13.75857,3.19474,5.68347\H,0,14.17916,1.53375,6.23974\H,
 0,12.18503,2.5712,7.9875\H,0,13.12956,3.94274,7.52745\H,0,11.84984,6.6
 6198,1.91432\H,0,11.58697,7.15709,0.27574\H,0,13.23231,7.31183,0.93581
 \H,0,12.63613,7.55601,-1.65183\H,0,13.95948,7.5183,-2.95338\H,0,14.317
 18,7.33659,-1.21199\H,0,13.83702,0.75291,-3.87942\H,0,12.48972,-1.7750
 4,-3.07256\H,0,11.98626,0.78444,-5.18433\H,0,11.02732,1.0502,-3.68573\
 H,0,11.2599,-0.52383,-4.25491\H,0,14.57079,-1.6709,-4.49737\H,0,14.620
 57,-2.84737,-3.19799\H,0,15.92618,-0.2511,-3.56799\H,0,16.67441,-1.782
 73,-2.98567\H,0,15.67755,-0.72883,-1.88573\H,0,13.91301,-5.05902,2.124
 23\H,0,13.48828,-4.67634,0.42443\H,0,12.16917,-4.78017,1.65788\H,0,11.
 743,-1.54484,5.61459\H,0,13.656,-1.76346,9.47147\H,0,13.81049,0.06096,
 9.05727\H,0,14.98173,-1.20033,8.59949\\Version=ES64L-G16RevA.03\State=
 1-A\HF=-4069.8115754\RMSD=5.413e-09\PG=C01 [X(C68H72Mg2N8O8)]\\@


 TOM, TOM, THE BURGLAR'S SON
 STOLE A MACHINE AND AWAY HE RUN
 THE JOB WAS NEAT, BUT TOM GOT BEAT
 BY THE TIME HE GOT HOME IT WAS OBSOLETE.
 Job cpu time:       0 days 11 hours 52 minutes  8.6 seconds.
 Elapsed time:       0 days  0 hours 30 minutes 15.9 seconds.
 File lengths (MBytes):  RWF=  13225 Int=      0 D2E=      0 Chk=    574 Scr=      1
 Normal termination of Gaussian 16 at Sat Sep  4 10:48:32 2021.
