 Entering Gaussian System, Link 0=g16
 Initial command:
 /sw/apps/gaussian-16.0/g16/l1.exe "/tmp/Gau-160260.inp" -scrdir="/tmp/"
 Entering Link 1 = /sw/apps/gaussian-16.0/g16/l1.exe PID=    160261.
  
 Copyright (c) 1988,1990,1992,1993,1995,1998,2003,2009,2016,
            Gaussian, Inc.  All Rights Reserved.
  
 This is part of the Gaussian(R) 16 program.  It is based on
 the Gaussian(R) 09 system (copyright 2009, Gaussian, Inc.),
 the Gaussian(R) 03 system (copyright 2003, Gaussian, Inc.),
 the Gaussian(R) 98 system (copyright 1998, Gaussian, Inc.),
 the Gaussian(R) 94 system (copyright 1995, Gaussian, Inc.),
 the Gaussian 92(TM) system (copyright 1992, Gaussian, Inc.),
 the Gaussian 90(TM) system (copyright 1990, Gaussian, Inc.),
 the Gaussian 88(TM) system (copyright 1988, Gaussian, Inc.),
 the Gaussian 86(TM) system (copyright 1986, Carnegie Mellon
 University), and the Gaussian 82(TM) system (copyright 1983,
 Carnegie Mellon University). Gaussian is a federally registered
 trademark of Gaussian, Inc.
  
 This software contains proprietary and confidential information,
 including trade secrets, belonging to Gaussian, Inc.
  
 This software is provided under written license and may be
 used, copied, transmitted, or stored only in accord with that
 written license.
  
 The following legend is applicable only to US Government
 contracts under FAR:
  
                    RESTRICTED RIGHTS LEGEND
  
 Use, reproduction and disclosure by the US Government is
 subject to restrictions as set forth in subparagraphs (a)
 and (c) of the Commercial Computer Software - Restricted
 Rights clause in FAR 52.227-19.
  
 Gaussian, Inc.
 340 Quinnipiac St., Bldg. 40, Wallingford CT 06492
  
  
 ---------------------------------------------------------------
 Warning -- This program may not be used in any manner that
 competes with the business of Gaussian, Inc. or will provide
 assistance to any competitor of Gaussian, Inc.  The licensee
 of this program is prohibited from giving any competitor of
 Gaussian, Inc. access to this program.  By using this program,
 the user acknowledges that Gaussian, Inc. is engaged in the
 business of creating and licensing software in the field of
 computational chemistry and represents and warrants to the
 licensee that it is not a competitor of Gaussian, Inc. and that
 it will not use this program in any manner prohibited above.
 ---------------------------------------------------------------
  

 Cite this work as:
 Gaussian 16, Revision A.03,
 M. J. Frisch, G. W. Trucks, H. B. Schlegel, G. E. Scuseria, 
 M. A. Robb, J. R. Cheeseman, G. Scalmani, V. Barone, 
 G. A. Petersson, H. Nakatsuji, X. Li, M. Caricato, A. V. Marenich, 
 J. Bloino, B. G. Janesko, R. Gomperts, B. Mennucci, H. P. Hratchian, 
 J. V. Ortiz, A. F. Izmaylov, J. L. Sonnenberg, D. Williams-Young, 
 F. Ding, F. Lipparini, F. Egidi, J. Goings, B. Peng, A. Petrone, 
 T. Henderson, D. Ranasinghe, V. G. Zakrzewski, J. Gao, N. Rega, 
 G. Zheng, W. Liang, M. Hada, M. Ehara, K. Toyota, R. Fukuda, 
 J. Hasegawa, M. Ishida, T. Nakajima, Y. Honda, O. Kitao, H. Nakai, 
 T. Vreven, K. Throssell, J. A. Montgomery, Jr., J. E. Peralta, 
 F. Ogliaro, M. J. Bearpark, J. J. Heyd, E. N. Brothers, K. N. Kudin, 
 V. N. Staroverov, T. A. Keith, R. Kobayashi, J. Normand, 
 K. Raghavachari, A. P. Rendell, J. C. Burant, S. S. Iyengar, 
 J. Tomasi, M. Cossi, J. M. Millam, M. Klene, C. Adamo, R. Cammi, 
 J. W. Ochterski, R. L. Martin, K. Morokuma, O. Farkas, 
 J. B. Foresman, and D. J. Fox, Gaussian, Inc., Wallingford CT, 2016.
 
 ******************************************
 Gaussian 16:  ES64L-G16RevA.03 25-Dec-2016
                 3-Sep-2021 
 ******************************************
 %nproc=24
 Will use up to   24 processors via shared memory.
 %mem=175gb
 -----------------------------------
 #p cam-b3lyp/Def2SVP td=(nstates=5)
 -----------------------------------
 1/38=1,172=1/1;
 2/12=2,17=6,18=5,40=1/2;
 3/5=43,7=101,11=9,25=1,30=1,74=-40/1,2,3,8;
 4//1;
 5/5=2,38=5/2;
 8/6=1,10=1,108=5/1;
 9/41=5,42=1,70=2/14;
 6/7=2,8=2,9=2,10=2/1;
 99/5=1,9=1/99;
 Leave Link    1 at Fri Sep  3 21:03:11 2021, MaxMem= 23488102400 cpu:               0.5 elap:               0.0
 (Enter /sw/apps/gaussian-16.0/g16/l101.exe)
 --------------------------------
 TDDFT excited states in gaussian
 --------------------------------
 Symbolic Z-matrix:
 Charge =  0 Multiplicity = 1
 Mg                    0.        0.        0. 
 C                    -0.217    -2.218     2.801 
 C                    -1.255     2.442     2.026 
 C                    -0.245     1.85     -2.564 
 C                     0.146    -2.824    -2.037 
 N                    -0.617    -0.009     2.126 
 C                    -0.594    -0.908     3.105 
 C                    -0.936    -0.309     4.502 
 C                    -1.773     0.964     4.032 
 C                    -1.155     1.168     2.66 
 C                    -3.263     0.685     3.863 
 C                     0.345     0.11      5.299 
 C                     0.124     0.397     6.787 
 H                     1.168     0.033     7.733 
 N                    -0.185     1.961    -0.152 
 C                    -0.703     2.8       0.777 
 C                    -0.62      4.156     0.193 
 C                    -0.187     4.015    -1.225 
 C                    -0.214     2.583    -1.38 
 C                    -0.887     5.406     0.974 
 C                     0.181     5.013    -2.277 
 O                     0.303     4.69     -3.508 
 C                     0.31      6.414    -1.837 
 N                    -0.265    -0.413    -2.029 
 C                    -0.279     0.569    -2.937 
 C                    -0.196     0.024    -4.332 
 C                     0.124    -1.533    -4.18 
 C                     0.086    -1.632    -2.635 
 C                    -1.451     0.205    -5.197 
 C                     1.373    -2.07     -4.923 
 C                     2.626    -1.49     -4.306 
 N                     0.15     -2.144     0.303 
 C                     0.173    -3.136    -0.688 
 C                     0.173    -4.438     0.004 
 C                     0.133    -4.111     1.358 
 C                     0.083    -2.695     1.502 
 C                     0.149    -5.715    -0.623 
 C                     0.096    -4.629     2.716 
 O                     0.208    -5.747     3.221 
 C                    -0.255    -3.428     3.701 
 C                     0.717    -3.482     4.848 
 O                     1.931    -3.255     4.669 
 O                     0.038    -3.556     6.003 
 C                     0.943    -3.583     7.183 
 H                    -1.859     3.22      2.497 
 H                    -0.218     2.453    -3.474 
 H                     0.276    -3.747    -2.605 
 H                    -1.554    -0.949     5.132 
 H                    -1.585     1.831     4.665 
 H                    -3.484    -0.377     3.969 
 H                    -3.511     1.027     2.858 
 H                    -3.852     1.301     4.543 
 H                     0.669     1.096     4.966 
 H                     1.13     -0.639     5.189 
 H                    -0.844     0.026     7.125 
 H                     0.062     1.477     6.921 
 H                    -1.344     5.186     1.938 
 H                    -1.651     5.963     0.432 
 H                     0.007     6.02      1.084 
 H                    -0.635     6.744    -1.405 
 H                     0.665     6.97     -2.704 
 H                     1.048     6.466    -1.036 
 H                     0.608     0.501    -4.891 
 H                    -0.692    -2.156    -4.547 
 H                    -1.267     0.74     -6.129 
 H                    -2.204     0.714    -4.596 
 H                    -1.967    -0.72     -5.453 
 H                     1.356    -1.759    -5.967 
 H                     1.452    -3.157    -4.902 
 H                     2.714    -0.522    -4.798 
 H                     3.487    -2.121    -4.529 
 H                     2.495    -1.303    -3.24 
 H                     0.867    -6.333    -0.084 
 H                     0.404    -5.642    -1.68 
 H                    -0.891    -5.999    -0.463 
 H                    -1.283    -3.581     4.028 
 H                     0.698    -4.478     7.755 
 H                     0.833    -2.619     7.68 
 H                     2.       -3.754     6.976 
 Mg                    8.94075   0.80607   0.68685 
 C                     8.90148  -2.40879   2.28128 
 C                     7.72007   2.0986    3.59785 
 C                     8.53797   3.56703  -0.82388 
 C                     9.05425  -0.86542  -2.36912 
 N                     8.41963  -0.13451   2.61972 
 C                     8.50467  -1.35404   3.1295 
 C                     8.22146  -1.43526   4.65356 
 C                     7.32588  -0.11065   4.80265 
 C                     7.87472   0.6895    3.62316 
 C                     5.84493  -0.35566   4.56581 
 C                     9.53228  -1.3419    5.51091 
 C                     9.36593  -1.72277   6.98367 
 H                     10.46611  -2.41119   7.65311 
 N                     8.70472   2.6408    1.4056 
 C                     8.21657   2.98399   2.61606 
 C                     8.22711   4.45463   2.65191 
 C                     8.60667   4.95403   1.30237 
 C                     8.61102   3.71321   0.55374 
 C                     7.9748    5.23983   3.90619 
 C                     8.90264   6.32354   0.77037 
 O                     8.97827   6.55526  -0.48797 
 C                     9.00877   7.40341   1.7624 
 N                     8.60067   1.28565  -1.30732 
 C                     8.51581   2.56715  -1.7054 
 C                     8.54575   2.67364  -3.21144 
 C                     8.91338   1.20917  -3.73846 
 C                     8.94614   0.45595  -2.3905 
 C                     7.24854   3.14091  -3.87121 
 C                     10.14085   1.08853  -4.68261 
 C                     11.40867   1.4099   -3.92448 
 N                     9.15874  -1.24475   0.04288 
 C                     9.1543   -1.72711  -1.28429 
 C                     9.21688  -3.20131  -1.21194 
 C                     9.23026  -3.47752   0.16357 
 C                     9.15921  -2.26226   0.89678 
 C                     9.205    -4.09002  -2.32377 
 C                     9.2776   -4.52133   1.16203 
 O                     9.43167  -5.74171   1.1363 
 C                     8.93924  -3.88237   2.57753 
 C                     9.96259  -4.3725    3.56497 
 O                     11.15766  -4.04805   3.45028 
 O                     9.33194  -4.96004   4.59814 
 C                     10.30456  -5.4528    5.60958 
 H                     7.12623   2.56952   4.38172 
 H                     8.50973   4.49733  -1.39591 
 H                     9.19204  -1.45464  -3.27825 
 H                     7.65437  -2.30445   4.96452 
 H                     7.53093   0.40142   5.73919 
 H                     5.65317  -1.36021   4.21905 
 H                     5.54309   0.36659   3.81861 
 H                     5.27399  -0.1137    5.46681 
 H                     9.81411  -0.28675   5.6204 
 H                     10.31676  -1.92762   5.07257 
 H                     8.41764  -2.2411    7.1708 
 H                     9.29091  -0.80564   7.57295 
 H                     7.56053   4.60679   4.70057 
 H                     7.17401   5.95267   3.68154 
 H                     8.85534   5.79175   4.24191 
 H                     8.07912   7.47208   2.3223 
 H                     9.31199   8.28843   1.19966 
 H                     9.79144   7.14089   2.4829 
 H                     9.31289   3.3664   -3.53497 
 H                     8.09309   0.76917  -4.32444 
 H                     7.37799   4.04372  -4.49751 
 H                     6.51561   3.31821  -3.09538 
 H                     6.75229   2.39707  -4.49221 
 H                     10.06944   1.81938  -5.49188 
 H                     10.23921   0.10983  -5.14029 
 H                     11.44508   2.50294  -3.95663 
 H                     12.27271   0.97146  -4.4197 
 H                     11.32395   1.1137   -2.87246 
 H                     9.95401  -4.8454   -2.12659 
 H                     9.405    -3.5643   -3.25511 
 H                     8.17564  -4.45458  -2.27108 
 H                     7.9293   -4.19531   2.84524 
 H                     10.10393  -6.51906   5.75282 
 H                     10.17996  -4.79413   6.48957 
 H                     11.35174  -5.47018   5.33107 
 
 ITRead=  0  0  0  0  0  0  0  0  0  0  0  0  0  0  0  0  0  0  0  0
 ITRead=  0  0  0  0  0  0  0  0  0  0  0  0  0  0  0  0  0  0  0  0
 ITRead=  0  0  0  0  0  0  0  0  0  0  0  0  0  0  0  0  0  0  0  0
 ITRead=  0  0  0  0  0  0  0  0  0  0  0  0  0  0  0  0  0  0  0  0
 ITRead=  0  0  0  0  0  0  0  0  0  0  0  0  0  0  0  0  0  0  0  0
 ITRead=  0  0  0  0  0  0  0  0  0  0  0  0  0  0  0  0  0  0  0  0
 ITRead=  0  0  0  0  0  0  0  0  0  0  0  0  0  0  0  0  0  0  0  0
 ITRead=  0  0  0  0  0  0  0  0  0  0  0  0  0  0  0  0  0  0
 MicOpt= -1 -1 -1 -1 -1 -1 -1 -1 -1 -1 -1 -1 -1 -1 -1 -1 -1 -1 -1 -1
 MicOpt= -1 -1 -1 -1 -1 -1 -1 -1 -1 -1 -1 -1 -1 -1 -1 -1 -1 -1 -1 -1
 MicOpt= -1 -1 -1 -1 -1 -1 -1 -1 -1 -1 -1 -1 -1 -1 -1 -1 -1 -1 -1 -1
 MicOpt= -1 -1 -1 -1 -1 -1 -1 -1 -1 -1 -1 -1 -1 -1 -1 -1 -1 -1 -1 -1
 MicOpt= -1 -1 -1 -1 -1 -1 -1 -1 -1 -1 -1 -1 -1 -1 -1 -1 -1 -1 -1 -1
 MicOpt= -1 -1 -1 -1 -1 -1 -1 -1 -1 -1 -1 -1 -1 -1 -1 -1 -1 -1 -1 -1
 MicOpt= -1 -1 -1 -1 -1 -1 -1 -1 -1 -1 -1 -1 -1 -1 -1 -1 -1 -1 -1 -1
 MicOpt= -1 -1 -1 -1 -1 -1 -1 -1 -1 -1 -1 -1 -1 -1 -1 -1 -1 -1
 NAtoms=    158 NQM=      158 NQMF=       0 NMMI=      0 NMMIF=      0
                NMic=       0 NMicF=      0.
                    Isotopes and Nuclear Properties:
 (Nuclear quadrupole moments (NQMom) in fm**2, nuclear magnetic moments (NMagM)
  in nuclear magnetons)

  Atom         1           2           3           4           5           6           7           8           9          10
 IAtWgt=          24          12          12          12          12          14          12          12          12          12
 AtmWgt=  23.9850450  12.0000000  12.0000000  12.0000000  12.0000000  14.0030740  12.0000000  12.0000000  12.0000000  12.0000000
 NucSpn=           0           0           0           0           0           2           0           0           0           0
 AtZEff=  -0.0000000  -0.0000000  -0.0000000  -0.0000000  -0.0000000  -0.0000000  -0.0000000  -0.0000000  -0.0000000  -0.0000000
 NQMom=    0.0000000   0.0000000   0.0000000   0.0000000   0.0000000   2.0440000   0.0000000   0.0000000   0.0000000   0.0000000
 NMagM=    0.0000000   0.0000000   0.0000000   0.0000000   0.0000000   0.4037610   0.0000000   0.0000000   0.0000000   0.0000000
 AtZNuc=  12.0000000   6.0000000   6.0000000   6.0000000   6.0000000   7.0000000   6.0000000   6.0000000   6.0000000   6.0000000

  Atom        11          12          13          14          15          16          17          18          19          20
 IAtWgt=          12          12          12           1          14          12          12          12          12          12
 AtmWgt=  12.0000000  12.0000000  12.0000000   1.0078250  14.0030740  12.0000000  12.0000000  12.0000000  12.0000000  12.0000000
 NucSpn=           0           0           0           1           2           0           0           0           0           0
 AtZEff=  -0.0000000  -0.0000000  -0.0000000  -0.0000000  -0.0000000  -0.0000000  -0.0000000  -0.0000000  -0.0000000  -0.0000000
 NQMom=    0.0000000   0.0000000   0.0000000   0.0000000   2.0440000   0.0000000   0.0000000   0.0000000   0.0000000   0.0000000
 NMagM=    0.0000000   0.0000000   0.0000000   2.7928460   0.4037610   0.0000000   0.0000000   0.0000000   0.0000000   0.0000000
 AtZNuc=   6.0000000   6.0000000   6.0000000   1.0000000   7.0000000   6.0000000   6.0000000   6.0000000   6.0000000   6.0000000

  Atom        21          22          23          24          25          26          27          28          29          30
 IAtWgt=          12          16          12          14          12          12          12          12          12          12
 AtmWgt=  12.0000000  15.9949146  12.0000000  14.0030740  12.0000000  12.0000000  12.0000000  12.0000000  12.0000000  12.0000000
 NucSpn=           0           0           0           2           0           0           0           0           0           0
 AtZEff=  -0.0000000  -0.0000000  -0.0000000  -0.0000000  -0.0000000  -0.0000000  -0.0000000  -0.0000000  -0.0000000  -0.0000000
 NQMom=    0.0000000   0.0000000   0.0000000   2.0440000   0.0000000   0.0000000   0.0000000   0.0000000   0.0000000   0.0000000
 NMagM=    0.0000000   0.0000000   0.0000000   0.4037610   0.0000000   0.0000000   0.0000000   0.0000000   0.0000000   0.0000000
 AtZNuc=   6.0000000   8.0000000   6.0000000   7.0000000   6.0000000   6.0000000   6.0000000   6.0000000   6.0000000   6.0000000

  Atom        31          32          33          34          35          36          37          38          39          40
 IAtWgt=          12          14          12          12          12          12          12          12          16          12
 AtmWgt=  12.0000000  14.0030740  12.0000000  12.0000000  12.0000000  12.0000000  12.0000000  12.0000000  15.9949146  12.0000000
 NucSpn=           0           2           0           0           0           0           0           0           0           0
 AtZEff=  -0.0000000  -0.0000000  -0.0000000  -0.0000000  -0.0000000  -0.0000000  -0.0000000  -0.0000000  -0.0000000  -0.0000000
 NQMom=    0.0000000   2.0440000   0.0000000   0.0000000   0.0000000   0.0000000   0.0000000   0.0000000   0.0000000   0.0000000
 NMagM=    0.0000000   0.4037610   0.0000000   0.0000000   0.0000000   0.0000000   0.0000000   0.0000000   0.0000000   0.0000000
 AtZNuc=   6.0000000   7.0000000   6.0000000   6.0000000   6.0000000   6.0000000   6.0000000   6.0000000   8.0000000   6.0000000

  Atom        41          42          43          44          45          46          47          48          49          50
 IAtWgt=          12          16          16          12           1           1           1           1           1           1
 AtmWgt=  12.0000000  15.9949146  15.9949146  12.0000000   1.0078250   1.0078250   1.0078250   1.0078250   1.0078250   1.0078250
 NucSpn=           0           0           0           0           1           1           1           1           1           1
 AtZEff=  -0.0000000  -0.0000000  -0.0000000  -0.0000000  -0.0000000  -0.0000000  -0.0000000  -0.0000000  -0.0000000  -0.0000000
 NQMom=    0.0000000   0.0000000   0.0000000   0.0000000   0.0000000   0.0000000   0.0000000   0.0000000   0.0000000   0.0000000
 NMagM=    0.0000000   0.0000000   0.0000000   0.0000000   2.7928460   2.7928460   2.7928460   2.7928460   2.7928460   2.7928460
 AtZNuc=   6.0000000   8.0000000   8.0000000   6.0000000   1.0000000   1.0000000   1.0000000   1.0000000   1.0000000   1.0000000

  Atom        51          52          53          54          55          56          57          58          59          60
 IAtWgt=           1           1           1           1           1           1           1           1           1           1
 AtmWgt=   1.0078250   1.0078250   1.0078250   1.0078250   1.0078250   1.0078250   1.0078250   1.0078250   1.0078250   1.0078250
 NucSpn=           1           1           1           1           1           1           1           1           1           1
 AtZEff=  -0.0000000  -0.0000000  -0.0000000  -0.0000000  -0.0000000  -0.0000000  -0.0000000  -0.0000000  -0.0000000  -0.0000000
 NQMom=    0.0000000   0.0000000   0.0000000   0.0000000   0.0000000   0.0000000   0.0000000   0.0000000   0.0000000   0.0000000
 NMagM=    2.7928460   2.7928460   2.7928460   2.7928460   2.7928460   2.7928460   2.7928460   2.7928460   2.7928460   2.7928460
 AtZNuc=   1.0000000   1.0000000   1.0000000   1.0000000   1.0000000   1.0000000   1.0000000   1.0000000   1.0000000   1.0000000

  Atom        61          62          63          64          65          66          67          68          69          70
 IAtWgt=           1           1           1           1           1           1           1           1           1           1
 AtmWgt=   1.0078250   1.0078250   1.0078250   1.0078250   1.0078250   1.0078250   1.0078250   1.0078250   1.0078250   1.0078250
 NucSpn=           1           1           1           1           1           1           1           1           1           1
 AtZEff=  -0.0000000  -0.0000000  -0.0000000  -0.0000000  -0.0000000  -0.0000000  -0.0000000  -0.0000000  -0.0000000  -0.0000000
 NQMom=    0.0000000   0.0000000   0.0000000   0.0000000   0.0000000   0.0000000   0.0000000   0.0000000   0.0000000   0.0000000
 NMagM=    2.7928460   2.7928460   2.7928460   2.7928460   2.7928460   2.7928460   2.7928460   2.7928460   2.7928460   2.7928460
 AtZNuc=   1.0000000   1.0000000   1.0000000   1.0000000   1.0000000   1.0000000   1.0000000   1.0000000   1.0000000   1.0000000

  Atom        71          72          73          74          75          76          77          78          79          80
 IAtWgt=           1           1           1           1           1           1           1           1           1          24
 AtmWgt=   1.0078250   1.0078250   1.0078250   1.0078250   1.0078250   1.0078250   1.0078250   1.0078250   1.0078250  23.9850450
 NucSpn=           1           1           1           1           1           1           1           1           1           0
 AtZEff=  -0.0000000  -0.0000000  -0.0000000  -0.0000000  -0.0000000  -0.0000000  -0.0000000  -0.0000000  -0.0000000  -0.0000000
 NQMom=    0.0000000   0.0000000   0.0000000   0.0000000   0.0000000   0.0000000   0.0000000   0.0000000   0.0000000   0.0000000
 NMagM=    2.7928460   2.7928460   2.7928460   2.7928460   2.7928460   2.7928460   2.7928460   2.7928460   2.7928460   0.0000000
 AtZNuc=   1.0000000   1.0000000   1.0000000   1.0000000   1.0000000   1.0000000   1.0000000   1.0000000   1.0000000  12.0000000

  Atom        81          82          83          84          85          86          87          88          89          90
 IAtWgt=          12          12          12          12          14          12          12          12          12          12
 AtmWgt=  12.0000000  12.0000000  12.0000000  12.0000000  14.0030740  12.0000000  12.0000000  12.0000000  12.0000000  12.0000000
 NucSpn=           0           0           0           0           2           0           0           0           0           0
 AtZEff=  -0.0000000  -0.0000000  -0.0000000  -0.0000000  -0.0000000  -0.0000000  -0.0000000  -0.0000000  -0.0000000  -0.0000000
 NQMom=    0.0000000   0.0000000   0.0000000   0.0000000   2.0440000   0.0000000   0.0000000   0.0000000   0.0000000   0.0000000
 NMagM=    0.0000000   0.0000000   0.0000000   0.0000000   0.4037610   0.0000000   0.0000000   0.0000000   0.0000000   0.0000000
 AtZNuc=   6.0000000   6.0000000   6.0000000   6.0000000   7.0000000   6.0000000   6.0000000   6.0000000   6.0000000   6.0000000

  Atom        91          92          93          94          95          96          97          98          99         100
 IAtWgt=          12          12           1          14          12          12          12          12          12          12
 AtmWgt=  12.0000000  12.0000000   1.0078250  14.0030740  12.0000000  12.0000000  12.0000000  12.0000000  12.0000000  12.0000000
 NucSpn=           0           0           1           2           0           0           0           0           0           0
 AtZEff=  -0.0000000  -0.0000000  -0.0000000  -0.0000000  -0.0000000  -0.0000000  -0.0000000  -0.0000000  -0.0000000  -0.0000000
 NQMom=    0.0000000   0.0000000   0.0000000   2.0440000   0.0000000   0.0000000   0.0000000   0.0000000   0.0000000   0.0000000
 NMagM=    0.0000000   0.0000000   2.7928460   0.4037610   0.0000000   0.0000000   0.0000000   0.0000000   0.0000000   0.0000000
 AtZNuc=   6.0000000   6.0000000   1.0000000   7.0000000   6.0000000   6.0000000   6.0000000   6.0000000   6.0000000   6.0000000

  Atom       101         102         103         104         105         106         107         108         109         110
 IAtWgt=          16          12          14          12          12          12          12          12          12          12
 AtmWgt=  15.9949146  12.0000000  14.0030740  12.0000000  12.0000000  12.0000000  12.0000000  12.0000000  12.0000000  12.0000000
 NucSpn=           0           0           2           0           0           0           0           0           0           0
 AtZEff=  -0.0000000  -0.0000000  -0.0000000  -0.0000000  -0.0000000  -0.0000000  -0.0000000  -0.0000000  -0.0000000  -0.0000000
 NQMom=    0.0000000   0.0000000   2.0440000   0.0000000   0.0000000   0.0000000   0.0000000   0.0000000   0.0000000   0.0000000
 NMagM=    0.0000000   0.0000000   0.4037610   0.0000000   0.0000000   0.0000000   0.0000000   0.0000000   0.0000000   0.0000000
 AtZNuc=   8.0000000   6.0000000   7.0000000   6.0000000   6.0000000   6.0000000   6.0000000   6.0000000   6.0000000   6.0000000

  Atom       111         112         113         114         115         116         117         118         119         120
 IAtWgt=          14          12          12          12          12          12          12          16          12          12
 AtmWgt=  14.0030740  12.0000000  12.0000000  12.0000000  12.0000000  12.0000000  12.0000000  15.9949146  12.0000000  12.0000000
 NucSpn=           2           0           0           0           0           0           0           0           0           0
 AtZEff=  -0.0000000  -0.0000000  -0.0000000  -0.0000000  -0.0000000  -0.0000000  -0.0000000  -0.0000000  -0.0000000  -0.0000000
 NQMom=    2.0440000   0.0000000   0.0000000   0.0000000   0.0000000   0.0000000   0.0000000   0.0000000   0.0000000   0.0000000
 NMagM=    0.4037610   0.0000000   0.0000000   0.0000000   0.0000000   0.0000000   0.0000000   0.0000000   0.0000000   0.0000000
 AtZNuc=   7.0000000   6.0000000   6.0000000   6.0000000   6.0000000   6.0000000   6.0000000   8.0000000   6.0000000   6.0000000

  Atom       121         122         123         124         125         126         127         128         129         130
 IAtWgt=          16          16          12           1           1           1           1           1           1           1
 AtmWgt=  15.9949146  15.9949146  12.0000000   1.0078250   1.0078250   1.0078250   1.0078250   1.0078250   1.0078250   1.0078250
 NucSpn=           0           0           0           1           1           1           1           1           1           1
 AtZEff=  -0.0000000  -0.0000000  -0.0000000  -0.0000000  -0.0000000  -0.0000000  -0.0000000  -0.0000000  -0.0000000  -0.0000000
 NQMom=    0.0000000   0.0000000   0.0000000   0.0000000   0.0000000   0.0000000   0.0000000   0.0000000   0.0000000   0.0000000
 NMagM=    0.0000000   0.0000000   0.0000000   2.7928460   2.7928460   2.7928460   2.7928460   2.7928460   2.7928460   2.7928460
 AtZNuc=   8.0000000   8.0000000   6.0000000   1.0000000   1.0000000   1.0000000   1.0000000   1.0000000   1.0000000   1.0000000

  Atom       131         132         133         134         135         136         137         138         139         140
 IAtWgt=           1           1           1           1           1           1           1           1           1           1
 AtmWgt=   1.0078250   1.0078250   1.0078250   1.0078250   1.0078250   1.0078250   1.0078250   1.0078250   1.0078250   1.0078250
 NucSpn=           1           1           1           1           1           1           1           1           1           1
 AtZEff=  -0.0000000  -0.0000000  -0.0000000  -0.0000000  -0.0000000  -0.0000000  -0.0000000  -0.0000000  -0.0000000  -0.0000000
 NQMom=    0.0000000   0.0000000   0.0000000   0.0000000   0.0000000   0.0000000   0.0000000   0.0000000   0.0000000   0.0000000
 NMagM=    2.7928460   2.7928460   2.7928460   2.7928460   2.7928460   2.7928460   2.7928460   2.7928460   2.7928460   2.7928460
 AtZNuc=   1.0000000   1.0000000   1.0000000   1.0000000   1.0000000   1.0000000   1.0000000   1.0000000   1.0000000   1.0000000

  Atom       141         142         143         144         145         146         147         148         149         150
 IAtWgt=           1           1           1           1           1           1           1           1           1           1
 AtmWgt=   1.0078250   1.0078250   1.0078250   1.0078250   1.0078250   1.0078250   1.0078250   1.0078250   1.0078250   1.0078250
 NucSpn=           1           1           1           1           1           1           1           1           1           1
 AtZEff=  -0.0000000  -0.0000000  -0.0000000  -0.0000000  -0.0000000  -0.0000000  -0.0000000  -0.0000000  -0.0000000  -0.0000000
 NQMom=    0.0000000   0.0000000   0.0000000   0.0000000   0.0000000   0.0000000   0.0000000   0.0000000   0.0000000   0.0000000
 NMagM=    2.7928460   2.7928460   2.7928460   2.7928460   2.7928460   2.7928460   2.7928460   2.7928460   2.7928460   2.7928460
 AtZNuc=   1.0000000   1.0000000   1.0000000   1.0000000   1.0000000   1.0000000   1.0000000   1.0000000   1.0000000   1.0000000

  Atom       151         152         153         154         155         156         157         158
 IAtWgt=           1           1           1           1           1           1           1           1
 AtmWgt=   1.0078250   1.0078250   1.0078250   1.0078250   1.0078250   1.0078250   1.0078250   1.0078250
 NucSpn=           1           1           1           1           1           1           1           1
 AtZEff=  -0.0000000  -0.0000000  -0.0000000  -0.0000000  -0.0000000  -0.0000000  -0.0000000  -0.0000000
 NQMom=    0.0000000   0.0000000   0.0000000   0.0000000   0.0000000   0.0000000   0.0000000   0.0000000
 NMagM=    2.7928460   2.7928460   2.7928460   2.7928460   2.7928460   2.7928460   2.7928460   2.7928460
 AtZNuc=   1.0000000   1.0000000   1.0000000   1.0000000   1.0000000   1.0000000   1.0000000   1.0000000
 Leave Link  101 at Fri Sep  3 21:03:11 2021, MaxMem= 23488102400 cpu:               3.3 elap:               0.2
 (Enter /sw/apps/gaussian-16.0/g16/l202.exe)
 Stoichiometry    C68H72Mg2N8O8
 Framework group  C1[X(C68H72Mg2N8O8)]
 Deg. of freedom   468
 Full point group                 C1      NOp   1
 Largest Abelian subgroup         C1      NOp   1
 Largest concise Abelian subgroup C1      NOp   1
                         Standard orientation:                         
 ---------------------------------------------------------------------
 Center     Atomic      Atomic             Coordinates (Angstroms)
 Number     Number       Type             X           Y           Z
 ---------------------------------------------------------------------
      1         12           0       -4.428434   -0.547209    0.423193
      2          6           0       -4.502349    2.990281   -0.118024
      3          6           0       -5.579983   -0.909502   -2.768318
      4          6           0       -4.803777   -3.638042    1.025260
      5          6           0       -4.384879    0.125605    3.842416
      6          7           0       -4.936852    0.928917   -1.146269
      7          6           0       -4.863923    2.252408   -1.247382
      8          6           0       -5.134873    2.777761   -2.688897
      9          6           0       -5.995083    1.555791   -3.244620
     10          6           0       -5.447510    0.450578   -2.358849
     11          6           0       -7.491634    1.696641   -2.985782
     12          6           0       -3.815264    2.969543   -3.509618
     13          6           0       -3.960643    3.780842   -4.800359
     14          1           0       -2.869894    4.655014   -5.204634
     15          7           0       -4.621608   -2.078467   -0.810007
     16          6           0       -5.092145   -2.041267   -2.079848
     17          6           0       -5.039348   -3.433638   -2.575022
     18          6           0       -4.678745   -4.311422   -1.427175
     19          6           0       -4.713053   -3.368763   -0.338325
     20          6           0       -5.266858   -3.806572   -4.007820
     21          6           0       -4.364913   -5.770660   -1.325857
     22          8           0       -4.305364   -6.377136   -0.201929
     23          6           0       -4.214275   -6.500084   -2.597978
     24          7           0       -4.795813   -1.617908    2.177123
     25          6           0       -4.856183   -2.954056    2.170101
     26          6           0       -4.843818   -3.508516    3.563787
     27          6           0       -4.515963   -2.277425    4.526430
     28          6           0       -4.475549   -1.151378    3.464049
     29          6           0       -6.141124   -4.186329    4.025933
     30          6           0       -3.306045   -2.434273    5.481373
     31          6           0       -2.023584   -2.481863    4.681294
     32          7           0       -4.262494    1.221954    1.669617
     33          6           0       -4.289409    1.271667    3.070858
     34          6           0       -4.253856    2.695214    3.453376
     35          6           0       -4.225276    3.379684    2.239898
     36          6           0       -4.268421    2.443916    1.167159
     37          6           0       -4.309154    3.202924    4.781385
     38          6           0       -4.193193    4.684763    1.599902
     39          8           0       -4.055332    5.842471    1.997645
     40          6           0       -4.494236    4.489539    0.048423
     41          6           0       -3.465315    5.276405   -0.716739
     42          8           0       -2.262033    4.946174   -0.696093
     43          8           0       -4.084858    6.140867   -1.534917
     44          6           0       -3.121187    6.932797   -2.345065
     45          1           0       -6.159607   -1.136644   -3.665192
     46          1           0       -4.823165   -4.699799    1.279689
     47          1           0       -4.283511    0.409238    4.891573
     48          1           0       -5.719907    3.696456   -2.735343
     49          1           0       -5.775544    1.346307   -4.291349
     50          1           0       -7.706594    2.553231   -2.347058
     51          1           0       -7.790391    0.770641   -2.494089
     52          1           0       -8.045623    1.729808   -3.924277
     53          1           0       -3.508918    2.010335   -3.926910
     54          1           0       -3.036581    3.415052   -2.889537
     55          1           0       -4.910128    4.316114   -4.829873
     56          1           0       -4.016159    3.084415   -5.637084
     57          1           0       -5.674318   -2.973160   -4.578738
     58          1           0       -6.057555   -4.556479   -4.019949
     59          1           0       -4.368652   -4.211844   -4.473988
     60          1           0       -5.136277   -6.414264   -3.173389
     61          1           0       -3.903888   -7.509607   -2.330822
     62          1           0       -3.436633   -6.018254   -3.191326
     63          1           0       -4.069365   -4.266122    3.676391
     64          1           0       -5.349296   -2.043334    5.189327
     65          1           0       -6.004804   -5.218808    4.348590
     66          1           0       -6.862869   -4.123002    3.212074
     67          1           0       -6.669106   -3.666219    4.824768
     68          1           0       -3.376065   -3.372213    6.031203
     69          1           0       -3.225691   -1.627746    6.210282
     70          1           0       -1.960990   -3.527982    4.383723
     71          1           0       -1.174770   -2.202267    5.306236
     72          1           0       -2.100438   -1.887994    3.770306
     73          1           0       -3.564528    3.997002    4.835613
     74          1           0       -4.108097    2.420714    5.513045
     75          1           0       -5.339602    3.555838    4.819900
     76          1           0       -5.504280    4.859975   -0.123943
     77          1           0       -3.336550    7.985487   -2.161496
     78          1           0       -3.206195    6.570123   -3.369587
     79          1           0       -2.075980    6.880042   -2.038312
     80         12           0        4.535350   -0.980397   -0.298921
     81          6           0        4.578123    2.458142    0.727575
     82          6           0        3.463359    0.099562   -3.351647
     83          6           0        4.055502   -4.014567   -1.093274
     84          6           0        4.494371   -1.843372    3.077365
     85          7           0        4.113233    1.042154   -1.088445
     86          6           0        4.224448    2.278311   -0.625942
     87          6           0        4.018899    3.385635   -1.694186
     88          6           0        3.131553    2.549633   -2.739461
     89          6           0        3.619600    1.141956   -2.403427
     90          6           0        1.640588    2.619101   -2.453918
     91          6           0        5.371467    3.855641   -2.335802
     92          6           0        5.280135    5.143101   -3.157909
     93          1           0        6.413088    6.064211   -3.136853
     94          7           0        4.335403   -1.824451   -2.083897
     95          6           0        3.909126   -1.233975   -3.220079
     96          6           0        3.920941   -2.285475   -4.248859
     97          6           0        4.231413   -3.583124   -3.589739
     98          6           0        4.198249   -3.185705   -2.196520
     99          6           0        3.732263   -1.996632   -5.709813
    100          6           0        4.499537   -4.957377   -4.124265
    101          8           0        4.511190   -5.986552   -3.360396
    102          6           0        4.655437   -5.075151   -5.581430
    103          7           0        4.094432   -2.677545    0.818060
    104          6           0        3.989038   -3.882949    0.231712
    105          6           0        3.942547   -4.987658    1.260231
    106          6           0        4.283512   -4.288388    2.657492
    107          6           0        4.384841   -2.820550    2.187820
    108          6           0        2.613387   -5.733579    1.375680
    109          6           0        5.461579   -4.885996    3.474608
    110          6           0        6.766089   -4.648828    2.748377
    111          7           0        4.721149    0.073256    1.578144
    112          6           0        4.649602   -0.477770    2.876344
    113          6           0        4.716301    0.647483    3.831213
    114          6           0        4.799500    1.785901    3.015382
    115          6           0        4.765276    1.398997    1.648401
    116          6           0        4.648387    0.540571    5.248983
    117          6           0        4.897775    3.227705    2.999712
    118          8           0        5.050782    4.097335    3.856484
    119          6           0        4.631385    3.736307    1.517565
    120          6           0        5.703657    4.731668    1.168283
    121          8           0        6.891259    4.374629    1.074797
    122          8           0        5.126410    5.887042    0.791110
    123          6           0        6.149236    6.902441    0.424222
    124          1           0        2.909854    0.309749   -4.267244
    125          1           0        3.997962   -5.083574   -1.310959
    126          1           0        4.586104   -2.036468    4.148338
    127          1           0        3.468617    4.252872   -1.349415
    128          1           0        3.383637    2.805877   -3.765210
    129          1           0        1.431856    3.124276   -1.522594
    130          1           0        1.300994    1.592473   -2.411843
    131          1           0        1.115975    3.075719   -3.298075
    132          1           0        5.658105    3.148714   -3.125011
    133          1           0        6.132925    3.958116   -1.587271
    134          1           0        4.342738    5.682676   -2.976018
    135          1           0        5.234757    4.876340   -4.216580
    136          1           0        3.359028   -0.978164   -5.873568
    137          1           0        2.920857   -2.643080   -6.061380
    138          1           0        4.628493   -2.202293   -6.299008
    139          1           0        3.755344   -4.711628   -6.071468
    140          1           0        4.929418   -6.116263   -5.762812
    141          1           0        5.473723   -4.419683   -5.899830
    142          1           0        4.692048   -5.741394    1.052336
    143          1           0        3.434726   -4.337135    3.355372
    144          1           0        2.710593   -6.824939    1.222191
    145          1           0        1.920670   -5.309284    0.661082
    146          1           0        2.086559   -5.595255    2.318294
    147          1           0        5.348969   -5.969219    3.564643
    148          1           0        5.536961   -4.485384    4.480007
    149          1           0        6.800429   -5.471387    2.027743
    150          1           0        7.604069   -4.695579    3.440939
    151          1           0        6.734921   -3.712706    2.178849
    152          1           0        5.406703    1.201224    5.647719
    153          1           0        4.800723   -0.485229    5.578076
    154          1           0        3.623154    0.878942    5.421213
    155          1           0        3.636429    4.182702    1.498251
    156          1           0        5.956509    7.786801    1.039400
    157          1           0        6.069173    7.024438   -0.672345
    158          1           0        7.180955    6.688971    0.678076
 ---------------------------------------------------------------------
 Rotational constants (GHZ):           0.0203243           0.0148153           0.0124499
 Leave Link  202 at Fri Sep  3 21:03:11 2021, MaxMem= 23488102400 cpu:               0.2 elap:               0.0
 (Enter /sw/apps/gaussian-16.0/g16/l301.exe)
 Standard basis: def2SVP (5D, 7F)
 Ernie: Thresh=  0.10000D-02 Tol=  0.10000D-05 Strict=F.
 There are  1658 symmetry adapted cartesian basis functions of A   symmetry.
 There are  1572 symmetry adapted basis functions of A   symmetry.
  1572 basis functions,  2678 primitive gaussians,  1658 cartesian basis functions
   312 alpha electrons      312 beta electrons
       nuclear repulsion energy     15508.6919540886 Hartrees.
 IExCor=20419 DFT=T Ex+Corr=CAM-B3LYP ExCW=0 ScaHFX=  1.000000
 ScaDFX=  1.000000  1.000000  1.000000  0.810000 ScalE2=  1.000000  1.000000
 IRadAn=      5 IRanWt=     -1 IRanGd=            0 ICorTp=0 IEmpDi=  4
 HFx  wShort=  0.000000 wLong=  0.330000 cFull=  0.190000 cShort=  0.000000 cLong=  0.460000
 DFx  wShort=  0.000000 wLong=  0.330000 cFull=  0.190000 cShort=  0.000000 cLong=  0.460000
 NAtoms=  158 NActive=  158 NUniq=  158 SFac= 1.00D+00 NAtFMM=   60 NAOKFM=T Big=T
 Integral buffers will be    131072 words long.
 Raffenetti 1 integral format.
 Two-electron integral symmetry is turned on.
 Leave Link  301 at Fri Sep  3 21:03:11 2021, MaxMem= 23488102400 cpu:               1.3 elap:               0.1
 (Enter /sw/apps/gaussian-16.0/g16/l302.exe)
 NPDir=0 NMtPBC=     1 NCelOv=     1 NCel=       1 NClECP=     1 NCelD=      1
         NCelK=      1 NCelE2=     1 NClLst=     1 CellRange=     0.0.
 One-electron integrals computed using PRISM.
 One-electron integral symmetry used in STVInt
   1 Symmetry operations used in ECPInt.
 ECPInt:  NShTT=  271216 NPrTT=  987664 LenC2=  154217 LenP2D=  321597.
 LDataN:  DoStor=T MaxTD1= 4 Len=   56
 NBasis=  1572 RedAO= T EigKep=  3.36D-04  NBF=  1572
 NBsUse=  1572 1.00D-06 EigRej= -1.00D+00 NBFU=  1572
 Precomputing XC quadrature grid using
 IXCGrd= 4 IRadAn=           5 IRanWt=          -1 IRanGd=           0 AccXCQ= 0.00D+00.
 Generated NRdTot=       0 NPtTot=           0 NUsed=           0 NTot=          32
 NSgBfM=  1176  1162  1172  1175  1176 MxSgAt=   158 MxSgA2=   158.
 Leave Link  302 at Fri Sep  3 21:03:16 2021, MaxMem= 23488102400 cpu:             131.0 elap:               5.5
 (Enter /sw/apps/gaussian-16.0/g16/l303.exe)
 DipDrv:  MaxL=1.
 Leave Link  303 at Fri Sep  3 21:03:17 2021, MaxMem= 23488102400 cpu:               8.7 elap:               0.4
 (Enter /sw/apps/gaussian-16.0/g16/l308.exe)
 Leave Link  308 at Fri Sep  3 21:03:17 2021, MaxMem= 23488102400 cpu:              13.8 elap:               0.7
 (Enter /sw/apps/gaussian-16.0/g16/l401.exe)
 ExpMin= 3.36D-02 ExpMax= 4.95D+03 ExpMxC= 7.45D+02 IAcc=3 IRadAn=         5 AccDes= 0.00D+00
 Harris functional with IExCor=20419 and IRadAn=       5 diagonalized for initial guess.
 HarFok:  IExCor=20419 AccDes= 0.00D+00 IRadAn=         5 IDoV= 1 UseB2=F ITyADJ=14
 ICtDFT=  3500011 ScaDFX=  1.000000  1.000000  1.000000  1.000000
 FoFCou: FMM=F IPFlag=           0 FMFlag=      100000 FMFlg1=        2001
         NFxFlg=           0 DoJE=T BraDBF=F KetDBF=T FulRan=T
         wScrn=  0.000000 ICntrl=       500 IOpCl=  0 I1Cent=   200000004 NGrid=           0
         NMat0=    1 NMatS0=      1 NMatT0=    0 NMatD0=    1 NMtDS0=    0 NMtDT0=    0
 Petite list used in FoFCou.
 Harris En= -3918.65814188508    
 JPrj=0 DoOrth=F DoCkMO=F.
 Leave Link  401 at Fri Sep  3 21:03:25 2021, MaxMem= 23488102400 cpu:             191.2 elap:               8.0
 (Enter /sw/apps/gaussian-16.0/g16/l502.exe)
 Integral symmetry usage will be decided dynamically.
 Closed shell SCF:
 Using DIIS extrapolation, IDIIS=  1040.
 NGot= 23488102400 LenX= 23482547354 LenY= 23479796732
 Requested convergence on RMS density matrix=1.00D-08 within 128 cycles.
 Requested convergence on MAX density matrix=1.00D-06.
 Requested convergence on             energy=1.00D-06.
 No special actions if energy rises.
 Fock matrices will be formed incrementally for  20 cycles.

 Cycle   1  Pass 1  IDiag  1:
 FoFJK:  IHMeth= 1 ICntrl=       0 DoSepK=T KAlg= 0 I1Cent=           0 FoldK=F
 IRaf=         1 NMat=       1 IRICut=       1 DoRegI=T DoRafI=F ISym2E= 0 IDoP0=0 IntGTp=1.
 FoFCou: FMM=T IPFlag=           0 FMFlag=      100000 FMFlg1=        2001
         NFxFlg=           0 DoJE=T BraDBF=F KetDBF=F FulRan=T
         wScrn=  0.000000 ICntrl=       500 IOpCl=  0 I1Cent=           0 NGrid=           0
         NMat0=    1 NMatS0=      1 NMatT0=    0 NMatD0=    1 NMtDS0=    0 NMtDT0=    0
 Symmetry not used in FoFCou.
 FMM levels:  10  Number of levels for PrismC:   9
 E= -4068.94909236386    
 DIIS: error= 2.04D-02 at cycle   1 NSaved=   1.
 NSaved= 1 IEnMin= 1 EnMin= -4068.94909236386     IErMin= 1 ErrMin= 2.04D-02
 ErrMax= 2.04D-02  0.00D+00 EMaxC= 1.00D-01 BMatC= 1.69D+00 BMatP= 1.69D+00
 IDIUse=3 WtCom= 7.96D-01 WtEn= 2.04D-01
 Coeff-Com:  0.100D+01
 Coeff-En:   0.100D+01
 Coeff:      0.100D+01
 Gap=     0.120 Goal=   None    Shift=    0.000
 GapD=    0.120 DampG=1.000 DampE=0.500 DampFc=0.5000 IDamp=-1.
 Damping current iteration by 5.00D-01
 RMSDP=1.57D-03 MaxDP=1.36D-01              OVMax= 2.07D-01

 Cycle   2  Pass 1  IDiag  1:
 RMSU=  7.71D-04    CP:  9.82D-01
 E= -4069.33773548447     Delta-E=       -0.388643120608 Rises=F Damp=T
 DIIS: error= 1.27D-02 at cycle   2 NSaved=   2.
 NSaved= 2 IEnMin= 2 EnMin= -4069.33773548447     IErMin= 2 ErrMin= 1.27D-02
 ErrMax= 1.27D-02  0.00D+00 EMaxC= 1.00D-01 BMatC= 3.07D-01 BMatP= 1.69D+00
 IDIUse=3 WtCom= 8.73D-01 WtEn= 1.27D-01
 Coeff-Com: -0.213D+00 0.121D+01
 Coeff-En:   0.000D+00 0.100D+01
 Coeff:     -0.186D+00 0.119D+01
 Gap=     0.134 Goal=   None    Shift=    0.000
 RMSDP=7.69D-04 MaxDP=9.47D-02 DE=-3.89D-01 OVMax= 1.93D-01

 Cycle   3  Pass 1  IDiag  1:
 RMSU=  7.37D-04    CP:  9.68D-01  1.23D+00
 E= -4069.62481920524     Delta-E=       -0.287083720770 Rises=F Damp=F
 DIIS: error= 1.54D-02 at cycle   3 NSaved=   3.
 NSaved= 3 IEnMin= 3 EnMin= -4069.62481920524     IErMin= 2 ErrMin= 1.27D-02
 ErrMax= 1.54D-02  0.00D+00 EMaxC= 1.00D-01 BMatC= 2.03D-01 BMatP= 3.07D-01
 IDIUse=3 WtCom= 8.46D-01 WtEn= 1.54D-01
 Coeff-Com: -0.267D+00 0.653D+00 0.615D+00
 Coeff-En:   0.000D+00 0.000D+00 0.100D+01
 Coeff:     -0.226D+00 0.552D+00 0.674D+00
 Gap=     0.120 Goal=   None    Shift=    0.000
 RMSDP=5.18D-04 MaxDP=4.76D-02 DE=-2.87D-01 OVMax= 1.51D-01

 Cycle   4  Pass 1  IDiag  1:
 RMSU=  2.70D-04    CP:  9.65D-01  1.55D+00  4.99D-01
 E= -4069.76350199576     Delta-E=       -0.138682790519 Rises=F Damp=F
 DIIS: error= 6.88D-03 at cycle   4 NSaved=   4.
 NSaved= 4 IEnMin= 4 EnMin= -4069.76350199576     IErMin= 4 ErrMin= 6.88D-03
 ErrMax= 6.88D-03  0.00D+00 EMaxC= 1.00D-01 BMatC= 5.06D-02 BMatP= 2.03D-01
 IDIUse=3 WtCom= 9.31D-01 WtEn= 6.88D-02
 Coeff-Com: -0.110D+00 0.229D+00 0.409D+00 0.472D+00
 Coeff-En:   0.000D+00 0.000D+00 0.225D+00 0.775D+00
 Coeff:     -0.103D+00 0.213D+00 0.396D+00 0.493D+00
 Gap=     0.120 Goal=   None    Shift=    0.000
 RMSDP=2.08D-04 MaxDP=1.88D-02 DE=-1.39D-01 OVMax= 7.00D-02

 Cycle   5  Pass 1  IDiag  1:
 RMSU=  8.01D-05    CP:  9.64D-01  1.49D+00  6.87D-01  5.40D-01
 E= -4069.81037305543     Delta-E=       -0.046871059669 Rises=F Damp=F
 DIIS: error= 6.60D-04 at cycle   5 NSaved=   5.
 NSaved= 5 IEnMin= 5 EnMin= -4069.81037305543     IErMin= 5 ErrMin= 6.60D-04
 ErrMax= 6.60D-04  0.00D+00 EMaxC= 1.00D-01 BMatC= 1.36D-03 BMatP= 5.06D-02
 IDIUse=3 WtCom= 9.93D-01 WtEn= 6.60D-03
 Coeff-Com: -0.392D-01 0.773D-01 0.176D+00 0.259D+00 0.528D+00
 Coeff-En:   0.000D+00 0.000D+00 0.000D+00 0.000D+00 0.100D+01
 Coeff:     -0.389D-01 0.768D-01 0.175D+00 0.257D+00 0.531D+00
 Gap=     0.119 Goal=   None    Shift=    0.000
 RMSDP=4.70D-05 MaxDP=4.84D-03 DE=-4.69D-02 OVMax= 2.19D-02

 Cycle   6  Pass 1  IDiag  1:
 RMSU=  3.35D-05    CP:  9.64D-01  1.49D+00  6.77D-01  6.19D-01  7.07D-01
 E= -4069.81163896092     Delta-E=       -0.001265905496 Rises=F Damp=F
 DIIS: error= 2.15D-04 at cycle   6 NSaved=   6.
 NSaved= 6 IEnMin= 6 EnMin= -4069.81163896092     IErMin= 6 ErrMin= 2.15D-04
 ErrMax= 2.15D-04  0.00D+00 EMaxC= 1.00D-01 BMatC= 2.17D-04 BMatP= 1.36D-03
 IDIUse=3 WtCom= 9.98D-01 WtEn= 2.15D-03
 Coeff-Com:  0.140D-02-0.506D-02 0.150D-01 0.449D-01 0.308D+00 0.636D+00
 Coeff-En:   0.000D+00 0.000D+00 0.000D+00 0.000D+00 0.133D+00 0.867D+00
 Coeff:      0.140D-02-0.504D-02 0.149D-01 0.448D-01 0.307D+00 0.636D+00
 Gap=     0.120 Goal=   None    Shift=    0.000
 RMSDP=1.84D-05 MaxDP=1.30D-03 DE=-1.27D-03 OVMax= 8.43D-03

 Cycle   7  Pass 1  IDiag  1:
 RMSU=  1.17D-05    CP:  9.64D-01  1.49D+00  6.83D-01  6.16D-01  8.28D-01
                    CP:  7.26D-01
 E= -4069.81188707727     Delta-E=       -0.000248116346 Rises=F Damp=F
 DIIS: error= 1.22D-04 at cycle   7 NSaved=   7.
 NSaved= 7 IEnMin= 7 EnMin= -4069.81188707727     IErMin= 7 ErrMin= 1.22D-04
 ErrMax= 1.22D-04  0.00D+00 EMaxC= 1.00D-01 BMatC= 2.88D-05 BMatP= 2.17D-04
 IDIUse=3 WtCom= 9.99D-01 WtEn= 1.22D-03
 Coeff-Com:  0.461D-02-0.102D-01-0.859D-02-0.256D-02 0.112D+00 0.344D+00
 Coeff-Com:  0.561D+00
 Coeff-En:   0.000D+00 0.000D+00 0.000D+00 0.000D+00 0.000D+00 0.000D+00
 Coeff-En:   0.100D+01
 Coeff:      0.460D-02-0.102D-01-0.858D-02-0.256D-02 0.112D+00 0.343D+00
 Coeff:      0.562D+00
 Gap=     0.120 Goal=   None    Shift=    0.000
 RMSDP=6.93D-06 MaxDP=1.17D-03 DE=-2.48D-04 OVMax= 3.61D-03

 Cycle   8  Pass 1  IDiag  1:
 RMSU=  4.91D-06    CP:  9.64D-01  1.49D+00  6.84D-01  6.21D-01  8.27D-01
                    CP:  8.45D-01  8.05D-01
 E= -4069.81192199336     Delta-E=       -0.000034916087 Rises=F Damp=F
 DIIS: error= 5.96D-05 at cycle   8 NSaved=   8.
 NSaved= 8 IEnMin= 8 EnMin= -4069.81192199336     IErMin= 8 ErrMin= 5.96D-05
 ErrMax= 5.96D-05  0.00D+00 EMaxC= 1.00D-01 BMatC= 4.92D-06 BMatP= 2.88D-05
 IDIUse=1 WtCom= 1.00D+00 WtEn= 0.00D+00
 Coeff-Com:  0.227D-02-0.452D-02-0.794D-02-0.121D-01-0.769D-02 0.331D-01
 Coeff-Com:  0.304D+00 0.693D+00
 Coeff:      0.227D-02-0.452D-02-0.794D-02-0.121D-01-0.769D-02 0.331D-01
 Coeff:      0.304D+00 0.693D+00
 Gap=     0.120 Goal=   None    Shift=    0.000
 RMSDP=3.46D-06 MaxDP=4.31D-04 DE=-3.49D-05 OVMax= 1.21D-03

 Cycle   9  Pass 1  IDiag  1:
 RMSU=  2.01D-06    CP:  9.64D-01  1.49D+00  6.84D-01  6.23D-01  8.43D-01
                    CP:  8.74D-01  9.91D-01  9.82D-01
 E= -4069.81192995827     Delta-E=       -0.000007964911 Rises=F Damp=F
 DIIS: error= 2.09D-05 at cycle   9 NSaved=   9.
 NSaved= 9 IEnMin= 9 EnMin= -4069.81192995827     IErMin= 9 ErrMin= 2.09D-05
 ErrMax= 2.09D-05  0.00D+00 EMaxC= 1.00D-01 BMatC= 8.22D-07 BMatP= 4.92D-06
 IDIUse=1 WtCom= 1.00D+00 WtEn= 0.00D+00
 Coeff-Com:  0.526D-03-0.889D-03-0.287D-02-0.624D-02-0.198D-01-0.403D-01
 Coeff-Com:  0.874D-01 0.353D+00 0.629D+00
 Coeff:      0.526D-03-0.889D-03-0.287D-02-0.624D-02-0.198D-01-0.403D-01
 Coeff:      0.874D-01 0.353D+00 0.629D+00
 Gap=     0.120 Goal=   None    Shift=    0.000
 RMSDP=1.47D-06 MaxDP=1.36D-04 DE=-7.96D-06 OVMax= 7.52D-04

 Cycle  10  Pass 1  IDiag  1:
 RMSU=  9.83D-07    CP:  9.64D-01  1.49D+00  6.84D-01  6.23D-01  8.47D-01
                    CP:  8.85D-01  1.04D+00  1.15D+00  1.05D+00
 E= -4069.81193173636     Delta-E=       -0.000001778095 Rises=F Damp=F
 DIIS: error= 9.95D-06 at cycle  10 NSaved=  10.
 NSaved=10 IEnMin=10 EnMin= -4069.81193173636     IErMin=10 ErrMin= 9.95D-06
 ErrMax= 9.95D-06  0.00D+00 EMaxC= 1.00D-01 BMatC= 1.76D-07 BMatP= 8.22D-07
 IDIUse=1 WtCom= 1.00D+00 WtEn= 0.00D+00
 Coeff-Com: -0.416D-03 0.878D-03 0.115D-02 0.922D-03-0.382D-02-0.312D-01
 Coeff-Com: -0.417D-01-0.612D-01 0.225D+00 0.910D+00
 Coeff:     -0.416D-03 0.878D-03 0.115D-02 0.922D-03-0.382D-02-0.312D-01
 Coeff:     -0.417D-01-0.612D-01 0.225D+00 0.910D+00
 Gap=     0.120 Goal=   None    Shift=    0.000
 RMSDP=1.25D-06 MaxDP=1.24D-04 DE=-1.78D-06 OVMax= 6.58D-04

 Cycle  11  Pass 1  IDiag  1:
 RMSU=  5.62D-07    CP:  9.64D-01  1.49D+00  6.85D-01  6.24D-01  8.49D-01
                    CP:  8.94D-01  1.08D+00  1.26D+00  1.38D+00  1.34D+00
 E= -4069.81193256039     Delta-E=       -0.000000824024 Rises=F Damp=F
 DIIS: error= 4.67D-06 at cycle  11 NSaved=  11.
 NSaved=11 IEnMin=11 EnMin= -4069.81193256039     IErMin=11 ErrMin= 4.67D-06
 ErrMax= 4.67D-06  0.00D+00 EMaxC= 1.00D-01 BMatC= 7.88D-08 BMatP= 1.76D-07
 IDIUse=1 WtCom= 1.00D+00 WtEn= 0.00D+00
 Coeff-Com: -0.357D-03 0.698D-03 0.139D-02 0.213D-02 0.414D-02-0.945D-02
 Coeff-Com: -0.404D-01-0.130D+00-0.428D-01 0.518D+00 0.697D+00
 Coeff:     -0.357D-03 0.698D-03 0.139D-02 0.213D-02 0.414D-02-0.945D-02
 Coeff:     -0.404D-01-0.130D+00-0.428D-01 0.518D+00 0.697D+00
 Gap=     0.120 Goal=   None    Shift=    0.000
 RMSDP=7.16D-07 MaxDP=6.47D-05 DE=-8.24D-07 OVMax= 3.82D-04

 Cycle  12  Pass 1  IDiag  1:
 RMSU=  2.83D-07    CP:  9.64D-01  1.49D+00  6.85D-01  6.24D-01  8.50D-01
                    CP:  8.96D-01  1.10D+00  1.32D+00  1.53D+00  1.74D+00
                    CP:  1.15D+00
 E= -4069.81193285262     Delta-E=       -0.000000292235 Rises=F Damp=F
 DIIS: error= 2.84D-06 at cycle  12 NSaved=  12.
 NSaved=12 IEnMin=12 EnMin= -4069.81193285262     IErMin=12 ErrMin= 2.84D-06
 ErrMax= 2.84D-06  0.00D+00 EMaxC= 1.00D-01 BMatC= 1.86D-08 BMatP= 7.88D-08
 IDIUse=1 WtCom= 1.00D+00 WtEn= 0.00D+00
 Coeff-Com: -0.369D-04 0.555D-04 0.317D-03 0.697D-03 0.372D-02 0.290D-02
 Coeff-Com: -0.969D-03-0.424D-01-0.793D-01-0.767D-02 0.266D+00 0.857D+00
 Coeff:     -0.369D-04 0.555D-04 0.317D-03 0.697D-03 0.372D-02 0.290D-02
 Coeff:     -0.969D-03-0.424D-01-0.793D-01-0.767D-02 0.266D+00 0.857D+00
 Gap=     0.120 Goal=   None    Shift=    0.000
 RMSDP=4.37D-07 MaxDP=3.10D-05 DE=-2.92D-07 OVMax= 2.51D-04

 Cycle  13  Pass 1  IDiag  1:
 RMSU=  1.73D-07    CP:  9.64D-01  1.49D+00  6.85D-01  6.24D-01  8.50D-01
                    CP:  8.96D-01  1.10D+00  1.35D+00  1.64D+00  1.95D+00
                    CP:  1.55D+00  1.20D+00
 E= -4069.81193295215     Delta-E=       -0.000000099531 Rises=F Damp=F
 DIIS: error= 1.63D-06 at cycle  13 NSaved=  13.
 NSaved=13 IEnMin=13 EnMin= -4069.81193295215     IErMin=13 ErrMin= 1.63D-06
 ErrMax= 1.63D-06  0.00D+00 EMaxC= 1.00D-01 BMatC= 1.00D-08 BMatP= 1.86D-08
 IDIUse=1 WtCom= 1.00D+00 WtEn= 0.00D+00
 Coeff-Com:  0.118D-03-0.242D-03-0.348D-03-0.416D-03 0.892D-03 0.471D-02
 Coeff-Com:  0.175D-01 0.226D-01-0.344D-01-0.229D+00-0.171D+00 0.563D+00
 Coeff-Com:  0.826D+00
 Coeff:      0.118D-03-0.242D-03-0.348D-03-0.416D-03 0.892D-03 0.471D-02
 Coeff:      0.175D-01 0.226D-01-0.344D-01-0.229D+00-0.171D+00 0.563D+00
 Coeff:      0.826D+00
 Gap=     0.120 Goal=   None    Shift=    0.000
 RMSDP=3.74D-07 MaxDP=2.57D-05 DE=-9.95D-08 OVMax= 2.20D-04

 Cycle  14  Pass 1  IDiag  1:
 RMSU=  8.16D-08    CP:  9.64D-01  1.49D+00  6.85D-01  6.24D-01  8.51D-01
                    CP:  8.97D-01  1.11D+00  1.38D+00  1.72D+00  2.15D+00
                    CP:  1.80D+00  1.73D+00  1.16D+00
 E= -4069.81193299717     Delta-E=       -0.000000045016 Rises=F Damp=F
 DIIS: error= 8.58D-07 at cycle  14 NSaved=  14.
 NSaved=14 IEnMin=14 EnMin= -4069.81193299717     IErMin=14 ErrMin= 8.58D-07
 ErrMax= 8.58D-07  0.00D+00 EMaxC= 1.00D-01 BMatC= 1.48D-09 BMatP= 1.00D-08
 IDIUse=1 WtCom= 1.00D+00 WtEn= 0.00D+00
 Coeff-Com:  0.719D-04-0.142D-03-0.261D-03-0.403D-03-0.391D-03 0.119D-02
 Coeff-Com:  0.999D-02 0.210D-01 0.513D-02-0.104D+00-0.154D+00 0.730D-01
 Coeff-Com:  0.410D+00 0.738D+00
 Coeff:      0.719D-04-0.142D-03-0.261D-03-0.403D-03-0.391D-03 0.119D-02
 Coeff:      0.999D-02 0.210D-01 0.513D-02-0.104D+00-0.154D+00 0.730D-01
 Coeff:      0.410D+00 0.738D+00
 Gap=     0.120 Goal=   None    Shift=    0.000
 RMSDP=1.21D-07 MaxDP=8.35D-06 DE=-4.50D-08 OVMax= 7.10D-05

 Cycle  15  Pass 1  IDiag  1:
 RMSU=  4.04D-08    CP:  9.64D-01  1.49D+00  6.85D-01  6.24D-01  8.51D-01
                    CP:  8.97D-01  1.11D+00  1.38D+00  1.74D+00  2.20D+00
                    CP:  1.92D+00  1.89D+00  1.40D+00  1.05D+00
 E= -4069.81193300239     Delta-E=       -0.000000005224 Rises=F Damp=F
 DIIS: error= 5.03D-07 at cycle  15 NSaved=  15.
 NSaved=15 IEnMin=15 EnMin= -4069.81193300239     IErMin=15 ErrMin= 5.03D-07
 ErrMax= 5.03D-07  0.00D+00 EMaxC= 1.00D-01 BMatC= 2.58D-10 BMatP= 1.48D-09
 IDIUse=1 WtCom= 1.00D+00 WtEn= 0.00D+00
 Coeff-Com:  0.970D-05-0.175D-04-0.480D-04-0.104D-03-0.297D-03-0.484D-03
 Coeff-Com:  0.146D-02 0.392D-02 0.882D-02-0.383D-02-0.351D-01-0.684D-01
 Coeff-Com:  0.396D-01 0.316D+00 0.739D+00
 Coeff:      0.970D-05-0.175D-04-0.480D-04-0.104D-03-0.297D-03-0.484D-03
 Coeff:      0.146D-02 0.392D-02 0.882D-02-0.383D-02-0.351D-01-0.684D-01
 Coeff:      0.396D-01 0.316D+00 0.739D+00
 Gap=     0.120 Goal=   None    Shift=    0.000
 RMSDP=3.89D-08 MaxDP=2.61D-06 DE=-5.22D-09 OVMax= 2.54D-05

 Cycle  16  Pass 1  IDiag  1:
 RMSU=  1.92D-08    CP:  9.64D-01  1.49D+00  6.85D-01  6.24D-01  8.51D-01
                    CP:  8.97D-01  1.11D+00  1.38D+00  1.74D+00  2.21D+00
                    CP:  1.94D+00  1.94D+00  1.48D+00  1.24D+00  1.13D+00
 E= -4069.81193300331     Delta-E=       -0.000000000913 Rises=F Damp=F
 DIIS: error= 2.39D-07 at cycle  16 NSaved=  16.
 NSaved=16 IEnMin=16 EnMin= -4069.81193300331     IErMin=16 ErrMin= 2.39D-07
 ErrMax= 2.39D-07  0.00D+00 EMaxC= 1.00D-01 BMatC= 9.22D-11 BMatP= 2.58D-10
 IDIUse=1 WtCom= 1.00D+00 WtEn= 0.00D+00
 Coeff-Com: -0.133D-04 0.271D-04 0.425D-04 0.454D-04-0.433D-04-0.611D-03
 Coeff-Com: -0.161D-02-0.391D-02 0.391D-02 0.236D-01 0.212D-01-0.583D-01
 Coeff-Com: -0.793D-01-0.339D-01 0.380D+00 0.749D+00
 Coeff:     -0.133D-04 0.271D-04 0.425D-04 0.454D-04-0.433D-04-0.611D-03
 Coeff:     -0.161D-02-0.391D-02 0.391D-02 0.236D-01 0.212D-01-0.583D-01
 Coeff:     -0.793D-01-0.339D-01 0.380D+00 0.749D+00
 Gap=     0.120 Goal=   None    Shift=    0.000
 RMSDP=2.42D-08 MaxDP=1.81D-06 DE=-9.13D-10 OVMax= 1.59D-05

 Cycle  17  Pass 1  IDiag  1:
 RMSU=  1.10D-08    CP:  9.64D-01  1.49D+00  6.85D-01  6.24D-01  8.51D-01
                    CP:  8.97D-01  1.11D+00  1.38D+00  1.74D+00  2.22D+00
                    CP:  1.95D+00  1.97D+00  1.53D+00  1.34D+00  1.42D+00
                    CP:  1.22D+00
 E= -4069.81193300347     Delta-E=       -0.000000000167 Rises=F Damp=F
 DIIS: error= 1.33D-07 at cycle  17 NSaved=  17.
 NSaved=17 IEnMin=17 EnMin= -4069.81193300347     IErMin=17 ErrMin= 1.33D-07
 ErrMax= 1.33D-07  0.00D+00 EMaxC= 1.00D-01 BMatC= 2.16D-11 BMatP= 9.22D-11
 IDIUse=1 WtCom= 1.00D+00 WtEn= 0.00D+00
 Coeff-Com: -0.839D-05 0.165D-04 0.318D-04 0.452D-04 0.741D-04-0.165D-03
 Coeff-Com: -0.943D-03-0.305D-02-0.369D-04 0.110D-01 0.191D-01-0.959D-02
 Coeff-Com: -0.400D-01-0.994D-01-0.169D-01 0.326D+00 0.814D+00
 Coeff:     -0.839D-05 0.165D-04 0.318D-04 0.452D-04 0.741D-04-0.165D-03
 Coeff:     -0.943D-03-0.305D-02-0.369D-04 0.110D-01 0.191D-01-0.959D-02
 Coeff:     -0.400D-01-0.994D-01-0.169D-01 0.326D+00 0.814D+00
 Gap=     0.120 Goal=   None    Shift=    0.000
 RMSDP=1.35D-08 MaxDP=1.00D-06 DE=-1.67D-10 OVMax= 8.17D-06

 Cycle  18  Pass 1  IDiag  1:
 RMSU=  5.34D-09    CP:  9.64D-01  1.49D+00  6.85D-01  6.24D-01  8.51D-01
                    CP:  8.97D-01  1.11D+00  1.38D+00  1.74D+00  2.22D+00
                    CP:  1.96D+00  1.97D+00  1.55D+00  1.40D+00  1.58D+00
                    CP:  1.61D+00  1.35D+00
 E= -4069.81193300363     Delta-E=       -0.000000000153 Rises=F Damp=F
 DIIS: error= 6.67D-08 at cycle  18 NSaved=  18.
 NSaved=18 IEnMin=18 EnMin= -4069.81193300363     IErMin=18 ErrMin= 6.67D-08
 ErrMax= 6.67D-08  0.00D+00 EMaxC= 1.00D-01 BMatC= 7.92D-12 BMatP= 2.16D-11
 IDIUse=1 WtCom= 1.00D+00 WtEn= 0.00D+00
 Coeff-Com:  0.470D-06-0.128D-05 0.117D-05 0.577D-05 0.660D-04 0.128D-03
 Coeff-Com:  0.190D-03-0.243D-03-0.111D-02-0.346D-02 0.209D-02 0.147D-01
 Coeff-Com:  0.118D-01-0.384D-01-0.142D+00-0.120D+00 0.380D+00 0.896D+00
 Coeff:      0.470D-06-0.128D-05 0.117D-05 0.577D-05 0.660D-04 0.128D-03
 Coeff:      0.190D-03-0.243D-03-0.111D-02-0.346D-02 0.209D-02 0.147D-01
 Coeff:      0.118D-01-0.384D-01-0.142D+00-0.120D+00 0.380D+00 0.896D+00
 Gap=     0.120 Goal=   None    Shift=    0.000
 RMSDP=1.05D-08 MaxDP=7.64D-07 DE=-1.53D-10 OVMax= 7.19D-06

 Cycle  19  Pass 1  IDiag  1:
 RMSU=  3.19D-09    CP:  9.64D-01  1.49D+00  6.85D-01  6.24D-01  8.51D-01
                    CP:  8.97D-01  1.11D+00  1.38D+00  1.74D+00  2.22D+00
                    CP:  1.96D+00  1.98D+00  1.55D+00  1.43D+00  1.70D+00
                    CP:  1.88D+00  1.86D+00  1.22D+00
 E= -4069.81193300371     Delta-E=       -0.000000000084 Rises=F Damp=F
 DIIS: error= 4.02D-08 at cycle  19 NSaved=  19.
 NSaved=19 IEnMin=19 EnMin= -4069.81193300371     IErMin=19 ErrMin= 4.02D-08
 ErrMax= 4.02D-08  0.00D+00 EMaxC= 1.00D-01 BMatC= 2.72D-12 BMatP= 7.92D-12
 IDIUse=1 WtCom= 1.00D+00 WtEn= 0.00D+00
 Coeff-Com:  0.319D-05-0.648D-05-0.104D-04-0.123D-04 0.214D-04 0.136D-03
 Coeff-Com:  0.472D-03 0.874D-03-0.651D-03-0.644D-02-0.554D-02 0.126D-01
 Coeff-Com:  0.229D-01 0.106D-01-0.864D-01-0.202D+00-0.502D-01 0.557D+00
 Coeff-Com:  0.747D+00
 Coeff:      0.319D-05-0.648D-05-0.104D-04-0.123D-04 0.214D-04 0.136D-03
 Coeff:      0.472D-03 0.874D-03-0.651D-03-0.644D-02-0.554D-02 0.126D-01
 Coeff:      0.229D-01 0.106D-01-0.864D-01-0.202D+00-0.502D-01 0.557D+00
 Coeff:      0.747D+00
 Gap=     0.120 Goal=   None    Shift=    0.000
 RMSDP=6.46D-09 MaxDP=4.50D-07 DE=-8.37D-11 OVMax= 3.64D-06

 SCF Done:  E(RCAM-B3LYP) =  -4069.81193300     A.U. after   19 cycles
            NFock= 19  Conv=0.65D-08     -V/T= 2.0102
 KE= 4.028800737935D+03 PE=-4.049859166612D+04 EE= 1.689128704109D+04
 Leave Link  502 at Fri Sep  3 21:14:56 2021, MaxMem= 23488102400 cpu:           15897.4 elap:             690.5
 (Enter /sw/apps/gaussian-16.0/g16/l801.exe)
 DoSCS=F DFT=T ScalE2(SS,OS)=  1.000000  1.000000
 ExpMin= 3.36D-02 ExpMax= 4.95D+03 ExpMxC= 7.45D+02 IAcc=3 IRadAn=         5 AccDes= 0.00D+00
 HarFok:  IExCor=  205 AccDes= 0.00D+00 IRadAn=         5 IDoV=-2 UseB2=F ITyADJ=14
 ICtDFT= 12500011 ScaDFX=  1.000000  1.000000  1.000000  1.000000
 GSVD:  LWork=       -9588 too small for GESVD, short by       45590 words or       45590 for optimal perf.
 Largest valence mixing into a core orbital is  2.03D-04
 Largest core mixing into a valence orbital is  5.25D-05
 Range of M.O.s used for correlation:    95  1572
 NBasis=  1572 NAE=   312 NBE=   312 NFC=    94 NFV=     0
 NROrb=   1478 NOA=   218 NOB=   218 NVA=  1260 NVB=  1260
 Leave Link  801 at Fri Sep  3 21:14:56 2021, MaxMem= 23488102400 cpu:               8.4 elap:               0.4
 (Enter /sw/apps/gaussian-16.0/g16/l914.exe)
 RHF ground state
 Two-electron integrals replicated using symmetry.
 MDV= 23488102400 DFT=T DoStab=F Mixed=T DoRPA=T DoScal=F NonHer=T
 Making orbital integer symmetry assigments:
 Orbital symmetries:
       Occupied  (A) (A) (A) (A) (A) (A) (A) (A) (A) (A) (A) (A)
                 (A) (A) (A) (A) (A) (A) (A) (A) (A) (A) (A) (A)
                 (A) (A) (A) (A) (A) (A) (A) (A) (A) (A) (A) (A)
                 (A) (A) (A) (A) (A) (A) (A) (A) (A) (A) (A) (A)
                 (A) (A) (A) (A) (A) (A) (A) (A) (A) (A) (A) (A)
                 (A) (A) (A) (A) (A) (A) (A) (A) (A) (A) (A) (A)
                 (A) (A) (A) (A) (A) (A) (A) (A) (A) (A) (A) (A)
                 (A) (A) (A) (A) (A) (A) (A) (A) (A) (A) (A) (A)
                 (A) (A) (A) (A) (A) (A) (A) (A) (A) (A) (A) (A)
                 (A) (A) (A) (A) (A) (A) (A) (A) (A) (A) (A) (A)
                 (A) (A) (A) (A) (A) (A) (A) (A) (A) (A) (A) (A)
                 (A) (A) (A) (A) (A) (A) (A) (A) (A) (A) (A) (A)
                 (A) (A) (A) (A) (A) (A) (A) (A) (A) (A) (A) (A)
                 (A) (A) (A) (A) (A) (A) (A) (A) (A) (A) (A) (A)
                 (A) (A) (A) (A) (A) (A) (A) (A) (A) (A) (A) (A)
                 (A) (A) (A) (A) (A) (A) (A) (A) (A) (A) (A) (A)
                 (A) (A) (A) (A) (A) (A) (A) (A) (A) (A) (A) (A)
                 (A) (A) (A) (A) (A) (A) (A) (A) (A) (A) (A) (A)
                 (A) (A) (A) (A) (A) (A) (A) (A) (A) (A) (A) (A)
                 (A) (A) (A) (A) (A) (A) (A) (A) (A) (A) (A) (A)
                 (A) (A) (A) (A) (A) (A) (A) (A) (A) (A) (A) (A)
                 (A) (A) (A) (A) (A) (A) (A) (A) (A) (A) (A) (A)
                 (A) (A) (A) (A) (A) (A) (A) (A) (A) (A) (A) (A)
                 (A) (A) (A) (A) (A) (A) (A) (A) (A) (A) (A) (A)
                 (A) (A) (A) (A) (A) (A) (A) (A) (A) (A) (A) (A)
                 (A) (A) (A) (A) (A) (A) (A) (A) (A) (A) (A) (A)
       Virtual   (A) (A) (A) (A) (A) (A) (A) (A) (A) (A) (A) (A)
                 (A) (A) (A) (A) (A) (A) (A) (A) (A) (A) (A) (A)
                 (A) (A) (A) (A) (A) (A) (A) (A) (A) (A) (A) (A)
                 (A) (A) (A) (A) (A) (A) (A) (A) (A) (A) (A) (A)
                 (A) (A) (A) (A) (A) (A) (A) (A) (A) (A) (A) (A)
                 (A) (A) (A) (A) (A) (A) (A) (A) (A) (A) (A) (A)
                 (A) (A) (A) (A) (A) (A) (A) (A) (A) (A) (A) (A)
                 (A) (A) (A) (A) (A) (A) (A) (A) (A) (A) (A) (A)
                 (A) (A) (A) (A) (A) (A) (A) (A) (A) (A) (A) (A)
                 (A) (A) (A) (A) (A) (A) (A) (A) (A) (A) (A) (A)
                 (A) (A) (A) (A) (A) (A) (A) (A) (A) (A) (A) (A)
                 (A) (A) (A) (A) (A) (A) (A) (A) (A) (A) (A) (A)
                 (A) (A) (A) (A) (A) (A) (A) (A) (A) (A) (A) (A)
                 (A) (A) (A) (A) (A) (A) (A) (A) (A) (A) (A) (A)
                 (A) (A) (A) (A) (A) (A) (A) (A) (A) (A) (A) (A)
                 (A) (A) (A) (A) (A) (A) (A) (A) (A) (A) (A) (A)
                 (A) (A) (A) (A) (A) (A) (A) (A) (A) (A) (A) (A)
                 (A) (A) (A) (A) (A) (A) (A) (A) (A) (A) (A) (A)
                 (A) (A) (A) (A) (A) (A) (A) (A) (A) (A) (A) (A)
                 (A) (A) (A) (A) (A) (A) (A) (A) (A) (A) (A) (A)
                 (A) (A) (A) (A) (A) (A) (A) (A) (A) (A) (A) (A)
                 (A) (A) (A) (A) (A) (A) (A) (A) (A) (A) (A) (A)
                 (A) (A) (A) (A) (A) (A) (A) (A) (A) (A) (A) (A)
                 (A) (A) (A) (A) (A) (A) (A) (A) (A) (A) (A) (A)
                 (A) (A) (A) (A) (A) (A) (A) (A) (A) (A) (A) (A)
                 (A) (A) (A) (A) (A) (A) (A) (A) (A) (A) (A) (A)
                 (A) (A) (A) (A) (A) (A) (A) (A) (A) (A) (A) (A)
                 (A) (A) (A) (A) (A) (A) (A) (A) (A) (A) (A) (A)
                 (A) (A) (A) (A) (A) (A) (A) (A) (A) (A) (A) (A)
                 (A) (A) (A) (A) (A) (A) (A) (A) (A) (A) (A) (A)
                 (A) (A) (A) (A) (A) (A) (A) (A) (A) (A) (A) (A)
                 (A) (A) (A) (A) (A) (A) (A) (A) (A) (A) (A) (A)
                 (A) (A) (A) (A) (A) (A) (A) (A) (A) (A) (A) (A)
                 (A) (A) (A) (A) (A) (A) (A) (A) (A) (A) (A) (A)
                 (A) (A) (A) (A) (A) (A) (A) (A) (A) (A) (A) (A)
                 (A) (A) (A) (A) (A) (A) (A) (A) (A) (A) (A) (A)
                 (A) (A) (A) (A) (A) (A) (A) (A) (A) (A) (A) (A)
                 (A) (A) (A) (A) (A) (A) (A) (A) (A) (A) (A) (A)
                 (A) (A) (A) (A) (A) (A) (A) (A) (A) (A) (A) (A)
                 (A) (A) (A) (A) (A) (A) (A) (A) (A) (A) (A) (A)
                 (A) (A) (A) (A) (A) (A) (A) (A) (A) (A) (A) (A)
                 (A) (A) (A) (A) (A) (A) (A) (A) (A) (A) (A) (A)
                 (A) (A) (A) (A) (A) (A) (A) (A) (A) (A) (A) (A)
                 (A) (A) (A) (A) (A) (A) (A) (A) (A) (A) (A) (A)
                 (A) (A) (A) (A) (A) (A) (A) (A) (A) (A) (A) (A)
                 (A) (A) (A) (A) (A) (A) (A) (A) (A) (A) (A) (A)
                 (A) (A) (A) (A) (A) (A) (A) (A) (A) (A) (A) (A)
                 (A) (A) (A) (A) (A) (A) (A) (A) (A) (A) (A) (A)
                 (A) (A) (A) (A) (A) (A) (A) (A) (A) (A) (A) (A)
                 (A) (A) (A) (A) (A) (A) (A) (A) (A) (A) (A) (A)
                 (A) (A) (A) (A) (A) (A) (A) (A) (A) (A) (A) (A)
                 (A) (A) (A) (A) (A) (A) (A) (A) (A) (A) (A) (A)
                 (A) (A) (A) (A) (A) (A) (A) (A) (A) (A) (A) (A)
                 (A) (A) (A) (A) (A) (A) (A) (A) (A) (A) (A) (A)
                 (A) (A) (A) (A) (A) (A) (A) (A) (A) (A) (A) (A)
                 (A) (A) (A) (A) (A) (A) (A) (A) (A) (A) (A) (A)
                 (A) (A) (A) (A) (A) (A) (A) (A) (A) (A) (A) (A)
                 (A) (A) (A) (A) (A) (A) (A) (A) (A) (A) (A) (A)
                 (A) (A) (A) (A) (A) (A) (A) (A) (A) (A) (A) (A)
                 (A) (A) (A) (A) (A) (A) (A) (A) (A) (A) (A) (A)
                 (A) (A) (A) (A) (A) (A) (A) (A) (A) (A) (A) (A)
                 (A) (A) (A) (A) (A) (A) (A) (A) (A) (A) (A) (A)
                 (A) (A) (A) (A) (A) (A) (A) (A) (A) (A) (A) (A)
                 (A) (A) (A) (A) (A) (A) (A) (A) (A) (A) (A) (A)
                 (A) (A) (A) (A) (A) (A) (A) (A) (A) (A) (A) (A)
                 (A) (A) (A) (A) (A) (A) (A) (A) (A) (A) (A) (A)
                 (A) (A) (A) (A) (A) (A) (A) (A) (A) (A) (A) (A)
                 (A) (A) (A) (A) (A) (A) (A) (A) (A) (A) (A) (A)
                 (A) (A) (A) (A) (A) (A) (A) (A) (A) (A) (A) (A)
                 (A) (A) (A) (A) (A) (A) (A) (A) (A) (A) (A) (A)
                 (A) (A) (A) (A) (A) (A) (A) (A) (A) (A) (A) (A)
                 (A) (A) (A) (A) (A) (A) (A) (A) (A) (A) (A) (A)
                 (A) (A) (A) (A) (A) (A) (A) (A) (A) (A) (A) (A)
                 (A) (A) (A) (A) (A) (A) (A) (A) (A) (A) (A) (A)
                 (A) (A) (A) (A) (A) (A) (A) (A) (A) (A) (A) (A)
                 (A) (A) (A) (A) (A) (A) (A) (A) (A) (A) (A) (A)
                 (A) (A) (A) (A) (A) (A) (A) (A) (A) (A) (A) (A)
                 (A) (A) (A) (A) (A) (A) (A) (A) (A) (A) (A) (A)
                 (A) (A) (A) (A) (A) (A) (A) (A) (A) (A) (A) (A)
                 (A) (A) (A) (A) (A) (A) (A) (A) (A) (A) (A) (A)
                 (A) (A) (A) (A) (A) (A) (A) (A) (A) (A) (A) (A)
                 (A) (A) (A) (A) (A) (A) (A) (A) (A) (A) (A) (A)
                 (A) (A) (A) (A) (A) (A) (A) (A) (A) (A) (A) (A)
                 (A) (A) (A) (A) (A) (A) (A) (A) (A) (A) (A) (A)
                 (A) (A) (A) (A) (A) (A) (A) (A) (A) (A) (A) (A)
                 (A) (A) (A) (A) (A) (A) (A) (A) (A) (A) (A) (A)
                 (A) (A) (A) (A) (A) (A) (A) (A) (A) (A) (A) (A)
                 (A) (A) (A) (A) (A) (A) (A) (A) (A) (A) (A) (A)
                 (A) (A) (A) (A) (A) (A) (A) (A) (A) (A) (A) (A)
                 (A) (A) (A) (A) (A) (A) (A) (A) (A) (A) (A) (A)
                 (A) (A) (A) (A) (A) (A) (A) (A) (A) (A) (A) (A)
                 (A) (A) (A) (A) (A) (A) (A) (A) (A) (A) (A) (A)
                 (A) (A) (A) (A) (A) (A) (A) (A) (A) (A) (A) (A)
                 (A) (A) (A) (A) (A) (A) (A) (A) (A) (A) (A) (A)
                 (A) (A) (A) (A) (A) (A) (A) (A) (A) (A) (A) (A)
                 (A) (A) (A) (A) (A) (A) (A) (A) (A) (A) (A) (A)
                 (A) (A) (A) (A) (A) (A) (A) (A) (A) (A) (A) (A)
                 (A) (A) (A) (A) (A) (A) (A) (A) (A) (A) (A) (A)
                 (A) (A) (A) (A) (A) (A) (A) (A) (A) (A) (A) (A)
                 (A) (A) (A) (A) (A) (A) (A) (A) (A) (A) (A) (A)
                 (A) (A) (A) (A) (A) (A) (A) (A) (A) (A) (A) (A)
                 (A) (A) (A) (A) (A) (A) (A) (A) (A) (A) (A) (A)
                 (A) (A) (A) (A) (A) (A) (A) (A) (A) (A) (A) (A)
                 (A) (A) (A) (A) (A) (A) (A) (A) (A) (A) (A) (A)
                 (A) (A) (A) (A) (A) (A) (A) (A) (A) (A) (A) (A)
    20 initial guesses have been made.
 Convergence on wavefunction:    0.001000000000000
 Davidson Disk Diagonalization:  ConvIn= 1.00D-03 SkipCon=T Conv= 1.00D-03.
 Max sub-space:  2000 roots to seek:    20 dimension of matrix:       549360
 Iteration     1 Dimension    20 NMult     0 NNew     20
 CISAX will form    20 AO SS matrices at one time.
 NMat=    20 NSing=    20 JSym2X= 0.
 FoFJK:  IHMeth= 1 ICntrl=       0 DoSepK=T KAlg= 0 I1Cent=           0 FoldK=F
 IRaf=         1 NMat=      40 IRICut=       1 DoRegI=T DoRafI=F ISym2E= 0 IDoP0=3 IntGTp=3.
 FoFCou: FMM=T IPFlag=           0 FMFlag=      100000 FMFlg1=        2001
         NFxFlg=           0 DoJE=F BraDBF=F KetDBF=F FulRan=T
         wScrn=  0.000000 ICntrl=       500 IOpCl=  0 I1Cent=           0 NGrid=           0
         NMat0=   20 NMatS0=     20 NMatT0=    0 NMatD0=   20 NMtDS0=    0 NMtDT0=    0
 Symmetry not used in FoFCou.
 FMM levels:  10  Number of levels for PrismC:   9
 New state      2 was old state      4
 New state      3 was old state      7
 New state      4 was old state     10
 New state      5 was old state      6
 Excitation Energies [eV] at current iteration:
 Root      1 :     2.340706142767357
 Root      2 :     2.536455284821142
 Root      3 :     2.602411983652287
 Root      4 :     2.618802888410929
 Root      5 :     2.632410777884509
 Root      6 :     2.748472158428167
 Root      7 :     3.122099294810854
 Root      8 :     3.334674948352134
 Root      9 :     3.622611687159163
 Root     10 :     3.668200077980926
 Root     11 :     3.744361505831458
 Root     12 :     3.756924239320584
 Root     13 :     4.241500285425908
 Root     14 :     4.248951159825547
 Root     15 :     4.356668397325731
 Root     16 :     4.470296496772704
 Root     17 :     4.572865674261177
 Root     18 :     4.614922061583162
 Root     19 :     4.729892328197330
 Root     20 :     4.821000471324372
 Iteration     2 Dimension    30 NMult    20 NNew     10
 CISAX will form    10 AO SS matrices at one time.
 NMat=    10 NSing=    10 JSym2X= 0.
 New state      1 was old state      3
 Root      1 not converged, maximum delta is    0.339259524937028
 New state      2 was old state      5
 Root      2 not converged, maximum delta is    0.488554075377074
 New state      3 was old state      4
 Root      3 not converged, maximum delta is    0.308464241886796
 New state      4 was old state      1
 Root      4 not converged, maximum delta is    0.003256286259543
 New state      5 was old state      2
 Root      5 not converged, maximum delta is    0.005434074070084
 Excitation Energies [eV] at current iteration:
 Root      1 :     1.772472006168372   Change is   -0.829939977483915
 Root      2 :     2.223400680018077   Change is   -0.409010097866432
 Root      3 :     2.242783218100371   Change is   -0.376019670310558
 Root      4 :     2.339933874923504   Change is   -0.000772267843852
 Root      5 :     2.535460775716420   Change is   -0.000994509104722
 Iteration     3 Dimension    40 NMult    30 NNew     10
 CISAX will form    10 AO SS matrices at one time.
 NMat=    10 NSing=    10 JSym2X= 0.
 Root      1 not converged, maximum delta is    0.053880113615157
 Root      2 not converged, maximum delta is    0.295394218947145
 Root      3 not converged, maximum delta is    0.312845152633717
 No map to state      4
 New state      5 was old state      4
 Root      5 not converged, maximum delta is    0.001461275460915
 Excitation Energies [eV] at current iteration:
 Root      1 :     1.668094773765610   Change is   -0.104377232402762
 Root      2 :     2.099770795498079   Change is   -0.123629884519998
 Root      3 :     2.194018589918381   Change is   -0.048764628181991
 Root      4 :     2.272697298766173
 Root      5 :     2.339929866037550   Change is   -0.000004008885954
 Iteration     4 Dimension    50 NMult    40 NNew     10
 CISAX will form    10 AO SS matrices at one time.
 NMat=    10 NSing=    10 JSym2X= 0.
 Root      1 not converged, maximum delta is    0.010959533005688
 Root      2 not converged, maximum delta is    0.362009305414184
 Root      3 not converged, maximum delta is    0.349635036894715
 Root      4 not converged, maximum delta is    0.285682641306621
 Root      5 not converged, maximum delta is    0.001399822613472
 Excitation Energies [eV] at current iteration:
 Root      1 :     1.651591784802280   Change is   -0.016502988963330
 Root      2 :     1.737395044942230   Change is   -0.362375750555849
 Root      3 :     2.180813578127941   Change is   -0.013205011790440
 Root      4 :     2.198604522364766   Change is   -0.074092776401407
 Root      5 :     2.339928387232513   Change is   -0.000001478805037
 Iteration     5 Dimension    60 NMult    50 NNew     10
 CISAX will form    10 AO SS matrices at one time.
 NMat=    10 NSing=    10 JSym2X= 0.
 Root      1 not converged, maximum delta is    0.001551523149916
 Root      2 not converged, maximum delta is    0.019291297087719
 Root      3 not converged, maximum delta is    0.011427112133441
 Root      4 not converged, maximum delta is    0.011027062397386
 Root      5 has converged.
 Excitation Energies [eV] at current iteration:
 Root      1 :     1.649882962737830   Change is   -0.001708822064450
 Root      2 :     1.705539254465668   Change is   -0.031855790476561
 Root      3 :     2.179712610054501   Change is   -0.001100968073440
 Root      4 :     2.197064279409453   Change is   -0.001540242955313
 Root      5 :     2.339928357307850   Change is   -0.000000029924663
 Iteration     6 Dimension    68 NMult    60 NNew      8
 CISAX will form     8 AO SS matrices at one time.
 NMat=     8 NSing=     8 JSym2X= 0.
 Root      1 has converged.
 Root      2 not converged, maximum delta is    0.006303000611867
 Root      3 not converged, maximum delta is    0.001241073211540
 Root      4 not converged, maximum delta is    0.001251262120083
 Root      5 has converged.
 Excitation Energies [eV] at current iteration:
 Root      1 :     1.649640302908543   Change is   -0.000242659829286
 Root      2 :     1.701061808846915   Change is   -0.004477445618753
 Root      3 :     2.179554800454555   Change is   -0.000157809599946
 Root      4 :     2.196857514989412   Change is   -0.000206764420042
 Root      5 :     2.339928356013042   Change is   -0.000000001294808
 Iteration     7 Dimension    74 NMult    68 NNew      6
 CISAX will form     6 AO SS matrices at one time.
 NMat=     6 NSing=     6 JSym2X= 0.
 Root      1 has converged.
 Root      2 not converged, maximum delta is    0.001308369230220
 Root      3 has converged.
 Root      4 has converged.
 Root      5 has converged.
 Excitation Energies [eV] at current iteration:
[...]
 Alpha virt. eigenvalues --    1.84496   1.84691   1.84734   1.84961   1.85048
 Alpha virt. eigenvalues --    1.85202   1.85302   1.85461   1.85473   1.85700
 Alpha virt. eigenvalues --    1.85812   1.86112   1.86277   1.86484   1.86565
 Alpha virt. eigenvalues --    1.86693   1.86847   1.86923   1.86995   1.87239
 Alpha virt. eigenvalues --    1.87333   1.87574   1.87692   1.87782   1.87947
 Alpha virt. eigenvalues --    1.87995   1.88202   1.88376   1.88439   1.88709
 Alpha virt. eigenvalues --    1.88811   1.89037   1.89187   1.89375   1.89565
 Alpha virt. eigenvalues --    1.89690   1.89855   1.90023   1.90036   1.90431
 Alpha virt. eigenvalues --    1.90643   1.91138   1.91245   1.91348   1.91625
 Alpha virt. eigenvalues --    1.91902   1.92062   1.92432   1.92474   1.92882
 Alpha virt. eigenvalues --    1.92911   1.93266   1.93361   1.93678   1.94183
 Alpha virt. eigenvalues --    1.94483   1.94616   1.95000   1.95397   1.95610
 Alpha virt. eigenvalues --    1.95772   1.95863   1.96060   1.96062   1.96269
 Alpha virt. eigenvalues --    1.96416   1.96503   1.96695   1.96817   1.97158
 Alpha virt. eigenvalues --    1.97349   1.97723   1.97754   1.98032   1.98058
 Alpha virt. eigenvalues --    1.98436   1.98514   1.98604   1.99028   1.99303
 Alpha virt. eigenvalues --    1.99687   2.00190   2.00578   2.00876   2.00962
 Alpha virt. eigenvalues --    2.01291   2.01332   2.01581   2.01605   2.01682
 Alpha virt. eigenvalues --    2.01832   2.02078   2.02677   2.02921   2.03136
 Alpha virt. eigenvalues --    2.03290   2.03320   2.03383   2.03615   2.03740
 Alpha virt. eigenvalues --    2.03935   2.04236   2.04880   2.05146   2.05437
 Alpha virt. eigenvalues --    2.05792   2.06011   2.06471   2.06809   2.07102
 Alpha virt. eigenvalues --    2.07292   2.07553   2.08541   2.08669   2.08895
 Alpha virt. eigenvalues --    2.09216   2.09481   2.09813   2.10710   2.11093
 Alpha virt. eigenvalues --    2.11193   2.11368   2.11598   2.11636   2.11769
 Alpha virt. eigenvalues --    2.12089   2.12363   2.12710   2.12719   2.12771
 Alpha virt. eigenvalues --    2.13021   2.13126   2.13607   2.13963   2.14071
 Alpha virt. eigenvalues --    2.14455   2.15255   2.15585   2.15823   2.16353
 Alpha virt. eigenvalues --    2.16452   2.16683   2.16824   2.17310   2.17383
 Alpha virt. eigenvalues --    2.17622   2.17824   2.17994   2.18179   2.18209
 Alpha virt. eigenvalues --    2.18234   2.18740   2.18944   2.19476   2.19582
 Alpha virt. eigenvalues --    2.19928   2.20067   2.20123   2.20465   2.20671
 Alpha virt. eigenvalues --    2.21086   2.21330   2.21593   2.21644   2.21969
 Alpha virt. eigenvalues --    2.22079   2.22588   2.22927   2.23235   2.23531
 Alpha virt. eigenvalues --    2.24328   2.24581   2.24902   2.25146   2.26179
 Alpha virt. eigenvalues --    2.26672   2.26692   2.26993   2.27218   2.27430
 Alpha virt. eigenvalues --    2.28023   2.28627   2.29184   2.29620   2.29682
 Alpha virt. eigenvalues --    2.30122   2.30346   2.30902   2.30947   2.31059
 Alpha virt. eigenvalues --    2.31098   2.31401   2.32051   2.32411   2.33028
 Alpha virt. eigenvalues --    2.33350   2.33468   2.33692   2.34033   2.34364
 Alpha virt. eigenvalues --    2.35222   2.35550   2.35686   2.36172   2.36286
 Alpha virt. eigenvalues --    2.36523   2.36540   2.36601   2.37592   2.37842
 Alpha virt. eigenvalues --    2.38204   2.38523   2.38702   2.39040   2.39515
 Alpha virt. eigenvalues --    2.39875   2.40081   2.40354   2.40443   2.41078
 Alpha virt. eigenvalues --    2.41108   2.41449   2.41598   2.41858   2.41911
 Alpha virt. eigenvalues --    2.42359   2.42871   2.42968   2.43310   2.43336
 Alpha virt. eigenvalues --    2.44048   2.44167   2.44636   2.44794   2.44997
 Alpha virt. eigenvalues --    2.45232   2.45476   2.45755   2.46253   2.46390
 Alpha virt. eigenvalues --    2.46463   2.46669   2.46703   2.47007   2.47171
 Alpha virt. eigenvalues --    2.47554   2.47626   2.48067   2.49247   2.49526
 Alpha virt. eigenvalues --    2.49990   2.50042   2.50476   2.50598   2.51007
 Alpha virt. eigenvalues --    2.51518   2.51757   2.51777   2.52297   2.52623
 Alpha virt. eigenvalues --    2.52696   2.53422   2.53837   2.54112   2.54140
 Alpha virt. eigenvalues --    2.54406   2.54707   2.54998   2.55456   2.55856
 Alpha virt. eigenvalues --    2.57788   2.58261   2.58554   2.59131   2.60074
 Alpha virt. eigenvalues --    2.60466   2.60557   2.61178   2.61631   2.62011
 Alpha virt. eigenvalues --    2.62401   2.62627   2.62855   2.63329   2.63826
 Alpha virt. eigenvalues --    2.64164   2.64465   2.64589   2.64975   2.65302
 Alpha virt. eigenvalues --    2.65652   2.66096   2.66691   2.66808   2.66978
 Alpha virt. eigenvalues --    2.67303   2.67817   2.68201   2.68742   2.68901
 Alpha virt. eigenvalues --    2.68981   2.69271   2.69296   2.69806   2.69898
 Alpha virt. eigenvalues --    2.70321   2.70864   2.71305   2.71930   2.72081
 Alpha virt. eigenvalues --    2.72544   2.72656   2.72694   2.72982   2.73196
 Alpha virt. eigenvalues --    2.73338   2.73430   2.73700   2.74415   2.74693
 Alpha virt. eigenvalues --    2.74869   2.75249   2.76505   2.76699   2.77136
 Alpha virt. eigenvalues --    2.77262   2.77368   2.77774   2.78140   2.78423
 Alpha virt. eigenvalues --    2.78595   2.78866   2.79031   2.79362   2.80251
 Alpha virt. eigenvalues --    2.80373   2.80448   2.80898   2.81036   2.81325
 Alpha virt. eigenvalues --    2.81828   2.82200   2.82256   2.82522   2.83641
 Alpha virt. eigenvalues --    2.83706   2.83962   2.84121   2.84476   2.84669
 Alpha virt. eigenvalues --    2.84810   2.85046   2.85596   2.85824   2.86828
 Alpha virt. eigenvalues --    2.86884   2.87393   2.87443   2.88101   2.88356
 Alpha virt. eigenvalues --    2.88419   2.88792   2.88853   2.89026   2.90358
 Alpha virt. eigenvalues --    2.90871   2.91112   2.91261   2.93037   2.93536
 Alpha virt. eigenvalues --    2.93948   2.94118   2.94497   2.94696   2.95191
 Alpha virt. eigenvalues --    2.95722   2.96015   2.96094   2.96334   2.96535
 Alpha virt. eigenvalues --    2.97004   2.97107   2.97665   2.98119   2.98135
 Alpha virt. eigenvalues --    2.98287   2.98536   2.98609   2.98772   2.98816
 Alpha virt. eigenvalues --    2.98982   2.99084   2.99513   2.99877   2.99902
 Alpha virt. eigenvalues --    3.00113   3.00246   3.00339   3.00458   3.01244
 Alpha virt. eigenvalues --    3.01893   3.01938   3.02105   3.02352   3.02577
 Alpha virt. eigenvalues --    3.02852   3.02992   3.03255   3.03535   3.03974
 Alpha virt. eigenvalues --    3.04098   3.04344   3.04398   3.04452   3.04608
 Alpha virt. eigenvalues --    3.04880   3.05234   3.05486   3.06002   3.06364
 Alpha virt. eigenvalues --    3.06644   3.07181   3.08041   3.08079   3.09295
 Alpha virt. eigenvalues --    3.09487   3.09587   3.10313   3.10671   3.11001
 Alpha virt. eigenvalues --    3.11269   3.11631   3.11782   3.11992   3.12127
 Alpha virt. eigenvalues --    3.12564   3.13162   3.13573   3.13808   3.13852
 Alpha virt. eigenvalues --    3.13943   3.14728   3.15852   3.16082   3.17189
 Alpha virt. eigenvalues --    3.17691   3.17969   3.18034   3.19067   3.19157
 Alpha virt. eigenvalues --    3.22126   3.22821   3.23864   3.24576   3.24619
 Alpha virt. eigenvalues --    3.25391   3.26425   3.26824   3.27528   3.27578
 Alpha virt. eigenvalues --    3.28912   3.29455   3.31437   3.31552   3.33338
 Alpha virt. eigenvalues --    3.33351   3.40433   3.40507   3.42765   3.42932
 Alpha virt. eigenvalues --    3.48579   3.48882   3.49934   3.50450   3.51014
 Alpha virt. eigenvalues --    3.51393   3.56480   3.57157   3.59026   3.59491
 Alpha virt. eigenvalues --    3.62686   3.62758   3.66151   3.66198   3.67010
 Alpha virt. eigenvalues --    3.67783   3.73136   3.74248   3.75954   3.76899
          Condensed to atoms (all electrons):
 Mulliken charges:
               1
     1  Mg   0.838668
     2  C   -0.003819
     3  C   -0.094911
     4  C   -0.045532
     5  C   -0.063467
     6  N   -0.256703
     7  C   -0.053014
     8  C   -0.013861
     9  C   -0.086890
    10  C    0.045948
    11  C    0.104756
    12  C    0.053385
    13  C   -0.070993
    14  H    0.032999
    15  N   -0.433218
    16  C    0.168432
    17  C   -0.177217
    18  C   -0.003434
    19  C    0.148786
    20  C    0.110198
    21  C    0.012991
    22  O   -0.249358
    23  C    0.062256
    24  N   -0.340994
    25  C    0.041204
    26  C   -0.028225
    27  C   -0.023989
    28  C    0.074670
    29  C    0.076088
    30  C    0.035087
    31  C   -0.004449
    32  N   -0.310551
    33  C    0.080388
    34  C   -0.168880
    35  C    0.008605
    36  C    0.082849
    37  C    0.127110
    38  C    0.046183
    39  O   -0.187713
    40  C   -0.005582
    41  C    0.213764
    42  O   -0.259337
    43  O   -0.304192
    44  C    0.157831
    45  H   -0.017675
    46  H   -0.016563
    47  H   -0.040931
    48  H    0.001173
    49  H   -0.004690
    50  H    0.025710
    51  H    0.016943
    52  H    0.016714
    53  H    0.010135
    54  H    0.042785
    55  H    0.019190
    56  H    0.017808
    57  H    0.005300
    58  H    0.027201
    59  H    0.039401
    60  H    0.036981
    61  H    0.036633
    62  H    0.032170
    63  H    0.016401
    64  H    0.009816
    65  H    0.023370
    66  H    0.012677
    67  H    0.005005
    68  H    0.006284
    69  H    0.005288
    70  H    0.007850
    71  H    0.017557
    72  H    0.029849
    73  H    0.048879
    74  H    0.009530
    75  H    0.046105
    76  H    0.035485
    77  H    0.044009
    78  H    0.045797
    79  H    0.052256
    80  Mg   0.837430
    81  C   -0.016297
    82  C   -0.088032
    83  C   -0.046199
    84  C   -0.065640
    85  N   -0.254935
    86  C   -0.047716
    87  C   -0.015439
    88  C   -0.091375
    89  C    0.046602
    90  C    0.113899
    91  C    0.062528
    92  C   -0.077224
    93  H    0.033468
    94  N   -0.423366
    95  C    0.162909
    96  C   -0.175761
    97  C   -0.008628
    98  C    0.152043
    99  C    0.100059
   100  C    0.014693
   101  O   -0.253666
   102  C    0.061520
   103  N   -0.350190
   104  C    0.037559
   105  C   -0.019794
   106  C   -0.034576
   107  C    0.089286
   108  C    0.073663
   109  C    0.034843
   110  C   -0.007544
   111  N   -0.324327
   112  C    0.079115
   113  C   -0.163460
   114  C    0.003193
   115  C    0.096030
   116  C    0.131281
   117  C    0.042963
   118  O   -0.187324
   119  C    0.000458
   120  C    0.210690
   121  O   -0.252151
   122  O   -0.304081
   123  C    0.152481
   124  H   -0.020895
   125  H   -0.016178
   126  H   -0.041414
   127  H    0.003241
   128  H   -0.006661
   129  H    0.035479
   130  H    0.011490
   131  H    0.014568
   132  H    0.012843
   133  H    0.037153
   134  H    0.021736
   135  H    0.018366
   136  H    0.008153
   137  H    0.023835
   138  H    0.039103
   139  H    0.036883
   140  H    0.035682
   141  H    0.033867
   142  H    0.013793
   143  H    0.011845
   144  H    0.025021
   145  H    0.012599
   146  H    0.005743
   147  H    0.005911
   148  H    0.003035
   149  H    0.010765
   150  H    0.017398
   151  H    0.030374
   152  H    0.045817
   153  H    0.007618
   154  H    0.047002
   155  H    0.040785
   156  H    0.044072
   157  H    0.049042
   158  H    0.052631
 Sum of Mulliken charges =  -0.00000
 Mulliken charges with hydrogens summed into heavy atoms:
               1
     1  Mg   0.838668
     2  C   -0.003819
     3  C   -0.112586
     4  C   -0.062095
     5  C   -0.104398
     6  N   -0.256703
     7  C   -0.053014
     8  C   -0.012688
     9  C   -0.091580
    10  C    0.045948
    11  C    0.164122
    12  C    0.106305
    13  C   -0.000996
    15  N   -0.433218
    16  C    0.168432
    17  C   -0.177217
    18  C   -0.003434
    19  C    0.148786
    20  C    0.182100
    21  C    0.012991
    22  O   -0.249358
    23  C    0.168040
    24  N   -0.340994
    25  C    0.041204
    26  C   -0.011824
    27  C   -0.014173
    28  C    0.074670
    29  C    0.117140
    30  C    0.046659
    31  C    0.050806
    32  N   -0.310551
    33  C    0.080388
    34  C   -0.168880
    35  C    0.008605
    36  C    0.082849
    37  C    0.231625
    38  C    0.046183
    39  O   -0.187713
    40  C    0.029903
    41  C    0.213764
    42  O   -0.259337
    43  O   -0.304192
    44  C    0.299893
    80  Mg   0.837430
    81  C   -0.016297
    82  C   -0.108927
    83  C   -0.062377
    84  C   -0.107054
    85  N   -0.254935
    86  C   -0.047716
    87  C   -0.012197
    88  C   -0.098035
    89  C    0.046602
    90  C    0.175436
    91  C    0.112524
    92  C   -0.003654
    94  N   -0.423366
    95  C    0.162909
    96  C   -0.175761
    97  C   -0.008628
    98  C    0.152043
    99  C    0.171150
   100  C    0.014693
   101  O   -0.253666
   102  C    0.167952
   103  N   -0.350190
   104  C    0.037559
   105  C   -0.006001
   106  C   -0.022731
   107  C    0.089286
   108  C    0.117026
   109  C    0.043789
   110  C    0.050993
   111  N   -0.324327
   112  C    0.079115
   113  C   -0.163460
   114  C    0.003193
   115  C    0.096030
   116  C    0.231717
   117  C    0.042963
   118  O   -0.187324
   119  C    0.041243
   120  C    0.210690
   121  O   -0.252151
   122  O   -0.304081
   123  C    0.298225
 Electronic spatial extent (au):  <R**2>=          97363.1612
 Charge=              0.0000 electrons
 Dipole moment (field-independent basis, Debye):
    X=             -4.9599    Y=             -1.8325    Z=             -6.8244  Tot=              8.6332
 Quadrupole moment (field-independent basis, Debye-Ang):
   XX=           -518.4842   YY=           -545.7299   ZZ=           -454.3319
   XY=             -0.9916   XZ=              1.0206   YZ=            -43.9773
 Traceless Quadrupole moment (field-independent basis, Debye-Ang):
   XX=            -12.3022   YY=            -39.5479   ZZ=             51.8501
   XY=             -0.9916   XZ=              1.0206   YZ=            -43.9773
 Octapole moment (field-independent basis, Debye-Ang**2):
  XXX=           -314.5720  YYY=            348.0603  ZZZ=            -85.1652  XYY=            107.0707
  XXY=            -35.2240  XXZ=           -189.1509  XZZ=           -112.2766  YZZ=           -150.7835
  YYZ=           -168.1592  XYZ=           -123.2225
 Hexadecapole moment (field-independent basis, Debye-Ang**3):
 XXXX=         -66775.9000 YYYY=         -42026.5361 ZZZZ=         -24467.7582 XXXY=           -383.4118
 XXXZ=            116.9299 YYYX=           1362.9924 YYYZ=          -1405.7754 ZZZX=           -546.4494
 ZZZY=             28.5504 XXYY=         -18240.9726 XXZZ=         -14205.6039 YYZZ=         -10959.9646
 XXYZ=           -790.4588 YYXZ=            717.5720 ZZXY=           -275.5561
 N-N= 1.550869195409D+04 E-N=-4.049859165891D+04  KE= 4.028800737935D+03
 Leave Link  601 at Fri Sep  3 21:43:07 2021, MaxMem= 23488102400 cpu:              15.1 elap:               0.8
 (Enter /sw/apps/gaussian-16.0/g16/l9999.exe)
 1\1\GINC-BP1-COMPUTE00107\SP\RCAM-B3LYP TD-FC\def2SVP\C68H72Mg2N8O8\OF
 15641\03-Sep-2021\0\\#p cam-b3lyp/Def2SVP td=(nstates=5)\\TDDFT excite
 d states in gaussian\\0,1\Mg,0,0.,0.,0.\C,0,-0.217,-2.218,2.801\C,0,-1
 .255,2.442,2.026\C,0,-0.245,1.85,-2.564\C,0,0.146,-2.824,-2.037\N,0,-0
 .617,-0.009,2.126\C,0,-0.594,-0.908,3.105\C,0,-0.936,-0.309,4.502\C,0,
 -1.773,0.964,4.032\C,0,-1.155,1.168,2.66\C,0,-3.263,0.685,3.863\C,0,0.
 345,0.11,5.299\C,0,0.124,0.397,6.787\H,0,1.168,0.033,7.733\N,0,-0.185,
 1.961,-0.152\C,0,-0.703,2.8,0.777\C,0,-0.62,4.156,0.193\C,0,-0.187,4.0
 15,-1.225\C,0,-0.214,2.583,-1.38\C,0,-0.887,5.406,0.974\C,0,0.181,5.01
 3,-2.277\O,0,0.303,4.69,-3.508\C,0,0.31,6.414,-1.837\N,0,-0.265,-0.413
 ,-2.029\C,0,-0.279,0.569,-2.937\C,0,-0.196,0.024,-4.332\C,0,0.124,-1.5
 33,-4.18\C,0,0.086,-1.632,-2.635\C,0,-1.451,0.205,-5.197\C,0,1.373,-2.
 07,-4.923\C,0,2.626,-1.49,-4.306\N,0,0.15,-2.144,0.303\C,0,0.173,-3.13
 6,-0.688\C,0,0.173,-4.438,0.004\C,0,0.133,-4.111,1.358\C,0,0.083,-2.69
 5,1.502\C,0,0.149,-5.715,-0.623\C,0,0.096,-4.629,2.716\O,0,0.208,-5.74
 7,3.221\C,0,-0.255,-3.428,3.701\C,0,0.717,-3.482,4.848\O,0,1.931,-3.25
 5,4.669\O,0,0.038,-3.556,6.003\C,0,0.943,-3.583,7.183\H,0,-1.859,3.22,
 2.497\H,0,-0.218,2.453,-3.474\H,0,0.276,-3.747,-2.605\H,0,-1.554,-0.94
 9,5.132\H,0,-1.585,1.831,4.665\H,0,-3.484,-0.377,3.969\H,0,-3.511,1.02
 7,2.858\H,0,-3.852,1.301,4.543\H,0,0.669,1.096,4.966\H,0,1.13,-0.639,5
 .189\H,0,-0.844,0.026,7.125\H,0,0.062,1.477,6.921\H,0,-1.344,5.186,1.9
 38\H,0,-1.651,5.963,0.432\H,0,0.007,6.02,1.084\H,0,-0.635,6.744,-1.405
 \H,0,0.665,6.97,-2.704\H,0,1.048,6.466,-1.036\H,0,0.608,0.501,-4.891\H
 ,0,-0.692,-2.156,-4.547\H,0,-1.267,0.74,-6.129\H,0,-2.204,0.714,-4.596
 \H,0,-1.967,-0.72,-5.453\H,0,1.356,-1.759,-5.967\H,0,1.452,-3.157,-4.9
 02\H,0,2.714,-0.522,-4.798\H,0,3.487,-2.121,-4.529\H,0,2.495,-1.303,-3
 .24\H,0,0.867,-6.333,-0.084\H,0,0.404,-5.642,-1.68\H,0,-0.891,-5.999,-
 0.463\H,0,-1.283,-3.581,4.028\H,0,0.698,-4.478,7.755\H,0,0.833,-2.619,
 7.68\H,0,2.,-3.754,6.976\Mg,0,8.94075,0.80607,0.68685\C,0,8.90148,-2.4
 0879,2.28128\C,0,7.72007,2.0986,3.59785\C,0,8.53797,3.56703,-0.82388\C
 ,0,9.05425,-0.86542,-2.36912\N,0,8.41963,-0.13451,2.61972\C,0,8.50467,
 -1.35404,3.1295\C,0,8.22146,-1.43526,4.65356\C,0,7.32588,-0.11065,4.80
 265\C,0,7.87472,0.6895,3.62316\C,0,5.84493,-0.35566,4.56581\C,0,9.5322
 8,-1.3419,5.51091\C,0,9.36593,-1.72277,6.98367\H,0,10.46611,-2.41119,7
 .65311\N,0,8.70472,2.6408,1.4056\C,0,8.21657,2.98399,2.61606\C,0,8.227
 11,4.45463,2.65191\C,0,8.60667,4.95403,1.30237\C,0,8.61102,3.71321,0.5
 5374\C,0,7.9748,5.23983,3.90619\C,0,8.90264,6.32354,0.77037\O,0,8.9782
 7,6.55526,-0.48797\C,0,9.00877,7.40341,1.7624\N,0,8.60067,1.28565,-1.3
 0732\C,0,8.51581,2.56715,-1.7054\C,0,8.54575,2.67364,-3.21144\C,0,8.91
 338,1.20917,-3.73846\C,0,8.94614,0.45595,-2.3905\C,0,7.24854,3.14091,-
 3.87121\C,0,10.14085,1.08853,-4.68261\C,0,11.40867,1.4099,-3.92448\N,0
 ,9.15874,-1.24475,0.04288\C,0,9.1543,-1.72711,-1.28429\C,0,9.21688,-3.
 20131,-1.21194\C,0,9.23026,-3.47752,0.16357\C,0,9.15921,-2.26226,0.896
 78\C,0,9.205,-4.09002,-2.32377\C,0,9.2776,-4.52133,1.16203\O,0,9.43167
 ,-5.74171,1.1363\C,0,8.93924,-3.88237,2.57753\C,0,9.96259,-4.3725,3.56
 497\O,0,11.15766,-4.04805,3.45028\O,0,9.33194,-4.96004,4.59814\C,0,10.
 30456,-5.4528,5.60958\H,0,7.12623,2.56952,4.38172\H,0,8.50973,4.49733,
 -1.39591\H,0,9.19204,-1.45464,-3.27825\H,0,7.65437,-2.30445,4.96452\H,
 0,7.53093,0.40142,5.73919\H,0,5.65317,-1.36021,4.21905\H,0,5.54309,0.3
 6659,3.81861\H,0,5.27399,-0.1137,5.46681\H,0,9.81411,-0.28675,5.6204\H
 ,0,10.31676,-1.92762,5.07257\H,0,8.41764,-2.2411,7.1708\H,0,9.29091,-0
 .80564,7.57295\H,0,7.56053,4.60679,4.70057\H,0,7.17401,5.95267,3.68154
 \H,0,8.85534,5.79175,4.24191\H,0,8.07912,7.47208,2.3223\H,0,9.31199,8.
 28843,1.19966\H,0,9.79144,7.14089,2.4829\H,0,9.31289,3.3664,-3.53497\H
 ,0,8.09309,0.76917,-4.32444\H,0,7.37799,4.04372,-4.49751\H,0,6.51561,3
 .31821,-3.09538\H,0,6.75229,2.39707,-4.49221\H,0,10.06944,1.81938,-5.4
 9188\H,0,10.23921,0.10983,-5.14029\H,0,11.44508,2.50294,-3.95663\H,0,1
 2.27271,0.97146,-4.4197\H,0,11.32395,1.1137,-2.87246\H,0,9.95401,-4.84
 54,-2.12659\H,0,9.405,-3.5643,-3.25511\H,0,8.17564,-4.45458,-2.27108\H
 ,0,7.9293,-4.19531,2.84524\H,0,10.10393,-6.51906,5.75282\H,0,10.17996,
 -4.79413,6.48957\H,0,11.35174,-5.47018,5.33107\\Version=ES64L-G16RevA.
 03\State=1-A\HF=-4069.811933\RMSD=6.457e-09\PG=C01 [X(C68H72Mg2N8O8)]\
 \@


 CHINESE FORTUNE COOKIE OF JAN 1 1967 SAY....
 ALL THINGS ARE DIFFICULT BEFORE THEY ARE EASY.
 WE LEARN SO LITTLE AND FORGET SO MUCH.
 YOU WILL OVERCOME OBSTACLES TO ACHIEVE SUCCESS.
 AH SO.
 Job cpu time:       0 days 15 hours 41 minutes  0.6 seconds.
 Elapsed time:       0 days  0 hours 39 minutes 56.3 seconds.
 File lengths (MBytes):  RWF=  13225 Int=      0 D2E=      0 Chk=    574 Scr=      1
 Normal termination of Gaussian 16 at Fri Sep  3 21:43:07 2021.
