 Entering Gaussian System, Link 0=g16
 Initial command:
 /sw/apps/gaussian-16.0/g16/l1.exe "/tmp/Gau-76813.inp" -scrdir="/tmp/"
 Entering Link 1 = /sw/apps/gaussian-16.0/g16/l1.exe PID=     76814.
  
 Copyright (c) 1988,1990,1992,1993,1995,1998,2003,2009,2016,
            Gaussian, Inc.  All Rights Reserved.
  
 This is part of the Gaussian(R) 16 program.  It is based on
 the Gaussian(R) 09 system (copyright 2009, Gaussian, Inc.),
 the Gaussian(R) 03 system (copyright 2003, Gaussian, Inc.),
 the Gaussian(R) 98 system (copyright 1998, Gaussian, Inc.),
 the Gaussian(R) 94 system (copyright 1995, Gaussian, Inc.),
 the Gaussian 92(TM) system (copyright 1992, Gaussian, Inc.),
 the Gaussian 90(TM) system (copyright 1990, Gaussian, Inc.),
 the Gaussian 88(TM) system (copyright 1988, Gaussian, Inc.),
 the Gaussian 86(TM) system (copyright 1986, Carnegie Mellon
 University), and the Gaussian 82(TM) system (copyright 1983,
 Carnegie Mellon University). Gaussian is a federally registered
 trademark of Gaussian, Inc.
  
 This software contains proprietary and confidential information,
 including trade secrets, belonging to Gaussian, Inc.
  
 This software is provided under written license and may be
 used, copied, transmitted, or stored only in accord with that
 written license.
  
 The following legend is applicable only to US Government
 contracts under FAR:
  
                    RESTRICTED RIGHTS LEGEND
  
 Use, reproduction and disclosure by the US Government is
 subject to restrictions as set forth in subparagraphs (a)
 and (c) of the Commercial Computer Software - Restricted
 Rights clause in FAR 52.227-19.
  
 Gaussian, Inc.
 340 Quinnipiac St., Bldg. 40, Wallingford CT 06492
  
  
 ---------------------------------------------------------------
 Warning -- This program may not be used in any manner that
 competes with the business of Gaussian, Inc. or will provide
 assistance to any competitor of Gaussian, Inc.  The licensee
 of this program is prohibited from giving any competitor of
 Gaussian, Inc. access to this program.  By using this program,
 the user acknowledges that Gaussian, Inc. is engaged in the
 business of creating and licensing software in the field of
 computational chemistry and represents and warrants to the
 licensee that it is not a competitor of Gaussian, Inc. and that
 it will not use this program in any manner prohibited above.
 ---------------------------------------------------------------
  

 Cite this work as:
 Gaussian 16, Revision A.03,
 M. J. Frisch, G. W. Trucks, H. B. Schlegel, G. E. Scuseria, 
 M. A. Robb, J. R. Cheeseman, G. Scalmani, V. Barone, 
 G. A. Petersson, H. Nakatsuji, X. Li, M. Caricato, A. V. Marenich, 
 J. Bloino, B. G. Janesko, R. Gomperts, B. Mennucci, H. P. Hratchian, 
 J. V. Ortiz, A. F. Izmaylov, J. L. Sonnenberg, D. Williams-Young, 
 F. Ding, F. Lipparini, F. Egidi, J. Goings, B. Peng, A. Petrone, 
 T. Henderson, D. Ranasinghe, V. G. Zakrzewski, J. Gao, N. Rega, 
 G. Zheng, W. Liang, M. Hada, M. Ehara, K. Toyota, R. Fukuda, 
 J. Hasegawa, M. Ishida, T. Nakajima, Y. Honda, O. Kitao, H. Nakai, 
 T. Vreven, K. Throssell, J. A. Montgomery, Jr., J. E. Peralta, 
 F. Ogliaro, M. J. Bearpark, J. J. Heyd, E. N. Brothers, K. N. Kudin, 
 V. N. Staroverov, T. A. Keith, R. Kobayashi, J. Normand, 
 K. Raghavachari, A. P. Rendell, J. C. Burant, S. S. Iyengar, 
 J. Tomasi, M. Cossi, J. M. Millam, M. Klene, C. Adamo, R. Cammi, 
 J. W. Ochterski, R. L. Martin, K. Morokuma, O. Farkas, 
 J. B. Foresman, and D. J. Fox, Gaussian, Inc., Wallingford CT, 2016.
 
 ******************************************
 Gaussian 16:  ES64L-G16RevA.03 25-Dec-2016
                11-Sep-2021 
 ******************************************
 %nproc=24
 Will use up to   24 processors via shared memory.
 %mem=175gb
 -----------------------------------
 #p cam-b3lyp/Def2SVP td=(nstates=5)
 -----------------------------------
 1/38=1,172=1/1;
 2/12=2,17=6,18=5,40=1/2;
 3/5=43,7=101,11=9,25=1,30=1,74=-40/1,2,3,8;
 4//1;
 5/5=2,38=5/2;
 8/6=1,10=1,108=5/1;
 9/41=5,42=1,70=2/14;
 6/7=2,8=2,9=2,10=2/1;
 99/5=1,9=1/99;
 Leave Link    1 at Sat Sep 11 17:54:49 2021, MaxMem= 23488102400 cpu:               0.6 elap:               0.0
 (Enter /sw/apps/gaussian-16.0/g16/l101.exe)
 --------------------------------
 TDDFT excited states in gaussian
 --------------------------------
 Symbolic Z-matrix:
 Charge =  0 Multiplicity = 1
 Mg                    0.        0.        0. 
 C                    -0.217    -2.218     2.801 
 C                    -1.255     2.442     2.026 
 C                    -0.245     1.85     -2.564 
 C                     0.146    -2.824    -2.037 
 N                    -0.617    -0.009     2.126 
 C                    -0.594    -0.908     3.105 
 C                    -0.936    -0.309     4.502 
 C                    -1.773     0.964     4.032 
 C                    -1.155     1.168     2.66 
 C                    -3.263     0.685     3.863 
 C                     0.345     0.11      5.299 
 C                     0.124     0.397     6.787 
 H                     1.168     0.033     7.733 
 N                    -0.185     1.961    -0.152 
 C                    -0.703     2.8       0.777 
 C                    -0.62      4.156     0.193 
 C                    -0.187     4.015    -1.225 
 C                    -0.214     2.583    -1.38 
 C                    -0.887     5.406     0.974 
 C                     0.181     5.013    -2.277 
 O                     0.303     4.69     -3.508 
 C                     0.31      6.414    -1.837 
 N                    -0.265    -0.413    -2.029 
 C                    -0.279     0.569    -2.937 
 C                    -0.196     0.024    -4.332 
 C                     0.124    -1.533    -4.18 
 C                     0.086    -1.632    -2.635 
 C                    -1.451     0.205    -5.197 
 C                     1.373    -2.07     -4.923 
 C                     2.626    -1.49     -4.306 
 N                     0.15     -2.144     0.303 
 C                     0.173    -3.136    -0.688 
 C                     0.173    -4.438     0.004 
 C                     0.133    -4.111     1.358 
 C                     0.083    -2.695     1.502 
 C                     0.149    -5.715    -0.623 
 C                     0.096    -4.629     2.716 
 O                     0.208    -5.747     3.221 
 C                    -0.255    -3.428     3.701 
 C                     0.717    -3.482     4.848 
 O                     1.931    -3.255     4.669 
 O                     0.038    -3.556     6.003 
 C                     0.943    -3.583     7.183 
 H                    -1.859     3.22      2.497 
 H                    -0.218     2.453    -3.474 
 H                     0.276    -3.747    -2.605 
 H                    -1.554    -0.949     5.132 
 H                    -1.585     1.831     4.665 
 H                    -3.484    -0.377     3.969 
 H                    -3.511     1.027     2.858 
 H                    -3.852     1.301     4.543 
 H                     0.669     1.096     4.966 
 H                     1.13     -0.639     5.189 
 H                    -0.844     0.026     7.125 
 H                     0.062     1.477     6.921 
 H                    -1.344     5.186     1.938 
 H                    -1.651     5.963     0.432 
 H                     0.007     6.02      1.084 
 H                    -0.635     6.744    -1.405 
 H                     0.665     6.97     -2.704 
 H                     1.048     6.466    -1.036 
 H                     0.608     0.501    -4.891 
 H                    -0.692    -2.156    -4.547 
 H                    -1.267     0.74     -6.129 
 H                    -2.204     0.714    -4.596 
 H                    -1.967    -0.72     -5.453 
 H                     1.356    -1.759    -5.967 
 H                     1.452    -3.157    -4.902 
 H                     2.714    -0.522    -4.798 
 H                     3.487    -2.121    -4.529 
 H                     2.495    -1.303    -3.24 
 H                     0.867    -6.333    -0.084 
 H                     0.404    -5.642    -1.68 
 H                    -0.891    -5.999    -0.463 
 H                    -1.283    -3.581     4.028 
 H                     0.698    -4.478     7.755 
 H                     0.833    -2.619     7.68 
 H                     2.       -3.754     6.976 
 Mg                    13.13285   1.18968   1.00378 
 C                     15.36583   1.80812   3.74429 
 C                     10.88262   0.03543   3.29262 
 C                     11.32264   0.21711  -1.41379 
 C                     15.90765   1.30391  -1.10172 
 N                     13.22774   0.99756   3.20523 
 C                     14.10361   1.32211   4.14431 
 C                     13.56919   1.18976   5.59566 
 C                     12.41196   0.10895   5.32818 
 C                     12.12472   0.41668   3.86002 
 C                     12.89563  -1.32812   5.42921 
 C                     12.98083   2.53815   6.14127 
 C                     12.72504   2.56449   7.64979 
 H                     12.94323   3.81536   8.37102 
 N                     11.20426   0.72478   0.94938 
 C                     10.44149   0.29521   1.97648 
 C                     9.10004   0.07178   1.41544 
 C                     9.17382   0.24671  -0.06059 
 C                     10.60532   0.38557  -0.23836 
 C                     7.89453  -0.19332   2.26977 
 C                     8.13001   0.27061  -1.13581 
 O                     8.44036   0.19785  -2.37727 
 C                     6.72931   0.28754  -0.68946 
 N                     13.57422   0.6041   -0.94163 
 C                     12.59566   0.27949  -1.80474 
 C                     13.12774   0.16036  -3.21296 
 C                     14.62776   0.71171  -3.15355 
 C                     14.73781   0.98288  -1.63705 
 C                     13.12655  -1.24774  -3.80765 
 C                     14.99666   1.85547  -4.13762 
 C                     14.24919   3.11619  -3.76716 
 N                     15.2268   1.67819   1.21538 
 C                     16.21834   1.63574   0.21082 
 C                     17.50956   1.94107   0.86039 
 C                     17.18036   2.11873   2.21263 
 C                     15.78571   1.91709   2.39649 
 C                     18.77781   1.97555   0.21505 
 C                     17.69719   2.42055   3.52811 
 O                     18.79069   2.76638   3.97351 
 C                     16.56538   2.10849   4.59956 
 C                     16.48007   3.27964   5.53959 
 O                     16.10375   4.3922    5.13069 
 O                     16.64608   2.84446   6.8019 
 C                     16.55867   3.96826   7.77209 
 H                     10.19525  -0.55584   3.89826 
 H                     10.72722  -0.01045  -2.30102 
 H                     16.80452   1.45496  -1.70627 
 H                     14.28474   0.79943   6.30939 
 H                     11.53525   0.30974   5.93844 
 H                     13.96743  -1.38506   5.54819 
 H                     12.59136  -1.80641   4.50741 
 H                     12.36295  -1.84976   6.22951 
 H                     11.95297   2.65478   5.77435 
 H                     13.60574   3.36548   5.86622 
 H                     13.21844   1.73208   8.16612 
 H                     11.65983   2.39439   7.82415 
 H                     8.17774  -0.42928   3.30297 
 H                     7.4348   -1.115     1.89691 
 H                     7.15916   0.61269   2.22232 
 H                     6.5354   -0.58859  -0.07524 
 H                     6.13418   0.39394  -1.59852 
 H                     6.57736   1.16212  -0.0471 
 H                     12.55434   0.77468  -3.89628 
 H                     15.36052  -0.07493  -3.38611 
 H                     12.56124  -1.32058  -4.75591 
 H                     12.72251  -1.92913  -3.07077 
 H                     14.112   -1.66994  -3.99693 
 H                     14.68521   1.59691  -5.15266 
 H                     16.05961   2.06989  -4.1717 
 H                     13.27366   2.97309  -4.24145 
 H                     14.75644   3.99304  -4.16451 
 H                     14.08445   3.17242  -2.68487 
 H                     19.29311   2.85079   0.58779 
 H                     18.6724   2.00621  -0.86741 
 H                     19.19796   1.02694   0.55986 
 H                     16.84672   1.18943   5.11506 
 H                     17.48164   3.95531   8.36 
 H                     15.60998   3.81643   8.32044 
 H                     16.57541   4.97621   7.37434 
 
 ITRead=  0  0  0  0  0  0  0  0  0  0  0  0  0  0  0  0  0  0  0  0
 ITRead=  0  0  0  0  0  0  0  0  0  0  0  0  0  0  0  0  0  0  0  0
 ITRead=  0  0  0  0  0  0  0  0  0  0  0  0  0  0  0  0  0  0  0  0
 ITRead=  0  0  0  0  0  0  0  0  0  0  0  0  0  0  0  0  0  0  0  0
 ITRead=  0  0  0  0  0  0  0  0  0  0  0  0  0  0  0  0  0  0  0  0
 ITRead=  0  0  0  0  0  0  0  0  0  0  0  0  0  0  0  0  0  0  0  0
 ITRead=  0  0  0  0  0  0  0  0  0  0  0  0  0  0  0  0  0  0  0  0
 ITRead=  0  0  0  0  0  0  0  0  0  0  0  0  0  0  0  0  0  0
 MicOpt= -1 -1 -1 -1 -1 -1 -1 -1 -1 -1 -1 -1 -1 -1 -1 -1 -1 -1 -1 -1
 MicOpt= -1 -1 -1 -1 -1 -1 -1 -1 -1 -1 -1 -1 -1 -1 -1 -1 -1 -1 -1 -1
 MicOpt= -1 -1 -1 -1 -1 -1 -1 -1 -1 -1 -1 -1 -1 -1 -1 -1 -1 -1 -1 -1
 MicOpt= -1 -1 -1 -1 -1 -1 -1 -1 -1 -1 -1 -1 -1 -1 -1 -1 -1 -1 -1 -1
 MicOpt= -1 -1 -1 -1 -1 -1 -1 -1 -1 -1 -1 -1 -1 -1 -1 -1 -1 -1 -1 -1
 MicOpt= -1 -1 -1 -1 -1 -1 -1 -1 -1 -1 -1 -1 -1 -1 -1 -1 -1 -1 -1 -1
 MicOpt= -1 -1 -1 -1 -1 -1 -1 -1 -1 -1 -1 -1 -1 -1 -1 -1 -1 -1 -1 -1
 MicOpt= -1 -1 -1 -1 -1 -1 -1 -1 -1 -1 -1 -1 -1 -1 -1 -1 -1 -1
 NAtoms=    158 NQM=      158 NQMF=       0 NMMI=      0 NMMIF=      0
                NMic=       0 NMicF=      0.
                    Isotopes and Nuclear Properties:
 (Nuclear quadrupole moments (NQMom) in fm**2, nuclear magnetic moments (NMagM)
  in nuclear magnetons)

  Atom         1           2           3           4           5           6           7           8           9          10
 IAtWgt=          24          12          12          12          12          14          12          12          12          12
 AtmWgt=  23.9850450  12.0000000  12.0000000  12.0000000  12.0000000  14.0030740  12.0000000  12.0000000  12.0000000  12.0000000
 NucSpn=           0           0           0           0           0           2           0           0           0           0
 AtZEff=  -0.0000000  -0.0000000  -0.0000000  -0.0000000  -0.0000000  -0.0000000  -0.0000000  -0.0000000  -0.0000000  -0.0000000
 NQMom=    0.0000000   0.0000000   0.0000000   0.0000000   0.0000000   2.0440000   0.0000000   0.0000000   0.0000000   0.0000000
 NMagM=    0.0000000   0.0000000   0.0000000   0.0000000   0.0000000   0.4037610   0.0000000   0.0000000   0.0000000   0.0000000
 AtZNuc=  12.0000000   6.0000000   6.0000000   6.0000000   6.0000000   7.0000000   6.0000000   6.0000000   6.0000000   6.0000000

  Atom        11          12          13          14          15          16          17          18          19          20
 IAtWgt=          12          12          12           1          14          12          12          12          12          12
 AtmWgt=  12.0000000  12.0000000  12.0000000   1.0078250  14.0030740  12.0000000  12.0000000  12.0000000  12.0000000  12.0000000
 NucSpn=           0           0           0           1           2           0           0           0           0           0
 AtZEff=  -0.0000000  -0.0000000  -0.0000000  -0.0000000  -0.0000000  -0.0000000  -0.0000000  -0.0000000  -0.0000000  -0.0000000
 NQMom=    0.0000000   0.0000000   0.0000000   0.0000000   2.0440000   0.0000000   0.0000000   0.0000000   0.0000000   0.0000000
 NMagM=    0.0000000   0.0000000   0.0000000   2.7928460   0.4037610   0.0000000   0.0000000   0.0000000   0.0000000   0.0000000
 AtZNuc=   6.0000000   6.0000000   6.0000000   1.0000000   7.0000000   6.0000000   6.0000000   6.0000000   6.0000000   6.0000000

  Atom        21          22          23          24          25          26          27          28          29          30
 IAtWgt=          12          16          12          14          12          12          12          12          12          12
 AtmWgt=  12.0000000  15.9949146  12.0000000  14.0030740  12.0000000  12.0000000  12.0000000  12.0000000  12.0000000  12.0000000
 NucSpn=           0           0           0           2           0           0           0           0           0           0
 AtZEff=  -0.0000000  -0.0000000  -0.0000000  -0.0000000  -0.0000000  -0.0000000  -0.0000000  -0.0000000  -0.0000000  -0.0000000
 NQMom=    0.0000000   0.0000000   0.0000000   2.0440000   0.0000000   0.0000000   0.0000000   0.0000000   0.0000000   0.0000000
 NMagM=    0.0000000   0.0000000   0.0000000   0.4037610   0.0000000   0.0000000   0.0000000   0.0000000   0.0000000   0.0000000
 AtZNuc=   6.0000000   8.0000000   6.0000000   7.0000000   6.0000000   6.0000000   6.0000000   6.0000000   6.0000000   6.0000000

  Atom        31          32          33          34          35          36          37          38          39          40
 IAtWgt=          12          14          12          12          12          12          12          12          16          12
 AtmWgt=  12.0000000  14.0030740  12.0000000  12.0000000  12.0000000  12.0000000  12.0000000  12.0000000  15.9949146  12.0000000
 NucSpn=           0           2           0           0           0           0           0           0           0           0
 AtZEff=  -0.0000000  -0.0000000  -0.0000000  -0.0000000  -0.0000000  -0.0000000  -0.0000000  -0.0000000  -0.0000000  -0.0000000
 NQMom=    0.0000000   2.0440000   0.0000000   0.0000000   0.0000000   0.0000000   0.0000000   0.0000000   0.0000000   0.0000000
 NMagM=    0.0000000   0.4037610   0.0000000   0.0000000   0.0000000   0.0000000   0.0000000   0.0000000   0.0000000   0.0000000
 AtZNuc=   6.0000000   7.0000000   6.0000000   6.0000000   6.0000000   6.0000000   6.0000000   6.0000000   8.0000000   6.0000000

  Atom        41          42          43          44          45          46          47          48          49          50
 IAtWgt=          12          16          16          12           1           1           1           1           1           1
 AtmWgt=  12.0000000  15.9949146  15.9949146  12.0000000   1.0078250   1.0078250   1.0078250   1.0078250   1.0078250   1.0078250
 NucSpn=           0           0           0           0           1           1           1           1           1           1
 AtZEff=  -0.0000000  -0.0000000  -0.0000000  -0.0000000  -0.0000000  -0.0000000  -0.0000000  -0.0000000  -0.0000000  -0.0000000
 NQMom=    0.0000000   0.0000000   0.0000000   0.0000000   0.0000000   0.0000000   0.0000000   0.0000000   0.0000000   0.0000000
 NMagM=    0.0000000   0.0000000   0.0000000   0.0000000   2.7928460   2.7928460   2.7928460   2.7928460   2.7928460   2.7928460
 AtZNuc=   6.0000000   8.0000000   8.0000000   6.0000000   1.0000000   1.0000000   1.0000000   1.0000000   1.0000000   1.0000000

  Atom        51          52          53          54          55          56          57          58          59          60
 IAtWgt=           1           1           1           1           1           1           1           1           1           1
 AtmWgt=   1.0078250   1.0078250   1.0078250   1.0078250   1.0078250   1.0078250   1.0078250   1.0078250   1.0078250   1.0078250
 NucSpn=           1           1           1           1           1           1           1           1           1           1
 AtZEff=  -0.0000000  -0.0000000  -0.0000000  -0.0000000  -0.0000000  -0.0000000  -0.0000000  -0.0000000  -0.0000000  -0.0000000
 NQMom=    0.0000000   0.0000000   0.0000000   0.0000000   0.0000000   0.0000000   0.0000000   0.0000000   0.0000000   0.0000000
 NMagM=    2.7928460   2.7928460   2.7928460   2.7928460   2.7928460   2.7928460   2.7928460   2.7928460   2.7928460   2.7928460
 AtZNuc=   1.0000000   1.0000000   1.0000000   1.0000000   1.0000000   1.0000000   1.0000000   1.0000000   1.0000000   1.0000000

  Atom        61          62          63          64          65          66          67          68          69          70
 IAtWgt=           1           1           1           1           1           1           1           1           1           1
 AtmWgt=   1.0078250   1.0078250   1.0078250   1.0078250   1.0078250   1.0078250   1.0078250   1.0078250   1.0078250   1.0078250
 NucSpn=           1           1           1           1           1           1           1           1           1           1
 AtZEff=  -0.0000000  -0.0000000  -0.0000000  -0.0000000  -0.0000000  -0.0000000  -0.0000000  -0.0000000  -0.0000000  -0.0000000
 NQMom=    0.0000000   0.0000000   0.0000000   0.0000000   0.0000000   0.0000000   0.0000000   0.0000000   0.0000000   0.0000000
 NMagM=    2.7928460   2.7928460   2.7928460   2.7928460   2.7928460   2.7928460   2.7928460   2.7928460   2.7928460   2.7928460
 AtZNuc=   1.0000000   1.0000000   1.0000000   1.0000000   1.0000000   1.0000000   1.0000000   1.0000000   1.0000000   1.0000000

  Atom        71          72          73          74          75          76          77          78          79          80
 IAtWgt=           1           1           1           1           1           1           1           1           1          24
 AtmWgt=   1.0078250   1.0078250   1.0078250   1.0078250   1.0078250   1.0078250   1.0078250   1.0078250   1.0078250  23.9850450
 NucSpn=           1           1           1           1           1           1           1           1           1           0
 AtZEff=  -0.0000000  -0.0000000  -0.0000000  -0.0000000  -0.0000000  -0.0000000  -0.0000000  -0.0000000  -0.0000000  -0.0000000
 NQMom=    0.0000000   0.0000000   0.0000000   0.0000000   0.0000000   0.0000000   0.0000000   0.0000000   0.0000000   0.0000000
 NMagM=    2.7928460   2.7928460   2.7928460   2.7928460   2.7928460   2.7928460   2.7928460   2.7928460   2.7928460   0.0000000
 AtZNuc=   1.0000000   1.0000000   1.0000000   1.0000000   1.0000000   1.0000000   1.0000000   1.0000000   1.0000000  12.0000000

  Atom        81          82          83          84          85          86          87          88          89          90
 IAtWgt=          12          12          12          12          14          12          12          12          12          12
 AtmWgt=  12.0000000  12.0000000  12.0000000  12.0000000  14.0030740  12.0000000  12.0000000  12.0000000  12.0000000  12.0000000
 NucSpn=           0           0           0           0           2           0           0           0           0           0
 AtZEff=  -0.0000000  -0.0000000  -0.0000000  -0.0000000  -0.0000000  -0.0000000  -0.0000000  -0.0000000  -0.0000000  -0.0000000
 NQMom=    0.0000000   0.0000000   0.0000000   0.0000000   2.0440000   0.0000000   0.0000000   0.0000000   0.0000000   0.0000000
 NMagM=    0.0000000   0.0000000   0.0000000   0.0000000   0.4037610   0.0000000   0.0000000   0.0000000   0.0000000   0.0000000
 AtZNuc=   6.0000000   6.0000000   6.0000000   6.0000000   7.0000000   6.0000000   6.0000000   6.0000000   6.0000000   6.0000000

  Atom        91          92          93          94          95          96          97          98          99         100
 IAtWgt=          12          12           1          14          12          12          12          12          12          12
 AtmWgt=  12.0000000  12.0000000   1.0078250  14.0030740  12.0000000  12.0000000  12.0000000  12.0000000  12.0000000  12.0000000
 NucSpn=           0           0           1           2           0           0           0           0           0           0
 AtZEff=  -0.0000000  -0.0000000  -0.0000000  -0.0000000  -0.0000000  -0.0000000  -0.0000000  -0.0000000  -0.0000000  -0.0000000
 NQMom=    0.0000000   0.0000000   0.0000000   2.0440000   0.0000000   0.0000000   0.0000000   0.0000000   0.0000000   0.0000000
 NMagM=    0.0000000   0.0000000   2.7928460   0.4037610   0.0000000   0.0000000   0.0000000   0.0000000   0.0000000   0.0000000
 AtZNuc=   6.0000000   6.0000000   1.0000000   7.0000000   6.0000000   6.0000000   6.0000000   6.0000000   6.0000000   6.0000000

  Atom       101         102         103         104         105         106         107         108         109         110
 IAtWgt=          16          12          14          12          12          12          12          12          12          12
 AtmWgt=  15.9949146  12.0000000  14.0030740  12.0000000  12.0000000  12.0000000  12.0000000  12.0000000  12.0000000  12.0000000
 NucSpn=           0           0           2           0           0           0           0           0           0           0
 AtZEff=  -0.0000000  -0.0000000  -0.0000000  -0.0000000  -0.0000000  -0.0000000  -0.0000000  -0.0000000  -0.0000000  -0.0000000
 NQMom=    0.0000000   0.0000000   2.0440000   0.0000000   0.0000000   0.0000000   0.0000000   0.0000000   0.0000000   0.0000000
 NMagM=    0.0000000   0.0000000   0.4037610   0.0000000   0.0000000   0.0000000   0.0000000   0.0000000   0.0000000   0.0000000
 AtZNuc=   8.0000000   6.0000000   7.0000000   6.0000000   6.0000000   6.0000000   6.0000000   6.0000000   6.0000000   6.0000000

  Atom       111         112         113         114         115         116         117         118         119         120
 IAtWgt=          14          12          12          12          12          12          12          16          12          12
 AtmWgt=  14.0030740  12.0000000  12.0000000  12.0000000  12.0000000  12.0000000  12.0000000  15.9949146  12.0000000  12.0000000
 NucSpn=           2           0           0           0           0           0           0           0           0           0
 AtZEff=  -0.0000000  -0.0000000  -0.0000000  -0.0000000  -0.0000000  -0.0000000  -0.0000000  -0.0000000  -0.0000000  -0.0000000
 NQMom=    2.0440000   0.0000000   0.0000000   0.0000000   0.0000000   0.0000000   0.0000000   0.0000000   0.0000000   0.0000000
 NMagM=    0.4037610   0.0000000   0.0000000   0.0000000   0.0000000   0.0000000   0.0000000   0.0000000   0.0000000   0.0000000
 AtZNuc=   7.0000000   6.0000000   6.0000000   6.0000000   6.0000000   6.0000000   6.0000000   8.0000000   6.0000000   6.0000000

  Atom       121         122         123         124         125         126         127         128         129         130
 IAtWgt=          16          16          12           1           1           1           1           1           1           1
 AtmWgt=  15.9949146  15.9949146  12.0000000   1.0078250   1.0078250   1.0078250   1.0078250   1.0078250   1.0078250   1.0078250
 NucSpn=           0           0           0           1           1           1           1           1           1           1
 AtZEff=  -0.0000000  -0.0000000  -0.0000000  -0.0000000  -0.0000000  -0.0000000  -0.0000000  -0.0000000  -0.0000000  -0.0000000
 NQMom=    0.0000000   0.0000000   0.0000000   0.0000000   0.0000000   0.0000000   0.0000000   0.0000000   0.0000000   0.0000000
 NMagM=    0.0000000   0.0000000   0.0000000   2.7928460   2.7928460   2.7928460   2.7928460   2.7928460   2.7928460   2.7928460
 AtZNuc=   8.0000000   8.0000000   6.0000000   1.0000000   1.0000000   1.0000000   1.0000000   1.0000000   1.0000000   1.0000000

  Atom       131         132         133         134         135         136         137         138         139         140
 IAtWgt=           1           1           1           1           1           1           1           1           1           1
 AtmWgt=   1.0078250   1.0078250   1.0078250   1.0078250   1.0078250   1.0078250   1.0078250   1.0078250   1.0078250   1.0078250
 NucSpn=           1           1           1           1           1           1           1           1           1           1
 AtZEff=  -0.0000000  -0.0000000  -0.0000000  -0.0000000  -0.0000000  -0.0000000  -0.0000000  -0.0000000  -0.0000000  -0.0000000
 NQMom=    0.0000000   0.0000000   0.0000000   0.0000000   0.0000000   0.0000000   0.0000000   0.0000000   0.0000000   0.0000000
 NMagM=    2.7928460   2.7928460   2.7928460   2.7928460   2.7928460   2.7928460   2.7928460   2.7928460   2.7928460   2.7928460
 AtZNuc=   1.0000000   1.0000000   1.0000000   1.0000000   1.0000000   1.0000000   1.0000000   1.0000000   1.0000000   1.0000000

  Atom       141         142         143         144         145         146         147         148         149         150
 IAtWgt=           1           1           1           1           1           1           1           1           1           1
 AtmWgt=   1.0078250   1.0078250   1.0078250   1.0078250   1.0078250   1.0078250   1.0078250   1.0078250   1.0078250   1.0078250
 NucSpn=           1           1           1           1           1           1           1           1           1           1
 AtZEff=  -0.0000000  -0.0000000  -0.0000000  -0.0000000  -0.0000000  -0.0000000  -0.0000000  -0.0000000  -0.0000000  -0.0000000
 NQMom=    0.0000000   0.0000000   0.0000000   0.0000000   0.0000000   0.0000000   0.0000000   0.0000000   0.0000000   0.0000000
 NMagM=    2.7928460   2.7928460   2.7928460   2.7928460   2.7928460   2.7928460   2.7928460   2.7928460   2.7928460   2.7928460
 AtZNuc=   1.0000000   1.0000000   1.0000000   1.0000000   1.0000000   1.0000000   1.0000000   1.0000000   1.0000000   1.0000000

  Atom       151         152         153         154         155         156         157         158
 IAtWgt=           1           1           1           1           1           1           1           1
 AtmWgt=   1.0078250   1.0078250   1.0078250   1.0078250   1.0078250   1.0078250   1.0078250   1.0078250
 NucSpn=           1           1           1           1           1           1           1           1
 AtZEff=  -0.0000000  -0.0000000  -0.0000000  -0.0000000  -0.0000000  -0.0000000  -0.0000000  -0.0000000
 NQMom=    0.0000000   0.0000000   0.0000000   0.0000000   0.0000000   0.0000000   0.0000000   0.0000000
 NMagM=    2.7928460   2.7928460   2.7928460   2.7928460   2.7928460   2.7928460   2.7928460   2.7928460
 AtZNuc=   1.0000000   1.0000000   1.0000000   1.0000000   1.0000000   1.0000000   1.0000000   1.0000000
 Leave Link  101 at Sat Sep 11 17:54:49 2021, MaxMem= 23488102400 cpu:               3.8 elap:               0.2
 (Enter /sw/apps/gaussian-16.0/g16/l202.exe)
 Stoichiometry    C68H72Mg2N8O8
 Framework group  C1[X(C68H72Mg2N8O8)]
 Deg. of freedom   468
 Full point group                 C1      NOp   1
 Largest Abelian subgroup         C1      NOp   1
 Largest concise Abelian subgroup C1      NOp   1
                         Standard orientation:                         
 ---------------------------------------------------------------------
 Center     Atomic      Atomic             Coordinates (Angstroms)
 Number     Number       Type             X           Y           Z
 ---------------------------------------------------------------------
      1         12           0        6.796663   -0.516520    0.434772
      2          6           0        7.020405    2.542449   -1.410454
      3          6           0        7.485522    1.299085    3.240501
      4          6           0        7.053545   -3.255452    2.012392
      5          6           0        7.253663   -2.198385   -2.583198
      6          7           0        7.182506    1.640809    0.747340
      7          6           0        7.180309    2.716352   -0.033925
      8          6           0        7.288465    4.054483    0.756696
      9          6           0        7.987768    3.508383    2.081365
     10          6           0        7.495081    2.072547    2.041878
     11          6           0        9.511374    3.507014    2.009788
     12          6           0        5.885625    4.678053    1.064804
     13          6           0        5.907806    6.133546    1.540622
     14          1           0        4.830078    7.020946    1.130291
     15          7           0        6.726089   -0.889851    2.373455
     16          6           0        7.023830   -0.028126    3.375486
     17          6           0        6.817532   -0.778338    4.632986
     18          6           0        6.559177   -2.201184    4.276819
     19          6           0        6.798291   -2.177202    2.856387
     20          6           0        6.827247   -0.135276    5.985807
     21          6           0        6.170338   -3.395524    5.089523
     22          8           0        6.223632   -4.583810    4.620791
     23          6           0        5.805093   -3.142988    6.495177
     24          7           0        7.327233   -2.448515   -0.151341
     25          6           0        7.301739   -3.464796    0.717857
     26          6           0        7.441084   -4.784661    0.018944
     27          6           0        7.323317   -4.472580   -1.542623
     28          6           0        7.212163   -2.929781   -1.467221
     29          6           0        8.743223   -5.551003    0.289433
     30          6           0        6.244640   -5.251882   -2.336073
     31          6           0        4.866206   -4.823438   -1.885014
     32          7           0        6.910943    0.031519   -1.662283
     33          6           0        7.128246   -0.829086   -2.748014
     34          6           0        7.234055    0.013967   -3.953059
     35          6           0        7.086535    1.316116   -3.479254
     36          6           0        6.926613    1.290015   -2.064320
     37          6           0        7.498509   -0.447848   -5.272614
     38          6           0        7.051445    2.725116   -3.836105
     39          8           0        7.041344    3.350946   -4.897109
     40          6           0        7.129205    3.583252   -2.496933
     41          6           0        6.058816    4.637871   -2.570116
     42          8           0        4.850716    4.325947   -2.546360
     43          8           0        6.616545    5.848704   -2.417258
     44          6           0        5.604987    6.938569   -2.450395
     45          1           0        7.924400    1.723085    4.145791
     46          1           0        7.039817   -4.231063    2.502732
     47          1           0        7.311722   -2.658698   -3.571224
     48          1           0        7.918779    4.810023    0.287346
     49          1           0        7.617335    4.011696    2.974214
     50          1           0        9.863476    3.760984    1.010066
     51          1           0        9.814258    2.493648    2.274069
     52          1           0        9.935744    4.156080    2.776209
     53          1           0        5.466309    4.199855    1.949994
     54          1           0        5.226602    4.591399    0.200220
     55          1           0        6.876646    6.598501    1.356028
     56          1           0        5.806801    6.139640    2.625961
     57          1           0        7.206364    0.884949    5.941568
     58          1           0        7.560328   -0.671590    6.588028
     59          1           0        5.850976   -0.180476    6.468697
     60          1           0        6.645342   -2.672721    7.006429
     61          1           0        5.470217   -4.099330    6.895325
     62          1           0        4.986978   -2.422686    6.523477
     63          1           0        6.642449   -5.466544    0.308158
     64          1           0        8.250966   -4.687237   -2.073720
     65          1           0        8.586480   -6.553931    0.687267
     66          1           0        9.352086   -4.952482    0.966448
     67          1           0        9.405114   -5.645562   -0.571018
     68          1           0        6.328333   -6.320426   -2.140739
     69          1           0        6.313592   -5.105394   -3.414052
     70          1           0        4.698502   -5.435773   -0.999716
     71          1           0        4.128011   -5.042923   -2.657094
     72          1           0        4.857733   -3.780869   -1.566481
     73          1           0        6.819413    0.097012   -5.928301
     74          1           0        7.348267   -1.524218   -5.352979
     75          1           0        8.545026   -0.163121   -5.380259
     76          1           0        8.128422    4.016019   -2.459523
     77          1           0        5.908934    7.634948   -3.231999
     78          1           0        5.529061    7.321920   -1.432710
     79          1           0        4.609014    6.661425   -2.797624
     80         12           0       -6.407440   -0.829710   -0.234743
     81          6           0       -8.979278    1.606719    0.338425
     82          6           0       -4.273020    1.772712   -0.788159
     83          6           0       -4.237386   -2.941005   -1.183795
     84          6           0       -8.935265   -3.170259   -0.761643
     85          7           0       -6.705623    1.361670   -0.199594
     86          6           0       -7.711382    2.173021    0.091112
     87          6           0       -7.319168    3.671169    0.197220
     88          6           0       -6.003115    3.640934   -0.722545
     89          6           0       -5.608274    2.177349   -0.536221
     90          6           0       -6.293182    3.873525   -2.196002
     91          6           0       -6.981696    4.097909    1.668960
     92          6           0       -6.891678    5.608584    1.895924
     93          1           0       -7.353716    6.149587    3.171186
     94          7           0       -4.438378   -0.656344   -0.411628
     95          6           0       -3.735983    0.478860   -0.609709
     96          6           0       -2.325166    0.070020   -0.691087
     97          6           0       -2.266900   -1.417028   -0.689696
     98          6           0       -3.677285   -1.736191   -0.784704
     99          6           0       -1.191085    1.053462   -0.680520
    100          6           0       -1.129188   -2.390668   -0.627690
    101          8           0       -1.294614   -3.636486   -0.879495
    102          6           0        0.201321   -1.827733   -0.355060
    103          7           0       -6.557758   -2.720406   -1.086216
    104          6           0       -5.458815   -3.447575   -1.353537
    105          6           0       -5.818786   -4.872177   -1.701841
    106          6           0       -7.378085   -5.013281   -1.375878
    107          6           0       -7.682806   -3.556929   -0.961632
    108          6           0       -5.562223   -5.288061   -3.150157
    109          6           0       -7.794916   -6.158341   -0.412677
    110          6           0       -7.270325   -5.879991    0.977536
    111          7           0       -8.559114   -0.865164   -0.042171
    112          6           0       -9.424522   -1.940670   -0.339579
    113          6           0      -10.806378   -1.449871   -0.160670
    114          6           0      -10.648387   -0.105680    0.209030
    115          6           0       -9.266335    0.223912    0.237519
    116          6           0      -11.992585   -2.204098   -0.384641
    117          6           0      -11.336885    1.112268    0.571342
    118          8           0      -12.508111    1.413751    0.797305
    119          6           0      -10.291749    2.309573    0.548298
    120          6           0      -10.466880    3.103423    1.813864
    121          8           0      -10.205768    2.596612    2.919110
    122          8           0      -10.703240    4.389780    1.497971
    123          6           0      -10.872979    5.219412    2.720565
    124          1           0       -3.578500    2.504349   -1.201954
    125          1           0       -3.526601   -3.737716   -1.415141
    126          1           0       -9.775925   -3.865583   -0.811540
    127          1           0       -8.045391    4.361184   -0.215406
    128          1           0       -5.231131    4.297167   -0.329157
    129          1           0       -7.353577    3.903407   -2.398051
    130          1           0       -5.831186    3.047527   -2.720734
    131          1           0       -5.781002    4.775432   -2.543238
    132          1           0       -5.946740    3.811750    1.896354
    133          1           0       -7.681742    3.669785    2.359819
    134          1           0       -7.317782    6.177052    1.060325
    135          1           0       -5.837446    5.895829    1.905536
    136          1           0       -1.546143    2.078649   -0.842734
    137          1           0       -0.572810    0.838001   -1.558690
    138          1           0       -0.572235    0.973120    0.215718
    139          1           0        0.447927   -1.096433   -1.121125
    140          1           0        0.868343   -2.686823   -0.260523
    141          1           0        0.163714   -1.286059    0.596665
    142          1           0       -5.266468   -5.572034   -1.086822
    143          1           0       -7.967631   -5.211885   -2.282970
    144          1           0       -4.895895   -6.166654   -3.240477
    145          1           0       -5.148203   -4.440712   -3.680364
    146          1           0       -6.455154   -5.510697   -3.731792
    147          1           0       -7.346176   -7.102707   -0.730430
    148          1           0       -8.867719   -6.312120   -0.363215
    149          1           0       -6.240050   -6.245207    0.930242
    150          1           0       -7.848428   -6.424669    1.721296
    151          1           0       -7.229353   -4.802371    1.174286
    152          1           0      -12.659219   -1.987996    0.439624
    153          1           0      -11.779353   -3.268627   -0.455933
    154          1           0      -12.312613   -1.784534   -1.342153
    155          1           0      -10.497014    2.906534   -0.341122
    156          1           0      -11.842022    5.720646    2.634542
    157          1           0       -9.975273    5.863851    2.771302
    158          1           0      -10.985860    4.701669    3.665894
 ---------------------------------------------------------------------
 Rotational constants (GHZ):           0.0260428           0.0073510           0.0066854
 Leave Link  202 at Sat Sep 11 17:54:49 2021, MaxMem= 23488102400 cpu:               0.2 elap:               0.0
 (Enter /sw/apps/gaussian-16.0/g16/l301.exe)
 Standard basis: def2SVP (5D, 7F)
 Ernie: Thresh=  0.10000D-02 Tol=  0.10000D-05 Strict=F.
 There are  1658 symmetry adapted cartesian basis functions of A   symmetry.
 There are  1572 symmetry adapted basis functions of A   symmetry.
  1572 basis functions,  2678 primitive gaussians,  1658 cartesian basis functions
   312 alpha electrons      312 beta electrons
       nuclear repulsion energy     14351.7906046541 Hartrees.
 IExCor=20419 DFT=T Ex+Corr=CAM-B3LYP ExCW=0 ScaHFX=  1.000000
 ScaDFX=  1.000000  1.000000  1.000000  0.810000 ScalE2=  1.000000  1.000000
 IRadAn=      5 IRanWt=     -1 IRanGd=            0 ICorTp=0 IEmpDi=  4
 HFx  wShort=  0.000000 wLong=  0.330000 cFull=  0.190000 cShort=  0.000000 cLong=  0.460000
 DFx  wShort=  0.000000 wLong=  0.330000 cFull=  0.190000 cShort=  0.000000 cLong=  0.460000
 NAtoms=  158 NActive=  158 NUniq=  158 SFac= 1.00D+00 NAtFMM=   60 NAOKFM=T Big=T
 Integral buffers will be    131072 words long.
 Raffenetti 1 integral format.
 Two-electron integral symmetry is turned on.
 Leave Link  301 at Sat Sep 11 17:54:49 2021, MaxMem= 23488102400 cpu:               1.3 elap:               0.1
 (Enter /sw/apps/gaussian-16.0/g16/l302.exe)
 NPDir=0 NMtPBC=     1 NCelOv=     1 NCel=       1 NClECP=     1 NCelD=      1
         NCelK=      1 NCelE2=     1 NClLst=     1 CellRange=     0.0.
 One-electron integrals computed using PRISM.
 One-electron integral symmetry used in STVInt
   1 Symmetry operations used in ECPInt.
 ECPInt:  NShTT=  271216 NPrTT=  987664 LenC2=  123403 LenP2D=  269881.
 LDataN:  DoStor=T MaxTD1= 4 Len=   56
 NBasis=  1572 RedAO= T EigKep=  3.36D-04  NBF=  1572
 NBsUse=  1572 1.00D-06 EigRej= -1.00D+00 NBFU=  1572
 Precomputing XC quadrature grid using
 IXCGrd= 4 IRadAn=           5 IRanWt=          -1 IRanGd=           0 AccXCQ= 0.00D+00.
 Generated NRdTot=       0 NPtTot=           0 NUsed=           0 NTot=          32
 NSgBfM=  1487  1480  1480  1486  1487 MxSgAt=   158 MxSgA2=   158.
 Leave Link  302 at Sat Sep 11 17:54:54 2021, MaxMem= 23488102400 cpu:             126.5 elap:               5.3
 (Enter /sw/apps/gaussian-16.0/g16/l303.exe)
 DipDrv:  MaxL=1.
 Leave Link  303 at Sat Sep 11 17:54:55 2021, MaxMem= 23488102400 cpu:               9.1 elap:               0.4
 (Enter /sw/apps/gaussian-16.0/g16/l308.exe)
 Leave Link  308 at Sat Sep 11 17:54:56 2021, MaxMem= 23488102400 cpu:              12.5 elap:               0.6
 (Enter /sw/apps/gaussian-16.0/g16/l401.exe)
 ExpMin= 3.36D-02 ExpMax= 4.95D+03 ExpMxC= 7.45D+02 IAcc=3 IRadAn=         5 AccDes= 0.00D+00
 Harris functional with IExCor=20419 and IRadAn=       5 diagonalized for initial guess.
 HarFok:  IExCor=20419 AccDes= 0.00D+00 IRadAn=         5 IDoV= 1 UseB2=F ITyADJ=14
 ICtDFT=  3500011 ScaDFX=  1.000000  1.000000  1.000000  1.000000
 FoFCou: FMM=F IPFlag=           0 FMFlag=      100000 FMFlg1=        2001
         NFxFlg=           0 DoJE=T BraDBF=F KetDBF=T FulRan=T
         wScrn=  0.000000 ICntrl=       500 IOpCl=  0 I1Cent=   200000004 NGrid=           0
         NMat0=    1 NMatS0=      1 NMatT0=    0 NMatD0=    1 NMtDS0=    0 NMtDT0=    0
 Petite list used in FoFCou.
 Harris En= -3918.65804083196    
 JPrj=0 DoOrth=F DoCkMO=F.
 Leave Link  401 at Sat Sep 11 17:55:03 2021, MaxMem= 23488102400 cpu:             176.5 elap:               7.4
 (Enter /sw/apps/gaussian-16.0/g16/l502.exe)
 Integral symmetry usage will be decided dynamically.
 Closed shell SCF:
 Using DIIS extrapolation, IDIIS=  1040.
 NGot= 23488102400 LenX= 23482547354 LenY= 23479796732
 Requested convergence on RMS density matrix=1.00D-08 within 128 cycles.
 Requested convergence on MAX density matrix=1.00D-06.
 Requested convergence on             energy=1.00D-06.
 No special actions if energy rises.
 Fock matrices will be formed incrementally for  20 cycles.

 Cycle   1  Pass 1  IDiag  1:
 FoFJK:  IHMeth= 1 ICntrl=       0 DoSepK=T KAlg= 0 I1Cent=           0 FoldK=F
 IRaf=         1 NMat=       1 IRICut=       1 DoRegI=T DoRafI=F ISym2E= 0 IDoP0=0 IntGTp=1.
 FoFCou: FMM=T IPFlag=           0 FMFlag=      100000 FMFlg1=        2001
         NFxFlg=           0 DoJE=T BraDBF=F KetDBF=F FulRan=T
         wScrn=  0.000000 ICntrl=       500 IOpCl=  0 I1Cent=           0 NGrid=           0
         NMat0=    1 NMatS0=      1 NMatT0=    0 NMatD0=    1 NMtDS0=    0 NMtDT0=    0
 Symmetry not used in FoFCou.
 FMM levels:  10  Number of levels for PrismC:   9
 E= -4068.94974115260    
 DIIS: error= 2.04D-02 at cycle   1 NSaved=   1.
 NSaved= 1 IEnMin= 1 EnMin= -4068.94974115260     IErMin= 1 ErrMin= 2.04D-02
 ErrMax= 2.04D-02  0.00D+00 EMaxC= 1.00D-01 BMatC= 1.69D+00 BMatP= 1.69D+00
 IDIUse=3 WtCom= 7.96D-01 WtEn= 2.04D-01
 Coeff-Com:  0.100D+01
 Coeff-En:   0.100D+01
 Coeff:      0.100D+01
 Gap=     0.120 Goal=   None    Shift=    0.000
 GapD=    0.120 DampG=1.000 DampE=0.500 DampFc=0.5000 IDamp=-1.
 Damping current iteration by 5.00D-01
 RMSDP=1.57D-03 MaxDP=1.35D-01              OVMax= 2.02D-01

 Cycle   2  Pass 1  IDiag  1:
 RMSU=  7.70D-04    CP:  9.82D-01
 E= -4069.33864000859     Delta-E=       -0.388898855992 Rises=F Damp=T
 DIIS: error= 1.27D-02 at cycle   2 NSaved=   2.
 NSaved= 2 IEnMin= 2 EnMin= -4069.33864000859     IErMin= 2 ErrMin= 1.27D-02
 ErrMax= 1.27D-02  0.00D+00 EMaxC= 1.00D-01 BMatC= 3.06D-01 BMatP= 1.69D+00
 IDIUse=3 WtCom= 8.73D-01 WtEn= 1.27D-01
 Coeff-Com: -0.213D+00 0.121D+01
 Coeff-En:   0.000D+00 0.100D+01
 Coeff:     -0.186D+00 0.119D+01
 Gap=     0.133 Goal=   None    Shift=    0.000
 RMSDP=7.65D-04 MaxDP=9.42D-02 DE=-3.89D-01 OVMax= 1.89D-01

 Cycle   3  Pass 1  IDiag  1:
 RMSU=  7.32D-04    CP:  9.68D-01  1.24D+00
 E= -4069.62846672708     Delta-E=       -0.289826718486 Rises=F Damp=F
 DIIS: error= 1.56D-02 at cycle   3 NSaved=   3.
 NSaved= 3 IEnMin= 3 EnMin= -4069.62846672708     IErMin= 2 ErrMin= 1.27D-02
 ErrMax= 1.56D-02  0.00D+00 EMaxC= 1.00D-01 BMatC= 2.01D-01 BMatP= 3.06D-01
 IDIUse=3 WtCom= 8.44D-01 WtEn= 1.56D-01
 Coeff-Com: -0.267D+00 0.651D+00 0.616D+00
 Coeff-En:   0.000D+00 0.000D+00 0.100D+01
 Coeff:     -0.225D+00 0.550D+00 0.676D+00
 Gap=     0.121 Goal=   None    Shift=    0.000
 RMSDP=5.07D-04 MaxDP=4.88D-02 DE=-2.90D-01 OVMax= 1.43D-01

 Cycle   4  Pass 1  IDiag  1:
 RMSU=  2.65D-04    CP:  9.65D-01  1.54D+00  5.07D-01
 E= -4069.76584699569     Delta-E=       -0.137380268614 Rises=F Damp=F
 DIIS: error= 7.18D-03 at cycle   4 NSaved=   4.
 NSaved= 4 IEnMin= 4 EnMin= -4069.76584699569     IErMin= 4 ErrMin= 7.18D-03
 ErrMax= 7.18D-03  0.00D+00 EMaxC= 1.00D-01 BMatC= 4.99D-02 BMatP= 2.01D-01
 IDIUse=3 WtCom= 9.28D-01 WtEn= 7.18D-02
 Coeff-Com: -0.109D+00 0.226D+00 0.408D+00 0.475D+00
 Coeff-En:   0.000D+00 0.000D+00 0.219D+00 0.781D+00
 Coeff:     -0.101D+00 0.210D+00 0.395D+00 0.497D+00
 Gap=     0.120 Goal=   None    Shift=    0.000
 RMSDP=1.99D-04 MaxDP=2.05D-02 DE=-1.37D-01 OVMax= 6.26D-02

 Cycle   5  Pass 1  IDiag  1:
 RMSU=  7.53D-05    CP:  9.64D-01  1.49D+00  6.90D-01  5.50D-01
 E= -4069.81100162119     Delta-E=       -0.045154625499 Rises=F Damp=F
 DIIS: error= 7.78D-04 at cycle   5 NSaved=   5.
 NSaved= 5 IEnMin= 5 EnMin= -4069.81100162119     IErMin= 5 ErrMin= 7.78D-04
 ErrMax= 7.78D-04  0.00D+00 EMaxC= 1.00D-01 BMatC= 1.15D-03 BMatP= 4.99D-02
 IDIUse=3 WtCom= 9.92D-01 WtEn= 7.78D-03
 Coeff-Com: -0.357D-01 0.701D-01 0.164D+00 0.248D+00 0.553D+00
 Coeff-En:   0.000D+00 0.000D+00 0.000D+00 0.000D+00 0.100D+01
 Coeff:     -0.354D-01 0.695D-01 0.163D+00 0.246D+00 0.557D+00
 Gap=     0.120 Goal=   None    Shift=    0.000
 RMSDP=4.03D-05 MaxDP=4.16D-03 DE=-4.52D-02 OVMax= 1.65D-02

 Cycle   6  Pass 1  IDiag  1:
 RMSU=  2.99D-05    CP:  9.64D-01  1.49D+00  6.82D-01  6.21D-01  7.62D-01
 E= -4069.81199320043     Delta-E=       -0.000991579243 Rises=F Damp=F
 DIIS: error= 2.13D-04 at cycle   6 NSaved=   6.
 NSaved= 6 IEnMin= 6 EnMin= -4069.81199320043     IErMin= 6 ErrMin= 2.13D-04
 ErrMax= 2.13D-04  0.00D+00 EMaxC= 1.00D-01 BMatC= 1.73D-04 BMatP= 1.15D-03
 IDIUse=3 WtCom= 9.98D-01 WtEn= 2.13D-03
 Coeff-Com:  0.235D-02-0.686D-02 0.104D-01 0.390D-01 0.306D+00 0.649D+00
 Coeff-En:   0.000D+00 0.000D+00 0.000D+00 0.000D+00 0.103D+00 0.897D+00
 Coeff:      0.235D-02-0.684D-02 0.104D-01 0.389D-01 0.306D+00 0.650D+00
 Gap=     0.120 Goal=   None    Shift=    0.000
 RMSDP=1.57D-05 MaxDP=1.22D-03 DE=-9.92D-04 OVMax= 7.46D-03

 Cycle   7  Pass 1  IDiag  1:
 RMSU=  1.06D-05    CP:  9.64D-01  1.50D+00  6.87D-01  6.21D-01  8.63D-01
                    CP:  7.51D-01
 E= -4069.81217965331     Delta-E=       -0.000186452879 Rises=F Damp=F
 DIIS: error= 8.18D-05 at cycle   7 NSaved=   7.
 NSaved= 7 IEnMin= 7 EnMin= -4069.81217965331     IErMin= 7 ErrMin= 8.18D-05
 ErrMax= 8.18D-05  0.00D+00 EMaxC= 1.00D-01 BMatC= 2.02D-05 BMatP= 1.73D-04
 IDIUse=1 WtCom= 1.00D+00 WtEn= 0.00D+00
 Coeff-Com:  0.444D-02-0.970D-02-0.903D-02-0.403D-02 0.101D+00 0.329D+00
 Coeff-Com:  0.588D+00
 Coeff:      0.444D-02-0.970D-02-0.903D-02-0.403D-02 0.101D+00 0.329D+00
 Coeff:      0.588D+00
 Gap=     0.120 Goal=   None    Shift=    0.000
 RMSDP=6.37D-06 MaxDP=1.10D-03 DE=-1.86D-04 OVMax= 3.42D-03

 Cycle   8  Pass 1  IDiag  1:
 RMSU=  4.59D-06    CP:  9.64D-01  1.50D+00  6.88D-01  6.26D-01  8.67D-01
                    CP:  8.74D-01  8.24D-01
 E= -4069.81220452896     Delta-E=       -0.000024875648 Rises=F Damp=F
 DIIS: error= 5.17D-05 at cycle   8 NSaved=   8.
 NSaved= 8 IEnMin= 8 EnMin= -4069.81220452896     IErMin= 8 ErrMin= 5.17D-05
 ErrMax= 5.17D-05  0.00D+00 EMaxC= 1.00D-01 BMatC= 4.69D-06 BMatP= 2.02D-05
 IDIUse=1 WtCom= 1.00D+00 WtEn= 0.00D+00
 Coeff-Com:  0.214D-02-0.423D-02-0.770D-02-0.121D-01-0.120D-01 0.339D-01
 Coeff-Com:  0.345D+00 0.655D+00
 Coeff:      0.214D-02-0.423D-02-0.770D-02-0.121D-01-0.120D-01 0.339D-01
 Coeff:      0.345D+00 0.655D+00
 Gap=     0.120 Goal=   None    Shift=    0.000
 RMSDP=3.24D-06 MaxDP=3.76D-04 DE=-2.49D-05 OVMax= 1.20D-03

 Cycle   9  Pass 1  IDiag  1:
 RMSU=  1.88D-06    CP:  9.64D-01  1.50D+00  6.89D-01  6.27D-01  8.84D-01
                    CP:  9.00D-01  1.02D+00  9.34D-01
 E= -4069.81221192873     Delta-E=       -0.000007399773 Rises=F Damp=F
 DIIS: error= 1.92D-05 at cycle   9 NSaved=   9.
 NSaved= 9 IEnMin= 9 EnMin= -4069.81221192873     IErMin= 9 ErrMin= 1.92D-05
 ErrMax= 1.92D-05  0.00D+00 EMaxC= 1.00D-01 BMatC= 6.66D-07 BMatP= 4.69D-06
 IDIUse=1 WtCom= 1.00D+00 WtEn= 0.00D+00
 Coeff-Com:  0.468D-03-0.781D-03-0.266D-02-0.593D-02-0.212D-01-0.372D-01
 Coeff-Com:  0.105D+00 0.328D+00 0.635D+00
 Coeff:      0.468D-03-0.781D-03-0.266D-02-0.593D-02-0.212D-01-0.372D-01
 Coeff:      0.105D+00 0.328D+00 0.635D+00
 Gap=     0.120 Goal=   None    Shift=    0.000
 RMSDP=1.36D-06 MaxDP=1.45D-04 DE=-7.40D-06 OVMax= 7.33D-04

 Cycle  10  Pass 1  IDiag  1:
 RMSU=  9.12D-07    CP:  9.64D-01  1.50D+00  6.89D-01  6.28D-01  8.87D-01
                    CP:  9.13D-01  1.06D+00  1.09D+00  1.04D+00
 E= -4069.81221341280     Delta-E=       -0.000001484070 Rises=F Damp=F
 DIIS: error= 1.06D-05 at cycle  10 NSaved=  10.
 NSaved=10 IEnMin=10 EnMin= -4069.81221341280     IErMin=10 ErrMin= 1.06D-05
 ErrMax= 1.06D-05  0.00D+00 EMaxC= 1.00D-01 BMatC= 1.58D-07 BMatP= 6.66D-07
 IDIUse=1 WtCom= 1.00D+00 WtEn= 0.00D+00
 Coeff-Com: -0.414D-03 0.867D-03 0.118D-02 0.107D-02-0.392D-02-0.302D-01
 Coeff-Com: -0.461D-01-0.710D-01 0.253D+00 0.896D+00
 Coeff:     -0.414D-03 0.867D-03 0.118D-02 0.107D-02-0.392D-02-0.302D-01
 Coeff:     -0.461D-01-0.710D-01 0.253D+00 0.896D+00
 Gap=     0.120 Goal=   None    Shift=    0.000
 RMSDP=1.17D-06 MaxDP=1.26D-04 DE=-1.48D-06 OVMax= 5.95D-04

 Cycle  11  Pass 1  IDiag  1:
 RMSU=  4.94D-07    CP:  9.64D-01  1.50D+00  6.89D-01  6.28D-01  8.90D-01
                    CP:  9.23D-01  1.11D+00  1.20D+00  1.37D+00  1.36D+00
 E= -4069.81221412443     Delta-E=       -0.000000711632 Rises=F Damp=F
 DIIS: error= 3.94D-06 at cycle  11 NSaved=  11.
 NSaved=11 IEnMin=11 EnMin= -4069.81221412443     IErMin=11 ErrMin= 3.94D-06
 ErrMax= 3.94D-06  0.00D+00 EMaxC= 1.00D-01 BMatC= 5.52D-08 BMatP= 1.58D-07
 IDIUse=1 WtCom= 1.00D+00 WtEn= 0.00D+00
 Coeff-Com: -0.316D-03 0.615D-03 0.127D-02 0.203D-02 0.413D-02-0.826D-02
 Coeff-Com: -0.429D-01-0.126D+00-0.206D-01 0.459D+00 0.731D+00
 Coeff:     -0.316D-03 0.615D-03 0.127D-02 0.203D-02 0.413D-02-0.826D-02
 Coeff:     -0.429D-01-0.126D+00-0.206D-01 0.459D+00 0.731D+00
 Gap=     0.120 Goal=   None    Shift=    0.000
 RMSDP=6.41D-07 MaxDP=5.31D-05 DE=-7.12D-07 OVMax= 3.39D-04

 Cycle  12  Pass 1  IDiag  1:
 RMSU=  2.52D-07    CP:  9.64D-01  1.50D+00  6.89D-01  6.28D-01  8.91D-01
                    CP:  9.25D-01  1.13D+00  1.26D+00  1.52D+00  1.73D+00
                    CP:  1.20D+00
 E= -4069.81221435698     Delta-E=       -0.000000232543 Rises=F Damp=F
 DIIS: error= 2.31D-06 at cycle  12 NSaved=  12.
 NSaved=12 IEnMin=12 EnMin= -4069.81221435698     IErMin=12 ErrMin= 2.31D-06
 ErrMax= 2.31D-06  0.00D+00 EMaxC= 1.00D-01 BMatC= 1.32D-08 BMatP= 5.52D-08
 IDIUse=1 WtCom= 1.00D+00 WtEn= 0.00D+00
 Coeff-Com: -0.176D-05-0.120D-04 0.176D-03 0.494D-03 0.313D-02 0.378D-02
 Coeff-Com:  0.229D-02-0.335D-01-0.659D-01-0.717D-01 0.250D+00 0.911D+00
 Coeff:     -0.176D-05-0.120D-04 0.176D-03 0.494D-03 0.313D-02 0.378D-02
 Coeff:      0.229D-02-0.335D-01-0.659D-01-0.717D-01 0.250D+00 0.911D+00
 Gap=     0.120 Goal=   None    Shift=    0.000
 RMSDP=4.08D-07 MaxDP=3.09D-05 DE=-2.33D-07 OVMax= 2.36D-04

 Cycle  13  Pass 1  IDiag  1:
 RMSU=  1.58D-07    CP:  9.64D-01  1.50D+00  6.89D-01  6.28D-01  8.91D-01
                    CP:  9.25D-01  1.14D+00  1.29D+00  1.63D+00  1.95D+00
                    CP:  1.60D+00  1.27D+00
 E= -4069.81221443807     Delta-E=       -0.000000081094 Rises=F Damp=F
 DIIS: error= 1.16D-06 at cycle  13 NSaved=  13.
 NSaved=13 IEnMin=13 EnMin= -4069.81221443807     IErMin=13 ErrMin= 1.16D-06
 ErrMax= 1.16D-06  0.00D+00 EMaxC= 1.00D-01 BMatC= 7.33D-09 BMatP= 1.32D-08
 IDIUse=1 WtCom= 1.00D+00 WtEn= 0.00D+00
 Coeff-Com:  0.116D-03-0.236D-03-0.354D-03-0.436D-03 0.570D-03 0.494D-02
 Coeff-Com:  0.191D-01 0.219D-01-0.345D-01-0.236D+00-0.153D+00 0.597D+00
 Coeff-Com:  0.781D+00
 Coeff:      0.116D-03-0.236D-03-0.354D-03-0.436D-03 0.570D-03 0.494D-02
 Coeff:      0.191D-01 0.219D-01-0.345D-01-0.236D+00-0.153D+00 0.597D+00
 Coeff:      0.781D+00
 Gap=     0.120 Goal=   None    Shift=    0.000
 RMSDP=3.17D-07 MaxDP=1.91D-05 DE=-8.11D-08 OVMax= 1.73D-04

 Cycle  14  Pass 1  IDiag  1:
 RMSU=  7.37D-08    CP:  9.64D-01  1.50D+00  6.89D-01  6.28D-01  8.91D-01
                    CP:  9.26D-01  1.15D+00  1.31D+00  1.70D+00  2.13D+00
                    CP:  1.86D+00  1.78D+00  1.08D+00
 E= -4069.81221447007     Delta-E=       -0.000000032000 Rises=F Damp=F
 DIIS: error= 6.37D-07 at cycle  14 NSaved=  14.
 NSaved=14 IEnMin=14 EnMin= -4069.81221447007     IErMin=14 ErrMin= 6.37D-07
 ErrMax= 6.37D-07  0.00D+00 EMaxC= 1.00D-01 BMatC= 1.15D-09 BMatP= 7.33D-09
 IDIUse=1 WtCom= 1.00D+00 WtEn= 0.00D+00
 Coeff-Com:  0.649D-04-0.128D-03-0.239D-03-0.374D-03-0.462D-03 0.130D-02
 Coeff-Com:  0.106D-01 0.188D-01 0.260D-02-0.986D-01-0.142D+00 0.941D-01
 Coeff-Com:  0.405D+00 0.710D+00
 Coeff:      0.649D-04-0.128D-03-0.239D-03-0.374D-03-0.462D-03 0.130D-02
 Coeff:      0.106D-01 0.188D-01 0.260D-02-0.986D-01-0.142D+00 0.941D-01
 Coeff:      0.405D+00 0.710D+00
 Gap=     0.120 Goal=   None    Shift=    0.000
 RMSDP=9.77D-08 MaxDP=6.34D-06 DE=-3.20D-08 OVMax= 5.21D-05

 Cycle  15  Pass 1  IDiag  1:
 RMSU=  3.72D-08    CP:  9.64D-01  1.50D+00  6.89D-01  6.28D-01  8.91D-01
                    CP:  9.26D-01  1.15D+00  1.31D+00  1.71D+00  2.18D+00
                    CP:  1.97D+00  1.92D+00  1.33D+00  1.01D+00
 E= -4069.81221447386     Delta-E=       -0.000000003791 Rises=F Damp=F
 DIIS: error= 3.61D-07 at cycle  15 NSaved=  15.
 NSaved=15 IEnMin=15 EnMin= -4069.81221447386     IErMin=15 ErrMin= 3.61D-07
 ErrMax= 3.61D-07  0.00D+00 EMaxC= 1.00D-01 BMatC= 2.16D-10 BMatP= 1.15D-09
 IDIUse=1 WtCom= 1.00D+00 WtEn= 0.00D+00
 Coeff-Com:  0.630D-05-0.109D-04-0.352D-04-0.843D-04-0.299D-03-0.467D-03
 Coeff-Com:  0.127D-02 0.288D-02 0.829D-02 0.320D-03-0.332D-01-0.715D-01
 Coeff-Com:  0.324D-01 0.308D+00 0.753D+00
 Coeff:      0.630D-05-0.109D-04-0.352D-04-0.843D-04-0.299D-03-0.467D-03
 Coeff:      0.127D-02 0.288D-02 0.829D-02 0.320D-03-0.332D-01-0.715D-01
 Coeff:      0.324D-01 0.308D+00 0.753D+00
 Gap=     0.120 Goal=   None    Shift=    0.000
 RMSDP=3.95D-08 MaxDP=2.61D-06 DE=-3.79D-09 OVMax= 2.34D-05

 Cycle  16  Pass 1  IDiag  1:
 RMSU=  1.80D-08    CP:  9.64D-01  1.50D+00  6.89D-01  6.28D-01  8.91D-01
                    CP:  9.26D-01  1.15D+00  1.31D+00  1.72D+00  2.19D+00
                    CP:  1.99D+00  1.98D+00  1.40D+00  1.23D+00  1.13D+00
 E= -4069.81221447450     Delta-E=       -0.000000000640 Rises=F Damp=F
 DIIS: error= 2.01D-07 at cycle  16 NSaved=  16.
 NSaved=16 IEnMin=16 EnMin= -4069.81221447450     IErMin=16 ErrMin= 2.01D-07
 ErrMax= 2.01D-07  0.00D+00 EMaxC= 1.00D-01 BMatC= 7.56D-11 BMatP= 2.16D-10
 IDIUse=1 WtCom= 1.00D+00 WtEn= 0.00D+00
 Coeff-Com: -0.134D-04 0.272D-04 0.441D-04 0.495D-04-0.324D-04-0.617D-03
 Coeff-Com: -0.189D-02-0.398D-02 0.453D-02 0.249D-01 0.195D-01-0.642D-01
 Coeff-Com: -0.828D-01-0.293D-01 0.395D+00 0.739D+00
 Coeff:     -0.134D-04 0.272D-04 0.441D-04 0.495D-04-0.324D-04-0.617D-03
 Coeff:     -0.189D-02-0.398D-02 0.453D-02 0.249D-01 0.195D-01-0.642D-01
 Coeff:     -0.828D-01-0.293D-01 0.395D+00 0.739D+00
 Gap=     0.120 Goal=   None    Shift=    0.000
 RMSDP=2.19D-08 MaxDP=1.44D-06 DE=-6.40D-10 OVMax= 1.36D-05

 Cycle  17  Pass 1  IDiag  1:
 RMSU=  1.02D-08    CP:  9.64D-01  1.50D+00  6.89D-01  6.28D-01  8.91D-01
                    CP:  9.26D-01  1.15D+00  1.32D+00  1.72D+00  2.20D+00
                    CP:  2.01D+00  2.00D+00  1.45D+00  1.32D+00  1.43D+00
                    CP:  1.24D+00
 E= -4069.81221447494     Delta-E=       -0.000000000437 Rises=F Damp=F
 DIIS: error= 1.07D-07 at cycle  17 NSaved=  17.
 NSaved=17 IEnMin=17 EnMin= -4069.81221447494     IErMin=17 ErrMin= 1.07D-07
 ErrMax= 1.07D-07  0.00D+00 EMaxC= 1.00D-01 BMatC= 1.75D-11 BMatP= 7.56D-11
 IDIUse=1 WtCom= 1.00D+00 WtEn= 0.00D+00
 Coeff-Com: -0.742D-05 0.145D-04 0.290D-04 0.424D-04 0.776D-04-0.146D-03
 Coeff-Com: -0.101D-02-0.282D-02 0.347D-03 0.995D-02 0.178D-01-0.932D-02
 Coeff-Com: -0.400D-01-0.100D+00-0.218D-01 0.311D+00 0.836D+00
 Coeff:     -0.742D-05 0.145D-04 0.290D-04 0.424D-04 0.776D-04-0.146D-03
 Coeff:     -0.101D-02-0.282D-02 0.347D-03 0.995D-02 0.178D-01-0.932D-02
 Coeff:     -0.400D-01-0.100D+00-0.218D-01 0.311D+00 0.836D+00
 Gap=     0.120 Goal=   None    Shift=    0.000
 RMSDP=1.32D-08 MaxDP=9.29D-07 DE=-4.37D-10 OVMax= 7.80D-06

 Cycle  18  Pass 1  IDiag  1:
 RMSU=  4.89D-09    CP:  9.64D-01  1.50D+00  6.89D-01  6.28D-01  8.91D-01
                    CP:  9.26D-01  1.15D+00  1.32D+00  1.72D+00  2.20D+00
                    CP:  2.01D+00  2.01D+00  1.47D+00  1.39D+00  1.59D+00
                    CP:  1.64D+00  1.37D+00
 E= -4069.81221447513     Delta-E=       -0.000000000196 Rises=F Damp=F
 DIIS: error= 5.22D-08 at cycle  18 NSaved=  18.
 NSaved=18 IEnMin=18 EnMin= -4069.81221447513     IErMin=18 ErrMin= 5.22D-08
 ErrMax= 5.22D-08  0.00D+00 EMaxC= 1.00D-01 BMatC= 6.60D-12 BMatP= 1.75D-11
 IDIUse=1 WtCom= 1.00D+00 WtEn= 0.00D+00
 Coeff-Com:  0.128D-05-0.287D-05-0.176D-05 0.188D-05 0.613D-04 0.156D-03
 Coeff-Com:  0.293D-03-0.431D-04-0.116D-02-0.495D-02 0.144D-02 0.187D-01
 Coeff-Com:  0.148D-01-0.382D-01-0.152D+00-0.152D+00 0.372D+00 0.941D+00
 Coeff:      0.128D-05-0.287D-05-0.176D-05 0.188D-05 0.613D-04 0.156D-03
 Coeff:      0.293D-03-0.431D-04-0.116D-02-0.495D-02 0.144D-02 0.187D-01
 Coeff:      0.148D-01-0.382D-01-0.152D+00-0.152D+00 0.372D+00 0.941D+00
 Gap=     0.120 Goal=   None    Shift=    0.000
 RMSDP=1.06D-08 MaxDP=7.76D-07 DE=-1.96D-10 OVMax= 7.02D-06

 Cycle  19  Pass 1  IDiag  1:
 RMSU=  3.02D-09    CP:  9.64D-01  1.50D+00  6.89D-01  6.28D-01  8.91D-01
                    CP:  9.26D-01  1.15D+00  1.32D+00  1.72D+00  2.20D+00
                    CP:  2.01D+00  2.02D+00  1.48D+00  1.43D+00  1.73D+00
                    CP:  1.95D+00  1.91D+00  1.28D+00
 E= -4069.81221447501     Delta-E=        0.000000000127 Rises=F Damp=F
 DIIS: error= 4.28D-08 at cycle  19 NSaved=  19.
 NSaved=19 IEnMin=18 EnMin= -4069.81221447513     IErMin=19 ErrMin= 4.28D-08
 ErrMax= 4.28D-08  0.00D+00 EMaxC= 1.00D-01 BMatC= 2.28D-12 BMatP= 6.60D-12
 IDIUse=1 WtCom= 1.00D+00 WtEn= 0.00D+00
 Coeff-Com:  0.314D-05-0.637D-05-0.104D-04-0.126D-04 0.171D-04 0.141D-03
 Coeff-Com:  0.526D-03 0.838D-03-0.776D-03-0.672D-02-0.499D-02 0.147D-01
 Coeff-Com:  0.231D-01 0.794D-02-0.893D-01-0.206D+00-0.350D-01 0.579D+00
 Coeff-Com:  0.716D+00
 Coeff:      0.314D-05-0.637D-05-0.104D-04-0.126D-04 0.171D-04 0.141D-03
 Coeff:      0.526D-03 0.838D-03-0.776D-03-0.672D-02-0.499D-02 0.147D-01
 Coeff:      0.231D-01 0.794D-02-0.893D-01-0.206D+00-0.350D-01 0.579D+00
 Coeff:      0.716D+00
 Gap=     0.120 Goal=   None    Shift=    0.000
 RMSDP=5.84D-09 MaxDP=3.83D-07 DE= 1.27D-10 OVMax= 3.44D-06

 SCF Done:  E(RCAM-B3LYP) =  -4069.81221448     A.U. after   19 cycles
            NFock= 19  Conv=0.58D-08     -V/T= 2.0102
 KE= 4.028802089618D+03 PE=-3.818433668973D+04 EE= 1.573393178098D+04
 Leave Link  502 at Sat Sep 11 18:04:50 2021, MaxMem= 23488102400 cpu:           13476.1 elap:             586.9
 (Enter /sw/apps/gaussian-16.0/g16/l801.exe)
 DoSCS=F DFT=T ScalE2(SS,OS)=  1.000000  1.000000
 ExpMin= 3.36D-02 ExpMax= 4.95D+03 ExpMxC= 7.45D+02 IAcc=3 IRadAn=         5 AccDes= 0.00D+00
 HarFok:  IExCor=  205 AccDes= 0.00D+00 IRadAn=         5 IDoV=-2 UseB2=F ITyADJ=14
 ICtDFT= 12500011 ScaDFX=  1.000000  1.000000  1.000000  1.000000
 GSVD:  LWork=       -9588 too small for GESVD, short by       45590 words or       45590 for optimal perf.
 Largest valence mixing into a core orbital is  2.03D-04
 Largest core mixing into a valence orbital is  5.23D-05
 Range of M.O.s used for correlation:    95  1572
 NBasis=  1572 NAE=   312 NBE=   312 NFC=    94 NFV=     0
 NROrb=   1478 NOA=   218 NOB=   218 NVA=  1260 NVB=  1260
 Leave Link  801 at Sat Sep 11 18:04:50 2021, MaxMem= 23488102400 cpu:               7.8 elap:               0.4
 (Enter /sw/apps/gaussian-16.0/g16/l914.exe)
 RHF ground state
 Two-electron integrals replicated using symmetry.
 MDV= 23488102400 DFT=T DoStab=F Mixed=T DoRPA=T DoScal=F NonHer=T
 Making orbital integer symmetry assigments:
 Orbital symmetries:
       Occupied  (A) (A) (A) (A) (A) (A) (A) (A) (A) (A) (A) (A)
                 (A) (A) (A) (A) (A) (A) (A) (A) (A) (A) (A) (A)
                 (A) (A) (A) (A) (A) (A) (A) (A) (A) (A) (A) (A)
                 (A) (A) (A) (A) (A) (A) (A) (A) (A) (A) (A) (A)
                 (A) (A) (A) (A) (A) (A) (A) (A) (A) (A) (A) (A)
                 (A) (A) (A) (A) (A) (A) (A) (A) (A) (A) (A) (A)
                 (A) (A) (A) (A) (A) (A) (A) (A) (A) (A) (A) (A)
                 (A) (A) (A) (A) (A) (A) (A) (A) (A) (A) (A) (A)
                 (A) (A) (A) (A) (A) (A) (A) (A) (A) (A) (A) (A)
                 (A) (A) (A) (A) (A) (A) (A) (A) (A) (A) (A) (A)
                 (A) (A) (A) (A) (A) (A) (A) (A) (A) (A) (A) (A)
                 (A) (A) (A) (A) (A) (A) (A) (A) (A) (A) (A) (A)
                 (A) (A) (A) (A) (A) (A) (A) (A) (A) (A) (A) (A)
                 (A) (A) (A) (A) (A) (A) (A) (A) (A) (A) (A) (A)
                 (A) (A) (A) (A) (A) (A) (A) (A) (A) (A) (A) (A)
                 (A) (A) (A) (A) (A) (A) (A) (A) (A) (A) (A) (A)
                 (A) (A) (A) (A) (A) (A) (A) (A) (A) (A) (A) (A)
                 (A) (A) (A) (A) (A) (A) (A) (A) (A) (A) (A) (A)
                 (A) (A) (A) (A) (A) (A) (A) (A) (A) (A) (A) (A)
                 (A) (A) (A) (A) (A) (A) (A) (A) (A) (A) (A) (A)
                 (A) (A) (A) (A) (A) (A) (A) (A) (A) (A) (A) (A)
                 (A) (A) (A) (A) (A) (A) (A) (A) (A) (A) (A) (A)
                 (A) (A) (A) (A) (A) (A) (A) (A) (A) (A) (A) (A)
                 (A) (A) (A) (A) (A) (A) (A) (A) (A) (A) (A) (A)
                 (A) (A) (A) (A) (A) (A) (A) (A) (A) (A) (A) (A)
                 (A) (A) (A) (A) (A) (A) (A) (A) (A) (A) (A) (A)
       Virtual   (A) (A) (A) (A) (A) (A) (A) (A) (A) (A) (A) (A)
                 (A) (A) (A) (A) (A) (A) (A) (A) (A) (A) (A) (A)
                 (A) (A) (A) (A) (A) (A) (A) (A) (A) (A) (A) (A)
                 (A) (A) (A) (A) (A) (A) (A) (A) (A) (A) (A) (A)
                 (A) (A) (A) (A) (A) (A) (A) (A) (A) (A) (A) (A)
                 (A) (A) (A) (A) (A) (A) (A) (A) (A) (A) (A) (A)
                 (A) (A) (A) (A) (A) (A) (A) (A) (A) (A) (A) (A)
                 (A) (A) (A) (A) (A) (A) (A) (A) (A) (A) (A) (A)
                 (A) (A) (A) (A) (A) (A) (A) (A) (A) (A) (A) (A)
                 (A) (A) (A) (A) (A) (A) (A) (A) (A) (A) (A) (A)
                 (A) (A) (A) (A) (A) (A) (A) (A) (A) (A) (A) (A)
                 (A) (A) (A) (A) (A) (A) (A) (A) (A) (A) (A) (A)
                 (A) (A) (A) (A) (A) (A) (A) (A) (A) (A) (A) (A)
                 (A) (A) (A) (A) (A) (A) (A) (A) (A) (A) (A) (A)
                 (A) (A) (A) (A) (A) (A) (A) (A) (A) (A) (A) (A)
                 (A) (A) (A) (A) (A) (A) (A) (A) (A) (A) (A) (A)
                 (A) (A) (A) (A) (A) (A) (A) (A) (A) (A) (A) (A)
                 (A) (A) (A) (A) (A) (A) (A) (A) (A) (A) (A) (A)
                 (A) (A) (A) (A) (A) (A) (A) (A) (A) (A) (A) (A)
                 (A) (A) (A) (A) (A) (A) (A) (A) (A) (A) (A) (A)
                 (A) (A) (A) (A) (A) (A) (A) (A) (A) (A) (A) (A)
                 (A) (A) (A) (A) (A) (A) (A) (A) (A) (A) (A) (A)
                 (A) (A) (A) (A) (A) (A) (A) (A) (A) (A) (A) (A)
                 (A) (A) (A) (A) (A) (A) (A) (A) (A) (A) (A) (A)
                 (A) (A) (A) (A) (A) (A) (A) (A) (A) (A) (A) (A)
                 (A) (A) (A) (A) (A) (A) (A) (A) (A) (A) (A) (A)
                 (A) (A) (A) (A) (A) (A) (A) (A) (A) (A) (A) (A)
                 (A) (A) (A) (A) (A) (A) (A) (A) (A) (A) (A) (A)
                 (A) (A) (A) (A) (A) (A) (A) (A) (A) (A) (A) (A)
                 (A) (A) (A) (A) (A) (A) (A) (A) (A) (A) (A) (A)
                 (A) (A) (A) (A) (A) (A) (A) (A) (A) (A) (A) (A)
                 (A) (A) (A) (A) (A) (A) (A) (A) (A) (A) (A) (A)
                 (A) (A) (A) (A) (A) (A) (A) (A) (A) (A) (A) (A)
                 (A) (A) (A) (A) (A) (A) (A) (A) (A) (A) (A) (A)
                 (A) (A) (A) (A) (A) (A) (A) (A) (A) (A) (A) (A)
                 (A) (A) (A) (A) (A) (A) (A) (A) (A) (A) (A) (A)
                 (A) (A) (A) (A) (A) (A) (A) (A) (A) (A) (A) (A)
                 (A) (A) (A) (A) (A) (A) (A) (A) (A) (A) (A) (A)
                 (A) (A) (A) (A) (A) (A) (A) (A) (A) (A) (A) (A)
                 (A) (A) (A) (A) (A) (A) (A) (A) (A) (A) (A) (A)
                 (A) (A) (A) (A) (A) (A) (A) (A) (A) (A) (A) (A)
                 (A) (A) (A) (A) (A) (A) (A) (A) (A) (A) (A) (A)
                 (A) (A) (A) (A) (A) (A) (A) (A) (A) (A) (A) (A)
                 (A) (A) (A) (A) (A) (A) (A) (A) (A) (A) (A) (A)
                 (A) (A) (A) (A) (A) (A) (A) (A) (A) (A) (A) (A)
                 (A) (A) (A) (A) (A) (A) (A) (A) (A) (A) (A) (A)
                 (A) (A) (A) (A) (A) (A) (A) (A) (A) (A) (A) (A)
                 (A) (A) (A) (A) (A) (A) (A) (A) (A) (A) (A) (A)
                 (A) (A) (A) (A) (A) (A) (A) (A) (A) (A) (A) (A)
                 (A) (A) (A) (A) (A) (A) (A) (A) (A) (A) (A) (A)
                 (A) (A) (A) (A) (A) (A) (A) (A) (A) (A) (A) (A)
                 (A) (A) (A) (A) (A) (A) (A) (A) (A) (A) (A) (A)
                 (A) (A) (A) (A) (A) (A) (A) (A) (A) (A) (A) (A)
                 (A) (A) (A) (A) (A) (A) (A) (A) (A) (A) (A) (A)
                 (A) (A) (A) (A) (A) (A) (A) (A) (A) (A) (A) (A)
                 (A) (A) (A) (A) (A) (A) (A) (A) (A) (A) (A) (A)
                 (A) (A) (A) (A) (A) (A) (A) (A) (A) (A) (A) (A)
                 (A) (A) (A) (A) (A) (A) (A) (A) (A) (A) (A) (A)
                 (A) (A) (A) (A) (A) (A) (A) (A) (A) (A) (A) (A)
                 (A) (A) (A) (A) (A) (A) (A) (A) (A) (A) (A) (A)
                 (A) (A) (A) (A) (A) (A) (A) (A) (A) (A) (A) (A)
                 (A) (A) (A) (A) (A) (A) (A) (A) (A) (A) (A) (A)
                 (A) (A) (A) (A) (A) (A) (A) (A) (A) (A) (A) (A)
                 (A) (A) (A) (A) (A) (A) (A) (A) (A) (A) (A) (A)
                 (A) (A) (A) (A) (A) (A) (A) (A) (A) (A) (A) (A)
                 (A) (A) (A) (A) (A) (A) (A) (A) (A) (A) (A) (A)
                 (A) (A) (A) (A) (A) (A) (A) (A) (A) (A) (A) (A)
                 (A) (A) (A) (A) (A) (A) (A) (A) (A) (A) (A) (A)
                 (A) (A) (A) (A) (A) (A) (A) (A) (A) (A) (A) (A)
                 (A) (A) (A) (A) (A) (A) (A) (A) (A) (A) (A) (A)
                 (A) (A) (A) (A) (A) (A) (A) (A) (A) (A) (A) (A)
                 (A) (A) (A) (A) (A) (A) (A) (A) (A) (A) (A) (A)
                 (A) (A) (A) (A) (A) (A) (A) (A) (A) (A) (A) (A)
                 (A) (A) (A) (A) (A) (A) (A) (A) (A) (A) (A) (A)
                 (A) (A) (A) (A) (A) (A) (A) (A) (A) (A) (A) (A)
                 (A) (A) (A) (A) (A) (A) (A) (A) (A) (A) (A) (A)
                 (A) (A) (A) (A) (A) (A) (A) (A) (A) (A) (A) (A)
                 (A) (A) (A) (A) (A) (A) (A) (A) (A) (A) (A) (A)
                 (A) (A) (A) (A) (A) (A) (A) (A) (A) (A) (A) (A)
                 (A) (A) (A) (A) (A) (A) (A) (A) (A) (A) (A) (A)
                 (A) (A) (A) (A) (A) (A) (A) (A) (A) (A) (A) (A)
                 (A) (A) (A) (A) (A) (A) (A) (A) (A) (A) (A) (A)
                 (A) (A) (A) (A) (A) (A) (A) (A) (A) (A) (A) (A)
                 (A) (A) (A) (A) (A) (A) (A) (A) (A) (A) (A) (A)
                 (A) (A) (A) (A) (A) (A) (A) (A) (A) (A) (A) (A)
                 (A) (A) (A) (A) (A) (A) (A) (A) (A) (A) (A) (A)
                 (A) (A) (A) (A) (A) (A) (A) (A) (A) (A) (A) (A)
                 (A) (A) (A) (A) (A) (A) (A) (A) (A) (A) (A) (A)
                 (A) (A) (A) (A) (A) (A) (A) (A) (A) (A) (A) (A)
                 (A) (A) (A) (A) (A) (A) (A) (A) (A) (A) (A) (A)
                 (A) (A) (A) (A) (A) (A) (A) (A) (A) (A) (A) (A)
                 (A) (A) (A) (A) (A) (A) (A) (A) (A) (A) (A) (A)
                 (A) (A) (A) (A) (A) (A) (A) (A) (A) (A) (A) (A)
                 (A) (A) (A) (A) (A) (A) (A) (A) (A) (A) (A) (A)
                 (A) (A) (A) (A) (A) (A) (A) (A) (A) (A) (A) (A)
                 (A) (A) (A) (A) (A) (A) (A) (A) (A) (A) (A) (A)
                 (A) (A) (A) (A) (A) (A) (A) (A) (A) (A) (A) (A)
                 (A) (A) (A) (A) (A) (A) (A) (A) (A) (A) (A) (A)
                 (A) (A) (A) (A) (A) (A) (A) (A) (A) (A) (A) (A)
                 (A) (A) (A) (A) (A) (A) (A) (A) (A) (A) (A) (A)
                 (A) (A) (A) (A) (A) (A) (A) (A) (A) (A) (A) (A)
                 (A) (A) (A) (A) (A) (A) (A) (A) (A) (A) (A) (A)
                 (A) (A) (A) (A) (A) (A) (A) (A) (A) (A) (A) (A)
                 (A) (A) (A) (A) (A) (A) (A) (A) (A) (A) (A) (A)
                 (A) (A) (A) (A) (A) (A) (A) (A) (A) (A) (A) (A)
    20 initial guesses have been made.
 Convergence on wavefunction:    0.001000000000000
 Davidson Disk Diagonalization:  ConvIn= 1.00D-03 SkipCon=T Conv= 1.00D-03.
 Max sub-space:  2000 roots to seek:    20 dimension of matrix:       549360
 Iteration     1 Dimension    20 NMult     0 NNew     20
 CISAX will form    20 AO SS matrices at one time.
 NMat=    20 NSing=    20 JSym2X= 0.
 FoFJK:  IHMeth= 1 ICntrl=       0 DoSepK=T KAlg= 0 I1Cent=           0 FoldK=F
 IRaf=         1 NMat=      40 IRICut=       1 DoRegI=T DoRafI=F ISym2E= 0 IDoP0=3 IntGTp=3.
 FoFCou: FMM=T IPFlag=           0 FMFlag=      100000 FMFlg1=        2001
         NFxFlg=           0 DoJE=F BraDBF=F KetDBF=F FulRan=T
         wScrn=  0.000000 ICntrl=       500 IOpCl=  0 I1Cent=           0 NGrid=           0
         NMat0=   20 NMatS0=     20 NMatT0=    0 NMatD0=   20 NMtDS0=    0 NMtDT0=    0
 Symmetry not used in FoFCou.
 FMM levels:  10  Number of levels for PrismC:   9
 New state      2 was old state      7
 New state      3 was old state      6
 New state      4 was old state      2
 New state      5 was old state      3
 Excitation Energies [eV] at current iteration:
 Root      1 :     2.600226905147475
 Root      2 :     2.612696162237231
 Root      3 :     2.620653462021243
 Root      4 :     2.676924024838682
 Root      5 :     2.694166522773050
 Root      6 :     2.747763466482287
 Root      7 :     3.415100022473848
 Root      8 :     3.549025376879566
 Root      9 :     3.634180100657544
 Root     10 :     3.673526996212538
 Root     11 :     3.729348857358763
 Root     12 :     3.759232916204858
 Root     13 :     4.285850745608186
 Root     14 :     4.328300795425907
 Root     15 :     4.508317329685652
 Root     16 :     4.618719266899859
 Root     17 :     4.668585038059561
 Root     18 :     4.954477878687275
 Root     19 :     4.975613289642294
 Root     20 :     4.983302632241079
 Iteration     2 Dimension    30 NMult    20 NNew     10
 CISAX will form    10 AO SS matrices at one time.
 NMat=    10 NSing=    10 JSym2X= 0.
 New state      1 was old state      4
 Root      1 not converged, maximum delta is    0.165580838556596
 New state      2 was old state      5
 Root      2 not converged, maximum delta is    0.167867883290600
 New state      3 was old state      2
 Root      3 not converged, maximum delta is    0.374840028042558
 New state      4 was old state      3
 Root      4 not converged, maximum delta is    0.381987986769081
 New state      5 was old state      1
 Root      5 not converged, maximum delta is    0.012333849502621
 Excitation Energies [eV] at current iteration:
 Root      1 :     1.798349098733489   Change is   -0.878574926105194
 Root      2 :     1.808545576035026   Change is   -0.885620946738023
 Root      3 :     2.235110144129692   Change is   -0.377586018107539
 Root      4 :     2.241625283244387   Change is   -0.379028178776857
 Root      5 :     2.598306848307632   Change is   -0.001920056839843
 Iteration     3 Dimension    40 NMult    30 NNew     10
 CISAX will form    10 AO SS matrices at one time.
 NMat=    10 NSing=    10 JSym2X= 0.
 Root      1 not converged, maximum delta is    0.058717147449950
 Root      2 not converged, maximum delta is    0.059824306115585
 Root      3 not converged, maximum delta is    0.108218137531991
 Root      4 not converged, maximum delta is    0.107705573655749
 Root      5 has converged.
 Excitation Energies [eV] at current iteration:
 Root      1 :     1.691559973571036   Change is   -0.106789125162452
 Root      2 :     1.700254297235508   Change is   -0.108291278799518
 Root      3 :     2.194754599990252   Change is   -0.040355544139440
 Root      4 :     2.202726848982403   Change is   -0.038898434261984
 Root      5 :     2.598303295683438   Change is   -0.000003552624194
 Iteration     4 Dimension    48 NMult    40 NNew      8
 CISAX will form     8 AO SS matrices at one time.
 NMat=     8 NSing=     8 JSym2X= 0.
 Root      1 not converged, maximum delta is    0.011348694987792
 Root      2 not converged, maximum delta is    0.011681915515798
 Root      3 not converged, maximum delta is    0.016227090472902
 Root      4 not converged, maximum delta is    0.016058681092519
 Root      5 has converged.
 Excitation Energies [eV] at current iteration:
 Root      1 :     1.674852611457629   Change is   -0.016707362113408
 Root      2 :     1.683368851825933   Change is   -0.016885445409575
 Root      3 :     2.187620223766855   Change is   -0.007134376223397
 Root      4 :     2.195946232947651   Change is   -0.006780616034751
 Root      5 :     2.598303292211794   Change is   -0.000000003471644
 Iteration     5 Dimension    56 NMult    48 NNew      8
 CISAX will form     8 AO SS matrices at one time.
 NMat=     8 NSing=     8 JSym2X= 0.
 Root      1 not converged, maximum delta is    0.001874852972212
 Root      2 not converged, maximum delta is    0.001936189650649
 Root      3 not converged, maximum delta is    0.002376800527018
 Root      4 not converged, maximum delta is    0.002344548017613
 Root      5 has converged.
 Excitation Energies [eV] at current iteration:
 Root      1 :     1.673091444816464   Change is   -0.001761166641164
 Root      2 :     1.681572915694472   Change is   -0.001795936131461
 Root      3 :     2.186790494472365   Change is   -0.000829729294491
 Root      4 :     2.195178172798318   Change is   -0.000768060149333
 Root      5 :     2.598303291394624   Change is   -0.000000000817170
 Iteration     6 Dimension    64 NMult    56 NNew      8
 CISAX will form     8 AO SS matrices at one time.
 NMat=     8 NSing=     8 JSym2X= 0.
 Root      1 not converged, maximum delta is    0.001166172251869
 Root      2 not converged, maximum delta is    0.001184053265362
 Root      3 has converged.
 Root      4 has converged.
 Root      5 has converged.
 Excitation Energies [eV] at current iteration:
 Root      1 :     1.672839411521658   Change is   -0.000252033294806
 Root      2 :     1.681316530666640   Change is   -0.000256385027832
 Root      3 :     2.186665733138919   Change is   -0.000124761333446
 Root      4 :     2.195060245440444   Change is   -0.000117927357874
 Root      5 :     2.598303290562330   Change is   -0.000000000832294
 Iteration     7 Dimension    68 NMult    64 NNew      4
 CISAX will form     4 AO SS matrices at one time.
 NMat=     4 NSing=     4 JSym2X= 0.
 Root      1 has converged.
 Root      2 has converged.
 Root      3 has converged.
 Root      4 has converged.
 Root      5 has converged.
 Excitation Energies [eV] at current iteration:
 Root      1 :     1.672814966514463   Change is   -0.000024445007195
 Root      2 :     1.681291981973899   Change is   -0.000024548692741
[...]
 Alpha virt. eigenvalues --    1.84367   1.84620   1.84703   1.84907   1.85029
 Alpha virt. eigenvalues --    1.85179   1.85212   1.85406   1.85494   1.85628
 Alpha virt. eigenvalues --    1.85787   1.86006   1.86283   1.86482   1.86496
 Alpha virt. eigenvalues --    1.86696   1.86757   1.86921   1.86968   1.87117
 Alpha virt. eigenvalues --    1.87358   1.87560   1.87575   1.87780   1.87849
 Alpha virt. eigenvalues --    1.87944   1.88118   1.88283   1.88433   1.88695
 Alpha virt. eigenvalues --    1.88700   1.89047   1.89074   1.89141   1.89536
 Alpha virt. eigenvalues --    1.89654   1.89783   1.89975   1.90060   1.90308
 Alpha virt. eigenvalues --    1.90635   1.90976   1.91223   1.91368   1.91502
 Alpha virt. eigenvalues --    1.91686   1.92049   1.92269   1.92479   1.92733
 Alpha virt. eigenvalues --    1.92898   1.93238   1.93281   1.93590   1.94215
 Alpha virt. eigenvalues --    1.94387   1.94604   1.94923   1.95433   1.95607
 Alpha virt. eigenvalues --    1.95663   1.95857   1.95886   1.96094   1.96137
 Alpha virt. eigenvalues --    1.96254   1.96510   1.96560   1.96799   1.97053
 Alpha virt. eigenvalues --    1.97359   1.97610   1.97756   1.97871   1.98044
 Alpha virt. eigenvalues --    1.98248   1.98411   1.98514   1.99014   1.99163
 Alpha virt. eigenvalues --    1.99676   2.00031   2.00567   2.00806   2.00872
 Alpha virt. eigenvalues --    2.01184   2.01310   2.01575   2.01587   2.01623
 Alpha virt. eigenvalues --    2.01694   2.01897   2.02667   2.02794   2.03158
 Alpha virt. eigenvalues --    2.03209   2.03270   2.03331   2.03469   2.03603
 Alpha virt. eigenvalues --    2.03922   2.04106   2.04858   2.05088   2.05420
 Alpha virt. eigenvalues --    2.05751   2.05977   2.06396   2.06742   2.07075
 Alpha virt. eigenvalues --    2.07103   2.07429   2.08517   2.08689   2.08860
 Alpha virt. eigenvalues --    2.09089   2.09451   2.09709   2.10741   2.11065
 Alpha virt. eigenvalues --    2.11109   2.11385   2.11504   2.11597   2.11611
 Alpha virt. eigenvalues --    2.11987   2.12337   2.12545   2.12699   2.12730
 Alpha virt. eigenvalues --    2.12910   2.12952   2.13598   2.13705   2.14074
 Alpha virt. eigenvalues --    2.14324   2.15226   2.15515   2.15796   2.16159
 Alpha virt. eigenvalues --    2.16449   2.16630   2.16692   2.17255   2.17317
 Alpha virt. eigenvalues --    2.17608   2.17736   2.17998   2.18017   2.18085
 Alpha virt. eigenvalues --    2.18190   2.18717   2.18755   2.19306   2.19513
 Alpha virt. eigenvalues --    2.19905   2.19912   2.20088   2.20315   2.20537
 Alpha virt. eigenvalues --    2.21121   2.21258   2.21568   2.21600   2.21855
 Alpha virt. eigenvalues --    2.21958   2.22576   2.22800   2.23227   2.23417
 Alpha virt. eigenvalues --    2.24305   2.24502   2.24933   2.25113   2.26143
 Alpha virt. eigenvalues --    2.26520   2.26680   2.26957   2.27098   2.27283
 Alpha virt. eigenvalues --    2.28013   2.28404   2.29163   2.29532   2.29593
 Alpha virt. eigenvalues --    2.29965   2.30307   2.30692   2.30879   2.30936
 Alpha virt. eigenvalues --    2.31042   2.31275   2.32037   2.32331   2.32995
 Alpha virt. eigenvalues --    2.33323   2.33343   2.33548   2.34062   2.34203
 Alpha virt. eigenvalues --    2.35207   2.35358   2.35660   2.36009   2.36306
 Alpha virt. eigenvalues --    2.36445   2.36500   2.36536   2.37595   2.37748
 Alpha virt. eigenvalues --    2.38179   2.38509   2.38699   2.38868   2.39490
 Alpha virt. eigenvalues --    2.39756   2.40102   2.40329   2.40344   2.40898
 Alpha virt. eigenvalues --    2.41117   2.41274   2.41626   2.41770   2.41880
 Alpha virt. eigenvalues --    2.42198   2.42891   2.42915   2.43093   2.43333
 Alpha virt. eigenvalues --    2.44037   2.44099   2.44610   2.44780   2.44902
 Alpha virt. eigenvalues --    2.45064   2.45443   2.45663   2.46202   2.46348
 Alpha virt. eigenvalues --    2.46414   2.46598   2.46666   2.46884   2.47150
 Alpha virt. eigenvalues --    2.47443   2.47612   2.47965   2.49234   2.49509
 Alpha virt. eigenvalues --    2.49963   2.50017   2.50497   2.50596   2.50968
 Alpha virt. eigenvalues --    2.51331   2.51727   2.51744   2.52287   2.52446
 Alpha virt. eigenvalues --    2.52679   2.53247   2.53818   2.54061   2.54074
 Alpha virt. eigenvalues --    2.54385   2.54694   2.54873   2.55420   2.55749
 Alpha virt. eigenvalues --    2.57755   2.58171   2.58549   2.58982   2.60042
 Alpha virt. eigenvalues --    2.60359   2.60466   2.60999   2.61607   2.61913
 Alpha virt. eigenvalues --    2.62398   2.62508   2.62829   2.63190   2.63803
 Alpha virt. eigenvalues --    2.64204   2.64310   2.64475   2.64972   2.65159
 Alpha virt. eigenvalues --    2.65637   2.65922   2.66705   2.66807   2.66891
 Alpha virt. eigenvalues --    2.67141   2.67812   2.68047   2.68730   2.68884
 Alpha virt. eigenvalues --    2.68897   2.69088   2.69319   2.69652   2.69891
 Alpha virt. eigenvalues --    2.70201   2.70866   2.71124   2.71912   2.71949
 Alpha virt. eigenvalues --    2.72503   2.72537   2.72641   2.72781   2.73226
 Alpha virt. eigenvalues --    2.73315   2.73350   2.73494   2.74392   2.74566
 Alpha virt. eigenvalues --    2.74840   2.75115   2.76500   2.76576   2.77083
 Alpha virt. eigenvalues --    2.77123   2.77340   2.77688   2.78102   2.78386
 Alpha virt. eigenvalues --    2.78579   2.78751   2.79012   2.79214   2.80221
 Alpha virt. eigenvalues --    2.80379   2.80417   2.80745   2.80974   2.81220
 Alpha virt. eigenvalues --    2.81795   2.82051   2.82236   2.82389   2.83593
 Alpha virt. eigenvalues --    2.83664   2.83946   2.83955   2.84434   2.84594
 Alpha virt. eigenvalues --    2.84801   2.84934   2.85576   2.85770   2.86700
 Alpha virt. eigenvalues --    2.86877   2.87197   2.87430   2.88052   2.88330
 Alpha virt. eigenvalues --    2.88403   2.88660   2.88821   2.88933   2.90376
 Alpha virt. eigenvalues --    2.90700   2.91112   2.91119   2.93010   2.93385
 Alpha virt. eigenvalues --    2.93827   2.94088   2.94487   2.94659   2.95210
 Alpha virt. eigenvalues --    2.95516   2.95850   2.96009   2.96353   2.96443
 Alpha virt. eigenvalues --    2.96889   2.97001   2.97638   2.98083   2.98144
 Alpha virt. eigenvalues --    2.98274   2.98395   2.98475   2.98644   2.98783
 Alpha virt. eigenvalues --    2.98831   2.98991   2.99543   2.99861   2.99884
 Alpha virt. eigenvalues --    3.00045   3.00110   3.00313   3.00454   3.01042
 Alpha virt. eigenvalues --    3.01909   3.01935   3.01943   3.02181   3.02552
 Alpha virt. eigenvalues --    3.02832   3.02885   3.03238   3.03428   3.03753
 Alpha virt. eigenvalues --    3.04101   3.04108   3.04332   3.04475   3.04498
 Alpha virt. eigenvalues --    3.04766   3.05234   3.05459   3.06003   3.06205
 Alpha virt. eigenvalues --    3.06652   3.06990   3.08031   3.08083   3.09244
 Alpha virt. eigenvalues --    3.09431   3.09573   3.10313   3.10461   3.10794
 Alpha virt. eigenvalues --    3.11281   3.11521   3.11775   3.11926   3.12192
 Alpha virt. eigenvalues --    3.12344   3.13128   3.13571   3.13693   3.13753
 Alpha virt. eigenvalues --    3.13891   3.14490   3.15909   3.16025   3.17136
 Alpha virt. eigenvalues --    3.17571   3.17959   3.18006   3.19031   3.19107
 Alpha virt. eigenvalues --    3.22090   3.22618   3.23811   3.24493   3.24512
 Alpha virt. eigenvalues --    3.25234   3.26374   3.26713   3.27446   3.27486
 Alpha virt. eigenvalues --    3.28874   3.29236   3.31391   3.31435   3.33244
 Alpha virt. eigenvalues --    3.33293   3.40262   3.40392   3.42718   3.42901
 Alpha virt. eigenvalues --    3.48515   3.48746   3.49893   3.50342   3.50897
 Alpha virt. eigenvalues --    3.51350   3.56434   3.57066   3.58994   3.59393
 Alpha virt. eigenvalues --    3.62568   3.62699   3.66107   3.66202   3.66960
 Alpha virt. eigenvalues --    3.67552   3.73059   3.74040   3.75863   3.76703
          Condensed to atoms (all electrons):
 Mulliken charges:
               1
     1  Mg   0.836071
     2  C   -0.004023
     3  C   -0.094472
     4  C   -0.045385
     5  C   -0.063380
     6  N   -0.256879
     7  C   -0.053016
     8  C   -0.013773
     9  C   -0.086890
    10  C    0.045917
    11  C    0.104704
    12  C    0.053520
    13  C   -0.071596
    14  H    0.034898
    15  N   -0.433380
    16  C    0.168113
    17  C   -0.177255
    18  C   -0.003812
    19  C    0.148471
    20  C    0.110114
    21  C    0.012485
    22  O   -0.248588
    23  C    0.062455
    24  N   -0.341212
    25  C    0.041330
    26  C   -0.028305
    27  C   -0.024142
    28  C    0.074879
    29  C    0.076023
    30  C    0.034855
    31  C   -0.004747
    32  N   -0.310347
    33  C    0.079812
    34  C   -0.169811
    35  C    0.008216
    36  C    0.082033
    37  C    0.127382
    38  C    0.045510
    39  O   -0.188625
    40  C   -0.005071
    41  C    0.213271
    42  O   -0.259250
    43  O   -0.304230
    44  C    0.157878
    45  H   -0.017297
    46  H   -0.015943
    47  H   -0.040822
    48  H    0.001141
    49  H   -0.004085
    50  H    0.025627
    51  H    0.016833
    52  H    0.016983
    53  H    0.010551
    54  H    0.042518
    55  H    0.018635
    56  H    0.018308
    57  H    0.005847
    58  H    0.027391
    59  H    0.039599
    60  H    0.037443
    61  H    0.036542
    62  H    0.031260
    63  H    0.017644
    64  H    0.009579
    65  H    0.023864
    66  H    0.012330
    67  H    0.004984
    68  H    0.007180
    69  H    0.004696
    70  H    0.010308
    71  H    0.021283
    72  H    0.026475
    73  H    0.047239
    74  H    0.009730
    75  H    0.046290
    76  H    0.035564
    77  H    0.043496
    78  H    0.046492
    79  H    0.052428
    80  Mg   0.837432
    81  C   -0.016865
    82  C   -0.087739
    83  C   -0.045518
    84  C   -0.064952
    85  N   -0.254502
    86  C   -0.050213
    87  C   -0.015049
    88  C   -0.090410
    89  C    0.045450
    90  C    0.114258
    91  C    0.062588
    92  C   -0.077583
    93  H    0.034016
    94  N   -0.423636
    95  C    0.162594
    96  C   -0.173897
    97  C   -0.007772
    98  C    0.152270
    99  C    0.098689
   100  C    0.015613
   101  O   -0.253638
   102  C    0.059682
   103  N   -0.350037
   104  C    0.037686
   105  C   -0.019874
   106  C   -0.034661
   107  C    0.088652
   108  C    0.073703
   109  C    0.034842
   110  C   -0.007620
   111  N   -0.323971
   112  C    0.078040
   113  C   -0.163505
   114  C    0.002061
   115  C    0.095885
   116  C    0.131559
   117  C    0.042076
   118  O   -0.188550
   119  C    0.001006
   120  C    0.211183
   121  O   -0.251276
   122  O   -0.305572
   123  C    0.152168
   124  H   -0.018075
   125  H   -0.015715
   126  H   -0.040881
   127  H   -0.000865
   128  H   -0.004213
   129  H    0.022166
   130  H    0.015003
   131  H    0.016713
   132  H    0.013753
   133  H    0.037395
   134  H    0.020849
   135  H    0.019492
   136  H    0.010132
   137  H    0.030711
   138  H    0.039434
   139  H    0.041407
   140  H    0.036597
   141  H    0.033165
   142  H    0.014228
   143  H    0.012185
   144  H    0.024783
   145  H    0.011960
   146  H    0.005507
   147  H    0.005959
   148  H    0.003424
   149  H    0.010888
   150  H    0.017590
   151  H    0.030206
   152  H    0.045581
   153  H    0.008215
   154  H    0.046672
   155  H    0.034887
   156  H    0.043680
   157  H    0.049384
   158  H    0.053309
 Sum of Mulliken charges =  -0.00000
 Mulliken charges with hydrogens summed into heavy atoms:
               1
     1  Mg   0.836071
     2  C   -0.004023
     3  C   -0.111769
     4  C   -0.061328
     5  C   -0.104203
     6  N   -0.256879
     7  C   -0.053016
     8  C   -0.012631
     9  C   -0.090976
    10  C    0.045917
    11  C    0.164147
    12  C    0.106589
    13  C    0.000245
    15  N   -0.433380
    16  C    0.168113
    17  C   -0.177255
    18  C   -0.003812
    19  C    0.148471
    20  C    0.182952
    21  C    0.012485
    22  O   -0.248588
    23  C    0.167700
    24  N   -0.341212
    25  C    0.041330
    26  C   -0.010662
    27  C   -0.014563
    28  C    0.074879
    29  C    0.117202
    30  C    0.046732
    31  C    0.053318
    32  N   -0.310347
    33  C    0.079812
    34  C   -0.169811
    35  C    0.008216
    36  C    0.082033
    37  C    0.230641
    38  C    0.045510
    39  O   -0.188625
    40  C    0.030493
    41  C    0.213271
    42  O   -0.259250
    43  O   -0.304230
    44  C    0.300294
    80  Mg   0.837432
    81  C   -0.016865
    82  C   -0.105814
    83  C   -0.061233
    84  C   -0.105833
    85  N   -0.254502
    86  C   -0.050213
    87  C   -0.015914
    88  C   -0.094623
    89  C    0.045450
    90  C    0.168141
    91  C    0.113736
    92  C   -0.003226
    94  N   -0.423636
    95  C    0.162594
    96  C   -0.173897
    97  C   -0.007772
    98  C    0.152270
    99  C    0.178965
   100  C    0.015613
   101  O   -0.253638
   102  C    0.170851
   103  N   -0.350037
   104  C    0.037686
   105  C   -0.005646
   106  C   -0.022476
   107  C    0.088652
   108  C    0.115952
   109  C    0.044225
   110  C    0.051064
   111  N   -0.323971
   112  C    0.078040
   113  C   -0.163505
   114  C    0.002061
   115  C    0.095885
   116  C    0.232027
   117  C    0.042076
   118  O   -0.188550
   119  C    0.035893
   120  C    0.211183
   121  O   -0.251276
   122  O   -0.305572
   123  C    0.298541
 Electronic spatial extent (au):  <R**2>=         157781.9764
 Charge=             -0.0000 electrons
 Dipole moment (field-independent basis, Debye):
    X=              5.5679    Y=              2.7137    Z=              2.2720  Tot=              6.5976
 Quadrupole moment (field-independent basis, Debye-Ang):
   XX=           -554.2651   YY=           -472.0900   ZZ=           -513.2776
   XY=             15.4830   XZ=             48.9230   YZ=             38.2785
 Traceless Quadrupole moment (field-independent basis, Debye-Ang):
   XX=            -41.0542   YY=             41.1209   ZZ=             -0.0667
   XY=             15.4830   XZ=             48.9230   YZ=             38.2785
 Octapole moment (field-independent basis, Debye-Ang**2):
  XXX=           1216.4279  YYY=            268.4350  ZZZ=            204.7927  XYY=           -242.8847
  XXY=           -138.9835  XXZ=            -42.8694  XZZ=             35.0100  YZZ=            -16.2894
  YYZ=            -59.7568  XYZ=            195.5275
 Hexadecapole moment (field-independent basis, Debye-Ang**3):
 XXXX=        -175825.9334 YYYY=         -33809.3314 ZZZZ=         -16793.0453 XXXY=           2471.4334
 XXXZ=           3231.2789 YYYX=            460.6082 YYYZ=            523.5607 ZZZX=           1243.6640
 ZZZY=            508.1847 XXYY=         -29635.8861 XXZZ=         -30002.6708 YYZZ=          -9094.0745
 XXYZ=           2488.7606 YYXZ=           -822.6887 ZZXY=           -516.3931
 N-N= 1.435179060465D+04 E-N=-3.818433668445D+04  KE= 4.028802089618D+03
 Leave Link  601 at Sat Sep 11 18:27:10 2021, MaxMem= 23488102400 cpu:              16.6 elap:               0.8
 (Enter /sw/apps/gaussian-16.0/g16/l9999.exe)
 1\1\GINC-BP1-COMPUTE00082\SP\RCAM-B3LYP TD-FC\def2SVP\C68H72Mg2N8O8\OF
 15641\11-Sep-2021\0\\#p cam-b3lyp/Def2SVP td=(nstates=5)\\TDDFT excite
 d states in gaussian\\0,1\Mg,0,0.,0.,0.\C,0,-0.217,-2.218,2.801\C,0,-1
 .255,2.442,2.026\C,0,-0.245,1.85,-2.564\C,0,0.146,-2.824,-2.037\N,0,-0
 .617,-0.009,2.126\C,0,-0.594,-0.908,3.105\C,0,-0.936,-0.309,4.502\C,0,
 -1.773,0.964,4.032\C,0,-1.155,1.168,2.66\C,0,-3.263,0.685,3.863\C,0,0.
 345,0.11,5.299\C,0,0.124,0.397,6.787\H,0,1.168,0.033,7.733\N,0,-0.185,
 1.961,-0.152\C,0,-0.703,2.8,0.777\C,0,-0.62,4.156,0.193\C,0,-0.187,4.0
 15,-1.225\C,0,-0.214,2.583,-1.38\C,0,-0.887,5.406,0.974\C,0,0.181,5.01
 3,-2.277\O,0,0.303,4.69,-3.508\C,0,0.31,6.414,-1.837\N,0,-0.265,-0.413
 ,-2.029\C,0,-0.279,0.569,-2.937\C,0,-0.196,0.024,-4.332\C,0,0.124,-1.5
 33,-4.18\C,0,0.086,-1.632,-2.635\C,0,-1.451,0.205,-5.197\C,0,1.373,-2.
 07,-4.923\C,0,2.626,-1.49,-4.306\N,0,0.15,-2.144,0.303\C,0,0.173,-3.13
 6,-0.688\C,0,0.173,-4.438,0.004\C,0,0.133,-4.111,1.358\C,0,0.083,-2.69
 5,1.502\C,0,0.149,-5.715,-0.623\C,0,0.096,-4.629,2.716\O,0,0.208,-5.74
 7,3.221\C,0,-0.255,-3.428,3.701\C,0,0.717,-3.482,4.848\O,0,1.931,-3.25
 5,4.669\O,0,0.038,-3.556,6.003\C,0,0.943,-3.583,7.183\H,0,-1.859,3.22,
 2.497\H,0,-0.218,2.453,-3.474\H,0,0.276,-3.747,-2.605\H,0,-1.554,-0.94
 9,5.132\H,0,-1.585,1.831,4.665\H,0,-3.484,-0.377,3.969\H,0,-3.511,1.02
 7,2.858\H,0,-3.852,1.301,4.543\H,0,0.669,1.096,4.966\H,0,1.13,-0.639,5
 .189\H,0,-0.844,0.026,7.125\H,0,0.062,1.477,6.921\H,0,-1.344,5.186,1.9
 38\H,0,-1.651,5.963,0.432\H,0,0.007,6.02,1.084\H,0,-0.635,6.744,-1.405
 \H,0,0.665,6.97,-2.704\H,0,1.048,6.466,-1.036\H,0,0.608,0.501,-4.891\H
 ,0,-0.692,-2.156,-4.547\H,0,-1.267,0.74,-6.129\H,0,-2.204,0.714,-4.596
 \H,0,-1.967,-0.72,-5.453\H,0,1.356,-1.759,-5.967\H,0,1.452,-3.157,-4.9
 02\H,0,2.714,-0.522,-4.798\H,0,3.487,-2.121,-4.529\H,0,2.495,-1.303,-3
 .24\H,0,0.867,-6.333,-0.084\H,0,0.404,-5.642,-1.68\H,0,-0.891,-5.999,-
 0.463\H,0,-1.283,-3.581,4.028\H,0,0.698,-4.478,7.755\H,0,0.833,-2.619,
 7.68\H,0,2.,-3.754,6.976\Mg,0,13.13285,1.18968,1.00378\C,0,15.36583,1.
 80812,3.74429\C,0,10.88262,0.03543,3.29262\C,0,11.32264,0.21711,-1.413
 79\C,0,15.90765,1.30391,-1.10172\N,0,13.22774,0.99756,3.20523\C,0,14.1
 0361,1.32211,4.14431\C,0,13.56919,1.18976,5.59566\C,0,12.41196,0.10895
 ,5.32818\C,0,12.12472,0.41668,3.86002\C,0,12.89563,-1.32812,5.42921\C,
 0,12.98083,2.53815,6.14127\C,0,12.72504,2.56449,7.64979\H,0,12.94323,3
 .81536,8.37102\N,0,11.20426,0.72478,0.94938\C,0,10.44149,0.29521,1.976
 48\C,0,9.10004,0.07178,1.41544\C,0,9.17382,0.24671,-0.06059\C,0,10.605
 32,0.38557,-0.23836\C,0,7.89453,-0.19332,2.26977\C,0,8.13001,0.27061,-
 1.13581\O,0,8.44036,0.19785,-2.37727\C,0,6.72931,0.28754,-0.68946\N,0,
 13.57422,0.6041,-0.94163\C,0,12.59566,0.27949,-1.80474\C,0,13.12774,0.
 16036,-3.21296\C,0,14.62776,0.71171,-3.15355\C,0,14.73781,0.98288,-1.6
 3705\C,0,13.12655,-1.24774,-3.80765\C,0,14.99666,1.85547,-4.13762\C,0,
 14.24919,3.11619,-3.76716\N,0,15.2268,1.67819,1.21538\C,0,16.21834,1.6
 3574,0.21082\C,0,17.50956,1.94107,0.86039\C,0,17.18036,2.11873,2.21263
 \C,0,15.78571,1.91709,2.39649\C,0,18.77781,1.97555,0.21505\C,0,17.6971
 9,2.42055,3.52811\O,0,18.79069,2.76638,3.97351\C,0,16.56538,2.10849,4.
 59956\C,0,16.48007,3.27964,5.53959\O,0,16.10375,4.3922,5.13069\O,0,16.
 64608,2.84446,6.8019\C,0,16.55867,3.96826,7.77209\H,0,10.19525,-0.5558
 4,3.89826\H,0,10.72722,-0.01045,-2.30102\H,0,16.80452,1.45496,-1.70627
 \H,0,14.28474,0.79943,6.30939\H,0,11.53525,0.30974,5.93844\H,0,13.9674
 3,-1.38506,5.54819\H,0,12.59136,-1.80641,4.50741\H,0,12.36295,-1.84976
 ,6.22951\H,0,11.95297,2.65478,5.77435\H,0,13.60574,3.36548,5.86622\H,0
 ,13.21844,1.73208,8.16612\H,0,11.65983,2.39439,7.82415\H,0,8.17774,-0.
 42928,3.30297\H,0,7.4348,-1.115,1.89691\H,0,7.15916,0.61269,2.22232\H,
 0,6.5354,-0.58859,-0.07524\H,0,6.13418,0.39394,-1.59852\H,0,6.57736,1.
 16212,-0.0471\H,0,12.55434,0.77468,-3.89628\H,0,15.36052,-0.07493,-3.3
 8611\H,0,12.56124,-1.32058,-4.75591\H,0,12.72251,-1.92913,-3.07077\H,0
 ,14.112,-1.66994,-3.99693\H,0,14.68521,1.59691,-5.15266\H,0,16.05961,2
 .06989,-4.1717\H,0,13.27366,2.97309,-4.24145\H,0,14.75644,3.99304,-4.1
 6451\H,0,14.08445,3.17242,-2.68487\H,0,19.29311,2.85079,0.58779\H,0,18
 .6724,2.00621,-0.86741\H,0,19.19796,1.02694,0.55986\H,0,16.84672,1.189
 43,5.11506\H,0,17.48164,3.95531,8.36\H,0,15.60998,3.81643,8.32044\H,0,
 16.57541,4.97621,7.37434\\Version=ES64L-G16RevA.03\State=1-A\HF=-4069.
 8122145\RMSD=5.843e-09\PG=C01 [X(C68H72Mg2N8O8)]\\@


 THE WHOLE OF SCIENCE IS NOTHING MORE THAN A REFINEMENT OF EVERYDAY THINKING.
                                                              -- A. EINSTEIN
 Job cpu time:       0 days 12 hours 41 minutes  3.0 seconds.
 Elapsed time:       0 days  0 hours 32 minutes 20.7 seconds.
 File lengths (MBytes):  RWF=  13225 Int=      0 D2E=      0 Chk=    574 Scr=      1
 Normal termination of Gaussian 16 at Sat Sep 11 18:27:11 2021.
