 Entering Gaussian System, Link 0=g16
 Initial command:
 /sw/apps/gaussian-16.0/g16/l1.exe "/tmp/Gau-225191.inp" -scrdir="/tmp/"
 Entering Link 1 = /sw/apps/gaussian-16.0/g16/l1.exe PID=    225192.
  
 Copyright (c) 1988,1990,1992,1993,1995,1998,2003,2009,2016,
            Gaussian, Inc.  All Rights Reserved.
  
 This is part of the Gaussian(R) 16 program.  It is based on
 the Gaussian(R) 09 system (copyright 2009, Gaussian, Inc.),
 the Gaussian(R) 03 system (copyright 2003, Gaussian, Inc.),
 the Gaussian(R) 98 system (copyright 1998, Gaussian, Inc.),
 the Gaussian(R) 94 system (copyright 1995, Gaussian, Inc.),
 the Gaussian 92(TM) system (copyright 1992, Gaussian, Inc.),
 the Gaussian 90(TM) system (copyright 1990, Gaussian, Inc.),
 the Gaussian 88(TM) system (copyright 1988, Gaussian, Inc.),
 the Gaussian 86(TM) system (copyright 1986, Carnegie Mellon
 University), and the Gaussian 82(TM) system (copyright 1983,
 Carnegie Mellon University). Gaussian is a federally registered
 trademark of Gaussian, Inc.
  
 This software contains proprietary and confidential information,
 including trade secrets, belonging to Gaussian, Inc.
  
 This software is provided under written license and may be
 used, copied, transmitted, or stored only in accord with that
 written license.
  
 The following legend is applicable only to US Government
 contracts under FAR:
  
                    RESTRICTED RIGHTS LEGEND
  
 Use, reproduction and disclosure by the US Government is
 subject to restrictions as set forth in subparagraphs (a)
 and (c) of the Commercial Computer Software - Restricted
 Rights clause in FAR 52.227-19.
  
 Gaussian, Inc.
 340 Quinnipiac St., Bldg. 40, Wallingford CT 06492
  
  
 ---------------------------------------------------------------
 Warning -- This program may not be used in any manner that
 competes with the business of Gaussian, Inc. or will provide
 assistance to any competitor of Gaussian, Inc.  The licensee
 of this program is prohibited from giving any competitor of
 Gaussian, Inc. access to this program.  By using this program,
 the user acknowledges that Gaussian, Inc. is engaged in the
 business of creating and licensing software in the field of
 computational chemistry and represents and warrants to the
 licensee that it is not a competitor of Gaussian, Inc. and that
 it will not use this program in any manner prohibited above.
 ---------------------------------------------------------------
  

 Cite this work as:
 Gaussian 16, Revision A.03,
 M. J. Frisch, G. W. Trucks, H. B. Schlegel, G. E. Scuseria, 
 M. A. Robb, J. R. Cheeseman, G. Scalmani, V. Barone, 
 G. A. Petersson, H. Nakatsuji, X. Li, M. Caricato, A. V. Marenich, 
 J. Bloino, B. G. Janesko, R. Gomperts, B. Mennucci, H. P. Hratchian, 
 J. V. Ortiz, A. F. Izmaylov, J. L. Sonnenberg, D. Williams-Young, 
 F. Ding, F. Lipparini, F. Egidi, J. Goings, B. Peng, A. Petrone, 
 T. Henderson, D. Ranasinghe, V. G. Zakrzewski, J. Gao, N. Rega, 
 G. Zheng, W. Liang, M. Hada, M. Ehara, K. Toyota, R. Fukuda, 
 J. Hasegawa, M. Ishida, T. Nakajima, Y. Honda, O. Kitao, H. Nakai, 
 T. Vreven, K. Throssell, J. A. Montgomery, Jr., J. E. Peralta, 
 F. Ogliaro, M. J. Bearpark, J. J. Heyd, E. N. Brothers, K. N. Kudin, 
 V. N. Staroverov, T. A. Keith, R. Kobayashi, J. Normand, 
 K. Raghavachari, A. P. Rendell, J. C. Burant, S. S. Iyengar, 
 J. Tomasi, M. Cossi, J. M. Millam, M. Klene, C. Adamo, R. Cammi, 
 J. W. Ochterski, R. L. Martin, K. Morokuma, O. Farkas, 
 J. B. Foresman, and D. J. Fox, Gaussian, Inc., Wallingford CT, 2016.
 
 ******************************************
 Gaussian 16:  ES64L-G16RevA.03 25-Dec-2016
                12-Sep-2021 
 ******************************************
 %nproc=24
 Will use up to   24 processors via shared memory.
 %mem=175gb
 -----------------------------------
 #p cam-b3lyp/Def2SVP td=(nstates=5)
 -----------------------------------
 1/38=1,172=1/1;
 2/12=2,17=6,18=5,40=1/2;
 3/5=43,7=101,11=9,25=1,30=1,74=-40/1,2,3,8;
 4//1;
 5/5=2,38=5/2;
 8/6=1,10=1,108=5/1;
 9/41=5,42=1,70=2/14;
 6/7=2,8=2,9=2,10=2/1;
 99/5=1,9=1/99;
 Leave Link    1 at Sun Sep 12 00:21:49 2021, MaxMem= 23488102400 cpu:               0.5 elap:               0.0
 (Enter /sw/apps/gaussian-16.0/g16/l101.exe)
 --------------------------------
 TDDFT excited states in gaussian
 --------------------------------
 Symbolic Z-matrix:
 Charge =  0 Multiplicity = 1
 Mg                    0.        0.        0. 
 C                    -0.217    -2.218     2.801 
 C                    -1.255     2.442     2.026 
 C                    -0.245     1.85     -2.564 
 C                     0.146    -2.824    -2.037 
 N                    -0.617    -0.009     2.126 
 C                    -0.594    -0.908     3.105 
 C                    -0.936    -0.309     4.502 
 C                    -1.773     0.964     4.032 
 C                    -1.155     1.168     2.66 
 C                    -3.263     0.685     3.863 
 C                     0.345     0.11      5.299 
 C                     0.124     0.397     6.787 
 H                     1.168     0.033     7.733 
 N                    -0.185     1.961    -0.152 
 C                    -0.703     2.8       0.777 
 C                    -0.62      4.156     0.193 
 C                    -0.187     4.015    -1.225 
 C                    -0.214     2.583    -1.38 
 C                    -0.887     5.406     0.974 
 C                     0.181     5.013    -2.277 
 O                     0.303     4.69     -3.508 
 C                     0.31      6.414    -1.837 
 N                    -0.265    -0.413    -2.029 
 C                    -0.279     0.569    -2.937 
 C                    -0.196     0.024    -4.332 
 C                     0.124    -1.533    -4.18 
 C                     0.086    -1.632    -2.635 
 C                    -1.451     0.205    -5.197 
 C                     1.373    -2.07     -4.923 
 C                     2.626    -1.49     -4.306 
 N                     0.15     -2.144     0.303 
 C                     0.173    -3.136    -0.688 
 C                     0.173    -4.438     0.004 
 C                     0.133    -4.111     1.358 
 C                     0.083    -2.695     1.502 
 C                     0.149    -5.715    -0.623 
 C                     0.096    -4.629     2.716 
 O                     0.208    -5.747     3.221 
 C                    -0.255    -3.428     3.701 
 C                     0.717    -3.482     4.848 
 O                     1.931    -3.255     4.669 
 O                     0.038    -3.556     6.003 
 C                     0.943    -3.583     7.183 
 H                    -1.859     3.22      2.497 
 H                    -0.218     2.453    -3.474 
 H                     0.276    -3.747    -2.605 
 H                    -1.554    -0.949     5.132 
 H                    -1.585     1.831     4.665 
 H                    -3.484    -0.377     3.969 
 H                    -3.511     1.027     2.858 
 H                    -3.852     1.301     4.543 
 H                     0.669     1.096     4.966 
 H                     1.13     -0.639     5.189 
 H                    -0.844     0.026     7.125 
 H                     0.062     1.477     6.921 
 H                    -1.344     5.186     1.938 
 H                    -1.651     5.963     0.432 
 H                     0.007     6.02      1.084 
 H                    -0.635     6.744    -1.405 
 H                     0.665     6.97     -2.704 
 H                     1.048     6.466    -1.036 
 H                     0.608     0.501    -4.891 
 H                    -0.692    -2.156    -4.547 
 H                    -1.267     0.74     -6.129 
 H                    -2.204     0.714    -4.596 
 H                    -1.967    -0.72     -5.453 
 H                     1.356    -1.759    -5.967 
 H                     1.452    -3.157    -4.902 
 H                     2.714    -0.522    -4.798 
 H                     3.487    -2.121    -4.529 
 H                     2.495    -1.303    -3.24 
 H                     0.867    -6.333    -0.084 
 H                     0.404    -5.642    -1.68 
 H                    -0.891    -5.999    -0.463 
 H                    -1.283    -3.581     4.028 
 H                     0.698    -4.478     7.755 
 H                     0.833    -2.619     7.68 
 H                     2.       -3.754     6.976 
 Mg                    15.76589   1.41199   1.20523 
 C                     13.40618   2.88329   3.47374 
 C                     18.02645   1.46297   3.75903 
 C                     17.99203   0.53818  -0.87999 
 C                     13.73591   2.5161   -1.40357 
 N                     15.61665   2.10701   3.29973 
 C                     14.65175   2.59078   4.06739 
 C                     15.01866   2.69601   5.572 
 C                     16.61584   2.77531   5.42506 
 C                     16.77588   2.03955   4.09626 
 C                     17.13457   4.1931    5.25148 
 C                     14.57885   1.42784   6.38461 
 C                     14.62557   1.59049   7.9055 
 H                     13.60747   0.91929   8.70888 
 N                     17.55416   0.60311   1.49915 
 C                     18.32205   0.70583   2.60417 
 C                     19.54986  -0.05023   2.31258 
 C                     19.51471  -0.46947   0.88509 
 C                     18.33625   0.24101   0.43064 
 C                     20.57239  -0.37758   3.36172 
 C                     20.40297  -1.35221   0.06171 
 O                     20.31937  -1.38699  -1.21682 
 C                     21.43589  -2.10428   0.789 
 N                     15.96557   1.69341  -0.84496 
 C                     17.00316   1.16514  -1.51746 
 C                     16.79203   1.26161  -3.00961 
 C                     15.28054   1.74854  -3.19906 
 C                     14.88994   1.94359  -1.71758 
 C                     17.72966   2.21188  -3.75407 
 C                     14.36525   0.8701   -4.0953 
 C                     14.11915  -0.46487  -3.42998 
 N                     13.82089   2.33671   1.03225 
 C                     13.17027   2.73913  -0.15469 
 C                     11.92201   3.42184   0.24305 
 C                     11.94448   3.3893    1.64552 
 C                     13.1333   2.75056   2.09074 
 C                     10.97702   4.01074  -0.6437 
 C                     11.23797   3.75948   2.85072 
 O                     10.13543   4.24718   3.09628 
 C                     12.21359   3.56076   4.08969 
 C                     11.46075   2.81796   5.15926 
 O                     11.0901   1.64555   4.97301 
 O                     11.49282   3.53337   6.29835 
 C                     10.76862   2.83246   7.39201 
 H                     18.87512   1.64136   4.41996 
 H                     18.67452   0.15921  -1.64424 
 H                     13.00138   2.80208  -2.15945 
 H                     14.64649   3.58367   6.06932 
 H                     17.11347   2.23195   6.22411 
 H                     16.33072   4.905     5.1368 
 H                     17.75231   4.17364   4.36318 
 H                     17.80252   4.45388   6.07741 
 H                     15.33339   0.64107   6.25653 
 H                     13.60087   1.10407   6.08569 
 H                     14.72027   2.64136   8.20494 
 H                     15.54064   1.12256   8.27659 
 H                     20.40924   0.20367   4.27765 
 H                     21.53964  -0.02665   2.98601 
 H                     20.63958  -1.44852   3.56476 
 H                     22.08088  -1.4094    1.32154 
 H                     21.91053  -2.7449    0.0432 
 H                     20.94725  -2.72508   1.54824 
 H                     16.91097   0.29347  -3.48041 
 H                     15.2282   2.74065  -3.67108 
 H                     18.29722   1.71829  -4.56545 
 H                     18.40403   2.65846  -3.03551 
 H                     17.24931   3.08448  -4.19342 
 H                     14.85897   0.6565   -5.0465 
 H                     13.4116   1.33382  -4.32446 
 H                     15.00579  -1.04438  -3.70409 
 H                     13.21201  -0.92443  -3.81721 
 H                     14.11472  -0.36566  -2.33829 
 H                     9.99596   3.72879  -0.28521 
 H                     11.13589   3.68292  -1.66891 
 H                     11.2166   5.06895  -0.50932 
 H                     12.52676   4.55117   4.42221 
 H                     10.01043   3.52589   7.76882 
 H                     11.54873   2.50354   8.10403 
 H                     10.15861   1.97832   7.12222 
 
 ITRead=  0  0  0  0  0  0  0  0  0  0  0  0  0  0  0  0  0  0  0  0
 ITRead=  0  0  0  0  0  0  0  0  0  0  0  0  0  0  0  0  0  0  0  0
 ITRead=  0  0  0  0  0  0  0  0  0  0  0  0  0  0  0  0  0  0  0  0
 ITRead=  0  0  0  0  0  0  0  0  0  0  0  0  0  0  0  0  0  0  0  0
 ITRead=  0  0  0  0  0  0  0  0  0  0  0  0  0  0  0  0  0  0  0  0
 ITRead=  0  0  0  0  0  0  0  0  0  0  0  0  0  0  0  0  0  0  0  0
 ITRead=  0  0  0  0  0  0  0  0  0  0  0  0  0  0  0  0  0  0  0  0
 ITRead=  0  0  0  0  0  0  0  0  0  0  0  0  0  0  0  0  0  0
 MicOpt= -1 -1 -1 -1 -1 -1 -1 -1 -1 -1 -1 -1 -1 -1 -1 -1 -1 -1 -1 -1
 MicOpt= -1 -1 -1 -1 -1 -1 -1 -1 -1 -1 -1 -1 -1 -1 -1 -1 -1 -1 -1 -1
 MicOpt= -1 -1 -1 -1 -1 -1 -1 -1 -1 -1 -1 -1 -1 -1 -1 -1 -1 -1 -1 -1
 MicOpt= -1 -1 -1 -1 -1 -1 -1 -1 -1 -1 -1 -1 -1 -1 -1 -1 -1 -1 -1 -1
 MicOpt= -1 -1 -1 -1 -1 -1 -1 -1 -1 -1 -1 -1 -1 -1 -1 -1 -1 -1 -1 -1
 MicOpt= -1 -1 -1 -1 -1 -1 -1 -1 -1 -1 -1 -1 -1 -1 -1 -1 -1 -1 -1 -1
 MicOpt= -1 -1 -1 -1 -1 -1 -1 -1 -1 -1 -1 -1 -1 -1 -1 -1 -1 -1 -1 -1
 MicOpt= -1 -1 -1 -1 -1 -1 -1 -1 -1 -1 -1 -1 -1 -1 -1 -1 -1 -1
 NAtoms=    158 NQM=      158 NQMF=       0 NMMI=      0 NMMIF=      0
                NMic=       0 NMicF=      0.
                    Isotopes and Nuclear Properties:
 (Nuclear quadrupole moments (NQMom) in fm**2, nuclear magnetic moments (NMagM)
  in nuclear magnetons)

  Atom         1           2           3           4           5           6           7           8           9          10
 IAtWgt=          24          12          12          12          12          14          12          12          12          12
 AtmWgt=  23.9850450  12.0000000  12.0000000  12.0000000  12.0000000  14.0030740  12.0000000  12.0000000  12.0000000  12.0000000
 NucSpn=           0           0           0           0           0           2           0           0           0           0
 AtZEff=  -0.0000000  -0.0000000  -0.0000000  -0.0000000  -0.0000000  -0.0000000  -0.0000000  -0.0000000  -0.0000000  -0.0000000
 NQMom=    0.0000000   0.0000000   0.0000000   0.0000000   0.0000000   2.0440000   0.0000000   0.0000000   0.0000000   0.0000000
 NMagM=    0.0000000   0.0000000   0.0000000   0.0000000   0.0000000   0.4037610   0.0000000   0.0000000   0.0000000   0.0000000
 AtZNuc=  12.0000000   6.0000000   6.0000000   6.0000000   6.0000000   7.0000000   6.0000000   6.0000000   6.0000000   6.0000000

  Atom        11          12          13          14          15          16          17          18          19          20
 IAtWgt=          12          12          12           1          14          12          12          12          12          12
 AtmWgt=  12.0000000  12.0000000  12.0000000   1.0078250  14.0030740  12.0000000  12.0000000  12.0000000  12.0000000  12.0000000
 NucSpn=           0           0           0           1           2           0           0           0           0           0
 AtZEff=  -0.0000000  -0.0000000  -0.0000000  -0.0000000  -0.0000000  -0.0000000  -0.0000000  -0.0000000  -0.0000000  -0.0000000
 NQMom=    0.0000000   0.0000000   0.0000000   0.0000000   2.0440000   0.0000000   0.0000000   0.0000000   0.0000000   0.0000000
 NMagM=    0.0000000   0.0000000   0.0000000   2.7928460   0.4037610   0.0000000   0.0000000   0.0000000   0.0000000   0.0000000
 AtZNuc=   6.0000000   6.0000000   6.0000000   1.0000000   7.0000000   6.0000000   6.0000000   6.0000000   6.0000000   6.0000000

  Atom        21          22          23          24          25          26          27          28          29          30
 IAtWgt=          12          16          12          14          12          12          12          12          12          12
 AtmWgt=  12.0000000  15.9949146  12.0000000  14.0030740  12.0000000  12.0000000  12.0000000  12.0000000  12.0000000  12.0000000
 NucSpn=           0           0           0           2           0           0           0           0           0           0
 AtZEff=  -0.0000000  -0.0000000  -0.0000000  -0.0000000  -0.0000000  -0.0000000  -0.0000000  -0.0000000  -0.0000000  -0.0000000
 NQMom=    0.0000000   0.0000000   0.0000000   2.0440000   0.0000000   0.0000000   0.0000000   0.0000000   0.0000000   0.0000000
 NMagM=    0.0000000   0.0000000   0.0000000   0.4037610   0.0000000   0.0000000   0.0000000   0.0000000   0.0000000   0.0000000
 AtZNuc=   6.0000000   8.0000000   6.0000000   7.0000000   6.0000000   6.0000000   6.0000000   6.0000000   6.0000000   6.0000000

  Atom        31          32          33          34          35          36          37          38          39          40
 IAtWgt=          12          14          12          12          12          12          12          12          16          12
 AtmWgt=  12.0000000  14.0030740  12.0000000  12.0000000  12.0000000  12.0000000  12.0000000  12.0000000  15.9949146  12.0000000
 NucSpn=           0           2           0           0           0           0           0           0           0           0
 AtZEff=  -0.0000000  -0.0000000  -0.0000000  -0.0000000  -0.0000000  -0.0000000  -0.0000000  -0.0000000  -0.0000000  -0.0000000
 NQMom=    0.0000000   2.0440000   0.0000000   0.0000000   0.0000000   0.0000000   0.0000000   0.0000000   0.0000000   0.0000000
 NMagM=    0.0000000   0.4037610   0.0000000   0.0000000   0.0000000   0.0000000   0.0000000   0.0000000   0.0000000   0.0000000
 AtZNuc=   6.0000000   7.0000000   6.0000000   6.0000000   6.0000000   6.0000000   6.0000000   6.0000000   8.0000000   6.0000000

  Atom        41          42          43          44          45          46          47          48          49          50
 IAtWgt=          12          16          16          12           1           1           1           1           1           1
 AtmWgt=  12.0000000  15.9949146  15.9949146  12.0000000   1.0078250   1.0078250   1.0078250   1.0078250   1.0078250   1.0078250
 NucSpn=           0           0           0           0           1           1           1           1           1           1
 AtZEff=  -0.0000000  -0.0000000  -0.0000000  -0.0000000  -0.0000000  -0.0000000  -0.0000000  -0.0000000  -0.0000000  -0.0000000
 NQMom=    0.0000000   0.0000000   0.0000000   0.0000000   0.0000000   0.0000000   0.0000000   0.0000000   0.0000000   0.0000000
 NMagM=    0.0000000   0.0000000   0.0000000   0.0000000   2.7928460   2.7928460   2.7928460   2.7928460   2.7928460   2.7928460
 AtZNuc=   6.0000000   8.0000000   8.0000000   6.0000000   1.0000000   1.0000000   1.0000000   1.0000000   1.0000000   1.0000000

  Atom        51          52          53          54          55          56          57          58          59          60
 IAtWgt=           1           1           1           1           1           1           1           1           1           1
 AtmWgt=   1.0078250   1.0078250   1.0078250   1.0078250   1.0078250   1.0078250   1.0078250   1.0078250   1.0078250   1.0078250
 NucSpn=           1           1           1           1           1           1           1           1           1           1
 AtZEff=  -0.0000000  -0.0000000  -0.0000000  -0.0000000  -0.0000000  -0.0000000  -0.0000000  -0.0000000  -0.0000000  -0.0000000
 NQMom=    0.0000000   0.0000000   0.0000000   0.0000000   0.0000000   0.0000000   0.0000000   0.0000000   0.0000000   0.0000000
 NMagM=    2.7928460   2.7928460   2.7928460   2.7928460   2.7928460   2.7928460   2.7928460   2.7928460   2.7928460   2.7928460
 AtZNuc=   1.0000000   1.0000000   1.0000000   1.0000000   1.0000000   1.0000000   1.0000000   1.0000000   1.0000000   1.0000000

  Atom        61          62          63          64          65          66          67          68          69          70
 IAtWgt=           1           1           1           1           1           1           1           1           1           1
 AtmWgt=   1.0078250   1.0078250   1.0078250   1.0078250   1.0078250   1.0078250   1.0078250   1.0078250   1.0078250   1.0078250
 NucSpn=           1           1           1           1           1           1           1           1           1           1
 AtZEff=  -0.0000000  -0.0000000  -0.0000000  -0.0000000  -0.0000000  -0.0000000  -0.0000000  -0.0000000  -0.0000000  -0.0000000
 NQMom=    0.0000000   0.0000000   0.0000000   0.0000000   0.0000000   0.0000000   0.0000000   0.0000000   0.0000000   0.0000000
 NMagM=    2.7928460   2.7928460   2.7928460   2.7928460   2.7928460   2.7928460   2.7928460   2.7928460   2.7928460   2.7928460
 AtZNuc=   1.0000000   1.0000000   1.0000000   1.0000000   1.0000000   1.0000000   1.0000000   1.0000000   1.0000000   1.0000000

  Atom        71          72          73          74          75          76          77          78          79          80
 IAtWgt=           1           1           1           1           1           1           1           1           1          24
 AtmWgt=   1.0078250   1.0078250   1.0078250   1.0078250   1.0078250   1.0078250   1.0078250   1.0078250   1.0078250  23.9850450
 NucSpn=           1           1           1           1           1           1           1           1           1           0
 AtZEff=  -0.0000000  -0.0000000  -0.0000000  -0.0000000  -0.0000000  -0.0000000  -0.0000000  -0.0000000  -0.0000000  -0.0000000
 NQMom=    0.0000000   0.0000000   0.0000000   0.0000000   0.0000000   0.0000000   0.0000000   0.0000000   0.0000000   0.0000000
 NMagM=    2.7928460   2.7928460   2.7928460   2.7928460   2.7928460   2.7928460   2.7928460   2.7928460   2.7928460   0.0000000
 AtZNuc=   1.0000000   1.0000000   1.0000000   1.0000000   1.0000000   1.0000000   1.0000000   1.0000000   1.0000000  12.0000000

  Atom        81          82          83          84          85          86          87          88          89          90
 IAtWgt=          12          12          12          12          14          12          12          12          12          12
 AtmWgt=  12.0000000  12.0000000  12.0000000  12.0000000  14.0030740  12.0000000  12.0000000  12.0000000  12.0000000  12.0000000
 NucSpn=           0           0           0           0           2           0           0           0           0           0
 AtZEff=  -0.0000000  -0.0000000  -0.0000000  -0.0000000  -0.0000000  -0.0000000  -0.0000000  -0.0000000  -0.0000000  -0.0000000
 NQMom=    0.0000000   0.0000000   0.0000000   0.0000000   2.0440000   0.0000000   0.0000000   0.0000000   0.0000000   0.0000000
 NMagM=    0.0000000   0.0000000   0.0000000   0.0000000   0.4037610   0.0000000   0.0000000   0.0000000   0.0000000   0.0000000
 AtZNuc=   6.0000000   6.0000000   6.0000000   6.0000000   7.0000000   6.0000000   6.0000000   6.0000000   6.0000000   6.0000000

  Atom        91          92          93          94          95          96          97          98          99         100
 IAtWgt=          12          12           1          14          12          12          12          12          12          12
 AtmWgt=  12.0000000  12.0000000   1.0078250  14.0030740  12.0000000  12.0000000  12.0000000  12.0000000  12.0000000  12.0000000
 NucSpn=           0           0           1           2           0           0           0           0           0           0
 AtZEff=  -0.0000000  -0.0000000  -0.0000000  -0.0000000  -0.0000000  -0.0000000  -0.0000000  -0.0000000  -0.0000000  -0.0000000
 NQMom=    0.0000000   0.0000000   0.0000000   2.0440000   0.0000000   0.0000000   0.0000000   0.0000000   0.0000000   0.0000000
 NMagM=    0.0000000   0.0000000   2.7928460   0.4037610   0.0000000   0.0000000   0.0000000   0.0000000   0.0000000   0.0000000
 AtZNuc=   6.0000000   6.0000000   1.0000000   7.0000000   6.0000000   6.0000000   6.0000000   6.0000000   6.0000000   6.0000000

  Atom       101         102         103         104         105         106         107         108         109         110
 IAtWgt=          16          12          14          12          12          12          12          12          12          12
 AtmWgt=  15.9949146  12.0000000  14.0030740  12.0000000  12.0000000  12.0000000  12.0000000  12.0000000  12.0000000  12.0000000
 NucSpn=           0           0           2           0           0           0           0           0           0           0
 AtZEff=  -0.0000000  -0.0000000  -0.0000000  -0.0000000  -0.0000000  -0.0000000  -0.0000000  -0.0000000  -0.0000000  -0.0000000
 NQMom=    0.0000000   0.0000000   2.0440000   0.0000000   0.0000000   0.0000000   0.0000000   0.0000000   0.0000000   0.0000000
 NMagM=    0.0000000   0.0000000   0.4037610   0.0000000   0.0000000   0.0000000   0.0000000   0.0000000   0.0000000   0.0000000
 AtZNuc=   8.0000000   6.0000000   7.0000000   6.0000000   6.0000000   6.0000000   6.0000000   6.0000000   6.0000000   6.0000000

  Atom       111         112         113         114         115         116         117         118         119         120
 IAtWgt=          14          12          12          12          12          12          12          16          12          12
 AtmWgt=  14.0030740  12.0000000  12.0000000  12.0000000  12.0000000  12.0000000  12.0000000  15.9949146  12.0000000  12.0000000
 NucSpn=           2           0           0           0           0           0           0           0           0           0
 AtZEff=  -0.0000000  -0.0000000  -0.0000000  -0.0000000  -0.0000000  -0.0000000  -0.0000000  -0.0000000  -0.0000000  -0.0000000
 NQMom=    2.0440000   0.0000000   0.0000000   0.0000000   0.0000000   0.0000000   0.0000000   0.0000000   0.0000000   0.0000000
 NMagM=    0.4037610   0.0000000   0.0000000   0.0000000   0.0000000   0.0000000   0.0000000   0.0000000   0.0000000   0.0000000
 AtZNuc=   7.0000000   6.0000000   6.0000000   6.0000000   6.0000000   6.0000000   6.0000000   8.0000000   6.0000000   6.0000000

  Atom       121         122         123         124         125         126         127         128         129         130
 IAtWgt=          16          16          12           1           1           1           1           1           1           1
 AtmWgt=  15.9949146  15.9949146  12.0000000   1.0078250   1.0078250   1.0078250   1.0078250   1.0078250   1.0078250   1.0078250
 NucSpn=           0           0           0           1           1           1           1           1           1           1
 AtZEff=  -0.0000000  -0.0000000  -0.0000000  -0.0000000  -0.0000000  -0.0000000  -0.0000000  -0.0000000  -0.0000000  -0.0000000
 NQMom=    0.0000000   0.0000000   0.0000000   0.0000000   0.0000000   0.0000000   0.0000000   0.0000000   0.0000000   0.0000000
 NMagM=    0.0000000   0.0000000   0.0000000   2.7928460   2.7928460   2.7928460   2.7928460   2.7928460   2.7928460   2.7928460
 AtZNuc=   8.0000000   8.0000000   6.0000000   1.0000000   1.0000000   1.0000000   1.0000000   1.0000000   1.0000000   1.0000000

  Atom       131         132         133         134         135         136         137         138         139         140
 IAtWgt=           1           1           1           1           1           1           1           1           1           1
 AtmWgt=   1.0078250   1.0078250   1.0078250   1.0078250   1.0078250   1.0078250   1.0078250   1.0078250   1.0078250   1.0078250
 NucSpn=           1           1           1           1           1           1           1           1           1           1
 AtZEff=  -0.0000000  -0.0000000  -0.0000000  -0.0000000  -0.0000000  -0.0000000  -0.0000000  -0.0000000  -0.0000000  -0.0000000
 NQMom=    0.0000000   0.0000000   0.0000000   0.0000000   0.0000000   0.0000000   0.0000000   0.0000000   0.0000000   0.0000000
 NMagM=    2.7928460   2.7928460   2.7928460   2.7928460   2.7928460   2.7928460   2.7928460   2.7928460   2.7928460   2.7928460
 AtZNuc=   1.0000000   1.0000000   1.0000000   1.0000000   1.0000000   1.0000000   1.0000000   1.0000000   1.0000000   1.0000000

  Atom       141         142         143         144         145         146         147         148         149         150
 IAtWgt=           1           1           1           1           1           1           1           1           1           1
 AtmWgt=   1.0078250   1.0078250   1.0078250   1.0078250   1.0078250   1.0078250   1.0078250   1.0078250   1.0078250   1.0078250
 NucSpn=           1           1           1           1           1           1           1           1           1           1
 AtZEff=  -0.0000000  -0.0000000  -0.0000000  -0.0000000  -0.0000000  -0.0000000  -0.0000000  -0.0000000  -0.0000000  -0.0000000
 NQMom=    0.0000000   0.0000000   0.0000000   0.0000000   0.0000000   0.0000000   0.0000000   0.0000000   0.0000000   0.0000000
 NMagM=    2.7928460   2.7928460   2.7928460   2.7928460   2.7928460   2.7928460   2.7928460   2.7928460   2.7928460   2.7928460
 AtZNuc=   1.0000000   1.0000000   1.0000000   1.0000000   1.0000000   1.0000000   1.0000000   1.0000000   1.0000000   1.0000000

  Atom       151         152         153         154         155         156         157         158
 IAtWgt=           1           1           1           1           1           1           1           1
 AtmWgt=   1.0078250   1.0078250   1.0078250   1.0078250   1.0078250   1.0078250   1.0078250   1.0078250
 NucSpn=           1           1           1           1           1           1           1           1
 AtZEff=  -0.0000000  -0.0000000  -0.0000000  -0.0000000  -0.0000000  -0.0000000  -0.0000000  -0.0000000
 NQMom=    0.0000000   0.0000000   0.0000000   0.0000000   0.0000000   0.0000000   0.0000000   0.0000000
 NMagM=    2.7928460   2.7928460   2.7928460   2.7928460   2.7928460   2.7928460   2.7928460   2.7928460
 AtZNuc=   1.0000000   1.0000000   1.0000000   1.0000000   1.0000000   1.0000000   1.0000000   1.0000000
 Leave Link  101 at Sun Sep 12 00:21:49 2021, MaxMem= 23488102400 cpu:               3.2 elap:               0.2
 (Enter /sw/apps/gaussian-16.0/g16/l202.exe)
 Stoichiometry    C68H72Mg2N8O8
 Framework group  C1[X(C68H72Mg2N8O8)]
 Deg. of freedom   468
 Full point group                 C1      NOp   1
 Largest Abelian subgroup         C1      NOp   1
 Largest concise Abelian subgroup C1      NOp   1
                         Standard orientation:                         
 ---------------------------------------------------------------------
 Center     Atomic      Atomic             Coordinates (Angstroms)
 Number     Number       Type             X           Y           Z
 ---------------------------------------------------------------------
      1         12           0        7.704502   -0.837379    0.045167
      2          6           0        7.995280    2.087944   -1.996927
      3          6           0        8.604714    1.107914    2.700072
      4          6           0        7.897067   -3.484708    1.780444
      5          6           0        7.944784   -2.721233   -2.876992
      6          7           0        8.208607    1.312273    0.204921
      7          6           0        8.224288    2.336916   -0.641857
      8          6           0        8.432514    3.713382    0.057683
      9          6           0        9.162322    3.213735    1.384231
     10          6           0        8.598903    1.805410    1.455686
     11          6           0       10.679381    3.129629    1.250206
     12          6           0        7.076793    4.425903    0.383359
     13          6           0        7.191014    5.904605    0.765130
     14          1           0        6.140751    6.819628    0.344384
     15          7           0        7.701732   -1.087799    2.004793
     16          6           0        8.085250   -0.183098    2.937379
     17          6           0        7.898492   -0.843710    4.247109
     18          6           0        7.555504   -2.270431    3.992316
     19          6           0        7.732357   -2.345349    2.564559
     20          6           0        7.999479   -0.120790    5.555138
     21          6           0        7.145232   -3.391461    4.894037
     22          8           0        7.119673   -4.607258    4.499374
     23          6           0        6.855359   -3.035316    6.294815
     24          7           0        8.113698   -2.826219   -0.439298
     25          6           0        8.077172   -3.785008    0.492567
     26          6           0        8.120863   -5.150413   -0.126870
     27          6           0        7.949416   -4.928387   -1.698831
     28          6           0        7.917117   -3.380188   -1.716354
     29          6           0        9.394762   -5.964826    0.137558
     30          6           0        6.799919   -5.698047   -2.396469
     31          6           0        5.465362   -5.172579   -1.916948
     32          7           0        7.752394   -0.424701   -2.085196
     33          6           0        7.879149   -1.359880   -3.122522
     34          6           0        7.972488   -0.598357   -4.381665
     35          6           0        7.909806    0.736096   -3.985242
     36          6           0        7.811626    0.804493   -2.566097
     37          6           0        8.155392   -1.152685   -5.679240
     38          6           0        7.927733    2.120679   -4.428486
     39          8           0        7.901196    2.680407   -5.525525
     40          6           0        8.106504    3.053656   -3.150432
     41          6           0        7.086656    4.155525   -3.245835
     42          8           0        5.867015    3.908191   -3.152731
     43          8           0        7.709020    5.343122   -3.192731
     44          6           0        6.751367    6.479538   -3.252847
     45          1           0        9.103421    1.563131    3.557983
     46          1           0        7.857486   -4.426639    2.331478
     47          1           0        7.936498   -3.243251   -3.835575
     48          1           0        9.077533    4.405501   -0.483932
     49          1           0        8.856796    3.788888    2.258059
     50          1           0       10.998830    3.303780    0.222809
     51          1           0       10.943869    2.120006    1.565166
     52          1           0       11.168441    3.801482    1.956045
     53          1           0        6.674263    4.024718    1.313456
     54          1           0        6.376682    4.320763   -0.446168
     55          1           0        8.172258    6.306994    0.511846
     56          1           0        7.138596    5.981987    1.851162
     57          1           0        8.425589    0.873988    5.431078
     58          1           0        8.731471   -0.656427    6.159281
     59          1           0        7.044511   -0.086209    6.079706
     60          1           0        7.739370   -2.578631    6.740361
     61          1           0        6.492273   -3.947012    6.767921
     62          1           0        6.075419   -2.273495    6.311300
     63          1           0        7.303504   -5.771423    0.237408
     64          1           0        8.841053   -5.222434   -2.253082
     65          1           0        9.207047   -6.932265    0.603960
     66          1           0       10.061489   -5.358295    0.749837
     67          1           0       10.012491   -6.145548   -0.741741
     68          1           0        6.839947   -6.755596   -2.137755
     69          1           0        6.828124   -5.621235   -3.483463
     70          1           0        5.307356   -5.720411   -0.988645
     71          1           0        4.683868   -5.400419   -2.642598
     72          1           0        5.521882   -4.113490   -1.664715
     73          1           0        7.475315   -0.614564   -6.339459
     74          1           0        7.949401   -2.222794   -5.685315
     75          1           0        9.208759   -0.929259   -5.847626
     76          1           0        9.126322    3.435919   -3.181563
     77          1           0        7.054012    7.110454   -4.088660
     78          1           0        6.739383    6.927565   -2.259100
     79          1           0        5.728658    6.233363   -3.540602
     80         12           0       -8.164819   -0.444567   -0.095966
     81          6           0       -6.083103    1.847063    1.718967
     82          6           0      -10.548288    1.994897   -0.148079
     83          6           0      -10.182531   -2.579902   -1.294534
     84          6           0       -6.122188   -3.012857    1.077601
     85          7           0       -8.193727    1.613391    0.714114
     86          6           0       -7.322544    2.397372    1.331188
     87          6           0       -7.775378    3.875301    1.473371
     88          6           0       -9.362805    3.650244    1.382336
     89          6           0       -9.380177    2.357739    0.568828
     90          6           0      -10.009906    3.375378    2.729574
     91          6           0       -7.254578    4.775689    0.298597
     92          6           0       -7.395766    6.281577    0.531219
     93          1           0       -6.359028    7.166912    0.007950
     94          7           0       -9.876852   -0.190130   -1.066940
     95          6           0      -10.707242    0.870761   -0.987957
     96          6           0      -11.837297    0.564328   -1.878598
     97          6           0      -11.686989   -0.834885   -2.362682
     98          6           0      -10.562883   -1.272361   -1.559516
     99          6           0      -12.875191    1.581215   -2.255608
    100          6           0      -12.439568   -1.649033   -3.371136
    101          8           0      -12.286941   -2.918477   -3.460884
    102          6           0      -13.429028   -0.930387   -4.187223
    103          7           0       -8.285157   -2.514149    0.061184
    104          6           0       -9.229081   -3.204154   -0.602758
    105          6           0       -8.951696   -4.687934   -0.559769
    106          6           0       -7.488182   -4.833389    0.068373
    107          6           0       -7.195969   -3.348280    0.375717
    108          6           0       -9.939191   -5.526050    0.251896
    109          6           0       -6.445184   -5.636710   -0.755939
    110          6           0       -6.102639   -4.888566   -2.024129
    111          7           0       -6.314780   -0.577444    1.012074
    112          6           0       -5.646783   -1.753154    1.418966
    113          6           0       -4.494620   -1.335878    2.244099
    114          6           0       -4.586231    0.063712    2.279355
    115          6           0       -5.727269    0.487571    1.545953
    116          6           0       -3.568112   -2.208719    2.881176
    117          6           0       -3.983174    1.278328    2.779079
    118          8           0       -2.948611    1.547732    3.388049
    119          6           0       -4.997023    2.479689    2.544101
    120          6           0       -4.230542    3.622133    1.935967
    121          8           0       -3.736322    3.517783    0.799537
    122          8           0       -4.392249    4.717612    2.700259
    123          6           0       -3.659628    5.880460    2.132031
    124          1           0      -11.443496    2.604949   -0.024256
    125          1           0      -10.783645   -3.353111   -1.778579
    126          1           0       -5.381546   -3.748346    1.398815
    127          1           0       -7.519282    4.340000    2.417959
    128          1           0       -9.844741    4.453887    0.831653
    129          1           0       -9.275768    3.259325    3.512964
    130          1           0      -10.575915    2.461756    2.603132
    131          1           0      -10.742228    4.153882    2.961864
    132          1           0       -7.919740    4.655998   -0.566258
    133          1           0       -6.235171    4.540678    0.061523
    134          1           0       -7.609566    6.518292    1.580607
    135          1           0       -8.277878    6.634852   -0.008313
    136          1           0      -12.818061    2.470521   -1.615868
    137          1           0      -13.851750    1.142347   -2.024067
    138          1           0      -12.846254    1.839265   -3.316374
    139          1           0      -14.166415   -0.467224   -3.535908
    140          1           0      -13.798603   -1.661212   -4.909167
    141          1           0      -12.921144   -0.116419   -4.716484
    142          1           0       -8.949541   -5.110017   -1.557233
    143          1           0       -7.510151   -5.356097    1.035905
    144          1           0      -10.412293   -6.334653   -0.336686
    145          1           0      -10.690768   -4.865112    0.662788
    146          1           0       -9.525674   -5.989755    1.145862
    147          1           0       -6.865446   -6.596678   -1.065786
    148          1           0       -5.531655   -5.846400   -0.209593
    149          1           0       -6.912076   -5.171395   -2.703774
    150          1           0       -5.135596   -5.207511   -2.407727
    151          1           0       -6.164517   -3.804922   -1.870718
    152          1           0       -2.583781   -1.790163    2.718718
    153          1           0       -3.640472   -3.220704    2.488225
    154          1           0       -3.918077   -2.143765    3.914893
    155          1           0       -5.423637    2.742567    3.512839
    156          1           0       -2.994442    6.253521    2.916911
    157          1           0       -4.439038    6.572438    1.761331
    158          1           0       -2.954793    5.686468    1.332013
 ---------------------------------------------------------------------
 Rotational constants (GHZ):           0.0244445           0.0059714           0.0056270
 Leave Link  202 at Sun Sep 12 00:21:49 2021, MaxMem= 23488102400 cpu:               0.2 elap:               0.0
 (Enter /sw/apps/gaussian-16.0/g16/l301.exe)
 Standard basis: def2SVP (5D, 7F)
 Ernie: Thresh=  0.10000D-02 Tol=  0.10000D-05 Strict=F.
 There are  1658 symmetry adapted cartesian basis functions of A   symmetry.
 There are  1572 symmetry adapted basis functions of A   symmetry.
  1572 basis functions,  2678 primitive gaussians,  1658 cartesian basis functions
   312 alpha electrons      312 beta electrons
       nuclear repulsion energy     13877.5260244480 Hartrees.
 IExCor=20419 DFT=T Ex+Corr=CAM-B3LYP ExCW=0 ScaHFX=  1.000000
 ScaDFX=  1.000000  1.000000  1.000000  0.810000 ScalE2=  1.000000  1.000000
 IRadAn=      5 IRanWt=     -1 IRanGd=            0 ICorTp=0 IEmpDi=  4
 HFx  wShort=  0.000000 wLong=  0.330000 cFull=  0.190000 cShort=  0.000000 cLong=  0.460000
 DFx  wShort=  0.000000 wLong=  0.330000 cFull=  0.190000 cShort=  0.000000 cLong=  0.460000
 NAtoms=  158 NActive=  158 NUniq=  158 SFac= 1.00D+00 NAtFMM=   60 NAOKFM=T Big=T
 Integral buffers will be    131072 words long.
 Raffenetti 1 integral format.
 Two-electron integral symmetry is turned on.
 Leave Link  301 at Sun Sep 12 00:21:49 2021, MaxMem= 23488102400 cpu:               1.3 elap:               0.1
 (Enter /sw/apps/gaussian-16.0/g16/l302.exe)
 NPDir=0 NMtPBC=     1 NCelOv=     1 NCel=       1 NClECP=     1 NCelD=      1
         NCelK=      1 NCelE2=     1 NClLst=     1 CellRange=     0.0.
 One-electron integrals computed using PRISM.
 One-electron integral symmetry used in STVInt
   1 Symmetry operations used in ECPInt.
 ECPInt:  NShTT=  271216 NPrTT=  987664 LenC2=  111115 LenP2D=  248691.
 LDataN:  DoStor=T MaxTD1= 4 Len=   56
 NBasis=  1572 RedAO= T EigKep=  3.36D-04  NBF=  1572
 NBsUse=  1572 1.00D-06 EigRej= -1.00D+00 NBFU=  1572
 Precomputing XC quadrature grid using
 IXCGrd= 4 IRadAn=           5 IRanWt=          -1 IRanGd=           0 AccXCQ= 0.00D+00.
 Generated NRdTot=       0 NPtTot=           0 NUsed=           0 NTot=          32
 NSgBfM=  1035  1028  1031  1031  1035 MxSgAt=   158 MxSgA2=   156.
 Leave Link  302 at Sun Sep 12 00:21:54 2021, MaxMem= 23488102400 cpu:             105.8 elap:               4.4
 (Enter /sw/apps/gaussian-16.0/g16/l303.exe)
 DipDrv:  MaxL=1.
 Leave Link  303 at Sun Sep 12 00:21:54 2021, MaxMem= 23488102400 cpu:               8.3 elap:               0.4
 (Enter /sw/apps/gaussian-16.0/g16/l308.exe)
 Leave Link  308 at Sun Sep 12 00:21:55 2021, MaxMem= 23488102400 cpu:              13.2 elap:               0.6
 (Enter /sw/apps/gaussian-16.0/g16/l401.exe)
 ExpMin= 3.36D-02 ExpMax= 4.95D+03 ExpMxC= 7.45D+02 IAcc=3 IRadAn=         5 AccDes= 0.00D+00
 Harris functional with IExCor=20419 and IRadAn=       5 diagonalized for initial guess.
 HarFok:  IExCor=20419 AccDes= 0.00D+00 IRadAn=         5 IDoV= 1 UseB2=F ITyADJ=14
 ICtDFT=  3500011 ScaDFX=  1.000000  1.000000  1.000000  1.000000
 FoFCou: FMM=F IPFlag=           0 FMFlag=      100000 FMFlg1=        2001
         NFxFlg=           0 DoJE=T BraDBF=F KetDBF=T FulRan=T
         wScrn=  0.000000 ICntrl=       500 IOpCl=  0 I1Cent=   200000004 NGrid=           0
         NMat0=    1 NMatS0=      1 NMatT0=    0 NMatD0=    1 NMtDS0=    0 NMtDT0=    0
 Petite list used in FoFCou.
 Harris En= -3918.65801288845    
 JPrj=0 DoOrth=F DoCkMO=F.
 Leave Link  401 at Sun Sep 12 00:22:01 2021, MaxMem= 23488102400 cpu:             151.4 elap:               6.3
 (Enter /sw/apps/gaussian-16.0/g16/l502.exe)
 Integral symmetry usage will be decided dynamically.
 Closed shell SCF:
 Using DIIS extrapolation, IDIIS=  1040.
 NGot= 23488102400 LenX= 23482547354 LenY= 23479796732
 Requested convergence on RMS density matrix=1.00D-08 within 128 cycles.
 Requested convergence on MAX density matrix=1.00D-06.
 Requested convergence on             energy=1.00D-06.
 No special actions if energy rises.
 Fock matrices will be formed incrementally for  20 cycles.

 Cycle   1  Pass 1  IDiag  1:
 FoFJK:  IHMeth= 1 ICntrl=       0 DoSepK=T KAlg= 0 I1Cent=           0 FoldK=F
 IRaf=         1 NMat=       1 IRICut=       1 DoRegI=T DoRafI=F ISym2E= 0 IDoP0=0 IntGTp=1.
 FoFCou: FMM=T IPFlag=           0 FMFlag=      100000 FMFlg1=        2001
         NFxFlg=           0 DoJE=T BraDBF=F KetDBF=F FulRan=T
         wScrn=  0.000000 ICntrl=       500 IOpCl=  0 I1Cent=           0 NGrid=           0
         NMat0=    1 NMatS0=      1 NMatT0=    0 NMatD0=    1 NMtDS0=    0 NMtDT0=    0
 Symmetry not used in FoFCou.
 FMM levels:  10  Number of levels for PrismC:   9
 E= -4068.94916284211    
 DIIS: error= 2.04D-02 at cycle   1 NSaved=   1.
 NSaved= 1 IEnMin= 1 EnMin= -4068.94916284211     IErMin= 1 ErrMin= 2.04D-02
 ErrMax= 2.04D-02  0.00D+00 EMaxC= 1.00D-01 BMatC= 1.69D+00 BMatP= 1.69D+00
 IDIUse=3 WtCom= 7.96D-01 WtEn= 2.04D-01
 Coeff-Com:  0.100D+01
 Coeff-En:   0.100D+01
 Coeff:      0.100D+01
 Gap=     0.120 Goal=   None    Shift=    0.000
 GapD=    0.120 DampG=1.000 DampE=0.500 DampFc=0.5000 IDamp=-1.
 Damping current iteration by 5.00D-01
 RMSDP=1.57D-03 MaxDP=1.35D-01              OVMax= 2.01D-01

 Cycle   2  Pass 1  IDiag  1:
 RMSU=  7.69D-04    CP:  9.82D-01
 E= -4069.33801744380     Delta-E=       -0.388854601690 Rises=F Damp=T
 DIIS: error= 1.27D-02 at cycle   2 NSaved=   2.
 NSaved= 2 IEnMin= 2 EnMin= -4069.33801744380     IErMin= 2 ErrMin= 1.27D-02
 ErrMax= 1.27D-02  0.00D+00 EMaxC= 1.00D-01 BMatC= 3.07D-01 BMatP= 1.69D+00
 IDIUse=3 WtCom= 8.73D-01 WtEn= 1.27D-01
 Coeff-Com: -0.213D+00 0.121D+01
 Coeff-En:   0.000D+00 0.100D+01
 Coeff:     -0.186D+00 0.119D+01
 Gap=     0.137 Goal=   None    Shift=    0.000
 RMSDP=7.65D-04 MaxDP=9.38D-02 DE=-3.89D-01 OVMax= 1.89D-01

 Cycle   3  Pass 1  IDiag  1:
 RMSU=  7.32D-04    CP:  9.68D-01  1.24D+00
 E= -4069.62762253169     Delta-E=       -0.289605087892 Rises=F Damp=F
 DIIS: error= 1.59D-02 at cycle   3 NSaved=   3.
 NSaved= 3 IEnMin= 3 EnMin= -4069.62762253169     IErMin= 2 ErrMin= 1.27D-02
 ErrMax= 1.59D-02  0.00D+00 EMaxC= 1.00D-01 BMatC= 2.02D-01 BMatP= 3.07D-01
 IDIUse=3 WtCom= 8.41D-01 WtEn= 1.59D-01
 Coeff-Com: -0.267D+00 0.652D+00 0.615D+00
 Coeff-En:   0.000D+00 0.000D+00 0.100D+01
 Coeff:     -0.225D+00 0.548D+00 0.676D+00
 Gap=     0.122 Goal=   None    Shift=    0.000
 RMSDP=5.08D-04 MaxDP=4.81D-02 DE=-2.90D-01 OVMax= 1.40D-01

 Cycle   4  Pass 1  IDiag  1:
 RMSU=  2.66D-04    CP:  9.65D-01  1.55D+00  5.05D-01
 E= -4069.76449588089     Delta-E=       -0.136873349195 Rises=F Damp=F
 DIIS: error= 7.45D-03 at cycle   4 NSaved=   4.
 NSaved= 4 IEnMin= 4 EnMin= -4069.76449588089     IErMin= 4 ErrMin= 7.45D-03
 ErrMax= 7.45D-03  0.00D+00 EMaxC= 1.00D-01 BMatC= 5.11D-02 BMatP= 2.02D-01
 IDIUse=3 WtCom= 9.26D-01 WtEn= 7.45D-02
 Coeff-Com: -0.109D+00 0.226D+00 0.409D+00 0.473D+00
 Coeff-En:   0.000D+00 0.000D+00 0.222D+00 0.778D+00
 Coeff:     -0.101D+00 0.209D+00 0.396D+00 0.496D+00
 Gap=     0.121 Goal=   None    Shift=    0.000
 RMSDP=2.01D-04 MaxDP=2.13D-02 DE=-1.37D-01 OVMax= 6.07D-02

 Cycle   5  Pass 1  IDiag  1:
 RMSU=  7.63D-05    CP:  9.64D-01  1.49D+00  6.89D-01  5.48D-01
 E= -4069.81037944246     Delta-E=       -0.045883561568 Rises=F Damp=F
 DIIS: error= 8.10D-04 at cycle   5 NSaved=   5.
 NSaved= 5 IEnMin= 5 EnMin= -4069.81037944246     IErMin= 5 ErrMin= 8.10D-04
 ErrMax= 8.10D-04  0.00D+00 EMaxC= 1.00D-01 BMatC= 1.19D-03 BMatP= 5.11D-02
 IDIUse=3 WtCom= 9.92D-01 WtEn= 8.10D-03
 Coeff-Com: -0.358D-01 0.704D-01 0.166D+00 0.250D+00 0.549D+00
 Coeff-En:   0.000D+00 0.000D+00 0.000D+00 0.000D+00 0.100D+01
 Coeff:     -0.356D-01 0.698D-01 0.165D+00 0.248D+00 0.553D+00
 Gap=     0.121 Goal=   None    Shift=    0.000
 RMSDP=4.08D-05 MaxDP=4.14D-03 DE=-4.59D-02 OVMax= 1.58D-02

 Cycle   6  Pass 1  IDiag  1:
 RMSU=  3.01D-05    CP:  9.64D-01  1.49D+00  6.81D-01  6.20D-01  7.58D-01
 E= -4069.81140526298     Delta-E=       -0.001025820526 Rises=F Damp=F
 DIIS: error= 2.25D-04 at cycle   6 NSaved=   6.
 NSaved= 6 IEnMin= 6 EnMin= -4069.81140526298     IErMin= 6 ErrMin= 2.25D-04
 ErrMax= 2.25D-04  0.00D+00 EMaxC= 1.00D-01 BMatC= 1.74D-04 BMatP= 1.19D-03
 IDIUse=3 WtCom= 9.98D-01 WtEn= 2.25D-03
 Coeff-Com:  0.233D-02-0.682D-02 0.109D-01 0.399D-01 0.304D+00 0.650D+00
 Coeff-En:   0.000D+00 0.000D+00 0.000D+00 0.000D+00 0.971D-01 0.903D+00
 Coeff:      0.233D-02-0.680D-02 0.108D-01 0.398D-01 0.303D+00 0.651D+00
 Gap=     0.121 Goal=   None    Shift=    0.000
 RMSDP=1.57D-05 MaxDP=1.21D-03 DE=-1.03D-03 OVMax= 7.06D-03

 Cycle   7  Pass 1  IDiag  1:
 RMSU=  1.06D-05    CP:  9.64D-01  1.50D+00  6.87D-01  6.20D-01  8.57D-01
                    CP:  7.54D-01
 E= -4069.81159105656     Delta-E=       -0.000185793582 Rises=F Damp=F
 DIIS: error= 8.04D-05 at cycle   7 NSaved=   7.
 NSaved= 7 IEnMin= 7 EnMin= -4069.81159105656     IErMin= 7 ErrMin= 8.04D-05
 ErrMax= 8.04D-05  0.00D+00 EMaxC= 1.00D-01 BMatC= 2.05D-05 BMatP= 1.74D-04
 IDIUse=1 WtCom= 1.00D+00 WtEn= 0.00D+00
 Coeff-Com:  0.445D-02-0.973D-02-0.898D-02-0.378D-02 0.100D+00 0.329D+00
 Coeff-Com:  0.588D+00
 Coeff:      0.445D-02-0.973D-02-0.898D-02-0.378D-02 0.100D+00 0.329D+00
 Coeff:      0.588D+00
 Gap=     0.121 Goal=   None    Shift=    0.000
 RMSDP=6.45D-06 MaxDP=1.09D-03 DE=-1.86D-04 OVMax= 3.33D-03

 Cycle   8  Pass 1  IDiag  1:
 RMSU=  4.65D-06    CP:  9.64D-01  1.50D+00  6.87D-01  6.24D-01  8.61D-01
                    CP:  8.79D-01  8.23D-01
 E= -4069.81161646591     Delta-E=       -0.000025409347 Rises=F Damp=F
 DIIS: error= 5.07D-05 at cycle   8 NSaved=   8.
 NSaved= 8 IEnMin= 8 EnMin= -4069.81161646591     IErMin= 8 ErrMin= 5.07D-05
 ErrMax= 5.07D-05  0.00D+00 EMaxC= 1.00D-01 BMatC= 4.79D-06 BMatP= 2.05D-05
 IDIUse=1 WtCom= 1.00D+00 WtEn= 0.00D+00
 Coeff-Com:  0.214D-02-0.424D-02-0.773D-02-0.121D-01-0.116D-01 0.339D-01
 Coeff-Com:  0.345D+00 0.655D+00
 Coeff:      0.214D-02-0.424D-02-0.773D-02-0.121D-01-0.116D-01 0.339D-01
 Coeff:      0.345D+00 0.655D+00
 Gap=     0.121 Goal=   None    Shift=    0.000
 RMSDP=3.25D-06 MaxDP=3.46D-04 DE=-2.54D-05 OVMax= 1.13D-03

 Cycle   9  Pass 1  IDiag  1:
 RMSU=  1.90D-06    CP:  9.64D-01  1.50D+00  6.88D-01  6.26D-01  8.78D-01
                    CP:  9.05D-01  1.02D+00  9.39D-01
 E= -4069.81162408040     Delta-E=       -0.000007614493 Rises=F Damp=F
 DIIS: error= 1.95D-05 at cycle   9 NSaved=   9.
 NSaved= 9 IEnMin= 9 EnMin= -4069.81162408040     IErMin= 9 ErrMin= 1.95D-05
 ErrMax= 1.95D-05  0.00D+00 EMaxC= 1.00D-01 BMatC= 6.78D-07 BMatP= 4.79D-06
 IDIUse=1 WtCom= 1.00D+00 WtEn= 0.00D+00
 Coeff-Com:  0.457D-03-0.758D-03-0.265D-02-0.595D-02-0.210D-01-0.384D-01
 Coeff-Com:  0.104D+00 0.324D+00 0.640D+00
 Coeff:      0.457D-03-0.758D-03-0.265D-02-0.595D-02-0.210D-01-0.384D-01
 Coeff:      0.104D+00 0.324D+00 0.640D+00
 Gap=     0.121 Goal=   None    Shift=    0.000
 RMSDP=1.41D-06 MaxDP=1.52D-04 DE=-7.61D-06 OVMax= 7.39D-04

 Cycle  10  Pass 1  IDiag  1:
 RMSU=  9.33D-07    CP:  9.64D-01  1.50D+00  6.88D-01  6.26D-01  8.81D-01
                    CP:  9.19D-01  1.06D+00  1.10D+00  1.05D+00
 E= -4069.81162564756     Delta-E=       -0.000001567154 Rises=F Damp=F
 DIIS: error= 1.04D-05 at cycle  10 NSaved=  10.
 NSaved=10 IEnMin=10 EnMin= -4069.81162564756     IErMin=10 ErrMin= 1.04D-05
 ErrMax= 1.04D-05  0.00D+00 EMaxC= 1.00D-01 BMatC= 1.71D-07 BMatP= 6.78D-07
 IDIUse=1 WtCom= 1.00D+00 WtEn= 0.00D+00
 Coeff-Com: -0.421D-03 0.883D-03 0.121D-02 0.109D-02-0.378D-02-0.308D-01
 Coeff-Com: -0.459D-01-0.754D-01 0.258D+00 0.895D+00
 Coeff:     -0.421D-03 0.883D-03 0.121D-02 0.109D-02-0.378D-02-0.308D-01
 Coeff:     -0.459D-01-0.754D-01 0.258D+00 0.895D+00
 Gap=     0.121 Goal=   None    Shift=    0.000
 RMSDP=1.21D-06 MaxDP=1.23D-04 DE=-1.57D-06 OVMax= 6.02D-04

 Cycle  11  Pass 1  IDiag  1:
 RMSU=  5.14D-07    CP:  9.64D-01  1.50D+00  6.88D-01  6.26D-01  8.83D-01
                    CP:  9.29D-01  1.11D+00  1.22D+00  1.39D+00  1.37D+00
 E= -4069.81162642329     Delta-E=       -0.000000775733 Rises=F Damp=F
 DIIS: error= 3.93D-06 at cycle  11 NSaved=  11.
 NSaved=11 IEnMin=11 EnMin= -4069.81162642329     IErMin=11 ErrMin= 3.93D-06
 ErrMax= 3.93D-06  0.00D+00 EMaxC= 1.00D-01 BMatC= 6.05D-08 BMatP= 1.71D-07
 IDIUse=1 WtCom= 1.00D+00 WtEn= 0.00D+00
 Coeff-Com: -0.324D-03 0.630D-03 0.132D-02 0.211D-02 0.435D-02-0.826D-02
 Coeff-Com: -0.435D-01-0.132D+00-0.220D-01 0.463D+00 0.735D+00
 Coeff:     -0.324D-03 0.630D-03 0.132D-02 0.211D-02 0.435D-02-0.826D-02
 Coeff:     -0.435D-01-0.132D+00-0.220D-01 0.463D+00 0.735D+00
 Gap=     0.121 Goal=   None    Shift=    0.000
 RMSDP=6.85D-07 MaxDP=5.95D-05 DE=-7.76D-07 OVMax= 3.73D-04

 Cycle  12  Pass 1  IDiag  1:
 RMSU=  2.63D-07    CP:  9.64D-01  1.50D+00  6.88D-01  6.27D-01  8.84D-01
                    CP:  9.31D-01  1.14D+00  1.28D+00  1.55D+00  1.76D+00
                    CP:  1.20D+00
 E= -4069.81162668416     Delta-E=       -0.000000260865 Rises=F Damp=F
 DIIS: error= 2.33D-06 at cycle  12 NSaved=  12.
 NSaved=12 IEnMin=12 EnMin= -4069.81162668416     IErMin=12 ErrMin= 2.33D-06
 ErrMax= 2.33D-06  0.00D+00 EMaxC= 1.00D-01 BMatC= 1.46D-08 BMatP= 6.05D-08
 IDIUse=1 WtCom= 1.00D+00 WtEn= 0.00D+00
 Coeff-Com: -0.757D-06-0.150D-04 0.182D-03 0.515D-03 0.325D-02 0.406D-02
 Coeff-Com:  0.259D-02-0.353D-01-0.674D-01-0.749D-01 0.253D+00 0.914D+00
 Coeff:     -0.757D-06-0.150D-04 0.182D-03 0.515D-03 0.325D-02 0.406D-02
 Coeff:      0.259D-02-0.353D-01-0.674D-01-0.749D-01 0.253D+00 0.914D+00
 Gap=     0.121 Goal=   None    Shift=    0.000
 RMSDP=4.35D-07 MaxDP=2.98D-05 DE=-2.61D-07 OVMax= 2.47D-04

 Cycle  13  Pass 1  IDiag  1:
 RMSU=  1.65D-07    CP:  9.64D-01  1.50D+00  6.88D-01  6.27D-01  8.84D-01
                    CP:  9.32D-01  1.14D+00  1.31D+00  1.66D+00  1.99D+00
                    CP:  1.61D+00  1.27D+00
 E= -4069.81162677516     Delta-E=       -0.000000091000 Rises=F Damp=F
 DIIS: error= 1.25D-06 at cycle  13 NSaved=  13.
 NSaved=13 IEnMin=13 EnMin= -4069.81162677516     IErMin=13 ErrMin= 1.25D-06
 ErrMax= 1.25D-06  0.00D+00 EMaxC= 1.00D-01 BMatC= 8.07D-09 BMatP= 1.46D-08
 IDIUse=1 WtCom= 1.00D+00 WtEn= 0.00D+00
 Coeff-Com:  0.119D-03-0.244D-03-0.369D-03-0.453D-03 0.553D-03 0.512D-02
 Coeff-Com:  0.197D-01 0.228D-01-0.340D-01-0.242D+00-0.156D+00 0.598D+00
 Coeff-Com:  0.787D+00
 Coeff:      0.119D-03-0.244D-03-0.369D-03-0.453D-03 0.553D-03 0.512D-02
 Coeff:      0.197D-01 0.228D-01-0.340D-01-0.242D+00-0.156D+00 0.598D+00
 Coeff:      0.787D+00
 Gap=     0.121 Goal=   None    Shift=    0.000
 RMSDP=3.40D-07 MaxDP=2.03D-05 DE=-9.10D-08 OVMax= 1.98D-04

 Cycle  14  Pass 1  IDiag  1:
 RMSU=  7.65D-08    CP:  9.64D-01  1.50D+00  6.88D-01  6.27D-01  8.85D-01
                    CP:  9.32D-01  1.15D+00  1.33D+00  1.74D+00  2.18D+00
                    CP:  1.87D+00  1.79D+00  1.09D+00
 E= -4069.81162681129     Delta-E=       -0.000000036132 Rises=F Damp=F
 DIIS: error= 6.25D-07 at cycle  14 NSaved=  14.
 NSaved=14 IEnMin=14 EnMin= -4069.81162681129     IErMin=14 ErrMin= 6.25D-07
 ErrMax= 6.25D-07  0.00D+00 EMaxC= 1.00D-01 BMatC= 1.25D-09 BMatP= 8.07D-09
 IDIUse=1 WtCom= 1.00D+00 WtEn= 0.00D+00
 Coeff-Com:  0.663D-04-0.131D-03-0.246D-03-0.386D-03-0.484D-03 0.133D-02
 Coeff-Com:  0.108D-01 0.193D-01 0.349D-02-0.101D+00-0.142D+00 0.950D-01
 Coeff-Com:  0.406D+00 0.708D+00
 Coeff:      0.663D-04-0.131D-03-0.246D-03-0.386D-03-0.484D-03 0.133D-02
 Coeff:      0.108D-01 0.193D-01 0.349D-02-0.101D+00-0.142D+00 0.950D-01
 Coeff:      0.406D+00 0.708D+00
 Gap=     0.121 Goal=   None    Shift=    0.000
 RMSDP=1.01D-07 MaxDP=6.29D-06 DE=-3.61D-08 OVMax= 5.68D-05

 Cycle  15  Pass 1  IDiag  1:
 RMSU=  3.84D-08    CP:  9.64D-01  1.50D+00  6.88D-01  6.27D-01  8.85D-01
                    CP:  9.32D-01  1.15D+00  1.34D+00  1.75D+00  2.22D+00
                    CP:  1.97D+00  1.93D+00  1.33D+00  1.03D+00
 E= -4069.81162681520     Delta-E=       -0.000000003907 Rises=F Damp=F
 DIIS: error= 3.65D-07 at cycle  15 NSaved=  15.
 NSaved=15 IEnMin=15 EnMin= -4069.81162681520     IErMin=15 ErrMin= 3.65D-07
 ErrMax= 3.65D-07  0.00D+00 EMaxC= 1.00D-01 BMatC= 2.28D-10 BMatP= 1.25D-09
 IDIUse=1 WtCom= 1.00D+00 WtEn= 0.00D+00
 Coeff-Com:  0.549D-05-0.916D-05-0.334D-04-0.829D-04-0.303D-03-0.506D-03
 Coeff-Com:  0.116D-02 0.264D-02 0.880D-02 0.161D-02-0.313D-01-0.734D-01
 Coeff-Com:  0.292D-01 0.300D+00 0.763D+00
 Coeff:      0.549D-05-0.916D-05-0.334D-04-0.829D-04-0.303D-03-0.506D-03
 Coeff:      0.116D-02 0.264D-02 0.880D-02 0.161D-02-0.313D-01-0.734D-01
 Coeff:      0.292D-01 0.300D+00 0.763D+00
 Gap=     0.121 Goal=   None    Shift=    0.000
 RMSDP=4.13D-08 MaxDP=2.41D-06 DE=-3.91D-09 OVMax= 2.69D-05

 Cycle  16  Pass 1  IDiag  1:
 RMSU=  1.89D-08    CP:  9.64D-01  1.50D+00  6.88D-01  6.27D-01  8.85D-01
                    CP:  9.32D-01  1.15D+00  1.34D+00  1.76D+00  2.24D+00
                    CP:  2.00D+00  1.99D+00  1.40D+00  1.24D+00  1.14D+00
 E= -4069.81162681599     Delta-E=       -0.000000000793 Rises=F Damp=F
 DIIS: error= 1.84D-07 at cycle  16 NSaved=  16.
 NSaved=16 IEnMin=16 EnMin= -4069.81162681599     IErMin=16 ErrMin= 1.84D-07
 ErrMax= 1.84D-07  0.00D+00 EMaxC= 1.00D-01 BMatC= 8.27D-11 BMatP= 2.28D-10
 IDIUse=1 WtCom= 1.00D+00 WtEn= 0.00D+00
 Coeff-Com: -0.143D-04 0.289D-04 0.472D-04 0.538D-04-0.274D-04-0.639D-03
 Coeff-Com: -0.200D-02-0.429D-02 0.459D-02 0.259D-01 0.207D-01-0.651D-01
 Coeff-Com: -0.841D-01-0.366D-01 0.399D+00 0.743D+00
 Coeff:     -0.143D-04 0.289D-04 0.472D-04 0.538D-04-0.274D-04-0.639D-03
 Coeff:     -0.200D-02-0.429D-02 0.459D-02 0.259D-01 0.207D-01-0.651D-01
 Coeff:     -0.841D-01-0.366D-01 0.399D+00 0.743D+00
 Gap=     0.121 Goal=   None    Shift=    0.000
 RMSDP=2.31D-08 MaxDP=1.39D-06 DE=-7.93D-10 OVMax= 1.41D-05

 Cycle  17  Pass 1  IDiag  1:
 RMSU=  1.06D-08    CP:  9.64D-01  1.50D+00  6.88D-01  6.27D-01  8.85D-01
                    CP:  9.32D-01  1.15D+00  1.34D+00  1.76D+00  2.24D+00
                    CP:  2.01D+00  2.01D+00  1.45D+00  1.34D+00  1.44D+00
                    CP:  1.25D+00
 E= -4069.81162681647     Delta-E=       -0.000000000480 Rises=F Damp=F
 DIIS: error= 1.02D-07 at cycle  17 NSaved=  17.
 NSaved=17 IEnMin=17 EnMin= -4069.81162681647     IErMin=17 ErrMin= 1.02D-07
 ErrMax= 1.02D-07  0.00D+00 EMaxC= 1.00D-01 BMatC= 1.81D-11 BMatP= 8.27D-11
 IDIUse=1 WtCom= 1.00D+00 WtEn= 0.00D+00
 Coeff-Com: -0.734D-05 0.143D-04 0.291D-04 0.434D-04 0.838D-04-0.127D-03
 Coeff-Com: -0.996D-03-0.286D-02 0.156D-03 0.956D-02 0.178D-01-0.765D-02
 Coeff-Com: -0.381D-01-0.103D+00-0.306D-01 0.296D+00 0.860D+00
 Coeff:     -0.734D-05 0.143D-04 0.291D-04 0.434D-04 0.838D-04-0.127D-03
 Coeff:     -0.996D-03-0.286D-02 0.156D-03 0.956D-02 0.178D-01-0.765D-02
 Coeff:     -0.381D-01-0.103D+00-0.306D-01 0.296D+00 0.860D+00
 Gap=     0.121 Goal=   None    Shift=    0.000
 RMSDP=1.41D-08 MaxDP=8.92D-07 DE=-4.80D-10 OVMax= 8.75D-06

 Cycle  18  Pass 1  IDiag  1:
 RMSU=  4.97D-09    CP:  9.64D-01  1.50D+00  6.88D-01  6.27D-01  8.85D-01
                    CP:  9.32D-01  1.15D+00  1.34D+00  1.76D+00  2.24D+00
                    CP:  2.02D+00  2.02D+00  1.47D+00  1.41D+00  1.62D+00
                    CP:  1.65D+00  1.39D+00
 E= -4069.81162681652     Delta-E=       -0.000000000055 Rises=F Damp=F
 DIIS: error= 5.14D-08 at cycle  18 NSaved=  18.
 NSaved=18 IEnMin=18 EnMin= -4069.81162681652     IErMin=18 ErrMin= 5.14D-08
 ErrMax= 5.14D-08  0.00D+00 EMaxC= 1.00D-01 BMatC= 6.85D-12 BMatP= 1.81D-11
 IDIUse=1 WtCom= 1.00D+00 WtEn= 0.00D+00
 Coeff-Com:  0.186D-05-0.404D-05-0.384D-05-0.639D-06 0.597D-04 0.180D-03
 Coeff-Com:  0.377D-03 0.158D-03-0.127D-02-0.594D-02 0.264D-03 0.200D-01
 Coeff-Com:  0.176D-01-0.340D-01-0.158D+00-0.181D+00 0.354D+00 0.988D+00
 Coeff:      0.186D-05-0.404D-05-0.384D-05-0.639D-06 0.597D-04 0.180D-03
 Coeff:      0.377D-03 0.158D-03-0.127D-02-0.594D-02 0.264D-03 0.200D-01
 Coeff:      0.176D-01-0.340D-01-0.158D+00-0.181D+00 0.354D+00 0.988D+00
 Gap=     0.121 Goal=   None    Shift=    0.000
 RMSDP=1.16D-08 MaxDP=7.63D-07 DE=-5.46D-11 OVMax= 7.28D-06

 Cycle  19  Pass 1  IDiag  1:
 RMSU=  2.88D-09    CP:  9.64D-01  1.50D+00  6.88D-01  6.27D-01  8.85D-01
                    CP:  9.32D-01  1.15D+00  1.34D+00  1.76D+00  2.25D+00
                    CP:  2.02D+00  2.03D+00  1.48D+00  1.46D+00  1.77D+00
                    CP:  1.97D+00  1.92D+00  1.35D+00
 E= -4069.81162681675     Delta-E=       -0.000000000226 Rises=F Damp=F
 DIIS: error= 4.38D-08 at cycle  19 NSaved=  19.
 NSaved=19 IEnMin=19 EnMin= -4069.81162681675     IErMin=19 ErrMin= 4.38D-08
 ErrMax= 4.38D-08  0.00D+00 EMaxC= 1.00D-01 BMatC= 1.74D-12 BMatP= 6.85D-12
 IDIUse=1 WtCom= 1.00D+00 WtEn= 0.00D+00
 Coeff-Com:  0.301D-05-0.607D-05-0.102D-04-0.126D-04 0.125D-04 0.129D-03
 Coeff-Com:  0.497D-03 0.830D-03-0.665D-03-0.630D-02-0.495D-02 0.130D-01
 Coeff-Com:  0.211D-01 0.103D-01-0.756D-01-0.187D+00-0.322D-01 0.530D+00
 Coeff-Com:  0.731D+00
 Coeff:      0.301D-05-0.607D-05-0.102D-04-0.126D-04 0.125D-04 0.129D-03
 Coeff:      0.497D-03 0.830D-03-0.665D-03-0.630D-02-0.495D-02 0.130D-01
 Coeff:      0.211D-01 0.103D-01-0.756D-01-0.187D+00-0.322D-01 0.530D+00
 Coeff:      0.731D+00
 Gap=     0.121 Goal=   None    Shift=    0.000
 RMSDP=5.03D-09 MaxDP=2.98D-07 DE=-2.26D-10 OVMax= 2.92D-06

 SCF Done:  E(RCAM-B3LYP) =  -4069.81162682     A.U. after   19 cycles
            NFock= 19  Conv=0.50D-08     -V/T= 2.0102
 KE= 4.028801709702D+03 PE=-3.723681558488D+04 EE= 1.526067622391D+04
 Leave Link  502 at Sun Sep 12 00:30:12 2021, MaxMem= 23488102400 cpu:           11251.2 elap:             491.2
 (Enter /sw/apps/gaussian-16.0/g16/l801.exe)
 DoSCS=F DFT=T ScalE2(SS,OS)=  1.000000  1.000000
 ExpMin= 3.36D-02 ExpMax= 4.95D+03 ExpMxC= 7.45D+02 IAcc=3 IRadAn=         5 AccDes= 0.00D+00
 HarFok:  IExCor=  205 AccDes= 0.00D+00 IRadAn=         5 IDoV=-2 UseB2=F ITyADJ=14
 ICtDFT= 12500011 ScaDFX=  1.000000  1.000000  1.000000  1.000000
 GSVD:  LWork=       -9588 too small for GESVD, short by       45590 words or       45590 for optimal perf.
 Largest valence mixing into a core orbital is  2.03D-04
 Largest core mixing into a valence orbital is  5.24D-05
 Range of M.O.s used for correlation:    95  1572
 NBasis=  1572 NAE=   312 NBE=   312 NFC=    94 NFV=     0
 NROrb=   1478 NOA=   218 NOB=   218 NVA=  1260 NVB=  1260
 Leave Link  801 at Sun Sep 12 00:30:13 2021, MaxMem= 23488102400 cpu:               7.5 elap:               0.3
 (Enter /sw/apps/gaussian-16.0/g16/l914.exe)
 RHF ground state
 Two-electron integrals replicated using symmetry.
 MDV= 23488102400 DFT=T DoStab=F Mixed=T DoRPA=T DoScal=F NonHer=T
 Making orbital integer symmetry assigments:
 Orbital symmetries:
       Occupied  (A) (A) (A) (A) (A) (A) (A) (A) (A) (A) (A) (A)
                 (A) (A) (A) (A) (A) (A) (A) (A) (A) (A) (A) (A)
                 (A) (A) (A) (A) (A) (A) (A) (A) (A) (A) (A) (A)
                 (A) (A) (A) (A) (A) (A) (A) (A) (A) (A) (A) (A)
                 (A) (A) (A) (A) (A) (A) (A) (A) (A) (A) (A) (A)
                 (A) (A) (A) (A) (A) (A) (A) (A) (A) (A) (A) (A)
                 (A) (A) (A) (A) (A) (A) (A) (A) (A) (A) (A) (A)
                 (A) (A) (A) (A) (A) (A) (A) (A) (A) (A) (A) (A)
                 (A) (A) (A) (A) (A) (A) (A) (A) (A) (A) (A) (A)
                 (A) (A) (A) (A) (A) (A) (A) (A) (A) (A) (A) (A)
                 (A) (A) (A) (A) (A) (A) (A) (A) (A) (A) (A) (A)
                 (A) (A) (A) (A) (A) (A) (A) (A) (A) (A) (A) (A)
                 (A) (A) (A) (A) (A) (A) (A) (A) (A) (A) (A) (A)
                 (A) (A) (A) (A) (A) (A) (A) (A) (A) (A) (A) (A)
                 (A) (A) (A) (A) (A) (A) (A) (A) (A) (A) (A) (A)
                 (A) (A) (A) (A) (A) (A) (A) (A) (A) (A) (A) (A)
                 (A) (A) (A) (A) (A) (A) (A) (A) (A) (A) (A) (A)
                 (A) (A) (A) (A) (A) (A) (A) (A) (A) (A) (A) (A)
                 (A) (A) (A) (A) (A) (A) (A) (A) (A) (A) (A) (A)
                 (A) (A) (A) (A) (A) (A) (A) (A) (A) (A) (A) (A)
                 (A) (A) (A) (A) (A) (A) (A) (A) (A) (A) (A) (A)
                 (A) (A) (A) (A) (A) (A) (A) (A) (A) (A) (A) (A)
                 (A) (A) (A) (A) (A) (A) (A) (A) (A) (A) (A) (A)
                 (A) (A) (A) (A) (A) (A) (A) (A) (A) (A) (A) (A)
                 (A) (A) (A) (A) (A) (A) (A) (A) (A) (A) (A) (A)
                 (A) (A) (A) (A) (A) (A) (A) (A) (A) (A) (A) (A)
       Virtual   (A) (A) (A) (A) (A) (A) (A) (A) (A) (A) (A) (A)
                 (A) (A) (A) (A) (A) (A) (A) (A) (A) (A) (A) (A)
                 (A) (A) (A) (A) (A) (A) (A) (A) (A) (A) (A) (A)
                 (A) (A) (A) (A) (A) (A) (A) (A) (A) (A) (A) (A)
                 (A) (A) (A) (A) (A) (A) (A) (A) (A) (A) (A) (A)
                 (A) (A) (A) (A) (A) (A) (A) (A) (A) (A) (A) (A)
                 (A) (A) (A) (A) (A) (A) (A) (A) (A) (A) (A) (A)
                 (A) (A) (A) (A) (A) (A) (A) (A) (A) (A) (A) (A)
                 (A) (A) (A) (A) (A) (A) (A) (A) (A) (A) (A) (A)
                 (A) (A) (A) (A) (A) (A) (A) (A) (A) (A) (A) (A)
                 (A) (A) (A) (A) (A) (A) (A) (A) (A) (A) (A) (A)
                 (A) (A) (A) (A) (A) (A) (A) (A) (A) (A) (A) (A)
                 (A) (A) (A) (A) (A) (A) (A) (A) (A) (A) (A) (A)
                 (A) (A) (A) (A) (A) (A) (A) (A) (A) (A) (A) (A)
                 (A) (A) (A) (A) (A) (A) (A) (A) (A) (A) (A) (A)
                 (A) (A) (A) (A) (A) (A) (A) (A) (A) (A) (A) (A)
                 (A) (A) (A) (A) (A) (A) (A) (A) (A) (A) (A) (A)
                 (A) (A) (A) (A) (A) (A) (A) (A) (A) (A) (A) (A)
                 (A) (A) (A) (A) (A) (A) (A) (A) (A) (A) (A) (A)
                 (A) (A) (A) (A) (A) (A) (A) (A) (A) (A) (A) (A)
                 (A) (A) (A) (A) (A) (A) (A) (A) (A) (A) (A) (A)
                 (A) (A) (A) (A) (A) (A) (A) (A) (A) (A) (A) (A)
                 (A) (A) (A) (A) (A) (A) (A) (A) (A) (A) (A) (A)
                 (A) (A) (A) (A) (A) (A) (A) (A) (A) (A) (A) (A)
                 (A) (A) (A) (A) (A) (A) (A) (A) (A) (A) (A) (A)
                 (A) (A) (A) (A) (A) (A) (A) (A) (A) (A) (A) (A)
                 (A) (A) (A) (A) (A) (A) (A) (A) (A) (A) (A) (A)
                 (A) (A) (A) (A) (A) (A) (A) (A) (A) (A) (A) (A)
                 (A) (A) (A) (A) (A) (A) (A) (A) (A) (A) (A) (A)
                 (A) (A) (A) (A) (A) (A) (A) (A) (A) (A) (A) (A)
                 (A) (A) (A) (A) (A) (A) (A) (A) (A) (A) (A) (A)
                 (A) (A) (A) (A) (A) (A) (A) (A) (A) (A) (A) (A)
                 (A) (A) (A) (A) (A) (A) (A) (A) (A) (A) (A) (A)
                 (A) (A) (A) (A) (A) (A) (A) (A) (A) (A) (A) (A)
                 (A) (A) (A) (A) (A) (A) (A) (A) (A) (A) (A) (A)
                 (A) (A) (A) (A) (A) (A) (A) (A) (A) (A) (A) (A)
                 (A) (A) (A) (A) (A) (A) (A) (A) (A) (A) (A) (A)
                 (A) (A) (A) (A) (A) (A) (A) (A) (A) (A) (A) (A)
                 (A) (A) (A) (A) (A) (A) (A) (A) (A) (A) (A) (A)
                 (A) (A) (A) (A) (A) (A) (A) (A) (A) (A) (A) (A)
                 (A) (A) (A) (A) (A) (A) (A) (A) (A) (A) (A) (A)
                 (A) (A) (A) (A) (A) (A) (A) (A) (A) (A) (A) (A)
                 (A) (A) (A) (A) (A) (A) (A) (A) (A) (A) (A) (A)
                 (A) (A) (A) (A) (A) (A) (A) (A) (A) (A) (A) (A)
                 (A) (A) (A) (A) (A) (A) (A) (A) (A) (A) (A) (A)
                 (A) (A) (A) (A) (A) (A) (A) (A) (A) (A) (A) (A)
                 (A) (A) (A) (A) (A) (A) (A) (A) (A) (A) (A) (A)
                 (A) (A) (A) (A) (A) (A) (A) (A) (A) (A) (A) (A)
                 (A) (A) (A) (A) (A) (A) (A) (A) (A) (A) (A) (A)
                 (A) (A) (A) (A) (A) (A) (A) (A) (A) (A) (A) (A)
                 (A) (A) (A) (A) (A) (A) (A) (A) (A) (A) (A) (A)
                 (A) (A) (A) (A) (A) (A) (A) (A) (A) (A) (A) (A)
                 (A) (A) (A) (A) (A) (A) (A) (A) (A) (A) (A) (A)
                 (A) (A) (A) (A) (A) (A) (A) (A) (A) (A) (A) (A)
                 (A) (A) (A) (A) (A) (A) (A) (A) (A) (A) (A) (A)
                 (A) (A) (A) (A) (A) (A) (A) (A) (A) (A) (A) (A)
                 (A) (A) (A) (A) (A) (A) (A) (A) (A) (A) (A) (A)
                 (A) (A) (A) (A) (A) (A) (A) (A) (A) (A) (A) (A)
                 (A) (A) (A) (A) (A) (A) (A) (A) (A) (A) (A) (A)
                 (A) (A) (A) (A) (A) (A) (A) (A) (A) (A) (A) (A)
                 (A) (A) (A) (A) (A) (A) (A) (A) (A) (A) (A) (A)
                 (A) (A) (A) (A) (A) (A) (A) (A) (A) (A) (A) (A)
                 (A) (A) (A) (A) (A) (A) (A) (A) (A) (A) (A) (A)
                 (A) (A) (A) (A) (A) (A) (A) (A) (A) (A) (A) (A)
                 (A) (A) (A) (A) (A) (A) (A) (A) (A) (A) (A) (A)
                 (A) (A) (A) (A) (A) (A) (A) (A) (A) (A) (A) (A)
                 (A) (A) (A) (A) (A) (A) (A) (A) (A) (A) (A) (A)
                 (A) (A) (A) (A) (A) (A) (A) (A) (A) (A) (A) (A)
                 (A) (A) (A) (A) (A) (A) (A) (A) (A) (A) (A) (A)
                 (A) (A) (A) (A) (A) (A) (A) (A) (A) (A) (A) (A)
                 (A) (A) (A) (A) (A) (A) (A) (A) (A) (A) (A) (A)
                 (A) (A) (A) (A) (A) (A) (A) (A) (A) (A) (A) (A)
                 (A) (A) (A) (A) (A) (A) (A) (A) (A) (A) (A) (A)
                 (A) (A) (A) (A) (A) (A) (A) (A) (A) (A) (A) (A)
                 (A) (A) (A) (A) (A) (A) (A) (A) (A) (A) (A) (A)
                 (A) (A) (A) (A) (A) (A) (A) (A) (A) (A) (A) (A)
                 (A) (A) (A) (A) (A) (A) (A) (A) (A) (A) (A) (A)
                 (A) (A) (A) (A) (A) (A) (A) (A) (A) (A) (A) (A)
                 (A) (A) (A) (A) (A) (A) (A) (A) (A) (A) (A) (A)
                 (A) (A) (A) (A) (A) (A) (A) (A) (A) (A) (A) (A)
                 (A) (A) (A) (A) (A) (A) (A) (A) (A) (A) (A) (A)
                 (A) (A) (A) (A) (A) (A) (A) (A) (A) (A) (A) (A)
                 (A) (A) (A) (A) (A) (A) (A) (A) (A) (A) (A) (A)
                 (A) (A) (A) (A) (A) (A) (A) (A) (A) (A) (A) (A)
                 (A) (A) (A) (A) (A) (A) (A) (A) (A) (A) (A) (A)
                 (A) (A) (A) (A) (A) (A) (A) (A) (A) (A) (A) (A)
                 (A) (A) (A) (A) (A) (A) (A) (A) (A) (A) (A) (A)
                 (A) (A) (A) (A) (A) (A) (A) (A) (A) (A) (A) (A)
                 (A) (A) (A) (A) (A) (A) (A) (A) (A) (A) (A) (A)
                 (A) (A) (A) (A) (A) (A) (A) (A) (A) (A) (A) (A)
                 (A) (A) (A) (A) (A) (A) (A) (A) (A) (A) (A) (A)
                 (A) (A) (A) (A) (A) (A) (A) (A) (A) (A) (A) (A)
                 (A) (A) (A) (A) (A) (A) (A) (A) (A) (A) (A) (A)
                 (A) (A) (A) (A) (A) (A) (A) (A) (A) (A) (A) (A)
                 (A) (A) (A) (A) (A) (A) (A) (A) (A) (A) (A) (A)
                 (A) (A) (A) (A) (A) (A) (A) (A) (A) (A) (A) (A)
                 (A) (A) (A) (A) (A) (A) (A) (A) (A) (A) (A) (A)
                 (A) (A) (A) (A) (A) (A) (A) (A) (A) (A) (A) (A)
                 (A) (A) (A) (A) (A) (A) (A) (A) (A) (A) (A) (A)
                 (A) (A) (A) (A) (A) (A) (A) (A) (A) (A) (A) (A)
                 (A) (A) (A) (A) (A) (A) (A) (A) (A) (A) (A) (A)
                 (A) (A) (A) (A) (A) (A) (A) (A) (A) (A) (A) (A)
                 (A) (A) (A) (A) (A) (A) (A) (A) (A) (A) (A) (A)
                 (A) (A) (A) (A) (A) (A) (A) (A) (A) (A) (A) (A)
                 (A) (A) (A) (A) (A) (A) (A) (A) (A) (A) (A) (A)
    20 initial guesses have been made.
 Convergence on wavefunction:    0.001000000000000
 Davidson Disk Diagonalization:  ConvIn= 1.00D-03 SkipCon=T Conv= 1.00D-03.
 Max sub-space:  2000 roots to seek:    20 dimension of matrix:       549360
 Iteration     1 Dimension    20 NMult     0 NNew     20
 CISAX will form    20 AO SS matrices at one time.
 NMat=    20 NSing=    20 JSym2X= 0.
 FoFJK:  IHMeth= 1 ICntrl=       0 DoSepK=T KAlg= 0 I1Cent=           0 FoldK=F
 IRaf=         1 NMat=      40 IRICut=       1 DoRegI=T DoRafI=F ISym2E= 0 IDoP0=3 IntGTp=3.
 FoFCou: FMM=T IPFlag=           0 FMFlag=      100000 FMFlg1=        2001
         NFxFlg=           0 DoJE=F BraDBF=F KetDBF=F FulRan=T
         wScrn=  0.000000 ICntrl=       500 IOpCl=  0 I1Cent=           0 NGrid=           0
         NMat0=   20 NMatS0=     20 NMatT0=    0 NMatD0=   20 NMtDS0=    0 NMtDT0=    0
 Symmetry not used in FoFCou.
 FMM levels:  10  Number of levels for PrismC:   9
 New state      1 was old state      7
 New state      2 was old state      6
 New state      3 was old state      2
 New state      4 was old state      3
 New state      5 was old state      1
 Excitation Energies [eV] at current iteration:
 Root      1 :     2.614376493371761
 Root      2 :     2.619360990159457
 Root      3 :     2.674265432987571
 Root      4 :     2.696702908806249
 Root      5 :     2.735949006195334
 Root      6 :     2.843736657138071
 Root      7 :     3.536743062728545
 Root      8 :     3.628256626782479
 Root      9 :     3.634379801346602
 Root     10 :     3.669544434432248
 Root     11 :     3.735983740115127
 Root     12 :     3.757527986442621
 Root     13 :     4.292561169763413
 Root     14 :     4.317288444110212
 Root     15 :     4.689727834542824
 Root     16 :     4.750532560763476
 Root     17 :     4.933036399911356
 Root     18 :     4.962469420995961
 Root     19 :     4.993947048408059
 Root     20 :     5.161136577562148
 Iteration     2 Dimension    30 NMult    20 NNew     10
 CISAX will form    10 AO SS matrices at one time.
 NMat=    10 NSing=    10 JSym2X= 0.
 New state      1 was old state      3
 Root      1 not converged, maximum delta is    0.166775328675544
 New state      2 was old state      4
 Root      2 not converged, maximum delta is    0.169494638342854
 New state      3 was old state      2
 Root      3 not converged, maximum delta is    0.397069168934530
 New state      4 was old state      1
 Root      4 not converged, maximum delta is    0.402147855240285
 Root      5 not converged, maximum delta is    0.015045505616581
 Excitation Energies [eV] at current iteration:
 Root      1 :     1.798577773190158   Change is   -0.875687659797414
 Root      2 :     1.810089304499623   Change is   -0.886613604306626
 Root      3 :     2.234664851545783   Change is   -0.384696138613675
 Root      4 :     2.239867375883818   Change is   -0.374509117487943
 Root      5 :     2.734381274759075   Change is   -0.001567731436259
 Iteration     3 Dimension    40 NMult    30 NNew     10
 CISAX will form    10 AO SS matrices at one time.
 NMat=    10 NSing=    10 JSym2X= 0.
 Root      1 not converged, maximum delta is    0.058572823515335
 Root      2 not converged, maximum delta is    0.059594125556828
 Root      3 not converged, maximum delta is    0.085160153410172
 Root      4 not converged, maximum delta is    0.084849748934684
 Root      5 has converged.
 Excitation Energies [eV] at current iteration:
 Root      1 :     1.691327301572302   Change is   -0.107250471617855
 Root      2 :     1.701800851489523   Change is   -0.108288453010101
 Root      3 :     2.193585362087696   Change is   -0.041079489458088
 Root      4 :     2.200381782119974   Change is   -0.039485593763844
 Root      5 :     2.734378304101762   Change is   -0.000002970657314
 Iteration     4 Dimension    48 NMult    40 NNew      8
 CISAX will form     8 AO SS matrices at one time.
 NMat=     8 NSing=     8 JSym2X= 0.
 Root      1 not converged, maximum delta is    0.011545858418252
 Root      2 not converged, maximum delta is    0.011466173054974
 Root      3 not converged, maximum delta is    0.012890692015077
 Root      4 not converged, maximum delta is    0.012783780641065
 Root      5 has converged.
 Excitation Energies [eV] at current iteration:
 Root      1 :     1.674498796355252   Change is   -0.016828505217050
 Root      2 :     1.685036054300247   Change is   -0.016764797189276
 Root      3 :     2.186329002001638   Change is   -0.007256360086058
 Root      4 :     2.193543457978919   Change is   -0.006838324141055
 Root      5 :     2.734378304101400   Change is   -0.000000000000361
 Iteration     5 Dimension    56 NMult    48 NNew      8
 CISAX will form     8 AO SS matrices at one time.
 NMat=     8 NSing=     8 JSym2X= 0.
 Root      1 not converged, maximum delta is    0.001911917134673
 Root      2 not converged, maximum delta is    0.001868925507594
 Root      3 not converged, maximum delta is    0.002426841086600
 Root      4 not converged, maximum delta is    0.002333611316072
 Root      5 has converged.
 Excitation Energies [eV] at current iteration:
 Root      1 :     1.672709750865819   Change is   -0.001789045489433
 Root      2 :     1.683275430671120   Change is   -0.001760623629127
 Root      3 :     2.185487530438261   Change is   -0.000841471563377
 Root      4 :     2.192757976474664   Change is   -0.000785481504255
 Root      5 :     2.734378304100468   Change is   -0.000000000000932
 Iteration     6 Dimension    64 NMult    56 NNew      8
 CISAX will form     8 AO SS matrices at one time.
 NMat=     8 NSing=     8 JSym2X= 0.
 Root      1 not converged, maximum delta is    0.001188589470823
 Root      2 not converged, maximum delta is    0.001185931596196
 Root      3 not converged, maximum delta is    0.001022823594184
 Root      4 has converged.
 Root      5 has converged.
 Excitation Energies [eV] at current iteration:
 Root      1 :     1.672455867119014   Change is   -0.000253883746805
 Root      2 :     1.683021442509229   Change is   -0.000253988161891
 Root      3 :     2.185359941250253   Change is   -0.000127589188008
 Root      4 :     2.192638993186822   Change is   -0.000118983287841
 Root      5 :     2.734378304100258   Change is   -0.000000000000210
 Iteration     7 Dimension    70 NMult    64 NNew      6
 CISAX will form     6 AO SS matrices at one time.
 NMat=     6 NSing=     6 JSym2X= 0.
 Root      1 has converged.
 Root      2 has converged.
 Root      3 has converged.
 Root      4 has converged.
 Root      5 has converged.
 Excitation Energies [eV] at current iteration:
 Root      1 :     1.672431358715415   Change is   -0.000024508403599
[...]
 Alpha virt. eigenvalues --    1.85356   1.85373   1.85498   1.85554   1.85770
 Alpha virt. eigenvalues --    1.85911   1.86145   1.86393   1.86632   1.86661
 Alpha virt. eigenvalues --    1.86830   1.86837   1.87052   1.87055   1.87305
 Alpha virt. eigenvalues --    1.87493   1.87722   1.87781   1.87958   1.88023
 Alpha virt. eigenvalues --    1.88142   1.88187   1.88317   1.88580   1.88814
 Alpha virt. eigenvalues --    1.88942   1.89082   1.89097   1.89386   1.89668
 Alpha virt. eigenvalues --    1.89888   1.89904   1.90030   1.90196   1.90395
 Alpha virt. eigenvalues --    1.90903   1.91027   1.91434   1.91594   1.91618
 Alpha virt. eigenvalues --    1.91703   1.92190   1.92428   1.92670   1.92914
 Alpha virt. eigenvalues --    1.93158   1.93255   1.93513   1.93604   1.94321
 Alpha virt. eigenvalues --    1.94550   1.94822   1.94959   1.95603   1.95729
 Alpha virt. eigenvalues --    1.95820   1.96008   1.96057   1.96180   1.96277
 Alpha virt. eigenvalues --    1.96417   1.96492   1.96865   1.96942   1.97178
 Alpha virt. eigenvalues --    1.97550   1.97720   1.97810   1.98102   1.98173
 Alpha virt. eigenvalues --    1.98354   1.98452   1.98951   1.99078   1.99412
 Alpha virt. eigenvalues --    1.99936   2.00107   2.00734   2.00932   2.01103
 Alpha virt. eigenvalues --    2.01280   2.01518   2.01614   2.01772   2.01833
 Alpha virt. eigenvalues --    2.01941   2.02003   2.02717   2.03063   2.03147
 Alpha virt. eigenvalues --    2.03386   2.03497   2.03529   2.03687   2.03772
 Alpha virt. eigenvalues --    2.04033   2.04312   2.04984   2.05239   2.05637
 Alpha virt. eigenvalues --    2.05791   2.06293   2.06358   2.07039   2.07188
 Alpha virt. eigenvalues --    2.07354   2.07455   2.08560   2.08860   2.09012
 Alpha virt. eigenvalues --    2.09266   2.09619   2.09879   2.11037   2.11043
 Alpha virt. eigenvalues --    2.11413   2.11462   2.11538   2.11828   2.11869
 Alpha virt. eigenvalues --    2.12012   2.12470   2.12746   2.12807   2.12873
 Alpha virt. eigenvalues --    2.13084   2.13109   2.13632   2.14060   2.14256
 Alpha virt. eigenvalues --    2.14391   2.15414   2.15615   2.16084   2.16199
 Alpha virt. eigenvalues --    2.16596   2.16791   2.17027   2.17177   2.17654
 Alpha virt. eigenvalues --    2.17686   2.17934   2.17974   2.18011   2.18332
 Alpha virt. eigenvalues --    2.18608   2.18676   2.19152   2.19239   2.19822
 Alpha virt. eigenvalues --    2.19921   2.20247   2.20327   2.20442   2.20484
 Alpha virt. eigenvalues --    2.21180   2.21407   2.21768   2.21878   2.21947
 Alpha virt. eigenvalues --    2.22022   2.22704   2.22957   2.23347   2.23581
 Alpha virt. eigenvalues --    2.24426   2.24669   2.25011   2.25218   2.26443
 Alpha virt. eigenvalues --    2.26585   2.27011   2.27052   2.27205   2.27384
 Alpha virt. eigenvalues --    2.28313   2.28416   2.29438   2.29543   2.29882
 Alpha virt. eigenvalues --    2.30020   2.30620   2.30739   2.30824   2.31204
 Alpha virt. eigenvalues --    2.31355   2.31458   2.32243   2.32392   2.33235
 Alpha virt. eigenvalues --    2.33419   2.33488   2.33738   2.34143   2.34403
 Alpha virt. eigenvalues --    2.35299   2.35649   2.35907   2.36079   2.36334
 Alpha virt. eigenvalues --    2.36454   2.36612   2.36907   2.37682   2.37919
 Alpha virt. eigenvalues --    2.38383   2.38534   2.38780   2.39144   2.39668
 Alpha virt. eigenvalues --    2.39889   2.40270   2.40446   2.40770   2.40827
 Alpha virt. eigenvalues --    2.41212   2.41551   2.41698   2.41954   2.42126
 Alpha virt. eigenvalues --    2.42318   2.42825   2.43066   2.43203   2.43806
 Alpha virt. eigenvalues --    2.43973   2.44444   2.44803   2.44985   2.45009
 Alpha virt. eigenvalues --    2.45179   2.45568   2.45815   2.46282   2.46493
 Alpha virt. eigenvalues --    2.46580   2.46753   2.46797   2.47079   2.47376
 Alpha virt. eigenvalues --    2.47517   2.47883   2.47986   2.49390   2.49575
 Alpha virt. eigenvalues --    2.49894   2.50331   2.50454   2.50818   2.51261
 Alpha virt. eigenvalues --    2.51403   2.51607   2.52170   2.52394   2.52726
 Alpha virt. eigenvalues --    2.53085   2.53154   2.53964   2.54189   2.54276
 Alpha virt. eigenvalues --    2.54421   2.54801   2.55055   2.55659   2.55793
 Alpha virt. eigenvalues --    2.58069   2.58142   2.58892   2.58907   2.60290
 Alpha virt. eigenvalues --    2.60490   2.60893   2.60911   2.61811   2.61984
 Alpha virt. eigenvalues --    2.62420   2.62811   2.63116   2.63229   2.64205
 Alpha virt. eigenvalues --    2.64214   2.64417   2.64492   2.65088   2.65349
 Alpha virt. eigenvalues --    2.65847   2.66070   2.66813   2.67041   2.67043
 Alpha virt. eigenvalues --    2.67180   2.67968   2.68177   2.68808   2.69018
 Alpha virt. eigenvalues --    2.69134   2.69302   2.69581   2.69655   2.70126
 Alpha virt. eigenvalues --    2.70269   2.71051   2.71249   2.71880   2.72328
 Alpha virt. eigenvalues --    2.72477   2.72718   2.72929   2.73103   2.73274
 Alpha virt. eigenvalues --    2.73465   2.73532   2.73821   2.74493   2.74783
 Alpha virt. eigenvalues --    2.75039   2.75250   2.76505   2.76855   2.77048
 Alpha virt. eigenvalues --    2.77511   2.77587   2.77735   2.78278   2.78465
 Alpha virt. eigenvalues --    2.78674   2.79007   2.79140   2.79409   2.80248
 Alpha virt. eigenvalues --    2.80625   2.80677   2.80878   2.81130   2.81388
 Alpha virt. eigenvalues --    2.81966   2.82212   2.82315   2.82609   2.83828
 Alpha virt. eigenvalues --    2.83881   2.84028   2.84046   2.84508   2.84814
 Alpha virt. eigenvalues --    2.84865   2.85144   2.85672   2.85941   2.86638
 Alpha virt. eigenvalues --    2.87152   2.87261   2.87880   2.88217   2.88437
 Alpha virt. eigenvalues --    2.88595   2.88767   2.88852   2.89206   2.90637
 Alpha virt. eigenvalues --    2.90768   2.91045   2.91442   2.93297   2.93433
 Alpha virt. eigenvalues --    2.93748   2.94473   2.94552   2.94823   2.95446
 Alpha virt. eigenvalues --    2.95647   2.95815   2.96354   2.96475   2.96704
 Alpha virt. eigenvalues --    2.96849   2.97454   2.98008   2.98099   2.98331
 Alpha virt. eigenvalues --    2.98491   2.98547   2.98623   2.98754   2.98862
 Alpha virt. eigenvalues --    2.98898   2.99149   2.99781   2.99851   2.99993
 Alpha virt. eigenvalues --    3.00311   3.00315   3.00494   3.00737   3.00965
 Alpha virt. eigenvalues --    3.01879   3.02086   3.02241   3.02306   3.02795
 Alpha virt. eigenvalues --    3.03010   3.03249   3.03287   3.03599   3.03679
 Alpha virt. eigenvalues --    3.04026   3.04409   3.04424   3.04706   3.04709
 Alpha virt. eigenvalues --    3.04809   3.05324   3.05543   3.06135   3.06381
 Alpha virt. eigenvalues --    3.06908   3.07086   3.07896   3.08414   3.09331
 Alpha virt. eigenvalues --    3.09684   3.09972   3.10406   3.10712   3.10718
 Alpha virt. eigenvalues --    3.11451   3.11572   3.11880   3.12227   3.12275
 Alpha virt. eigenvalues --    3.12416   3.13573   3.13625   3.13664   3.13904
 Alpha virt. eigenvalues --    3.14371   3.14447   3.15971   3.16170   3.17492
 Alpha virt. eigenvalues --    3.17536   3.17854   3.18350   3.19007   3.19402
 Alpha virt. eigenvalues --    3.22578   3.22594   3.24228   3.24411   3.24952
 Alpha virt. eigenvalues --    3.25165   3.26631   3.26784   3.27368   3.27902
 Alpha virt. eigenvalues --    3.29207   3.29394   3.31352   3.31805   3.33159
 Alpha virt. eigenvalues --    3.33699   3.40240   3.40919   3.42792   3.43098
 Alpha virt. eigenvalues --    3.48668   3.48937   3.50255   3.50305   3.50810
 Alpha virt. eigenvalues --    3.51758   3.56831   3.56979   3.59315   3.59374
 Alpha virt. eigenvalues --    3.62488   3.63119   3.66089   3.66463   3.67477
 Alpha virt. eigenvalues --    3.67526   3.73560   3.73999   3.76342   3.76657
          Condensed to atoms (all electrons):
 Mulliken charges:
               1
     1  Mg   0.840081
     2  C   -0.002467
     3  C   -0.093629
     4  C   -0.045987
     5  C   -0.064187
     6  N   -0.256736
     7  C   -0.052243
     8  C   -0.014204
     9  C   -0.087093
    10  C    0.046668
    11  C    0.104918
    12  C    0.053314
    13  C   -0.071627
    14  H    0.036088
    15  N   -0.433063
    16  C    0.168910
    17  C   -0.176773
    18  C   -0.003847
    19  C    0.148995
    20  C    0.110205
    21  C    0.012582
    22  O   -0.250180
    23  C    0.062198
    24  N   -0.341165
    25  C    0.041276
    26  C   -0.028068
    27  C   -0.023884
    28  C    0.074906
    29  C    0.076356
    30  C    0.035231
    31  C   -0.004452
    32  N   -0.310443
    33  C    0.080544
    34  C   -0.169803
    35  C    0.008225
    36  C    0.083311
    37  C    0.127305
    38  C    0.046239
    39  O   -0.188892
    40  C   -0.005454
    41  C    0.212603
    42  O   -0.255950
    43  O   -0.305123
    44  C    0.157763
    45  H   -0.017894
    46  H   -0.017264
    47  H   -0.041961
    48  H    0.000471
    49  H   -0.003909
    50  H    0.025195
    51  H    0.016218
    52  H    0.016260
    53  H    0.012352
    54  H    0.044966
    55  H    0.017116
    56  H    0.017967
    57  H    0.005777
    58  H    0.026235
    59  H    0.040596
    60  H    0.036938
    61  H    0.035204
    62  H    0.032773
    63  H    0.016321
    64  H    0.009022
    65  H    0.022762
    66  H    0.012449
    67  H    0.004372
    68  H    0.005721
    69  H    0.004468
    70  H    0.008460
    71  H    0.017800
    72  H    0.029942
    73  H    0.047520
    74  H    0.008819
    75  H    0.045523
    76  H    0.034654
    77  H    0.042270
    78  H    0.046262
    79  H    0.054150
    80  Mg   0.838272
    81  C   -0.016628
    82  C   -0.087819
    83  C   -0.045515
    84  C   -0.064871
    85  N   -0.254556
    86  C   -0.049853
    87  C   -0.015124
    88  C   -0.090485
    89  C    0.045808
    90  C    0.114429
    91  C    0.062523
    92  C   -0.077908
    93  H    0.035110
    94  N   -0.423458
    95  C    0.162978
    96  C   -0.174676
    97  C   -0.007798
    98  C    0.152157
    99  C    0.099407
   100  C    0.015608
   101  O   -0.253236
   102  C    0.061165
   103  N   -0.350096
   104  C    0.037501
   105  C   -0.019778
   106  C   -0.034837
   107  C    0.088967
   108  C    0.073707
   109  C    0.034715
   110  C   -0.007686
   111  N   -0.324172
   112  C    0.078612
   113  C   -0.162806
   114  C    0.002164
   115  C    0.096509
   116  C    0.131351
   117  C    0.042761
   118  O   -0.188320
   119  C    0.000781
   120  C    0.211074
   121  O   -0.249998
   122  O   -0.305985
   123  C    0.151981
   124  H   -0.019815
   125  H   -0.015631
   126  H   -0.040378
   127  H   -0.000912
   128  H   -0.004347
   129  H    0.022256
   130  H    0.014370
   131  H    0.016098
   132  H    0.014093
   133  H    0.038102
   134  H    0.020433
   135  H    0.019545
   136  H    0.008679
   137  H    0.025992
   138  H    0.039870
   139  H    0.038136
   140  H    0.036358
   141  H    0.034031
   142  H    0.014446
   143  H    0.012283
   144  H    0.025067
   145  H    0.011517
   146  H    0.005550
   147  H    0.006112
   148  H    0.003736
   149  H    0.010861
   150  H    0.018157
   151  H    0.030352
   152  H    0.046342
   153  H    0.008774
   154  H    0.046486
   155  H    0.034557
   156  H    0.043128
   157  H    0.049391
   158  H    0.054386
 Sum of Mulliken charges =  -0.00000
 Mulliken charges with hydrogens summed into heavy atoms:
               1
     1  Mg   0.840081
     2  C   -0.002467
     3  C   -0.111523
     4  C   -0.063250
     5  C   -0.106147
     6  N   -0.256736
     7  C   -0.052243
     8  C   -0.013733
     9  C   -0.091001
    10  C    0.046668
    11  C    0.162591
    12  C    0.110632
    13  C   -0.000457
    15  N   -0.433063
    16  C    0.168910
    17  C   -0.176773
    18  C   -0.003847
    19  C    0.148995
    20  C    0.182812
    21  C    0.012582
    22  O   -0.250180
    23  C    0.167113
    24  N   -0.341165
    25  C    0.041276
    26  C   -0.011746
    27  C   -0.014861
    28  C    0.074906
    29  C    0.115939
    30  C    0.045419
    31  C    0.051750
    32  N   -0.310443
    33  C    0.080544
    34  C   -0.169803
    35  C    0.008225
    36  C    0.083311
    37  C    0.229166
    38  C    0.046239
    39  O   -0.188892
    40  C    0.029200
    41  C    0.212603
    42  O   -0.255950
    43  O   -0.305123
    44  C    0.300444
    80  Mg   0.838272
    81  C   -0.016628
    82  C   -0.107634
    83  C   -0.061145
    84  C   -0.105249
    85  N   -0.254556
    86  C   -0.049853
    87  C   -0.016036
    88  C   -0.094832
    89  C    0.045808
    90  C    0.167153
    91  C    0.114718
    92  C   -0.002820
    94  N   -0.423458
    95  C    0.162978
    96  C   -0.174676
    97  C   -0.007798
    98  C    0.152157
    99  C    0.173948
   100  C    0.015608
   101  O   -0.253236
   102  C    0.169690
   103  N   -0.350096
   104  C    0.037501
   105  C   -0.005332
   106  C   -0.022554
   107  C    0.088967
   108  C    0.115840
   109  C    0.044563
   110  C    0.051685
   111  N   -0.324172
   112  C    0.078612
   113  C   -0.162806
   114  C    0.002164
   115  C    0.096509
   116  C    0.232954
   117  C    0.042761
   118  O   -0.188320
   119  C    0.035338
   120  C    0.211074
   121  O   -0.249998
   122  O   -0.305985
   123  C    0.298885
 Electronic spatial extent (au):  <R**2>=         188241.9588
 Charge=             -0.0000 electrons
 Dipole moment (field-independent basis, Debye):
    X=             -2.1585    Y=              2.6521    Z=              4.1752  Tot=              5.3968
 Quadrupole moment (field-independent basis, Debye-Ang):
   XX=           -434.8206   YY=           -466.1392   ZZ=           -525.4087
   XY=            -28.9248   XZ=             21.3008   YZ=             25.9313
 Traceless Quadrupole moment (field-independent basis, Debye-Ang):
   XX=             40.6356   YY=              9.3170   ZZ=            -49.9525
   XY=            -28.9248   XZ=             21.3008   YZ=             25.9313
 Octapole moment (field-independent basis, Debye-Ang**2):
  XXX=           -265.6394  YYY=            263.3319  ZZZ=            188.6813  XYY=            -18.3182
  XXY=            664.1065  XXZ=            320.0821  XZZ=            -19.0653  YZZ=             -6.0430
  YYZ=            -58.7623  XYZ=            356.7998
 Hexadecapole moment (field-independent basis, Debye-Ang**3):
 XXXX=        -192855.5625 YYYY=         -33194.8713 ZZZZ=         -20980.9269 XXXY=          -6167.5122
 XXXZ=           1473.3188 YYYX=            793.7314 YYYZ=            276.2767 ZZZX=           1710.7189
 ZZZY=            337.8802 XXYY=         -38357.7180 XXZZ=         -37490.0065 YYZZ=          -9752.1651
 XXYZ=            788.9110 YYXZ=          -1449.8839 ZZXY=           -750.2164
 N-N= 1.387752602445D+04 E-N=-3.723681557685D+04  KE= 4.028801709702D+03
 Leave Link  601 at Sun Sep 12 00:49:14 2021, MaxMem= 23488102400 cpu:              12.9 elap:               0.7
 (Enter /sw/apps/gaussian-16.0/g16/l9999.exe)
 1\1\GINC-BP1-COMPUTE00129\SP\RCAM-B3LYP TD-FC\def2SVP\C68H72Mg2N8O8\OF
 15641\12-Sep-2021\0\\#p cam-b3lyp/Def2SVP td=(nstates=5)\\TDDFT excite
 d states in gaussian\\0,1\Mg,0,0.,0.,0.\C,0,-0.217,-2.218,2.801\C,0,-1
 .255,2.442,2.026\C,0,-0.245,1.85,-2.564\C,0,0.146,-2.824,-2.037\N,0,-0
 .617,-0.009,2.126\C,0,-0.594,-0.908,3.105\C,0,-0.936,-0.309,4.502\C,0,
 -1.773,0.964,4.032\C,0,-1.155,1.168,2.66\C,0,-3.263,0.685,3.863\C,0,0.
 345,0.11,5.299\C,0,0.124,0.397,6.787\H,0,1.168,0.033,7.733\N,0,-0.185,
 1.961,-0.152\C,0,-0.703,2.8,0.777\C,0,-0.62,4.156,0.193\C,0,-0.187,4.0
 15,-1.225\C,0,-0.214,2.583,-1.38\C,0,-0.887,5.406,0.974\C,0,0.181,5.01
 3,-2.277\O,0,0.303,4.69,-3.508\C,0,0.31,6.414,-1.837\N,0,-0.265,-0.413
 ,-2.029\C,0,-0.279,0.569,-2.937\C,0,-0.196,0.024,-4.332\C,0,0.124,-1.5
 33,-4.18\C,0,0.086,-1.632,-2.635\C,0,-1.451,0.205,-5.197\C,0,1.373,-2.
 07,-4.923\C,0,2.626,-1.49,-4.306\N,0,0.15,-2.144,0.303\C,0,0.173,-3.13
 6,-0.688\C,0,0.173,-4.438,0.004\C,0,0.133,-4.111,1.358\C,0,0.083,-2.69
 5,1.502\C,0,0.149,-5.715,-0.623\C,0,0.096,-4.629,2.716\O,0,0.208,-5.74
 7,3.221\C,0,-0.255,-3.428,3.701\C,0,0.717,-3.482,4.848\O,0,1.931,-3.25
 5,4.669\O,0,0.038,-3.556,6.003\C,0,0.943,-3.583,7.183\H,0,-1.859,3.22,
 2.497\H,0,-0.218,2.453,-3.474\H,0,0.276,-3.747,-2.605\H,0,-1.554,-0.94
 9,5.132\H,0,-1.585,1.831,4.665\H,0,-3.484,-0.377,3.969\H,0,-3.511,1.02
 7,2.858\H,0,-3.852,1.301,4.543\H,0,0.669,1.096,4.966\H,0,1.13,-0.639,5
 .189\H,0,-0.844,0.026,7.125\H,0,0.062,1.477,6.921\H,0,-1.344,5.186,1.9
 38\H,0,-1.651,5.963,0.432\H,0,0.007,6.02,1.084\H,0,-0.635,6.744,-1.405
 \H,0,0.665,6.97,-2.704\H,0,1.048,6.466,-1.036\H,0,0.608,0.501,-4.891\H
 ,0,-0.692,-2.156,-4.547\H,0,-1.267,0.74,-6.129\H,0,-2.204,0.714,-4.596
 \H,0,-1.967,-0.72,-5.453\H,0,1.356,-1.759,-5.967\H,0,1.452,-3.157,-4.9
 02\H,0,2.714,-0.522,-4.798\H,0,3.487,-2.121,-4.529\H,0,2.495,-1.303,-3
 .24\H,0,0.867,-6.333,-0.084\H,0,0.404,-5.642,-1.68\H,0,-0.891,-5.999,-
 0.463\H,0,-1.283,-3.581,4.028\H,0,0.698,-4.478,7.755\H,0,0.833,-2.619,
 7.68\H,0,2.,-3.754,6.976\Mg,0,15.76589,1.41199,1.20523\C,0,13.40618,2.
 88329,3.47374\C,0,18.02645,1.46297,3.75903\C,0,17.99203,0.53818,-0.879
 99\C,0,13.73591,2.5161,-1.40357\N,0,15.61665,2.10701,3.29973\C,0,14.65
 175,2.59078,4.06739\C,0,15.01866,2.69601,5.572\C,0,16.61584,2.77531,5.
 42506\C,0,16.77588,2.03955,4.09626\C,0,17.13457,4.1931,5.25148\C,0,14.
 57885,1.42784,6.38461\C,0,14.62557,1.59049,7.9055\H,0,13.60747,0.91929
 ,8.70888\N,0,17.55416,0.60311,1.49915\C,0,18.32205,0.70583,2.60417\C,0
 ,19.54986,-0.05023,2.31258\C,0,19.51471,-0.46947,0.88509\C,0,18.33625,
 0.24101,0.43064\C,0,20.57239,-0.37758,3.36172\C,0,20.40297,-1.35221,0.
 06171\O,0,20.31937,-1.38699,-1.21682\C,0,21.43589,-2.10428,0.789\N,0,1
 5.96557,1.69341,-0.84496\C,0,17.00316,1.16514,-1.51746\C,0,16.79203,1.
 26161,-3.00961\C,0,15.28054,1.74854,-3.19906\C,0,14.88994,1.94359,-1.7
 1758\C,0,17.72966,2.21188,-3.75407\C,0,14.36525,0.8701,-4.0953\C,0,14.
 11915,-0.46487,-3.42998\N,0,13.82089,2.33671,1.03225\C,0,13.17027,2.73
 913,-0.15469\C,0,11.92201,3.42184,0.24305\C,0,11.94448,3.3893,1.64552\
 C,0,13.1333,2.75056,2.09074\C,0,10.97702,4.01074,-0.6437\C,0,11.23797,
 3.75948,2.85072\O,0,10.13543,4.24718,3.09628\C,0,12.21359,3.56076,4.08
 969\C,0,11.46075,2.81796,5.15926\O,0,11.0901,1.64555,4.97301\O,0,11.49
 282,3.53337,6.29835\C,0,10.76862,2.83246,7.39201\H,0,18.87512,1.64136,
 4.41996\H,0,18.67452,0.15921,-1.64424\H,0,13.00138,2.80208,-2.15945\H,
 0,14.64649,3.58367,6.06932\H,0,17.11347,2.23195,6.22411\H,0,16.33072,4
 .905,5.1368\H,0,17.75231,4.17364,4.36318\H,0,17.80252,4.45388,6.07741\
 H,0,15.33339,0.64107,6.25653\H,0,13.60087,1.10407,6.08569\H,0,14.72027
 ,2.64136,8.20494\H,0,15.54064,1.12256,8.27659\H,0,20.40924,0.20367,4.2
 7765\H,0,21.53964,-0.02665,2.98601\H,0,20.63958,-1.44852,3.56476\H,0,2
 2.08088,-1.4094,1.32154\H,0,21.91053,-2.7449,0.0432\H,0,20.94725,-2.72
 508,1.54824\H,0,16.91097,0.29347,-3.48041\H,0,15.2282,2.74065,-3.67108
 \H,0,18.29722,1.71829,-4.56545\H,0,18.40403,2.65846,-3.03551\H,0,17.24
 931,3.08448,-4.19342\H,0,14.85897,0.6565,-5.0465\H,0,13.4116,1.33382,-
 4.32446\H,0,15.00579,-1.04438,-3.70409\H,0,13.21201,-0.92443,-3.81721\
 H,0,14.11472,-0.36566,-2.33829\H,0,9.99596,3.72879,-0.28521\H,0,11.135
 89,3.68292,-1.66891\H,0,11.2166,5.06895,-0.50932\H,0,12.52676,4.55117,
 4.42221\H,0,10.01043,3.52589,7.76882\H,0,11.54873,2.50354,8.10403\H,0,
 10.15861,1.97832,7.12222\\Version=ES64L-G16RevA.03\State=1-A\HF=-4069.
 8116268\RMSD=5.026e-09\PG=C01 [X(C68H72Mg2N8O8)]\\@


 GARLIC THEN HAVE POWER TO SAVE FROM DEATH
 BEAR WITH IT THOUGH IT MAKETH UNSAVORY BREATH,
 AND SCORN NOT GARLIC LIKE SOME THAT THINK
 IT ONLY MAKETH MEN WINK AND DRINK AND STINK.
   --  SIR JOHN HARRINGTON,
       "THE ENGLISHMAN'S DOCTOR", 1609
 Job cpu time:       0 days 10 hours 44 minutes 53.0 seconds.
 Elapsed time:       0 days  0 hours 27 minutes 25.5 seconds.
 File lengths (MBytes):  RWF=  13225 Int=      0 D2E=      0 Chk=    574 Scr=      1
 Normal termination of Gaussian 16 at Sun Sep 12 00:49:15 2021.
