 Entering Gaussian System, Link 0=g16
 Initial command:
 /sw/apps/gaussian-16.0/g16/l1.exe "/tmp/Gau-95877.inp" -scrdir="/tmp/"
 Entering Link 1 = /sw/apps/gaussian-16.0/g16/l1.exe PID=     95878.
  
 Copyright (c) 1988,1990,1992,1993,1995,1998,2003,2009,2016,
            Gaussian, Inc.  All Rights Reserved.
  
 This is part of the Gaussian(R) 16 program.  It is based on
 the Gaussian(R) 09 system (copyright 2009, Gaussian, Inc.),
 the Gaussian(R) 03 system (copyright 2003, Gaussian, Inc.),
 the Gaussian(R) 98 system (copyright 1998, Gaussian, Inc.),
 the Gaussian(R) 94 system (copyright 1995, Gaussian, Inc.),
 the Gaussian 92(TM) system (copyright 1992, Gaussian, Inc.),
 the Gaussian 90(TM) system (copyright 1990, Gaussian, Inc.),
 the Gaussian 88(TM) system (copyright 1988, Gaussian, Inc.),
 the Gaussian 86(TM) system (copyright 1986, Carnegie Mellon
 University), and the Gaussian 82(TM) system (copyright 1983,
 Carnegie Mellon University). Gaussian is a federally registered
 trademark of Gaussian, Inc.
  
 This software contains proprietary and confidential information,
 including trade secrets, belonging to Gaussian, Inc.
  
 This software is provided under written license and may be
 used, copied, transmitted, or stored only in accord with that
 written license.
  
 The following legend is applicable only to US Government
 contracts under FAR:
  
                    RESTRICTED RIGHTS LEGEND
  
 Use, reproduction and disclosure by the US Government is
 subject to restrictions as set forth in subparagraphs (a)
 and (c) of the Commercial Computer Software - Restricted
 Rights clause in FAR 52.227-19.
  
 Gaussian, Inc.
 340 Quinnipiac St., Bldg. 40, Wallingford CT 06492
  
  
 ---------------------------------------------------------------
 Warning -- This program may not be used in any manner that
 competes with the business of Gaussian, Inc. or will provide
 assistance to any competitor of Gaussian, Inc.  The licensee
 of this program is prohibited from giving any competitor of
 Gaussian, Inc. access to this program.  By using this program,
 the user acknowledges that Gaussian, Inc. is engaged in the
 business of creating and licensing software in the field of
 computational chemistry and represents and warrants to the
 licensee that it is not a competitor of Gaussian, Inc. and that
 it will not use this program in any manner prohibited above.
 ---------------------------------------------------------------
  

 Cite this work as:
 Gaussian 16, Revision A.03,
 M. J. Frisch, G. W. Trucks, H. B. Schlegel, G. E. Scuseria, 
 M. A. Robb, J. R. Cheeseman, G. Scalmani, V. Barone, 
 G. A. Petersson, H. Nakatsuji, X. Li, M. Caricato, A. V. Marenich, 
 J. Bloino, B. G. Janesko, R. Gomperts, B. Mennucci, H. P. Hratchian, 
 J. V. Ortiz, A. F. Izmaylov, J. L. Sonnenberg, D. Williams-Young, 
 F. Ding, F. Lipparini, F. Egidi, J. Goings, B. Peng, A. Petrone, 
 T. Henderson, D. Ranasinghe, V. G. Zakrzewski, J. Gao, N. Rega, 
 G. Zheng, W. Liang, M. Hada, M. Ehara, K. Toyota, R. Fukuda, 
 J. Hasegawa, M. Ishida, T. Nakajima, Y. Honda, O. Kitao, H. Nakai, 
 T. Vreven, K. Throssell, J. A. Montgomery, Jr., J. E. Peralta, 
 F. Ogliaro, M. J. Bearpark, J. J. Heyd, E. N. Brothers, K. N. Kudin, 
 V. N. Staroverov, T. A. Keith, R. Kobayashi, J. Normand, 
 K. Raghavachari, A. P. Rendell, J. C. Burant, S. S. Iyengar, 
 J. Tomasi, M. Cossi, J. M. Millam, M. Klene, C. Adamo, R. Cammi, 
 J. W. Ochterski, R. L. Martin, K. Morokuma, O. Farkas, 
 J. B. Foresman, and D. J. Fox, Gaussian, Inc., Wallingford CT, 2016.
 
 ******************************************
 Gaussian 16:  ES64L-G16RevA.03 25-Dec-2016
                12-Sep-2021 
 ******************************************
 %nproc=24
 Will use up to   24 processors via shared memory.
 %mem=175gb
 -----------------------------------
 #p cam-b3lyp/Def2SVP td=(nstates=5)
 -----------------------------------
 1/38=1,172=1/1;
 2/12=2,17=6,18=5,40=1/2;
 3/5=43,7=101,11=9,25=1,30=1,74=-40/1,2,3,8;
 4//1;
 5/5=2,38=5/2;
 8/6=1,10=1,108=5/1;
 9/41=5,42=1,70=2/14;
 6/7=2,8=2,9=2,10=2/1;
 99/5=1,9=1/99;
 Leave Link    1 at Sun Sep 12 12:17:58 2021, MaxMem= 23488102400 cpu:               0.5 elap:               0.0
 (Enter /sw/apps/gaussian-16.0/g16/l101.exe)
 --------------------------------
 TDDFT excited states in gaussian
 --------------------------------
 Symbolic Z-matrix:
 Charge =  0 Multiplicity = 1
 Mg                    0.        0.        0. 
 C                    -0.217    -2.218     2.801 
 C                    -1.255     2.442     2.026 
 C                    -0.245     1.85     -2.564 
 C                     0.146    -2.824    -2.037 
 N                    -0.617    -0.009     2.126 
 C                    -0.594    -0.908     3.105 
 C                    -0.936    -0.309     4.502 
 C                    -1.773     0.964     4.032 
 C                    -1.155     1.168     2.66 
 C                    -3.263     0.685     3.863 
 C                     0.345     0.11      5.299 
 C                     0.124     0.397     6.787 
 H                     1.168     0.033     7.733 
 N                    -0.185     1.961    -0.152 
 C                    -0.703     2.8       0.777 
 C                    -0.62      4.156     0.193 
 C                    -0.187     4.015    -1.225 
 C                    -0.214     2.583    -1.38 
 C                    -0.887     5.406     0.974 
 C                     0.181     5.013    -2.277 
 O                     0.303     4.69     -3.508 
 C                     0.31      6.414    -1.837 
 N                    -0.265    -0.413    -2.029 
 C                    -0.279     0.569    -2.937 
 C                    -0.196     0.024    -4.332 
 C                     0.124    -1.533    -4.18 
 C                     0.086    -1.632    -2.635 
 C                    -1.451     0.205    -5.197 
 C                     1.373    -2.07     -4.923 
 C                     2.626    -1.49     -4.306 
 N                     0.15     -2.144     0.303 
 C                     0.173    -3.136    -0.688 
 C                     0.173    -4.438     0.004 
 C                     0.133    -4.111     1.358 
 C                     0.083    -2.695     1.502 
 C                     0.149    -5.715    -0.623 
 C                     0.096    -4.629     2.716 
 O                     0.208    -5.747     3.221 
 C                    -0.255    -3.428     3.701 
 C                     0.717    -3.482     4.848 
 O                     1.931    -3.255     4.669 
 O                     0.038    -3.556     6.003 
 C                     0.943    -3.583     7.183 
 H                    -1.859     3.22      2.497 
 H                    -0.218     2.453    -3.474 
 H                     0.276    -3.747    -2.605 
 H                    -1.554    -0.949     5.132 
 H                    -1.585     1.831     4.665 
 H                    -3.484    -0.377     3.969 
 H                    -3.511     1.027     2.858 
 H                    -3.852     1.301     4.543 
 H                     0.669     1.096     4.966 
 H                     1.13     -0.639     5.189 
 H                    -0.844     0.026     7.125 
 H                     0.062     1.477     6.921 
 H                    -1.344     5.186     1.938 
 H                    -1.651     5.963     0.432 
 H                     0.007     6.02      1.084 
 H                    -0.635     6.744    -1.405 
 H                     0.665     6.97     -2.704 
 H                     1.048     6.466    -1.036 
 H                     0.608     0.501    -4.891 
 H                    -0.692    -2.156    -4.547 
 H                    -1.267     0.74     -6.129 
 H                    -2.204     0.714    -4.596 
 H                    -1.967    -0.72     -5.453 
 H                     1.356    -1.759    -5.967 
 H                     1.452    -3.157    -4.902 
 H                     2.714    -0.522    -4.798 
 H                     3.487    -2.121    -4.529 
 H                     2.495    -1.303    -3.24 
 H                     0.867    -6.333    -0.084 
 H                     0.404    -5.642    -1.68 
 H                    -0.891    -5.999    -0.463 
 H                    -1.283    -3.581     4.028 
 H                     0.698    -4.478     7.755 
 H                     0.833    -2.619     7.68 
 H                     2.       -3.754     6.976 
 Mg                    31.52522   2.83499   2.40196 
 C                     31.23228   5.55546   4.72409 
 C                     32.45748   0.8815    5.03812 
 C                     32.22629   0.54044   0.32567 
 C                     31.69099   5.20879  -0.14428 
 N                     31.77495   3.276     4.55496 
 C                     31.57571   4.32994   5.33204 
 C                     31.67609   4.03588   6.8529 
 C                     32.60785   2.72975   6.78429 
 C                     32.23675   2.2379    5.38678 
 C                     34.09354   3.04887   6.79945 
 C                     30.28025   3.71275   7.49262 
 C                     30.25695   3.71986   9.0227 
 H                     29.05621   4.2039    9.69828 
 N                     31.75976   0.88337   2.67536 
 C                     32.11926   0.25897   3.81648 
 C                     32.17181  -1.17477   3.49122 
 C                     31.97467  -1.33052   2.02439 
 C                     32.00058   0.05675   1.60616 
 C                     32.31241  -2.24191   4.53757 
 C                     31.80531  -2.53023   1.14222 
 O                     31.88691  -2.44447  -0.13403 
 C                     31.63416  -3.82353   1.82013 
 N                     32.11601   2.86923   0.40894 
 C                     32.30494   1.72759  -0.27583 
 C                     32.45492   1.99668  -1.75417 
 C                     32.08446   3.54009  -1.94967 
 C                     31.86109   3.93567  -0.47352 
 C                     33.83992   1.72757  -2.34217 
 C                     30.97065   3.87142  -2.98037 
 C                     29.63942   3.35264  -2.48633 
 N                     31.29002   4.97771   2.25539 
 C                     31.42645   5.77353   1.09688 
 C                     31.28864   7.1828    1.51805 
 C                     31.10309   7.10976   2.90683 
 C                     31.14396   5.75211   3.32471 
 C                     31.3889   8.31909   0.66663 
 C                     30.89255   7.87313   4.11582 
 O                     30.68693   9.05935   4.36945 
 C                     31.09313   6.90911   5.36354 
 C                     29.94077   7.12356   6.30619 
 O                     28.78317   6.81894   5.9689 
 O                     30.41974   7.44692   7.52126 
 C                     29.3148   7.65877   8.49391 
 H                     32.97721   0.24058   5.75085 
 H                     32.3632  -0.2188   -0.44782 
 H                     31.6329   6.00244  -0.89222 
 H                     32.16296   4.80983   7.43404 
 H                     32.31909   1.99869   7.53497 
 H                     34.27818   4.11087   6.73448 
 H                     34.51274   2.53882   5.94204 
 H                     34.56648   2.60042   7.67783 
 H                     30.03609   2.65906   7.30588 
 H                     29.52602   4.37639   7.11665 
 H                     31.15245   4.19051   9.4464 
 H                     30.30487   2.68671   9.37529 
 H                     32.60232  -1.81876   5.50726 
 H                     33.16557  -2.86436   4.24684 
 H                     31.42498  -2.87344   4.61702 
 H                     32.4947  -4.01409   2.45703 
 H                     31.43905  -4.54639   1.0256 
 H                     30.76198  -3.75977   2.48032 
 H                     31.76296   1.39363  -2.32916 
 H                     32.94626   4.12419  -2.30458 
 H                     33.82541   1.00593  -3.18068 
 H                     34.48516   1.37527  -1.54839 
 H                     34.37041   2.60962  -2.6968 
 H                     31.16882   3.36479  -3.92811 
 H                     30.8815   4.93128  -3.19425 
 H                     29.65694   2.30113  -2.78817 
 H                     28.81958   3.88643  -2.96276 
 H                     29.58783   3.38056  -1.39171 
 H                     30.58835   8.99037   0.94773 
 H                     31.32257   8.03716  -0.38212 
 H                     32.38746   8.67532   0.93356 
 H                     32.04982   7.16181   5.82231 
 H                     29.44855   8.65941   8.91642 
 H                     29.36637   6.80484   9.19527 
 H                     28.30734   7.72816   8.10066 
 
 ITRead=  0  0  0  0  0  0  0  0  0  0  0  0  0  0  0  0  0  0  0  0
 ITRead=  0  0  0  0  0  0  0  0  0  0  0  0  0  0  0  0  0  0  0  0
 ITRead=  0  0  0  0  0  0  0  0  0  0  0  0  0  0  0  0  0  0  0  0
 ITRead=  0  0  0  0  0  0  0  0  0  0  0  0  0  0  0  0  0  0  0  0
 ITRead=  0  0  0  0  0  0  0  0  0  0  0  0  0  0  0  0  0  0  0  0
 ITRead=  0  0  0  0  0  0  0  0  0  0  0  0  0  0  0  0  0  0  0  0
 ITRead=  0  0  0  0  0  0  0  0  0  0  0  0  0  0  0  0  0  0  0  0
 ITRead=  0  0  0  0  0  0  0  0  0  0  0  0  0  0  0  0  0  0
 MicOpt= -1 -1 -1 -1 -1 -1 -1 -1 -1 -1 -1 -1 -1 -1 -1 -1 -1 -1 -1 -1
 MicOpt= -1 -1 -1 -1 -1 -1 -1 -1 -1 -1 -1 -1 -1 -1 -1 -1 -1 -1 -1 -1
 MicOpt= -1 -1 -1 -1 -1 -1 -1 -1 -1 -1 -1 -1 -1 -1 -1 -1 -1 -1 -1 -1
 MicOpt= -1 -1 -1 -1 -1 -1 -1 -1 -1 -1 -1 -1 -1 -1 -1 -1 -1 -1 -1 -1
 MicOpt= -1 -1 -1 -1 -1 -1 -1 -1 -1 -1 -1 -1 -1 -1 -1 -1 -1 -1 -1 -1
 MicOpt= -1 -1 -1 -1 -1 -1 -1 -1 -1 -1 -1 -1 -1 -1 -1 -1 -1 -1 -1 -1
 MicOpt= -1 -1 -1 -1 -1 -1 -1 -1 -1 -1 -1 -1 -1 -1 -1 -1 -1 -1 -1 -1
 MicOpt= -1 -1 -1 -1 -1 -1 -1 -1 -1 -1 -1 -1 -1 -1 -1 -1 -1 -1
 NAtoms=    158 NQM=      158 NQMF=       0 NMMI=      0 NMMIF=      0
                NMic=       0 NMicF=      0.
                    Isotopes and Nuclear Properties:
 (Nuclear quadrupole moments (NQMom) in fm**2, nuclear magnetic moments (NMagM)
  in nuclear magnetons)

  Atom         1           2           3           4           5           6           7           8           9          10
 IAtWgt=          24          12          12          12          12          14          12          12          12          12
 AtmWgt=  23.9850450  12.0000000  12.0000000  12.0000000  12.0000000  14.0030740  12.0000000  12.0000000  12.0000000  12.0000000
 NucSpn=           0           0           0           0           0           2           0           0           0           0
 AtZEff=  -0.0000000  -0.0000000  -0.0000000  -0.0000000  -0.0000000  -0.0000000  -0.0000000  -0.0000000  -0.0000000  -0.0000000
 NQMom=    0.0000000   0.0000000   0.0000000   0.0000000   0.0000000   2.0440000   0.0000000   0.0000000   0.0000000   0.0000000
 NMagM=    0.0000000   0.0000000   0.0000000   0.0000000   0.0000000   0.4037610   0.0000000   0.0000000   0.0000000   0.0000000
 AtZNuc=  12.0000000   6.0000000   6.0000000   6.0000000   6.0000000   7.0000000   6.0000000   6.0000000   6.0000000   6.0000000

  Atom        11          12          13          14          15          16          17          18          19          20
 IAtWgt=          12          12          12           1          14          12          12          12          12          12
 AtmWgt=  12.0000000  12.0000000  12.0000000   1.0078250  14.0030740  12.0000000  12.0000000  12.0000000  12.0000000  12.0000000
 NucSpn=           0           0           0           1           2           0           0           0           0           0
 AtZEff=  -0.0000000  -0.0000000  -0.0000000  -0.0000000  -0.0000000  -0.0000000  -0.0000000  -0.0000000  -0.0000000  -0.0000000
 NQMom=    0.0000000   0.0000000   0.0000000   0.0000000   2.0440000   0.0000000   0.0000000   0.0000000   0.0000000   0.0000000
 NMagM=    0.0000000   0.0000000   0.0000000   2.7928460   0.4037610   0.0000000   0.0000000   0.0000000   0.0000000   0.0000000
 AtZNuc=   6.0000000   6.0000000   6.0000000   1.0000000   7.0000000   6.0000000   6.0000000   6.0000000   6.0000000   6.0000000

  Atom        21          22          23          24          25          26          27          28          29          30
 IAtWgt=          12          16          12          14          12          12          12          12          12          12
 AtmWgt=  12.0000000  15.9949146  12.0000000  14.0030740  12.0000000  12.0000000  12.0000000  12.0000000  12.0000000  12.0000000
 NucSpn=           0           0           0           2           0           0           0           0           0           0
 AtZEff=  -0.0000000  -0.0000000  -0.0000000  -0.0000000  -0.0000000  -0.0000000  -0.0000000  -0.0000000  -0.0000000  -0.0000000
 NQMom=    0.0000000   0.0000000   0.0000000   2.0440000   0.0000000   0.0000000   0.0000000   0.0000000   0.0000000   0.0000000
 NMagM=    0.0000000   0.0000000   0.0000000   0.4037610   0.0000000   0.0000000   0.0000000   0.0000000   0.0000000   0.0000000
 AtZNuc=   6.0000000   8.0000000   6.0000000   7.0000000   6.0000000   6.0000000   6.0000000   6.0000000   6.0000000   6.0000000

  Atom        31          32          33          34          35          36          37          38          39          40
 IAtWgt=          12          14          12          12          12          12          12          12          16          12
 AtmWgt=  12.0000000  14.0030740  12.0000000  12.0000000  12.0000000  12.0000000  12.0000000  12.0000000  15.9949146  12.0000000
 NucSpn=           0           2           0           0           0           0           0           0           0           0
 AtZEff=  -0.0000000  -0.0000000  -0.0000000  -0.0000000  -0.0000000  -0.0000000  -0.0000000  -0.0000000  -0.0000000  -0.0000000
 NQMom=    0.0000000   2.0440000   0.0000000   0.0000000   0.0000000   0.0000000   0.0000000   0.0000000   0.0000000   0.0000000
 NMagM=    0.0000000   0.4037610   0.0000000   0.0000000   0.0000000   0.0000000   0.0000000   0.0000000   0.0000000   0.0000000
 AtZNuc=   6.0000000   7.0000000   6.0000000   6.0000000   6.0000000   6.0000000   6.0000000   6.0000000   8.0000000   6.0000000

  Atom        41          42          43          44          45          46          47          48          49          50
 IAtWgt=          12          16          16          12           1           1           1           1           1           1
 AtmWgt=  12.0000000  15.9949146  15.9949146  12.0000000   1.0078250   1.0078250   1.0078250   1.0078250   1.0078250   1.0078250
 NucSpn=           0           0           0           0           1           1           1           1           1           1
 AtZEff=  -0.0000000  -0.0000000  -0.0000000  -0.0000000  -0.0000000  -0.0000000  -0.0000000  -0.0000000  -0.0000000  -0.0000000
 NQMom=    0.0000000   0.0000000   0.0000000   0.0000000   0.0000000   0.0000000   0.0000000   0.0000000   0.0000000   0.0000000
 NMagM=    0.0000000   0.0000000   0.0000000   0.0000000   2.7928460   2.7928460   2.7928460   2.7928460   2.7928460   2.7928460
 AtZNuc=   6.0000000   8.0000000   8.0000000   6.0000000   1.0000000   1.0000000   1.0000000   1.0000000   1.0000000   1.0000000

  Atom        51          52          53          54          55          56          57          58          59          60
 IAtWgt=           1           1           1           1           1           1           1           1           1           1
 AtmWgt=   1.0078250   1.0078250   1.0078250   1.0078250   1.0078250   1.0078250   1.0078250   1.0078250   1.0078250   1.0078250
 NucSpn=           1           1           1           1           1           1           1           1           1           1
 AtZEff=  -0.0000000  -0.0000000  -0.0000000  -0.0000000  -0.0000000  -0.0000000  -0.0000000  -0.0000000  -0.0000000  -0.0000000
 NQMom=    0.0000000   0.0000000   0.0000000   0.0000000   0.0000000   0.0000000   0.0000000   0.0000000   0.0000000   0.0000000
 NMagM=    2.7928460   2.7928460   2.7928460   2.7928460   2.7928460   2.7928460   2.7928460   2.7928460   2.7928460   2.7928460
 AtZNuc=   1.0000000   1.0000000   1.0000000   1.0000000   1.0000000   1.0000000   1.0000000   1.0000000   1.0000000   1.0000000

  Atom        61          62          63          64          65          66          67          68          69          70
 IAtWgt=           1           1           1           1           1           1           1           1           1           1
 AtmWgt=   1.0078250   1.0078250   1.0078250   1.0078250   1.0078250   1.0078250   1.0078250   1.0078250   1.0078250   1.0078250
 NucSpn=           1           1           1           1           1           1           1           1           1           1
 AtZEff=  -0.0000000  -0.0000000  -0.0000000  -0.0000000  -0.0000000  -0.0000000  -0.0000000  -0.0000000  -0.0000000  -0.0000000
 NQMom=    0.0000000   0.0000000   0.0000000   0.0000000   0.0000000   0.0000000   0.0000000   0.0000000   0.0000000   0.0000000
 NMagM=    2.7928460   2.7928460   2.7928460   2.7928460   2.7928460   2.7928460   2.7928460   2.7928460   2.7928460   2.7928460
 AtZNuc=   1.0000000   1.0000000   1.0000000   1.0000000   1.0000000   1.0000000   1.0000000   1.0000000   1.0000000   1.0000000

  Atom        71          72          73          74          75          76          77          78          79          80
 IAtWgt=           1           1           1           1           1           1           1           1           1          24
 AtmWgt=   1.0078250   1.0078250   1.0078250   1.0078250   1.0078250   1.0078250   1.0078250   1.0078250   1.0078250  23.9850450
 NucSpn=           1           1           1           1           1           1           1           1           1           0
 AtZEff=  -0.0000000  -0.0000000  -0.0000000  -0.0000000  -0.0000000  -0.0000000  -0.0000000  -0.0000000  -0.0000000  -0.0000000
 NQMom=    0.0000000   0.0000000   0.0000000   0.0000000   0.0000000   0.0000000   0.0000000   0.0000000   0.0000000   0.0000000
 NMagM=    2.7928460   2.7928460   2.7928460   2.7928460   2.7928460   2.7928460   2.7928460   2.7928460   2.7928460   0.0000000
 AtZNuc=   1.0000000   1.0000000   1.0000000   1.0000000   1.0000000   1.0000000   1.0000000   1.0000000   1.0000000  12.0000000

  Atom        81          82          83          84          85          86          87          88          89          90
 IAtWgt=          12          12          12          12          14          12          12          12          12          12
 AtmWgt=  12.0000000  12.0000000  12.0000000  12.0000000  14.0030740  12.0000000  12.0000000  12.0000000  12.0000000  12.0000000
 NucSpn=           0           0           0           0           2           0           0           0           0           0
 AtZEff=  -0.0000000  -0.0000000  -0.0000000  -0.0000000  -0.0000000  -0.0000000  -0.0000000  -0.0000000  -0.0000000  -0.0000000
 NQMom=    0.0000000   0.0000000   0.0000000   0.0000000   2.0440000   0.0000000   0.0000000   0.0000000   0.0000000   0.0000000
 NMagM=    0.0000000   0.0000000   0.0000000   0.0000000   0.4037610   0.0000000   0.0000000   0.0000000   0.0000000   0.0000000
 AtZNuc=   6.0000000   6.0000000   6.0000000   6.0000000   7.0000000   6.0000000   6.0000000   6.0000000   6.0000000   6.0000000

  Atom        91          92          93          94          95          96          97          98          99         100
 IAtWgt=          12          12           1          14          12          12          12          12          12          12
 AtmWgt=  12.0000000  12.0000000   1.0078250  14.0030740  12.0000000  12.0000000  12.0000000  12.0000000  12.0000000  12.0000000
 NucSpn=           0           0           1           2           0           0           0           0           0           0
 AtZEff=  -0.0000000  -0.0000000  -0.0000000  -0.0000000  -0.0000000  -0.0000000  -0.0000000  -0.0000000  -0.0000000  -0.0000000
 NQMom=    0.0000000   0.0000000   0.0000000   2.0440000   0.0000000   0.0000000   0.0000000   0.0000000   0.0000000   0.0000000
 NMagM=    0.0000000   0.0000000   2.7928460   0.4037610   0.0000000   0.0000000   0.0000000   0.0000000   0.0000000   0.0000000
 AtZNuc=   6.0000000   6.0000000   1.0000000   7.0000000   6.0000000   6.0000000   6.0000000   6.0000000   6.0000000   6.0000000

  Atom       101         102         103         104         105         106         107         108         109         110
 IAtWgt=          16          12          14          12          12          12          12          12          12          12
 AtmWgt=  15.9949146  12.0000000  14.0030740  12.0000000  12.0000000  12.0000000  12.0000000  12.0000000  12.0000000  12.0000000
 NucSpn=           0           0           2           0           0           0           0           0           0           0
 AtZEff=  -0.0000000  -0.0000000  -0.0000000  -0.0000000  -0.0000000  -0.0000000  -0.0000000  -0.0000000  -0.0000000  -0.0000000
 NQMom=    0.0000000   0.0000000   2.0440000   0.0000000   0.0000000   0.0000000   0.0000000   0.0000000   0.0000000   0.0000000
 NMagM=    0.0000000   0.0000000   0.4037610   0.0000000   0.0000000   0.0000000   0.0000000   0.0000000   0.0000000   0.0000000
 AtZNuc=   8.0000000   6.0000000   7.0000000   6.0000000   6.0000000   6.0000000   6.0000000   6.0000000   6.0000000   6.0000000

  Atom       111         112         113         114         115         116         117         118         119         120
 IAtWgt=          14          12          12          12          12          12          12          16          12          12
 AtmWgt=  14.0030740  12.0000000  12.0000000  12.0000000  12.0000000  12.0000000  12.0000000  15.9949146  12.0000000  12.0000000
 NucSpn=           2           0           0           0           0           0           0           0           0           0
 AtZEff=  -0.0000000  -0.0000000  -0.0000000  -0.0000000  -0.0000000  -0.0000000  -0.0000000  -0.0000000  -0.0000000  -0.0000000
 NQMom=    2.0440000   0.0000000   0.0000000   0.0000000   0.0000000   0.0000000   0.0000000   0.0000000   0.0000000   0.0000000
 NMagM=    0.4037610   0.0000000   0.0000000   0.0000000   0.0000000   0.0000000   0.0000000   0.0000000   0.0000000   0.0000000
 AtZNuc=   7.0000000   6.0000000   6.0000000   6.0000000   6.0000000   6.0000000   6.0000000   8.0000000   6.0000000   6.0000000

  Atom       121         122         123         124         125         126         127         128         129         130
 IAtWgt=          16          16          12           1           1           1           1           1           1           1
 AtmWgt=  15.9949146  15.9949146  12.0000000   1.0078250   1.0078250   1.0078250   1.0078250   1.0078250   1.0078250   1.0078250
 NucSpn=           0           0           0           1           1           1           1           1           1           1
 AtZEff=  -0.0000000  -0.0000000  -0.0000000  -0.0000000  -0.0000000  -0.0000000  -0.0000000  -0.0000000  -0.0000000  -0.0000000
 NQMom=    0.0000000   0.0000000   0.0000000   0.0000000   0.0000000   0.0000000   0.0000000   0.0000000   0.0000000   0.0000000
 NMagM=    0.0000000   0.0000000   0.0000000   2.7928460   2.7928460   2.7928460   2.7928460   2.7928460   2.7928460   2.7928460
 AtZNuc=   8.0000000   8.0000000   6.0000000   1.0000000   1.0000000   1.0000000   1.0000000   1.0000000   1.0000000   1.0000000

  Atom       131         132         133         134         135         136         137         138         139         140
 IAtWgt=           1           1           1           1           1           1           1           1           1           1
 AtmWgt=   1.0078250   1.0078250   1.0078250   1.0078250   1.0078250   1.0078250   1.0078250   1.0078250   1.0078250   1.0078250
 NucSpn=           1           1           1           1           1           1           1           1           1           1
 AtZEff=  -0.0000000  -0.0000000  -0.0000000  -0.0000000  -0.0000000  -0.0000000  -0.0000000  -0.0000000  -0.0000000  -0.0000000
 NQMom=    0.0000000   0.0000000   0.0000000   0.0000000   0.0000000   0.0000000   0.0000000   0.0000000   0.0000000   0.0000000
 NMagM=    2.7928460   2.7928460   2.7928460   2.7928460   2.7928460   2.7928460   2.7928460   2.7928460   2.7928460   2.7928460
 AtZNuc=   1.0000000   1.0000000   1.0000000   1.0000000   1.0000000   1.0000000   1.0000000   1.0000000   1.0000000   1.0000000

  Atom       141         142         143         144         145         146         147         148         149         150
 IAtWgt=           1           1           1           1           1           1           1           1           1           1
 AtmWgt=   1.0078250   1.0078250   1.0078250   1.0078250   1.0078250   1.0078250   1.0078250   1.0078250   1.0078250   1.0078250
 NucSpn=           1           1           1           1           1           1           1           1           1           1
 AtZEff=  -0.0000000  -0.0000000  -0.0000000  -0.0000000  -0.0000000  -0.0000000  -0.0000000  -0.0000000  -0.0000000  -0.0000000
 NQMom=    0.0000000   0.0000000   0.0000000   0.0000000   0.0000000   0.0000000   0.0000000   0.0000000   0.0000000   0.0000000
 NMagM=    2.7928460   2.7928460   2.7928460   2.7928460   2.7928460   2.7928460   2.7928460   2.7928460   2.7928460   2.7928460
 AtZNuc=   1.0000000   1.0000000   1.0000000   1.0000000   1.0000000   1.0000000   1.0000000   1.0000000   1.0000000   1.0000000

  Atom       151         152         153         154         155         156         157         158
 IAtWgt=           1           1           1           1           1           1           1           1
 AtmWgt=   1.0078250   1.0078250   1.0078250   1.0078250   1.0078250   1.0078250   1.0078250   1.0078250
 NucSpn=           1           1           1           1           1           1           1           1
 AtZEff=  -0.0000000  -0.0000000  -0.0000000  -0.0000000  -0.0000000  -0.0000000  -0.0000000  -0.0000000
 NQMom=    0.0000000   0.0000000   0.0000000   0.0000000   0.0000000   0.0000000   0.0000000   0.0000000
 NMagM=    2.7928460   2.7928460   2.7928460   2.7928460   2.7928460   2.7928460   2.7928460   2.7928460
 AtZNuc=   1.0000000   1.0000000   1.0000000   1.0000000   1.0000000   1.0000000   1.0000000   1.0000000
 Leave Link  101 at Sun Sep 12 12:17:58 2021, MaxMem= 23488102400 cpu:               3.1 elap:               0.2
 (Enter /sw/apps/gaussian-16.0/g16/l202.exe)
 Stoichiometry    C68H72Mg2N8O8
 Framework group  C1[X(C68H72Mg2N8O8)]
 Deg. of freedom   468
 Full point group                 C1      NOp   1
 Largest Abelian subgroup         C1      NOp   1
 Largest concise Abelian subgroup C1      NOp   1
                         Standard orientation:                         
 ---------------------------------------------------------------------
 Center     Atomic      Atomic             Coordinates (Angstroms)
 Number     Number       Type             X           Y           Z
 ---------------------------------------------------------------------
      1         12           0      -15.858115   -0.643813   -0.427037
      2          6           0      -16.126371    1.935395    2.040338
      3          6           0      -16.670946    1.709539   -2.760297
      4          6           0      -16.072921   -2.985029   -2.555226
      5          6           0      -16.188922   -2.951964    2.163072
      6          7           0      -16.315713    1.515524   -0.258176
      7          6           0      -16.325901    2.396586    0.737212
      8          6           0      -16.493652    3.869240    0.257085
      9          6           0      -17.209443    3.598036   -1.141517
     10          6           0      -16.673411    2.205364   -1.422693
     11          6           0      -18.730055    3.528716   -1.044387
     12          6           0      -15.118170    4.592596    0.065941
     13          6           0      -15.195597    6.114818   -0.083051
     14          1           0      -14.134787    6.929406    0.490080
     15          7           0      -15.825176   -0.587393   -2.401520
     16          6           0      -16.173501    0.459444   -3.187706
     17          6           0      -15.976617    0.005796   -4.581306
     18          6           0      -15.667173   -1.450609   -4.546314
     19          6           0      -15.871144   -1.741928   -3.150281
     20          6           0      -16.039438    0.924873   -5.762450
     21          6           0      -15.263499   -2.427329   -5.605180
     22          8           0      -15.269619   -3.689875   -5.403899
     23          6           0      -14.941349   -1.865012   -6.929212
     24          7           0      -16.316071   -2.673881   -0.263532
     25          6           0      -16.282184   -3.477187   -1.332427
     26          6           0      -16.364594   -4.920763   -0.933387
     27          6           0      -16.216984   -4.949091    0.656318
     28          6           0      -16.153718   -3.423469    0.914669
     29          6           0      -17.649734   -5.655129   -1.339752
     30          6           0      -15.096006   -5.843562    1.242620
     31          6           0      -13.742696   -5.280616    0.870141
     32          7           0      -15.935948   -0.565423    1.740644
     33          6           0      -16.100209   -1.646988    2.618090
     34          6           0      -16.200759   -1.087958    3.978768
     35          6           0      -16.104000    0.290043    3.795477
     36          6           0      -15.978958    0.575377    2.405786
     37          6           0      -16.418129   -1.832445    5.171632
     38          6           0      -16.101902    1.589212    4.448174
     39          8           0      -16.083785    1.971342    5.619131
     40          6           0      -16.238773    2.712875    3.328140
     41          6           0      -15.198741    3.763131    3.608503
     42          8           0      -13.982872    3.505530    3.495942
     43          8           0      -15.795918    4.958454    3.731487
     44          6           0      -14.816726    6.049717    3.981454
     45          1           0      -17.144846    2.303489   -3.544252
     46          1           0      -16.042487   -3.830795   -3.245292
     47          1           0      -16.208425   -3.616336    3.028915
     48          1           0      -17.134182    4.483519    0.890178
     49          1           0      -16.876693    4.294604   -1.910797
     50          1           0      -19.064339    3.548704   -0.007191
     51          1           0      -19.009192    2.586414   -1.516238
     52          1           0      -19.192667    4.312830   -1.644331
     53          1           0      -14.707174    4.331403   -0.909211
     54          1           0      -14.435353    4.344215    0.879203
     55          1           0      -16.172901    6.495300    0.215307
     56          1           0      -15.122108    6.358424   -1.142983
     57          1           0      -16.447515    1.897827   -5.491566
     58          1           0      -16.771128    0.506176   -6.453124
     59          1           0      -15.074690    1.018620   -6.261252
     60          1           0      -15.807796   -1.324774   -7.311262
     61          1           0      -14.588319   -2.700361   -7.532878
     62          1           0      -14.146000   -1.127797   -6.815713
     63          1           0      -15.553538   -5.496228   -1.377745
     64          1           0      -17.124203   -5.305141    1.145048
     65          1           0      -17.473257   -6.542580   -1.948021
     66          1           0      -18.292950   -4.945991   -1.860029
     67          1           0      -18.286699   -5.955881   -0.508342
     68          1           0      -15.152745   -6.847027    0.822161
     69          1           0      -15.142192   -5.935580    2.327816
     70          1           0      -13.579132   -5.681357   -0.129601
     71          1           0      -12.979139   -5.635928    1.562922
     72          1           0      -13.773254   -4.194219    0.784741
     73          1           0      -15.739294   -1.418807    5.917323
     74          1           0      -16.233952   -2.894965    5.014363
     75          1           0      -17.469622   -1.613912    5.357270
     76          1           0      -17.251050    3.108799    3.403376
     77          1           0      -15.121535    6.550147    4.900635
     78          1           0      -14.777825    6.646002    3.069678
     79          1           0      -13.804541    5.738696    4.242385
     80         12           0       15.873877   -0.640787    0.425456
     81          6           0       16.067869    1.952377   -2.047787
     82          6           0       16.762736    1.703979    2.737722
     83          6           0       16.151418   -2.982940    2.547891
     84          6           0       16.127972   -2.947828   -2.174303
     85          7           0       16.328973    1.516268    0.245828
     86          6           0       16.310268    2.406597   -0.734633
     87          6           0       16.486252    3.877568   -0.271128
     88          6           0       17.252894    3.603444    1.113059
     89          6           0       16.726632    2.200825    1.410338
     90          6           0       18.762697    3.524491    0.959419
     91          6           0       15.112625    4.597969   -0.034071
     92          6           0       15.201664    6.117923    0.119391
     93          1           0       14.117451    6.936298   -0.416542
     94          7           0       15.899930   -0.580079    2.408941
     95          6           0       16.266693    0.460225    3.186452
     96          6           0       16.128937   -0.006803    4.574642
     97          6           0       15.808906   -1.459985    4.551075
     98          6           0       15.964918   -1.741384    3.138071
     99          6           0       16.220657    0.914714    5.756082
    100          6           0       15.437940   -2.437714    5.624686
    101          8           0       15.435878   -3.701797    5.412753
    102          6           0       15.167833   -1.877388    6.956811
    103          7           0       16.318110   -2.663581    0.242987
    104          6           0       16.323152   -3.470070    1.318857
    105          6           0       16.395373   -4.922407    0.911555
    106          6           0       16.193039   -4.934293   -0.674791
    107          6           0       16.124985   -3.413015   -0.932626
    108          6           0       17.693391   -5.648461    1.264237
    109          6           0       15.053129   -5.830183   -1.232179
    110          6           0       13.710234   -5.278801   -0.810287
    111          7           0       15.878542   -0.557001   -1.733481
    112          6           0       16.021646   -1.639583   -2.628816
    113          6           0       16.079084   -1.072654   -3.991794
    114          6           0       15.987833    0.313019   -3.791654
    115          6           0       15.901380    0.591339   -2.400765
    116          6           0       16.248152   -1.814406   -5.194851
    117          6           0       15.955678    1.604217   -4.440108
    118          8           0       15.907909    1.988929   -5.607772
    119          6           0       16.133411    2.730442   -3.332678
    120          6           0       15.085308    3.783244   -3.568469
    121          8           0       13.878759    3.516536   -3.428105
    122          8           0       15.685629    4.979401   -3.707010
    123          6           0       14.686381    6.057704   -3.931922
    124          1           0       17.255146    2.304360    3.503199
    125          1           0       16.142792   -3.835670    3.230719
    126          1           0       16.107998   -3.607095   -3.044726
    127          1           0       17.100505    4.488442   -0.921735
    128          1           0       16.936733    4.300763    1.884512
    129          1           0       19.063947    3.548253   -0.077327
    130          1           0       19.056479    2.589104    1.417430
    131          1           0       19.243111    4.311882    1.547252
    132          1           0       14.735068    4.330426    0.961228
    133          1           0       14.415048    4.353509   -0.811413
    134          1           0       16.174104    6.508619   -0.204137
    135          1           0       15.155051    6.362604    1.183333
    136          1           0       16.627412    1.893216    5.472379
    137          1           0       16.972512    0.493734    6.432351
    138          1           0       15.274165    1.006568    6.293103
    139          1           0       16.044523   -1.336920    7.305797
    140          1           0       14.832994   -2.719458    7.565641
    141          1           0       14.359266   -1.143010    6.870086
    142          1           0       15.598211   -5.493210    1.371781
    143          1           0       17.088608   -5.301780   -1.197039
    144          1           0       17.534396   -6.549238    1.886648
    145          1           0       18.349474   -4.950086    1.766595
    146          1           0       18.295315   -5.958653    0.411792
    147          1           0       15.121786   -6.836191   -0.811001
    148          1           0       15.072084   -5.931230   -2.312191
    149          1           0       13.583777   -5.682314    0.198809
    150          1           0       12.925309   -5.630039   -1.477054
    151          1           0       13.741986   -4.186252   -0.726834
    152          1           0       15.553371   -1.402637   -5.914739
    153          1           0       16.073489   -2.876347   -5.035054
    154          1           0       17.298020   -1.599029   -5.410870
    155          1           0       17.143759    3.129469   -3.430441
    156          1           0       14.965567    6.563166   -4.861570
    157          1           0       14.689522    6.665441   -3.007580
    158          1           0       13.667833    5.759390   -4.151021
 ---------------------------------------------------------------------
 Rotational constants (GHZ):           0.0202530           0.0016170           0.0016136
 Leave Link  202 at Sun Sep 12 12:17:58 2021, MaxMem= 23488102400 cpu:               0.2 elap:               0.0
 (Enter /sw/apps/gaussian-16.0/g16/l301.exe)
 Standard basis: def2SVP (5D, 7F)
 Ernie: Thresh=  0.10000D-02 Tol=  0.10000D-05 Strict=F.
 There are  1658 symmetry adapted cartesian basis functions of A   symmetry.
 There are  1572 symmetry adapted basis functions of A   symmetry.
  1572 basis functions,  2678 primitive gaussians,  1658 cartesian basis functions
   312 alpha electrons      312 beta electrons
       nuclear repulsion energy     12298.7699756811 Hartrees.
 IExCor=20419 DFT=T Ex+Corr=CAM-B3LYP ExCW=0 ScaHFX=  1.000000
 ScaDFX=  1.000000  1.000000  1.000000  0.810000 ScalE2=  1.000000  1.000000
 IRadAn=      5 IRanWt=     -1 IRanGd=            0 ICorTp=0 IEmpDi=  4
 HFx  wShort=  0.000000 wLong=  0.330000 cFull=  0.190000 cShort=  0.000000 cLong=  0.460000
 DFx  wShort=  0.000000 wLong=  0.330000 cFull=  0.190000 cShort=  0.000000 cLong=  0.460000
 NAtoms=  158 NActive=  158 NUniq=  158 SFac= 1.00D+00 NAtFMM=   60 NAOKFM=T Big=T
 Integral buffers will be    131072 words long.
 Raffenetti 1 integral format.
 Two-electron integral symmetry is turned on.
 Leave Link  301 at Sun Sep 12 12:17:58 2021, MaxMem= 23488102400 cpu:               1.3 elap:               0.1
 (Enter /sw/apps/gaussian-16.0/g16/l302.exe)
 NPDir=0 NMtPBC=     1 NCelOv=     1 NCel=       1 NClECP=     1 NCelD=      1
         NCelK=      1 NCelE2=     1 NClLst=     1 CellRange=     0.0.
 One-electron integrals computed using PRISM.
 One-electron integral symmetry used in STVInt
   1 Symmetry operations used in ECPInt.
 ECPInt:  NShTT=  271216 NPrTT=  987664 LenC2=  103957 LenP2D=  239866.
 LDataN:  DoStor=T MaxTD1= 4 Len=   56
 NBasis=  1572 RedAO= T EigKep=  3.36D-04  NBF=  1572
 NBsUse=  1572 1.00D-06 EigRej= -1.00D+00 NBFU=  1572
 Precomputing XC quadrature grid using
 IXCGrd= 4 IRadAn=           5 IRanWt=          -1 IRanGd=           0 AccXCQ= 0.00D+00.
 Generated NRdTot=       0 NPtTot=           0 NUsed=           0 NTot=          32
 NSgBfM=   812   812   812   812   812 MxSgAt=   158 MxSgA2=    79.
 Leave Link  302 at Sun Sep 12 12:18:02 2021, MaxMem= 23488102400 cpu:              96.2 elap:               4.0
 (Enter /sw/apps/gaussian-16.0/g16/l303.exe)
 DipDrv:  MaxL=1.
 Leave Link  303 at Sun Sep 12 12:18:02 2021, MaxMem= 23488102400 cpu:               7.6 elap:               0.4
 (Enter /sw/apps/gaussian-16.0/g16/l308.exe)
 Leave Link  308 at Sun Sep 12 12:18:03 2021, MaxMem= 23488102400 cpu:              14.6 elap:               0.7
 (Enter /sw/apps/gaussian-16.0/g16/l401.exe)
 ExpMin= 3.36D-02 ExpMax= 4.95D+03 ExpMxC= 7.45D+02 IAcc=3 IRadAn=         5 AccDes= 0.00D+00
 Harris functional with IExCor=20419 and IRadAn=       5 diagonalized for initial guess.
 HarFok:  IExCor=20419 AccDes= 0.00D+00 IRadAn=         5 IDoV= 1 UseB2=F ITyADJ=14
 ICtDFT=  3500011 ScaDFX=  1.000000  1.000000  1.000000  1.000000
 FoFCou: FMM=F IPFlag=           0 FMFlag=      100000 FMFlg1=        2001
         NFxFlg=           0 DoJE=T BraDBF=F KetDBF=T FulRan=T
         wScrn=  0.000000 ICntrl=       500 IOpCl=  0 I1Cent=   200000004 NGrid=           0
         NMat0=    1 NMatS0=      1 NMatT0=    0 NMatD0=    1 NMtDS0=    0 NMtDT0=    0
 Petite list used in FoFCou.
 Harris En= -3918.65800975149    
 JPrj=0 DoOrth=F DoCkMO=F.
 Leave Link  401 at Sun Sep 12 12:18:10 2021, MaxMem= 23488102400 cpu:             157.9 elap:               6.6
 (Enter /sw/apps/gaussian-16.0/g16/l502.exe)
 Integral symmetry usage will be decided dynamically.
 Closed shell SCF:
 Using DIIS extrapolation, IDIIS=  1040.
 NGot= 23488102400 LenX= 23482547354 LenY= 23479796732
 Requested convergence on RMS density matrix=1.00D-08 within 128 cycles.
 Requested convergence on MAX density matrix=1.00D-06.
 Requested convergence on             energy=1.00D-06.
 No special actions if energy rises.
 Fock matrices will be formed incrementally for  20 cycles.

 Cycle   1  Pass 1  IDiag  1:
 FoFJK:  IHMeth= 1 ICntrl=       0 DoSepK=T KAlg= 0 I1Cent=           0 FoldK=F
 IRaf=         1 NMat=       1 IRICut=       1 DoRegI=T DoRafI=F ISym2E= 0 IDoP0=0 IntGTp=1.
 FoFCou: FMM=T IPFlag=           0 FMFlag=      100000 FMFlg1=        2001
         NFxFlg=           0 DoJE=T BraDBF=F KetDBF=F FulRan=T
         wScrn=  0.000000 ICntrl=       500 IOpCl=  0 I1Cent=           0 NGrid=           0
         NMat0=    1 NMatS0=      1 NMatT0=    0 NMatD0=    1 NMtDS0=    0 NMtDT0=    0
 Symmetry not used in FoFCou.
 FMM levels:  10  Number of levels for PrismC:   9
 E= -4068.94931383924    
 DIIS: error= 2.04D-02 at cycle   1 NSaved=   1.
 NSaved= 1 IEnMin= 1 EnMin= -4068.94931383924     IErMin= 1 ErrMin= 2.04D-02
 ErrMax= 2.04D-02  0.00D+00 EMaxC= 1.00D-01 BMatC= 1.69D+00 BMatP= 1.69D+00
 IDIUse=3 WtCom= 7.96D-01 WtEn= 2.04D-01
 Coeff-Com:  0.100D+01
 Coeff-En:   0.100D+01
 Coeff:      0.100D+01
 Gap=     0.120 Goal=   None    Shift=    0.000
 GapD=    0.120 DampG=1.000 DampE=0.500 DampFc=0.5000 IDamp=-1.
 Damping current iteration by 5.00D-01
 RMSDP=1.57D-03 MaxDP=1.35D-01              OVMax= 2.02D-01

 Cycle   2  Pass 1  IDiag  1:
 RMSU=  7.69D-04    CP:  9.82D-01
 E= -4069.33822642674     Delta-E=       -0.388912587499 Rises=F Damp=T
 DIIS: error= 1.27D-02 at cycle   2 NSaved=   2.
 NSaved= 2 IEnMin= 2 EnMin= -4069.33822642674     IErMin= 2 ErrMin= 1.27D-02
 ErrMax= 1.27D-02  0.00D+00 EMaxC= 1.00D-01 BMatC= 3.07D-01 BMatP= 1.69D+00
 IDIUse=3 WtCom= 8.73D-01 WtEn= 1.27D-01
 Coeff-Com: -0.213D+00 0.121D+01
 Coeff-En:   0.000D+00 0.100D+01
 Coeff:     -0.186D+00 0.119D+01
 Gap=     0.138 Goal=   None    Shift=    0.000
 RMSDP=7.65D-04 MaxDP=9.43D-02 DE=-3.89D-01 OVMax= 1.88D-01

 Cycle   3  Pass 1  IDiag  1:
 RMSU=  7.32D-04    CP:  9.68D-01  1.24D+00
 E= -4069.62805765727     Delta-E=       -0.289831230535 Rises=F Damp=F
 DIIS: error= 1.58D-02 at cycle   3 NSaved=   3.
 NSaved= 3 IEnMin= 3 EnMin= -4069.62805765727     IErMin= 2 ErrMin= 1.27D-02
 ErrMax= 1.58D-02  0.00D+00 EMaxC= 1.00D-01 BMatC= 2.02D-01 BMatP= 3.07D-01
 IDIUse=3 WtCom= 8.42D-01 WtEn= 1.58D-01
 Coeff-Com: -0.267D+00 0.652D+00 0.616D+00
 Coeff-En:   0.000D+00 0.000D+00 0.100D+01
 Coeff:     -0.225D+00 0.549D+00 0.676D+00
 Gap=     0.125 Goal=   None    Shift=    0.000
 RMSDP=5.08D-04 MaxDP=4.85D-02 DE=-2.90D-01 OVMax= 1.42D-01

 Cycle   4  Pass 1  IDiag  1:
 RMSU=  2.65D-04    CP:  9.65D-01  1.55D+00  5.06D-01
 E= -4069.76513425381     Delta-E=       -0.137076596542 Rises=F Damp=F
 DIIS: error= 7.32D-03 at cycle   4 NSaved=   4.
 NSaved= 4 IEnMin= 4 EnMin= -4069.76513425381     IErMin= 4 ErrMin= 7.32D-03
 ErrMax= 7.32D-03  0.00D+00 EMaxC= 1.00D-01 BMatC= 5.04D-02 BMatP= 2.02D-01
 IDIUse=3 WtCom= 9.27D-01 WtEn= 7.32D-02
 Coeff-Com: -0.109D+00 0.226D+00 0.409D+00 0.474D+00
 Coeff-En:   0.000D+00 0.000D+00 0.221D+00 0.779D+00
 Coeff:     -0.101D+00 0.209D+00 0.395D+00 0.497D+00
 Gap=     0.123 Goal=   None    Shift=    0.000
 RMSDP=2.00D-04 MaxDP=2.09D-02 DE=-1.37D-01 OVMax= 6.13D-02

 Cycle   5  Pass 1  IDiag  1:
 RMSU=  7.57D-05    CP:  9.64D-01  1.49D+00  6.89D-01  5.50D-01
 E= -4069.81054854130     Delta-E=       -0.045414287482 Rises=F Damp=F
 DIIS: error= 7.90D-04 at cycle   5 NSaved=   5.
 NSaved= 5 IEnMin= 5 EnMin= -4069.81054854130     IErMin= 5 ErrMin= 7.90D-04
 ErrMax= 7.90D-04  0.00D+00 EMaxC= 1.00D-01 BMatC= 1.16D-03 BMatP= 5.04D-02
 IDIUse=3 WtCom= 9.92D-01 WtEn= 7.90D-03
 Coeff-Com: -0.357D-01 0.700D-01 0.165D+00 0.249D+00 0.552D+00
 Coeff-En:   0.000D+00 0.000D+00 0.000D+00 0.000D+00 0.100D+01
 Coeff:     -0.354D-01 0.694D-01 0.163D+00 0.247D+00 0.556D+00
 Gap=     0.122 Goal=   None    Shift=    0.000
 RMSDP=4.05D-05 MaxDP=4.16D-03 DE=-4.54D-02 OVMax= 1.62D-02

 Cycle   6  Pass 1  IDiag  1:
 RMSU=  3.01D-05    CP:  9.64D-01  1.49D+00  6.81D-01  6.21D-01  7.61D-01
 E= -4069.81154852659     Delta-E=       -0.000999985292 Rises=F Damp=F
 DIIS: error= 2.21D-04 at cycle   6 NSaved=   6.
 NSaved= 6 IEnMin= 6 EnMin= -4069.81154852659     IErMin= 6 ErrMin= 2.21D-04
 ErrMax= 2.21D-04  0.00D+00 EMaxC= 1.00D-01 BMatC= 1.74D-04 BMatP= 1.16D-03
 IDIUse=3 WtCom= 9.98D-01 WtEn= 2.21D-03
 Coeff-Com:  0.234D-02-0.683D-02 0.107D-01 0.396D-01 0.306D+00 0.648D+00
 Coeff-En:   0.000D+00 0.000D+00 0.000D+00 0.000D+00 0.101D+00 0.899D+00
 Coeff:      0.233D-02-0.681D-02 0.107D-01 0.395D-01 0.306D+00 0.649D+00
 Gap=     0.123 Goal=   None    Shift=    0.000
 RMSDP=1.57D-05 MaxDP=1.24D-03 DE=-1.00D-03 OVMax= 7.17D-03

 Cycle   7  Pass 1  IDiag  1:
 RMSU=  1.06D-05    CP:  9.64D-01  1.50D+00  6.87D-01  6.21D-01  8.60D-01
                    CP:  7.51D-01
 E= -4069.81173525286     Delta-E=       -0.000186726273 Rises=F Damp=F
 DIIS: error= 8.24D-05 at cycle   7 NSaved=   7.
 NSaved= 7 IEnMin= 7 EnMin= -4069.81173525286     IErMin= 7 ErrMin= 8.24D-05
 ErrMax= 8.24D-05  0.00D+00 EMaxC= 1.00D-01 BMatC= 2.04D-05 BMatP= 1.74D-04
 IDIUse=1 WtCom= 1.00D+00 WtEn= 0.00D+00
 Coeff-Com:  0.445D-02-0.972D-02-0.900D-02-0.390D-02 0.101D+00 0.328D+00
 Coeff-Com:  0.589D+00
 Coeff:      0.445D-02-0.972D-02-0.900D-02-0.390D-02 0.101D+00 0.328D+00
 Coeff:      0.589D+00
 Gap=     0.123 Goal=   None    Shift=    0.000
 RMSDP=6.47D-06 MaxDP=1.11D-03 DE=-1.87D-04 OVMax= 3.38D-03

 Cycle   8  Pass 1  IDiag  1:
 RMSU=  4.65D-06    CP:  9.64D-01  1.50D+00  6.88D-01  6.26D-01  8.65D-01
                    CP:  8.77D-01  8.25D-01
 E= -4069.81176055795     Delta-E=       -0.000025305089 Rises=F Damp=F
 DIIS: error= 5.00D-05 at cycle   8 NSaved=   8.
 NSaved= 8 IEnMin= 8 EnMin= -4069.81176055795     IErMin= 8 ErrMin= 5.00D-05
 ErrMax= 5.00D-05  0.00D+00 EMaxC= 1.00D-01 BMatC= 4.79D-06 BMatP= 2.04D-05
 IDIUse=1 WtCom= 1.00D+00 WtEn= 0.00D+00
 Coeff-Com:  0.214D-02-0.424D-02-0.773D-02-0.121D-01-0.119D-01 0.334D-01
 Coeff-Com:  0.346D+00 0.655D+00
 Coeff:      0.214D-02-0.424D-02-0.773D-02-0.121D-01-0.119D-01 0.334D-01
 Coeff:      0.346D+00 0.655D+00
 Gap=     0.123 Goal=   None    Shift=    0.000
 RMSDP=3.25D-06 MaxDP=3.52D-04 DE=-2.53D-05 OVMax= 1.12D-03

 Cycle   9  Pass 1  IDiag  1:
 RMSU=  1.90D-06    CP:  9.64D-01  1.50D+00  6.88D-01  6.27D-01  8.82D-01
                    CP:  9.02D-01  1.02D+00  9.38D-01
 E= -4069.81176819700     Delta-E=       -0.000007639052 Rises=F Damp=F
 DIIS: error= 1.93D-05 at cycle   9 NSaved=   9.
 NSaved= 9 IEnMin= 9 EnMin= -4069.81176819700     IErMin= 9 ErrMin= 1.93D-05
 ErrMax= 1.93D-05  0.00D+00 EMaxC= 1.00D-01 BMatC= 6.81D-07 BMatP= 4.79D-06
 IDIUse=1 WtCom= 1.00D+00 WtEn= 0.00D+00
 Coeff-Com:  0.461D-03-0.764D-03-0.265D-02-0.597D-02-0.213D-01-0.384D-01
 Coeff-Com:  0.105D+00 0.325D+00 0.639D+00
 Coeff:      0.461D-03-0.764D-03-0.265D-02-0.597D-02-0.213D-01-0.384D-01
 Coeff:      0.105D+00 0.325D+00 0.639D+00
 Gap=     0.123 Goal=   None    Shift=    0.000
 RMSDP=1.41D-06 MaxDP=1.50D-04 DE=-7.64D-06 OVMax= 7.45D-04

 Cycle  10  Pass 1  IDiag  1:
 RMSU=  9.34D-07    CP:  9.64D-01  1.50D+00  6.88D-01  6.28D-01  8.85D-01
                    CP:  9.16D-01  1.07D+00  1.10D+00  1.05D+00
 E= -4069.81176976696     Delta-E=       -0.000001569955 Rises=F Damp=F
 DIIS: error= 1.03D-05 at cycle  10 NSaved=  10.
 NSaved=10 IEnMin=10 EnMin= -4069.81176976696     IErMin=10 ErrMin= 1.03D-05
 ErrMax= 1.03D-05  0.00D+00 EMaxC= 1.00D-01 BMatC= 1.71D-07 BMatP= 6.81D-07
 IDIUse=1 WtCom= 1.00D+00 WtEn= 0.00D+00
 Coeff-Com: -0.426D-03 0.891D-03 0.123D-02 0.112D-02-0.378D-02-0.309D-01
 Coeff-Com: -0.466D-01-0.762D-01 0.256D+00 0.898D+00
 Coeff:     -0.426D-03 0.891D-03 0.123D-02 0.112D-02-0.378D-02-0.309D-01
 Coeff:     -0.466D-01-0.762D-01 0.256D+00 0.898D+00
 Gap=     0.123 Goal=   None    Shift=    0.000
 RMSDP=1.22D-06 MaxDP=1.25D-04 DE=-1.57D-06 OVMax= 6.03D-04

 Cycle  11  Pass 1  IDiag  1:
 RMSU=  5.12D-07    CP:  9.64D-01  1.50D+00  6.88D-01  6.28D-01  8.87D-01
                    CP:  9.26D-01  1.12D+00  1.21D+00  1.39D+00  1.37D+00
 E= -4069.81177054665     Delta-E=       -0.000000779693 Rises=F Damp=F
 DIIS: error= 3.92D-06 at cycle  11 NSaved=  11.
 NSaved=11 IEnMin=11 EnMin= -4069.81177054665     IErMin=11 ErrMin= 3.92D-06
 ErrMax= 3.92D-06  0.00D+00 EMaxC= 1.00D-01 BMatC= 6.02D-08 BMatP= 1.71D-07
 IDIUse=1 WtCom= 1.00D+00 WtEn= 0.00D+00
 Coeff-Com: -0.325D-03 0.632D-03 0.132D-02 0.211D-02 0.440D-02-0.831D-02
 Coeff-Com: -0.437D-01-0.132D+00-0.221D-01 0.463D+00 0.735D+00
 Coeff:     -0.325D-03 0.632D-03 0.132D-02 0.211D-02 0.440D-02-0.831D-02
 Coeff:     -0.437D-01-0.132D+00-0.221D-01 0.463D+00 0.735D+00
 Gap=     0.123 Goal=   None    Shift=    0.000
 RMSDP=6.82D-07 MaxDP=5.74D-05 DE=-7.80D-07 OVMax= 3.68D-04

 Cycle  12  Pass 1  IDiag  1:
 RMSU=  2.62D-07    CP:  9.64D-01  1.50D+00  6.88D-01  6.28D-01  8.88D-01
                    CP:  9.29D-01  1.14D+00  1.28D+00  1.55D+00  1.76D+00
                    CP:  1.20D+00
 E= -4069.81177080651     Delta-E=       -0.000000259864 Rises=F Damp=F
 DIIS: error= 2.34D-06 at cycle  12 NSaved=  12.
 NSaved=12 IEnMin=12 EnMin= -4069.81177080651     IErMin=12 ErrMin= 2.34D-06
 ErrMax= 2.34D-06  0.00D+00 EMaxC= 1.00D-01 BMatC= 1.46D-08 BMatP= 6.02D-08
 IDIUse=1 WtCom= 1.00D+00 WtEn= 0.00D+00
 Coeff-Com:  0.106D-05-0.185D-04 0.174D-03 0.503D-03 0.327D-02 0.408D-02
 Coeff-Com:  0.289D-02-0.346D-01-0.675D-01-0.773D-01 0.250D+00 0.919D+00
 Coeff:      0.106D-05-0.185D-04 0.174D-03 0.503D-03 0.327D-02 0.408D-02
 Coeff:      0.289D-02-0.346D-01-0.675D-01-0.773D-01 0.250D+00 0.919D+00
 Gap=     0.123 Goal=   None    Shift=    0.000
 RMSDP=4.36D-07 MaxDP=3.09D-05 DE=-2.60D-07 OVMax= 2.47D-04

 Cycle  13  Pass 1  IDiag  1:
 RMSU=  1.64D-07    CP:  9.64D-01  1.50D+00  6.88D-01  6.28D-01  8.88D-01
                    CP:  9.29D-01  1.14D+00  1.31D+00  1.66D+00  1.98D+00
                    CP:  1.61D+00  1.28D+00
 E= -4069.81177089750     Delta-E=       -0.000000090984 Rises=F Damp=F
 DIIS: error= 1.24D-06 at cycle  13 NSaved=  13.
 NSaved=13 IEnMin=13 EnMin= -4069.81177089750     IErMin=13 ErrMin= 1.24D-06
 ErrMax= 1.24D-06  0.00D+00 EMaxC= 1.00D-01 BMatC= 8.02D-09 BMatP= 1.46D-08
 IDIUse=1 WtCom= 1.00D+00 WtEn= 0.00D+00
 Coeff-Com:  0.120D-03-0.244D-03-0.369D-03-0.457D-03 0.560D-03 0.509D-02
 Coeff-Com:  0.198D-01 0.227D-01-0.341D-01-0.241D+00-0.156D+00 0.599D+00
 Coeff-Com:  0.784D+00
 Coeff:      0.120D-03-0.244D-03-0.369D-03-0.457D-03 0.560D-03 0.509D-02
 Coeff:      0.198D-01 0.227D-01-0.341D-01-0.241D+00-0.156D+00 0.599D+00
 Coeff:      0.784D+00
 Gap=     0.123 Goal=   None    Shift=    0.000
 RMSDP=3.37D-07 MaxDP=2.26D-05 DE=-9.10D-08 OVMax= 1.94D-04

 Cycle  14  Pass 1  IDiag  1:
 RMSU=  7.58D-08    CP:  9.64D-01  1.50D+00  6.88D-01  6.28D-01  8.89D-01
                    CP:  9.30D-01  1.15D+00  1.33D+00  1.74D+00  2.18D+00
                    CP:  1.88D+00  1.79D+00  1.09D+00
 E= -4069.81177093281     Delta-E=       -0.000000035312 Rises=F Damp=F
 DIIS: error= 6.18D-07 at cycle  14 NSaved=  14.
 NSaved=14 IEnMin=14 EnMin= -4069.81177093281     IErMin=14 ErrMin= 6.18D-07
 ErrMax= 6.18D-07  0.00D+00 EMaxC= 1.00D-01 BMatC= 1.24D-09 BMatP= 8.02D-09
 IDIUse=1 WtCom= 1.00D+00 WtEn= 0.00D+00
 Coeff-Com:  0.660D-04-0.130D-03-0.245D-03-0.385D-03-0.485D-03 0.130D-02
 Coeff-Com:  0.108D-01 0.191D-01 0.354D-02-0.993D-01-0.142D+00 0.941D-01
 Coeff-Com:  0.404D+00 0.710D+00
 Coeff:      0.660D-04-0.130D-03-0.245D-03-0.385D-03-0.485D-03 0.130D-02
 Coeff:      0.108D-01 0.191D-01 0.354D-02-0.993D-01-0.142D+00 0.941D-01
 Coeff:      0.404D+00 0.710D+00
 Gap=     0.123 Goal=   None    Shift=    0.000
 RMSDP=1.00D-07 MaxDP=6.60D-06 DE=-3.53D-08 OVMax= 5.49D-05

 Cycle  15  Pass 1  IDiag  1:
 RMSU=  3.82D-08    CP:  9.64D-01  1.50D+00  6.88D-01  6.28D-01  8.89D-01
                    CP:  9.30D-01  1.15D+00  1.33D+00  1.75D+00  2.22D+00
                    CP:  1.98D+00  1.93D+00  1.32D+00  1.03D+00
 E= -4069.81177093663     Delta-E=       -0.000000003824 Rises=F Damp=F
 DIIS: error= 3.52D-07 at cycle  15 NSaved=  15.
 NSaved=15 IEnMin=15 EnMin= -4069.81177093663     IErMin=15 ErrMin= 3.52D-07
 ErrMax= 3.52D-07  0.00D+00 EMaxC= 1.00D-01 BMatC= 2.25D-10 BMatP= 1.24D-09
 IDIUse=1 WtCom= 1.00D+00 WtEn= 0.00D+00
 Coeff-Com:  0.517D-05-0.856D-05-0.320D-04-0.808D-04-0.300D-03-0.513D-03
 Coeff-Com:  0.112D-02 0.251D-02 0.875D-02 0.188D-02-0.308D-01-0.732D-01
 Coeff-Com:  0.284D-01 0.299D+00 0.764D+00
 Coeff:      0.517D-05-0.856D-05-0.320D-04-0.808D-04-0.300D-03-0.513D-03
 Coeff:      0.112D-02 0.251D-02 0.875D-02 0.188D-02-0.308D-01-0.732D-01
 Coeff:      0.284D-01 0.299D+00 0.764D+00
 Gap=     0.123 Goal=   None    Shift=    0.000
 RMSDP=4.07D-08 MaxDP=2.68D-06 DE=-3.82D-09 OVMax= 2.64D-05

 Cycle  16  Pass 1  IDiag  1:
 RMSU=  1.86D-08    CP:  9.64D-01  1.50D+00  6.88D-01  6.28D-01  8.89D-01
                    CP:  9.30D-01  1.15D+00  1.34D+00  1.76D+00  2.23D+00
                    CP:  2.01D+00  1.99D+00  1.40D+00  1.24D+00  1.14D+00
 E= -4069.81177093733     Delta-E=       -0.000000000700 Rises=F Damp=F
 DIIS: error= 1.77D-07 at cycle  16 NSaved=  16.
 NSaved=16 IEnMin=16 EnMin= -4069.81177093733     IErMin=16 ErrMin= 1.77D-07
 ErrMax= 1.77D-07  0.00D+00 EMaxC= 1.00D-01 BMatC= 8.06D-11 BMatP= 2.25D-10
 IDIUse=1 WtCom= 1.00D+00 WtEn= 0.00D+00
 Coeff-Com: -0.142D-04 0.287D-04 0.470D-04 0.539D-04-0.262D-04-0.633D-03
 Coeff-Com: -0.200D-02-0.426D-02 0.458D-02 0.256D-01 0.206D-01-0.647D-01
 Coeff-Com: -0.837D-01-0.364D-01 0.396D+00 0.744D+00
 Coeff:     -0.142D-04 0.287D-04 0.470D-04 0.539D-04-0.262D-04-0.633D-03
 Coeff:     -0.200D-02-0.426D-02 0.458D-02 0.256D-01 0.206D-01-0.647D-01
 Coeff:     -0.837D-01-0.364D-01 0.396D+00 0.744D+00
 Gap=     0.123 Goal=   None    Shift=    0.000
 RMSDP=2.28D-08 MaxDP=1.59D-06 DE=-7.00D-10 OVMax= 1.35D-05

 Cycle  17  Pass 1  IDiag  1:
 RMSU=  1.04D-08    CP:  9.64D-01  1.50D+00  6.88D-01  6.28D-01  8.89D-01
                    CP:  9.30D-01  1.15D+00  1.34D+00  1.76D+00  2.24D+00
                    CP:  2.02D+00  2.01D+00  1.45D+00  1.34D+00  1.44D+00
                    CP:  1.25D+00
 E= -4069.81177093765     Delta-E=       -0.000000000317 Rises=F Damp=F
 DIIS: error= 1.02D-07 at cycle  17 NSaved=  17.
 NSaved=17 IEnMin=17 EnMin= -4069.81177093765     IErMin=17 ErrMin= 1.02D-07
 ErrMax= 1.02D-07  0.00D+00 EMaxC= 1.00D-01 BMatC= 1.79D-11 BMatP= 8.06D-11
 IDIUse=1 WtCom= 1.00D+00 WtEn= 0.00D+00
 Coeff-Com: -0.724D-05 0.141D-04 0.287D-04 0.428D-04 0.840D-04-0.124D-03
 Coeff-Com: -0.979D-03-0.281D-02 0.172D-03 0.931D-02 0.175D-01-0.745D-02
 Coeff-Com: -0.375D-01-0.102D+00-0.321D-01 0.299D+00 0.857D+00
 Coeff:     -0.724D-05 0.141D-04 0.287D-04 0.428D-04 0.840D-04-0.124D-03
 Coeff:     -0.979D-03-0.281D-02 0.172D-03 0.931D-02 0.175D-01-0.745D-02
 Coeff:     -0.375D-01-0.102D+00-0.321D-01 0.299D+00 0.857D+00
 Gap=     0.123 Goal=   None    Shift=    0.000
 RMSDP=1.38D-08 MaxDP=1.06D-06 DE=-3.17D-10 OVMax= 8.65D-06

 Cycle  18  Pass 1  IDiag  1:
 RMSU=  4.86D-09    CP:  9.64D-01  1.50D+00  6.88D-01  6.28D-01  8.89D-01
                    CP:  9.30D-01  1.15D+00  1.34D+00  1.76D+00  2.24D+00
                    CP:  2.02D+00  2.02D+00  1.47D+00  1.41D+00  1.62D+00
                    CP:  1.66D+00  1.39D+00
 E= -4069.81177093802     Delta-E=       -0.000000000367 Rises=F Damp=F
 DIIS: error= 5.10D-08 at cycle  18 NSaved=  18.
 NSaved=18 IEnMin=18 EnMin= -4069.81177093802     IErMin=18 ErrMin= 5.10D-08
 ErrMax= 5.10D-08  0.00D+00 EMaxC= 1.00D-01 BMatC= 6.78D-12 BMatP= 1.79D-11
 IDIUse=1 WtCom= 1.00D+00 WtEn= 0.00D+00
 Coeff-Com:  0.202D-05-0.434D-05-0.445D-05-0.156D-05 0.592D-04 0.182D-03
 Coeff-Com:  0.400D-03 0.209D-03-0.128D-02-0.614D-02-0.136D-04 0.203D-01
 Coeff-Com:  0.183D-01-0.329D-01-0.162D+00-0.187D+00 0.347D+00 0.100D+01
 Coeff:      0.202D-05-0.434D-05-0.445D-05-0.156D-05 0.592D-04 0.182D-03
 Coeff:      0.400D-03 0.209D-03-0.128D-02-0.614D-02-0.136D-04 0.203D-01
 Coeff:      0.183D-01-0.329D-01-0.162D+00-0.187D+00 0.347D+00 0.100D+01
 Gap=     0.123 Goal=   None    Shift=    0.000
 RMSDP=1.17D-08 MaxDP=8.00D-07 DE=-3.67D-10 OVMax= 7.08D-06

 Cycle  19  Pass 1  IDiag  1:
 RMSU=  2.81D-09    CP:  9.64D-01  1.50D+00  6.88D-01  6.28D-01  8.89D-01
                    CP:  9.30D-01  1.15D+00  1.34D+00  1.76D+00  2.24D+00
                    CP:  2.03D+00  2.03D+00  1.48D+00  1.46D+00  1.77D+00
                    CP:  1.99D+00  1.93D+00  1.37D+00
 E= -4069.81177093805     Delta-E=       -0.000000000029 Rises=F Damp=F
 DIIS: error= 4.18D-08 at cycle  19 NSaved=  19.
 NSaved=19 IEnMin=19 EnMin= -4069.81177093805     IErMin=19 ErrMin= 4.18D-08
 ErrMax= 4.18D-08  0.00D+00 EMaxC= 1.00D-01 BMatC= 1.54D-12 BMatP= 6.78D-12
 IDIUse=1 WtCom= 1.00D+00 WtEn= 0.00D+00
 Coeff-Com:  0.293D-05-0.592D-05-0.100D-04-0.125D-04 0.114D-04 0.123D-03
 Coeff-Com:  0.486D-03 0.808D-03-0.630D-03-0.608D-02-0.485D-02 0.124D-01
 Coeff-Com:  0.205D-01 0.108D-01-0.720D-01-0.181D+00-0.345D-01 0.508D+00
 Coeff-Com:  0.746D+00
 Coeff:      0.293D-05-0.592D-05-0.100D-04-0.125D-04 0.114D-04 0.123D-03
 Coeff:      0.486D-03 0.808D-03-0.630D-03-0.608D-02-0.485D-02 0.124D-01
 Coeff:      0.205D-01 0.108D-01-0.720D-01-0.181D+00-0.345D-01 0.508D+00
 Coeff:      0.746D+00
 Gap=     0.123 Goal=   None    Shift=    0.000
 RMSDP=4.74D-09 MaxDP=3.26D-07 DE=-2.91D-11 OVMax= 2.74D-06

 SCF Done:  E(RCAM-B3LYP) =  -4069.81177094     A.U. after   19 cycles
            NFock= 19  Conv=0.47D-08     -V/T= 2.0102
 KE= 4.028802082249D+03 PE=-3.407849320124D+04 EE= 1.368110937237D+04
 Leave Link  502 at Sun Sep 12 12:26:29 2021, MaxMem= 23488102400 cpu:           11427.1 elap:             499.6
 (Enter /sw/apps/gaussian-16.0/g16/l801.exe)
 DoSCS=F DFT=T ScalE2(SS,OS)=  1.000000  1.000000
 ExpMin= 3.36D-02 ExpMax= 4.95D+03 ExpMxC= 7.45D+02 IAcc=3 IRadAn=         5 AccDes= 0.00D+00
 HarFok:  IExCor=  205 AccDes= 0.00D+00 IRadAn=         5 IDoV=-2 UseB2=F ITyADJ=14
 ICtDFT= 12500011 ScaDFX=  1.000000  1.000000  1.000000  1.000000
 GSVD:  LWork=       -9588 too small for GESVD, short by       45590 words or       45590 for optimal perf.
 Largest valence mixing into a core orbital is  2.03D-04
 Largest core mixing into a valence orbital is  5.24D-05
 Range of M.O.s used for correlation:    95  1572
 NBasis=  1572 NAE=   312 NBE=   312 NFC=    94 NFV=     0
 NROrb=   1478 NOA=   218 NOB=   218 NVA=  1260 NVB=  1260
 Leave Link  801 at Sun Sep 12 12:26:30 2021, MaxMem= 23488102400 cpu:               9.3 elap:               0.4
 (Enter /sw/apps/gaussian-16.0/g16/l914.exe)
 RHF ground state
 Two-electron integrals replicated using symmetry.
 MDV= 23488102400 DFT=T DoStab=F Mixed=T DoRPA=T DoScal=F NonHer=T
 Making orbital integer symmetry assigments:
 Orbital symmetries:
       Occupied  (A) (A) (A) (A) (A) (A) (A) (A) (A) (A) (A) (A)
                 (A) (A) (A) (A) (A) (A) (A) (A) (A) (A) (A) (A)
                 (A) (A) (A) (A) (A) (A) (A) (A) (A) (A) (A) (A)
                 (A) (A) (A) (A) (A) (A) (A) (A) (A) (A) (A) (A)
                 (A) (A) (A) (A) (A) (A) (A) (A) (A) (A) (A) (A)
                 (A) (A) (A) (A) (A) (A) (A) (A) (A) (A) (A) (A)
                 (A) (A) (A) (A) (A) (A) (A) (A) (A) (A) (A) (A)
                 (A) (A) (A) (A) (A) (A) (A) (A) (A) (A) (A) (A)
                 (A) (A) (A) (A) (A) (A) (A) (A) (A) (A) (A) (A)
                 (A) (A) (A) (A) (A) (A) (A) (A) (A) (A) (A) (A)
                 (A) (A) (A) (A) (A) (A) (A) (A) (A) (A) (A) (A)
                 (A) (A) (A) (A) (A) (A) (A) (A) (A) (A) (A) (A)
                 (A) (A) (A) (A) (A) (A) (A) (A) (A) (A) (A) (A)
                 (A) (A) (A) (A) (A) (A) (A) (A) (A) (A) (A) (A)
                 (A) (A) (A) (A) (A) (A) (A) (A) (A) (A) (A) (A)
                 (A) (A) (A) (A) (A) (A) (A) (A) (A) (A) (A) (A)
                 (A) (A) (A) (A) (A) (A) (A) (A) (A) (A) (A) (A)
                 (A) (A) (A) (A) (A) (A) (A) (A) (A) (A) (A) (A)
                 (A) (A) (A) (A) (A) (A) (A) (A) (A) (A) (A) (A)
                 (A) (A) (A) (A) (A) (A) (A) (A) (A) (A) (A) (A)
                 (A) (A) (A) (A) (A) (A) (A) (A) (A) (A) (A) (A)
                 (A) (A) (A) (A) (A) (A) (A) (A) (A) (A) (A) (A)
                 (A) (A) (A) (A) (A) (A) (A) (A) (A) (A) (A) (A)
                 (A) (A) (A) (A) (A) (A) (A) (A) (A) (A) (A) (A)
                 (A) (A) (A) (A) (A) (A) (A) (A) (A) (A) (A) (A)
                 (A) (A) (A) (A) (A) (A) (A) (A) (A) (A) (A) (A)
       Virtual   (A) (A) (A) (A) (A) (A) (A) (A) (A) (A) (A) (A)
                 (A) (A) (A) (A) (A) (A) (A) (A) (A) (A) (A) (A)
                 (A) (A) (A) (A) (A) (A) (A) (A) (A) (A) (A) (A)
                 (A) (A) (A) (A) (A) (A) (A) (A) (A) (A) (A) (A)
                 (A) (A) (A) (A) (A) (A) (A) (A) (A) (A) (A) (A)
                 (A) (A) (A) (A) (A) (A) (A) (A) (A) (A) (A) (A)
                 (A) (A) (A) (A) (A) (A) (A) (A) (A) (A) (A) (A)
                 (A) (A) (A) (A) (A) (A) (A) (A) (A) (A) (A) (A)
                 (A) (A) (A) (A) (A) (A) (A) (A) (A) (A) (A) (A)
                 (A) (A) (A) (A) (A) (A) (A) (A) (A) (A) (A) (A)
                 (A) (A) (A) (A) (A) (A) (A) (A) (A) (A) (A) (A)
                 (A) (A) (A) (A) (A) (A) (A) (A) (A) (A) (A) (A)
                 (A) (A) (A) (A) (A) (A) (A) (A) (A) (A) (A) (A)
                 (A) (A) (A) (A) (A) (A) (A) (A) (A) (A) (A) (A)
                 (A) (A) (A) (A) (A) (A) (A) (A) (A) (A) (A) (A)
                 (A) (A) (A) (A) (A) (A) (A) (A) (A) (A) (A) (A)
                 (A) (A) (A) (A) (A) (A) (A) (A) (A) (A) (A) (A)
                 (A) (A) (A) (A) (A) (A) (A) (A) (A) (A) (A) (A)
                 (A) (A) (A) (A) (A) (A) (A) (A) (A) (A) (A) (A)
                 (A) (A) (A) (A) (A) (A) (A) (A) (A) (A) (A) (A)
                 (A) (A) (A) (A) (A) (A) (A) (A) (A) (A) (A) (A)
                 (A) (A) (A) (A) (A) (A) (A) (A) (A) (A) (A) (A)
                 (A) (A) (A) (A) (A) (A) (A) (A) (A) (A) (A) (A)
                 (A) (A) (A) (A) (A) (A) (A) (A) (A) (A) (A) (A)
                 (A) (A) (A) (A) (A) (A) (A) (A) (A) (A) (A) (A)
                 (A) (A) (A) (A) (A) (A) (A) (A) (A) (A) (A) (A)
                 (A) (A) (A) (A) (A) (A) (A) (A) (A) (A) (A) (A)
                 (A) (A) (A) (A) (A) (A) (A) (A) (A) (A) (A) (A)
                 (A) (A) (A) (A) (A) (A) (A) (A) (A) (A) (A) (A)
                 (A) (A) (A) (A) (A) (A) (A) (A) (A) (A) (A) (A)
                 (A) (A) (A) (A) (A) (A) (A) (A) (A) (A) (A) (A)
                 (A) (A) (A) (A) (A) (A) (A) (A) (A) (A) (A) (A)
                 (A) (A) (A) (A) (A) (A) (A) (A) (A) (A) (A) (A)
                 (A) (A) (A) (A) (A) (A) (A) (A) (A) (A) (A) (A)
                 (A) (A) (A) (A) (A) (A) (A) (A) (A) (A) (A) (A)
                 (A) (A) (A) (A) (A) (A) (A) (A) (A) (A) (A) (A)
                 (A) (A) (A) (A) (A) (A) (A) (A) (A) (A) (A) (A)
                 (A) (A) (A) (A) (A) (A) (A) (A) (A) (A) (A) (A)
                 (A) (A) (A) (A) (A) (A) (A) (A) (A) (A) (A) (A)
                 (A) (A) (A) (A) (A) (A) (A) (A) (A) (A) (A) (A)
                 (A) (A) (A) (A) (A) (A) (A) (A) (A) (A) (A) (A)
                 (A) (A) (A) (A) (A) (A) (A) (A) (A) (A) (A) (A)
                 (A) (A) (A) (A) (A) (A) (A) (A) (A) (A) (A) (A)
                 (A) (A) (A) (A) (A) (A) (A) (A) (A) (A) (A) (A)
                 (A) (A) (A) (A) (A) (A) (A) (A) (A) (A) (A) (A)
                 (A) (A) (A) (A) (A) (A) (A) (A) (A) (A) (A) (A)
                 (A) (A) (A) (A) (A) (A) (A) (A) (A) (A) (A) (A)
                 (A) (A) (A) (A) (A) (A) (A) (A) (A) (A) (A) (A)
                 (A) (A) (A) (A) (A) (A) (A) (A) (A) (A) (A) (A)
                 (A) (A) (A) (A) (A) (A) (A) (A) (A) (A) (A) (A)
                 (A) (A) (A) (A) (A) (A) (A) (A) (A) (A) (A) (A)
                 (A) (A) (A) (A) (A) (A) (A) (A) (A) (A) (A) (A)
                 (A) (A) (A) (A) (A) (A) (A) (A) (A) (A) (A) (A)
                 (A) (A) (A) (A) (A) (A) (A) (A) (A) (A) (A) (A)
                 (A) (A) (A) (A) (A) (A) (A) (A) (A) (A) (A) (A)
                 (A) (A) (A) (A) (A) (A) (A) (A) (A) (A) (A) (A)
                 (A) (A) (A) (A) (A) (A) (A) (A) (A) (A) (A) (A)
                 (A) (A) (A) (A) (A) (A) (A) (A) (A) (A) (A) (A)
                 (A) (A) (A) (A) (A) (A) (A) (A) (A) (A) (A) (A)
                 (A) (A) (A) (A) (A) (A) (A) (A) (A) (A) (A) (A)
                 (A) (A) (A) (A) (A) (A) (A) (A) (A) (A) (A) (A)
                 (A) (A) (A) (A) (A) (A) (A) (A) (A) (A) (A) (A)
                 (A) (A) (A) (A) (A) (A) (A) (A) (A) (A) (A) (A)
                 (A) (A) (A) (A) (A) (A) (A) (A) (A) (A) (A) (A)
                 (A) (A) (A) (A) (A) (A) (A) (A) (A) (A) (A) (A)
                 (A) (A) (A) (A) (A) (A) (A) (A) (A) (A) (A) (A)
                 (A) (A) (A) (A) (A) (A) (A) (A) (A) (A) (A) (A)
                 (A) (A) (A) (A) (A) (A) (A) (A) (A) (A) (A) (A)
                 (A) (A) (A) (A) (A) (A) (A) (A) (A) (A) (A) (A)
                 (A) (A) (A) (A) (A) (A) (A) (A) (A) (A) (A) (A)
                 (A) (A) (A) (A) (A) (A) (A) (A) (A) (A) (A) (A)
                 (A) (A) (A) (A) (A) (A) (A) (A) (A) (A) (A) (A)
                 (A) (A) (A) (A) (A) (A) (A) (A) (A) (A) (A) (A)
                 (A) (A) (A) (A) (A) (A) (A) (A) (A) (A) (A) (A)
                 (A) (A) (A) (A) (A) (A) (A) (A) (A) (A) (A) (A)
                 (A) (A) (A) (A) (A) (A) (A) (A) (A) (A) (A) (A)
                 (A) (A) (A) (A) (A) (A) (A) (A) (A) (A) (A) (A)
                 (A) (A) (A) (A) (A) (A) (A) (A) (A) (A) (A) (A)
                 (A) (A) (A) (A) (A) (A) (A) (A) (A) (A) (A) (A)
                 (A) (A) (A) (A) (A) (A) (A) (A) (A) (A) (A) (A)
                 (A) (A) (A) (A) (A) (A) (A) (A) (A) (A) (A) (A)
                 (A) (A) (A) (A) (A) (A) (A) (A) (A) (A) (A) (A)
                 (A) (A) (A) (A) (A) (A) (A) (A) (A) (A) (A) (A)
                 (A) (A) (A) (A) (A) (A) (A) (A) (A) (A) (A) (A)
                 (A) (A) (A) (A) (A) (A) (A) (A) (A) (A) (A) (A)
                 (A) (A) (A) (A) (A) (A) (A) (A) (A) (A) (A) (A)
                 (A) (A) (A) (A) (A) (A) (A) (A) (A) (A) (A) (A)
                 (A) (A) (A) (A) (A) (A) (A) (A) (A) (A) (A) (A)
                 (A) (A) (A) (A) (A) (A) (A) (A) (A) (A) (A) (A)
                 (A) (A) (A) (A) (A) (A) (A) (A) (A) (A) (A) (A)
                 (A) (A) (A) (A) (A) (A) (A) (A) (A) (A) (A) (A)
                 (A) (A) (A) (A) (A) (A) (A) (A) (A) (A) (A) (A)
                 (A) (A) (A) (A) (A) (A) (A) (A) (A) (A) (A) (A)
                 (A) (A) (A) (A) (A) (A) (A) (A) (A) (A) (A) (A)
                 (A) (A) (A) (A) (A) (A) (A) (A) (A) (A) (A) (A)
                 (A) (A) (A) (A) (A) (A) (A) (A) (A) (A) (A) (A)
                 (A) (A) (A) (A) (A) (A) (A) (A) (A) (A) (A) (A)
                 (A) (A) (A) (A) (A) (A) (A) (A) (A) (A) (A) (A)
                 (A) (A) (A) (A) (A) (A) (A) (A) (A) (A) (A) (A)
                 (A) (A) (A) (A) (A) (A) (A) (A) (A) (A) (A) (A)
                 (A) (A) (A) (A) (A) (A) (A) (A) (A) (A) (A) (A)
                 (A) (A) (A) (A) (A) (A) (A) (A) (A) (A) (A) (A)
                 (A) (A) (A) (A) (A) (A) (A) (A) (A) (A) (A) (A)
                 (A) (A) (A) (A) (A) (A) (A) (A) (A) (A) (A) (A)
                 (A) (A) (A) (A) (A) (A) (A) (A) (A) (A) (A) (A)
    20 initial guesses have been made.
 Convergence on wavefunction:    0.001000000000000
 Davidson Disk Diagonalization:  ConvIn= 1.00D-03 SkipCon=T Conv= 1.00D-03.
 Max sub-space:  2000 roots to seek:    20 dimension of matrix:       549360
 Iteration     1 Dimension    20 NMult     0 NNew     20
 CISAX will form    20 AO SS matrices at one time.
 NMat=    20 NSing=    20 JSym2X= 0.
 FoFJK:  IHMeth= 1 ICntrl=       0 DoSepK=T KAlg= 0 I1Cent=           0 FoldK=F
 IRaf=         1 NMat=      40 IRICut=       1 DoRegI=T DoRafI=F ISym2E= 0 IDoP0=3 IntGTp=3.
 FoFCou: FMM=T IPFlag=           0 FMFlag=      100000 FMFlg1=        2001
         NFxFlg=           0 DoJE=F BraDBF=F KetDBF=F FulRan=T
         wScrn=  0.000000 ICntrl=       500 IOpCl=  0 I1Cent=           0 NGrid=           0
         NMat0=   20 NMatS0=     20 NMatT0=    0 NMatD0=   20 NMtDS0=    0 NMtDT0=    0
 Symmetry not used in FoFCou.
 FMM levels:  10  Number of levels for PrismC:   9
 New state      1 was old state      8
 New state      2 was old state      5
 New state      3 was old state      2
 New state      4 was old state      3
 New state      5 was old state      1
 Excitation Energies [eV] at current iteration:
 Root      1 :     2.614370842381054
 Root      2 :     2.619266542082573
 Root      3 :     2.680411459346220
 Root      4 :     2.690274600202279
 Root      5 :     3.059022198679477
 Root      6 :     3.084403465153872
 Root      7 :     3.629174696394523
 Root      8 :     3.669515916861480
 Root      9 :     3.735385718655544
 Root     10 :     3.758965094988838
 Root     11 :     3.862384976907010
 Root     12 :     3.878600505024419
 Root     13 :     4.303593544969471
 Root     14 :     4.306941663428095
 Root     15 :     4.992833670857757
 Root     16 :     4.995336872280567
 Root     17 :     5.285530103619173
 Root     18 :     5.287742281014803
 Root     19 :     5.317100629710283
 Root     20 :     5.321461327400704
 Iteration     2 Dimension    30 NMult    20 NNew     10
 CISAX will form    10 AO SS matrices at one time.
 NMat=    10 NSing=    10 JSym2X= 0.
 New state      1 was old state      3
 Root      1 not converged, maximum delta is    0.187357658587328
 New state      2 was old state      4
 Root      2 not converged, maximum delta is    0.188709657260045
 New state      3 was old state      2
 Root      3 not converged, maximum delta is    0.065868897210694
 New state      4 was old state      1
 Root      4 not converged, maximum delta is    0.089280411962182
 Root      5 has converged.
 Excitation Energies [eV] at current iteration:
 Root      1 :     1.801370322816528   Change is   -0.879041136529692
 Root      2 :     1.807475018810075   Change is   -0.882799581392205
 Root      3 :     2.235893175155838   Change is   -0.383373366926734
 Root      4 :     2.239118386529908   Change is   -0.375252455851145
 Root      5 :     3.059017780752745   Change is   -0.000004417926732
 Iteration     3 Dimension    38 NMult    30 NNew      8
 CISAX will form     8 AO SS matrices at one time.
 NMat=     8 NSing=     8 JSym2X= 0.
 Root      1 not converged, maximum delta is    0.069500009448815
 Root      2 not converged, maximum delta is    0.070661355382255
 Root      3 not converged, maximum delta is    0.043928908476117
 Root      4 not converged, maximum delta is    0.042481475847246
 Root      5 has converged.
 Excitation Energies [eV] at current iteration:
 Root      1 :     1.694127845601987   Change is   -0.107242477214541
 Root      2 :     1.699087959671532   Change is   -0.108387059138543
 Root      3 :     2.194467452030448   Change is   -0.041425723125390
 Root      4 :     2.200279712598679   Change is   -0.038838673931229
 Root      5 :     3.059017780752664   Change is   -0.000000000000081
 Iteration     4 Dimension    46 NMult    38 NNew      8
 CISAX will form     8 AO SS matrices at one time.
 NMat=     8 NSing=     8 JSym2X= 0.
 Root      1 not converged, maximum delta is    0.013041698968813
 Root      2 not converged, maximum delta is    0.013300479296498
 Root      3 not converged, maximum delta is    0.009713361718061
 Root      4 not converged, maximum delta is    0.008875288530218
 Root      5 has converged.
 Excitation Energies [eV] at current iteration:
 Root      1 :     1.677413158139808   Change is   -0.016714687462179
 Root      2 :     1.682210662522026   Change is   -0.016877297149506
 Root      3 :     2.187170697513328   Change is   -0.007296754517119
 Root      4 :     2.193510598545830   Change is   -0.006769114052849
 Root      5 :     3.059017780752691   Change is    0.000000000000027
 Iteration     5 Dimension    54 NMult    46 NNew      8
 CISAX will form     8 AO SS matrices at one time.
 NMat=     8 NSing=     8 JSym2X= 0.
 Root      1 not converged, maximum delta is    0.002169276586105
 Root      2 not converged, maximum delta is    0.002169777249091
 Root      3 not converged, maximum delta is    0.002499242967405
 Root      4 not converged, maximum delta is    0.002384956473303
 Root      5 has converged.
 Excitation Energies [eV] at current iteration:
 Root      1 :     1.675634740623715   Change is   -0.001778417516092
 Root      2 :     1.680438392250720   Change is   -0.001772270271306
 Root      3 :     2.186325437062857   Change is   -0.000845260450471
 Root      4 :     2.192735323597814   Change is   -0.000775274948017
 Root      5 :     3.059017780752610   Change is   -0.000000000000081
 Iteration     6 Dimension    62 NMult    54 NNew      8
 CISAX will form     8 AO SS matrices at one time.
 NMat=     8 NSing=     8 JSym2X= 0.
 Root      1 not converged, maximum delta is    0.001358566395259
 Root      2 not converged, maximum delta is    0.001378948086970
 Root      3 not converged, maximum delta is    0.001066770033863
 Root      4 not converged, maximum delta is    0.001011962214678
 Root      5 has converged.
 Excitation Energies [eV] at current iteration:
 Root      1 :     1.675381027565229   Change is   -0.000253713058486
 Root      2 :     1.680183358213430   Change is   -0.000255034037289
 Root      3 :     2.186197373912089   Change is   -0.000128063150768
 Root      4 :     2.192617712207007   Change is   -0.000117611390807
 Root      5 :     3.059017780752718   Change is    0.000000000000108
 Iteration     7 Dimension    70 NMult    62 NNew      8
 CISAX will form     8 AO SS matrices at one time.
 NMat=     8 NSing=     8 JSym2X= 0.
 Root      1 has converged.
 Root      2 has converged.
 Root      3 has converged.
 Root      4 has converged.
 Root      5 has converged.
 Excitation Energies [eV] at current iteration:
 Root      1 :     1.675356793249663   Change is   -0.000024234315566
[...]
 Alpha virt. eigenvalues --    1.83472   1.83838   1.83847   1.84104   1.84157
 Alpha virt. eigenvalues --    1.84481   1.84529   1.84742   1.84890   1.85080
 Alpha virt. eigenvalues --    1.85182   1.85305   1.85354   1.85443   1.85567
 Alpha virt. eigenvalues --    1.85854   1.85947   1.86337   1.86440   1.86606
 Alpha virt. eigenvalues --    1.86636   1.86779   1.86862   1.86996   1.87116
 Alpha virt. eigenvalues --    1.87436   1.87524   1.87724   1.87758   1.87947
 Alpha virt. eigenvalues --    1.87968   1.88119   1.88132   1.88527   1.88616
 Alpha virt. eigenvalues --    1.88891   1.88901   1.89025   1.89204   1.89615
 Alpha virt. eigenvalues --    1.89707   1.89827   1.89832   1.90143   1.90198
 Alpha virt. eigenvalues --    1.90830   1.90846   1.91378   1.91427   1.91518
 Alpha virt. eigenvalues --    1.91542   1.92134   1.92232   1.92613   1.92704
 Alpha virt. eigenvalues --    1.93061   1.93102   1.93417   1.93455   1.94262
 Alpha virt. eigenvalues --    1.94361   1.94768   1.94768   1.95545   1.95553
 Alpha virt. eigenvalues --    1.95764   1.95805   1.96000   1.96073   1.96124
 Alpha virt. eigenvalues --    1.96231   1.96434   1.96673   1.96888   1.96978
 Alpha virt. eigenvalues --    1.97493   1.97528   1.97752   1.97913   1.98117
 Alpha virt. eigenvalues --    1.98248   1.98299   1.98751   1.99023   1.99213
 Alpha virt. eigenvalues --    1.99882   1.99899   2.00676   2.00738   2.01046
 Alpha virt. eigenvalues --    2.01074   2.01459   2.01558   2.01558   2.01752
 Alpha virt. eigenvalues --    2.01774   2.01797   2.02661   2.02864   2.03091
 Alpha virt. eigenvalues --    2.03313   2.03329   2.03470   2.03482   2.03561
 Alpha virt. eigenvalues --    2.03976   2.04113   2.04928   2.05038   2.05581
 Alpha virt. eigenvalues --    2.05593   2.06158   2.06238   2.06979   2.06981
 Alpha virt. eigenvalues --    2.07260   2.07296   2.08508   2.08667   2.08954
 Alpha virt. eigenvalues --    2.09060   2.09562   2.09668   2.10857   2.10984
 Alpha virt. eigenvalues --    2.11261   2.11356   2.11481   2.11616   2.11806
 Alpha virt. eigenvalues --    2.11815   2.12414   2.12543   2.12751   2.12817
 Alpha virt. eigenvalues --    2.12883   2.12912   2.13578   2.13844   2.14201
 Alpha virt. eigenvalues --    2.14214   2.15357   2.15414   2.16002   2.16028
 Alpha virt. eigenvalues --    2.16541   2.16600   2.16830   2.17119   2.17494
 Alpha virt. eigenvalues --    2.17598   2.17782   2.17880   2.17952   2.18147
 Alpha virt. eigenvalues --    2.18401   2.18619   2.18944   2.19181   2.19718
 Alpha virt. eigenvalues --    2.19766   2.20116   2.20189   2.20287   2.20386
 Alpha virt. eigenvalues --    2.21122   2.21229   2.21711   2.21748   2.21820
 Alpha virt. eigenvalues --    2.21822   2.22649   2.22757   2.23288   2.23390
 Alpha virt. eigenvalues --    2.24366   2.24472   2.24954   2.25037   2.26375
 Alpha virt. eigenvalues --    2.26386   2.26856   2.26955   2.27148   2.27178
 Alpha virt. eigenvalues --    2.28214   2.28260   2.29345   2.29383   2.29811
 Alpha virt. eigenvalues --    2.29824   2.30531   2.30566   2.30770   2.31146
 Alpha virt. eigenvalues --    2.31158   2.31255   2.32187   2.32198   2.33180
 Alpha virt. eigenvalues --    2.33211   2.33428   2.33538   2.34086   2.34215
 Alpha virt. eigenvalues --    2.35242   2.35444   2.35854   2.35872   2.36278
 Alpha virt. eigenvalues --    2.36395   2.36429   2.36700   2.37622   2.37734
 Alpha virt. eigenvalues --    2.38329   2.38336   2.38726   2.38932   2.39612
 Alpha virt. eigenvalues --    2.39687   2.40211   2.40258   2.40561   2.40771
 Alpha virt. eigenvalues --    2.41156   2.41343   2.41639   2.41763   2.42069
 Alpha virt. eigenvalues --    2.42113   2.42767   2.43009   2.43020   2.43605
 Alpha virt. eigenvalues --    2.43920   2.44244   2.44748   2.44806   2.44929
 Alpha virt. eigenvalues --    2.44979   2.45512   2.45621   2.46228   2.46378
 Alpha virt. eigenvalues --    2.46437   2.46552   2.46739   2.46874   2.47317
 Alpha virt. eigenvalues --    2.47327   2.47788   2.47826   2.49335   2.49386
 Alpha virt. eigenvalues --    2.49834   2.50144   2.50398   2.50626   2.51194
 Alpha virt. eigenvalues --    2.51204   2.51551   2.51961   2.52335   2.52513
 Alpha virt. eigenvalues --    2.52883   2.53100   2.53908   2.53993   2.54225
 Alpha virt. eigenvalues --    2.54227   2.54743   2.54862   2.55594   2.55603
 Alpha virt. eigenvalues --    2.57939   2.58015   2.58717   2.58838   2.60233
 Alpha virt. eigenvalues --    2.60279   2.60686   2.60857   2.61756   2.61785
 Alpha virt. eigenvalues --    2.62364   2.62606   2.63028   2.63058   2.64009
 Alpha virt. eigenvalues --    2.64151   2.64318   2.64359   2.65031   2.65152
 Alpha virt. eigenvalues --    2.65793   2.65860   2.66753   2.66851   2.66983
 Alpha virt. eigenvalues --    2.66987   2.67911   2.67982   2.68751   2.68931
 Alpha virt. eigenvalues --    2.68961   2.69095   2.69463   2.69523   2.70067
 Alpha virt. eigenvalues --    2.70071   2.70996   2.71052   2.71822   2.72126
 Alpha virt. eigenvalues --    2.72419   2.72661   2.72725   2.72897   2.73216
 Alpha virt. eigenvalues --    2.73349   2.73394   2.73602   2.74434   2.74583
 Alpha virt. eigenvalues --    2.74981   2.75047   2.76446   2.76663   2.76990
 Alpha virt. eigenvalues --    2.77303   2.77530   2.77533   2.78225   2.78266
 Alpha virt. eigenvalues --    2.78615   2.78801   2.79081   2.79207   2.80193
 Alpha virt. eigenvalues --    2.80419   2.80612   2.80660   2.81074   2.81186
 Alpha virt. eigenvalues --    2.81911   2.82006   2.82257   2.82413   2.83773
 Alpha virt. eigenvalues --    2.83823   2.83825   2.83841   2.84450   2.84617
 Alpha virt. eigenvalues --    2.84807   2.84955   2.85617   2.85742   2.86581
 Alpha virt. eigenvalues --    2.87067   2.87094   2.87676   2.88163   2.88230
 Alpha virt. eigenvalues --    2.88536   2.88578   2.88792   2.89006   2.90569
 Alpha virt. eigenvalues --    2.90580   2.90989   2.91260   2.93226   2.93241
 Alpha virt. eigenvalues --    2.93691   2.94272   2.94495   2.94632   2.95392
 Alpha virt. eigenvalues --    2.95439   2.95757   2.96271   2.96295   2.96513
 Alpha virt. eigenvalues --    2.96789   2.97247   2.97887   2.97954   2.98275
 Alpha virt. eigenvalues --    2.98282   2.98436   2.98492   2.98670   2.98695
 Alpha virt. eigenvalues --    2.98841   2.98955   2.99660   2.99723   2.99934
 Alpha virt. eigenvalues --    3.00103   3.00258   3.00292   3.00532   3.00910
 Alpha virt. eigenvalues --    3.01821   3.02035   3.02061   3.02106   3.02741
 Alpha virt. eigenvalues --    3.02803   3.03049   3.03238   3.03402   3.03625
 Alpha virt. eigenvalues --    3.03970   3.04242   3.04350   3.04519   3.04620
 Alpha virt. eigenvalues --    3.04643   3.05271   3.05368   3.06081   3.06185
 Alpha virt. eigenvalues --    3.06854   3.06876   3.07843   3.08220   3.09277
 Alpha virt. eigenvalues --    3.09475   3.09766   3.10350   3.10515   3.10656
 Alpha virt. eigenvalues --    3.11398   3.11403   3.11818   3.12015   3.12221
 Alpha virt. eigenvalues --    3.12249   3.13356   3.13566   3.13607   3.13714
 Alpha virt. eigenvalues --    3.14162   3.14389   3.15908   3.15995   3.17336
 Alpha virt. eigenvalues --    3.17434   3.17800   3.18155   3.18950   3.19202
 Alpha virt. eigenvalues --    3.22376   3.22512   3.24021   3.24354   3.24746
 Alpha virt. eigenvalues --    3.25107   3.26572   3.26578   3.27310   3.27695
 Alpha virt. eigenvalues --    3.29137   3.29171   3.31294   3.31599   3.33101
 Alpha virt. eigenvalues --    3.33493   3.40175   3.40701   3.42738   3.42894
 Alpha virt. eigenvalues --    3.48611   3.48732   3.50097   3.50197   3.50752
 Alpha virt. eigenvalues --    3.51550   3.56627   3.56922   3.59175   3.59256
 Alpha virt. eigenvalues --    3.62430   3.62912   3.66037   3.66265   3.67257
 Alpha virt. eigenvalues --    3.67457   3.73343   3.73935   3.76128   3.76593
          Condensed to atoms (all electrons):
 Mulliken charges:
               1
     1  Mg   0.838875
     2  C   -0.002964
     3  C   -0.094096
     4  C   -0.045874
     5  C   -0.063977
     6  N   -0.256802
     7  C   -0.052467
     8  C   -0.014007
     9  C   -0.087027
    10  C    0.046350
    11  C    0.104821
    12  C    0.053471
    13  C   -0.071818
    14  H    0.036148
    15  N   -0.433156
    16  C    0.168439
    17  C   -0.177122
    18  C   -0.003981
    19  C    0.148737
    20  C    0.110170
    21  C    0.012322
    22  O   -0.249606
    23  C    0.062456
    24  N   -0.341160
    25  C    0.041244
    26  C   -0.028159
    27  C   -0.023971
    28  C    0.074847
    29  C    0.076174
    30  C    0.035131
    31  C   -0.004504
    32  N   -0.310471
    33  C    0.080424
    34  C   -0.169732
    35  C    0.008324
    36  C    0.082979
    37  C    0.127313
    38  C    0.046096
    39  O   -0.188523
    40  C   -0.005344
    41  C    0.212858
    42  O   -0.257061
    43  O   -0.304812
    44  C    0.157701
    45  H   -0.017606
    46  H   -0.016824
    47  H   -0.041528
    48  H    0.000894
    49  H   -0.004008
    50  H    0.025437
    51  H    0.016436
    52  H    0.016637
    53  H    0.011267
    54  H    0.044137
    55  H    0.017814
    56  H    0.017984
    57  H    0.005872
    58  H    0.026815
    59  H    0.039655
    60  H    0.037318
    61  H    0.035705
    62  H    0.031591
    63  H    0.016592
    64  H    0.009409
    65  H    0.023215
    66  H    0.012526
    67  H    0.004709
    68  H    0.006349
    69  H    0.004691
    70  H    0.008820
    71  H    0.018166
    72  H    0.029007
    73  H    0.047538
    74  H    0.009097
    75  H    0.045947
    76  H    0.035101
    77  H    0.042876
    78  H    0.046416
    79  H    0.053699
    80  Mg   0.837948
    81  C   -0.016835
    82  C   -0.087775
    83  C   -0.045500
    84  C   -0.064896
    85  N   -0.254583
    86  C   -0.049864
    87  C   -0.015078
    88  C   -0.090513
    89  C    0.045774
    90  C    0.114376
    91  C    0.062520
    92  C   -0.077917
    93  H    0.034926
    94  N   -0.423505
    95  C    0.162943
    96  C   -0.174590
    97  C   -0.007774
    98  C    0.152127
    99  C    0.099357
   100  C    0.015614
   101  O   -0.253140
   102  C    0.061166
   103  N   -0.350081
   104  C    0.037520
   105  C   -0.019824
   106  C   -0.034817
   107  C    0.088927
   108  C    0.073654
   109  C    0.034729
   110  C   -0.007685
   111  N   -0.324106
   112  C    0.078453
   113  C   -0.163151
   114  C    0.002209
   115  C    0.096200
   116  C    0.131486
   117  C    0.042367
   118  O   -0.187930
   119  C    0.000914
   120  C    0.211243
   121  O   -0.250976
   122  O   -0.305644
   123  C    0.152034
   124  H   -0.019639
   125  H   -0.015536
   126  H   -0.040478
   127  H   -0.000679
   128  H   -0.004289
   129  H    0.022428
   130  H    0.014416
   131  H    0.016289
   132  H    0.013976
   133  H    0.037689
   134  H    0.020750
   135  H    0.019634
   136  H    0.008771
   137  H    0.026165
   138  H    0.039905
   139  H    0.038249
   140  H    0.036478
   141  H    0.033978
   142  H    0.014451
   143  H    0.012382
   144  H    0.025175
   145  H    0.011621
   146  H    0.005644
   147  H    0.006277
   148  H    0.003626
   149  H    0.010982
   150  H    0.017969
   151  H    0.030109
   152  H    0.045990
   153  H    0.008512
   154  H    0.046891
   155  H    0.034990
   156  H    0.043865
   157  H    0.049514
   158  H    0.053590
 Sum of Mulliken charges =  -0.00000
 Mulliken charges with hydrogens summed into heavy atoms:
               1
     1  Mg   0.838875
     2  C   -0.002964
     3  C   -0.111702
     4  C   -0.062698
     5  C   -0.105506
     6  N   -0.256802
     7  C   -0.052467
     8  C   -0.013113
     9  C   -0.091035
    10  C    0.046350
    11  C    0.163331
    12  C    0.108876
    13  C    0.000129
    15  N   -0.433156
    16  C    0.168439
    17  C   -0.177122
    18  C   -0.003981
    19  C    0.148737
    20  C    0.182511
    21  C    0.012322
    22  O   -0.249606
    23  C    0.167071
    24  N   -0.341160
    25  C    0.041244
    26  C   -0.011567
    27  C   -0.014562
    28  C    0.074847
    29  C    0.116625
    30  C    0.046170
    31  C    0.051488
    32  N   -0.310471
    33  C    0.080424
    34  C   -0.169732
    35  C    0.008324
    36  C    0.082979
    37  C    0.229895
    38  C    0.046096
    39  O   -0.188523
    40  C    0.029757
    41  C    0.212858
    42  O   -0.257061
    43  O   -0.304812
    44  C    0.300693
    80  Mg   0.837948
    81  C   -0.016835
    82  C   -0.107414
    83  C   -0.061036
    84  C   -0.105373
    85  N   -0.254583
    86  C   -0.049864
    87  C   -0.015756
    88  C   -0.094802
    89  C    0.045774
    90  C    0.167510
    91  C    0.114184
    92  C   -0.002607
    94  N   -0.423505
    95  C    0.162943
    96  C   -0.174590
    97  C   -0.007774
    98  C    0.152127
    99  C    0.174198
   100  C    0.015614
   101  O   -0.253140
   102  C    0.169870
   103  N   -0.350081
   104  C    0.037520
   105  C   -0.005373
   106  C   -0.022436
   107  C    0.088927
   108  C    0.116095
   109  C    0.044631
   110  C    0.051375
   111  N   -0.324106
   112  C    0.078453
   113  C   -0.163151
   114  C    0.002209
   115  C    0.096200
   116  C    0.232879
   117  C    0.042367
   118  O   -0.187930
   119  C    0.035904
   120  C    0.211243
   121  O   -0.250976
   122  O   -0.305644
   123  C    0.299003
 Electronic spatial extent (au):  <R**2>=         619376.0007
 Charge=             -0.0000 electrons
 Dipole moment (field-independent basis, Debye):
    X=              0.0602    Y=              3.1493    Z=             -0.2333  Tot=              3.1585
 Quadrupole moment (field-independent basis, Debye-Ang):
   XX=           -393.6707   YY=           -460.0875   ZZ=           -539.1921
   XY=              1.3847   XZ=            117.2802   YZ=              0.2457
 Traceless Quadrupole moment (field-independent basis, Debye-Ang):
   XX=             70.6460   YY=              4.2293   ZZ=            -74.8753
   XY=              1.3847   XZ=            117.2802   YZ=              0.2457
 Octapole moment (field-independent basis, Debye-Ang**2):
  XXX=             43.4516  YYY=            233.9093  ZZZ=             -4.9696  XYY=            -10.1547
  XXY=            932.0973  XXZ=            -66.8668  XZZ=              7.6978  YZZ=            102.7207
  YYZ=             -0.2404  XYZ=            960.9563
 Hexadecapole moment (field-independent basis, Debye-Ang**3):
 XXXX=        -730962.3361 YYYY=         -32880.5246 ZZZZ=         -32557.7888 XXXY=            800.9741
 XXXZ=          28249.1777 YYYX=             15.7156 YYYZ=             26.6067 ZZZX=           6166.6871
 ZZZY=             10.8793 XXYY=        -123924.7261 XXZZ=        -142861.8231 YYZZ=         -11495.4104
 XXYZ=            109.4077 YYXZ=          -4040.1785 ZZXY=            -34.5350
 N-N= 1.229876997568D+04 E-N=-3.407849319376D+04  KE= 4.028802082249D+03
 Leave Link  601 at Sun Sep 12 12:44:40 2021, MaxMem= 23488102400 cpu:              15.9 elap:               0.8
 (Enter /sw/apps/gaussian-16.0/g16/l9999.exe)
 1\1\GINC-BP1-COMPUTE00082\SP\RCAM-B3LYP TD-FC\def2SVP\C68H72Mg2N8O8\OF
 15641\12-Sep-2021\0\\#p cam-b3lyp/Def2SVP td=(nstates=5)\\TDDFT excite
 d states in gaussian\\0,1\Mg,0,0.,0.,0.\C,0,-0.217,-2.218,2.801\C,0,-1
 .255,2.442,2.026\C,0,-0.245,1.85,-2.564\C,0,0.146,-2.824,-2.037\N,0,-0
 .617,-0.009,2.126\C,0,-0.594,-0.908,3.105\C,0,-0.936,-0.309,4.502\C,0,
 -1.773,0.964,4.032\C,0,-1.155,1.168,2.66\C,0,-3.263,0.685,3.863\C,0,0.
 345,0.11,5.299\C,0,0.124,0.397,6.787\H,0,1.168,0.033,7.733\N,0,-0.185,
 1.961,-0.152\C,0,-0.703,2.8,0.777\C,0,-0.62,4.156,0.193\C,0,-0.187,4.0
 15,-1.225\C,0,-0.214,2.583,-1.38\C,0,-0.887,5.406,0.974\C,0,0.181,5.01
 3,-2.277\O,0,0.303,4.69,-3.508\C,0,0.31,6.414,-1.837\N,0,-0.265,-0.413
 ,-2.029\C,0,-0.279,0.569,-2.937\C,0,-0.196,0.024,-4.332\C,0,0.124,-1.5
 33,-4.18\C,0,0.086,-1.632,-2.635\C,0,-1.451,0.205,-5.197\C,0,1.373,-2.
 07,-4.923\C,0,2.626,-1.49,-4.306\N,0,0.15,-2.144,0.303\C,0,0.173,-3.13
 6,-0.688\C,0,0.173,-4.438,0.004\C,0,0.133,-4.111,1.358\C,0,0.083,-2.69
 5,1.502\C,0,0.149,-5.715,-0.623\C,0,0.096,-4.629,2.716\O,0,0.208,-5.74
 7,3.221\C,0,-0.255,-3.428,3.701\C,0,0.717,-3.482,4.848\O,0,1.931,-3.25
 5,4.669\O,0,0.038,-3.556,6.003\C,0,0.943,-3.583,7.183\H,0,-1.859,3.22,
 2.497\H,0,-0.218,2.453,-3.474\H,0,0.276,-3.747,-2.605\H,0,-1.554,-0.94
 9,5.132\H,0,-1.585,1.831,4.665\H,0,-3.484,-0.377,3.969\H,0,-3.511,1.02
 7,2.858\H,0,-3.852,1.301,4.543\H,0,0.669,1.096,4.966\H,0,1.13,-0.639,5
 .189\H,0,-0.844,0.026,7.125\H,0,0.062,1.477,6.921\H,0,-1.344,5.186,1.9
 38\H,0,-1.651,5.963,0.432\H,0,0.007,6.02,1.084\H,0,-0.635,6.744,-1.405
 \H,0,0.665,6.97,-2.704\H,0,1.048,6.466,-1.036\H,0,0.608,0.501,-4.891\H
 ,0,-0.692,-2.156,-4.547\H,0,-1.267,0.74,-6.129\H,0,-2.204,0.714,-4.596
 \H,0,-1.967,-0.72,-5.453\H,0,1.356,-1.759,-5.967\H,0,1.452,-3.157,-4.9
 02\H,0,2.714,-0.522,-4.798\H,0,3.487,-2.121,-4.529\H,0,2.495,-1.303,-3
 .24\H,0,0.867,-6.333,-0.084\H,0,0.404,-5.642,-1.68\H,0,-0.891,-5.999,-
 0.463\H,0,-1.283,-3.581,4.028\H,0,0.698,-4.478,7.755\H,0,0.833,-2.619,
 7.68\H,0,2.,-3.754,6.976\Mg,0,31.52522,2.83499,2.40196\C,0,31.23228,5.
 55546,4.72409\C,0,32.45748,0.8815,5.03812\C,0,32.22629,0.54044,0.32567
 \C,0,31.69099,5.20879,-0.14428\N,0,31.77495,3.276,4.55496\C,0,31.57571
 ,4.32994,5.33204\C,0,31.67609,4.03588,6.8529\C,0,32.60785,2.72975,6.78
 429\C,0,32.23675,2.2379,5.38678\C,0,34.09354,3.04887,6.79945\C,0,30.28
 025,3.71275,7.49262\C,0,30.25695,3.71986,9.0227\H,0,29.05621,4.2039,9.
 69828\N,0,31.75976,0.88337,2.67536\C,0,32.11926,0.25897,3.81648\C,0,32
 .17181,-1.17477,3.49122\C,0,31.97467,-1.33052,2.02439\C,0,32.00058,0.0
 5675,1.60616\C,0,32.31241,-2.24191,4.53757\C,0,31.80531,-2.53023,1.142
 22\O,0,31.88691,-2.44447,-0.13403\C,0,31.63416,-3.82353,1.82013\N,0,32
 .11601,2.86923,0.40894\C,0,32.30494,1.72759,-0.27583\C,0,32.45492,1.99
 668,-1.75417\C,0,32.08446,3.54009,-1.94967\C,0,31.86109,3.93567,-0.473
 52\C,0,33.83992,1.72757,-2.34217\C,0,30.97065,3.87142,-2.98037\C,0,29.
 63942,3.35264,-2.48633\N,0,31.29002,4.97771,2.25539\C,0,31.42645,5.773
 53,1.09688\C,0,31.28864,7.1828,1.51805\C,0,31.10309,7.10976,2.90683\C,
 0,31.14396,5.75211,3.32471\C,0,31.3889,8.31909,0.66663\C,0,30.89255,7.
 87313,4.11582\O,0,30.68693,9.05935,4.36945\C,0,31.09313,6.90911,5.3635
 4\C,0,29.94077,7.12356,6.30619\O,0,28.78317,6.81894,5.9689\O,0,30.4197
 4,7.44692,7.52126\C,0,29.3148,7.65877,8.49391\H,0,32.97721,0.24058,5.7
 5085\H,0,32.3632,-0.2188,-0.44782\H,0,31.6329,6.00244,-0.89222\H,0,32.
 16296,4.80983,7.43404\H,0,32.31909,1.99869,7.53497\H,0,34.27818,4.1108
 7,6.73448\H,0,34.51274,2.53882,5.94204\H,0,34.56648,2.60042,7.67783\H,
 0,30.03609,2.65906,7.30588\H,0,29.52602,4.37639,7.11665\H,0,31.15245,4
 .19051,9.4464\H,0,30.30487,2.68671,9.37529\H,0,32.60232,-1.81876,5.507
 26\H,0,33.16557,-2.86436,4.24684\H,0,31.42498,-2.87344,4.61702\H,0,32.
 4947,-4.01409,2.45703\H,0,31.43905,-4.54639,1.0256\H,0,30.76198,-3.759
 77,2.48032\H,0,31.76296,1.39363,-2.32916\H,0,32.94626,4.12419,-2.30458
 \H,0,33.82541,1.00593,-3.18068\H,0,34.48516,1.37527,-1.54839\H,0,34.37
 041,2.60962,-2.6968\H,0,31.16882,3.36479,-3.92811\H,0,30.8815,4.93128,
 -3.19425\H,0,29.65694,2.30113,-2.78817\H,0,28.81958,3.88643,-2.96276\H
 ,0,29.58783,3.38056,-1.39171\H,0,30.58835,8.99037,0.94773\H,0,31.32257
 ,8.03716,-0.38212\H,0,32.38746,8.67532,0.93356\H,0,32.04982,7.16181,5.
 82231\H,0,29.44855,8.65941,8.91642\H,0,29.36637,6.80484,9.19527\H,0,28
 .30734,7.72816,8.10066\\Version=ES64L-G16RevA.03\State=1-A\HF=-4069.81
 17709\RMSD=4.735e-09\PG=C01 [X(C68H72Mg2N8O8)]\\@


 TO ERR IS HUMAN - AND TO BLAME IT ON A COMPUTER IS EVEN MORE SO.
 Job cpu time:       0 days 10 hours 27 minutes  0.3 seconds.
 Elapsed time:       0 days  0 hours 26 minutes 42.2 seconds.
 File lengths (MBytes):  RWF=  13225 Int=      0 D2E=      0 Chk=    574 Scr=      1
 Normal termination of Gaussian 16 at Sun Sep 12 12:44:41 2021.
