 Entering Gaussian System, Link 0=g16
 Initial command:
 /sw/apps/gaussian-16.0/g16/l1.exe "/tmp/Gau-50095.inp" -scrdir="/tmp/"
 Entering Link 1 = /sw/apps/gaussian-16.0/g16/l1.exe PID=     50096.
  
 Copyright (c) 1988,1990,1992,1993,1995,1998,2003,2009,2016,
            Gaussian, Inc.  All Rights Reserved.
  
 This is part of the Gaussian(R) 16 program.  It is based on
 the Gaussian(R) 09 system (copyright 2009, Gaussian, Inc.),
 the Gaussian(R) 03 system (copyright 2003, Gaussian, Inc.),
 the Gaussian(R) 98 system (copyright 1998, Gaussian, Inc.),
 the Gaussian(R) 94 system (copyright 1995, Gaussian, Inc.),
 the Gaussian 92(TM) system (copyright 1992, Gaussian, Inc.),
 the Gaussian 90(TM) system (copyright 1990, Gaussian, Inc.),
 the Gaussian 88(TM) system (copyright 1988, Gaussian, Inc.),
 the Gaussian 86(TM) system (copyright 1986, Carnegie Mellon
 University), and the Gaussian 82(TM) system (copyright 1983,
 Carnegie Mellon University). Gaussian is a federally registered
 trademark of Gaussian, Inc.
  
 This software contains proprietary and confidential information,
 including trade secrets, belonging to Gaussian, Inc.
  
 This software is provided under written license and may be
 used, copied, transmitted, or stored only in accord with that
 written license.
  
 The following legend is applicable only to US Government
 contracts under FAR:
  
                    RESTRICTED RIGHTS LEGEND
  
 Use, reproduction and disclosure by the US Government is
 subject to restrictions as set forth in subparagraphs (a)
 and (c) of the Commercial Computer Software - Restricted
 Rights clause in FAR 52.227-19.
  
 Gaussian, Inc.
 340 Quinnipiac St., Bldg. 40, Wallingford CT 06492
  
  
 ---------------------------------------------------------------
 Warning -- This program may not be used in any manner that
 competes with the business of Gaussian, Inc. or will provide
 assistance to any competitor of Gaussian, Inc.  The licensee
 of this program is prohibited from giving any competitor of
 Gaussian, Inc. access to this program.  By using this program,
 the user acknowledges that Gaussian, Inc. is engaged in the
 business of creating and licensing software in the field of
 computational chemistry and represents and warrants to the
 licensee that it is not a competitor of Gaussian, Inc. and that
 it will not use this program in any manner prohibited above.
 ---------------------------------------------------------------
  

 Cite this work as:
 Gaussian 16, Revision A.03,
 M. J. Frisch, G. W. Trucks, H. B. Schlegel, G. E. Scuseria, 
 M. A. Robb, J. R. Cheeseman, G. Scalmani, V. Barone, 
 G. A. Petersson, H. Nakatsuji, X. Li, M. Caricato, A. V. Marenich, 
 J. Bloino, B. G. Janesko, R. Gomperts, B. Mennucci, H. P. Hratchian, 
 J. V. Ortiz, A. F. Izmaylov, J. L. Sonnenberg, D. Williams-Young, 
 F. Ding, F. Lipparini, F. Egidi, J. Goings, B. Peng, A. Petrone, 
 T. Henderson, D. Ranasinghe, V. G. Zakrzewski, J. Gao, N. Rega, 
 G. Zheng, W. Liang, M. Hada, M. Ehara, K. Toyota, R. Fukuda, 
 J. Hasegawa, M. Ishida, T. Nakajima, Y. Honda, O. Kitao, H. Nakai, 
 T. Vreven, K. Throssell, J. A. Montgomery, Jr., J. E. Peralta, 
 F. Ogliaro, M. J. Bearpark, J. J. Heyd, E. N. Brothers, K. N. Kudin, 
 V. N. Staroverov, T. A. Keith, R. Kobayashi, J. Normand, 
 K. Raghavachari, A. P. Rendell, J. C. Burant, S. S. Iyengar, 
 J. Tomasi, M. Cossi, J. M. Millam, M. Klene, C. Adamo, R. Cammi, 
 J. W. Ochterski, R. L. Martin, K. Morokuma, O. Farkas, 
 J. B. Foresman, and D. J. Fox, Gaussian, Inc., Wallingford CT, 2016.
 
 ******************************************
 Gaussian 16:  ES64L-G16RevA.03 25-Dec-2016
                 9-Sep-2021 
 ******************************************
 %nproc=24
 Will use up to   24 processors via shared memory.
 %mem=175gb
 -----------------------------------
 #p cam-b3lyp/Def2SVP td=(nstates=5)
 -----------------------------------
 1/38=1,172=1/1;
 2/12=2,17=6,18=5,40=1/2;
 3/5=43,7=101,11=9,25=1,30=1,74=-40/1,2,3,8;
 4//1;
 5/5=2,38=5/2;
 8/6=1,10=1,108=5/1;
 9/41=5,42=1,70=2/14;
 6/7=2,8=2,9=2,10=2/1;
 99/5=1,9=1/99;
 Leave Link    1 at Thu Sep  9 16:50:24 2021, MaxMem= 23488102400 cpu:               0.5 elap:               0.0
 (Enter /sw/apps/gaussian-16.0/g16/l101.exe)
 --------------------------------
 TDDFT excited states in gaussian
 --------------------------------
 Symbolic Z-matrix:
 Charge =  0 Multiplicity = 1
 Mg                    0.        0.        0. 
 C                    -0.217    -2.218     2.801 
 C                    -1.255     2.442     2.026 
 C                    -0.245     1.85     -2.564 
 C                     0.146    -2.824    -2.037 
 N                    -0.617    -0.009     2.126 
 C                    -0.594    -0.908     3.105 
 C                    -0.936    -0.309     4.502 
 C                    -1.773     0.964     4.032 
 C                    -1.155     1.168     2.66 
 C                    -3.263     0.685     3.863 
 C                     0.345     0.11      5.299 
 C                     0.124     0.397     6.787 
 H                     1.168     0.033     7.733 
 N                    -0.185     1.961    -0.152 
 C                    -0.703     2.8       0.777 
 C                    -0.62      4.156     0.193 
 C                    -0.187     4.015    -1.225 
 C                    -0.214     2.583    -1.38 
 C                    -0.887     5.406     0.974 
 C                     0.181     5.013    -2.277 
 O                     0.303     4.69     -3.508 
 C                     0.31      6.414    -1.837 
 N                    -0.265    -0.413    -2.029 
 C                    -0.279     0.569    -2.937 
 C                    -0.196     0.024    -4.332 
 C                     0.124    -1.533    -4.18 
 C                     0.086    -1.632    -2.635 
 C                    -1.451     0.205    -5.197 
 C                     1.373    -2.07     -4.923 
 C                     2.626    -1.49     -4.306 
 N                     0.15     -2.144     0.303 
 C                     0.173    -3.136    -0.688 
 C                     0.173    -4.438     0.004 
 C                     0.133    -4.111     1.358 
 C                     0.083    -2.695     1.502 
 C                     0.149    -5.715    -0.623 
 C                     0.096    -4.629     2.716 
 O                     0.208    -5.747     3.221 
 C                    -0.255    -3.428     3.701 
 C                     0.717    -3.482     4.848 
 O                     1.931    -3.255     4.669 
 O                     0.038    -3.556     6.003 
 C                     0.943    -3.583     7.183 
 H                    -1.859     3.22      2.497 
 H                    -0.218     2.453    -3.474 
 H                     0.276    -3.747    -2.605 
 H                    -1.554    -0.949     5.132 
 H                    -1.585     1.831     4.665 
 H                    -3.484    -0.377     3.969 
 H                    -3.511     1.027     2.858 
 H                    -3.852     1.301     4.543 
 H                     0.669     1.096     4.966 
 H                     1.13     -0.639     5.189 
 H                    -0.844     0.026     7.125 
 H                     0.062     1.477     6.921 
 H                    -1.344     5.186     1.938 
 H                    -1.651     5.963     0.432 
 H                     0.007     6.02      1.084 
 H                    -0.635     6.744    -1.405 
 H                     0.665     6.97     -2.704 
 H                     1.048     6.466    -1.036 
 H                     0.608     0.501    -4.891 
 H                    -0.692    -2.156    -4.547 
 H                    -1.267     0.74     -6.129 
 H                    -2.204     0.714    -4.596 
 H                    -1.967    -0.72     -5.453 
 H                     1.356    -1.759    -5.967 
 H                     1.452    -3.157    -4.902 
 H                     2.714    -0.522    -4.798 
 H                     3.487    -2.121    -4.529 
 H                     2.495    -1.303    -3.24 
 H                     0.867    -6.333    -0.084 
 H                     0.404    -5.642    -1.68 
 H                    -0.891    -5.999    -0.463 
 H                    -1.283    -3.581     4.028 
 H                     0.698    -4.478     7.755 
 H                     0.833    -2.619     7.68 
 H                     2.       -3.754     6.976 
 Mg                    8.92688   0.80052   0.68531 
 C                     8.63395   3.52098   3.00744 
 C                     9.85915  -1.15297   3.32147 
 C                     9.62796  -1.49403  -1.39098 
 C                     9.09266   3.17432  -1.86093 
 N                     9.17662   1.24152   2.83831 
 C                     8.97737   2.29546   3.61538 
 C                     9.07776   2.00141   5.13624 
 C                     10.00952   0.69527   5.06764 
 C                     9.63842   0.20343   3.67013 
 C                     11.49521   1.0144    5.0828 
 C                     7.68192   1.67828   5.77597 
 C                     7.65862   1.68538   7.30605 
 H                     6.45788   2.16942   7.98163 
 N                     9.16142  -1.1511    0.95871 
 C                     9.52093  -1.7755    2.09983 
 C                     9.57347  -3.20924   1.77457 
 C                     9.37633  -3.36499   0.30774 
 C                     9.40225  -1.97773  -0.11049 
 C                     9.71408  -4.27638   2.82092 
 C                     9.20697  -4.5647   -0.57443 
 O                     9.28857  -4.47895  -1.85068 
 C                     9.03583  -5.85801   0.10348 
 N                     9.51768   0.83475  -1.30771 
 C                     9.70661  -0.30688  -1.99248 
 C                     9.85659  -0.0378   -3.47082 
 C                     9.48613   1.50562  -3.66632 
 C                     9.26275   1.9012   -2.19017 
 C                     11.24159  -0.3069   -4.05882 
 C                     8.37232   1.83695  -4.69702 
 C                     7.04108   1.31817  -4.20299 
 N                     8.69169   2.94324   0.53874 
 C                     8.82812   3.73905  -0.61977 
 C                     8.69031   5.14833  -0.1986 
 C                     8.50475   5.07529   1.19018 
 C                     8.54563   3.71764   1.60806 
 C                     8.79057   6.28462  -1.05002 
 C                     8.29422   5.83866   2.39917 
 O                     8.0886    7.02488   2.6528 
 C                     8.4948    4.87463   3.64689 
 C                     7.34244   5.08909   4.58954 
 O                     6.18484   4.78446   4.25225 
 O                     7.82141   5.41245   5.80461 
 C                     6.71647   5.62429   6.77726 
 H                     10.37887  -1.7939    4.0342 
 H                     9.76487  -2.25327  -2.16447 
 H                     9.03457   3.96797  -2.60887 
 H                     9.56463   2.77536   5.71739 
 H                     9.72075  -0.03579   5.81832 
 H                     11.67985   2.07639   5.01783 
 H                     11.91441   0.50434   4.22538 
 H                     11.96815   0.56594   5.96118 
 H                     7.43776   0.62459   5.58923 
 H                     6.92769   2.34192   5.4 
 H                     8.55411   2.15604   7.72975 
 H                     7.70654   0.65223   7.65864 
 H                     10.00399  -3.85323   3.79061 
 H                     10.56724  -4.89884   2.53019 
 H                     8.82665  -4.90792   2.90037 
 H                     9.89636  -6.04857   0.74038 
 H                     8.84072  -6.58086  -0.69105 
 H                     8.16365  -5.79424   0.76367 
 H                     9.16462  -0.64085  -4.04581 
 H                     10.34793   2.08971  -4.02123 
 H                     11.22708  -1.02855  -4.89733 
 H                     11.88683  -0.65921  -3.26505 
 H                     11.77208   0.57515  -4.41345 
 H                     8.57049   1.33032  -5.64476 
 H                     8.28317   2.89681  -4.9109 
 H                     7.0586    0.26666  -4.50482 
 H                     6.22125   1.85196  -4.67941 
 H                     6.9895    1.34609  -3.10836 
 H                     7.99002   6.95589  -0.76892 
 H                     8.72424   6.00269  -2.09878 
 H                     9.78912   6.64085  -0.78309 
 H                     9.45148   5.12734   4.10566 
 H                     6.85021   6.62494   7.19977 
 H                     6.76804   4.77036   7.47862 
 H                     5.70901   5.69368   6.38401 
 
 ITRead=  0  0  0  0  0  0  0  0  0  0  0  0  0  0  0  0  0  0  0  0
 ITRead=  0  0  0  0  0  0  0  0  0  0  0  0  0  0  0  0  0  0  0  0
 ITRead=  0  0  0  0  0  0  0  0  0  0  0  0  0  0  0  0  0  0  0  0
 ITRead=  0  0  0  0  0  0  0  0  0  0  0  0  0  0  0  0  0  0  0  0
 ITRead=  0  0  0  0  0  0  0  0  0  0  0  0  0  0  0  0  0  0  0  0
 ITRead=  0  0  0  0  0  0  0  0  0  0  0  0  0  0  0  0  0  0  0  0
 ITRead=  0  0  0  0  0  0  0  0  0  0  0  0  0  0  0  0  0  0  0  0
 ITRead=  0  0  0  0  0  0  0  0  0  0  0  0  0  0  0  0  0  0
 MicOpt= -1 -1 -1 -1 -1 -1 -1 -1 -1 -1 -1 -1 -1 -1 -1 -1 -1 -1 -1 -1
 MicOpt= -1 -1 -1 -1 -1 -1 -1 -1 -1 -1 -1 -1 -1 -1 -1 -1 -1 -1 -1 -1
 MicOpt= -1 -1 -1 -1 -1 -1 -1 -1 -1 -1 -1 -1 -1 -1 -1 -1 -1 -1 -1 -1
 MicOpt= -1 -1 -1 -1 -1 -1 -1 -1 -1 -1 -1 -1 -1 -1 -1 -1 -1 -1 -1 -1
 MicOpt= -1 -1 -1 -1 -1 -1 -1 -1 -1 -1 -1 -1 -1 -1 -1 -1 -1 -1 -1 -1
 MicOpt= -1 -1 -1 -1 -1 -1 -1 -1 -1 -1 -1 -1 -1 -1 -1 -1 -1 -1 -1 -1
 MicOpt= -1 -1 -1 -1 -1 -1 -1 -1 -1 -1 -1 -1 -1 -1 -1 -1 -1 -1 -1 -1
 MicOpt= -1 -1 -1 -1 -1 -1 -1 -1 -1 -1 -1 -1 -1 -1 -1 -1 -1 -1
 NAtoms=    158 NQM=      158 NQMF=       0 NMMI=      0 NMMIF=      0
                NMic=       0 NMicF=      0.
                    Isotopes and Nuclear Properties:
 (Nuclear quadrupole moments (NQMom) in fm**2, nuclear magnetic moments (NMagM)
  in nuclear magnetons)

  Atom         1           2           3           4           5           6           7           8           9          10
 IAtWgt=          24          12          12          12          12          14          12          12          12          12
 AtmWgt=  23.9850450  12.0000000  12.0000000  12.0000000  12.0000000  14.0030740  12.0000000  12.0000000  12.0000000  12.0000000
 NucSpn=           0           0           0           0           0           2           0           0           0           0
 AtZEff=  -0.0000000  -0.0000000  -0.0000000  -0.0000000  -0.0000000  -0.0000000  -0.0000000  -0.0000000  -0.0000000  -0.0000000
 NQMom=    0.0000000   0.0000000   0.0000000   0.0000000   0.0000000   2.0440000   0.0000000   0.0000000   0.0000000   0.0000000
 NMagM=    0.0000000   0.0000000   0.0000000   0.0000000   0.0000000   0.4037610   0.0000000   0.0000000   0.0000000   0.0000000
 AtZNuc=  12.0000000   6.0000000   6.0000000   6.0000000   6.0000000   7.0000000   6.0000000   6.0000000   6.0000000   6.0000000

  Atom        11          12          13          14          15          16          17          18          19          20
 IAtWgt=          12          12          12           1          14          12          12          12          12          12
 AtmWgt=  12.0000000  12.0000000  12.0000000   1.0078250  14.0030740  12.0000000  12.0000000  12.0000000  12.0000000  12.0000000
 NucSpn=           0           0           0           1           2           0           0           0           0           0
 AtZEff=  -0.0000000  -0.0000000  -0.0000000  -0.0000000  -0.0000000  -0.0000000  -0.0000000  -0.0000000  -0.0000000  -0.0000000
 NQMom=    0.0000000   0.0000000   0.0000000   0.0000000   2.0440000   0.0000000   0.0000000   0.0000000   0.0000000   0.0000000
 NMagM=    0.0000000   0.0000000   0.0000000   2.7928460   0.4037610   0.0000000   0.0000000   0.0000000   0.0000000   0.0000000
 AtZNuc=   6.0000000   6.0000000   6.0000000   1.0000000   7.0000000   6.0000000   6.0000000   6.0000000   6.0000000   6.0000000

  Atom        21          22          23          24          25          26          27          28          29          30
 IAtWgt=          12          16          12          14          12          12          12          12          12          12
 AtmWgt=  12.0000000  15.9949146  12.0000000  14.0030740  12.0000000  12.0000000  12.0000000  12.0000000  12.0000000  12.0000000
 NucSpn=           0           0           0           2           0           0           0           0           0           0
 AtZEff=  -0.0000000  -0.0000000  -0.0000000  -0.0000000  -0.0000000  -0.0000000  -0.0000000  -0.0000000  -0.0000000  -0.0000000
 NQMom=    0.0000000   0.0000000   0.0000000   2.0440000   0.0000000   0.0000000   0.0000000   0.0000000   0.0000000   0.0000000
 NMagM=    0.0000000   0.0000000   0.0000000   0.4037610   0.0000000   0.0000000   0.0000000   0.0000000   0.0000000   0.0000000
 AtZNuc=   6.0000000   8.0000000   6.0000000   7.0000000   6.0000000   6.0000000   6.0000000   6.0000000   6.0000000   6.0000000

  Atom        31          32          33          34          35          36          37          38          39          40
 IAtWgt=          12          14          12          12          12          12          12          12          16          12
 AtmWgt=  12.0000000  14.0030740  12.0000000  12.0000000  12.0000000  12.0000000  12.0000000  12.0000000  15.9949146  12.0000000
 NucSpn=           0           2           0           0           0           0           0           0           0           0
 AtZEff=  -0.0000000  -0.0000000  -0.0000000  -0.0000000  -0.0000000  -0.0000000  -0.0000000  -0.0000000  -0.0000000  -0.0000000
 NQMom=    0.0000000   2.0440000   0.0000000   0.0000000   0.0000000   0.0000000   0.0000000   0.0000000   0.0000000   0.0000000
 NMagM=    0.0000000   0.4037610   0.0000000   0.0000000   0.0000000   0.0000000   0.0000000   0.0000000   0.0000000   0.0000000
 AtZNuc=   6.0000000   7.0000000   6.0000000   6.0000000   6.0000000   6.0000000   6.0000000   6.0000000   8.0000000   6.0000000

  Atom        41          42          43          44          45          46          47          48          49          50
 IAtWgt=          12          16          16          12           1           1           1           1           1           1
 AtmWgt=  12.0000000  15.9949146  15.9949146  12.0000000   1.0078250   1.0078250   1.0078250   1.0078250   1.0078250   1.0078250
 NucSpn=           0           0           0           0           1           1           1           1           1           1
 AtZEff=  -0.0000000  -0.0000000  -0.0000000  -0.0000000  -0.0000000  -0.0000000  -0.0000000  -0.0000000  -0.0000000  -0.0000000
 NQMom=    0.0000000   0.0000000   0.0000000   0.0000000   0.0000000   0.0000000   0.0000000   0.0000000   0.0000000   0.0000000
 NMagM=    0.0000000   0.0000000   0.0000000   0.0000000   2.7928460   2.7928460   2.7928460   2.7928460   2.7928460   2.7928460
 AtZNuc=   6.0000000   8.0000000   8.0000000   6.0000000   1.0000000   1.0000000   1.0000000   1.0000000   1.0000000   1.0000000

  Atom        51          52          53          54          55          56          57          58          59          60
 IAtWgt=           1           1           1           1           1           1           1           1           1           1
 AtmWgt=   1.0078250   1.0078250   1.0078250   1.0078250   1.0078250   1.0078250   1.0078250   1.0078250   1.0078250   1.0078250
 NucSpn=           1           1           1           1           1           1           1           1           1           1
 AtZEff=  -0.0000000  -0.0000000  -0.0000000  -0.0000000  -0.0000000  -0.0000000  -0.0000000  -0.0000000  -0.0000000  -0.0000000
 NQMom=    0.0000000   0.0000000   0.0000000   0.0000000   0.0000000   0.0000000   0.0000000   0.0000000   0.0000000   0.0000000
 NMagM=    2.7928460   2.7928460   2.7928460   2.7928460   2.7928460   2.7928460   2.7928460   2.7928460   2.7928460   2.7928460
 AtZNuc=   1.0000000   1.0000000   1.0000000   1.0000000   1.0000000   1.0000000   1.0000000   1.0000000   1.0000000   1.0000000

  Atom        61          62          63          64          65          66          67          68          69          70
 IAtWgt=           1           1           1           1           1           1           1           1           1           1
 AtmWgt=   1.0078250   1.0078250   1.0078250   1.0078250   1.0078250   1.0078250   1.0078250   1.0078250   1.0078250   1.0078250
 NucSpn=           1           1           1           1           1           1           1           1           1           1
 AtZEff=  -0.0000000  -0.0000000  -0.0000000  -0.0000000  -0.0000000  -0.0000000  -0.0000000  -0.0000000  -0.0000000  -0.0000000
 NQMom=    0.0000000   0.0000000   0.0000000   0.0000000   0.0000000   0.0000000   0.0000000   0.0000000   0.0000000   0.0000000
 NMagM=    2.7928460   2.7928460   2.7928460   2.7928460   2.7928460   2.7928460   2.7928460   2.7928460   2.7928460   2.7928460
 AtZNuc=   1.0000000   1.0000000   1.0000000   1.0000000   1.0000000   1.0000000   1.0000000   1.0000000   1.0000000   1.0000000

  Atom        71          72          73          74          75          76          77          78          79          80
 IAtWgt=           1           1           1           1           1           1           1           1           1          24
 AtmWgt=   1.0078250   1.0078250   1.0078250   1.0078250   1.0078250   1.0078250   1.0078250   1.0078250   1.0078250  23.9850450
 NucSpn=           1           1           1           1           1           1           1           1           1           0
 AtZEff=  -0.0000000  -0.0000000  -0.0000000  -0.0000000  -0.0000000  -0.0000000  -0.0000000  -0.0000000  -0.0000000  -0.0000000
 NQMom=    0.0000000   0.0000000   0.0000000   0.0000000   0.0000000   0.0000000   0.0000000   0.0000000   0.0000000   0.0000000
 NMagM=    2.7928460   2.7928460   2.7928460   2.7928460   2.7928460   2.7928460   2.7928460   2.7928460   2.7928460   0.0000000
 AtZNuc=   1.0000000   1.0000000   1.0000000   1.0000000   1.0000000   1.0000000   1.0000000   1.0000000   1.0000000  12.0000000

  Atom        81          82          83          84          85          86          87          88          89          90
 IAtWgt=          12          12          12          12          14          12          12          12          12          12
 AtmWgt=  12.0000000  12.0000000  12.0000000  12.0000000  14.0030740  12.0000000  12.0000000  12.0000000  12.0000000  12.0000000
 NucSpn=           0           0           0           0           2           0           0           0           0           0
 AtZEff=  -0.0000000  -0.0000000  -0.0000000  -0.0000000  -0.0000000  -0.0000000  -0.0000000  -0.0000000  -0.0000000  -0.0000000
 NQMom=    0.0000000   0.0000000   0.0000000   0.0000000   2.0440000   0.0000000   0.0000000   0.0000000   0.0000000   0.0000000
 NMagM=    0.0000000   0.0000000   0.0000000   0.0000000   0.4037610   0.0000000   0.0000000   0.0000000   0.0000000   0.0000000
 AtZNuc=   6.0000000   6.0000000   6.0000000   6.0000000   7.0000000   6.0000000   6.0000000   6.0000000   6.0000000   6.0000000

  Atom        91          92          93          94          95          96          97          98          99         100
 IAtWgt=          12          12           1          14          12          12          12          12          12          12
 AtmWgt=  12.0000000  12.0000000   1.0078250  14.0030740  12.0000000  12.0000000  12.0000000  12.0000000  12.0000000  12.0000000
 NucSpn=           0           0           1           2           0           0           0           0           0           0
 AtZEff=  -0.0000000  -0.0000000  -0.0000000  -0.0000000  -0.0000000  -0.0000000  -0.0000000  -0.0000000  -0.0000000  -0.0000000
 NQMom=    0.0000000   0.0000000   0.0000000   2.0440000   0.0000000   0.0000000   0.0000000   0.0000000   0.0000000   0.0000000
 NMagM=    0.0000000   0.0000000   2.7928460   0.4037610   0.0000000   0.0000000   0.0000000   0.0000000   0.0000000   0.0000000
 AtZNuc=   6.0000000   6.0000000   1.0000000   7.0000000   6.0000000   6.0000000   6.0000000   6.0000000   6.0000000   6.0000000

  Atom       101         102         103         104         105         106         107         108         109         110
 IAtWgt=          16          12          14          12          12          12          12          12          12          12
 AtmWgt=  15.9949146  12.0000000  14.0030740  12.0000000  12.0000000  12.0000000  12.0000000  12.0000000  12.0000000  12.0000000
 NucSpn=           0           0           2           0           0           0           0           0           0           0
 AtZEff=  -0.0000000  -0.0000000  -0.0000000  -0.0000000  -0.0000000  -0.0000000  -0.0000000  -0.0000000  -0.0000000  -0.0000000
 NQMom=    0.0000000   0.0000000   2.0440000   0.0000000   0.0000000   0.0000000   0.0000000   0.0000000   0.0000000   0.0000000
 NMagM=    0.0000000   0.0000000   0.4037610   0.0000000   0.0000000   0.0000000   0.0000000   0.0000000   0.0000000   0.0000000
 AtZNuc=   8.0000000   6.0000000   7.0000000   6.0000000   6.0000000   6.0000000   6.0000000   6.0000000   6.0000000   6.0000000

  Atom       111         112         113         114         115         116         117         118         119         120
 IAtWgt=          14          12          12          12          12          12          12          16          12          12
 AtmWgt=  14.0030740  12.0000000  12.0000000  12.0000000  12.0000000  12.0000000  12.0000000  15.9949146  12.0000000  12.0000000
 NucSpn=           2           0           0           0           0           0           0           0           0           0
 AtZEff=  -0.0000000  -0.0000000  -0.0000000  -0.0000000  -0.0000000  -0.0000000  -0.0000000  -0.0000000  -0.0000000  -0.0000000
 NQMom=    2.0440000   0.0000000   0.0000000   0.0000000   0.0000000   0.0000000   0.0000000   0.0000000   0.0000000   0.0000000
 NMagM=    0.4037610   0.0000000   0.0000000   0.0000000   0.0000000   0.0000000   0.0000000   0.0000000   0.0000000   0.0000000
 AtZNuc=   7.0000000   6.0000000   6.0000000   6.0000000   6.0000000   6.0000000   6.0000000   8.0000000   6.0000000   6.0000000

  Atom       121         122         123         124         125         126         127         128         129         130
 IAtWgt=          16          16          12           1           1           1           1           1           1           1
 AtmWgt=  15.9949146  15.9949146  12.0000000   1.0078250   1.0078250   1.0078250   1.0078250   1.0078250   1.0078250   1.0078250
 NucSpn=           0           0           0           1           1           1           1           1           1           1
 AtZEff=  -0.0000000  -0.0000000  -0.0000000  -0.0000000  -0.0000000  -0.0000000  -0.0000000  -0.0000000  -0.0000000  -0.0000000
 NQMom=    0.0000000   0.0000000   0.0000000   0.0000000   0.0000000   0.0000000   0.0000000   0.0000000   0.0000000   0.0000000
 NMagM=    0.0000000   0.0000000   0.0000000   2.7928460   2.7928460   2.7928460   2.7928460   2.7928460   2.7928460   2.7928460
 AtZNuc=   8.0000000   8.0000000   6.0000000   1.0000000   1.0000000   1.0000000   1.0000000   1.0000000   1.0000000   1.0000000

  Atom       131         132         133         134         135         136         137         138         139         140
 IAtWgt=           1           1           1           1           1           1           1           1           1           1
 AtmWgt=   1.0078250   1.0078250   1.0078250   1.0078250   1.0078250   1.0078250   1.0078250   1.0078250   1.0078250   1.0078250
 NucSpn=           1           1           1           1           1           1           1           1           1           1
 AtZEff=  -0.0000000  -0.0000000  -0.0000000  -0.0000000  -0.0000000  -0.0000000  -0.0000000  -0.0000000  -0.0000000  -0.0000000
 NQMom=    0.0000000   0.0000000   0.0000000   0.0000000   0.0000000   0.0000000   0.0000000   0.0000000   0.0000000   0.0000000
 NMagM=    2.7928460   2.7928460   2.7928460   2.7928460   2.7928460   2.7928460   2.7928460   2.7928460   2.7928460   2.7928460
 AtZNuc=   1.0000000   1.0000000   1.0000000   1.0000000   1.0000000   1.0000000   1.0000000   1.0000000   1.0000000   1.0000000

  Atom       141         142         143         144         145         146         147         148         149         150
 IAtWgt=           1           1           1           1           1           1           1           1           1           1
 AtmWgt=   1.0078250   1.0078250   1.0078250   1.0078250   1.0078250   1.0078250   1.0078250   1.0078250   1.0078250   1.0078250
 NucSpn=           1           1           1           1           1           1           1           1           1           1
 AtZEff=  -0.0000000  -0.0000000  -0.0000000  -0.0000000  -0.0000000  -0.0000000  -0.0000000  -0.0000000  -0.0000000  -0.0000000
 NQMom=    0.0000000   0.0000000   0.0000000   0.0000000   0.0000000   0.0000000   0.0000000   0.0000000   0.0000000   0.0000000
 NMagM=    2.7928460   2.7928460   2.7928460   2.7928460   2.7928460   2.7928460   2.7928460   2.7928460   2.7928460   2.7928460
 AtZNuc=   1.0000000   1.0000000   1.0000000   1.0000000   1.0000000   1.0000000   1.0000000   1.0000000   1.0000000   1.0000000

  Atom       151         152         153         154         155         156         157         158
 IAtWgt=           1           1           1           1           1           1           1           1
 AtmWgt=   1.0078250   1.0078250   1.0078250   1.0078250   1.0078250   1.0078250   1.0078250   1.0078250
 NucSpn=           1           1           1           1           1           1           1           1
 AtZEff=  -0.0000000  -0.0000000  -0.0000000  -0.0000000  -0.0000000  -0.0000000  -0.0000000  -0.0000000
 NQMom=    0.0000000   0.0000000   0.0000000   0.0000000   0.0000000   0.0000000   0.0000000   0.0000000
 NMagM=    2.7928460   2.7928460   2.7928460   2.7928460   2.7928460   2.7928460   2.7928460   2.7928460
 AtZNuc=   1.0000000   1.0000000   1.0000000   1.0000000   1.0000000   1.0000000   1.0000000   1.0000000
 Leave Link  101 at Thu Sep  9 16:50:24 2021, MaxMem= 23488102400 cpu:               3.6 elap:               0.2
 (Enter /sw/apps/gaussian-16.0/g16/l202.exe)
 Stoichiometry    C68H72Mg2N8O8
 Framework group  C1[X(C68H72Mg2N8O8)]
 Deg. of freedom   468
 Full point group                 C1      NOp   1
 Largest Abelian subgroup         C1      NOp   1
 Largest concise Abelian subgroup C1      NOp   1
                         Standard orientation:                         
 ---------------------------------------------------------------------
 Center     Atomic      Atomic             Coordinates (Angstroms)
 Number     Number       Type             X           Y           Z
 ---------------------------------------------------------------------
      1         12           0       -4.447302   -0.653399   -0.583271
      2          6           0       -4.972471    1.915017    1.853868
      3          6           0       -5.022921    1.708028   -2.978137
      4          6           0       -4.437898   -2.986176   -2.731453
      5          6           0       -5.035690   -2.972921    1.950358
      6          7           0       -4.924866    1.504322   -0.453591
      7          6           0       -5.038835    2.381223    0.538995
      8          6           0       -5.160107    3.855528    0.050024
      9          6           0       -5.728535    3.588736   -1.415482
     10          6           0       -5.163279    2.198291   -1.645856
     11          6           0       -7.250943    3.516050   -1.474589
     12          6           0       -3.774005    4.582351    0.003344
     13          6           0       -3.839393    6.105024   -0.146800
     14          1           0       -2.844656    6.919292    0.534974
     15          7           0       -4.212830   -0.588720   -2.543804
     16          6           0       -4.481437    0.460690   -3.357361
     17          6           0       -4.142055    0.013214   -4.725304
     18          6           0       -3.834367   -1.442717   -4.664583
     19          6           0       -4.179288   -1.740225   -3.297873
     20          6           0       -4.085978    0.937062   -5.903060
     21          6           0       -3.322260   -2.414245   -5.680463
     22          8           0       -3.345940   -3.677625   -5.485825
     23          6           0       -2.867780   -1.845810   -6.962404
     24          7           0       -4.914774   -2.685018   -0.475419
     25          6           0       -4.769900   -3.483812   -1.538398
     26          6           0       -4.889257   -4.929190   -1.155549
     27          6           0       -4.904859   -4.963828    0.440794
     28          6           0       -4.871940   -3.439172    0.710252
     29          6           0       -6.124386   -5.664367   -1.694050
     30          6           0       -3.847577   -5.858539    1.135104
     31          6           0       -2.464614   -5.291415    0.905144
     32          7           0       -4.746500   -0.584160    1.565387
     33          6           0       -4.997039   -1.669675    2.417186
     34          6           0       -5.237477   -1.116495    3.762642
     35          6           0       -5.125745    0.262441    3.595620
     36          6           0       -4.859974    0.553785    2.227125
     37          6           0       -5.573886   -1.866349    4.924098
     38          6           0       -5.193450    1.558891    4.250211
     39          8           0       -5.296030    1.936193    5.418378
     40          6           0       -5.217765    2.686924    3.126478
     41          6           0       -4.214326    3.738034    3.515821
     42          8           0       -2.992715    3.483272    3.527139
     43          8           0       -4.823770    4.931669    3.581806
     44          6           0       -3.877842    6.023792    3.934855
     45          1           0       -5.415602    2.304302   -3.804092
     46          1           0       -4.335084   -3.829010   -3.418110
     47          1           0       -5.142030   -3.640918    2.807053
     48          1           0       -5.863449    4.465924    0.616726
     49          1           0       -5.320537    4.289139   -2.143970
     50          1           0       -7.689548    3.531081   -0.476931
     51          1           0       -7.478155    2.575173   -1.976204
     52          1           0       -7.651655    4.301744   -2.115597
     53          1           0       -3.264862    4.326009   -0.925701
     54          1           0       -3.177314    4.331928    0.881168
     55          1           0       -4.842974    6.482359    0.051576
     56          1           0       -3.658515    6.353171   -1.192699
     57          1           0       -4.521906    1.908087   -5.671493
     58          1           0       -4.742240    0.519810   -6.666558
     59          1           0       -3.075518    1.034759   -6.300249
     60          1           0       -3.691908   -1.305681   -7.428904
     61          1           0       -2.452917   -2.677956   -7.530093
     62          1           0       -2.089945   -1.107523   -6.765293
     63          1           0       -4.035668   -5.501224   -1.516921
     64          1           0       -5.856441   -5.323672    0.832812
     65          1           0       -5.884558   -6.548940   -2.284573
     66          1           0       -6.712722   -4.954331   -2.274568
     67          1           0       -6.842291   -5.969808   -0.933303
     68          1           0       -3.858666   -6.860358    0.707108
     69          1           0       -4.004235   -5.955149    2.209523
     70          1           0       -2.198763   -5.687683   -0.074206
     71          1           0       -1.775038   -5.648110    1.670953
     72          1           0       -2.488849   -4.204734    0.821337
     73          1           0       -4.975814   -1.454487    5.736901
     74          1           0       -5.372087   -2.927846    4.782309
     75          1           0       -6.639361   -1.650638    5.002125
     76          1           0       -6.233363    3.080559    3.099387
     77          1           0       -4.276198    6.519808    4.820019
     78          1           0       -3.747349    6.623931    3.034183
     79          1           0       -2.896900    5.713664    4.296672
     80         12           0        4.466173   -0.631148    0.578256
     81          6           0        4.905850    1.972630   -1.851974
     82          6           0        5.108473    1.705728    2.978476
     83          6           0        4.530841   -2.981546    2.708726
     84          6           0        4.990154   -2.926879   -1.990948
     85          7           0        4.932154    1.527515    0.454585
     86          6           0        5.011660    2.421859   -0.519148
     87          6           0        5.135875    3.891234   -0.034311
     88          6           0        5.757650    3.612870    1.419922
     89          6           0        5.207074    2.208007    1.656319
     90          6           0        7.275433    3.537500    1.421118
     91          6           0        3.743513    4.607975    0.063905
     92          6           0        3.812804    6.127449    0.231647
     93          1           0        2.787125    6.945926   -0.409099
     94          7           0        4.289187   -0.578623    2.554236
     95          6           0        4.572098    0.459157    3.369252
     96          6           0        4.294253   -0.013896    4.734238
     97          6           0        3.981744   -1.467588    4.672366
     98          6           0        4.282053   -1.742817    3.281632
     99          6           0        4.262553    0.902886    5.922478
    100          6           0        3.505284   -2.450486    5.698577
    101          8           0        3.527883   -3.713682    5.482588
    102          6           0        3.099101   -1.896224    6.998312
    103          7           0        4.931518   -2.652300    0.434222
    104          6           0        4.828462   -3.463235    1.501784
    105          6           0        4.945371   -4.913726    1.098305
    106          6           0        4.906289   -4.919421   -0.500459
    107          6           0        4.861344   -3.397220   -0.757922
    108          6           0        6.202251   -5.638705    1.578973
    109          6           0        3.831449   -5.815210   -1.174978
    110          6           0        2.451153   -5.268211   -0.890423
    111          7           0        4.691319   -0.538394   -1.568544
    112          6           0        4.927754   -1.616971   -2.448796
    113          6           0        5.122881   -1.044277   -3.796532
    114          6           0        5.008364    0.340374   -3.601327
    115          6           0        4.779535    0.612748   -2.225479
    116          6           0        5.415796   -1.780698   -4.978906
    117          6           0        5.039623    1.634186   -4.244590
    118          8           0        5.110558    2.023648   -5.409499
    119          6           0        5.100556    2.756148   -3.120366
    120          6           0        4.079563    3.807876   -3.457941
    121          8           0        2.865618    3.538235   -3.442700
    122          8           0        4.688074    5.005765   -3.529683
    123          6           0        3.714503    6.083042   -3.851323
    124          1           0        5.518622    2.303885    3.792644
    125          1           0        4.454474   -3.837118    3.383738
    126          1           0        5.060821   -3.582566   -2.861436
    127          1           0        5.811974    4.506009   -0.616307
    128          1           0        5.362627    4.306364    2.157743
    129          1           0        7.681025    3.566151    0.420713
    130          1           0        7.523064    2.600783    1.903093
    131          1           0        7.691376    4.323378    2.058085
    132          1           0        3.266825    4.335568    1.014332
    133          1           0        3.129633    4.365384   -0.781633
    134          1           0        4.812288    6.521381    0.010755
    135          1           0        3.657097    6.367620    1.286203
    136          1           0        4.693865    1.883348    5.685693
    137          1           0        4.942330    0.480567    6.670418
    138          1           0        3.265907    0.990664    6.360290
    139          1           0        3.934235   -1.355501    7.437215
    140          1           0        2.705773   -2.741464    7.566398
    141          1           0        2.301904   -1.163069    6.832257
    142          1           0        4.106681   -5.487987    1.472375
    143          1           0        5.851417   -5.282991   -0.929844
    144          1           0        5.982592   -6.542368    2.178333
    145          1           0        6.801890   -4.941155    2.148521
    146          1           0        6.888894   -5.944183    0.791318
    147          1           0        3.859070   -6.822821   -0.752945
    148          1           0        3.960947   -5.911736   -2.247782
    149          1           0        2.223160   -5.676146    0.098865
    150          1           0        1.739341   -5.618199   -1.635314
    151          1           0        2.471636   -4.175950   -0.799866
    152          1           0        4.797271   -1.367300   -5.764419
    153          1           0        5.228223   -2.843641   -4.841979
    154          1           0        6.481725   -1.562379   -5.085618
    155          1           0        6.114651    3.157548   -3.112769
    156          1           0        4.086056    6.592904   -4.745577
    157          1           0        3.621702    6.686942   -2.929122
    158          1           0        2.724396    5.783655   -4.174573
 ---------------------------------------------------------------------
 Rotational constants (GHZ):           0.0202798           0.0133261           0.0130890
 Leave Link  202 at Thu Sep  9 16:50:24 2021, MaxMem= 23488102400 cpu:               0.2 elap:               0.0
 (Enter /sw/apps/gaussian-16.0/g16/l301.exe)
 Standard basis: def2SVP (5D, 7F)
 Ernie: Thresh=  0.10000D-02 Tol=  0.10000D-05 Strict=F.
 There are  1658 symmetry adapted cartesian basis functions of A   symmetry.
 There are  1572 symmetry adapted basis functions of A   symmetry.
  1572 basis functions,  2678 primitive gaussians,  1658 cartesian basis functions
   312 alpha electrons      312 beta electrons
       nuclear repulsion energy     15390.7764461324 Hartrees.
 IExCor=20419 DFT=T Ex+Corr=CAM-B3LYP ExCW=0 ScaHFX=  1.000000
 ScaDFX=  1.000000  1.000000  1.000000  0.810000 ScalE2=  1.000000  1.000000
 IRadAn=      5 IRanWt=     -1 IRanGd=            0 ICorTp=0 IEmpDi=  4
 HFx  wShort=  0.000000 wLong=  0.330000 cFull=  0.190000 cShort=  0.000000 cLong=  0.460000
 DFx  wShort=  0.000000 wLong=  0.330000 cFull=  0.190000 cShort=  0.000000 cLong=  0.460000
 NAtoms=  158 NActive=  158 NUniq=  158 SFac= 1.00D+00 NAtFMM=   60 NAOKFM=T Big=T
 Integral buffers will be    131072 words long.
 Raffenetti 1 integral format.
 Two-electron integral symmetry is turned on.
 Leave Link  301 at Thu Sep  9 16:50:24 2021, MaxMem= 23488102400 cpu:               1.4 elap:               0.1
 (Enter /sw/apps/gaussian-16.0/g16/l302.exe)
 NPDir=0 NMtPBC=     1 NCelOv=     1 NCel=       1 NClECP=     1 NCelD=      1
         NCelK=      1 NCelE2=     1 NClLst=     1 CellRange=     0.0.
 One-electron integrals computed using PRISM.
 One-electron integral symmetry used in STVInt
   1 Symmetry operations used in ECPInt.
 ECPInt:  NShTT=  271216 NPrTT=  987664 LenC2=  150854 LenP2D=  312938.
 LDataN:  DoStor=T MaxTD1= 4 Len=   56
 NBasis=  1572 RedAO= T EigKep=  3.36D-04  NBF=  1572
 NBsUse=  1572 1.00D-06 EigRej= -1.00D+00 NBFU=  1572
 Precomputing XC quadrature grid using
 IXCGrd= 4 IRadAn=           5 IRanWt=          -1 IRanGd=           0 AccXCQ= 0.00D+00.
 Generated NRdTot=       0 NPtTot=           0 NUsed=           0 NTot=          32
 NSgBfM=  1072  1068  1069  1071  1072 MxSgAt=   158 MxSgA2=   158.
 Leave Link  302 at Thu Sep  9 16:50:29 2021, MaxMem= 23488102400 cpu:             121.7 elap:               5.1
 (Enter /sw/apps/gaussian-16.0/g16/l303.exe)
 DipDrv:  MaxL=1.
 Leave Link  303 at Thu Sep  9 16:50:30 2021, MaxMem= 23488102400 cpu:              10.9 elap:               0.5
 (Enter /sw/apps/gaussian-16.0/g16/l308.exe)
 Leave Link  308 at Thu Sep  9 16:50:31 2021, MaxMem= 23488102400 cpu:              15.1 elap:               0.7
 (Enter /sw/apps/gaussian-16.0/g16/l401.exe)
 ExpMin= 3.36D-02 ExpMax= 4.95D+03 ExpMxC= 7.45D+02 IAcc=3 IRadAn=         5 AccDes= 0.00D+00
 Harris functional with IExCor=20419 and IRadAn=       5 diagonalized for initial guess.
 HarFok:  IExCor=20419 AccDes= 0.00D+00 IRadAn=         5 IDoV= 1 UseB2=F ITyADJ=14
 ICtDFT=  3500011 ScaDFX=  1.000000  1.000000  1.000000  1.000000
 FoFCou: FMM=F IPFlag=           0 FMFlag=      100000 FMFlg1=        2001
         NFxFlg=           0 DoJE=T BraDBF=F KetDBF=T FulRan=T
         wScrn=  0.000000 ICntrl=       500 IOpCl=  0 I1Cent=   200000004 NGrid=           0
         NMat0=    1 NMatS0=      1 NMatT0=    0 NMatD0=    1 NMtDS0=    0 NMtDT0=    0
 Petite list used in FoFCou.
 Harris En= -3918.65797053892    
 JPrj=0 DoOrth=F DoCkMO=F.
 Leave Link  401 at Thu Sep  9 16:50:39 2021, MaxMem= 23488102400 cpu:             193.2 elap:               8.1
 (Enter /sw/apps/gaussian-16.0/g16/l502.exe)
 Integral symmetry usage will be decided dynamically.
 Closed shell SCF:
 Using DIIS extrapolation, IDIIS=  1040.
 NGot= 23488102400 LenX= 23482547354 LenY= 23479796732
 Requested convergence on RMS density matrix=1.00D-08 within 128 cycles.
 Requested convergence on MAX density matrix=1.00D-06.
 Requested convergence on             energy=1.00D-06.
 No special actions if energy rises.
 Fock matrices will be formed incrementally for  20 cycles.

 Cycle   1  Pass 1  IDiag  1:
 FoFJK:  IHMeth= 1 ICntrl=       0 DoSepK=T KAlg= 0 I1Cent=           0 FoldK=F
 IRaf=         1 NMat=       1 IRICut=       1 DoRegI=T DoRafI=F ISym2E= 0 IDoP0=0 IntGTp=1.
 FoFCou: FMM=T IPFlag=           0 FMFlag=      100000 FMFlg1=        2001
         NFxFlg=           0 DoJE=T BraDBF=F KetDBF=F FulRan=T
         wScrn=  0.000000 ICntrl=       500 IOpCl=  0 I1Cent=           0 NGrid=           0
         NMat0=    1 NMatS0=      1 NMatT0=    0 NMatD0=    1 NMtDS0=    0 NMtDT0=    0
 Symmetry not used in FoFCou.
 FMM levels:  10  Number of levels for PrismC:   9
 E= -4068.95152968242    
 DIIS: error= 2.04D-02 at cycle   1 NSaved=   1.
 NSaved= 1 IEnMin= 1 EnMin= -4068.95152968242     IErMin= 1 ErrMin= 2.04D-02
 ErrMax= 2.04D-02  0.00D+00 EMaxC= 1.00D-01 BMatC= 1.69D+00 BMatP= 1.69D+00
 IDIUse=3 WtCom= 7.96D-01 WtEn= 2.04D-01
 Coeff-Com:  0.100D+01
 Coeff-En:   0.100D+01
 Coeff:      0.100D+01
 Gap=     0.120 Goal=   None    Shift=    0.000
 GapD=    0.120 DampG=1.000 DampE=0.500 DampFc=0.5000 IDamp=-1.
 Damping current iteration by 5.00D-01
 RMSDP=1.57D-03 MaxDP=1.36D-01              OVMax= 1.93D-01

 Cycle   2  Pass 1  IDiag  1:
 RMSU=  7.68D-04    CP:  9.82D-01
 E= -4069.34027265168     Delta-E=       -0.388742969255 Rises=F Damp=T
 DIIS: error= 1.27D-02 at cycle   2 NSaved=   2.
 NSaved= 2 IEnMin= 2 EnMin= -4069.34027265168     IErMin= 2 ErrMin= 1.27D-02
 ErrMax= 1.27D-02  0.00D+00 EMaxC= 1.00D-01 BMatC= 3.06D-01 BMatP= 1.69D+00
 IDIUse=3 WtCom= 8.73D-01 WtEn= 1.27D-01
 Coeff-Com: -0.214D+00 0.121D+01
 Coeff-En:   0.000D+00 0.100D+01
 Coeff:     -0.187D+00 0.119D+01
 Gap=     0.138 Goal=   None    Shift=    0.000
 RMSDP=7.61D-04 MaxDP=9.34D-02 DE=-3.89D-01 OVMax= 1.89D-01

 Cycle   3  Pass 1  IDiag  1:
 RMSU=  7.28D-04    CP:  9.68D-01  1.24D+00
 E= -4069.63149548336     Delta-E=       -0.291222831678 Rises=F Damp=F
 DIIS: error= 1.55D-02 at cycle   3 NSaved=   3.
 NSaved= 3 IEnMin= 3 EnMin= -4069.63149548336     IErMin= 2 ErrMin= 1.27D-02
 ErrMax= 1.55D-02  0.00D+00 EMaxC= 1.00D-01 BMatC= 1.99D-01 BMatP= 3.06D-01
 IDIUse=3 WtCom= 8.45D-01 WtEn= 1.55D-01
 Coeff-Com: -0.267D+00 0.650D+00 0.617D+00
 Coeff-En:   0.000D+00 0.000D+00 0.100D+01
 Coeff:     -0.226D+00 0.549D+00 0.677D+00
 Gap=     0.125 Goal=   None    Shift=    0.000
 RMSDP=5.00D-04 MaxDP=5.00D-02 DE=-2.91D-01 OVMax= 1.28D-01

 Cycle   4  Pass 1  IDiag  1:
 RMSU=  2.61D-04    CP:  9.65D-01  1.55D+00  5.11D-01
 E= -4069.76801840694     Delta-E=       -0.136522923585 Rises=F Damp=F
 DIIS: error= 7.11D-03 at cycle   4 NSaved=   4.
 NSaved= 4 IEnMin= 4 EnMin= -4069.76801840694     IErMin= 4 ErrMin= 7.11D-03
 ErrMax= 7.11D-03  0.00D+00 EMaxC= 1.00D-01 BMatC= 4.85D-02 BMatP= 1.99D-01
 IDIUse=3 WtCom= 9.29D-01 WtEn= 7.11D-02
 Coeff-Com: -0.108D+00 0.225D+00 0.407D+00 0.477D+00
 Coeff-En:   0.000D+00 0.000D+00 0.214D+00 0.786D+00
 Coeff:     -0.101D+00 0.209D+00 0.393D+00 0.499D+00
 Gap=     0.123 Goal=   None    Shift=    0.000
 RMSDP=1.93D-04 MaxDP=2.04D-02 DE=-1.37D-01 OVMax= 5.20D-02

 Cycle   5  Pass 1  IDiag  1:
 RMSU=  7.33D-05    CP:  9.64D-01  1.49D+00  6.90D-01  5.59D-01
 E= -4069.81150523904     Delta-E=       -0.043486832103 Rises=F Damp=F
 DIIS: error= 7.69D-04 at cycle   5 NSaved=   5.
 NSaved= 5 IEnMin= 5 EnMin= -4069.81150523904     IErMin= 5 ErrMin= 7.69D-04
 ErrMax= 7.69D-04  0.00D+00 EMaxC= 1.00D-01 BMatC= 1.02D-03 BMatP= 4.85D-02
 IDIUse=3 WtCom= 9.92D-01 WtEn= 7.69D-03
 Coeff-Com: -0.339D-01 0.663D-01 0.157D+00 0.242D+00 0.568D+00
 Coeff-En:   0.000D+00 0.000D+00 0.000D+00 0.000D+00 0.100D+01
 Coeff:     -0.336D-01 0.658D-01 0.156D+00 0.240D+00 0.572D+00
 Gap=     0.122 Goal=   None    Shift=    0.000
 RMSDP=3.71D-05 MaxDP=3.93D-03 DE=-4.35D-02 OVMax= 1.14D-02

 Cycle   6  Pass 1  IDiag  1:
 RMSU=  2.82D-05    CP:  9.64D-01  1.50D+00  6.83D-01  6.25D-01  7.85D-01
 E= -4069.81235904095     Delta-E=       -0.000853801910 Rises=F Damp=F
 DIIS: error= 2.57D-04 at cycle   6 NSaved=   6.
 NSaved= 6 IEnMin= 6 EnMin= -4069.81235904095     IErMin= 6 ErrMin= 2.57D-04
 ErrMax= 2.57D-04  0.00D+00 EMaxC= 1.00D-01 BMatC= 1.55D-04 BMatP= 1.02D-03
 IDIUse=3 WtCom= 9.97D-01 WtEn= 2.57D-03
 Coeff-Com:  0.267D-02-0.741D-02 0.851D-02 0.362D-01 0.308D+00 0.652D+00
 Coeff-En:   0.000D+00 0.000D+00 0.000D+00 0.000D+00 0.896D-01 0.910D+00
 Coeff:      0.266D-02-0.739D-02 0.848D-02 0.361D-01 0.308D+00 0.652D+00
 Gap=     0.123 Goal=   None    Shift=    0.000
 RMSDP=1.42D-05 MaxDP=1.19D-03 DE=-8.54D-04 OVMax= 5.84D-03

 Cycle   7  Pass 1  IDiag  1:
 RMSU=  9.84D-06    CP:  9.64D-01  1.50D+00  6.88D-01  6.26D-01  8.75D-01
                    CP:  7.71D-01
 E= -4069.81252176271     Delta-E=       -0.000162721753 Rises=F Damp=F
 DIIS: error= 7.12D-05 at cycle   7 NSaved=   7.
 NSaved= 7 IEnMin= 7 EnMin= -4069.81252176271     IErMin= 7 ErrMin= 7.12D-05
 ErrMax= 7.12D-05  0.00D+00 EMaxC= 1.00D-01 BMatC= 1.54D-05 BMatP= 1.55D-04
 IDIUse=1 WtCom= 1.00D+00 WtEn= 0.00D+00
 Coeff-Com:  0.431D-02-0.934D-02-0.940D-02-0.560D-02 0.914D-01 0.308D+00
 Coeff-Com:  0.620D+00
 Coeff:      0.431D-02-0.934D-02-0.940D-02-0.560D-02 0.914D-01 0.308D+00
 Coeff:      0.620D+00
 Gap=     0.123 Goal=   None    Shift=    0.000
 RMSDP=5.82D-06 MaxDP=9.88D-04 DE=-1.63D-04 OVMax= 2.67D-03

 Cycle   8  Pass 1  IDiag  1:
 RMSU=  4.29D-06    CP:  9.64D-01  1.50D+00  6.89D-01  6.30D-01  8.85D-01
                    CP:  8.90D-01  8.59D-01
 E= -4069.81254103372     Delta-E=       -0.000019271010 Rises=F Damp=F
 DIIS: error= 3.87D-05 at cycle   8 NSaved=   8.
 NSaved= 8 IEnMin= 8 EnMin= -4069.81254103372     IErMin= 8 ErrMin= 3.87D-05
 ErrMax= 3.87D-05  0.00D+00 EMaxC= 1.00D-01 BMatC= 4.08D-06 BMatP= 1.54D-05
 IDIUse=1 WtCom= 1.00D+00 WtEn= 0.00D+00
 Coeff-Com:  0.201D-02-0.396D-02-0.745D-02-0.120D-01-0.157D-01 0.307D-01
 Coeff-Com:  0.364D+00 0.642D+00
 Coeff:      0.201D-02-0.396D-02-0.745D-02-0.120D-01-0.157D-01 0.307D-01
 Coeff:      0.364D+00 0.642D+00
 Gap=     0.123 Goal=   None    Shift=    0.000
 RMSDP=3.08D-06 MaxDP=4.09D-04 DE=-1.93D-05 OVMax= 1.35D-03

 Cycle   9  Pass 1  IDiag  1:
 RMSU=  1.81D-06    CP:  9.64D-01  1.50D+00  6.89D-01  6.31D-01  9.01D-01
                    CP:  9.15D-01  1.06D+00  9.10D-01
 E= -4069.81254747984     Delta-E=       -0.000006446124 Rises=F Damp=F
 DIIS: error= 2.08D-05 at cycle   9 NSaved=   9.
 NSaved= 9 IEnMin= 9 EnMin= -4069.81254747984     IErMin= 9 ErrMin= 2.08D-05
 ErrMax= 2.08D-05  0.00D+00 EMaxC= 1.00D-01 BMatC= 5.88D-07 BMatP= 4.08D-06
 IDIUse=1 WtCom= 1.00D+00 WtEn= 0.00D+00
 Coeff-Com:  0.440D-03-0.730D-03-0.253D-02-0.571D-02-0.220D-01-0.345D-01
 Coeff-Com:  0.114D+00 0.324D+00 0.628D+00
 Coeff:      0.440D-03-0.730D-03-0.253D-02-0.571D-02-0.220D-01-0.345D-01
 Coeff:      0.114D+00 0.324D+00 0.628D+00
 Gap=     0.123 Goal=   None    Shift=    0.000
 RMSDP=1.29D-06 MaxDP=1.31D-04 DE=-6.45D-06 OVMax= 7.25D-04

 Cycle  10  Pass 1  IDiag  1:
 RMSU=  8.94D-07    CP:  9.64D-01  1.50D+00  6.89D-01  6.32D-01  9.04D-01
                    CP:  9.29D-01  1.10D+00  1.07D+00  1.00D+00
 E= -4069.81254879598     Delta-E=       -0.000001316141 Rises=F Damp=F
 DIIS: error= 1.19D-05 at cycle  10 NSaved=  10.
 NSaved=10 IEnMin=10 EnMin= -4069.81254879598     IErMin=10 ErrMin= 1.19D-05
 ErrMax= 1.19D-05  0.00D+00 EMaxC= 1.00D-01 BMatC= 1.65D-07 BMatP= 5.88D-07
 IDIUse=1 WtCom= 1.00D+00 WtEn= 0.00D+00
 Coeff-Com: -0.398D-03 0.836D-03 0.113D-02 0.104D-02-0.437D-02-0.295D-01
 Coeff-Com: -0.483D-01-0.688D-01 0.296D+00 0.852D+00
 Coeff:     -0.398D-03 0.836D-03 0.113D-02 0.104D-02-0.437D-02-0.295D-01
 Coeff:     -0.483D-01-0.688D-01 0.296D+00 0.852D+00
 Gap=     0.123 Goal=   None    Shift=    0.000
 RMSDP=1.11D-06 MaxDP=1.42D-04 DE=-1.32D-06 OVMax= 5.33D-04

 Cycle  11  Pass 1  IDiag  1:
 RMSU=  4.78D-07    CP:  9.64D-01  1.50D+00  6.90D-01  6.32D-01  9.06D-01
                    CP:  9.39D-01  1.15D+00  1.17D+00  1.33D+00  1.31D+00
 E= -4069.81254944541     Delta-E=       -0.000000649427 Rises=F Damp=F
 DIIS: error= 3.72D-06 at cycle  11 NSaved=  11.
 NSaved=11 IEnMin=11 EnMin= -4069.81254944541     IErMin=11 ErrMin= 3.72D-06
 ErrMax= 3.72D-06  0.00D+00 EMaxC= 1.00D-01 BMatC= 4.96D-08 BMatP= 1.65D-07
 IDIUse=1 WtCom= 1.00D+00 WtEn= 0.00D+00
 Coeff-Com: -0.308D-03 0.602D-03 0.124D-02 0.201D-02 0.393D-02-0.854D-02
 Coeff-Com: -0.474D-01-0.129D+00 0.152D-01 0.440D+00 0.722D+00
 Coeff:     -0.308D-03 0.602D-03 0.124D-02 0.201D-02 0.393D-02-0.854D-02
 Coeff:     -0.474D-01-0.129D+00 0.152D-01 0.440D+00 0.722D+00
 Gap=     0.123 Goal=   None    Shift=    0.000
 RMSDP=6.02D-07 MaxDP=4.94D-05 DE=-6.49D-07 OVMax= 3.27D-04

 Cycle  12  Pass 1  IDiag  1:
 RMSU=  2.53D-07    CP:  9.64D-01  1.50D+00  6.90D-01  6.32D-01  9.07D-01
                    CP:  9.41D-01  1.17D+00  1.23D+00  1.48D+00  1.67D+00
                    CP:  1.15D+00
 E= -4069.81254965148     Delta-E=       -0.000000206073 Rises=F Damp=F
 DIIS: error= 2.88D-06 at cycle  12 NSaved=  12.
 NSaved=12 IEnMin=12 EnMin= -4069.81254965148     IErMin=12 ErrMin= 2.88D-06
 ErrMax= 2.88D-06  0.00D+00 EMaxC= 1.00D-01 BMatC= 1.24D-08 BMatP= 4.96D-08
 IDIUse=1 WtCom= 1.00D+00 WtEn= 0.00D+00
 Coeff-Com: -0.143D-04 0.134D-04 0.214D-03 0.559D-03 0.309D-02 0.336D-02
 Coeff-Com: -0.736D-03-0.404D-01-0.572D-01-0.579D-01 0.280D+00 0.869D+00
 Coeff:     -0.143D-04 0.134D-04 0.214D-03 0.559D-03 0.309D-02 0.336D-02
 Coeff:     -0.736D-03-0.404D-01-0.572D-01-0.579D-01 0.280D+00 0.869D+00
 Gap=     0.123 Goal=   None    Shift=    0.000
 RMSDP=3.83D-07 MaxDP=2.82D-05 DE=-2.06D-07 OVMax= 2.46D-04

 Cycle  13  Pass 1  IDiag  1:
 RMSU=  1.62D-07    CP:  9.64D-01  1.50D+00  6.90D-01  6.32D-01  9.07D-01
                    CP:  9.41D-01  1.18D+00  1.26D+00  1.58D+00  1.86D+00
                    CP:  1.54D+00  1.20D+00
 E= -4069.81254972314     Delta-E=       -0.000000071657 Rises=F Damp=F
 DIIS: error= 1.53D-06 at cycle  13 NSaved=  13.
 NSaved=13 IEnMin=13 EnMin= -4069.81254972314     IErMin=13 ErrMin= 1.53D-06
 ErrMax= 1.53D-06  0.00D+00 EMaxC= 1.00D-01 BMatC= 7.71D-09 BMatP= 1.24D-08
 IDIUse=1 WtCom= 1.00D+00 WtEn= 0.00D+00
 Coeff-Com:  0.111D-03-0.228D-03-0.334D-03-0.396D-03 0.624D-03 0.523D-02
 Coeff-Com:  0.197D-01 0.196D-01-0.446D-01-0.233D+00-0.127D+00 0.625D+00
 Coeff-Com:  0.735D+00
 Coeff:      0.111D-03-0.228D-03-0.334D-03-0.396D-03 0.624D-03 0.523D-02
 Coeff:      0.197D-01 0.196D-01-0.446D-01-0.233D+00-0.127D+00 0.625D+00
 Coeff:      0.735D+00
 Gap=     0.123 Goal=   None    Shift=    0.000
 RMSDP=2.95D-07 MaxDP=1.88D-05 DE=-7.17D-08 OVMax= 1.62D-04

 Cycle  14  Pass 1  IDiag  1:
 RMSU=  7.69D-08    CP:  9.64D-01  1.50D+00  6.90D-01  6.32D-01  9.08D-01
                    CP:  9.41D-01  1.19D+00  1.28D+00  1.64D+00  2.04D+00
                    CP:  1.77D+00  1.70D+00  1.02D+00
 E= -4069.81254975412     Delta-E=       -0.000000030981 Rises=F Damp=F
 DIIS: error= 1.11D-06 at cycle  14 NSaved=  14.
 NSaved=14 IEnMin=14 EnMin= -4069.81254975412     IErMin=14 ErrMin= 1.11D-06
 ErrMax= 1.11D-06  0.00D+00 EMaxC= 1.00D-01 BMatC= 1.05D-09 BMatP= 7.71D-09
 IDIUse=1 WtCom= 1.00D+00 WtEn= 0.00D+00
 Coeff-Com:  0.680D-04-0.135D-03-0.247D-03-0.381D-03-0.477D-03 0.172D-02
 Coeff-Com:  0.120D-01 0.201D-01-0.526D-02-0.106D+00-0.145D+00 0.128D+00
 Coeff-Com:  0.375D+00 0.721D+00
 Coeff:      0.680D-04-0.135D-03-0.247D-03-0.381D-03-0.477D-03 0.172D-02
 Coeff:      0.120D-01 0.201D-01-0.526D-02-0.106D+00-0.145D+00 0.128D+00
 Coeff:      0.375D+00 0.721D+00
 Gap=     0.123 Goal=   None    Shift=    0.000
 RMSDP=1.04D-07 MaxDP=7.00D-06 DE=-3.10D-08 OVMax= 7.19D-05

 Cycle  15  Pass 1  IDiag  1:
 RMSU=  3.69D-08    CP:  9.64D-01  1.50D+00  6.90D-01  6.32D-01  9.07D-01
                    CP:  9.41D-01  1.19D+00  1.28D+00  1.66D+00  2.09D+00
                    CP:  1.89D+00  1.85D+00  1.26D+00  1.01D+00
 E= -4069.81254975846     Delta-E=       -0.000000004336 Rises=F Damp=F
 DIIS: error= 4.85D-07 at cycle  15 NSaved=  15.
 NSaved=15 IEnMin=15 EnMin= -4069.81254975846     IErMin=15 ErrMin= 4.85D-07
 ErrMax= 4.85D-07  0.00D+00 EMaxC= 1.00D-01 BMatC= 2.60D-10 BMatP= 1.05D-09
 IDIUse=1 WtCom= 1.00D+00 WtEn= 0.00D+00
 Coeff-Com:  0.117D-04-0.215D-04-0.546D-04-0.113D-03-0.365D-03-0.273D-03
 Coeff-Com:  0.221D-02 0.515D-02 0.709D-02-0.566D-02-0.467D-01-0.548D-01
 Coeff-Com:  0.275D-01 0.367D+00 0.699D+00
 Coeff:      0.117D-04-0.215D-04-0.546D-04-0.113D-03-0.365D-03-0.273D-03
 Coeff:      0.221D-02 0.515D-02 0.709D-02-0.566D-02-0.467D-01-0.548D-01
 Coeff:      0.275D-01 0.367D+00 0.699D+00
 Gap=     0.123 Goal=   None    Shift=    0.000
 RMSDP=3.81D-08 MaxDP=2.75D-06 DE=-4.34D-09 OVMax= 1.99D-05

 Cycle  16  Pass 1  IDiag  1:
 RMSU=  1.78D-08    CP:  9.64D-01  1.50D+00  6.90D-01  6.32D-01  9.07D-01
                    CP:  9.41D-01  1.19D+00  1.28D+00  1.67D+00  2.10D+00
                    CP:  1.91D+00  1.92D+00  1.33D+00  1.22D+00  1.13D+00
 E= -4069.81254975940     Delta-E=       -0.000000000946 Rises=F Damp=F
 DIIS: error= 1.88D-07 at cycle  16 NSaved=  16.
 NSaved=16 IEnMin=16 EnMin= -4069.81254975940     IErMin=16 ErrMin= 1.88D-07
 ErrMax= 1.88D-07  0.00D+00 EMaxC= 1.00D-01 BMatC= 6.09D-11 BMatP= 2.60D-10
 IDIUse=1 WtCom= 1.00D+00 WtEn= 0.00D+00
 Coeff-Com: -0.124D-04 0.252D-04 0.402D-04 0.439D-04-0.538D-04-0.599D-03
 Coeff-Com: -0.200D-02-0.343D-02 0.532D-02 0.244D-01 0.142D-01-0.587D-01
 Coeff-Com: -0.911D-01 0.689D-02 0.329D+00 0.776D+00
 Coeff:     -0.124D-04 0.252D-04 0.402D-04 0.439D-04-0.538D-04-0.599D-03
 Coeff:     -0.200D-02-0.343D-02 0.532D-02 0.244D-01 0.142D-01-0.587D-01
 Coeff:     -0.911D-01 0.689D-02 0.329D+00 0.776D+00
 Gap=     0.123 Goal=   None    Shift=    0.000
 RMSDP=2.32D-08 MaxDP=1.93D-06 DE=-9.46D-10 OVMax= 1.73D-05

 Cycle  17  Pass 1  IDiag  1:
 RMSU=  1.12D-08    CP:  9.64D-01  1.50D+00  6.90D-01  6.32D-01  9.07D-01
                    CP:  9.41D-01  1.19D+00  1.28D+00  1.67D+00  2.11D+00
                    CP:  1.92D+00  1.95D+00  1.38D+00  1.31D+00  1.42D+00
                    CP:  1.21D+00
 E= -4069.81254975941     Delta-E=       -0.000000000004 Rises=F Damp=F
 DIIS: error= 1.00D-07 at cycle  17 NSaved=  17.
 NSaved=17 IEnMin=17 EnMin= -4069.81254975941     IErMin=17 ErrMin= 1.00D-07
 ErrMax= 1.00D-07  0.00D+00 EMaxC= 1.00D-01 BMatC= 2.08D-11 BMatP= 6.09D-11
 IDIUse=1 WtCom= 1.00D+00 WtEn= 0.00D+00
 Coeff-Com: -0.888D-05 0.175D-04 0.338D-04 0.487D-04 0.705D-04-0.218D-03
 Coeff-Com: -0.145D-02-0.318D-02 0.137D-02 0.133D-01 0.189D-01-0.132D-01
 Coeff-Com: -0.536D-01-0.859D-01-0.472D-01 0.398D+00 0.773D+00
 Coeff:     -0.888D-05 0.175D-04 0.338D-04 0.487D-04 0.705D-04-0.218D-03
 Coeff:     -0.145D-02-0.318D-02 0.137D-02 0.133D-01 0.189D-01-0.132D-01
 Coeff:     -0.536D-01-0.859D-01-0.472D-01 0.398D+00 0.773D+00
 Gap=     0.123 Goal=   None    Shift=    0.000
 RMSDP=1.33D-08 MaxDP=9.34D-07 DE=-3.64D-12 OVMax= 7.62D-06

 Cycle  18  Pass 1  IDiag  1:
 RMSU=  5.22D-09    CP:  9.64D-01  1.50D+00  6.90D-01  6.32D-01  9.07D-01
                    CP:  9.41D-01  1.19D+00  1.28D+00  1.67D+00  2.11D+00
                    CP:  1.93D+00  1.96D+00  1.40D+00  1.38D+00  1.59D+00
                    CP:  1.60D+00  1.32D+00
 E= -4069.81254975962     Delta-E=       -0.000000000211 Rises=F Damp=F
 DIIS: error= 6.99D-08 at cycle  18 NSaved=  18.
 NSaved=18 IEnMin=18 EnMin= -4069.81254975962     IErMin=18 ErrMin= 6.99D-08
 ErrMax= 6.99D-08  0.00D+00 EMaxC= 1.00D-01 BMatC= 5.47D-12 BMatP= 2.08D-11
 IDIUse=1 WtCom= 1.00D+00 WtEn= 0.00D+00
 Coeff-Com:  0.916D-07-0.515D-06 0.254D-05 0.774D-05 0.643D-04 0.123D-03
 Coeff-Com:  0.791D-04-0.454D-03-0.105D-02-0.299D-02 0.374D-02 0.165D-01
 Coeff-Com:  0.661D-02-0.370D-01-0.149D+00-0.637D-01 0.316D+00 0.911D+00
 Coeff:      0.916D-07-0.515D-06 0.254D-05 0.774D-05 0.643D-04 0.123D-03
 Coeff:      0.791D-04-0.454D-03-0.105D-02-0.299D-02 0.374D-02 0.165D-01
 Coeff:      0.661D-02-0.370D-01-0.149D+00-0.637D-01 0.316D+00 0.911D+00
 Gap=     0.123 Goal=   None    Shift=    0.000
 RMSDP=1.00D-08 MaxDP=8.06D-07 DE=-2.11D-10 OVMax= 7.01D-06

 Cycle  19  Pass 1  IDiag  1:
 RMSU=  3.22D-09    CP:  9.64D-01  1.50D+00  6.90D-01  6.32D-01  9.07D-01
                    CP:  9.41D-01  1.19D+00  1.28D+00  1.67D+00  2.11D+00
                    CP:  1.93D+00  1.96D+00  1.40D+00  1.41D+00  1.72D+00
                    CP:  1.88D+00  1.84D+00  1.21D+00
 E= -4069.81254975962     Delta-E=        0.000000000000 Rises=F Damp=F
 DIIS: error= 3.42D-08 at cycle  19 NSaved=  19.
 NSaved=19 IEnMin=18 EnMin= -4069.81254975962     IErMin=19 ErrMin= 3.42D-08
 ErrMax= 3.42D-08  0.00D+00 EMaxC= 1.00D-01 BMatC= 3.17D-12 BMatP= 5.47D-12
 IDIUse=1 WtCom= 1.00D+00 WtEn= 0.00D+00
 Coeff-Com:  0.338D-05-0.685D-05-0.111D-04-0.134D-04 0.196D-04 0.163D-03
 Coeff-Com:  0.615D-03 0.892D-03-0.114D-02-0.734D-02-0.490D-02 0.165D-01
 Coeff-Com:  0.248D-01 0.937D-02-0.905D-01-0.206D+00-0.134D+00 0.626D+00
 Coeff-Com:  0.766D+00
 Coeff:      0.338D-05-0.685D-05-0.111D-04-0.134D-04 0.196D-04 0.163D-03
 Coeff:      0.615D-03 0.892D-03-0.114D-02-0.734D-02-0.490D-02 0.165D-01
 Coeff:      0.248D-01 0.937D-02-0.905D-01-0.206D+00-0.134D+00 0.626D+00
 Coeff:      0.766D+00
 Gap=     0.123 Goal=   None    Shift=    0.000
 RMSDP=7.42D-09 MaxDP=5.24D-07 DE= 0.00D+00 OVMax= 4.33D-06

 SCF Done:  E(RCAM-B3LYP) =  -4069.81254976     A.U. after   19 cycles
            NFock= 19  Conv=0.74D-08     -V/T= 2.0102
 KE= 4.028800194587D+03 PE=-4.026344578005D+04 EE= 1.677405658958D+04
 Leave Link  502 at Thu Sep  9 17:01:19 2021, MaxMem= 23488102400 cpu:           14763.4 elap:             640.6
 (Enter /sw/apps/gaussian-16.0/g16/l801.exe)
 DoSCS=F DFT=T ScalE2(SS,OS)=  1.000000  1.000000
 ExpMin= 3.36D-02 ExpMax= 4.95D+03 ExpMxC= 7.45D+02 IAcc=3 IRadAn=         5 AccDes= 0.00D+00
 HarFok:  IExCor=  205 AccDes= 0.00D+00 IRadAn=         5 IDoV=-2 UseB2=F ITyADJ=14
 ICtDFT= 12500011 ScaDFX=  1.000000  1.000000  1.000000  1.000000
 GSVD:  LWork=       -9588 too small for GESVD, short by       45590 words or       45590 for optimal perf.
 Largest valence mixing into a core orbital is  2.02D-04
 Largest core mixing into a valence orbital is  5.23D-05
 Range of M.O.s used for correlation:    95  1572
 NBasis=  1572 NAE=   312 NBE=   312 NFC=    94 NFV=     0
 NROrb=   1478 NOA=   218 NOB=   218 NVA=  1260 NVB=  1260
 Leave Link  801 at Thu Sep  9 17:01:20 2021, MaxMem= 23488102400 cpu:               8.6 elap:               0.4
 (Enter /sw/apps/gaussian-16.0/g16/l914.exe)
 RHF ground state
 Two-electron integrals replicated using symmetry.
 MDV= 23488102400 DFT=T DoStab=F Mixed=T DoRPA=T DoScal=F NonHer=T
 Making orbital integer symmetry assigments:
 Orbital symmetries:
       Occupied  (A) (A) (A) (A) (A) (A) (A) (A) (A) (A) (A) (A)
                 (A) (A) (A) (A) (A) (A) (A) (A) (A) (A) (A) (A)
                 (A) (A) (A) (A) (A) (A) (A) (A) (A) (A) (A) (A)
                 (A) (A) (A) (A) (A) (A) (A) (A) (A) (A) (A) (A)
                 (A) (A) (A) (A) (A) (A) (A) (A) (A) (A) (A) (A)
                 (A) (A) (A) (A) (A) (A) (A) (A) (A) (A) (A) (A)
                 (A) (A) (A) (A) (A) (A) (A) (A) (A) (A) (A) (A)
                 (A) (A) (A) (A) (A) (A) (A) (A) (A) (A) (A) (A)
                 (A) (A) (A) (A) (A) (A) (A) (A) (A) (A) (A) (A)
                 (A) (A) (A) (A) (A) (A) (A) (A) (A) (A) (A) (A)
                 (A) (A) (A) (A) (A) (A) (A) (A) (A) (A) (A) (A)
                 (A) (A) (A) (A) (A) (A) (A) (A) (A) (A) (A) (A)
                 (A) (A) (A) (A) (A) (A) (A) (A) (A) (A) (A) (A)
                 (A) (A) (A) (A) (A) (A) (A) (A) (A) (A) (A) (A)
                 (A) (A) (A) (A) (A) (A) (A) (A) (A) (A) (A) (A)
                 (A) (A) (A) (A) (A) (A) (A) (A) (A) (A) (A) (A)
                 (A) (A) (A) (A) (A) (A) (A) (A) (A) (A) (A) (A)
                 (A) (A) (A) (A) (A) (A) (A) (A) (A) (A) (A) (A)
                 (A) (A) (A) (A) (A) (A) (A) (A) (A) (A) (A) (A)
                 (A) (A) (A) (A) (A) (A) (A) (A) (A) (A) (A) (A)
                 (A) (A) (A) (A) (A) (A) (A) (A) (A) (A) (A) (A)
                 (A) (A) (A) (A) (A) (A) (A) (A) (A) (A) (A) (A)
                 (A) (A) (A) (A) (A) (A) (A) (A) (A) (A) (A) (A)
                 (A) (A) (A) (A) (A) (A) (A) (A) (A) (A) (A) (A)
                 (A) (A) (A) (A) (A) (A) (A) (A) (A) (A) (A) (A)
                 (A) (A) (A) (A) (A) (A) (A) (A) (A) (A) (A) (A)
       Virtual   (A) (A) (A) (A) (A) (A) (A) (A) (A) (A) (A) (A)
                 (A) (A) (A) (A) (A) (A) (A) (A) (A) (A) (A) (A)
                 (A) (A) (A) (A) (A) (A) (A) (A) (A) (A) (A) (A)
                 (A) (A) (A) (A) (A) (A) (A) (A) (A) (A) (A) (A)
                 (A) (A) (A) (A) (A) (A) (A) (A) (A) (A) (A) (A)
                 (A) (A) (A) (A) (A) (A) (A) (A) (A) (A) (A) (A)
                 (A) (A) (A) (A) (A) (A) (A) (A) (A) (A) (A) (A)
                 (A) (A) (A) (A) (A) (A) (A) (A) (A) (A) (A) (A)
                 (A) (A) (A) (A) (A) (A) (A) (A) (A) (A) (A) (A)
                 (A) (A) (A) (A) (A) (A) (A) (A) (A) (A) (A) (A)
                 (A) (A) (A) (A) (A) (A) (A) (A) (A) (A) (A) (A)
                 (A) (A) (A) (A) (A) (A) (A) (A) (A) (A) (A) (A)
                 (A) (A) (A) (A) (A) (A) (A) (A) (A) (A) (A) (A)
                 (A) (A) (A) (A) (A) (A) (A) (A) (A) (A) (A) (A)
                 (A) (A) (A) (A) (A) (A) (A) (A) (A) (A) (A) (A)
                 (A) (A) (A) (A) (A) (A) (A) (A) (A) (A) (A) (A)
                 (A) (A) (A) (A) (A) (A) (A) (A) (A) (A) (A) (A)
                 (A) (A) (A) (A) (A) (A) (A) (A) (A) (A) (A) (A)
                 (A) (A) (A) (A) (A) (A) (A) (A) (A) (A) (A) (A)
                 (A) (A) (A) (A) (A) (A) (A) (A) (A) (A) (A) (A)
                 (A) (A) (A) (A) (A) (A) (A) (A) (A) (A) (A) (A)
                 (A) (A) (A) (A) (A) (A) (A) (A) (A) (A) (A) (A)
                 (A) (A) (A) (A) (A) (A) (A) (A) (A) (A) (A) (A)
                 (A) (A) (A) (A) (A) (A) (A) (A) (A) (A) (A) (A)
                 (A) (A) (A) (A) (A) (A) (A) (A) (A) (A) (A) (A)
                 (A) (A) (A) (A) (A) (A) (A) (A) (A) (A) (A) (A)
                 (A) (A) (A) (A) (A) (A) (A) (A) (A) (A) (A) (A)
                 (A) (A) (A) (A) (A) (A) (A) (A) (A) (A) (A) (A)
                 (A) (A) (A) (A) (A) (A) (A) (A) (A) (A) (A) (A)
                 (A) (A) (A) (A) (A) (A) (A) (A) (A) (A) (A) (A)
                 (A) (A) (A) (A) (A) (A) (A) (A) (A) (A) (A) (A)
                 (A) (A) (A) (A) (A) (A) (A) (A) (A) (A) (A) (A)
                 (A) (A) (A) (A) (A) (A) (A) (A) (A) (A) (A) (A)
                 (A) (A) (A) (A) (A) (A) (A) (A) (A) (A) (A) (A)
                 (A) (A) (A) (A) (A) (A) (A) (A) (A) (A) (A) (A)
                 (A) (A) (A) (A) (A) (A) (A) (A) (A) (A) (A) (A)
                 (A) (A) (A) (A) (A) (A) (A) (A) (A) (A) (A) (A)
                 (A) (A) (A) (A) (A) (A) (A) (A) (A) (A) (A) (A)
                 (A) (A) (A) (A) (A) (A) (A) (A) (A) (A) (A) (A)
                 (A) (A) (A) (A) (A) (A) (A) (A) (A) (A) (A) (A)
                 (A) (A) (A) (A) (A) (A) (A) (A) (A) (A) (A) (A)
                 (A) (A) (A) (A) (A) (A) (A) (A) (A) (A) (A) (A)
                 (A) (A) (A) (A) (A) (A) (A) (A) (A) (A) (A) (A)
                 (A) (A) (A) (A) (A) (A) (A) (A) (A) (A) (A) (A)
                 (A) (A) (A) (A) (A) (A) (A) (A) (A) (A) (A) (A)
                 (A) (A) (A) (A) (A) (A) (A) (A) (A) (A) (A) (A)
                 (A) (A) (A) (A) (A) (A) (A) (A) (A) (A) (A) (A)
                 (A) (A) (A) (A) (A) (A) (A) (A) (A) (A) (A) (A)
                 (A) (A) (A) (A) (A) (A) (A) (A) (A) (A) (A) (A)
                 (A) (A) (A) (A) (A) (A) (A) (A) (A) (A) (A) (A)
                 (A) (A) (A) (A) (A) (A) (A) (A) (A) (A) (A) (A)
                 (A) (A) (A) (A) (A) (A) (A) (A) (A) (A) (A) (A)
                 (A) (A) (A) (A) (A) (A) (A) (A) (A) (A) (A) (A)
                 (A) (A) (A) (A) (A) (A) (A) (A) (A) (A) (A) (A)
                 (A) (A) (A) (A) (A) (A) (A) (A) (A) (A) (A) (A)
                 (A) (A) (A) (A) (A) (A) (A) (A) (A) (A) (A) (A)
                 (A) (A) (A) (A) (A) (A) (A) (A) (A) (A) (A) (A)
                 (A) (A) (A) (A) (A) (A) (A) (A) (A) (A) (A) (A)
                 (A) (A) (A) (A) (A) (A) (A) (A) (A) (A) (A) (A)
                 (A) (A) (A) (A) (A) (A) (A) (A) (A) (A) (A) (A)
                 (A) (A) (A) (A) (A) (A) (A) (A) (A) (A) (A) (A)
                 (A) (A) (A) (A) (A) (A) (A) (A) (A) (A) (A) (A)
                 (A) (A) (A) (A) (A) (A) (A) (A) (A) (A) (A) (A)
                 (A) (A) (A) (A) (A) (A) (A) (A) (A) (A) (A) (A)
                 (A) (A) (A) (A) (A) (A) (A) (A) (A) (A) (A) (A)
                 (A) (A) (A) (A) (A) (A) (A) (A) (A) (A) (A) (A)
                 (A) (A) (A) (A) (A) (A) (A) (A) (A) (A) (A) (A)
                 (A) (A) (A) (A) (A) (A) (A) (A) (A) (A) (A) (A)
                 (A) (A) (A) (A) (A) (A) (A) (A) (A) (A) (A) (A)
                 (A) (A) (A) (A) (A) (A) (A) (A) (A) (A) (A) (A)
                 (A) (A) (A) (A) (A) (A) (A) (A) (A) (A) (A) (A)
                 (A) (A) (A) (A) (A) (A) (A) (A) (A) (A) (A) (A)
                 (A) (A) (A) (A) (A) (A) (A) (A) (A) (A) (A) (A)
                 (A) (A) (A) (A) (A) (A) (A) (A) (A) (A) (A) (A)
                 (A) (A) (A) (A) (A) (A) (A) (A) (A) (A) (A) (A)
                 (A) (A) (A) (A) (A) (A) (A) (A) (A) (A) (A) (A)
                 (A) (A) (A) (A) (A) (A) (A) (A) (A) (A) (A) (A)
                 (A) (A) (A) (A) (A) (A) (A) (A) (A) (A) (A) (A)
                 (A) (A) (A) (A) (A) (A) (A) (A) (A) (A) (A) (A)
                 (A) (A) (A) (A) (A) (A) (A) (A) (A) (A) (A) (A)
                 (A) (A) (A) (A) (A) (A) (A) (A) (A) (A) (A) (A)
                 (A) (A) (A) (A) (A) (A) (A) (A) (A) (A) (A) (A)
                 (A) (A) (A) (A) (A) (A) (A) (A) (A) (A) (A) (A)
                 (A) (A) (A) (A) (A) (A) (A) (A) (A) (A) (A) (A)
                 (A) (A) (A) (A) (A) (A) (A) (A) (A) (A) (A) (A)
                 (A) (A) (A) (A) (A) (A) (A) (A) (A) (A) (A) (A)
                 (A) (A) (A) (A) (A) (A) (A) (A) (A) (A) (A) (A)
                 (A) (A) (A) (A) (A) (A) (A) (A) (A) (A) (A) (A)
                 (A) (A) (A) (A) (A) (A) (A) (A) (A) (A) (A) (A)
                 (A) (A) (A) (A) (A) (A) (A) (A) (A) (A) (A) (A)
                 (A) (A) (A) (A) (A) (A) (A) (A) (A) (A) (A) (A)
                 (A) (A) (A) (A) (A) (A) (A) (A) (A) (A) (A) (A)
                 (A) (A) (A) (A) (A) (A) (A) (A) (A) (A) (A) (A)
                 (A) (A) (A) (A) (A) (A) (A) (A) (A) (A) (A) (A)
                 (A) (A) (A) (A) (A) (A) (A) (A) (A) (A) (A) (A)
                 (A) (A) (A) (A) (A) (A) (A) (A) (A) (A) (A) (A)
                 (A) (A) (A) (A) (A) (A) (A) (A) (A) (A) (A) (A)
                 (A) (A) (A) (A) (A) (A) (A) (A) (A) (A) (A) (A)
                 (A) (A) (A) (A) (A) (A) (A) (A) (A) (A) (A) (A)
                 (A) (A) (A) (A) (A) (A) (A) (A) (A) (A) (A) (A)
                 (A) (A) (A) (A) (A) (A) (A) (A) (A) (A) (A) (A)
                 (A) (A) (A) (A) (A) (A) (A) (A) (A) (A) (A) (A)
                 (A) (A) (A) (A) (A) (A) (A) (A) (A) (A) (A) (A)
                 (A) (A) (A) (A) (A) (A) (A) (A) (A) (A) (A) (A)
                 (A) (A) (A) (A) (A) (A) (A) (A) (A) (A) (A) (A)
    20 initial guesses have been made.
 Convergence on wavefunction:    0.001000000000000
 Davidson Disk Diagonalization:  ConvIn= 1.00D-03 SkipCon=T Conv= 1.00D-03.
 Max sub-space:  2000 roots to seek:    20 dimension of matrix:       549360
 Iteration     1 Dimension    20 NMult     0 NNew     20
 CISAX will form    20 AO SS matrices at one time.
 NMat=    20 NSing=    20 JSym2X= 0.
 FoFJK:  IHMeth= 1 ICntrl=       0 DoSepK=T KAlg= 0 I1Cent=           0 FoldK=F
 IRaf=         1 NMat=      40 IRICut=       1 DoRegI=T DoRafI=F ISym2E= 0 IDoP0=3 IntGTp=3.
 FoFCou: FMM=T IPFlag=           0 FMFlag=      100000 FMFlg1=        2001
         NFxFlg=           0 DoJE=F BraDBF=F KetDBF=F FulRan=T
         wScrn=  0.000000 ICntrl=       500 IOpCl=  0 I1Cent=           0 NGrid=           0
         NMat0=   20 NMatS0=     20 NMatT0=    0 NMatD0=   20 NMtDS0=    0 NMtDT0=    0
 Symmetry not used in FoFCou.
 FMM levels:  10  Number of levels for PrismC:   9
 New state      2 was old state      4
 New state      3 was old state      7
 New state      4 was old state      6
 New state      5 was old state      2
 Excitation Energies [eV] at current iteration:
 Root      1 :     2.469304760112158
 Root      2 :     2.501793122492716
 Root      3 :     2.605721240339090
 Root      4 :     2.615249958405760
 Root      5 :     2.633801889742776
 Root      6 :     2.749475627382573
 Root      7 :     3.268617744998180
 Root      8 :     3.292017859698568
 Root      9 :     3.639057029611282
 Root     10 :     3.677022754379742
 Root     11 :     3.726324927741226
 Root     12 :     3.753082561684147
 Root     13 :     4.261289129651105
 Root     14 :     4.353654995777263
 Root     15 :     4.395031033503620
 Root     16 :     4.403219805509534
 Root     17 :     4.689843242552477
 Root     18 :     4.697463817410150
 Root     19 :     4.726356557366151
 Root     20 :     4.728672578380854
 Iteration     2 Dimension    30 NMult    20 NNew     10
 CISAX will form    10 AO SS matrices at one time.
 NMat=    10 NSing=    10 JSym2X= 0.
 New state      1 was old state      3
 Root      1 not converged, maximum delta is    0.387601439538836
 New state      2 was old state      4
 Root      2 not converged, maximum delta is    0.135437725099077
 New state      3 was old state      5
 Root      3 not converged, maximum delta is    0.249857569512476
 New state      4 was old state      1
 Root      4 not converged, maximum delta is    0.002609073229786
 New state      5 was old state      2
 Root      5 not converged, maximum delta is    0.002836930308354
 Excitation Energies [eV] at current iteration:
 Root      1 :     1.772010476709986   Change is   -0.833710763629104
 Root      2 :     2.231103287623905   Change is   -0.384146670781856
 Root      3 :     2.243675447610751   Change is   -0.390126442132025
 Root      4 :     2.468718921850042   Change is   -0.000585838262116
 Root      5 :     2.501179455777950   Change is   -0.000613666714767
 Iteration     3 Dimension    40 NMult    30 NNew     10
 CISAX will form    10 AO SS matrices at one time.
 NMat=    10 NSing=    10 JSym2X= 0.
 Root      1 not converged, maximum delta is    0.053232564705279
 Root      2 not converged, maximum delta is    0.061493616595663
 Root      3 not converged, maximum delta is    0.069613182089293
 Root      4 has converged.
 Root      5 has converged.
 Excitation Energies [eV] at current iteration:
 Root      1 :     1.667798197381006   Change is   -0.104212279328981
 Root      2 :     2.186775103756420   Change is   -0.044328183867485
 Root      3 :     2.201507849937524   Change is   -0.042167597673227
 Root      4 :     2.468715421177702   Change is   -0.000003500672340
 Root      5 :     2.501175204145690   Change is   -0.000004251632260
 Iteration     4 Dimension    46 NMult    40 NNew      6
 CISAX will form     6 AO SS matrices at one time.
 NMat=     6 NSing=     6 JSym2X= 0.
 Root      1 not converged, maximum delta is    0.010365098447814
 Root      2 not converged, maximum delta is    0.308218246214719
 Root      3 not converged, maximum delta is    0.284536090503519
 No map to state      4
 New state      5 was old state      4
 Root      5 has converged.
 Excitation Energies [eV] at current iteration:
 Root      1 :     1.651225477965931   Change is   -0.016572719415074
 Root      2 :     2.100429800017349   Change is   -0.086345303739070
 Root      3 :     2.190743467211075   Change is   -0.010764382726449
 Root      4 :     2.267620838977698
 Root      5 :     2.468715426576352   Change is    0.000000005398649
 Iteration     5 Dimension    54 NMult    46 NNew      8
 CISAX will form     8 AO SS matrices at one time.
 NMat=     8 NSing=     8 JSym2X= 0.
 Root      1 not converged, maximum delta is    0.001859038017650
 Root      2 not converged, maximum delta is    0.371396791581339
 Root      3 not converged, maximum delta is    0.405929182943979
 Root      4 not converged, maximum delta is    0.351829875780735
 Root      5 has converged.
 Excitation Energies [eV] at current iteration:
 Root      1 :     1.649532099097022   Change is   -0.001693378868909
 Root      2 :     1.763972101646357   Change is   -0.336457698370993
 Root      3 :     2.184810279422178   Change is   -0.005933187788897
 Root      4 :     2.198111007081213   Change is   -0.069509831896485
 Root      5 :     2.468715424876534   Change is   -0.000000001699817
 Iteration     6 Dimension    62 NMult    54 NNew      8
 CISAX will form     8 AO SS matrices at one time.
 NMat=     8 NSing=     8 JSym2X= 0.
 Root      1 not converged, maximum delta is    0.002409092501158
 Root      2 not converged, maximum delta is    0.021024378350130
 Root      3 not converged, maximum delta is    0.039053464024306
 Root      4 not converged, maximum delta is    0.039056011853580
 Root      5 has converged.
 Excitation Energies [eV] at current iteration:
 Root      1 :     1.649287375972637   Change is   -0.000244723124385
 Root      2 :     1.710465536593239   Change is   -0.053506565053118
 Root      3 :     2.183893625833823   Change is   -0.000916653588355
 Root      4 :     2.196941171211769   Change is   -0.001169835869443
 Root      5 :     2.468715424786292   Change is   -0.000000000090242
 Iteration     7 Dimension    70 NMult    62 NNew      8
 CISAX will form     8 AO SS matrices at one time.
 NMat=     8 NSing=     8 JSym2X= 0.
 Root      1 has converged.
 Root      2 not converged, maximum delta is    0.005655226095866
 Root      3 not converged, maximum delta is    0.003871597069411
 Root      4 not converged, maximum delta is    0.004057088939700
 Root      5 has converged.
 Excitation Energies [eV] at current iteration:
 Root      1 :     1.649262330429479   Change is   -0.000025045543158
[...]
 Alpha virt. eigenvalues --    1.83619   1.83948   1.84097   1.84303   1.84316
 Alpha virt. eigenvalues --    1.84635   1.84721   1.84919   1.85083   1.85233
 Alpha virt. eigenvalues --    1.85337   1.85494   1.85526   1.85658   1.85831
 Alpha virt. eigenvalues --    1.86018   1.86126   1.86508   1.86623   1.86735
 Alpha virt. eigenvalues --    1.86853   1.86941   1.87046   1.87113   1.87243
 Alpha virt. eigenvalues --    1.87589   1.87689   1.87840   1.87904   1.88116
 Alpha virt. eigenvalues --    1.88128   1.88287   1.88302   1.88700   1.88804
 Alpha virt. eigenvalues --    1.89046   1.89066   1.89135   1.89405   1.89803
 Alpha virt. eigenvalues --    1.89906   1.89998   1.90073   1.90304   1.90392
 Alpha virt. eigenvalues --    1.90967   1.90975   1.91492   1.91584   1.91673
 Alpha virt. eigenvalues --    1.91705   1.92274   1.92393   1.92757   1.92851
 Alpha virt. eigenvalues --    1.93225   1.93272   1.93586   1.93618   1.94398
 Alpha virt. eigenvalues --    1.94548   1.94933   1.94951   1.95633   1.95779
 Alpha virt. eigenvalues --    1.95891   1.95976   1.96159   1.96213   1.96258
 Alpha virt. eigenvalues --    1.96406   1.96580   1.96827   1.97067   1.97168
 Alpha virt. eigenvalues --    1.97607   1.97683   1.97876   1.98066   1.98256
 Alpha virt. eigenvalues --    1.98395   1.98408   1.98825   1.99183   1.99366
 Alpha virt. eigenvalues --    2.00030   2.00056   2.00823   2.00909   2.01174
 Alpha virt. eigenvalues --    2.01237   2.01578   2.01692   2.01701   2.01902
 Alpha virt. eigenvalues --    2.01941   2.02016   2.02807   2.03026   2.03235
 Alpha virt. eigenvalues --    2.03461   2.03481   2.03604   2.03635   2.03701
 Alpha virt. eigenvalues --    2.04115   2.04280   2.05107   2.05231   2.05758
 Alpha virt. eigenvalues --    2.05782   2.06337   2.06402   2.07070   2.07096
 Alpha virt. eigenvalues --    2.07406   2.07440   2.08715   2.08875   2.09109
 Alpha virt. eigenvalues --    2.09242   2.09719   2.09835   2.11024   2.11170
 Alpha virt. eigenvalues --    2.11431   2.11521   2.11619   2.11769   2.11997
 Alpha virt. eigenvalues --    2.12005   2.12562   2.12702   2.12926   2.12966
 Alpha virt. eigenvalues --    2.13064   2.13095   2.13725   2.14001   2.14339
 Alpha virt. eigenvalues --    2.14373   2.15531   2.15592   2.16144   2.16159
 Alpha virt. eigenvalues --    2.16703   2.16778   2.16981   2.17258   2.17651
 Alpha virt. eigenvalues --    2.17753   2.17940   2.18013   2.18105   2.18312
 Alpha virt. eigenvalues --    2.18537   2.18722   2.19087   2.19300   2.19869
 Alpha virt. eigenvalues --    2.19923   2.20299   2.20313   2.20423   2.20552
 Alpha virt. eigenvalues --    2.21288   2.21428   2.21856   2.21921   2.21949
 Alpha virt. eigenvalues --    2.21956   2.22815   2.22940   2.23428   2.23548
 Alpha virt. eigenvalues --    2.24529   2.24671   2.25119   2.25294   2.26518
 Alpha virt. eigenvalues --    2.26527   2.27025   2.27101   2.27287   2.27325
 Alpha virt. eigenvalues --    2.28384   2.28418   2.29521   2.29562   2.29972
 Alpha virt. eigenvalues --    2.29979   2.30663   2.30687   2.30867   2.31275
 Alpha virt. eigenvalues --    2.31306   2.31370   2.32353   2.32386   2.33335
 Alpha virt. eigenvalues --    2.33373   2.33572   2.33699   2.34225   2.34385
 Alpha virt. eigenvalues --    2.35331   2.35546   2.36019   2.36050   2.36454
 Alpha virt. eigenvalues --    2.36548   2.36615   2.36891   2.37733   2.37977
 Alpha virt. eigenvalues --    2.38527   2.38550   2.38877   2.39095   2.39768
 Alpha virt. eigenvalues --    2.39860   2.40345   2.40458   2.40723   2.40919
 Alpha virt. eigenvalues --    2.41296   2.41489   2.41797   2.41949   2.42183
 Alpha virt. eigenvalues --    2.42231   2.42949   2.42983   2.43221   2.43616
 Alpha virt. eigenvalues --    2.44089   2.44393   2.44915   2.44986   2.45069
 Alpha virt. eigenvalues --    2.45142   2.45673   2.45786   2.46409   2.46585
 Alpha virt. eigenvalues --    2.46600   2.46715   2.46880   2.47036   2.47450
 Alpha virt. eigenvalues --    2.47466   2.47959   2.47987   2.49523   2.49584
 Alpha virt. eigenvalues --    2.50001   2.50338   2.50599   2.50843   2.51329
 Alpha virt. eigenvalues --    2.51343   2.51735   2.52136   2.52465   2.52663
 Alpha virt. eigenvalues --    2.53048   2.53256   2.54084   2.54168   2.54427
 Alpha virt. eigenvalues --    2.54442   2.54884   2.55022   2.55765   2.55781
 Alpha virt. eigenvalues --    2.58137   2.58196   2.58884   2.59000   2.60358
 Alpha virt. eigenvalues --    2.60418   2.60850   2.61016   2.61934   2.61980
 Alpha virt. eigenvalues --    2.62523   2.62771   2.63184   2.63205   2.64191
 Alpha virt. eigenvalues --    2.64320   2.64477   2.64511   2.65182   2.65313
 Alpha virt. eigenvalues --    2.65942   2.66028   2.66924   2.67031   2.67152
 Alpha virt. eigenvalues --    2.67167   2.68062   2.68152   2.68913   2.69073
 Alpha virt. eigenvalues --    2.69098   2.69242   2.69635   2.69679   2.70215
 Alpha virt. eigenvalues --    2.70251   2.71120   2.71203   2.71927   2.72247
 Alpha virt. eigenvalues --    2.72509   2.72772   2.72848   2.72978   2.73376
 Alpha virt. eigenvalues --    2.73425   2.73543   2.73647   2.74572   2.74739
 Alpha virt. eigenvalues --    2.75126   2.75200   2.76601   2.76830   2.77125
 Alpha virt. eigenvalues --    2.77448   2.77709   2.77716   2.78416   2.78471
 Alpha virt. eigenvalues --    2.78755   2.78935   2.79215   2.79368   2.80381
 Alpha virt. eigenvalues --    2.80586   2.80716   2.80806   2.81216   2.81322
 Alpha virt. eigenvalues --    2.82036   2.82172   2.82403   2.82579   2.83919
 Alpha virt. eigenvalues --    2.83936   2.83973   2.84066   2.84615   2.84786
 Alpha virt. eigenvalues --    2.84958   2.85129   2.85799   2.85939   2.86687
 Alpha virt. eigenvalues --    2.87159   2.87193   2.87751   2.88364   2.88450
 Alpha virt. eigenvalues --    2.88670   2.88726   2.88952   2.89173   2.90716
 Alpha virt. eigenvalues --    2.90736   2.91135   2.91420   2.93384   2.93403
 Alpha virt. eigenvalues --    2.93851   2.94448   2.94675   2.94827   2.95529
 Alpha virt. eigenvalues --    2.95586   2.95770   2.96322   2.96440   2.96669
 Alpha virt. eigenvalues --    2.96844   2.97324   2.98010   2.98157   2.98380
 Alpha virt. eigenvalues --    2.98493   2.98582   2.98648   2.98805   2.98821
 Alpha virt. eigenvalues --    2.98997   2.99131   2.99851   2.99950   3.00002
 Alpha virt. eigenvalues --    3.00206   3.00462   3.00506   3.00681   3.01058
 Alpha virt. eigenvalues --    3.01968   3.02164   3.02231   3.02284   3.02848
 Alpha virt. eigenvalues --    3.02889   3.03180   3.03443   3.03614   3.03760
 Alpha virt. eigenvalues --    3.04099   3.04376   3.04530   3.04666   3.04754
 Alpha virt. eigenvalues --    3.04870   3.05457   3.05551   3.06225   3.06365
 Alpha virt. eigenvalues --    3.07008   3.07039   3.08047   3.08439   3.09453
 Alpha virt. eigenvalues --    3.09643   3.09927   3.10485   3.10685   3.10821
 Alpha virt. eigenvalues --    3.11537   3.11568   3.11969   3.12154   3.12355
 Alpha virt. eigenvalues --    3.12466   3.13530   3.13724   3.13782   3.13904
 Alpha virt. eigenvalues --    3.14220   3.14426   3.16060   3.16215   3.17488
 Alpha virt. eigenvalues --    3.17573   3.17998   3.18363   3.19132   3.19399
 Alpha virt. eigenvalues --    3.22426   3.22557   3.24187   3.24488   3.24853
 Alpha virt. eigenvalues --    3.25204   3.26728   3.26748   3.27458   3.27859
 Alpha virt. eigenvalues --    3.29158   3.29209   3.31444   3.31762   3.33267
 Alpha virt. eigenvalues --    3.33673   3.40163   3.40707   3.42930   3.43099
 Alpha virt. eigenvalues --    3.48740   3.48870   3.50279   3.50364   3.50919
 Alpha virt. eigenvalues --    3.51732   3.56806   3.57087   3.59351   3.59418
 Alpha virt. eigenvalues --    3.62571   3.63064   3.66232   3.66469   3.67289
 Alpha virt. eigenvalues --    3.67467   3.73390   3.73967   3.76195   3.76639
          Condensed to atoms (all electrons):
 Mulliken charges:
               1
     1  Mg   0.839819
     2  C   -0.003125
     3  C   -0.092193
     4  C   -0.046135
     5  C   -0.063852
     6  N   -0.256816
     7  C   -0.052532
     8  C   -0.014315
     9  C   -0.087362
    10  C    0.047015
    11  C    0.104867
    12  C    0.052877
    13  C   -0.070968
    14  H    0.033543
    15  N   -0.433364
    16  C    0.169887
    17  C   -0.175099
    18  C   -0.003154
    19  C    0.149194
    20  C    0.109917
    21  C    0.012998
    22  O   -0.250743
    23  C    0.061451
    24  N   -0.341212
    25  C    0.041586
    26  C   -0.028068
    27  C   -0.023739
    28  C    0.074496
    29  C    0.076380
    30  C    0.035172
    31  C   -0.004850
    32  N   -0.310161
    33  C    0.079859
    34  C   -0.170397
    35  C    0.007541
    36  C    0.082560
    37  C    0.127599
    38  C    0.045106
    39  O   -0.190467
    40  C   -0.005115
    41  C    0.212689
    42  O   -0.258166
    43  O   -0.304442
    44  C    0.158443
    45  H   -0.017597
    46  H   -0.017286
    47  H   -0.041897
    48  H    0.000033
    49  H   -0.003388
    50  H    0.025030
    51  H    0.016441
    52  H    0.016368
    53  H    0.014723
    54  H    0.043309
    55  H    0.017180
    56  H    0.018718
    57  H    0.005864
    58  H    0.025980
    59  H    0.044098
    60  H    0.036875
    61  H    0.034973
    62  H    0.035647
    63  H    0.016013
    64  H    0.008967
    65  H    0.022687
    66  H    0.012498
    67  H    0.004468
    68  H    0.005463
    69  H    0.004896
    70  H    0.007914
    71  H    0.019713
    72  H    0.029271
    73  H    0.046160
    74  H    0.009256
    75  H    0.045413
    76  H    0.034779
    77  H    0.042253
    78  H    0.046635
    79  H    0.051810
    80  Mg   0.838979
    81  C   -0.017062
    82  C   -0.086178
    83  C   -0.045648
    84  C   -0.064699
    85  N   -0.254656
    86  C   -0.049867
    87  C   -0.015384
    88  C   -0.090848
    89  C    0.046482
    90  C    0.114414
    91  C    0.061917
    92  C   -0.077096
    93  H    0.032410
    94  N   -0.423747
    95  C    0.164588
    96  C   -0.172950
    97  C   -0.006853
    98  C    0.152594
    99  C    0.099192
   100  C    0.016366
   101  O   -0.254114
   102  C    0.060198
   103  N   -0.350097
   104  C    0.037807
   105  C   -0.019762
   106  C   -0.034584
   107  C    0.088550
   108  C    0.073851
   109  C    0.034769
   110  C   -0.008105
   111  N   -0.323811
   112  C    0.077911
   113  C   -0.163861
   114  C    0.001371
   115  C    0.095788
   116  C    0.131796
   117  C    0.041270
   118  O   -0.189988
   119  C    0.001172
   120  C    0.211044
   121  O   -0.252171
   122  O   -0.305228
   123  C    0.152773
   124  H   -0.019598
   125  H   -0.015902
   126  H   -0.040754
   127  H   -0.001529
   128  H   -0.003679
   129  H    0.022033
   130  H    0.014423
   131  H    0.016049
   132  H    0.017351
   133  H    0.036894
   134  H    0.020101
   135  H    0.020422
   136  H    0.008763
   137  H    0.025418
   138  H    0.043983
   139  H    0.037794
   140  H    0.035911
   141  H    0.037786
   142  H    0.013988
   143  H    0.011950
   144  H    0.024696
   145  H    0.011579
   146  H    0.005424
   147  H    0.005423
   148  H    0.003895
   149  H    0.010113
   150  H    0.019663
   151  H    0.030307
   152  H    0.044469
   153  H    0.008775
   154  H    0.046386
   155  H    0.034688
   156  H    0.043225
   157  H    0.049833
   158  H    0.051591
 Sum of Mulliken charges =  -0.00000
 Mulliken charges with hydrogens summed into heavy atoms:
               1
     1  Mg   0.839819
     2  C   -0.003125
     3  C   -0.109790
     4  C   -0.063421
     5  C   -0.105749
     6  N   -0.256816
     7  C   -0.052532
     8  C   -0.014282
     9  C   -0.090750
    10  C    0.047015
    11  C    0.162706
    12  C    0.110909
    13  C   -0.001527
    15  N   -0.433364
    16  C    0.169887
    17  C   -0.175099
    18  C   -0.003154
    19  C    0.149194
    20  C    0.185859
    21  C    0.012998
    22  O   -0.250743
    23  C    0.168946
    24  N   -0.341212
    25  C    0.041586
    26  C   -0.012055
    27  C   -0.014773
    28  C    0.074496
    29  C    0.116034
    30  C    0.045531
    31  C    0.052049
    32  N   -0.310161
    33  C    0.079859
    34  C   -0.170397
    35  C    0.007541
    36  C    0.082560
    37  C    0.228428
    38  C    0.045106
    39  O   -0.190467
    40  C    0.029664
    41  C    0.212689
    42  O   -0.258166
    43  O   -0.304442
    44  C    0.299141
    80  Mg   0.838979
    81  C   -0.017062
    82  C   -0.105776
    83  C   -0.061550
    84  C   -0.105454
    85  N   -0.254656
    86  C   -0.049867
    87  C   -0.016913
    88  C   -0.094527
    89  C    0.046482
    90  C    0.166919
    91  C    0.116162
    92  C   -0.004163
    94  N   -0.423747
    95  C    0.164588
    96  C   -0.172950
    97  C   -0.006853
    98  C    0.152594
    99  C    0.177356
   100  C    0.016366
   101  O   -0.254114
   102  C    0.171689
   103  N   -0.350097
   104  C    0.037807
   105  C   -0.005774
   106  C   -0.022634
   107  C    0.088550
   108  C    0.115551
   109  C    0.044088
   110  C    0.051977
   111  N   -0.323811
   112  C    0.077911
   113  C   -0.163861
   114  C    0.001371
   115  C    0.095788
   116  C    0.231426
   117  C    0.041270
   118  O   -0.189988
   119  C    0.035860
   120  C    0.211044
   121  O   -0.252171
   122  O   -0.305228
   123  C    0.297421
 Electronic spatial extent (au):  <R**2>=          99143.1326
 Charge=             -0.0000 electrons
 Dipole moment (field-independent basis, Debye):
    X=              0.0946    Y=              3.1286    Z=             -0.2075  Tot=              3.1369
 Quadrupole moment (field-independent basis, Debye-Ang):
   XX=           -490.8886   YY=           -461.9217   ZZ=           -536.5696
   XY=              0.6652   XZ=             38.5723   YZ=              0.7031
 Traceless Quadrupole moment (field-independent basis, Debye-Ang):
   XX=              5.5713   YY=             34.5383   ZZ=            -40.1096
   XY=              0.6652   XZ=             38.5723   YZ=              0.7031
 Octapole moment (field-independent basis, Debye-Ang**2):
  XXX=              6.1254  YYY=            230.4937  ZZZ=             -1.6537  XYY=             -8.4821
  XXY=             56.2344  XXZ=             -9.2603  XZZ=              7.2854  YZZ=            123.0707
  YYZ=              0.7598  XYZ=            281.6128
 Hexadecapole moment (field-independent basis, Debye-Ang**3):
 XXXX=         -67735.6449 YYYY=         -32968.0401 ZZZZ=         -32226.6160 XXXY=             46.4131
 XXXZ=            796.3299 YYYX=              9.2098 YYYZ=             31.0874 ZZZX=           1773.8160
 ZZZY=             15.3034 XXYY=         -16098.3800 XXZZ=         -17521.2302 YYZZ=         -11504.1898
 XXYZ=             29.8328 YYXZ=           -776.1050 ZZXY=            -12.2108
 N-N= 1.539077644613D+04 E-N=-4.026344578313D+04  KE= 4.028800194587D+03
 Leave Link  601 at Thu Sep  9 17:30:22 2021, MaxMem= 23488102400 cpu:              19.0 elap:               0.9
 (Enter /sw/apps/gaussian-16.0/g16/l9999.exe)
 1\1\GINC-BP1-COMPUTE00089\SP\RCAM-B3LYP TD-FC\def2SVP\C68H72Mg2N8O8\OF
 15641\09-Sep-2021\0\\#p cam-b3lyp/Def2SVP td=(nstates=5)\\TDDFT excite
 d states in gaussian\\0,1\Mg,0,0.,0.,0.\C,0,-0.217,-2.218,2.801\C,0,-1
 .255,2.442,2.026\C,0,-0.245,1.85,-2.564\C,0,0.146,-2.824,-2.037\N,0,-0
 .617,-0.009,2.126\C,0,-0.594,-0.908,3.105\C,0,-0.936,-0.309,4.502\C,0,
 -1.773,0.964,4.032\C,0,-1.155,1.168,2.66\C,0,-3.263,0.685,3.863\C,0,0.
 345,0.11,5.299\C,0,0.124,0.397,6.787\H,0,1.168,0.033,7.733\N,0,-0.185,
 1.961,-0.152\C,0,-0.703,2.8,0.777\C,0,-0.62,4.156,0.193\C,0,-0.187,4.0
 15,-1.225\C,0,-0.214,2.583,-1.38\C,0,-0.887,5.406,0.974\C,0,0.181,5.01
 3,-2.277\O,0,0.303,4.69,-3.508\C,0,0.31,6.414,-1.837\N,0,-0.265,-0.413
 ,-2.029\C,0,-0.279,0.569,-2.937\C,0,-0.196,0.024,-4.332\C,0,0.124,-1.5
 33,-4.18\C,0,0.086,-1.632,-2.635\C,0,-1.451,0.205,-5.197\C,0,1.373,-2.
 07,-4.923\C,0,2.626,-1.49,-4.306\N,0,0.15,-2.144,0.303\C,0,0.173,-3.13
 6,-0.688\C,0,0.173,-4.438,0.004\C,0,0.133,-4.111,1.358\C,0,0.083,-2.69
 5,1.502\C,0,0.149,-5.715,-0.623\C,0,0.096,-4.629,2.716\O,0,0.208,-5.74
 7,3.221\C,0,-0.255,-3.428,3.701\C,0,0.717,-3.482,4.848\O,0,1.931,-3.25
 5,4.669\O,0,0.038,-3.556,6.003\C,0,0.943,-3.583,7.183\H,0,-1.859,3.22,
 2.497\H,0,-0.218,2.453,-3.474\H,0,0.276,-3.747,-2.605\H,0,-1.554,-0.94
 9,5.132\H,0,-1.585,1.831,4.665\H,0,-3.484,-0.377,3.969\H,0,-3.511,1.02
 7,2.858\H,0,-3.852,1.301,4.543\H,0,0.669,1.096,4.966\H,0,1.13,-0.639,5
 .189\H,0,-0.844,0.026,7.125\H,0,0.062,1.477,6.921\H,0,-1.344,5.186,1.9
 38\H,0,-1.651,5.963,0.432\H,0,0.007,6.02,1.084\H,0,-0.635,6.744,-1.405
 \H,0,0.665,6.97,-2.704\H,0,1.048,6.466,-1.036\H,0,0.608,0.501,-4.891\H
 ,0,-0.692,-2.156,-4.547\H,0,-1.267,0.74,-6.129\H,0,-2.204,0.714,-4.596
 \H,0,-1.967,-0.72,-5.453\H,0,1.356,-1.759,-5.967\H,0,1.452,-3.157,-4.9
 02\H,0,2.714,-0.522,-4.798\H,0,3.487,-2.121,-4.529\H,0,2.495,-1.303,-3
 .24\H,0,0.867,-6.333,-0.084\H,0,0.404,-5.642,-1.68\H,0,-0.891,-5.999,-
 0.463\H,0,-1.283,-3.581,4.028\H,0,0.698,-4.478,7.755\H,0,0.833,-2.619,
 7.68\H,0,2.,-3.754,6.976\Mg,0,8.92688,0.80052,0.68531\C,0,8.63395,3.52
 098,3.00744\C,0,9.85915,-1.15297,3.32147\C,0,9.62796,-1.49403,-1.39098
 \C,0,9.09266,3.17432,-1.86093\N,0,9.17662,1.24152,2.83831\C,0,8.97737,
 2.29546,3.61538\C,0,9.07776,2.00141,5.13624\C,0,10.00952,0.69527,5.067
 64\C,0,9.63842,0.20343,3.67013\C,0,11.49521,1.0144,5.0828\C,0,7.68192,
 1.67828,5.77597\C,0,7.65862,1.68538,7.30605\H,0,6.45788,2.16942,7.9816
 3\N,0,9.16142,-1.1511,0.95871\C,0,9.52093,-1.7755,2.09983\C,0,9.57347,
 -3.20924,1.77457\C,0,9.37633,-3.36499,0.30774\C,0,9.40225,-1.97773,-0.
 11049\C,0,9.71408,-4.27638,2.82092\C,0,9.20697,-4.5647,-0.57443\O,0,9.
 28857,-4.47895,-1.85068\C,0,9.03583,-5.85801,0.10348\N,0,9.51768,0.834
 75,-1.30771\C,0,9.70661,-0.30688,-1.99248\C,0,9.85659,-0.0378,-3.47082
 \C,0,9.48613,1.50562,-3.66632\C,0,9.26275,1.9012,-2.19017\C,0,11.24159
 ,-0.3069,-4.05882\C,0,8.37232,1.83695,-4.69702\C,0,7.04108,1.31817,-4.
 20299\N,0,8.69169,2.94324,0.53874\C,0,8.82812,3.73905,-0.61977\C,0,8.6
 9031,5.14833,-0.1986\C,0,8.50475,5.07529,1.19018\C,0,8.54563,3.71764,1
 .60806\C,0,8.79057,6.28462,-1.05002\C,0,8.29422,5.83866,2.39917\O,0,8.
 0886,7.02488,2.6528\C,0,8.4948,4.87463,3.64689\C,0,7.34244,5.08909,4.5
 8954\O,0,6.18484,4.78446,4.25225\O,0,7.82141,5.41245,5.80461\C,0,6.716
 47,5.62429,6.77726\H,0,10.37887,-1.7939,4.0342\H,0,9.76487,-2.25327,-2
 .16447\H,0,9.03457,3.96797,-2.60887\H,0,9.56463,2.77536,5.71739\H,0,9.
 72075,-0.03579,5.81832\H,0,11.67985,2.07639,5.01783\H,0,11.91441,0.504
 34,4.22538\H,0,11.96815,0.56594,5.96118\H,0,7.43776,0.62459,5.58923\H,
 0,6.92769,2.34192,5.4\H,0,8.55411,2.15604,7.72975\H,0,7.70654,0.65223,
 7.65864\H,0,10.00399,-3.85323,3.79061\H,0,10.56724,-4.89884,2.53019\H,
 0,8.82665,-4.90792,2.90037\H,0,9.89636,-6.04857,0.74038\H,0,8.84072,-6
 .58086,-0.69105\H,0,8.16365,-5.79424,0.76367\H,0,9.16462,-0.64085,-4.0
 4581\H,0,10.34793,2.08971,-4.02123\H,0,11.22708,-1.02855,-4.89733\H,0,
 11.88683,-0.65921,-3.26505\H,0,11.77208,0.57515,-4.41345\H,0,8.57049,1
 .33032,-5.64476\H,0,8.28317,2.89681,-4.9109\H,0,7.0586,0.26666,-4.5048
 2\H,0,6.22125,1.85196,-4.67941\H,0,6.9895,1.34609,-3.10836\H,0,7.99002
 ,6.95589,-0.76892\H,0,8.72424,6.00269,-2.09878\H,0,9.78912,6.64085,-0.
 78309\H,0,9.45148,5.12734,4.10566\H,0,6.85021,6.62494,7.19977\H,0,6.76
 804,4.77036,7.47862\H,0,5.70901,5.69368,6.38401\\Version=ES64L-G16RevA
 .03\State=1-A\HF=-4069.8125498\RMSD=7.415e-09\PG=C01 [X(C68H72Mg2N8O8)
 ]\\@


  THE LARGE PRINT GIVETH,
  AND THE SMALL PRINT TAKETH AWAY.

                     -- TOM WAITS
 Job cpu time:       0 days 15 hours 42 minutes 25.3 seconds.
 Elapsed time:       0 days  0 hours 39 minutes 58.1 seconds.
 File lengths (MBytes):  RWF=  13225 Int=      0 D2E=      0 Chk=    574 Scr=      1
 Normal termination of Gaussian 16 at Thu Sep  9 17:30:23 2021.
