 Entering Gaussian System, Link 0=g16
 Initial command:
 /sw/apps/gaussian-16.0/g16/l1.exe "/tmp/Gau-44890.inp" -scrdir="/tmp/"
 Entering Link 1 = /sw/apps/gaussian-16.0/g16/l1.exe PID=     44891.
  
 Copyright (c) 1988,1990,1992,1993,1995,1998,2003,2009,2016,
            Gaussian, Inc.  All Rights Reserved.
  
 This is part of the Gaussian(R) 16 program.  It is based on
 the Gaussian(R) 09 system (copyright 2009, Gaussian, Inc.),
 the Gaussian(R) 03 system (copyright 2003, Gaussian, Inc.),
 the Gaussian(R) 98 system (copyright 1998, Gaussian, Inc.),
 the Gaussian(R) 94 system (copyright 1995, Gaussian, Inc.),
 the Gaussian 92(TM) system (copyright 1992, Gaussian, Inc.),
 the Gaussian 90(TM) system (copyright 1990, Gaussian, Inc.),
 the Gaussian 88(TM) system (copyright 1988, Gaussian, Inc.),
 the Gaussian 86(TM) system (copyright 1986, Carnegie Mellon
 University), and the Gaussian 82(TM) system (copyright 1983,
 Carnegie Mellon University). Gaussian is a federally registered
 trademark of Gaussian, Inc.
  
 This software contains proprietary and confidential information,
 including trade secrets, belonging to Gaussian, Inc.
  
 This software is provided under written license and may be
 used, copied, transmitted, or stored only in accord with that
 written license.
  
 The following legend is applicable only to US Government
 contracts under FAR:
  
                    RESTRICTED RIGHTS LEGEND
  
 Use, reproduction and disclosure by the US Government is
 subject to restrictions as set forth in subparagraphs (a)
 and (c) of the Commercial Computer Software - Restricted
 Rights clause in FAR 52.227-19.
  
 Gaussian, Inc.
 340 Quinnipiac St., Bldg. 40, Wallingford CT 06492
  
  
 ---------------------------------------------------------------
 Warning -- This program may not be used in any manner that
 competes with the business of Gaussian, Inc. or will provide
 assistance to any competitor of Gaussian, Inc.  The licensee
 of this program is prohibited from giving any competitor of
 Gaussian, Inc. access to this program.  By using this program,
 the user acknowledges that Gaussian, Inc. is engaged in the
 business of creating and licensing software in the field of
 computational chemistry and represents and warrants to the
 licensee that it is not a competitor of Gaussian, Inc. and that
 it will not use this program in any manner prohibited above.
 ---------------------------------------------------------------
  

 Cite this work as:
 Gaussian 16, Revision A.03,
 M. J. Frisch, G. W. Trucks, H. B. Schlegel, G. E. Scuseria, 
 M. A. Robb, J. R. Cheeseman, G. Scalmani, V. Barone, 
 G. A. Petersson, H. Nakatsuji, X. Li, M. Caricato, A. V. Marenich, 
 J. Bloino, B. G. Janesko, R. Gomperts, B. Mennucci, H. P. Hratchian, 
 J. V. Ortiz, A. F. Izmaylov, J. L. Sonnenberg, D. Williams-Young, 
 F. Ding, F. Lipparini, F. Egidi, J. Goings, B. Peng, A. Petrone, 
 T. Henderson, D. Ranasinghe, V. G. Zakrzewski, J. Gao, N. Rega, 
 G. Zheng, W. Liang, M. Hada, M. Ehara, K. Toyota, R. Fukuda, 
 J. Hasegawa, M. Ishida, T. Nakajima, Y. Honda, O. Kitao, H. Nakai, 
 T. Vreven, K. Throssell, J. A. Montgomery, Jr., J. E. Peralta, 
 F. Ogliaro, M. J. Bearpark, J. J. Heyd, E. N. Brothers, K. N. Kudin, 
 V. N. Staroverov, T. A. Keith, R. Kobayashi, J. Normand, 
 K. Raghavachari, A. P. Rendell, J. C. Burant, S. S. Iyengar, 
 J. Tomasi, M. Cossi, J. M. Millam, M. Klene, C. Adamo, R. Cammi, 
 J. W. Ochterski, R. L. Martin, K. Morokuma, O. Farkas, 
 J. B. Foresman, and D. J. Fox, Gaussian, Inc., Wallingford CT, 2016.
 
 ******************************************
 Gaussian 16:  ES64L-G16RevA.03 25-Dec-2016
                12-Sep-2021 
 ******************************************
 %nproc=24
 Will use up to   24 processors via shared memory.
 %mem=175gb
 -----------------------------------
 #p cam-b3lyp/Def2SVP td=(nstates=5)
 -----------------------------------
 1/38=1,172=1/1;
 2/12=2,17=6,18=5,40=1/2;
 3/5=43,7=101,11=9,25=1,30=1,74=-40/1,2,3,8;
 4//1;
 5/5=2,38=5/2;
 8/6=1,10=1,108=5/1;
 9/41=5,42=1,70=2/14;
 6/7=2,8=2,9=2,10=2/1;
 99/5=1,9=1/99;
 Leave Link    1 at Sun Sep 12 21:37:26 2021, MaxMem= 23488102400 cpu:               0.6 elap:               0.0
 (Enter /sw/apps/gaussian-16.0/g16/l101.exe)
 --------------------------------
 TDDFT excited states in gaussian
 --------------------------------
 Symbolic Z-matrix:
 Charge =  0 Multiplicity = 1
 Mg                    0.        0.        0. 
 C                    -0.217    -2.218     2.801 
 C                    -1.255     2.442     2.026 
 C                    -0.245     1.85     -2.564 
 C                     0.146    -2.824    -2.037 
 N                    -0.617    -0.009     2.126 
 C                    -0.594    -0.908     3.105 
 C                    -0.936    -0.309     4.502 
 C                    -1.773     0.964     4.032 
 C                    -1.155     1.168     2.66 
 C                    -3.263     0.685     3.863 
 C                     0.345     0.11      5.299 
 C                     0.124     0.397     6.787 
 H                     1.168     0.033     7.733 
 N                    -0.185     1.961    -0.152 
 C                    -0.703     2.8       0.777 
 C                    -0.62      4.156     0.193 
 C                    -0.187     4.015    -1.225 
 C                    -0.214     2.583    -1.38 
 C                    -0.887     5.406     0.974 
 C                     0.181     5.013    -2.277 
 O                     0.303     4.69     -3.508 
 C                     0.31      6.414    -1.837 
 N                    -0.265    -0.413    -2.029 
 C                    -0.279     0.569    -2.937 
 C                    -0.196     0.024    -4.332 
 C                     0.124    -1.533    -4.18 
 C                     0.086    -1.632    -2.635 
 C                    -1.451     0.205    -5.197 
 C                     1.373    -2.07     -4.923 
 C                     2.626    -1.49     -4.306 
 N                     0.15     -2.144     0.303 
 C                     0.173    -3.136    -0.688 
 C                     0.173    -4.438     0.004 
 C                     0.133    -4.111     1.358 
 C                     0.083    -2.695     1.502 
 C                     0.149    -5.715    -0.623 
 C                     0.096    -4.629     2.716 
 O                     0.208    -5.747     3.221 
 C                    -0.255    -3.428     3.701 
 C                     0.717    -3.482     4.848 
 O                     1.931    -3.255     4.669 
 O                     0.038    -3.556     6.003 
 C                     0.943    -3.583     7.183 
 H                    -1.859     3.22      2.497 
 H                    -0.218     2.453    -3.474 
 H                     0.276    -3.747    -2.605 
 H                    -1.554    -0.949     5.132 
 H                    -1.585     1.831     4.665 
 H                    -3.484    -0.377     3.969 
 H                    -3.511     1.027     2.858 
 H                    -3.852     1.301     4.543 
 H                     0.669     1.096     4.966 
 H                     1.13     -0.639     5.189 
 H                    -0.844     0.026     7.125 
 H                     0.062     1.477     6.921 
 H                    -1.344     5.186     1.938 
 H                    -1.651     5.963     0.432 
 H                     0.007     6.02      1.084 
 H                    -0.635     6.744    -1.405 
 H                     0.665     6.97     -2.704 
 H                     1.048     6.466    -1.036 
 H                     0.608     0.501    -4.891 
 H                    -0.692    -2.156    -4.547 
 H                    -1.267     0.74     -6.129 
 H                    -2.204     0.714    -4.596 
 H                    -1.967    -0.72     -5.453 
 H                     1.356    -1.759    -5.967 
 H                     1.452    -3.157    -4.902 
 H                     2.714    -0.522    -4.798 
 H                     3.487    -2.121    -4.529 
 H                     2.495    -1.303    -3.24 
 H                     0.867    -6.333    -0.084 
 H                     0.404    -5.642    -1.68 
 H                    -0.891    -5.999    -0.463 
 H                    -1.283    -3.581     4.028 
 H                     0.698    -4.478     7.755 
 H                     0.833    -2.619     7.68 
 H                     2.       -3.754     6.976 
 Mg                    31.53893   2.84287   2.40276 
 C                     31.37124   0.28263   4.91197 
 C                     30.28492   4.99777   4.73052 
 C                     31.25016   5.0061    0.09962 
 C                     31.67942   0.30395   0.01951 
 N                     30.94516   2.55846   4.51435 
 C                     30.98371   1.55586   5.37902 
 C                     30.6616   1.95687   6.8436 
 C                     29.80009   3.27924   6.54692 
 C                     30.39944   3.66337   5.19566 
 C                     28.31902   3.00119   6.35082 
 C                     31.95342   2.28655   7.67096 
 C                     31.74096   2.3846    9.18324 
 H                     32.80496   1.91694   10.06736 
 N                     31.33702   4.81421   2.51042 
 C                     30.82956   5.52525   3.5391 
 C                     30.88037   6.93396   3.11826 
 C                     31.30624   6.98271   1.69314 
 C                     31.29396   5.57103   1.36591 
 C                     30.6199   8.07421   4.05923 
 C                     31.65317   8.1137    0.77297 
 O                     31.76564   7.94212  -0.49223 
 C                     31.76548   9.44581   1.38483 
 N                     31.26068   2.68654   0.34838 
 C                     31.22134   3.7827   -0.42932 
 C                     31.29062   3.41613  -1.89261 
 C                     31.62976   1.85367  -1.9285 
 C                     31.60886   1.55531  -0.41326 
 C                     30.02331   3.68036  -2.70532 
 C                     32.87583   1.42265  -2.7496 
 C                     34.13345   1.93907  -2.08847 
 N                     31.71496   0.68969   2.4325 
 C                     31.72909  -0.18043   1.32039 
 C                     31.74864  -1.56036   1.84748 
 C                     31.72105  -1.39642   3.24063 
 C                     31.66634  -0.01254   3.559 
 C                     31.73877  -2.74974   1.06556 
 C                     31.71504  -2.07969   4.51413 
 O                     31.83549  -3.25055   4.87233 
 C                     31.36059  -1.02678   5.65086 
 C                     32.34568  -1.20586   6.77338 
 O                     33.55178  -0.9559    6.60176 
 O                     31.67406  -1.43174   7.91718 
 C                     32.6078  -1.60489   9.06171 
 H                     29.68572   5.6999    5.31091 
 H                     31.26178   5.71341  -0.73288 
 H                     31.82259  -0.54075  -0.65773 
 H                     30.06307   1.23804   7.39025 
 H                     29.99669   4.05258   7.28493 
 H                     28.10766   1.94248   6.32617 
 H                     28.05564   3.46163   5.40759 
 H                     27.73348   3.52159   7.11413 
 H                     32.26194   3.31801   7.45731 
 H                     32.73158   1.57886   7.46052 
 H                     30.77429   1.96812   9.49153 
 H                     31.67741   3.44056   9.45699 
 H                     30.16901   7.72688   4.99702 
 H                     29.84502   8.69735   3.59974 
 H                     31.50716   8.68612   4.23529 
 H                     30.82486   9.70254   1.86627 
 H                     32.10684   10.10662   0.58566 
 H                     32.52286   9.40486   2.17559 
 H                     32.08443   3.95955  -2.39025 
 H                     30.81188   1.26936  -2.37514 
 H                     30.19305   4.34169  -3.57589 
 H                     29.27709   4.10356  -2.04607 
 H                     29.52158   2.79019  -3.08092 
 H                     32.84446   1.86761  -3.74719 
 H                     32.95779   0.34857  -2.87849 
 H                     34.20119   2.9673   -2.45623 
 H                     34.9966   1.35221  -2.39605 
 H                     34.01509   1.98553  -0.99968 
 H                     32.46137  -3.42085   1.51049 
 H                     31.97584  -2.54282   0.02405 
 H                     30.69863  -3.06023   1.19593 
 H                     30.33612  -1.22188   5.9702 
 H                     32.37402  -2.57007   9.52156 
 H                     32.48045  -0.70347   9.69018 
 H                     33.66051  -1.72783   8.83554 
 
 ITRead=  0  0  0  0  0  0  0  0  0  0  0  0  0  0  0  0  0  0  0  0
 ITRead=  0  0  0  0  0  0  0  0  0  0  0  0  0  0  0  0  0  0  0  0
 ITRead=  0  0  0  0  0  0  0  0  0  0  0  0  0  0  0  0  0  0  0  0
 ITRead=  0  0  0  0  0  0  0  0  0  0  0  0  0  0  0  0  0  0  0  0
 ITRead=  0  0  0  0  0  0  0  0  0  0  0  0  0  0  0  0  0  0  0  0
 ITRead=  0  0  0  0  0  0  0  0  0  0  0  0  0  0  0  0  0  0  0  0
 ITRead=  0  0  0  0  0  0  0  0  0  0  0  0  0  0  0  0  0  0  0  0
 ITRead=  0  0  0  0  0  0  0  0  0  0  0  0  0  0  0  0  0  0
 MicOpt= -1 -1 -1 -1 -1 -1 -1 -1 -1 -1 -1 -1 -1 -1 -1 -1 -1 -1 -1 -1
 MicOpt= -1 -1 -1 -1 -1 -1 -1 -1 -1 -1 -1 -1 -1 -1 -1 -1 -1 -1 -1 -1
 MicOpt= -1 -1 -1 -1 -1 -1 -1 -1 -1 -1 -1 -1 -1 -1 -1 -1 -1 -1 -1 -1
 MicOpt= -1 -1 -1 -1 -1 -1 -1 -1 -1 -1 -1 -1 -1 -1 -1 -1 -1 -1 -1 -1
 MicOpt= -1 -1 -1 -1 -1 -1 -1 -1 -1 -1 -1 -1 -1 -1 -1 -1 -1 -1 -1 -1
 MicOpt= -1 -1 -1 -1 -1 -1 -1 -1 -1 -1 -1 -1 -1 -1 -1 -1 -1 -1 -1 -1
 MicOpt= -1 -1 -1 -1 -1 -1 -1 -1 -1 -1 -1 -1 -1 -1 -1 -1 -1 -1 -1 -1
 MicOpt= -1 -1 -1 -1 -1 -1 -1 -1 -1 -1 -1 -1 -1 -1 -1 -1 -1 -1
 NAtoms=    158 NQM=      158 NQMF=       0 NMMI=      0 NMMIF=      0
                NMic=       0 NMicF=      0.
                    Isotopes and Nuclear Properties:
 (Nuclear quadrupole moments (NQMom) in fm**2, nuclear magnetic moments (NMagM)
  in nuclear magnetons)

  Atom         1           2           3           4           5           6           7           8           9          10
 IAtWgt=          24          12          12          12          12          14          12          12          12          12
 AtmWgt=  23.9850450  12.0000000  12.0000000  12.0000000  12.0000000  14.0030740  12.0000000  12.0000000  12.0000000  12.0000000
 NucSpn=           0           0           0           0           0           2           0           0           0           0
 AtZEff=  -0.0000000  -0.0000000  -0.0000000  -0.0000000  -0.0000000  -0.0000000  -0.0000000  -0.0000000  -0.0000000  -0.0000000
 NQMom=    0.0000000   0.0000000   0.0000000   0.0000000   0.0000000   2.0440000   0.0000000   0.0000000   0.0000000   0.0000000
 NMagM=    0.0000000   0.0000000   0.0000000   0.0000000   0.0000000   0.4037610   0.0000000   0.0000000   0.0000000   0.0000000
 AtZNuc=  12.0000000   6.0000000   6.0000000   6.0000000   6.0000000   7.0000000   6.0000000   6.0000000   6.0000000   6.0000000

  Atom        11          12          13          14          15          16          17          18          19          20
 IAtWgt=          12          12          12           1          14          12          12          12          12          12
 AtmWgt=  12.0000000  12.0000000  12.0000000   1.0078250  14.0030740  12.0000000  12.0000000  12.0000000  12.0000000  12.0000000
 NucSpn=           0           0           0           1           2           0           0           0           0           0
 AtZEff=  -0.0000000  -0.0000000  -0.0000000  -0.0000000  -0.0000000  -0.0000000  -0.0000000  -0.0000000  -0.0000000  -0.0000000
 NQMom=    0.0000000   0.0000000   0.0000000   0.0000000   2.0440000   0.0000000   0.0000000   0.0000000   0.0000000   0.0000000
 NMagM=    0.0000000   0.0000000   0.0000000   2.7928460   0.4037610   0.0000000   0.0000000   0.0000000   0.0000000   0.0000000
 AtZNuc=   6.0000000   6.0000000   6.0000000   1.0000000   7.0000000   6.0000000   6.0000000   6.0000000   6.0000000   6.0000000

  Atom        21          22          23          24          25          26          27          28          29          30
 IAtWgt=          12          16          12          14          12          12          12          12          12          12
 AtmWgt=  12.0000000  15.9949146  12.0000000  14.0030740  12.0000000  12.0000000  12.0000000  12.0000000  12.0000000  12.0000000
 NucSpn=           0           0           0           2           0           0           0           0           0           0
 AtZEff=  -0.0000000  -0.0000000  -0.0000000  -0.0000000  -0.0000000  -0.0000000  -0.0000000  -0.0000000  -0.0000000  -0.0000000
 NQMom=    0.0000000   0.0000000   0.0000000   2.0440000   0.0000000   0.0000000   0.0000000   0.0000000   0.0000000   0.0000000
 NMagM=    0.0000000   0.0000000   0.0000000   0.4037610   0.0000000   0.0000000   0.0000000   0.0000000   0.0000000   0.0000000
 AtZNuc=   6.0000000   8.0000000   6.0000000   7.0000000   6.0000000   6.0000000   6.0000000   6.0000000   6.0000000   6.0000000

  Atom        31          32          33          34          35          36          37          38          39          40
 IAtWgt=          12          14          12          12          12          12          12          12          16          12
 AtmWgt=  12.0000000  14.0030740  12.0000000  12.0000000  12.0000000  12.0000000  12.0000000  12.0000000  15.9949146  12.0000000
 NucSpn=           0           2           0           0           0           0           0           0           0           0
 AtZEff=  -0.0000000  -0.0000000  -0.0000000  -0.0000000  -0.0000000  -0.0000000  -0.0000000  -0.0000000  -0.0000000  -0.0000000
 NQMom=    0.0000000   2.0440000   0.0000000   0.0000000   0.0000000   0.0000000   0.0000000   0.0000000   0.0000000   0.0000000
 NMagM=    0.0000000   0.4037610   0.0000000   0.0000000   0.0000000   0.0000000   0.0000000   0.0000000   0.0000000   0.0000000
 AtZNuc=   6.0000000   7.0000000   6.0000000   6.0000000   6.0000000   6.0000000   6.0000000   6.0000000   8.0000000   6.0000000

  Atom        41          42          43          44          45          46          47          48          49          50
 IAtWgt=          12          16          16          12           1           1           1           1           1           1
 AtmWgt=  12.0000000  15.9949146  15.9949146  12.0000000   1.0078250   1.0078250   1.0078250   1.0078250   1.0078250   1.0078250
 NucSpn=           0           0           0           0           1           1           1           1           1           1
 AtZEff=  -0.0000000  -0.0000000  -0.0000000  -0.0000000  -0.0000000  -0.0000000  -0.0000000  -0.0000000  -0.0000000  -0.0000000
 NQMom=    0.0000000   0.0000000   0.0000000   0.0000000   0.0000000   0.0000000   0.0000000   0.0000000   0.0000000   0.0000000
 NMagM=    0.0000000   0.0000000   0.0000000   0.0000000   2.7928460   2.7928460   2.7928460   2.7928460   2.7928460   2.7928460
 AtZNuc=   6.0000000   8.0000000   8.0000000   6.0000000   1.0000000   1.0000000   1.0000000   1.0000000   1.0000000   1.0000000

  Atom        51          52          53          54          55          56          57          58          59          60
 IAtWgt=           1           1           1           1           1           1           1           1           1           1
 AtmWgt=   1.0078250   1.0078250   1.0078250   1.0078250   1.0078250   1.0078250   1.0078250   1.0078250   1.0078250   1.0078250
 NucSpn=           1           1           1           1           1           1           1           1           1           1
 AtZEff=  -0.0000000  -0.0000000  -0.0000000  -0.0000000  -0.0000000  -0.0000000  -0.0000000  -0.0000000  -0.0000000  -0.0000000
 NQMom=    0.0000000   0.0000000   0.0000000   0.0000000   0.0000000   0.0000000   0.0000000   0.0000000   0.0000000   0.0000000
 NMagM=    2.7928460   2.7928460   2.7928460   2.7928460   2.7928460   2.7928460   2.7928460   2.7928460   2.7928460   2.7928460
 AtZNuc=   1.0000000   1.0000000   1.0000000   1.0000000   1.0000000   1.0000000   1.0000000   1.0000000   1.0000000   1.0000000

  Atom        61          62          63          64          65          66          67          68          69          70
 IAtWgt=           1           1           1           1           1           1           1           1           1           1
 AtmWgt=   1.0078250   1.0078250   1.0078250   1.0078250   1.0078250   1.0078250   1.0078250   1.0078250   1.0078250   1.0078250
 NucSpn=           1           1           1           1           1           1           1           1           1           1
 AtZEff=  -0.0000000  -0.0000000  -0.0000000  -0.0000000  -0.0000000  -0.0000000  -0.0000000  -0.0000000  -0.0000000  -0.0000000
 NQMom=    0.0000000   0.0000000   0.0000000   0.0000000   0.0000000   0.0000000   0.0000000   0.0000000   0.0000000   0.0000000
 NMagM=    2.7928460   2.7928460   2.7928460   2.7928460   2.7928460   2.7928460   2.7928460   2.7928460   2.7928460   2.7928460
 AtZNuc=   1.0000000   1.0000000   1.0000000   1.0000000   1.0000000   1.0000000   1.0000000   1.0000000   1.0000000   1.0000000

  Atom        71          72          73          74          75          76          77          78          79          80
 IAtWgt=           1           1           1           1           1           1           1           1           1          24
 AtmWgt=   1.0078250   1.0078250   1.0078250   1.0078250   1.0078250   1.0078250   1.0078250   1.0078250   1.0078250  23.9850450
 NucSpn=           1           1           1           1           1           1           1           1           1           0
 AtZEff=  -0.0000000  -0.0000000  -0.0000000  -0.0000000  -0.0000000  -0.0000000  -0.0000000  -0.0000000  -0.0000000  -0.0000000
 NQMom=    0.0000000   0.0000000   0.0000000   0.0000000   0.0000000   0.0000000   0.0000000   0.0000000   0.0000000   0.0000000
 NMagM=    2.7928460   2.7928460   2.7928460   2.7928460   2.7928460   2.7928460   2.7928460   2.7928460   2.7928460   0.0000000
 AtZNuc=   1.0000000   1.0000000   1.0000000   1.0000000   1.0000000   1.0000000   1.0000000   1.0000000   1.0000000  12.0000000

  Atom        81          82          83          84          85          86          87          88          89          90
 IAtWgt=          12          12          12          12          14          12          12          12          12          12
 AtmWgt=  12.0000000  12.0000000  12.0000000  12.0000000  14.0030740  12.0000000  12.0000000  12.0000000  12.0000000  12.0000000
 NucSpn=           0           0           0           0           2           0           0           0           0           0
 AtZEff=  -0.0000000  -0.0000000  -0.0000000  -0.0000000  -0.0000000  -0.0000000  -0.0000000  -0.0000000  -0.0000000  -0.0000000
 NQMom=    0.0000000   0.0000000   0.0000000   0.0000000   2.0440000   0.0000000   0.0000000   0.0000000   0.0000000   0.0000000
 NMagM=    0.0000000   0.0000000   0.0000000   0.0000000   0.4037610   0.0000000   0.0000000   0.0000000   0.0000000   0.0000000
 AtZNuc=   6.0000000   6.0000000   6.0000000   6.0000000   7.0000000   6.0000000   6.0000000   6.0000000   6.0000000   6.0000000

  Atom        91          92          93          94          95          96          97          98          99         100
 IAtWgt=          12          12           1          14          12          12          12          12          12          12
 AtmWgt=  12.0000000  12.0000000   1.0078250  14.0030740  12.0000000  12.0000000  12.0000000  12.0000000  12.0000000  12.0000000
 NucSpn=           0           0           1           2           0           0           0           0           0           0
 AtZEff=  -0.0000000  -0.0000000  -0.0000000  -0.0000000  -0.0000000  -0.0000000  -0.0000000  -0.0000000  -0.0000000  -0.0000000
 NQMom=    0.0000000   0.0000000   0.0000000   2.0440000   0.0000000   0.0000000   0.0000000   0.0000000   0.0000000   0.0000000
 NMagM=    0.0000000   0.0000000   2.7928460   0.4037610   0.0000000   0.0000000   0.0000000   0.0000000   0.0000000   0.0000000
 AtZNuc=   6.0000000   6.0000000   1.0000000   7.0000000   6.0000000   6.0000000   6.0000000   6.0000000   6.0000000   6.0000000

  Atom       101         102         103         104         105         106         107         108         109         110
 IAtWgt=          16          12          14          12          12          12          12          12          12          12
 AtmWgt=  15.9949146  12.0000000  14.0030740  12.0000000  12.0000000  12.0000000  12.0000000  12.0000000  12.0000000  12.0000000
 NucSpn=           0           0           2           0           0           0           0           0           0           0
 AtZEff=  -0.0000000  -0.0000000  -0.0000000  -0.0000000  -0.0000000  -0.0000000  -0.0000000  -0.0000000  -0.0000000  -0.0000000
 NQMom=    0.0000000   0.0000000   2.0440000   0.0000000   0.0000000   0.0000000   0.0000000   0.0000000   0.0000000   0.0000000
 NMagM=    0.0000000   0.0000000   0.4037610   0.0000000   0.0000000   0.0000000   0.0000000   0.0000000   0.0000000   0.0000000
 AtZNuc=   8.0000000   6.0000000   7.0000000   6.0000000   6.0000000   6.0000000   6.0000000   6.0000000   6.0000000   6.0000000

  Atom       111         112         113         114         115         116         117         118         119         120
 IAtWgt=          14          12          12          12          12          12          12          16          12          12
 AtmWgt=  14.0030740  12.0000000  12.0000000  12.0000000  12.0000000  12.0000000  12.0000000  15.9949146  12.0000000  12.0000000
 NucSpn=           2           0           0           0           0           0           0           0           0           0
 AtZEff=  -0.0000000  -0.0000000  -0.0000000  -0.0000000  -0.0000000  -0.0000000  -0.0000000  -0.0000000  -0.0000000  -0.0000000
 NQMom=    2.0440000   0.0000000   0.0000000   0.0000000   0.0000000   0.0000000   0.0000000   0.0000000   0.0000000   0.0000000
 NMagM=    0.4037610   0.0000000   0.0000000   0.0000000   0.0000000   0.0000000   0.0000000   0.0000000   0.0000000   0.0000000
 AtZNuc=   7.0000000   6.0000000   6.0000000   6.0000000   6.0000000   6.0000000   6.0000000   8.0000000   6.0000000   6.0000000

  Atom       121         122         123         124         125         126         127         128         129         130
 IAtWgt=          16          16          12           1           1           1           1           1           1           1
 AtmWgt=  15.9949146  15.9949146  12.0000000   1.0078250   1.0078250   1.0078250   1.0078250   1.0078250   1.0078250   1.0078250
 NucSpn=           0           0           0           1           1           1           1           1           1           1
 AtZEff=  -0.0000000  -0.0000000  -0.0000000  -0.0000000  -0.0000000  -0.0000000  -0.0000000  -0.0000000  -0.0000000  -0.0000000
 NQMom=    0.0000000   0.0000000   0.0000000   0.0000000   0.0000000   0.0000000   0.0000000   0.0000000   0.0000000   0.0000000
 NMagM=    0.0000000   0.0000000   0.0000000   2.7928460   2.7928460   2.7928460   2.7928460   2.7928460   2.7928460   2.7928460
 AtZNuc=   8.0000000   8.0000000   6.0000000   1.0000000   1.0000000   1.0000000   1.0000000   1.0000000   1.0000000   1.0000000

  Atom       131         132         133         134         135         136         137         138         139         140
 IAtWgt=           1           1           1           1           1           1           1           1           1           1
 AtmWgt=   1.0078250   1.0078250   1.0078250   1.0078250   1.0078250   1.0078250   1.0078250   1.0078250   1.0078250   1.0078250
 NucSpn=           1           1           1           1           1           1           1           1           1           1
 AtZEff=  -0.0000000  -0.0000000  -0.0000000  -0.0000000  -0.0000000  -0.0000000  -0.0000000  -0.0000000  -0.0000000  -0.0000000
 NQMom=    0.0000000   0.0000000   0.0000000   0.0000000   0.0000000   0.0000000   0.0000000   0.0000000   0.0000000   0.0000000
 NMagM=    2.7928460   2.7928460   2.7928460   2.7928460   2.7928460   2.7928460   2.7928460   2.7928460   2.7928460   2.7928460
 AtZNuc=   1.0000000   1.0000000   1.0000000   1.0000000   1.0000000   1.0000000   1.0000000   1.0000000   1.0000000   1.0000000

  Atom       141         142         143         144         145         146         147         148         149         150
 IAtWgt=           1           1           1           1           1           1           1           1           1           1
 AtmWgt=   1.0078250   1.0078250   1.0078250   1.0078250   1.0078250   1.0078250   1.0078250   1.0078250   1.0078250   1.0078250
 NucSpn=           1           1           1           1           1           1           1           1           1           1
 AtZEff=  -0.0000000  -0.0000000  -0.0000000  -0.0000000  -0.0000000  -0.0000000  -0.0000000  -0.0000000  -0.0000000  -0.0000000
 NQMom=    0.0000000   0.0000000   0.0000000   0.0000000   0.0000000   0.0000000   0.0000000   0.0000000   0.0000000   0.0000000
 NMagM=    2.7928460   2.7928460   2.7928460   2.7928460   2.7928460   2.7928460   2.7928460   2.7928460   2.7928460   2.7928460
 AtZNuc=   1.0000000   1.0000000   1.0000000   1.0000000   1.0000000   1.0000000   1.0000000   1.0000000   1.0000000   1.0000000

  Atom       151         152         153         154         155         156         157         158
 IAtWgt=           1           1           1           1           1           1           1           1
 AtmWgt=   1.0078250   1.0078250   1.0078250   1.0078250   1.0078250   1.0078250   1.0078250   1.0078250
 NucSpn=           1           1           1           1           1           1           1           1
 AtZEff=  -0.0000000  -0.0000000  -0.0000000  -0.0000000  -0.0000000  -0.0000000  -0.0000000  -0.0000000
 NQMom=    0.0000000   0.0000000   0.0000000   0.0000000   0.0000000   0.0000000   0.0000000   0.0000000
 NMagM=    2.7928460   2.7928460   2.7928460   2.7928460   2.7928460   2.7928460   2.7928460   2.7928460
 AtZNuc=   1.0000000   1.0000000   1.0000000   1.0000000   1.0000000   1.0000000   1.0000000   1.0000000
 Leave Link  101 at Sun Sep 12 21:37:26 2021, MaxMem= 23488102400 cpu:               6.2 elap:               0.3
 (Enter /sw/apps/gaussian-16.0/g16/l202.exe)
 Stoichiometry    C68H72Mg2N8O8
 Framework group  C1[X(C68H72Mg2N8O8)]
 Deg. of freedom   468
 Full point group                 C1      NOp   1
 Largest Abelian subgroup         C1      NOp   1
 Largest concise Abelian subgroup C1      NOp   1
                         Standard orientation:                         
 ---------------------------------------------------------------------
 Center     Atomic      Atomic             Coordinates (Angstroms)
 Number     Number       Type             X           Y           Z
 ---------------------------------------------------------------------
      1         12           0      -15.794326   -0.752768    0.141599
      2          6           0      -15.990955    2.821228    0.131282
      3          6           0      -16.682683   -0.662630   -3.151692
      4          6           0      -16.070499   -3.910346    0.241867
      5          6           0      -16.041236   -0.609064    3.614932
      6          7           0      -16.250247    0.927431   -1.225776
      7          6           0      -16.231309    2.252550   -1.121507
      8          6           0      -16.416313    2.982316   -2.485541
      9          6           0      -17.174354    1.830756   -3.286342
     10          6           0      -16.644823    0.622677   -2.533967
     11          6           0      -18.691133    1.878916   -3.132835
     12          6           0      -15.048622    3.342437   -3.157453
     13          6           0      -15.133235    4.335905   -4.319871
     14          1           0      -14.056695    5.298523   -4.498134
     15          7           0      -15.822291   -2.083398   -1.318364
     16          6           0      -16.196468   -1.868845   -2.602593
     17          6           0      -16.041799   -3.166588   -3.294418
     18          6           0      -15.728903   -4.196499   -2.265111
     19          6           0      -15.889292   -3.432974   -1.054045
     20          6           0      -16.142546   -3.323870   -4.780642
     21          6           0      -15.356330   -5.642436   -2.357795
     22          8           0      -15.354065   -6.411073   -1.336146
     23          6           0      -15.076071   -6.163363   -3.708029
     24          7           0      -16.243515   -2.090807    1.679622
     25          6           0      -16.241163   -3.411477    1.467938
     26          6           0      -16.308749   -4.171568    2.759306
     27          6           0      -16.112216   -3.091448    3.918818
     28          6           0      -16.043668   -1.815615    3.043707
     29          6           0      -17.604517   -4.956185    3.007035
     30          6           0      -14.972172   -3.350669    4.935442
     31          6           0      -13.631947   -3.231397    4.245028
     32          7           0      -15.805520    0.809876    1.647940
     33          6           0      -15.940815    0.644003    3.033889
     34          6           0      -16.000392    1.992781    3.626607
     35          6           0      -15.911708    2.855158    2.535605
     36          6           0      -15.830006    2.093318    1.335098
     37          6           0      -16.179644    2.289468    5.006564
     38          6           0      -15.891766    4.243007    2.102784
     39          8           0      -15.838267    5.330415    2.679131
     40          6           0      -16.065001    4.276847    0.520169
     41          6           0      -15.018650    5.206239   -0.031818
     42          8           0      -13.806379    4.918265    0.037718
     43          8           0      -15.613826    6.163738   -0.759489
     44          6           0      -14.629294    7.102762   -1.360391
     45          1           0      -17.181521   -0.769879   -4.116885
     46          1           0      -16.059861   -4.998539    0.332196
     47          1           0      -16.032921   -0.485712    4.699445
     48          1           0      -17.038110    3.876677   -2.441845
     49          1           0      -16.866653    1.791292   -4.331083
     50          1           0      -18.993359    2.619987   -2.392974
     51          1           0      -18.983032    0.878964   -2.811301
     52          1           0      -19.173353    2.036003   -4.098010
     53          1           0      -14.667392    2.469328   -3.686985
     54          1           0      -14.340661    3.714481   -2.416034
     55          1           0      -16.101548    4.836465   -4.346689
     56          1           0      -15.092836    3.773975   -5.253039
     57          1           0      -16.543774   -2.427523   -5.251943
     58          1           0      -16.894428   -4.089839   -4.969519
     59          1           0      -15.193776   -3.622076   -5.227006
     60          1           0      -15.954804   -6.022379   -4.337712
     61          1           0      -14.740348   -7.190582   -3.570330
     62          1           0      -14.278883   -5.570123   -4.156921
     63          1           0      -15.510763   -4.910426    2.820408
     64          1           0      -17.003339   -2.990135    4.538744
     65          1           0      -17.445315   -6.020536    3.181728
     66          1           0      -18.264673   -4.794112    2.155438
     67          1           0      -18.215060   -4.582656    3.828698
     68          1           0      -15.040091   -4.363436    5.331214
     69          1           0      -14.984764   -2.662675    5.780874
     70          1           0      -13.498547   -4.217007    3.800496
     71          1           0      -12.846809   -3.021553    4.972169
     72          1           0      -13.667001   -2.508333    3.429898
     73          1           0      -15.478889    3.091051    5.239755
     74          1           0      -15.998557    1.412047    5.627002
     75          1           0      -17.225300    2.596746    5.012874
     76          1           0      -17.075166    4.634345    0.322978
     77          1           0      -14.906524    8.107028   -1.039725
     78          1           0      -14.619516    6.898143   -2.431111
     79          1           0      -13.609018    7.039706   -0.980392
     80         12           0       15.963170   -0.802082    0.006371
     81          6           0       15.764695    2.753835    0.448128
     82          6           0       15.073738   -0.297283   -3.247656
     83          6           0       15.689578   -3.947991   -0.303159
     84          6           0       15.709368   -1.106735    3.468813
     85          7           0       15.505787    1.036905   -1.134328
     86          6           0       15.522854    2.336109   -0.877182
     87          6           0       15.345757    3.241271   -2.125733
     88          6           0       14.580443    2.195568   -3.074247
     89          6           0       15.108336    0.892549   -2.477463
     90          6           0       13.070605    2.221788   -2.903843
     91          6           0       16.718840    3.680409   -2.745259
     92          6           0       16.628411    4.809714   -3.773965
     93          1           0       17.711392    5.787655   -3.830992
     94          7           0       15.938569   -1.934906   -1.622937
     95          6           0       15.571361   -1.562962   -2.867161
     96          6           0       15.710656   -2.764855   -3.703941
     97          6           0       16.032112   -3.917618   -2.819343
     98          6           0       15.875290   -3.302116   -1.516794
     99          6           0       15.618923   -2.728589   -5.201843
    100          6           0       16.404875   -5.342020   -3.099232
    101          8           0       16.408038   -6.231087   -2.175993
    102          6           0       16.675443   -5.685180   -4.502990
    103          7           0       15.520807   -2.318658    1.357908
    104          6           0       15.517388   -3.607332    0.974189
    105          6           0       15.446307   -4.531321    2.166491
    106          6           0       15.647438   -3.595623    3.447740
    107          6           0       15.713775   -2.220043    2.748607
    108          6           0       14.149284   -5.326215    2.315702
    109          6           0       16.787803   -3.981729    4.429149
    110          6           0       18.130476   -3.788492    3.761856
    111          7           0       15.956763    0.551297    1.690526
    112          6           0       15.814048    0.214937    3.054561
    113          6           0       15.755006    1.482153    3.811590
    114          6           0       15.845030    2.476029    2.825380
    115          6           0       15.932265    1.871131    1.542428
    116          6           0       15.585756    1.602823    5.219750
    117          6           0       15.875402    3.899444    2.577061
    118          8           0       15.921889    4.904090    3.285760
    119          6           0       15.697386    4.144112    1.016658
    120          6           0       16.744264    5.131506    0.578912
    121          8           0       17.951191    4.835185    0.625086
    122          8           0       16.142644    6.174045   -0.022370
    123          6           0       17.140641    7.175368   -0.484055
    124          1           0       14.581326   -0.271676   -4.220155
    125          1           0       15.699581   -5.039659   -0.343638
    126          1           0       15.729330   -1.117726    4.560669
    127          1           0       14.730395    4.118734   -1.967086
    128          1           0       14.896505    2.296492   -4.109276
    129          1           0       12.768535    2.858075   -2.085283
    130          1           0       12.778106    1.197262   -2.714506
    131          1           0       12.589861    2.503436   -3.845052
    132          1           0       17.097427    2.873099   -3.385308
    133          1           0       17.416066    3.948006   -1.975252
    134          1           0       15.655337    5.315026   -3.746861
    135          1           0       16.675600    4.372501   -4.774289
    136          1           0       15.210967   -1.774170   -5.556870
    137          1           0       14.867997   -3.470526   -5.494268
    138          1           0       16.565725   -2.973540   -5.687875
    139          1           0       15.798489   -5.460067   -5.105267
    140          1           0       17.011584   -6.723794   -4.490360
    141          1           0       17.483205   -5.042642   -4.870778
    142          1           0       16.244386   -5.262948    2.136883
    143          1           0       14.751829   -3.580815    4.086097
    144          1           0       14.309647   -6.420291    2.352368
    145          1           0       13.492878   -5.065357    1.496167
    146          1           0       13.547006   -5.068308    3.185159
    147          1           0       16.720471   -5.040743    4.690138
    148          1           0       16.768121   -3.419556    5.356808
    149          1           0       18.258106   -4.713562    3.191725
    150          1           0       18.915231   -3.672429    4.506656
    151          1           0       18.097696   -2.960712    3.043988
    152          1           0       16.279569    2.363268    5.552693
    153          1           0       15.761593    0.654897    5.724009
    154          1           0       14.535503    1.903187    5.264928
    155          1           0       14.686571    4.521593    0.857465
    156          1           0       16.860249    8.134800   -0.038455
    157          1           0       17.137611    7.112872   -1.588516
    158          1           0       18.159328    7.067560   -0.130330
 ---------------------------------------------------------------------
 Rotational constants (GHZ):           0.0202616           0.0016485           0.0016113
 Leave Link  202 at Sun Sep 12 21:37:26 2021, MaxMem= 23488102400 cpu:               0.2 elap:               0.0
 (Enter /sw/apps/gaussian-16.0/g16/l301.exe)
 Standard basis: def2SVP (5D, 7F)
 Ernie: Thresh=  0.10000D-02 Tol=  0.10000D-05 Strict=F.
 There are  1658 symmetry adapted cartesian basis functions of A   symmetry.
 There are  1572 symmetry adapted basis functions of A   symmetry.
  1572 basis functions,  2678 primitive gaussians,  1658 cartesian basis functions
   312 alpha electrons      312 beta electrons
       nuclear repulsion energy     12306.8794648792 Hartrees.
 IExCor=20419 DFT=T Ex+Corr=CAM-B3LYP ExCW=0 ScaHFX=  1.000000
 ScaDFX=  1.000000  1.000000  1.000000  0.810000 ScalE2=  1.000000  1.000000
 IRadAn=      5 IRanWt=     -1 IRanGd=            0 ICorTp=0 IEmpDi=  4
 HFx  wShort=  0.000000 wLong=  0.330000 cFull=  0.190000 cShort=  0.000000 cLong=  0.460000
 DFx  wShort=  0.000000 wLong=  0.330000 cFull=  0.190000 cShort=  0.000000 cLong=  0.460000
 NAtoms=  158 NActive=  158 NUniq=  158 SFac= 1.00D+00 NAtFMM=   60 NAOKFM=T Big=T
 Integral buffers will be    131072 words long.
 Raffenetti 1 integral format.
 Two-electron integral symmetry is turned on.
 Leave Link  301 at Sun Sep 12 21:37:26 2021, MaxMem= 23488102400 cpu:               1.7 elap:               0.1
 (Enter /sw/apps/gaussian-16.0/g16/l302.exe)
 NPDir=0 NMtPBC=     1 NCelOv=     1 NCel=       1 NClECP=     1 NCelD=      1
         NCelK=      1 NCelE2=     1 NClLst=     1 CellRange=     0.0.
 One-electron integrals computed using PRISM.
 One-electron integral symmetry used in STVInt
   1 Symmetry operations used in ECPInt.
 ECPInt:  NShTT=  271216 NPrTT=  987664 LenC2=  103957 LenP2D=  239866.
 LDataN:  DoStor=T MaxTD1= 4 Len=   56
 NBasis=  1572 RedAO= T EigKep=  3.36D-04  NBF=  1572
 NBsUse=  1572 1.00D-06 EigRej= -1.00D+00 NBFU=  1572
 Precomputing XC quadrature grid using
 IXCGrd= 4 IRadAn=           5 IRanWt=          -1 IRanGd=           0 AccXCQ= 0.00D+00.
 Generated NRdTot=       0 NPtTot=           0 NUsed=           0 NTot=          32
 NSgBfM=   812   812   812   812   812 MxSgAt=   158 MxSgA2=    79.
 Leave Link  302 at Sun Sep 12 21:37:30 2021, MaxMem= 23488102400 cpu:             101.0 elap:               4.2
 (Enter /sw/apps/gaussian-16.0/g16/l303.exe)
 DipDrv:  MaxL=1.
 Leave Link  303 at Sun Sep 12 21:37:31 2021, MaxMem= 23488102400 cpu:               8.1 elap:               0.4
 (Enter /sw/apps/gaussian-16.0/g16/l308.exe)
 Leave Link  308 at Sun Sep 12 21:37:31 2021, MaxMem= 23488102400 cpu:              14.2 elap:               0.7
 (Enter /sw/apps/gaussian-16.0/g16/l401.exe)
 ExpMin= 3.36D-02 ExpMax= 4.95D+03 ExpMxC= 7.45D+02 IAcc=3 IRadAn=         5 AccDes= 0.00D+00
 Harris functional with IExCor=20419 and IRadAn=       5 diagonalized for initial guess.
 HarFok:  IExCor=20419 AccDes= 0.00D+00 IRadAn=         5 IDoV= 1 UseB2=F ITyADJ=14
 ICtDFT=  3500011 ScaDFX=  1.000000  1.000000  1.000000  1.000000
 FoFCou: FMM=F IPFlag=           0 FMFlag=      100000 FMFlg1=        2001
         NFxFlg=           0 DoJE=T BraDBF=F KetDBF=T FulRan=T
         wScrn=  0.000000 ICntrl=       500 IOpCl=  0 I1Cent=   200000004 NGrid=           0
         NMat0=    1 NMatS0=      1 NMatT0=    0 NMatD0=    1 NMtDS0=    0 NMtDT0=    0
 Petite list used in FoFCou.
 Harris En= -3918.65801347155    
 JPrj=0 DoOrth=F DoCkMO=F.
 Leave Link  401 at Sun Sep 12 21:37:38 2021, MaxMem= 23488102400 cpu:             160.9 elap:               6.7
 (Enter /sw/apps/gaussian-16.0/g16/l502.exe)
 Integral symmetry usage will be decided dynamically.
 Closed shell SCF:
 Using DIIS extrapolation, IDIIS=  1040.
 NGot= 23488102400 LenX= 23482547354 LenY= 23479796732
 Requested convergence on RMS density matrix=1.00D-08 within 128 cycles.
 Requested convergence on MAX density matrix=1.00D-06.
 Requested convergence on             energy=1.00D-06.
 No special actions if energy rises.
 Fock matrices will be formed incrementally for  20 cycles.

 Cycle   1  Pass 1  IDiag  1:
 FoFJK:  IHMeth= 1 ICntrl=       0 DoSepK=T KAlg= 0 I1Cent=           0 FoldK=F
 IRaf=         1 NMat=       1 IRICut=       1 DoRegI=T DoRafI=F ISym2E= 0 IDoP0=0 IntGTp=1.
 FoFCou: FMM=T IPFlag=           0 FMFlag=      100000 FMFlg1=        2001
         NFxFlg=           0 DoJE=T BraDBF=F KetDBF=F FulRan=T
         wScrn=  0.000000 ICntrl=       500 IOpCl=  0 I1Cent=           0 NGrid=           0
         NMat0=    1 NMatS0=      1 NMatT0=    0 NMatD0=    1 NMtDS0=    0 NMtDT0=    0
 Symmetry not used in FoFCou.
 FMM levels:  10  Number of levels for PrismC:   9
 E= -4068.94926570132    
 DIIS: error= 2.04D-02 at cycle   1 NSaved=   1.
 NSaved= 1 IEnMin= 1 EnMin= -4068.94926570132     IErMin= 1 ErrMin= 2.04D-02
 ErrMax= 2.04D-02  0.00D+00 EMaxC= 1.00D-01 BMatC= 1.69D+00 BMatP= 1.69D+00
 IDIUse=3 WtCom= 7.96D-01 WtEn= 2.04D-01
 Coeff-Com:  0.100D+01
 Coeff-En:   0.100D+01
 Coeff:      0.100D+01
 Gap=     0.120 Goal=   None    Shift=    0.000
 GapD=    0.120 DampG=1.000 DampE=0.500 DampFc=0.5000 IDamp=-1.
 Damping current iteration by 5.00D-01
 RMSDP=1.57D-03 MaxDP=1.35D-01              OVMax= 2.03D-01

 Cycle   2  Pass 1  IDiag  1:
 RMSU=  7.69D-04    CP:  9.82D-01
 E= -4069.33817456911     Delta-E=       -0.388908867793 Rises=F Damp=T
 DIIS: error= 1.27D-02 at cycle   2 NSaved=   2.
 NSaved= 2 IEnMin= 2 EnMin= -4069.33817456911     IErMin= 2 ErrMin= 1.27D-02
 ErrMax= 1.27D-02  0.00D+00 EMaxC= 1.00D-01 BMatC= 3.07D-01 BMatP= 1.69D+00
 IDIUse=3 WtCom= 8.73D-01 WtEn= 1.27D-01
 Coeff-Com: -0.213D+00 0.121D+01
 Coeff-En:   0.000D+00 0.100D+01
 Coeff:     -0.186D+00 0.119D+01
 Gap=     0.138 Goal=   None    Shift=    0.000
 RMSDP=7.65D-04 MaxDP=9.43D-02 DE=-3.89D-01 OVMax= 1.88D-01

 Cycle   3  Pass 1  IDiag  1:
 RMSU=  7.32D-04    CP:  9.68D-01  1.24D+00
 E= -4069.62791038846     Delta-E=       -0.289735819351 Rises=F Damp=F
 DIIS: error= 1.58D-02 at cycle   3 NSaved=   3.
 NSaved= 3 IEnMin= 3 EnMin= -4069.62791038846     IErMin= 2 ErrMin= 1.27D-02
 ErrMax= 1.58D-02  0.00D+00 EMaxC= 1.00D-01 BMatC= 2.02D-01 BMatP= 3.07D-01
 IDIUse=3 WtCom= 8.42D-01 WtEn= 1.58D-01
 Coeff-Com: -0.267D+00 0.652D+00 0.616D+00
 Coeff-En:   0.000D+00 0.000D+00 0.100D+01
 Coeff:     -0.225D+00 0.549D+00 0.676D+00
 Gap=     0.125 Goal=   None    Shift=    0.000
 RMSDP=5.08D-04 MaxDP=4.85D-02 DE=-2.90D-01 OVMax= 1.43D-01

 Cycle   4  Pass 1  IDiag  1:
 RMSU=  2.65D-04    CP:  9.65D-01  1.55D+00  5.06D-01
 E= -4069.76504712721     Delta-E=       -0.137136738749 Rises=F Damp=F
 DIIS: error= 7.31D-03 at cycle   4 NSaved=   4.
 NSaved= 4 IEnMin= 4 EnMin= -4069.76504712721     IErMin= 4 ErrMin= 7.31D-03
 ErrMax= 7.31D-03  0.00D+00 EMaxC= 1.00D-01 BMatC= 5.04D-02 BMatP= 2.02D-01
 IDIUse=3 WtCom= 9.27D-01 WtEn= 7.31D-02
 Coeff-Com: -0.109D+00 0.226D+00 0.409D+00 0.474D+00
 Coeff-En:   0.000D+00 0.000D+00 0.221D+00 0.779D+00
 Coeff:     -0.101D+00 0.209D+00 0.395D+00 0.497D+00
 Gap=     0.123 Goal=   None    Shift=    0.000
 RMSDP=2.00D-04 MaxDP=1.99D-02 DE=-1.37D-01 OVMax= 6.18D-02

 Cycle   5  Pass 1  IDiag  1:
 RMSU=  7.58D-05    CP:  9.64D-01  1.49D+00  6.89D-01  5.49D-01
 E= -4069.81052949630     Delta-E=       -0.045482369092 Rises=F Damp=F
 DIIS: error= 7.85D-04 at cycle   5 NSaved=   5.
 NSaved= 5 IEnMin= 5 EnMin= -4069.81052949630     IErMin= 5 ErrMin= 7.85D-04
 ErrMax= 7.85D-04  0.00D+00 EMaxC= 1.00D-01 BMatC= 1.17D-03 BMatP= 5.04D-02
 IDIUse=3 WtCom= 9.92D-01 WtEn= 7.85D-03
 Coeff-Com: -0.358D-01 0.702D-01 0.165D+00 0.249D+00 0.551D+00
 Coeff-En:   0.000D+00 0.000D+00 0.000D+00 0.000D+00 0.100D+01
 Coeff:     -0.355D-01 0.696D-01 0.164D+00 0.247D+00 0.555D+00
 Gap=     0.123 Goal=   None    Shift=    0.000
 RMSDP=4.08D-05 MaxDP=4.16D-03 DE=-4.55D-02 OVMax= 1.64D-02

 Cycle   6  Pass 1  IDiag  1:
 RMSU=  3.02D-05    CP:  9.64D-01  1.49D+00  6.81D-01  6.21D-01  7.59D-01
 E= -4069.81153822668     Delta-E=       -0.001008730374 Rises=F Damp=F
 DIIS: error= 2.18D-04 at cycle   6 NSaved=   6.
 NSaved= 6 IEnMin= 6 EnMin= -4069.81153822668     IErMin= 6 ErrMin= 2.18D-04
 ErrMax= 2.18D-04  0.00D+00 EMaxC= 1.00D-01 BMatC= 1.76D-04 BMatP= 1.17D-03
 IDIUse=3 WtCom= 9.98D-01 WtEn= 2.18D-03
 Coeff-Com:  0.231D-02-0.677D-02 0.109D-01 0.398D-01 0.306D+00 0.648D+00
 Coeff-En:   0.000D+00 0.000D+00 0.000D+00 0.000D+00 0.103D+00 0.897D+00
 Coeff:      0.230D-02-0.675D-02 0.109D-01 0.397D-01 0.306D+00 0.648D+00
 Gap=     0.123 Goal=   None    Shift=    0.000
 RMSDP=1.58D-05 MaxDP=1.23D-03 DE=-1.01D-03 OVMax= 7.24D-03

 Cycle   7  Pass 1  IDiag  1:
 RMSU=  1.07D-05    CP:  9.64D-01  1.50D+00  6.87D-01  6.21D-01  8.59D-01
                    CP:  7.49D-01
 E= -4069.81172729879     Delta-E=       -0.000189072114 Rises=F Damp=F
 DIIS: error= 8.33D-05 at cycle   7 NSaved=   7.
 NSaved= 7 IEnMin= 7 EnMin= -4069.81172729879     IErMin= 7 ErrMin= 8.33D-05
 ErrMax= 8.33D-05  0.00D+00 EMaxC= 1.00D-01 BMatC= 2.08D-05 BMatP= 1.76D-04
 IDIUse=1 WtCom= 1.00D+00 WtEn= 0.00D+00
 Coeff-Com:  0.446D-02-0.974D-02-0.898D-02-0.381D-02 0.102D+00 0.329D+00
 Coeff-Com:  0.587D+00
 Coeff:      0.446D-02-0.974D-02-0.898D-02-0.381D-02 0.102D+00 0.329D+00
 Coeff:      0.587D+00
 Gap=     0.123 Goal=   None    Shift=    0.000
 RMSDP=6.50D-06 MaxDP=1.11D-03 DE=-1.89D-04 OVMax= 3.40D-03

 Cycle   8  Pass 1  IDiag  1:
 RMSU=  4.67D-06    CP:  9.64D-01  1.50D+00  6.88D-01  6.26D-01  8.64D-01
                    CP:  8.75D-01  8.23D-01
 E= -4069.81175307458     Delta-E=       -0.000025775791 Rises=F Damp=F
 DIIS: error= 5.01D-05 at cycle   8 NSaved=   8.
 NSaved= 8 IEnMin= 8 EnMin= -4069.81175307458     IErMin= 8 ErrMin= 5.01D-05
 ErrMax= 5.01D-05  0.00D+00 EMaxC= 1.00D-01 BMatC= 4.82D-06 BMatP= 2.08D-05
 IDIUse=1 WtCom= 1.00D+00 WtEn= 0.00D+00
 Coeff-Com:  0.215D-02-0.426D-02-0.775D-02-0.121D-01-0.116D-01 0.335D-01
 Coeff-Com:  0.344D+00 0.656D+00
 Coeff:      0.215D-02-0.426D-02-0.775D-02-0.121D-01-0.116D-01 0.335D-01
 Coeff:      0.344D+00 0.656D+00
 Gap=     0.123 Goal=   None    Shift=    0.000
 RMSDP=3.27D-06 MaxDP=3.54D-04 DE=-2.58D-05 OVMax= 1.11D-03

 Cycle   9  Pass 1  IDiag  1:
 RMSU=  1.91D-06    CP:  9.64D-01  1.50D+00  6.88D-01  6.27D-01  8.81D-01
                    CP:  9.01D-01  1.02D+00  9.40D-01
 E= -4069.81176077589     Delta-E=       -0.000007701303 Rises=F Damp=F
 DIIS: error= 1.95D-05 at cycle   9 NSaved=   9.
 NSaved= 9 IEnMin= 9 EnMin= -4069.81176077589     IErMin= 9 ErrMin= 1.95D-05
 ErrMax= 1.95D-05  0.00D+00 EMaxC= 1.00D-01 BMatC= 6.87D-07 BMatP= 4.82D-06
 IDIUse=1 WtCom= 1.00D+00 WtEn= 0.00D+00
 Coeff-Com:  0.463D-03-0.767D-03-0.266D-02-0.598D-02-0.212D-01-0.386D-01
 Coeff-Com:  0.104D+00 0.326D+00 0.639D+00
 Coeff:      0.463D-03-0.767D-03-0.266D-02-0.598D-02-0.212D-01-0.386D-01
 Coeff:      0.104D+00 0.326D+00 0.639D+00
 Gap=     0.123 Goal=   None    Shift=    0.000
 RMSDP=1.42D-06 MaxDP=1.49D-04 DE=-7.70D-06 OVMax= 7.43D-04

 Cycle  10  Pass 1  IDiag  1:
 RMSU=  9.37D-07    CP:  9.64D-01  1.50D+00  6.88D-01  6.28D-01  8.84D-01
                    CP:  9.15D-01  1.07D+00  1.11D+00  1.05D+00
 E= -4069.81176236128     Delta-E=       -0.000001585391 Rises=F Damp=F
 DIIS: error= 1.02D-05 at cycle  10 NSaved=  10.
 NSaved=10 IEnMin=10 EnMin= -4069.81176236128     IErMin=10 ErrMin= 1.02D-05
 ErrMax= 1.02D-05  0.00D+00 EMaxC= 1.00D-01 BMatC= 1.72D-07 BMatP= 6.87D-07
 IDIUse=1 WtCom= 1.00D+00 WtEn= 0.00D+00
 Coeff-Com: -0.427D-03 0.894D-03 0.123D-02 0.112D-02-0.376D-02-0.310D-01
 Coeff-Com: -0.464D-01-0.765D-01 0.255D+00 0.900D+00
 Coeff:     -0.427D-03 0.894D-03 0.123D-02 0.112D-02-0.376D-02-0.310D-01
 Coeff:     -0.464D-01-0.765D-01 0.255D+00 0.900D+00
 Gap=     0.123 Goal=   None    Shift=    0.000
 RMSDP=1.22D-06 MaxDP=1.24D-04 DE=-1.59D-06 OVMax= 6.09D-04

 Cycle  11  Pass 1  IDiag  1:
 RMSU=  5.15D-07    CP:  9.64D-01  1.50D+00  6.88D-01  6.28D-01  8.86D-01
                    CP:  9.25D-01  1.11D+00  1.22D+00  1.39D+00  1.37D+00
 E= -4069.81176314854     Delta-E=       -0.000000787262 Rises=F Damp=F
 DIIS: error= 3.96D-06 at cycle  11 NSaved=  11.
 NSaved=11 IEnMin=11 EnMin= -4069.81176314854     IErMin=11 ErrMin= 3.96D-06
 ErrMax= 3.96D-06  0.00D+00 EMaxC= 1.00D-01 BMatC= 6.12D-08 BMatP= 1.72D-07
 IDIUse=1 WtCom= 1.00D+00 WtEn= 0.00D+00
 Coeff-Com: -0.327D-03 0.636D-03 0.133D-02 0.212D-02 0.441D-02-0.836D-02
 Coeff-Com: -0.435D-01-0.132D+00-0.235D-01 0.465D+00 0.734D+00
 Coeff:     -0.327D-03 0.636D-03 0.133D-02 0.212D-02 0.441D-02-0.836D-02
 Coeff:     -0.435D-01-0.132D+00-0.235D-01 0.465D+00 0.734D+00
 Gap=     0.123 Goal=   None    Shift=    0.000
 RMSDP=6.86D-07 MaxDP=5.84D-05 DE=-7.87D-07 OVMax= 3.73D-04

 Cycle  12  Pass 1  IDiag  1:
 RMSU=  2.63D-07    CP:  9.64D-01  1.50D+00  6.88D-01  6.28D-01  8.87D-01
                    CP:  9.27D-01  1.14D+00  1.28D+00  1.56D+00  1.76D+00
                    CP:  1.20D+00
 E= -4069.81176341126     Delta-E=       -0.000000262717 Rises=F Damp=F
 DIIS: error= 2.34D-06 at cycle  12 NSaved=  12.
 NSaved=12 IEnMin=12 EnMin= -4069.81176341126     IErMin=12 ErrMin= 2.34D-06
 ErrMax= 2.34D-06  0.00D+00 EMaxC= 1.00D-01 BMatC= 1.48D-08 BMatP= 6.12D-08
 IDIUse=1 WtCom= 1.00D+00 WtEn= 0.00D+00
 Coeff-Com: -0.270D-08-0.165D-04 0.179D-03 0.511D-03 0.330D-02 0.405D-02
 Coeff-Com:  0.281D-02-0.349D-01-0.680D-01-0.752D-01 0.251D+00 0.917D+00
 Coeff:     -0.270D-08-0.165D-04 0.179D-03 0.511D-03 0.330D-02 0.405D-02
 Coeff:      0.281D-02-0.349D-01-0.680D-01-0.752D-01 0.251D+00 0.917D+00
 Gap=     0.123 Goal=   None    Shift=    0.000
 RMSDP=4.38D-07 MaxDP=3.10D-05 DE=-2.63D-07 OVMax= 2.49D-04

 Cycle  13  Pass 1  IDiag  1:
 RMSU=  1.65D-07    CP:  9.64D-01  1.50D+00  6.88D-01  6.28D-01  8.87D-01
                    CP:  9.28D-01  1.14D+00  1.31D+00  1.67D+00  1.99D+00
                    CP:  1.61D+00  1.27D+00
 E= -4069.81176350341     Delta-E=       -0.000000092152 Rises=F Damp=F
 DIIS: error= 1.24D-06 at cycle  13 NSaved=  13.
 NSaved=13 IEnMin=13 EnMin= -4069.81176350341     IErMin=13 ErrMin= 1.24D-06
 ErrMax= 1.24D-06  0.00D+00 EMaxC= 1.00D-01 BMatC= 8.14D-09 BMatP= 1.48D-08
 IDIUse=1 WtCom= 1.00D+00 WtEn= 0.00D+00
 Coeff-Com:  0.120D-03-0.245D-03-0.370D-03-0.457D-03 0.574D-03 0.508D-02
 Coeff-Com:  0.197D-01 0.228D-01-0.340D-01-0.241D+00-0.156D+00 0.598D+00
 Coeff-Com:  0.786D+00
 Coeff:      0.120D-03-0.245D-03-0.370D-03-0.457D-03 0.574D-03 0.508D-02
 Coeff:      0.197D-01 0.228D-01-0.340D-01-0.241D+00-0.156D+00 0.598D+00
 Coeff:      0.786D+00
 Gap=     0.123 Goal=   None    Shift=    0.000
 RMSDP=3.40D-07 MaxDP=2.28D-05 DE=-9.22D-08 OVMax= 1.97D-04

 Cycle  14  Pass 1  IDiag  1:
 RMSU=  7.61D-08    CP:  9.64D-01  1.50D+00  6.88D-01  6.28D-01  8.88D-01
                    CP:  9.28D-01  1.15D+00  1.33D+00  1.74D+00  2.18D+00
                    CP:  1.88D+00  1.79D+00  1.09D+00
 E= -4069.81176353924     Delta-E=       -0.000000035829 Rises=F Damp=F
 DIIS: error= 6.38D-07 at cycle  14 NSaved=  14.
 NSaved=14 IEnMin=14 EnMin= -4069.81176353924     IErMin=14 ErrMin= 6.38D-07
 ErrMax= 6.38D-07  0.00D+00 EMaxC= 1.00D-01 BMatC= 1.26D-09 BMatP= 8.14D-09
 IDIUse=1 WtCom= 1.00D+00 WtEn= 0.00D+00
 Coeff-Com:  0.663D-04-0.131D-03-0.246D-03-0.387D-03-0.483D-03 0.129D-02
 Coeff-Com:  0.107D-01 0.192D-01 0.369D-02-0.997D-01-0.142D+00 0.933D-01
 Coeff-Com:  0.405D+00 0.710D+00
 Coeff:      0.663D-04-0.131D-03-0.246D-03-0.387D-03-0.483D-03 0.129D-02
 Coeff:      0.107D-01 0.192D-01 0.369D-02-0.997D-01-0.142D+00 0.933D-01
 Coeff:      0.405D+00 0.710D+00
 Gap=     0.123 Goal=   None    Shift=    0.000
 RMSDP=1.01D-07 MaxDP=6.66D-06 DE=-3.58D-08 OVMax= 5.43D-05

 Cycle  15  Pass 1  IDiag  1:
 RMSU=  3.83D-08    CP:  9.64D-01  1.50D+00  6.88D-01  6.28D-01  8.87D-01
                    CP:  9.28D-01  1.15D+00  1.34D+00  1.76D+00  2.22D+00
                    CP:  1.98D+00  1.92D+00  1.33D+00  1.03D+00
 E= -4069.81176354340     Delta-E=       -0.000000004165 Rises=F Damp=F
 DIIS: error= 3.38D-07 at cycle  15 NSaved=  15.
 NSaved=15 IEnMin=15 EnMin= -4069.81176354340     IErMin=15 ErrMin= 3.38D-07
 ErrMax= 3.38D-07  0.00D+00 EMaxC= 1.00D-01 BMatC= 2.25D-10 BMatP= 1.26D-09
 IDIUse=1 WtCom= 1.00D+00 WtEn= 0.00D+00
 Coeff-Com:  0.518D-05-0.858D-05-0.320D-04-0.809D-04-0.299D-03-0.516D-03
 Coeff-Com:  0.112D-02 0.250D-02 0.875D-02 0.186D-02-0.306D-01-0.731D-01
 Coeff-Com:  0.289D-01 0.296D+00 0.765D+00
 Coeff:      0.518D-05-0.858D-05-0.320D-04-0.809D-04-0.299D-03-0.516D-03
 Coeff:      0.112D-02 0.250D-02 0.875D-02 0.186D-02-0.306D-01-0.731D-01
 Coeff:      0.289D-01 0.296D+00 0.765D+00
 Gap=     0.123 Goal=   None    Shift=    0.000
 RMSDP=4.06D-08 MaxDP=2.70D-06 DE=-4.17D-09 OVMax= 2.69D-05

 Cycle  16  Pass 1  IDiag  1:
 RMSU=  1.87D-08    CP:  9.64D-01  1.50D+00  6.88D-01  6.28D-01  8.88D-01
                    CP:  9.28D-01  1.15D+00  1.34D+00  1.76D+00  2.24D+00
                    CP:  2.01D+00  1.98D+00  1.40D+00  1.24D+00  1.15D+00
 E= -4069.81176354428     Delta-E=       -0.000000000880 Rises=F Damp=F
 DIIS: error= 1.64D-07 at cycle  16 NSaved=  16.
 NSaved=16 IEnMin=16 EnMin= -4069.81176354428     IErMin=16 ErrMin= 1.64D-07
 ErrMax= 1.64D-07  0.00D+00 EMaxC= 1.00D-01 BMatC= 8.17D-11 BMatP= 2.25D-10
 IDIUse=1 WtCom= 1.00D+00 WtEn= 0.00D+00
 Coeff-Com: -0.142D-04 0.288D-04 0.470D-04 0.538D-04-0.268D-04-0.633D-03
 Coeff-Com: -0.198D-02-0.426D-02 0.453D-02 0.256D-01 0.207D-01-0.646D-01
 Coeff-Com: -0.831D-01-0.378D-01 0.398D+00 0.743D+00
 Coeff:     -0.142D-04 0.288D-04 0.470D-04 0.538D-04-0.268D-04-0.633D-03
 Coeff:     -0.198D-02-0.426D-02 0.453D-02 0.256D-01 0.207D-01-0.646D-01
 Coeff:     -0.831D-01-0.378D-01 0.398D+00 0.743D+00
 Gap=     0.123 Goal=   None    Shift=    0.000
 RMSDP=2.29D-08 MaxDP=1.59D-06 DE=-8.80D-10 OVMax= 1.30D-05

 Cycle  17  Pass 1  IDiag  1:
 RMSU=  1.04D-08    CP:  9.64D-01  1.50D+00  6.88D-01  6.28D-01  8.88D-01
                    CP:  9.28D-01  1.15D+00  1.34D+00  1.77D+00  2.24D+00
                    CP:  2.02D+00  2.01D+00  1.45D+00  1.34D+00  1.44D+00
                    CP:  1.25D+00
 E= -4069.81176354443     Delta-E=       -0.000000000149 Rises=F Damp=F
 DIIS: error= 9.35D-08 at cycle  17 NSaved=  17.
 NSaved=17 IEnMin=17 EnMin= -4069.81176354443     IErMin=17 ErrMin= 9.35D-08
 ErrMax= 9.35D-08  0.00D+00 EMaxC= 1.00D-01 BMatC= 1.77D-11 BMatP= 8.17D-11
 IDIUse=1 WtCom= 1.00D+00 WtEn= 0.00D+00
 Coeff-Com: -0.717D-05 0.140D-04 0.285D-04 0.425D-04 0.840D-04-0.122D-03
 Coeff-Com: -0.958D-03-0.280D-02 0.134D-03 0.918D-02 0.174D-01-0.719D-02
 Coeff-Com: -0.366D-01-0.102D+00-0.315D-01 0.293D+00 0.861D+00
 Coeff:     -0.717D-05 0.140D-04 0.285D-04 0.425D-04 0.840D-04-0.122D-03
 Coeff:     -0.958D-03-0.280D-02 0.134D-03 0.918D-02 0.174D-01-0.719D-02
 Coeff:     -0.366D-01-0.102D+00-0.315D-01 0.293D+00 0.861D+00
 Gap=     0.123 Goal=   None    Shift=    0.000
 RMSDP=1.37D-08 MaxDP=1.07D-06 DE=-1.49D-10 OVMax= 8.93D-06

 Cycle  18  Pass 1  IDiag  1:
 RMSU=  4.87D-09    CP:  9.64D-01  1.50D+00  6.88D-01  6.28D-01  8.88D-01
                    CP:  9.28D-01  1.15D+00  1.34D+00  1.77D+00  2.24D+00
                    CP:  2.02D+00  2.02D+00  1.47D+00  1.41D+00  1.61D+00
                    CP:  1.66D+00  1.39D+00
 E= -4069.81176354461     Delta-E=       -0.000000000182 Rises=F Damp=F
 DIIS: error= 5.14D-08 at cycle  18 NSaved=  18.
 NSaved=18 IEnMin=18 EnMin= -4069.81176354461     IErMin=18 ErrMin= 5.14D-08
 ErrMax= 5.14D-08  0.00D+00 EMaxC= 1.00D-01 BMatC= 6.92D-12 BMatP= 1.77D-11
 IDIUse=1 WtCom= 1.00D+00 WtEn= 0.00D+00
 Coeff-Com:  0.207D-05-0.445D-05-0.465D-05-0.181D-05 0.591D-04 0.184D-03
 Coeff-Com:  0.407D-03 0.233D-03-0.129D-02-0.622D-02-0.162D-03 0.202D-01
 Coeff-Com:  0.186D-01-0.324D-01-0.163D+00-0.193D+00 0.349D+00 0.101D+01
 Coeff:      0.207D-05-0.445D-05-0.465D-05-0.181D-05 0.591D-04 0.184D-03
 Coeff:      0.407D-03 0.233D-03-0.129D-02-0.622D-02-0.162D-03 0.202D-01
 Coeff:      0.186D-01-0.324D-01-0.163D+00-0.193D+00 0.349D+00 0.101D+01
 Gap=     0.123 Goal=   None    Shift=    0.000
 RMSDP=1.18D-08 MaxDP=8.04D-07 DE=-1.82D-10 OVMax= 6.80D-06

 Cycle  19  Pass 1  IDiag  1:
 RMSU=  2.79D-09    CP:  9.64D-01  1.50D+00  6.88D-01  6.28D-01  8.88D-01
                    CP:  9.28D-01  1.15D+00  1.34D+00  1.77D+00  2.24D+00
                    CP:  2.03D+00  2.02D+00  1.48D+00  1.46D+00  1.77D+00
                    CP:  1.99D+00  1.94D+00  1.38D+00
 E= -4069.81176354459     Delta-E=        0.000000000029 Rises=F Damp=F
 DIIS: error= 3.32D-08 at cycle  19 NSaved=  19.
 NSaved=19 IEnMin=18 EnMin= -4069.81176354461     IErMin=19 ErrMin= 3.32D-08
 ErrMax= 3.32D-08  0.00D+00 EMaxC= 1.00D-01 BMatC= 1.40D-12 BMatP= 6.92D-12
 IDIUse=1 WtCom= 1.00D+00 WtEn= 0.00D+00
 Coeff-Com:  0.286D-05-0.577D-05-0.980D-05-0.123D-04 0.107D-04 0.118D-03
 Coeff-Com:  0.471D-03 0.788D-03-0.587D-03-0.589D-02-0.478D-02 0.119D-01
 Coeff-Com:  0.199D-01 0.114D-01-0.677D-01-0.176D+00-0.333D-01 0.487D+00
 Coeff-Com:  0.757D+00
 Coeff:      0.286D-05-0.577D-05-0.980D-05-0.123D-04 0.107D-04 0.118D-03
 Coeff:      0.471D-03 0.788D-03-0.587D-03-0.589D-02-0.478D-02 0.119D-01
 Coeff:      0.199D-01 0.114D-01-0.677D-01-0.176D+00-0.333D-01 0.487D+00
 Coeff:      0.757D+00
 Gap=     0.123 Goal=   None    Shift=    0.000
 RMSDP=4.48D-09 MaxDP=3.24D-07 DE= 2.91D-11 OVMax= 2.93D-06

 SCF Done:  E(RCAM-B3LYP) =  -4069.81176354     A.U. after   19 cycles
            NFock= 19  Conv=0.45D-08     -V/T= 2.0102
 KE= 4.028802043790D+03 PE=-3.409458767525D+04 EE= 1.368909440304D+04
 Leave Link  502 at Sun Sep 12 21:45:59 2021, MaxMem= 23488102400 cpu:           11430.2 elap:             501.1
 (Enter /sw/apps/gaussian-16.0/g16/l801.exe)
 DoSCS=F DFT=T ScalE2(SS,OS)=  1.000000  1.000000
 ExpMin= 3.36D-02 ExpMax= 4.95D+03 ExpMxC= 7.45D+02 IAcc=3 IRadAn=         5 AccDes= 0.00D+00
 HarFok:  IExCor=  205 AccDes= 0.00D+00 IRadAn=         5 IDoV=-2 UseB2=F ITyADJ=14
 ICtDFT= 12500011 ScaDFX=  1.000000  1.000000  1.000000  1.000000
 GSVD:  LWork=       -9588 too small for GESVD, short by       45590 words or       45590 for optimal perf.
 Largest valence mixing into a core orbital is  2.03D-04
 Largest core mixing into a valence orbital is  5.24D-05
 Range of M.O.s used for correlation:    95  1572
 NBasis=  1572 NAE=   312 NBE=   312 NFC=    94 NFV=     0
 NROrb=   1478 NOA=   218 NOB=   218 NVA=  1260 NVB=  1260
 Leave Link  801 at Sun Sep 12 21:46:00 2021, MaxMem= 23488102400 cpu:               8.3 elap:               0.4
 (Enter /sw/apps/gaussian-16.0/g16/l914.exe)
 RHF ground state
 Two-electron integrals replicated using symmetry.
 MDV= 23488102400 DFT=T DoStab=F Mixed=T DoRPA=T DoScal=F NonHer=T
 Making orbital integer symmetry assigments:
 Orbital symmetries:
       Occupied  (A) (A) (A) (A) (A) (A) (A) (A) (A) (A) (A) (A)
                 (A) (A) (A) (A) (A) (A) (A) (A) (A) (A) (A) (A)
                 (A) (A) (A) (A) (A) (A) (A) (A) (A) (A) (A) (A)
                 (A) (A) (A) (A) (A) (A) (A) (A) (A) (A) (A) (A)
                 (A) (A) (A) (A) (A) (A) (A) (A) (A) (A) (A) (A)
                 (A) (A) (A) (A) (A) (A) (A) (A) (A) (A) (A) (A)
                 (A) (A) (A) (A) (A) (A) (A) (A) (A) (A) (A) (A)
                 (A) (A) (A) (A) (A) (A) (A) (A) (A) (A) (A) (A)
                 (A) (A) (A) (A) (A) (A) (A) (A) (A) (A) (A) (A)
                 (A) (A) (A) (A) (A) (A) (A) (A) (A) (A) (A) (A)
                 (A) (A) (A) (A) (A) (A) (A) (A) (A) (A) (A) (A)
                 (A) (A) (A) (A) (A) (A) (A) (A) (A) (A) (A) (A)
                 (A) (A) (A) (A) (A) (A) (A) (A) (A) (A) (A) (A)
                 (A) (A) (A) (A) (A) (A) (A) (A) (A) (A) (A) (A)
                 (A) (A) (A) (A) (A) (A) (A) (A) (A) (A) (A) (A)
                 (A) (A) (A) (A) (A) (A) (A) (A) (A) (A) (A) (A)
                 (A) (A) (A) (A) (A) (A) (A) (A) (A) (A) (A) (A)
                 (A) (A) (A) (A) (A) (A) (A) (A) (A) (A) (A) (A)
                 (A) (A) (A) (A) (A) (A) (A) (A) (A) (A) (A) (A)
                 (A) (A) (A) (A) (A) (A) (A) (A) (A) (A) (A) (A)
                 (A) (A) (A) (A) (A) (A) (A) (A) (A) (A) (A) (A)
                 (A) (A) (A) (A) (A) (A) (A) (A) (A) (A) (A) (A)
                 (A) (A) (A) (A) (A) (A) (A) (A) (A) (A) (A) (A)
                 (A) (A) (A) (A) (A) (A) (A) (A) (A) (A) (A) (A)
                 (A) (A) (A) (A) (A) (A) (A) (A) (A) (A) (A) (A)
                 (A) (A) (A) (A) (A) (A) (A) (A) (A) (A) (A) (A)
       Virtual   (A) (A) (A) (A) (A) (A) (A) (A) (A) (A) (A) (A)
                 (A) (A) (A) (A) (A) (A) (A) (A) (A) (A) (A) (A)
                 (A) (A) (A) (A) (A) (A) (A) (A) (A) (A) (A) (A)
                 (A) (A) (A) (A) (A) (A) (A) (A) (A) (A) (A) (A)
                 (A) (A) (A) (A) (A) (A) (A) (A) (A) (A) (A) (A)
                 (A) (A) (A) (A) (A) (A) (A) (A) (A) (A) (A) (A)
                 (A) (A) (A) (A) (A) (A) (A) (A) (A) (A) (A) (A)
                 (A) (A) (A) (A) (A) (A) (A) (A) (A) (A) (A) (A)
                 (A) (A) (A) (A) (A) (A) (A) (A) (A) (A) (A) (A)
                 (A) (A) (A) (A) (A) (A) (A) (A) (A) (A) (A) (A)
                 (A) (A) (A) (A) (A) (A) (A) (A) (A) (A) (A) (A)
                 (A) (A) (A) (A) (A) (A) (A) (A) (A) (A) (A) (A)
                 (A) (A) (A) (A) (A) (A) (A) (A) (A) (A) (A) (A)
                 (A) (A) (A) (A) (A) (A) (A) (A) (A) (A) (A) (A)
                 (A) (A) (A) (A) (A) (A) (A) (A) (A) (A) (A) (A)
                 (A) (A) (A) (A) (A) (A) (A) (A) (A) (A) (A) (A)
                 (A) (A) (A) (A) (A) (A) (A) (A) (A) (A) (A) (A)
                 (A) (A) (A) (A) (A) (A) (A) (A) (A) (A) (A) (A)
                 (A) (A) (A) (A) (A) (A) (A) (A) (A) (A) (A) (A)
                 (A) (A) (A) (A) (A) (A) (A) (A) (A) (A) (A) (A)
                 (A) (A) (A) (A) (A) (A) (A) (A) (A) (A) (A) (A)
                 (A) (A) (A) (A) (A) (A) (A) (A) (A) (A) (A) (A)
                 (A) (A) (A) (A) (A) (A) (A) (A) (A) (A) (A) (A)
                 (A) (A) (A) (A) (A) (A) (A) (A) (A) (A) (A) (A)
                 (A) (A) (A) (A) (A) (A) (A) (A) (A) (A) (A) (A)
                 (A) (A) (A) (A) (A) (A) (A) (A) (A) (A) (A) (A)
                 (A) (A) (A) (A) (A) (A) (A) (A) (A) (A) (A) (A)
                 (A) (A) (A) (A) (A) (A) (A) (A) (A) (A) (A) (A)
                 (A) (A) (A) (A) (A) (A) (A) (A) (A) (A) (A) (A)
                 (A) (A) (A) (A) (A) (A) (A) (A) (A) (A) (A) (A)
                 (A) (A) (A) (A) (A) (A) (A) (A) (A) (A) (A) (A)
                 (A) (A) (A) (A) (A) (A) (A) (A) (A) (A) (A) (A)
                 (A) (A) (A) (A) (A) (A) (A) (A) (A) (A) (A) (A)
                 (A) (A) (A) (A) (A) (A) (A) (A) (A) (A) (A) (A)
                 (A) (A) (A) (A) (A) (A) (A) (A) (A) (A) (A) (A)
                 (A) (A) (A) (A) (A) (A) (A) (A) (A) (A) (A) (A)
                 (A) (A) (A) (A) (A) (A) (A) (A) (A) (A) (A) (A)
                 (A) (A) (A) (A) (A) (A) (A) (A) (A) (A) (A) (A)
                 (A) (A) (A) (A) (A) (A) (A) (A) (A) (A) (A) (A)
                 (A) (A) (A) (A) (A) (A) (A) (A) (A) (A) (A) (A)
                 (A) (A) (A) (A) (A) (A) (A) (A) (A) (A) (A) (A)
                 (A) (A) (A) (A) (A) (A) (A) (A) (A) (A) (A) (A)
                 (A) (A) (A) (A) (A) (A) (A) (A) (A) (A) (A) (A)
                 (A) (A) (A) (A) (A) (A) (A) (A) (A) (A) (A) (A)
                 (A) (A) (A) (A) (A) (A) (A) (A) (A) (A) (A) (A)
                 (A) (A) (A) (A) (A) (A) (A) (A) (A) (A) (A) (A)
                 (A) (A) (A) (A) (A) (A) (A) (A) (A) (A) (A) (A)
                 (A) (A) (A) (A) (A) (A) (A) (A) (A) (A) (A) (A)
                 (A) (A) (A) (A) (A) (A) (A) (A) (A) (A) (A) (A)
                 (A) (A) (A) (A) (A) (A) (A) (A) (A) (A) (A) (A)
                 (A) (A) (A) (A) (A) (A) (A) (A) (A) (A) (A) (A)
                 (A) (A) (A) (A) (A) (A) (A) (A) (A) (A) (A) (A)
                 (A) (A) (A) (A) (A) (A) (A) (A) (A) (A) (A) (A)
                 (A) (A) (A) (A) (A) (A) (A) (A) (A) (A) (A) (A)
                 (A) (A) (A) (A) (A) (A) (A) (A) (A) (A) (A) (A)
                 (A) (A) (A) (A) (A) (A) (A) (A) (A) (A) (A) (A)
                 (A) (A) (A) (A) (A) (A) (A) (A) (A) (A) (A) (A)
                 (A) (A) (A) (A) (A) (A) (A) (A) (A) (A) (A) (A)
                 (A) (A) (A) (A) (A) (A) (A) (A) (A) (A) (A) (A)
                 (A) (A) (A) (A) (A) (A) (A) (A) (A) (A) (A) (A)
                 (A) (A) (A) (A) (A) (A) (A) (A) (A) (A) (A) (A)
                 (A) (A) (A) (A) (A) (A) (A) (A) (A) (A) (A) (A)
                 (A) (A) (A) (A) (A) (A) (A) (A) (A) (A) (A) (A)
                 (A) (A) (A) (A) (A) (A) (A) (A) (A) (A) (A) (A)
                 (A) (A) (A) (A) (A) (A) (A) (A) (A) (A) (A) (A)
                 (A) (A) (A) (A) (A) (A) (A) (A) (A) (A) (A) (A)
                 (A) (A) (A) (A) (A) (A) (A) (A) (A) (A) (A) (A)
                 (A) (A) (A) (A) (A) (A) (A) (A) (A) (A) (A) (A)
                 (A) (A) (A) (A) (A) (A) (A) (A) (A) (A) (A) (A)
                 (A) (A) (A) (A) (A) (A) (A) (A) (A) (A) (A) (A)
                 (A) (A) (A) (A) (A) (A) (A) (A) (A) (A) (A) (A)
                 (A) (A) (A) (A) (A) (A) (A) (A) (A) (A) (A) (A)
                 (A) (A) (A) (A) (A) (A) (A) (A) (A) (A) (A) (A)
                 (A) (A) (A) (A) (A) (A) (A) (A) (A) (A) (A) (A)
                 (A) (A) (A) (A) (A) (A) (A) (A) (A) (A) (A) (A)
                 (A) (A) (A) (A) (A) (A) (A) (A) (A) (A) (A) (A)
                 (A) (A) (A) (A) (A) (A) (A) (A) (A) (A) (A) (A)
                 (A) (A) (A) (A) (A) (A) (A) (A) (A) (A) (A) (A)
                 (A) (A) (A) (A) (A) (A) (A) (A) (A) (A) (A) (A)
                 (A) (A) (A) (A) (A) (A) (A) (A) (A) (A) (A) (A)
                 (A) (A) (A) (A) (A) (A) (A) (A) (A) (A) (A) (A)
                 (A) (A) (A) (A) (A) (A) (A) (A) (A) (A) (A) (A)
                 (A) (A) (A) (A) (A) (A) (A) (A) (A) (A) (A) (A)
                 (A) (A) (A) (A) (A) (A) (A) (A) (A) (A) (A) (A)
                 (A) (A) (A) (A) (A) (A) (A) (A) (A) (A) (A) (A)
                 (A) (A) (A) (A) (A) (A) (A) (A) (A) (A) (A) (A)
                 (A) (A) (A) (A) (A) (A) (A) (A) (A) (A) (A) (A)
                 (A) (A) (A) (A) (A) (A) (A) (A) (A) (A) (A) (A)
                 (A) (A) (A) (A) (A) (A) (A) (A) (A) (A) (A) (A)
                 (A) (A) (A) (A) (A) (A) (A) (A) (A) (A) (A) (A)
                 (A) (A) (A) (A) (A) (A) (A) (A) (A) (A) (A) (A)
                 (A) (A) (A) (A) (A) (A) (A) (A) (A) (A) (A) (A)
                 (A) (A) (A) (A) (A) (A) (A) (A) (A) (A) (A) (A)
                 (A) (A) (A) (A) (A) (A) (A) (A) (A) (A) (A) (A)
                 (A) (A) (A) (A) (A) (A) (A) (A) (A) (A) (A) (A)
                 (A) (A) (A) (A) (A) (A) (A) (A) (A) (A) (A) (A)
                 (A) (A) (A) (A) (A) (A) (A) (A) (A) (A) (A) (A)
                 (A) (A) (A) (A) (A) (A) (A) (A) (A) (A) (A) (A)
                 (A) (A) (A) (A) (A) (A) (A) (A) (A) (A) (A) (A)
                 (A) (A) (A) (A) (A) (A) (A) (A) (A) (A) (A) (A)
                 (A) (A) (A) (A) (A) (A) (A) (A) (A) (A) (A) (A)
                 (A) (A) (A) (A) (A) (A) (A) (A) (A) (A) (A) (A)
                 (A) (A) (A) (A) (A) (A) (A) (A) (A) (A) (A) (A)
                 (A) (A) (A) (A) (A) (A) (A) (A) (A) (A) (A) (A)
                 (A) (A) (A) (A) (A) (A) (A) (A) (A) (A) (A) (A)
    20 initial guesses have been made.
 Convergence on wavefunction:    0.001000000000000
 Davidson Disk Diagonalization:  ConvIn= 1.00D-03 SkipCon=T Conv= 1.00D-03.
 Max sub-space:  2000 roots to seek:    20 dimension of matrix:       549360
 Iteration     1 Dimension    20 NMult     0 NNew     20
 CISAX will form    20 AO SS matrices at one time.
 NMat=    20 NSing=    20 JSym2X= 0.
 FoFJK:  IHMeth= 1 ICntrl=       0 DoSepK=T KAlg= 0 I1Cent=           0 FoldK=F
 IRaf=         1 NMat=      40 IRICut=       1 DoRegI=T DoRafI=F ISym2E= 0 IDoP0=3 IntGTp=3.
 FoFCou: FMM=T IPFlag=           0 FMFlag=      100000 FMFlg1=        2001
         NFxFlg=           0 DoJE=F BraDBF=F KetDBF=F FulRan=T
         wScrn=  0.000000 ICntrl=       500 IOpCl=  0 I1Cent=           0 NGrid=           0
         NMat0=   20 NMatS0=     20 NMatT0=    0 NMatD0=   20 NMtDS0=    0 NMtDT0=    0
 Symmetry not used in FoFCou.
 FMM levels:  10  Number of levels for PrismC:   9
 New state      1 was old state      8
 New state      2 was old state      5
 New state      3 was old state      1
 New state      5 was old state      2
 Excitation Energies [eV] at current iteration:
 Root      1 :     2.614353901151831
 Root      2 :     2.619327220905343
 Root      3 :     2.680342262543531
 Root      4 :     2.690282601600199
 Root      5 :     3.065859920781577
 Root      6 :     3.067243188521628
 Root      7 :     3.628512086165281
 Root      8 :     3.669111958103898
 Root      9 :     3.735942538861714
 Root     10 :     3.759306931435221
 Root     11 :     3.861053501212916
 Root     12 :     3.869167454944596
 Root     13 :     4.303137889135602
 Root     14 :     4.306764771504227
 Root     15 :     4.978137594365031
 Root     16 :     5.000134957613650
 Root     17 :     5.272003784456833
 Root     18 :     5.294338459774342
 Root     19 :     5.304282387254586
 Root     20 :     5.328578274578923
 Iteration     2 Dimension    30 NMult    20 NNew     10
 CISAX will form    10 AO SS matrices at one time.
 NMat=    10 NSing=    10 JSym2X= 0.
 New state      1 was old state      3
 Root      1 not converged, maximum delta is    0.187158342288650
 New state      2 was old state      4
 Root      2 not converged, maximum delta is    0.188541206201294
 New state      3 was old state      2
 Root      3 not converged, maximum delta is    0.075782602583999
 New state      4 was old state      1
 Root      4 not converged, maximum delta is    0.089652315748888
 Root      5 has converged.
 Excitation Energies [eV] at current iteration:
 Root      1 :     1.801327989664731   Change is   -0.879014272878800
 Root      2 :     1.807424338470149   Change is   -0.882858263130050
 Root      3 :     2.235846319952608   Change is   -0.383480900952735
 Root      4 :     2.239084411151166   Change is   -0.375269490000666
 Root      5 :     3.065853735533394   Change is   -0.000006185248183
 Iteration     3 Dimension    38 NMult    30 NNew      8
 CISAX will form     8 AO SS matrices at one time.
 NMat=     8 NSing=     8 JSym2X= 0.
 Root      1 not converged, maximum delta is    0.069344876541814
 Root      2 not converged, maximum delta is    0.070510995193737
 Root      3 not converged, maximum delta is    0.044054573732301
 Root      4 not converged, maximum delta is    0.042569849215890
 Root      5 has converged.
 Excitation Energies [eV] at current iteration:
 Root      1 :     1.694082167970742   Change is   -0.107245821693989
 Root      2 :     1.699035518880210   Change is   -0.108388819589940
 Root      3 :     2.194368049125909   Change is   -0.041478270826698
 Root      4 :     2.200213206211826   Change is   -0.038871204939339
 Root      5 :     3.065853735533474   Change is    0.000000000000080
 Iteration     4 Dimension    46 NMult    38 NNew      8
 CISAX will form     8 AO SS matrices at one time.
 NMat=     8 NSing=     8 JSym2X= 0.
 Root      1 not converged, maximum delta is    0.013026529937281
 Root      2 not converged, maximum delta is    0.013284569354688
 Root      3 not converged, maximum delta is    0.009745539953577
 Root      4 not converged, maximum delta is    0.008897852015586
 Root      5 has converged.
 Excitation Energies [eV] at current iteration:
 Root      1 :     1.677369001681837   Change is   -0.016713166288905
 Root      2 :     1.682156322969049   Change is   -0.016879195911160
 Root      3 :     2.187062604961489   Change is   -0.007305444164420
 Root      4 :     2.193439124484815   Change is   -0.006774081727012
 Root      5 :     3.065853735533421   Change is   -0.000000000000054
 Iteration     5 Dimension    54 NMult    46 NNew      8
 CISAX will form     8 AO SS matrices at one time.
 NMat=     8 NSing=     8 JSym2X= 0.
 Root      1 not converged, maximum delta is    0.002164978702486
 Root      2 not converged, maximum delta is    0.002167633887256
 Root      3 not converged, maximum delta is    0.002500677663035
 Root      4 not converged, maximum delta is    0.002385016327597
 Root      5 has converged.
 Excitation Energies [eV] at current iteration:
 Root      1 :     1.675590839080435   Change is   -0.001778162601401
 Root      2 :     1.680383347546595   Change is   -0.001772975422455
 Root      3 :     2.186216276185776   Change is   -0.000846328775713
 Root      4 :     2.192663248253605   Change is   -0.000775876231210
 Root      5 :     3.065853735533448   Change is    0.000000000000027
 Iteration     6 Dimension    62 NMult    54 NNew      8
 CISAX will form     8 AO SS matrices at one time.
 NMat=     8 NSing=     8 JSym2X= 0.
 Root      1 not converged, maximum delta is    0.001356067792890
 Root      2 not converged, maximum delta is    0.001376851991745
 Root      3 not converged, maximum delta is    0.001070647570930
 Root      4 not converged, maximum delta is    0.001013766683250
 Root      5 has converged.
 Excitation Energies [eV] at current iteration:
 Root      1 :     1.675337079510435   Change is   -0.000253759570001
 Root      2 :     1.680128274662404   Change is   -0.000255072884190
 Root      3 :     2.186087964226832   Change is   -0.000128311958945
 Root      4 :     2.192545498514655   Change is   -0.000117749738949
 Root      5 :     3.065853735533474   Change is    0.000000000000027
 Iteration     7 Dimension    70 NMult    62 NNew      8
 CISAX will form     8 AO SS matrices at one time.
 NMat=     8 NSing=     8 JSym2X= 0.
 Root      1 has converged.
 Root      2 has converged.
 Root      3 has converged.
 Root      4 has converged.
 Root      5 has converged.
 Excitation Energies [eV] at current iteration:
 Root      1 :     1.675312854034691   Change is   -0.000024225475744
 Root      2 :     1.680104438091244   Change is   -0.000023836571160
[...]
 Alpha virt. eigenvalues --    1.83475   1.83797   1.83847   1.84061   1.84158
 Alpha virt. eigenvalues --    1.84481   1.84488   1.84742   1.84848   1.85080
 Alpha virt. eigenvalues --    1.85140   1.85301   1.85312   1.85442   1.85520
 Alpha virt. eigenvalues --    1.85855   1.85905   1.86337   1.86398   1.86593
 Alpha virt. eigenvalues --    1.86606   1.86779   1.86821   1.86998   1.87076
 Alpha virt. eigenvalues --    1.87437   1.87482   1.87717   1.87726   1.87905
 Alpha virt. eigenvalues --    1.87968   1.88077   1.88132   1.88527   1.88573
 Alpha virt. eigenvalues --    1.88859   1.88892   1.89027   1.89164   1.89613
 Alpha virt. eigenvalues --    1.89663   1.89783   1.89831   1.90143   1.90156
 Alpha virt. eigenvalues --    1.90789   1.90848   1.91380   1.91386   1.91477
 Alpha virt. eigenvalues --    1.91545   1.92136   1.92191   1.92614   1.92662
 Alpha virt. eigenvalues --    1.93019   1.93103   1.93375   1.93455   1.94262
 Alpha virt. eigenvalues --    1.94320   1.94726   1.94768   1.95513   1.95545
 Alpha virt. eigenvalues --    1.95764   1.95766   1.96001   1.96032   1.96126
 Alpha virt. eigenvalues --    1.96190   1.96435   1.96632   1.96889   1.96936
 Alpha virt. eigenvalues --    1.97487   1.97495   1.97755   1.97873   1.98120
 Alpha virt. eigenvalues --    1.98206   1.98302   1.98711   1.99024   1.99173
 Alpha virt. eigenvalues --    1.99858   1.99884   2.00678   2.00697   2.01033
 Alpha virt. eigenvalues --    2.01048   2.01459   2.01516   2.01559   2.01710
 Alpha virt. eigenvalues --    2.01756   2.01776   2.02662   2.02822   2.03093
 Alpha virt. eigenvalues --    2.03272   2.03331   2.03441   2.03472   2.03521
 Alpha virt. eigenvalues --    2.03978   2.04072   2.04928   2.04995   2.05551
 Alpha virt. eigenvalues --    2.05581   2.06116   2.06238   2.06939   2.06985
 Alpha virt. eigenvalues --    2.07221   2.07299   2.08504   2.08623   2.08955
 Alpha virt. eigenvalues --    2.09018   2.09563   2.09626   2.10816   2.10985
 Alpha virt. eigenvalues --    2.11219   2.11357   2.11483   2.11574   2.11764
 Alpha virt. eigenvalues --    2.11815   2.12416   2.12501   2.12751   2.12820
 Alpha virt. eigenvalues --    2.12841   2.12871   2.13581   2.13802   2.14174
 Alpha virt. eigenvalues --    2.14202   2.15356   2.15372   2.15961   2.16031
 Alpha virt. eigenvalues --    2.16542   2.16559   2.16791   2.17122   2.17452
 Alpha virt. eigenvalues --    2.17599   2.17741   2.17883   2.17953   2.18106
 Alpha virt. eigenvalues --    2.18360   2.18622   2.18903   2.19184   2.19676
 Alpha virt. eigenvalues --    2.19768   2.20074   2.20192   2.20247   2.20387
 Alpha virt. eigenvalues --    2.21122   2.21187   2.21706   2.21713   2.21780
 Alpha virt. eigenvalues --    2.21824   2.22650   2.22716   2.23290   2.23350
 Alpha virt. eigenvalues --    2.24367   2.24430   2.24953   2.24995   2.26334
 Alpha virt. eigenvalues --    2.26388   2.26815   2.26956   2.27137   2.27151
 Alpha virt. eigenvalues --    2.28172   2.28262   2.29303   2.29384   2.29770
 Alpha virt. eigenvalues --    2.29827   2.30489   2.30569   2.30773   2.31117
 Alpha virt. eigenvalues --    2.31148   2.31215   2.32156   2.32187   2.33169
 Alpha virt. eigenvalues --    2.33181   2.33430   2.33496   2.34088   2.34175
 Alpha virt. eigenvalues --    2.35246   2.35405   2.35831   2.35855   2.36279
 Alpha virt. eigenvalues --    2.36388   2.36395   2.36658   2.37623   2.37694
 Alpha virt. eigenvalues --    2.38292   2.38327   2.38728   2.38890   2.39613
 Alpha virt. eigenvalues --    2.39645   2.40212   2.40216   2.40519   2.40773
 Alpha virt. eigenvalues --    2.41157   2.41302   2.41639   2.41721   2.42073
 Alpha virt. eigenvalues --    2.42073   2.42767   2.42978   2.43015   2.43566
 Alpha virt. eigenvalues --    2.43920   2.44202   2.44748   2.44764   2.44932
 Alpha virt. eigenvalues --    2.44937   2.45513   2.45581   2.46227   2.46335
 Alpha virt. eigenvalues --    2.46438   2.46511   2.46741   2.46832   2.47287
 Alpha virt. eigenvalues --    2.47319   2.47747   2.47827   2.49334   2.49343
 Alpha virt. eigenvalues --    2.49834   2.50102   2.50396   2.50583   2.51153
 Alpha virt. eigenvalues --    2.51207   2.51551   2.51918   2.52336   2.52471
 Alpha virt. eigenvalues --    2.52841   2.53102   2.53908   2.53951   2.54182
 Alpha virt. eigenvalues --    2.54222   2.54745   2.54821   2.55552   2.55604
 Alpha virt. eigenvalues --    2.57896   2.58015   2.58676   2.58839   2.60236
 Alpha virt. eigenvalues --    2.60238   2.60644   2.60859   2.61743   2.61756
 Alpha virt. eigenvalues --    2.62365   2.62564   2.62988   2.63060   2.63967
 Alpha virt. eigenvalues --    2.64153   2.64277   2.64360   2.65032   2.65111
 Alpha virt. eigenvalues --    2.65794   2.65817   2.66753   2.66810   2.66941
 Alpha virt. eigenvalues --    2.66989   2.67913   2.67940   2.68751   2.68889
 Alpha virt. eigenvalues --    2.68963   2.69054   2.69422   2.69525   2.70029
 Alpha virt. eigenvalues --    2.70068   2.70998   2.71011   2.71824   2.72085
 Alpha virt. eigenvalues --    2.72423   2.72665   2.72684   2.72858   2.73216
 Alpha virt. eigenvalues --    2.73307   2.73398   2.73563   2.74436   2.74542
 Alpha virt. eigenvalues --    2.74983   2.75006   2.76448   2.76622   2.76993
 Alpha virt. eigenvalues --    2.77263   2.77487   2.77532   2.78221   2.78222
 Alpha virt. eigenvalues --    2.78616   2.78761   2.79082   2.79165   2.80190
 Alpha virt. eigenvalues --    2.80375   2.80615   2.80619   2.81076   2.81146
 Alpha virt. eigenvalues --    2.81914   2.81964   2.82259   2.82372   2.83771
 Alpha virt. eigenvalues --    2.83782   2.83798   2.83829   2.84451   2.84576
 Alpha virt. eigenvalues --    2.84809   2.84914   2.85616   2.85698   2.86583
 Alpha virt. eigenvalues --    2.87027   2.87098   2.87637   2.88161   2.88186
 Alpha virt. eigenvalues --    2.88539   2.88539   2.88794   2.88965   2.90527
 Alpha virt. eigenvalues --    2.90581   2.90990   2.91219   2.93185   2.93243
 Alpha virt. eigenvalues --    2.93692   2.94230   2.94494   2.94588   2.95394
 Alpha virt. eigenvalues --    2.95397   2.95763   2.96232   2.96296   2.96471
 Alpha virt. eigenvalues --    2.96794   2.97207   2.97846   2.97952   2.98238
 Alpha virt. eigenvalues --    2.98278   2.98396   2.98493   2.98632   2.98700
 Alpha virt. eigenvalues --    2.98842   2.98914   2.99617   2.99721   2.99938
 Alpha virt. eigenvalues --    3.00061   3.00250   3.00257   3.00491   3.00912
 Alpha virt. eigenvalues --    3.01822   3.02020   3.02036   3.02063   3.02743
 Alpha virt. eigenvalues --    3.02763   3.03008   3.03236   3.03358   3.03628
 Alpha virt. eigenvalues --    3.03973   3.04201   3.04351   3.04481   3.04578
 Alpha virt. eigenvalues --    3.04647   3.05271   3.05327   3.06083   3.06144
 Alpha virt. eigenvalues --    3.06834   3.06856   3.07841   3.08176   3.09276
 Alpha virt. eigenvalues --    3.09432   3.09723   3.10351   3.10473   3.10657
 Alpha virt. eigenvalues --    3.11362   3.11399   3.11818   3.11974   3.12208
 Alpha virt. eigenvalues --    3.12222   3.13314   3.13567   3.13607   3.13672
 Alpha virt. eigenvalues --    3.14123   3.14394   3.15907   3.15953   3.17296
 Alpha virt. eigenvalues --    3.17437   3.17797   3.18110   3.18950   3.19159
 Alpha virt. eigenvalues --    3.22337   3.22517   3.23980   3.24356   3.24707
 Alpha virt. eigenvalues --    3.25111   3.26537   3.26574   3.27312   3.27654
 Alpha virt. eigenvalues --    3.29133   3.29141   3.31296   3.31558   3.33102
 Alpha virt. eigenvalues --    3.33451   3.40180   3.40663   3.42735   3.42850
 Alpha virt. eigenvalues --    3.48615   3.48693   3.50056   3.50199   3.50754
 Alpha virt. eigenvalues --    3.51508   3.56585   3.56922   3.59134   3.59257
 Alpha virt. eigenvalues --    3.62432   3.62871   3.66033   3.66220   3.67219
 Alpha virt. eigenvalues --    3.67462   3.73304   3.73940   3.76090   3.76599
          Condensed to atoms (all electrons):
 Mulliken charges:
               1
     1  Mg   0.838734
     2  C   -0.002978
     3  C   -0.094128
     4  C   -0.045876
     5  C   -0.063969
     6  N   -0.256769
     7  C   -0.052464
     8  C   -0.014019
     9  C   -0.086994
    10  C    0.046311
    11  C    0.104812
    12  C    0.053480
    13  C   -0.071803
    14  H    0.036109
    15  N   -0.433137
    16  C    0.168428
    17  C   -0.177170
    18  C   -0.004004
    19  C    0.148705
    20  C    0.110183
    21  C    0.012277
    22  O   -0.249620
    23  C    0.062477
    24  N   -0.341166
    25  C    0.041255
    26  C   -0.028167
    27  C   -0.024014
    28  C    0.074889
    29  C    0.076172
    30  C    0.035130
    31  C   -0.004510
    32  N   -0.310471
    33  C    0.080413
    34  C   -0.169702
    35  C    0.008368
    36  C    0.082994
    37  C    0.127308
    38  C    0.046125
    39  O   -0.188415
    40  C   -0.005322
    41  C    0.212862
    42  O   -0.257098
    43  O   -0.304792
    44  C    0.157686
    45  H   -0.017615
    46  H   -0.016836
    47  H   -0.041471
    48  H    0.000942
    49  H   -0.004049
    50  H    0.025481
    51  H    0.016453
    52  H    0.016650
    53  H    0.011190
    54  H    0.044126
    55  H    0.017880
    56  H    0.017933
    57  H    0.005863
    58  H    0.026820
    59  H    0.039525
    60  H    0.037343
    61  H    0.035643
    62  H    0.031484
    63  H    0.016555
    64  H    0.009473
    65  H    0.023213
    66  H    0.012541
    67  H    0.004761
    68  H    0.006376
    69  H    0.004748
    70  H    0.008774
    71  H    0.018164
    72  H    0.028974
    73  H    0.047594
    74  H    0.009127
    75  H    0.046017
    76  H    0.035154
    77  H    0.042961
    78  H    0.046385
    79  H    0.053693
    80  Mg   0.837915
    81  C   -0.016814
    82  C   -0.087783
    83  C   -0.045522
    84  C   -0.064863
    85  N   -0.254590
    86  C   -0.049820
    87  C   -0.015098
    88  C   -0.090512
    89  C    0.045766
    90  C    0.114370
    91  C    0.062523
    92  C   -0.077899
    93  H    0.034900
    94  N   -0.423510
    95  C    0.162909
    96  C   -0.174627
    97  C   -0.007822
    98  C    0.152126
    99  C    0.099371
   100  C    0.015574
   101  O   -0.253182
   102  C    0.061200
   103  N   -0.350065
   104  C    0.037532
   105  C   -0.019851
   106  C   -0.034800
   107  C    0.088902
   108  C    0.073642
   109  C    0.034739
   110  C   -0.007675
   111  N   -0.324132
   112  C    0.078452
   113  C   -0.163105
   114  C    0.002260
   115  C    0.096206
   116  C    0.131483
   117  C    0.042410
   118  O   -0.187816
   119  C    0.000886
   120  C    0.211273
   121  O   -0.251039
   122  O   -0.305612
   123  C    0.152025
   124  H   -0.019662
   125  H   -0.015570
   126  H   -0.040431
   127  H   -0.000609
   128  H   -0.004338
   129  H    0.022510
   130  H    0.014437
   131  H    0.016289
   132  H    0.013903
   133  H    0.037681
   134  H    0.020813
   135  H    0.019577
   136  H    0.008757
   137  H    0.026134
   138  H    0.039779
   139  H    0.038246
   140  H    0.036386
   141  H    0.033890
   142  H    0.014389
   143  H    0.012457
   144  H    0.025138
   145  H    0.011656
   146  H    0.005716
   147  H    0.006269
   148  H    0.003666
   149  H    0.010926
   150  H    0.017934
   151  H    0.030091
   152  H    0.046018
   153  H    0.008518
   154  H    0.047015
   155  H    0.035084
   156  H    0.043945
   157  H    0.049486
   158  H    0.053573
 Sum of Mulliken charges =  -0.00000
 Mulliken charges with hydrogens summed into heavy atoms:
               1
     1  Mg   0.838734
     2  C   -0.002978
     3  C   -0.111743
     4  C   -0.062712
     5  C   -0.105440
     6  N   -0.256769
     7  C   -0.052464
     8  C   -0.013077
     9  C   -0.091044
    10  C    0.046311
    11  C    0.163395
    12  C    0.108796
    13  C    0.000119
    15  N   -0.433137
    16  C    0.168428
    17  C   -0.177170
    18  C   -0.004004
    19  C    0.148705
    20  C    0.182391
    21  C    0.012277
    22  O   -0.249620
    23  C    0.166948
    24  N   -0.341166
    25  C    0.041255
    26  C   -0.011612
    27  C   -0.014541
    28  C    0.074889
    29  C    0.116687
    30  C    0.046253
    31  C    0.051403
    32  N   -0.310471
    33  C    0.080413
    34  C   -0.169702
    35  C    0.008368
    36  C    0.082994
    37  C    0.230046
    38  C    0.046125
    39  O   -0.188415
    40  C    0.029831
    41  C    0.212862
    42  O   -0.257098
    43  O   -0.304792
    44  C    0.300725
    80  Mg   0.837915
    81  C   -0.016814
    82  C   -0.107445
    83  C   -0.061092
    84  C   -0.105295
    85  N   -0.254590
    86  C   -0.049820
    87  C   -0.015707
    88  C   -0.094850
    89  C    0.045766
    90  C    0.167607
    91  C    0.114107
    92  C   -0.002609
    94  N   -0.423510
    95  C    0.162909
    96  C   -0.174627
    97  C   -0.007822
    98  C    0.152126
    99  C    0.174041
   100  C    0.015574
   101  O   -0.253182
   102  C    0.169721
   103  N   -0.350065
   104  C    0.037532
   105  C   -0.005462
   106  C   -0.022343
   107  C    0.088902
   108  C    0.116152
   109  C    0.044674
   110  C    0.051276
   111  N   -0.324132
   112  C    0.078452
   113  C   -0.163105
   114  C    0.002260
   115  C    0.096206
   116  C    0.233034
   117  C    0.042410
   118  O   -0.187816
   119  C    0.035971
   120  C    0.211273
   121  O   -0.251039
   122  O   -0.305612
   123  C    0.299028
 Electronic spatial extent (au):  <R**2>=         614042.9993
 Charge=             -0.0000 electrons
 Dipole moment (field-independent basis, Debye):
    X=             -4.0359    Y=             -2.4406    Z=             -7.7216  Tot=              9.0481
 Quadrupole moment (field-independent basis, Debye-Ang):
   XX=           -516.1933   YY=           -551.3649   ZZ=           -447.5488
   XY=              4.0265   XZ=             -0.9748   YZ=            -48.2694
 Traceless Quadrupole moment (field-independent basis, Debye-Ang):
   XX=            -11.1577   YY=            -46.3292   ZZ=             57.4869
   XY=              4.0265   XZ=             -0.9748   YZ=            -48.2694
 Octapole moment (field-independent basis, Debye-Ang**2):
  XXX=          -3057.2098  YYY=            411.7717  ZZZ=            -84.8962  XYY=            107.9995
  XXY=           -604.5210  XXZ=          -1975.1200  XZZ=           -105.5866  YZZ=           -220.2695
  YYZ=           -211.2679  XYZ=           -114.8921
 Hexadecapole moment (field-independent basis, Debye-Ang**3):
 XXXX=        -786338.2721 YYYY=         -42776.9536 ZZZZ=         -23852.5539 XXXY=          -2092.9933
 XXXZ=           -352.8314 YYYX=           1535.2967 YYYZ=          -1620.0700 ZZZX=           -526.0368
 ZZZY=            226.6644 XXYY=        -146500.9977 XXZZ=        -117589.1945 YYZZ=         -10892.0841
 XXYZ=         -12080.3370 YYXZ=            715.0804 ZZXY=           -383.9548
 N-N= 1.230687946488D+04 E-N=-3.409458766661D+04  KE= 4.028802043790D+03
 Leave Link  601 at Sun Sep 12 22:04:17 2021, MaxMem= 23488102400 cpu:              15.2 elap:               0.8
 (Enter /sw/apps/gaussian-16.0/g16/l9999.exe)
 1\1\GINC-BP1-COMPUTE00099\SP\RCAM-B3LYP TD-FC\def2SVP\C68H72Mg2N8O8\OF
 15641\12-Sep-2021\0\\#p cam-b3lyp/Def2SVP td=(nstates=5)\\TDDFT excite
 d states in gaussian\\0,1\Mg,0,0.,0.,0.\C,0,-0.217,-2.218,2.801\C,0,-1
 .255,2.442,2.026\C,0,-0.245,1.85,-2.564\C,0,0.146,-2.824,-2.037\N,0,-0
 .617,-0.009,2.126\C,0,-0.594,-0.908,3.105\C,0,-0.936,-0.309,4.502\C,0,
 -1.773,0.964,4.032\C,0,-1.155,1.168,2.66\C,0,-3.263,0.685,3.863\C,0,0.
 345,0.11,5.299\C,0,0.124,0.397,6.787\H,0,1.168,0.033,7.733\N,0,-0.185,
 1.961,-0.152\C,0,-0.703,2.8,0.777\C,0,-0.62,4.156,0.193\C,0,-0.187,4.0
 15,-1.225\C,0,-0.214,2.583,-1.38\C,0,-0.887,5.406,0.974\C,0,0.181,5.01
 3,-2.277\O,0,0.303,4.69,-3.508\C,0,0.31,6.414,-1.837\N,0,-0.265,-0.413
 ,-2.029\C,0,-0.279,0.569,-2.937\C,0,-0.196,0.024,-4.332\C,0,0.124,-1.5
 33,-4.18\C,0,0.086,-1.632,-2.635\C,0,-1.451,0.205,-5.197\C,0,1.373,-2.
 07,-4.923\C,0,2.626,-1.49,-4.306\N,0,0.15,-2.144,0.303\C,0,0.173,-3.13
 6,-0.688\C,0,0.173,-4.438,0.004\C,0,0.133,-4.111,1.358\C,0,0.083,-2.69
 5,1.502\C,0,0.149,-5.715,-0.623\C,0,0.096,-4.629,2.716\O,0,0.208,-5.74
 7,3.221\C,0,-0.255,-3.428,3.701\C,0,0.717,-3.482,4.848\O,0,1.931,-3.25
 5,4.669\O,0,0.038,-3.556,6.003\C,0,0.943,-3.583,7.183\H,0,-1.859,3.22,
 2.497\H,0,-0.218,2.453,-3.474\H,0,0.276,-3.747,-2.605\H,0,-1.554,-0.94
 9,5.132\H,0,-1.585,1.831,4.665\H,0,-3.484,-0.377,3.969\H,0,-3.511,1.02
 7,2.858\H,0,-3.852,1.301,4.543\H,0,0.669,1.096,4.966\H,0,1.13,-0.639,5
 .189\H,0,-0.844,0.026,7.125\H,0,0.062,1.477,6.921\H,0,-1.344,5.186,1.9
 38\H,0,-1.651,5.963,0.432\H,0,0.007,6.02,1.084\H,0,-0.635,6.744,-1.405
 \H,0,0.665,6.97,-2.704\H,0,1.048,6.466,-1.036\H,0,0.608,0.501,-4.891\H
 ,0,-0.692,-2.156,-4.547\H,0,-1.267,0.74,-6.129\H,0,-2.204,0.714,-4.596
 \H,0,-1.967,-0.72,-5.453\H,0,1.356,-1.759,-5.967\H,0,1.452,-3.157,-4.9
 02\H,0,2.714,-0.522,-4.798\H,0,3.487,-2.121,-4.529\H,0,2.495,-1.303,-3
 .24\H,0,0.867,-6.333,-0.084\H,0,0.404,-5.642,-1.68\H,0,-0.891,-5.999,-
 0.463\H,0,-1.283,-3.581,4.028\H,0,0.698,-4.478,7.755\H,0,0.833,-2.619,
 7.68\H,0,2.,-3.754,6.976\Mg,0,31.53893,2.84287,2.40276\C,0,31.37124,0.
 28263,4.91197\C,0,30.28492,4.99777,4.73052\C,0,31.25016,5.0061,0.09962
 \C,0,31.67942,0.30395,0.01951\N,0,30.94516,2.55846,4.51435\C,0,30.9837
 1,1.55586,5.37902\C,0,30.6616,1.95687,6.8436\C,0,29.80009,3.27924,6.54
 692\C,0,30.39944,3.66337,5.19566\C,0,28.31902,3.00119,6.35082\C,0,31.9
 5342,2.28655,7.67096\C,0,31.74096,2.3846,9.18324\H,0,32.80496,1.91694,
 10.06736\N,0,31.33702,4.81421,2.51042\C,0,30.82956,5.52525,3.5391\C,0,
 30.88037,6.93396,3.11826\C,0,31.30624,6.98271,1.69314\C,0,31.29396,5.5
 7103,1.36591\C,0,30.6199,8.07421,4.05923\C,0,31.65317,8.1137,0.77297\O
 ,0,31.76564,7.94212,-0.49223\C,0,31.76548,9.44581,1.38483\N,0,31.26068
 ,2.68654,0.34838\C,0,31.22134,3.7827,-0.42932\C,0,31.29062,3.41613,-1.
 89261\C,0,31.62976,1.85367,-1.9285\C,0,31.60886,1.55531,-0.41326\C,0,3
 0.02331,3.68036,-2.70532\C,0,32.87583,1.42265,-2.7496\C,0,34.13345,1.9
 3907,-2.08847\N,0,31.71496,0.68969,2.4325\C,0,31.72909,-0.18043,1.3203
 9\C,0,31.74864,-1.56036,1.84748\C,0,31.72105,-1.39642,3.24063\C,0,31.6
 6634,-0.01254,3.559\C,0,31.73877,-2.74974,1.06556\C,0,31.71504,-2.0796
 9,4.51413\O,0,31.83549,-3.25055,4.87233\C,0,31.36059,-1.02678,5.65086\
 C,0,32.34568,-1.20586,6.77338\O,0,33.55178,-0.9559,6.60176\O,0,31.6740
 6,-1.43174,7.91718\C,0,32.6078,-1.60489,9.06171\H,0,29.68572,5.6999,5.
 31091\H,0,31.26178,5.71341,-0.73288\H,0,31.82259,-0.54075,-0.65773\H,0
 ,30.06307,1.23804,7.39025\H,0,29.99669,4.05258,7.28493\H,0,28.10766,1.
 94248,6.32617\H,0,28.05564,3.46163,5.40759\H,0,27.73348,3.52159,7.1141
 3\H,0,32.26194,3.31801,7.45731\H,0,32.73158,1.57886,7.46052\H,0,30.774
 29,1.96812,9.49153\H,0,31.67741,3.44056,9.45699\H,0,30.16901,7.72688,4
 .99702\H,0,29.84502,8.69735,3.59974\H,0,31.50716,8.68612,4.23529\H,0,3
 0.82486,9.70254,1.86627\H,0,32.10684,10.10662,0.58566\H,0,32.52286,9.4
 0486,2.17559\H,0,32.08443,3.95955,-2.39025\H,0,30.81188,1.26936,-2.375
 14\H,0,30.19305,4.34169,-3.57589\H,0,29.27709,4.10356,-2.04607\H,0,29.
 52158,2.79019,-3.08092\H,0,32.84446,1.86761,-3.74719\H,0,32.95779,0.34
 857,-2.87849\H,0,34.20119,2.9673,-2.45623\H,0,34.9966,1.35221,-2.39605
 \H,0,34.01509,1.98553,-0.99968\H,0,32.46137,-3.42085,1.51049\H,0,31.97
 584,-2.54282,0.02405\H,0,30.69863,-3.06023,1.19593\H,0,30.33612,-1.221
 88,5.9702\H,0,32.37402,-2.57007,9.52156\H,0,32.48045,-0.70347,9.69018\
 H,0,33.66051,-1.72783,8.83554\\Version=ES64L-G16RevA.03\State=1-A\HF=-
 4069.8117635\RMSD=4.483e-09\PG=C01 [X(C68H72Mg2N8O8)]\\@


 THE REASON MAN'S BEST FRIEND IS A DOG IS BECAUSE
 HE WAGS HIS TAIL INSTEAD OF HIS TONGUE.
 Job cpu time:       0 days 10 hours 28 minutes 58.3 seconds.
 Elapsed time:       0 days  0 hours 26 minutes 48.7 seconds.
 File lengths (MBytes):  RWF=  13225 Int=      0 D2E=      0 Chk=    574 Scr=      1
 Normal termination of Gaussian 16 at Sun Sep 12 22:04:18 2021.
