 Entering Gaussian System, Link 0=g16
 Initial command:
 /sw/apps/gaussian-16.0/g16/l1.exe "/tmp/Gau-41391.inp" -scrdir="/tmp/"
 Entering Link 1 = /sw/apps/gaussian-16.0/g16/l1.exe PID=     41392.
  
 Copyright (c) 1988,1990,1992,1993,1995,1998,2003,2009,2016,
            Gaussian, Inc.  All Rights Reserved.
  
 This is part of the Gaussian(R) 16 program.  It is based on
 the Gaussian(R) 09 system (copyright 2009, Gaussian, Inc.),
 the Gaussian(R) 03 system (copyright 2003, Gaussian, Inc.),
 the Gaussian(R) 98 system (copyright 1998, Gaussian, Inc.),
 the Gaussian(R) 94 system (copyright 1995, Gaussian, Inc.),
 the Gaussian 92(TM) system (copyright 1992, Gaussian, Inc.),
 the Gaussian 90(TM) system (copyright 1990, Gaussian, Inc.),
 the Gaussian 88(TM) system (copyright 1988, Gaussian, Inc.),
 the Gaussian 86(TM) system (copyright 1986, Carnegie Mellon
 University), and the Gaussian 82(TM) system (copyright 1983,
 Carnegie Mellon University). Gaussian is a federally registered
 trademark of Gaussian, Inc.
  
 This software contains proprietary and confidential information,
 including trade secrets, belonging to Gaussian, Inc.
  
 This software is provided under written license and may be
 used, copied, transmitted, or stored only in accord with that
 written license.
  
 The following legend is applicable only to US Government
 contracts under FAR:
  
                    RESTRICTED RIGHTS LEGEND
  
 Use, reproduction and disclosure by the US Government is
 subject to restrictions as set forth in subparagraphs (a)
 and (c) of the Commercial Computer Software - Restricted
 Rights clause in FAR 52.227-19.
  
 Gaussian, Inc.
 340 Quinnipiac St., Bldg. 40, Wallingford CT 06492
  
  
 ---------------------------------------------------------------
 Warning -- This program may not be used in any manner that
 competes with the business of Gaussian, Inc. or will provide
 assistance to any competitor of Gaussian, Inc.  The licensee
 of this program is prohibited from giving any competitor of
 Gaussian, Inc. access to this program.  By using this program,
 the user acknowledges that Gaussian, Inc. is engaged in the
 business of creating and licensing software in the field of
 computational chemistry and represents and warrants to the
 licensee that it is not a competitor of Gaussian, Inc. and that
 it will not use this program in any manner prohibited above.
 ---------------------------------------------------------------
  

 Cite this work as:
 Gaussian 16, Revision A.03,
 M. J. Frisch, G. W. Trucks, H. B. Schlegel, G. E. Scuseria, 
 M. A. Robb, J. R. Cheeseman, G. Scalmani, V. Barone, 
 G. A. Petersson, H. Nakatsuji, X. Li, M. Caricato, A. V. Marenich, 
 J. Bloino, B. G. Janesko, R. Gomperts, B. Mennucci, H. P. Hratchian, 
 J. V. Ortiz, A. F. Izmaylov, J. L. Sonnenberg, D. Williams-Young, 
 F. Ding, F. Lipparini, F. Egidi, J. Goings, B. Peng, A. Petrone, 
 T. Henderson, D. Ranasinghe, V. G. Zakrzewski, J. Gao, N. Rega, 
 G. Zheng, W. Liang, M. Hada, M. Ehara, K. Toyota, R. Fukuda, 
 J. Hasegawa, M. Ishida, T. Nakajima, Y. Honda, O. Kitao, H. Nakai, 
 T. Vreven, K. Throssell, J. A. Montgomery, Jr., J. E. Peralta, 
 F. Ogliaro, M. J. Bearpark, J. J. Heyd, E. N. Brothers, K. N. Kudin, 
 V. N. Staroverov, T. A. Keith, R. Kobayashi, J. Normand, 
 K. Raghavachari, A. P. Rendell, J. C. Burant, S. S. Iyengar, 
 J. Tomasi, M. Cossi, J. M. Millam, M. Klene, C. Adamo, R. Cammi, 
 J. W. Ochterski, R. L. Martin, K. Morokuma, O. Farkas, 
 J. B. Foresman, and D. J. Fox, Gaussian, Inc., Wallingford CT, 2016.
 
 ******************************************
 Gaussian 16:  ES64L-G16RevA.03 25-Dec-2016
                11-Sep-2021 
 ******************************************
 %nproc=24
 Will use up to   24 processors via shared memory.
 %mem=175gb
 -----------------------------------
 #p cam-b3lyp/Def2SVP td=(nstates=5)
 -----------------------------------
 1/38=1,172=1/1;
 2/12=2,17=6,18=5,40=1/2;
 3/5=43,7=101,11=9,25=1,30=1,74=-40/1,2,3,8;
 4//1;
 5/5=2,38=5/2;
 8/6=1,10=1,108=5/1;
 9/41=5,42=1,70=2/14;
 6/7=2,8=2,9=2,10=2/1;
 99/5=1,9=1/99;
 Leave Link    1 at Sat Sep 11 06:32:53 2021, MaxMem= 23488102400 cpu:               0.7 elap:               0.0
 (Enter /sw/apps/gaussian-16.0/g16/l101.exe)
 --------------------------------
 TDDFT excited states in gaussian
 --------------------------------
 Symbolic Z-matrix:
 Charge =  0 Multiplicity = 1
 Mg                    0.        0.        0. 
 C                    -0.217    -2.218     2.801 
 C                    -1.255     2.442     2.026 
 C                    -0.245     1.85     -2.564 
 C                     0.146    -2.824    -2.037 
 N                    -0.617    -0.009     2.126 
 C                    -0.594    -0.908     3.105 
 C                    -0.936    -0.309     4.502 
 C                    -1.773     0.964     4.032 
 C                    -1.155     1.168     2.66 
 C                    -3.263     0.685     3.863 
 C                     0.345     0.11      5.299 
 C                     0.124     0.397     6.787 
 H                     1.168     0.033     7.733 
 N                    -0.185     1.961    -0.152 
 C                    -0.703     2.8       0.777 
 C                    -0.62      4.156     0.193 
 C                    -0.187     4.015    -1.225 
 C                    -0.214     2.583    -1.38 
 C                    -0.887     5.406     0.974 
 C                     0.181     5.013    -2.277 
 O                     0.303     4.69     -3.508 
 C                     0.31      6.414    -1.837 
 N                    -0.265    -0.413    -2.029 
 C                    -0.279     0.569    -2.937 
 C                    -0.196     0.024    -4.332 
 C                     0.124    -1.533    -4.18 
 C                     0.086    -1.632    -2.635 
 C                    -1.451     0.205    -5.197 
 C                     1.373    -2.07     -4.923 
 C                     2.626    -1.49     -4.306 
 N                     0.15     -2.144     0.303 
 C                     0.173    -3.136    -0.688 
 C                     0.173    -4.438     0.004 
 C                     0.133    -4.111     1.358 
 C                     0.083    -2.695     1.502 
 C                     0.149    -5.715    -0.623 
 C                     0.096    -4.629     2.716 
 O                     0.208    -5.747     3.221 
 C                    -0.255    -3.428     3.701 
 C                     0.717    -3.482     4.848 
 O                     1.931    -3.255     4.669 
 O                     0.038    -3.556     6.003 
 C                     0.943    -3.583     7.183 
 H                    -1.859     3.22      2.497 
 H                    -0.218     2.453    -3.474 
 H                     0.276    -3.747    -2.605 
 H                    -1.554    -0.949     5.132 
 H                    -1.585     1.831     4.665 
 H                    -3.484    -0.377     3.969 
 H                    -3.511     1.027     2.858 
 H                    -3.852     1.301     4.543 
 H                     0.669     1.096     4.966 
 H                     1.13     -0.639     5.189 
 H                    -0.844     0.026     7.125 
 H                     0.062     1.477     6.921 
 H                    -1.344     5.186     1.938 
 H                    -1.651     5.963     0.432 
 H                     0.007     6.02      1.084 
 H                    -0.635     6.744    -1.405 
 H                     0.665     6.97     -2.704 
 H                     1.048     6.466    -1.036 
 H                     0.608     0.501    -4.891 
 H                    -0.692    -2.156    -4.547 
 H                    -1.267     0.74     -6.129 
 H                    -2.204     0.714    -4.596 
 H                    -1.967    -0.72     -5.453 
 H                     1.356    -1.759    -5.967 
 H                     1.452    -3.157    -4.902 
 H                     2.714    -0.522    -4.798 
 H                     3.487    -2.121    -4.529 
 H                     2.495    -1.303    -3.24 
 H                     0.867    -6.333    -0.084 
 H                     0.404    -5.642    -1.68 
 H                    -0.891    -5.999    -0.463 
 H                    -1.283    -3.581     4.028 
 H                     0.698    -4.478     7.755 
 H                     0.833    -2.619     7.68 
 H                     2.       -3.754     6.976 
 Mg                    13.13098   1.18506   0.99099 
 C                     13.51162  -1.55351  -1.2969 
 C                     13.7952   3.26901  -1.62637 
 C                     13.24782   3.58642   3.06155 
 C                     13.62977  -1.09162   3.58207 
 N                     13.57893   0.78945  -1.13858 
 C                     13.63591  -0.28789  -1.90698 
 C                     13.75719   0.01078  -3.42542 
 C                     14.40471   1.4773   -3.33107 
 C                     13.86845   1.89371  -1.96297 
 C                     15.92282   1.46172  -3.26448 
 C                     12.36137   0.04415  -4.14138 
 C                     12.42219   0.02295  -5.67031 
 H                     11.38016  -0.69571  -6.39843 
 N                     12.98596   3.1424    0.69711 
 C                     13.27451   3.81893  -0.4344 
 C                     13.02253   5.23621  -0.1311 
 C                     12.71978   5.35856   1.32083 
 C                     12.99931   4.00717   1.76318 
 C                     13.0035   6.30334  -1.1867 
 C                     12.26743   6.50565   2.17276 
 O                     12.29581   6.44594   3.45278 
 C                     11.87849   7.73431   1.46522 
 N                     13.6088   1.28217   3.01203 
 C                     13.52921   2.44279   3.68624 
 C                     13.65019   2.2184    5.17466 
 C                     13.585    0.63333   5.37688 
 C                     13.52463   0.19183   3.89809 
 C                     14.92008   2.76279   5.82843 
 C                     12.50591   0.09236   6.35443 
 C                     11.12646   0.33126   5.78396 
 N                     13.32028  -0.96045   1.16141 
 C                     13.55023  -1.70562   2.33866 
 C                     13.71905  -3.11658   1.9348 
 C                     13.59754  -3.09083   0.53728 
 C                     13.38924  -1.75509   0.09921 
 C                     13.99801  -4.2045    2.8093 
 C                     13.60872  -3.88844  -0.66787 
 O                     13.65772  -5.09338  -0.91168 
 C                     13.67977  -2.91161  -1.91973 
 C                     12.64566  -3.35813  -2.91659 
 O                     11.43414  -3.28912  -2.64442 
 O                     13.24406  -3.58675  -4.09982 
 C                     12.25744  -4.02142  -5.12425 
 H                     14.2142   3.99647  -2.32216 
 H                     13.18882   4.36253   3.82814 
 H                     13.69102  -1.87615   4.33932 
 H                     14.41912  -0.65376  -3.96764 
 H                     14.01671   2.13111  -4.10783 
 H                     16.31178   0.45856  -3.1722 
 H                     16.18521   2.05068  -2.39539 
 H                     16.34333   1.99021  -4.12483 
 H                     11.90232   1.02885  -3.98525 
 H                     11.73555  -0.75458  -3.79353 
 H                     13.415   -0.26171  -6.03943 
 H                     12.28199   1.04258  -6.03734 
 H                     13.42364   5.94068  -2.13293 
 H                     13.69853   7.08569  -0.86306 
 H                     12.01354   6.74409  -1.32229 
 H                     12.71668   8.08916   0.87027 
 H                     11.50075   8.40849   2.23638 
 H                     11.07329   7.49324   0.76226 
 H                     12.822    2.67444   5.70308 
 H                     14.52564   0.23566   5.78541 
 H                     14.71693   3.47218   6.65279 
 H                     15.5238   3.23207   5.06303 
 H                     15.59598   2.00692   6.22469 
 H                     12.54786   0.63431   7.30241 
 H                     12.61854  -0.96255   6.58129 
 H                     10.9177   1.36689   6.06851 
 H                     10.40515  -0.35275   6.22656 
 H                     11.14036   0.28674   4.68875 
 H                     13.36368  -5.02409   2.4988 
 H                     13.82055  -3.93498   3.84835 
 H                     15.06041  -4.35545   2.60008 
 H                     14.69086  -2.97071  -2.3244 
 H                     12.61054  -4.97771  -5.52238 
 H                     12.17528  -3.17884  -5.83634 
 H                     11.26441  -4.28847  -4.78217 
 
 ITRead=  0  0  0  0  0  0  0  0  0  0  0  0  0  0  0  0  0  0  0  0
 ITRead=  0  0  0  0  0  0  0  0  0  0  0  0  0  0  0  0  0  0  0  0
 ITRead=  0  0  0  0  0  0  0  0  0  0  0  0  0  0  0  0  0  0  0  0
 ITRead=  0  0  0  0  0  0  0  0  0  0  0  0  0  0  0  0  0  0  0  0
 ITRead=  0  0  0  0  0  0  0  0  0  0  0  0  0  0  0  0  0  0  0  0
 ITRead=  0  0  0  0  0  0  0  0  0  0  0  0  0  0  0  0  0  0  0  0
 ITRead=  0  0  0  0  0  0  0  0  0  0  0  0  0  0  0  0  0  0  0  0
 ITRead=  0  0  0  0  0  0  0  0  0  0  0  0  0  0  0  0  0  0
 MicOpt= -1 -1 -1 -1 -1 -1 -1 -1 -1 -1 -1 -1 -1 -1 -1 -1 -1 -1 -1 -1
 MicOpt= -1 -1 -1 -1 -1 -1 -1 -1 -1 -1 -1 -1 -1 -1 -1 -1 -1 -1 -1 -1
 MicOpt= -1 -1 -1 -1 -1 -1 -1 -1 -1 -1 -1 -1 -1 -1 -1 -1 -1 -1 -1 -1
 MicOpt= -1 -1 -1 -1 -1 -1 -1 -1 -1 -1 -1 -1 -1 -1 -1 -1 -1 -1 -1 -1
 MicOpt= -1 -1 -1 -1 -1 -1 -1 -1 -1 -1 -1 -1 -1 -1 -1 -1 -1 -1 -1 -1
 MicOpt= -1 -1 -1 -1 -1 -1 -1 -1 -1 -1 -1 -1 -1 -1 -1 -1 -1 -1 -1 -1
 MicOpt= -1 -1 -1 -1 -1 -1 -1 -1 -1 -1 -1 -1 -1 -1 -1 -1 -1 -1 -1 -1
 MicOpt= -1 -1 -1 -1 -1 -1 -1 -1 -1 -1 -1 -1 -1 -1 -1 -1 -1 -1
 NAtoms=    158 NQM=      158 NQMF=       0 NMMI=      0 NMMIF=      0
                NMic=       0 NMicF=      0.
                    Isotopes and Nuclear Properties:
 (Nuclear quadrupole moments (NQMom) in fm**2, nuclear magnetic moments (NMagM)
  in nuclear magnetons)

  Atom         1           2           3           4           5           6           7           8           9          10
 IAtWgt=          24          12          12          12          12          14          12          12          12          12
 AtmWgt=  23.9850450  12.0000000  12.0000000  12.0000000  12.0000000  14.0030740  12.0000000  12.0000000  12.0000000  12.0000000
 NucSpn=           0           0           0           0           0           2           0           0           0           0
 AtZEff=  -0.0000000  -0.0000000  -0.0000000  -0.0000000  -0.0000000  -0.0000000  -0.0000000  -0.0000000  -0.0000000  -0.0000000
 NQMom=    0.0000000   0.0000000   0.0000000   0.0000000   0.0000000   2.0440000   0.0000000   0.0000000   0.0000000   0.0000000
 NMagM=    0.0000000   0.0000000   0.0000000   0.0000000   0.0000000   0.4037610   0.0000000   0.0000000   0.0000000   0.0000000
 AtZNuc=  12.0000000   6.0000000   6.0000000   6.0000000   6.0000000   7.0000000   6.0000000   6.0000000   6.0000000   6.0000000

  Atom        11          12          13          14          15          16          17          18          19          20
 IAtWgt=          12          12          12           1          14          12          12          12          12          12
 AtmWgt=  12.0000000  12.0000000  12.0000000   1.0078250  14.0030740  12.0000000  12.0000000  12.0000000  12.0000000  12.0000000
 NucSpn=           0           0           0           1           2           0           0           0           0           0
 AtZEff=  -0.0000000  -0.0000000  -0.0000000  -0.0000000  -0.0000000  -0.0000000  -0.0000000  -0.0000000  -0.0000000  -0.0000000
 NQMom=    0.0000000   0.0000000   0.0000000   0.0000000   2.0440000   0.0000000   0.0000000   0.0000000   0.0000000   0.0000000
 NMagM=    0.0000000   0.0000000   0.0000000   2.7928460   0.4037610   0.0000000   0.0000000   0.0000000   0.0000000   0.0000000
 AtZNuc=   6.0000000   6.0000000   6.0000000   1.0000000   7.0000000   6.0000000   6.0000000   6.0000000   6.0000000   6.0000000

  Atom        21          22          23          24          25          26          27          28          29          30
 IAtWgt=          12          16          12          14          12          12          12          12          12          12
 AtmWgt=  12.0000000  15.9949146  12.0000000  14.0030740  12.0000000  12.0000000  12.0000000  12.0000000  12.0000000  12.0000000
 NucSpn=           0           0           0           2           0           0           0           0           0           0
 AtZEff=  -0.0000000  -0.0000000  -0.0000000  -0.0000000  -0.0000000  -0.0000000  -0.0000000  -0.0000000  -0.0000000  -0.0000000
 NQMom=    0.0000000   0.0000000   0.0000000   2.0440000   0.0000000   0.0000000   0.0000000   0.0000000   0.0000000   0.0000000
 NMagM=    0.0000000   0.0000000   0.0000000   0.4037610   0.0000000   0.0000000   0.0000000   0.0000000   0.0000000   0.0000000
 AtZNuc=   6.0000000   8.0000000   6.0000000   7.0000000   6.0000000   6.0000000   6.0000000   6.0000000   6.0000000   6.0000000

  Atom        31          32          33          34          35          36          37          38          39          40
 IAtWgt=          12          14          12          12          12          12          12          12          16          12
 AtmWgt=  12.0000000  14.0030740  12.0000000  12.0000000  12.0000000  12.0000000  12.0000000  12.0000000  15.9949146  12.0000000
 NucSpn=           0           2           0           0           0           0           0           0           0           0
 AtZEff=  -0.0000000  -0.0000000  -0.0000000  -0.0000000  -0.0000000  -0.0000000  -0.0000000  -0.0000000  -0.0000000  -0.0000000
 NQMom=    0.0000000   2.0440000   0.0000000   0.0000000   0.0000000   0.0000000   0.0000000   0.0000000   0.0000000   0.0000000
 NMagM=    0.0000000   0.4037610   0.0000000   0.0000000   0.0000000   0.0000000   0.0000000   0.0000000   0.0000000   0.0000000
 AtZNuc=   6.0000000   7.0000000   6.0000000   6.0000000   6.0000000   6.0000000   6.0000000   6.0000000   8.0000000   6.0000000

  Atom        41          42          43          44          45          46          47          48          49          50
 IAtWgt=          12          16          16          12           1           1           1           1           1           1
 AtmWgt=  12.0000000  15.9949146  15.9949146  12.0000000   1.0078250   1.0078250   1.0078250   1.0078250   1.0078250   1.0078250
 NucSpn=           0           0           0           0           1           1           1           1           1           1
 AtZEff=  -0.0000000  -0.0000000  -0.0000000  -0.0000000  -0.0000000  -0.0000000  -0.0000000  -0.0000000  -0.0000000  -0.0000000
 NQMom=    0.0000000   0.0000000   0.0000000   0.0000000   0.0000000   0.0000000   0.0000000   0.0000000   0.0000000   0.0000000
 NMagM=    0.0000000   0.0000000   0.0000000   0.0000000   2.7928460   2.7928460   2.7928460   2.7928460   2.7928460   2.7928460
 AtZNuc=   6.0000000   8.0000000   8.0000000   6.0000000   1.0000000   1.0000000   1.0000000   1.0000000   1.0000000   1.0000000

  Atom        51          52          53          54          55          56          57          58          59          60
 IAtWgt=           1           1           1           1           1           1           1           1           1           1
 AtmWgt=   1.0078250   1.0078250   1.0078250   1.0078250   1.0078250   1.0078250   1.0078250   1.0078250   1.0078250   1.0078250
 NucSpn=           1           1           1           1           1           1           1           1           1           1
 AtZEff=  -0.0000000  -0.0000000  -0.0000000  -0.0000000  -0.0000000  -0.0000000  -0.0000000  -0.0000000  -0.0000000  -0.0000000
 NQMom=    0.0000000   0.0000000   0.0000000   0.0000000   0.0000000   0.0000000   0.0000000   0.0000000   0.0000000   0.0000000
 NMagM=    2.7928460   2.7928460   2.7928460   2.7928460   2.7928460   2.7928460   2.7928460   2.7928460   2.7928460   2.7928460
 AtZNuc=   1.0000000   1.0000000   1.0000000   1.0000000   1.0000000   1.0000000   1.0000000   1.0000000   1.0000000   1.0000000

  Atom        61          62          63          64          65          66          67          68          69          70
 IAtWgt=           1           1           1           1           1           1           1           1           1           1
 AtmWgt=   1.0078250   1.0078250   1.0078250   1.0078250   1.0078250   1.0078250   1.0078250   1.0078250   1.0078250   1.0078250
 NucSpn=           1           1           1           1           1           1           1           1           1           1
 AtZEff=  -0.0000000  -0.0000000  -0.0000000  -0.0000000  -0.0000000  -0.0000000  -0.0000000  -0.0000000  -0.0000000  -0.0000000
 NQMom=    0.0000000   0.0000000   0.0000000   0.0000000   0.0000000   0.0000000   0.0000000   0.0000000   0.0000000   0.0000000
 NMagM=    2.7928460   2.7928460   2.7928460   2.7928460   2.7928460   2.7928460   2.7928460   2.7928460   2.7928460   2.7928460
 AtZNuc=   1.0000000   1.0000000   1.0000000   1.0000000   1.0000000   1.0000000   1.0000000   1.0000000   1.0000000   1.0000000

  Atom        71          72          73          74          75          76          77          78          79          80
 IAtWgt=           1           1           1           1           1           1           1           1           1          24
 AtmWgt=   1.0078250   1.0078250   1.0078250   1.0078250   1.0078250   1.0078250   1.0078250   1.0078250   1.0078250  23.9850450
 NucSpn=           1           1           1           1           1           1           1           1           1           0
 AtZEff=  -0.0000000  -0.0000000  -0.0000000  -0.0000000  -0.0000000  -0.0000000  -0.0000000  -0.0000000  -0.0000000  -0.0000000
 NQMom=    0.0000000   0.0000000   0.0000000   0.0000000   0.0000000   0.0000000   0.0000000   0.0000000   0.0000000   0.0000000
 NMagM=    2.7928460   2.7928460   2.7928460   2.7928460   2.7928460   2.7928460   2.7928460   2.7928460   2.7928460   0.0000000
 AtZNuc=   1.0000000   1.0000000   1.0000000   1.0000000   1.0000000   1.0000000   1.0000000   1.0000000   1.0000000  12.0000000

  Atom        81          82          83          84          85          86          87          88          89          90
 IAtWgt=          12          12          12          12          14          12          12          12          12          12
 AtmWgt=  12.0000000  12.0000000  12.0000000  12.0000000  14.0030740  12.0000000  12.0000000  12.0000000  12.0000000  12.0000000
 NucSpn=           0           0           0           0           2           0           0           0           0           0
 AtZEff=  -0.0000000  -0.0000000  -0.0000000  -0.0000000  -0.0000000  -0.0000000  -0.0000000  -0.0000000  -0.0000000  -0.0000000
 NQMom=    0.0000000   0.0000000   0.0000000   0.0000000   2.0440000   0.0000000   0.0000000   0.0000000   0.0000000   0.0000000
 NMagM=    0.0000000   0.0000000   0.0000000   0.0000000   0.4037610   0.0000000   0.0000000   0.0000000   0.0000000   0.0000000
 AtZNuc=   6.0000000   6.0000000   6.0000000   6.0000000   7.0000000   6.0000000   6.0000000   6.0000000   6.0000000   6.0000000

  Atom        91          92          93          94          95          96          97          98          99         100
 IAtWgt=          12          12           1          14          12          12          12          12          12          12
 AtmWgt=  12.0000000  12.0000000   1.0078250  14.0030740  12.0000000  12.0000000  12.0000000  12.0000000  12.0000000  12.0000000
 NucSpn=           0           0           1           2           0           0           0           0           0           0
 AtZEff=  -0.0000000  -0.0000000  -0.0000000  -0.0000000  -0.0000000  -0.0000000  -0.0000000  -0.0000000  -0.0000000  -0.0000000
 NQMom=    0.0000000   0.0000000   0.0000000   2.0440000   0.0000000   0.0000000   0.0000000   0.0000000   0.0000000   0.0000000
 NMagM=    0.0000000   0.0000000   2.7928460   0.4037610   0.0000000   0.0000000   0.0000000   0.0000000   0.0000000   0.0000000
 AtZNuc=   6.0000000   6.0000000   1.0000000   7.0000000   6.0000000   6.0000000   6.0000000   6.0000000   6.0000000   6.0000000

  Atom       101         102         103         104         105         106         107         108         109         110
 IAtWgt=          16          12          14          12          12          12          12          12          12          12
 AtmWgt=  15.9949146  12.0000000  14.0030740  12.0000000  12.0000000  12.0000000  12.0000000  12.0000000  12.0000000  12.0000000
 NucSpn=           0           0           2           0           0           0           0           0           0           0
 AtZEff=  -0.0000000  -0.0000000  -0.0000000  -0.0000000  -0.0000000  -0.0000000  -0.0000000  -0.0000000  -0.0000000  -0.0000000
 NQMom=    0.0000000   0.0000000   2.0440000   0.0000000   0.0000000   0.0000000   0.0000000   0.0000000   0.0000000   0.0000000
 NMagM=    0.0000000   0.0000000   0.4037610   0.0000000   0.0000000   0.0000000   0.0000000   0.0000000   0.0000000   0.0000000
 AtZNuc=   8.0000000   6.0000000   7.0000000   6.0000000   6.0000000   6.0000000   6.0000000   6.0000000   6.0000000   6.0000000

  Atom       111         112         113         114         115         116         117         118         119         120
 IAtWgt=          14          12          12          12          12          12          12          16          12          12
 AtmWgt=  14.0030740  12.0000000  12.0000000  12.0000000  12.0000000  12.0000000  12.0000000  15.9949146  12.0000000  12.0000000
 NucSpn=           2           0           0           0           0           0           0           0           0           0
 AtZEff=  -0.0000000  -0.0000000  -0.0000000  -0.0000000  -0.0000000  -0.0000000  -0.0000000  -0.0000000  -0.0000000  -0.0000000
 NQMom=    2.0440000   0.0000000   0.0000000   0.0000000   0.0000000   0.0000000   0.0000000   0.0000000   0.0000000   0.0000000
 NMagM=    0.4037610   0.0000000   0.0000000   0.0000000   0.0000000   0.0000000   0.0000000   0.0000000   0.0000000   0.0000000
 AtZNuc=   7.0000000   6.0000000   6.0000000   6.0000000   6.0000000   6.0000000   6.0000000   8.0000000   6.0000000   6.0000000

  Atom       121         122         123         124         125         126         127         128         129         130
 IAtWgt=          16          16          12           1           1           1           1           1           1           1
 AtmWgt=  15.9949146  15.9949146  12.0000000   1.0078250   1.0078250   1.0078250   1.0078250   1.0078250   1.0078250   1.0078250
 NucSpn=           0           0           0           1           1           1           1           1           1           1
 AtZEff=  -0.0000000  -0.0000000  -0.0000000  -0.0000000  -0.0000000  -0.0000000  -0.0000000  -0.0000000  -0.0000000  -0.0000000
 NQMom=    0.0000000   0.0000000   0.0000000   0.0000000   0.0000000   0.0000000   0.0000000   0.0000000   0.0000000   0.0000000
 NMagM=    0.0000000   0.0000000   0.0000000   2.7928460   2.7928460   2.7928460   2.7928460   2.7928460   2.7928460   2.7928460
 AtZNuc=   8.0000000   8.0000000   6.0000000   1.0000000   1.0000000   1.0000000   1.0000000   1.0000000   1.0000000   1.0000000

  Atom       131         132         133         134         135         136         137         138         139         140
 IAtWgt=           1           1           1           1           1           1           1           1           1           1
 AtmWgt=   1.0078250   1.0078250   1.0078250   1.0078250   1.0078250   1.0078250   1.0078250   1.0078250   1.0078250   1.0078250
 NucSpn=           1           1           1           1           1           1           1           1           1           1
 AtZEff=  -0.0000000  -0.0000000  -0.0000000  -0.0000000  -0.0000000  -0.0000000  -0.0000000  -0.0000000  -0.0000000  -0.0000000
 NQMom=    0.0000000   0.0000000   0.0000000   0.0000000   0.0000000   0.0000000   0.0000000   0.0000000   0.0000000   0.0000000
 NMagM=    2.7928460   2.7928460   2.7928460   2.7928460   2.7928460   2.7928460   2.7928460   2.7928460   2.7928460   2.7928460
 AtZNuc=   1.0000000   1.0000000   1.0000000   1.0000000   1.0000000   1.0000000   1.0000000   1.0000000   1.0000000   1.0000000

  Atom       141         142         143         144         145         146         147         148         149         150
 IAtWgt=           1           1           1           1           1           1           1           1           1           1
 AtmWgt=   1.0078250   1.0078250   1.0078250   1.0078250   1.0078250   1.0078250   1.0078250   1.0078250   1.0078250   1.0078250
 NucSpn=           1           1           1           1           1           1           1           1           1           1
 AtZEff=  -0.0000000  -0.0000000  -0.0000000  -0.0000000  -0.0000000  -0.0000000  -0.0000000  -0.0000000  -0.0000000  -0.0000000
 NQMom=    0.0000000   0.0000000   0.0000000   0.0000000   0.0000000   0.0000000   0.0000000   0.0000000   0.0000000   0.0000000
 NMagM=    2.7928460   2.7928460   2.7928460   2.7928460   2.7928460   2.7928460   2.7928460   2.7928460   2.7928460   2.7928460
 AtZNuc=   1.0000000   1.0000000   1.0000000   1.0000000   1.0000000   1.0000000   1.0000000   1.0000000   1.0000000   1.0000000

  Atom       151         152         153         154         155         156         157         158
 IAtWgt=           1           1           1           1           1           1           1           1
 AtmWgt=   1.0078250   1.0078250   1.0078250   1.0078250   1.0078250   1.0078250   1.0078250   1.0078250
 NucSpn=           1           1           1           1           1           1           1           1
 AtZEff=  -0.0000000  -0.0000000  -0.0000000  -0.0000000  -0.0000000  -0.0000000  -0.0000000  -0.0000000
 NQMom=    0.0000000   0.0000000   0.0000000   0.0000000   0.0000000   0.0000000   0.0000000   0.0000000
 NMagM=    2.7928460   2.7928460   2.7928460   2.7928460   2.7928460   2.7928460   2.7928460   2.7928460
 AtZNuc=   1.0000000   1.0000000   1.0000000   1.0000000   1.0000000   1.0000000   1.0000000   1.0000000
 Leave Link  101 at Sat Sep 11 06:32:54 2021, MaxMem= 23488102400 cpu:               3.2 elap:               0.2
 (Enter /sw/apps/gaussian-16.0/g16/l202.exe)
 Stoichiometry    C68H72Mg2N8O8
 Framework group  C1[X(C68H72Mg2N8O8)]
 Deg. of freedom   468
 Full point group                 C1      NOp   1
 Largest Abelian subgroup         C1      NOp   1
 Largest concise Abelian subgroup C1      NOp   1
                         Standard orientation:                         
 ---------------------------------------------------------------------
 Center     Atomic      Atomic             Coordinates (Angstroms)
 Number     Number       Type             X           Y           Z
 ---------------------------------------------------------------------
      1         12           0        6.538082   -0.721625    0.470829
      2          6           0        7.032533    1.833942   -1.986163
      3          6           0        7.657341    1.507807    2.798909
      4          6           0        6.542147   -3.090736    2.578889
      5          6           0        6.554396   -3.029473   -2.140537
      6          7           0        7.226456    1.375795    0.304645
      7          6           0        7.310979    2.259055   -0.685244
      8          6           0        7.650487    3.700141   -0.200084
      9          6           0        8.363539    3.339793    1.179663
     10          6           0        7.684085    2.012006    1.464705
     11          6           0        9.864717    3.104765    1.046511
     12          6           0        6.367579    4.568469    0.027697
     13          6           0        6.615300    6.071626    0.184241
     14          1           0        5.637832    7.002740   -0.358837
     15          7           0        6.556189   -0.679145    2.445853
     16          6           0        7.035215    0.316217    3.230119
     17          6           0        6.821186   -0.125201    4.625118
     18          6           0        6.352730   -1.538458    4.588383
     19          6           0        6.491815   -1.838230    3.186181
     20          6           0        7.011390    0.771087    5.810124
     21          6           0        5.868123   -2.474139    5.650357
     22          8           0        5.730799   -3.727919    5.441187
     23          6           0        5.639784   -1.891413    6.985023
     24          7           0        6.766177   -2.788201    0.284096
     25          6           0        6.668318   -3.592216    1.348505
     26          6           0        6.582420   -5.032578    0.938729
     27          6           0        6.396694   -5.030664   -0.647227
     28          6           0        6.495778   -3.505127   -0.894590
     29          6           0        7.787854   -5.907138    1.310329
     30          6           0        5.171177   -5.791487   -1.212626
     31          6           0        3.896757   -5.086608   -0.805074
     32          7           0        6.575045   -0.633360   -1.697555
     33          6           0        6.599481   -1.718729   -2.585277
     34          6           0        6.730121   -1.162280   -3.944455
     35          6           0        6.789670    0.216362   -3.750434
     36          6           0        6.728215    0.501575   -2.356458
     37          6           0        6.837272   -1.915706   -5.146662
     38          6           0        6.915717    1.513546   -4.394859
     39          8           0        6.913272    1.905549   -5.562686
     40          6           0        7.200621    2.605576   -3.271415
     41          6           0        6.276337    3.766091   -3.520840
     42          8           0        5.042369    3.642589   -3.381421
     43          8           0        6.998421    4.889636   -3.650388
     44          6           0        6.139789    6.083961   -3.870598
     45          1           0        8.211288    2.039269    3.575204
     46          1           0        6.434486   -3.934029    3.264238
     47          1           0        6.481135   -3.684394   -3.010689
     48          1           0        8.340216    4.245865   -0.844199
     49          1           0        8.126892    4.061954    1.960818
     50          1           0       10.175640    3.096967    0.001912
     51          1           0       10.049119    2.133432    1.505860
     52          1           0       10.424202    3.828077    1.640288
     53          1           0        5.952498    4.345495    1.010576
     54          1           0        5.643379    4.403670   -0.770866
     55          1           0        7.621526    6.345077   -0.134572
     56          1           0        6.593027    6.312579    1.247089
     57          1           0        7.517770    1.695671    5.535774
     58          1           0        7.708016    0.268570    6.480868
     59          1           0        6.074327    0.965853    6.331960
     60          1           0        6.568804   -1.452937    7.350002
     61          1           0        5.210759   -2.688175    7.591618
     62          1           0        4.927978   -1.070357    6.894746
     63          1           0        5.723247   -5.519354    1.398399
     64          1           0        7.247969   -5.479908   -1.159266
     65          1           0        7.528640   -6.775113    1.917068
     66          1           0        8.516755   -5.277483    1.819769
     67          1           0        8.368919   -6.268756    0.462383
     68          1           0        5.126698   -6.798741   -0.799822
     69          1           0        5.182419   -5.878555   -2.299154
     70          1           0        3.712752   -5.475666    0.195729
     71          1           0        3.083291   -5.349872   -1.481961
     72          1           0        4.048535   -4.010923   -0.713700
     73          1           0        6.191366   -1.423540   -5.873675
     74          1           0        6.540958   -2.952906   -4.991694
     75          1           0        7.901954   -1.812347   -5.355527
     76          1           0        8.248341    2.888590   -3.367895
     77          1           0        6.476930    6.555890   -4.793557
     78          1           0        6.187324    6.672940   -2.954492
     79          1           0        5.093899    5.888255   -4.109664
     80         12           0       -6.604006    0.725081    0.430602
     81          6           0       -6.837037   -1.817541   -2.091275
     82          6           0       -7.526589   -1.649796    2.698510
     83          6           0       -6.846280    3.030363    2.597253
     84          6           0       -6.824907    3.084538   -2.124770
     85          7           0       -7.090918   -1.421229    0.210363
     86          6           0       -7.085672   -2.292971   -0.786826
     87          6           0       -7.283179   -3.769723   -0.351203
     88          6           0       -8.045241   -3.510650    1.038404
     89          6           0       -7.498252   -2.121832    1.361912
     90          6           0       -9.553762   -3.406553    0.887200
     91          6           0       -5.920245   -4.514657   -0.128696
     92          6           0       -6.031642   -6.035784   -0.004036
     93          1           0       -4.959796   -6.859725   -0.556055
     94          7           0       -6.630298    0.627125    2.412593
     95          6           0       -7.012120   -0.422228    3.170444
     96          6           0       -6.867026    0.016294    4.567159
     97          6           0       -6.525607    1.464792    4.570972
     98          6           0       -6.677917    1.775223    3.163669
     99          6           0       -6.971935   -0.926028    5.730964
    100          6           0       -6.139904    2.416391    5.662719
    101          8           0       -6.119270    3.684100    5.474808
    102          6           0       -5.877662    1.826958    6.983814
    103          7           0       -7.018427    2.757303    0.286813
    104          6           0       -7.011225    3.543210    1.377790
    105          6           0       -7.062145    5.003918    0.998160
    106          6           0       -6.860179    5.042927   -0.587803
    107          6           0       -6.814650    3.525982   -0.874494
    108          6           0       -8.349201    5.742201    1.365340
    109          6           0       -5.707370    5.932340   -1.128786
    110          6           0       -4.372607    5.353324   -0.718249
    111          7           0       -6.610621    0.682360   -1.729542
    112          6           0       -6.738036    1.783729   -2.604083
    113          6           0       -6.804276    1.243676   -3.977534
    114          6           0       -6.733401   -0.146746   -3.803774
    115          6           0       -6.650607   -0.452653   -2.418472
    116          6           0       -6.962785    2.010540   -5.166203
    117          6           0       -6.720507   -1.425728   -4.476628
    118          8           0       -6.678807   -1.788871   -5.651410
    119          6           0       -6.914474   -2.570034   -3.390654
    120          6           0       -5.882089   -3.633497   -3.647011
    121          8           0       -4.671681   -3.387315   -3.502347
    122          8           0       -6.500027   -4.817838   -3.807858
    123          6           0       -5.516863   -5.906287   -4.053787
    124          1           0       -8.027546   -2.257271    3.452765
    125          1           0       -6.824855    3.869767    3.296130
    126          1           0       -6.795499    3.759840   -2.982539
    127          1           0       -7.906586   -4.359026   -1.012907
    128          1           0       -7.739138   -4.227075    1.796299
    129          1           0       -9.855680   -3.406191   -0.149613
    130          1           0       -9.833570   -2.475798    1.363060
    131          1           0      -10.045551   -4.197783    1.460289
    132          1           0       -5.538461   -4.271658    0.871269
    133          1           0       -5.219400   -4.265805   -0.901683
    134          1           0       -7.009842   -6.405893   -0.334335
    135          1           0       -5.988293   -6.301261    1.055046
    136          1           0       -7.393173   -1.892863    5.429005
    137          1           0       -7.717288   -0.506925    6.415567
    138          1           0       -6.026734   -1.041996    6.265578
    139          1           0       -6.762101    1.292956    7.323013
    140          1           0       -5.530239    2.652309    7.608303
    141          1           0       -5.080036    1.082526    6.882678
    142          1           0       -6.256501    5.554077    1.468651
    143          1           0       -7.750409    5.433419   -1.102437
    144          1           0       -8.176737    6.628561    2.004633
    145          1           0       -9.015350    5.044170    1.854764
    146          1           0       -8.946766    6.077361    0.519299
    147          1           0       -5.761042    6.931067   -0.688560
    148          1           0       -5.725181    6.054127   -2.206671
    149          1           0       -4.239885    5.735698    0.298242
    150          1           0       -3.582808    5.705536   -1.378716
    151          1           0       -4.420447    4.259964   -0.655511
    152          1           0       -6.274383    1.602314   -5.894190
    153          1           0       -6.772430    3.066568   -4.986399
    154          1           0       -8.015775    1.814796   -5.385630
    155          1           0       -7.930615   -2.952197   -3.495364
    156          1           0       -5.803769   -6.389840   -4.992691
    157          1           0       -5.528656   -6.531345   -3.141139
    158          1           0       -4.494097   -5.618909   -4.267809
 ---------------------------------------------------------------------
 Rotational constants (GHZ):           0.0203042           0.0076676           0.0076081
 Leave Link  202 at Sat Sep 11 06:32:54 2021, MaxMem= 23488102400 cpu:               0.2 elap:               0.0
 (Enter /sw/apps/gaussian-16.0/g16/l301.exe)
 Standard basis: def2SVP (5D, 7F)
 Ernie: Thresh=  0.10000D-02 Tol=  0.10000D-05 Strict=F.
 There are  1658 symmetry adapted cartesian basis functions of A   symmetry.
 There are  1572 symmetry adapted basis functions of A   symmetry.
  1572 basis functions,  2678 primitive gaussians,  1658 cartesian basis functions
   312 alpha electrons      312 beta electrons
       nuclear repulsion energy     14206.0904938723 Hartrees.
 IExCor=20419 DFT=T Ex+Corr=CAM-B3LYP ExCW=0 ScaHFX=  1.000000
 ScaDFX=  1.000000  1.000000  1.000000  0.810000 ScalE2=  1.000000  1.000000
 IRadAn=      5 IRanWt=     -1 IRanGd=            0 ICorTp=0 IEmpDi=  4
 HFx  wShort=  0.000000 wLong=  0.330000 cFull=  0.190000 cShort=  0.000000 cLong=  0.460000
 DFx  wShort=  0.000000 wLong=  0.330000 cFull=  0.190000 cShort=  0.000000 cLong=  0.460000
 NAtoms=  158 NActive=  158 NUniq=  158 SFac= 1.00D+00 NAtFMM=   60 NAOKFM=T Big=T
 Integral buffers will be    131072 words long.
 Raffenetti 1 integral format.
 Two-electron integral symmetry is turned on.
 Leave Link  301 at Sat Sep 11 06:32:54 2021, MaxMem= 23488102400 cpu:               1.3 elap:               0.1
 (Enter /sw/apps/gaussian-16.0/g16/l302.exe)
 NPDir=0 NMtPBC=     1 NCelOv=     1 NCel=       1 NClECP=     1 NCelD=      1
         NCelK=      1 NCelE2=     1 NClLst=     1 CellRange=     0.0.
 One-electron integrals computed using PRISM.
 One-electron integral symmetry used in STVInt
   1 Symmetry operations used in ECPInt.
 ECPInt:  NShTT=  271216 NPrTT=  987664 LenC2=  114492 LenP2D=  252680.
 LDataN:  DoStor=T MaxTD1= 4 Len=   56
 NBasis=  1572 RedAO= T EigKep=  3.36D-04  NBF=  1572
 NBsUse=  1572 1.00D-06 EigRej= -1.00D+00 NBFU=  1572
 Precomputing XC quadrature grid using
 IXCGrd= 4 IRadAn=           5 IRanWt=          -1 IRanGd=           0 AccXCQ= 0.00D+00.
 Generated NRdTot=       0 NPtTot=           0 NUsed=           0 NTot=          32
 NSgBfM=   956   946   948   955   956 MxSgAt=   158 MxSgA2=   153.
 Leave Link  302 at Sat Sep 11 06:32:58 2021, MaxMem= 23488102400 cpu:             110.9 elap:               4.6
 (Enter /sw/apps/gaussian-16.0/g16/l303.exe)
 DipDrv:  MaxL=1.
 Leave Link  303 at Sat Sep 11 06:32:59 2021, MaxMem= 23488102400 cpu:               7.9 elap:               0.4
 (Enter /sw/apps/gaussian-16.0/g16/l308.exe)
 Leave Link  308 at Sat Sep 11 06:32:59 2021, MaxMem= 23488102400 cpu:              13.9 elap:               0.7
 (Enter /sw/apps/gaussian-16.0/g16/l401.exe)
 ExpMin= 3.36D-02 ExpMax= 4.95D+03 ExpMxC= 7.45D+02 IAcc=3 IRadAn=         5 AccDes= 0.00D+00
 Harris functional with IExCor=20419 and IRadAn=       5 diagonalized for initial guess.
 HarFok:  IExCor=20419 AccDes= 0.00D+00 IRadAn=         5 IDoV= 1 UseB2=F ITyADJ=14
 ICtDFT=  3500011 ScaDFX=  1.000000  1.000000  1.000000  1.000000
 FoFCou: FMM=F IPFlag=           0 FMFlag=      100000 FMFlg1=        2001
         NFxFlg=           0 DoJE=T BraDBF=F KetDBF=T FulRan=T
         wScrn=  0.000000 ICntrl=       500 IOpCl=  0 I1Cent=   200000004 NGrid=           0
         NMat0=    1 NMatS0=      1 NMatT0=    0 NMatD0=    1 NMtDS0=    0 NMtDT0=    0
 Petite list used in FoFCou.
 Harris En= -3918.65800986347    
 JPrj=0 DoOrth=F DoCkMO=F.
 Leave Link  401 at Sat Sep 11 06:33:06 2021, MaxMem= 23488102400 cpu:             165.6 elap:               6.9
 (Enter /sw/apps/gaussian-16.0/g16/l502.exe)
 Integral symmetry usage will be decided dynamically.
 Closed shell SCF:
 Using DIIS extrapolation, IDIIS=  1040.
 NGot= 23488102400 LenX= 23482547354 LenY= 23479796732
 Requested convergence on RMS density matrix=1.00D-08 within 128 cycles.
 Requested convergence on MAX density matrix=1.00D-06.
 Requested convergence on             energy=1.00D-06.
 No special actions if energy rises.
 Fock matrices will be formed incrementally for  20 cycles.

 Cycle   1  Pass 1  IDiag  1:
 FoFJK:  IHMeth= 1 ICntrl=       0 DoSepK=T KAlg= 0 I1Cent=           0 FoldK=F
 IRaf=         1 NMat=       1 IRICut=       1 DoRegI=T DoRafI=F ISym2E= 0 IDoP0=0 IntGTp=1.
 FoFCou: FMM=T IPFlag=           0 FMFlag=      100000 FMFlg1=        2001
         NFxFlg=           0 DoJE=T BraDBF=F KetDBF=F FulRan=T
         wScrn=  0.000000 ICntrl=       500 IOpCl=  0 I1Cent=           0 NGrid=           0
         NMat0=    1 NMatS0=      1 NMatT0=    0 NMatD0=    1 NMtDS0=    0 NMtDT0=    0
 Symmetry not used in FoFCou.
 FMM levels:  10  Number of levels for PrismC:   9
 E= -4068.94870850298    
 DIIS: error= 2.04D-02 at cycle   1 NSaved=   1.
 NSaved= 1 IEnMin= 1 EnMin= -4068.94870850298     IErMin= 1 ErrMin= 2.04D-02
 ErrMax= 2.04D-02  0.00D+00 EMaxC= 1.00D-01 BMatC= 1.69D+00 BMatP= 1.69D+00
 IDIUse=3 WtCom= 7.96D-01 WtEn= 2.04D-01
 Coeff-Com:  0.100D+01
 Coeff-En:   0.100D+01
 Coeff:      0.100D+01
 Gap=     0.120 Goal=   None    Shift=    0.000
 GapD=    0.120 DampG=1.000 DampE=0.500 DampFc=0.5000 IDamp=-1.
 Damping current iteration by 5.00D-01
 RMSDP=1.57D-03 MaxDP=1.35D-01              OVMax= 2.07D-01

 Cycle   2  Pass 1  IDiag  1:
 RMSU=  7.70D-04    CP:  9.82D-01
 E= -4069.33746509215     Delta-E=       -0.388756589167 Rises=F Damp=T
 DIIS: error= 1.27D-02 at cycle   2 NSaved=   2.
 NSaved= 2 IEnMin= 2 EnMin= -4069.33746509215     IErMin= 2 ErrMin= 1.27D-02
 ErrMax= 1.27D-02  0.00D+00 EMaxC= 1.00D-01 BMatC= 3.07D-01 BMatP= 1.69D+00
 IDIUse=3 WtCom= 8.73D-01 WtEn= 1.27D-01
 Coeff-Com: -0.212D+00 0.121D+01
 Coeff-En:   0.000D+00 0.100D+01
 Coeff:     -0.185D+00 0.119D+01
 Gap=     0.138 Goal=   None    Shift=    0.000
 RMSDP=7.66D-04 MaxDP=9.47D-02 DE=-3.89D-01 OVMax= 1.87D-01

 Cycle   3  Pass 1  IDiag  1:
 RMSU=  7.34D-04    CP:  9.68D-01  1.24D+00
 E= -4069.62611864114     Delta-E=       -0.288653549000 Rises=F Damp=F
 DIIS: error= 1.58D-02 at cycle   3 NSaved=   3.
 NSaved= 3 IEnMin= 3 EnMin= -4069.62611864114     IErMin= 2 ErrMin= 1.27D-02
 ErrMax= 1.58D-02  0.00D+00 EMaxC= 1.00D-01 BMatC= 2.03D-01 BMatP= 3.07D-01
 IDIUse=3 WtCom= 8.42D-01 WtEn= 1.58D-01
 Coeff-Com: -0.267D+00 0.653D+00 0.615D+00
 Coeff-En:   0.000D+00 0.000D+00 0.100D+01
 Coeff:     -0.225D+00 0.549D+00 0.676D+00
 Gap=     0.125 Goal=   None    Shift=    0.000
 RMSDP=5.12D-04 MaxDP=4.82D-02 DE=-2.89D-01 OVMax= 1.49D-01

 Cycle   4  Pass 1  IDiag  1:
 RMSU=  2.67D-04    CP:  9.65D-01  1.55D+00  5.02D-01
 E= -4069.76373116380     Delta-E=       -0.137612522656 Rises=F Damp=F
 DIIS: error= 7.37D-03 at cycle   4 NSaved=   4.
 NSaved= 4 IEnMin= 4 EnMin= -4069.76373116380     IErMin= 4 ErrMin= 7.37D-03
 ErrMax= 7.37D-03  0.00D+00 EMaxC= 1.00D-01 BMatC= 5.13D-02 BMatP= 2.03D-01
 IDIUse=3 WtCom= 9.26D-01 WtEn= 7.37D-02
 Coeff-Com: -0.109D+00 0.227D+00 0.409D+00 0.473D+00
 Coeff-En:   0.000D+00 0.000D+00 0.224D+00 0.776D+00
 Coeff:     -0.101D+00 0.210D+00 0.396D+00 0.495D+00
 Gap=     0.123 Goal=   None    Shift=    0.000
 RMSDP=2.03D-04 MaxDP=2.09D-02 DE=-1.38D-01 OVMax= 6.61D-02

 Cycle   5  Pass 1  IDiag  1:
 RMSU=  7.76D-05    CP:  9.64D-01  1.49D+00  6.88D-01  5.45D-01
 E= -4069.81024924408     Delta-E=       -0.046518080275 Rises=F Damp=F
 DIIS: error= 7.82D-04 at cycle   5 NSaved=   5.
 NSaved= 5 IEnMin= 5 EnMin= -4069.81024924408     IErMin= 5 ErrMin= 7.82D-04
 ErrMax= 7.82D-04  0.00D+00 EMaxC= 1.00D-01 BMatC= 1.25D-03 BMatP= 5.13D-02
 IDIUse=3 WtCom= 9.92D-01 WtEn= 7.82D-03
 Coeff-Com: -0.367D-01 0.722D-01 0.169D+00 0.253D+00 0.543D+00
 Coeff-En:   0.000D+00 0.000D+00 0.000D+00 0.000D+00 0.100D+01
 Coeff:     -0.364D-01 0.716D-01 0.168D+00 0.251D+00 0.546D+00
 Gap=     0.122 Goal=   None    Shift=    0.000
 RMSDP=4.28D-05 MaxDP=4.26D-03 DE=-4.65D-02 OVMax= 1.84D-02

 Cycle   6  Pass 1  IDiag  1:
 RMSU=  3.12D-05    CP:  9.64D-01  1.49D+00  6.80D-01  6.19D-01  7.43D-01
 E= -4069.81134703805     Delta-E=       -0.001097793971 Rises=F Damp=F
 DIIS: error= 2.02D-04 at cycle   6 NSaved=   6.
 NSaved= 6 IEnMin= 6 EnMin= -4069.81134703805     IErMin= 6 ErrMin= 2.02D-04
 ErrMax= 2.02D-04  0.00D+00 EMaxC= 1.00D-01 BMatC= 1.87D-04 BMatP= 1.25D-03
 IDIUse=3 WtCom= 9.98D-01 WtEn= 2.02D-03
 Coeff-Com:  0.210D-02-0.640D-02 0.121D-01 0.415D-01 0.305D+00 0.646D+00
 Coeff-En:   0.000D+00 0.000D+00 0.000D+00 0.000D+00 0.108D+00 0.892D+00
 Coeff:      0.210D-02-0.638D-02 0.120D-01 0.414D-01 0.304D+00 0.646D+00
 Gap=     0.123 Goal=   None    Shift=    0.000
 RMSDP=1.66D-05 MaxDP=1.20D-03 DE=-1.10D-03 OVMax= 7.74D-03

 Cycle   7  Pass 1  IDiag  1:
 RMSU=  1.10D-05    CP:  9.64D-01  1.50D+00  6.86D-01  6.18D-01  8.48D-01
                    CP:  7.44D-01
 E= -4069.81155016723     Delta-E=       -0.000203129188 Rises=F Damp=F
 DIIS: error= 9.15D-05 at cycle   7 NSaved=   7.
 NSaved= 7 IEnMin= 7 EnMin= -4069.81155016723     IErMin= 7 ErrMin= 9.15D-05
 ErrMax= 9.15D-05  0.00D+00 EMaxC= 1.00D-01 BMatC= 2.34D-05 BMatP= 1.87D-04
 IDIUse=1 WtCom= 1.00D+00 WtEn= 0.00D+00
 Coeff-Com:  0.452D-02-0.992D-02-0.885D-02-0.324D-02 0.105D+00 0.336D+00
 Coeff-Com:  0.576D+00
 Coeff:      0.452D-02-0.992D-02-0.885D-02-0.324D-02 0.105D+00 0.336D+00
 Coeff:      0.576D+00
 Gap=     0.123 Goal=   None    Shift=    0.000
 RMSDP=6.74D-06 MaxDP=1.12D-03 DE=-2.03D-04 OVMax= 3.54D-03

 Cycle   8  Pass 1  IDiag  1:
 RMSU=  4.80D-06    CP:  9.64D-01  1.50D+00  6.86D-01  6.23D-01  8.50D-01
                    CP:  8.70D-01  8.11D-01
 E= -4069.81157911359     Delta-E=       -0.000028946353 Rises=F Damp=F
 DIIS: error= 5.10D-05 at cycle   8 NSaved=   8.
 NSaved= 8 IEnMin= 8 EnMin= -4069.81157911359     IErMin= 8 ErrMin= 5.10D-05
 ErrMax= 5.10D-05  0.00D+00 EMaxC= 1.00D-01 BMatC= 4.98D-06 BMatP= 2.34D-05
 IDIUse=1 WtCom= 1.00D+00 WtEn= 0.00D+00
 Coeff-Com:  0.220D-02-0.436D-02-0.784D-02-0.121D-01-0.998D-02 0.344D-01
 Coeff-Com:  0.332D+00 0.666D+00
 Coeff:      0.220D-02-0.436D-02-0.784D-02-0.121D-01-0.998D-02 0.344D-01
 Coeff:      0.332D+00 0.666D+00
 Gap=     0.123 Goal=   None    Shift=    0.000
 RMSDP=3.35D-06 MaxDP=3.58D-04 DE=-2.89D-05 OVMax= 1.10D-03

 Cycle   9  Pass 1  IDiag  1:
 RMSU=  1.95D-06    CP:  9.64D-01  1.50D+00  6.87D-01  6.25D-01  8.67D-01
                    CP:  8.97D-01  1.01D+00  9.55D-01
 E= -4069.81158715203     Delta-E=       -0.000008038442 Rises=F Damp=F
 DIIS: error= 1.98D-05 at cycle   9 NSaved=   9.
 NSaved= 9 IEnMin= 9 EnMin= -4069.81158715203     IErMin= 9 ErrMin= 1.98D-05
 ErrMax= 1.98D-05  0.00D+00 EMaxC= 1.00D-01 BMatC= 7.41D-07 BMatP= 4.98D-06
 IDIUse=1 WtCom= 1.00D+00 WtEn= 0.00D+00
 Coeff-Com:  0.471D-03-0.782D-03-0.271D-02-0.608D-02-0.208D-01-0.401D-01
 Coeff-Com:  0.983D-01 0.332D+00 0.640D+00
 Coeff:      0.471D-03-0.782D-03-0.271D-02-0.608D-02-0.208D-01-0.401D-01
 Coeff:      0.983D-01 0.332D+00 0.640D+00
 Gap=     0.123 Goal=   None    Shift=    0.000
 RMSDP=1.46D-06 MaxDP=1.52D-04 DE=-8.04D-06 OVMax= 7.65D-04

 Cycle  10  Pass 1  IDiag  1:
 RMSU=  9.60D-07    CP:  9.64D-01  1.50D+00  6.87D-01  6.25D-01  8.70D-01
                    CP:  9.10D-01  1.05D+00  1.12D+00  1.06D+00
 E= -4069.81158885710     Delta-E=       -0.000001705070 Rises=F Damp=F
 DIIS: error= 9.95D-06 at cycle  10 NSaved=  10.
 NSaved=10 IEnMin=10 EnMin= -4069.81158885710     IErMin=10 ErrMin= 9.95D-06
 ErrMax= 9.95D-06  0.00D+00 EMaxC= 1.00D-01 BMatC= 1.76D-07 BMatP= 7.41D-07
 IDIUse=1 WtCom= 1.00D+00 WtEn= 0.00D+00
 Coeff-Com: -0.432D-03 0.907D-03 0.124D-02 0.111D-02-0.364D-02-0.314D-01
 Coeff-Com: -0.454D-01-0.750D-01 0.242D+00 0.911D+00
 Coeff:     -0.432D-03 0.907D-03 0.124D-02 0.111D-02-0.364D-02-0.314D-01
 Coeff:     -0.454D-01-0.750D-01 0.242D+00 0.911D+00
 Gap=     0.123 Goal=   None    Shift=    0.000
 RMSDP=1.26D-06 MaxDP=1.22D-04 DE=-1.71D-06 OVMax= 6.34D-04

 Cycle  11  Pass 1  IDiag  1:
 RMSU=  5.34D-07    CP:  9.64D-01  1.50D+00  6.87D-01  6.26D-01  8.73D-01
                    CP:  9.21D-01  1.10D+00  1.24D+00  1.40D+00  1.38D+00
 E= -4069.81158969570     Delta-E=       -0.000000838598 Rises=F Damp=F
 DIIS: error= 4.53D-06 at cycle  11 NSaved=  11.
 NSaved=11 IEnMin=11 EnMin= -4069.81158969570     IErMin=11 ErrMin= 4.53D-06
 ErrMax= 4.53D-06  0.00D+00 EMaxC= 1.00D-01 BMatC= 6.65D-08 BMatP= 1.76D-07
 IDIUse=1 WtCom= 1.00D+00 WtEn= 0.00D+00
 Coeff-Com: -0.335D-03 0.652D-03 0.136D-02 0.216D-02 0.451D-02-0.836D-02
 Coeff-Com: -0.423D-01-0.133D+00-0.350D-01 0.476D+00 0.735D+00
 Coeff:     -0.335D-03 0.652D-03 0.136D-02 0.216D-02 0.451D-02-0.836D-02
 Coeff:     -0.423D-01-0.133D+00-0.350D-01 0.476D+00 0.735D+00
 Gap=     0.123 Goal=   None    Shift=    0.000
 RMSDP=7.17D-07 MaxDP=6.49D-05 DE=-8.39D-07 OVMax= 3.93D-04

 Cycle  12  Pass 1  IDiag  1:
 RMSU=  2.71D-07    CP:  9.64D-01  1.50D+00  6.87D-01  6.26D-01  8.74D-01
                    CP:  9.23D-01  1.12D+00  1.30D+00  1.57D+00  1.78D+00
                    CP:  1.20D+00
 E= -4069.81158998067     Delta-E=       -0.000000284977 Rises=F Damp=F
 DIIS: error= 2.52D-06 at cycle  12 NSaved=  12.
 NSaved=12 IEnMin=12 EnMin= -4069.81158998067     IErMin=12 ErrMin= 2.52D-06
 ErrMax= 2.52D-06  0.00D+00 EMaxC= 1.00D-01 BMatC= 1.59D-08 BMatP= 6.65D-08
 IDIUse=1 WtCom= 1.00D+00 WtEn= 0.00D+00
 Coeff-Com: -0.105D-05-0.151D-04 0.189D-03 0.525D-03 0.341D-02 0.412D-02
 Coeff-Com:  0.291D-02-0.346D-01-0.710D-01-0.717D-01 0.247D+00 0.919D+00
 Coeff:     -0.105D-05-0.151D-04 0.189D-03 0.525D-03 0.341D-02 0.412D-02
 Coeff:      0.291D-02-0.346D-01-0.710D-01-0.717D-01 0.247D+00 0.919D+00
 Gap=     0.123 Goal=   None    Shift=    0.000
 RMSDP=4.55D-07 MaxDP=3.23D-05 DE=-2.85D-07 OVMax= 2.59D-04

 Cycle  13  Pass 1  IDiag  1:
 RMSU=  1.70D-07    CP:  9.64D-01  1.50D+00  6.87D-01  6.26D-01  8.74D-01
                    CP:  9.23D-01  1.13D+00  1.33D+00  1.68D+00  2.01D+00
                    CP:  1.61D+00  1.28D+00
 E= -4069.81159007917     Delta-E=       -0.000000098495 Rises=F Damp=F
 DIIS: error= 1.50D-06 at cycle  13 NSaved=  13.
 NSaved=13 IEnMin=13 EnMin= -4069.81159007917     IErMin=13 ErrMin= 1.50D-06
 ErrMax= 1.50D-06  0.00D+00 EMaxC= 1.00D-01 BMatC= 8.77D-09 BMatP= 1.59D-08
 IDIUse=1 WtCom= 1.00D+00 WtEn= 0.00D+00
 Coeff-Com:  0.122D-03-0.249D-03-0.376D-03-0.464D-03 0.616D-03 0.504D-02
 Coeff-Com:  0.193D-01 0.236D-01-0.316D-01-0.242D+00-0.162D+00 0.600D+00
 Coeff-Com:  0.789D+00
 Coeff:      0.122D-03-0.249D-03-0.376D-03-0.464D-03 0.616D-03 0.504D-02
 Coeff:      0.193D-01 0.236D-01-0.316D-01-0.242D+00-0.162D+00 0.600D+00
 Coeff:      0.789D+00
 Gap=     0.123 Goal=   None    Shift=    0.000
 RMSDP=3.54D-07 MaxDP=2.39D-05 DE=-9.85D-08 OVMax= 2.09D-04

 Cycle  14  Pass 1  IDiag  1:
 RMSU=  7.84D-08    CP:  9.64D-01  1.50D+00  6.87D-01  6.26D-01  8.74D-01
                    CP:  9.24D-01  1.14D+00  1.36D+00  1.76D+00  2.21D+00
                    CP:  1.88D+00  1.79D+00  1.09D+00
 E= -4069.81159011799     Delta-E=       -0.000000038825 Rises=F Damp=F
 DIIS: error= 6.98D-07 at cycle  14 NSaved=  14.
 NSaved=14 IEnMin=14 EnMin= -4069.81159011799     IErMin=14 ErrMin= 6.98D-07
 ErrMax= 6.98D-07  0.00D+00 EMaxC= 1.00D-01 BMatC= 1.33D-09 BMatP= 8.77D-09
 IDIUse=1 WtCom= 1.00D+00 WtEn= 0.00D+00
 Coeff-Com:  0.675D-04-0.133D-03-0.251D-03-0.393D-03-0.462D-03 0.124D-02
 Coeff-Com:  0.105D-01 0.195D-01 0.508D-02-0.101D+00-0.144D+00 0.947D-01
 Coeff-Com:  0.404D+00 0.711D+00
 Coeff:      0.675D-04-0.133D-03-0.251D-03-0.393D-03-0.462D-03 0.124D-02
 Coeff:      0.105D-01 0.195D-01 0.508D-02-0.101D+00-0.144D+00 0.947D-01
 Coeff:      0.404D+00 0.711D+00
 Gap=     0.123 Goal=   None    Shift=    0.000
 RMSDP=1.04D-07 MaxDP=7.24D-06 DE=-3.88D-08 OVMax= 5.65D-05

 Cycle  15  Pass 1  IDiag  1:
 RMSU=  3.90D-08    CP:  9.64D-01  1.50D+00  6.87D-01  6.26D-01  8.74D-01
                    CP:  9.24D-01  1.14D+00  1.36D+00  1.78D+00  2.25D+00
                    CP:  1.98D+00  1.93D+00  1.32D+00  1.03D+00
 E= -4069.81159012214     Delta-E=       -0.000000004147 Rises=F Damp=F
 DIIS: error= 3.43D-07 at cycle  15 NSaved=  15.
 NSaved=15 IEnMin=15 EnMin= -4069.81159012214     IErMin=15 ErrMin= 3.43D-07
 ErrMax= 3.43D-07  0.00D+00 EMaxC= 1.00D-01 BMatC= 2.39D-10 BMatP= 1.33D-09
 IDIUse=1 WtCom= 1.00D+00 WtEn= 0.00D+00
 Coeff-Com:  0.553D-05-0.923D-05-0.336D-04-0.839D-04-0.294D-03-0.541D-03
 Coeff-Com:  0.111D-02 0.257D-02 0.885D-02 0.174D-02-0.308D-01-0.718D-01
 Coeff-Com:  0.304D-01 0.299D+00 0.760D+00
 Coeff:      0.553D-05-0.923D-05-0.336D-04-0.839D-04-0.294D-03-0.541D-03
 Coeff:      0.111D-02 0.257D-02 0.885D-02 0.174D-02-0.308D-01-0.718D-01
 Coeff:      0.304D-01 0.299D+00 0.760D+00
 Gap=     0.123 Goal=   None    Shift=    0.000
 RMSDP=4.05D-08 MaxDP=2.77D-06 DE=-4.15D-09 OVMax= 2.86D-05

 Cycle  16  Pass 1  IDiag  1:
 RMSU=  1.93D-08    CP:  9.64D-01  1.50D+00  6.87D-01  6.26D-01  8.74D-01
                    CP:  9.24D-01  1.14D+00  1.36D+00  1.78D+00  2.27D+00
                    CP:  2.00D+00  1.99D+00  1.40D+00  1.24D+00  1.13D+00
 E= -4069.81159012308     Delta-E=       -0.000000000935 Rises=F Damp=F
 DIIS: error= 1.93D-07 at cycle  16 NSaved=  16.
 NSaved=16 IEnMin=16 EnMin= -4069.81159012308     IErMin=16 ErrMin= 1.93D-07
 ErrMax= 1.93D-07  0.00D+00 EMaxC= 1.00D-01 BMatC= 8.78D-11 BMatP= 2.39D-10
 IDIUse=1 WtCom= 1.00D+00 WtEn= 0.00D+00
 Coeff-Com: -0.141D-04 0.285D-04 0.461D-04 0.516D-04-0.311D-04-0.636D-03
 Coeff-Com: -0.186D-02-0.420D-02 0.416D-02 0.253D-01 0.200D-01-0.640D-01
 Coeff-Com: -0.806D-01-0.325D-01 0.401D+00 0.733D+00
 Coeff:     -0.141D-04 0.285D-04 0.461D-04 0.516D-04-0.311D-04-0.636D-03
 Coeff:     -0.186D-02-0.420D-02 0.416D-02 0.253D-01 0.200D-01-0.640D-01
 Coeff:     -0.806D-01-0.325D-01 0.401D+00 0.733D+00
 Gap=     0.123 Goal=   None    Shift=    0.000
 RMSDP=2.32D-08 MaxDP=1.60D-06 DE=-9.35D-10 OVMax= 1.21D-05

 Cycle  17  Pass 1  IDiag  1:
 RMSU=  1.08D-08    CP:  9.64D-01  1.50D+00  6.87D-01  6.26D-01  8.74D-01
                    CP:  9.24D-01  1.14D+00  1.36D+00  1.78D+00  2.27D+00
                    CP:  2.02D+00  2.01D+00  1.44D+00  1.33D+00  1.43D+00
                    CP:  1.22D+00
 E= -4069.81159012320     Delta-E=       -0.000000000120 Rises=F Damp=F
 DIIS: error= 9.61D-08 at cycle  17 NSaved=  17.
 NSaved=17 IEnMin=17 EnMin= -4069.81159012320     IErMin=17 ErrMin= 9.61D-08
 ErrMax= 9.61D-08  0.00D+00 EMaxC= 1.00D-01 BMatC= 1.91D-11 BMatP= 8.78D-11
 IDIUse=1 WtCom= 1.00D+00 WtEn= 0.00D+00
 Coeff-Com: -0.745D-05 0.145D-04 0.293D-04 0.430D-04 0.810D-04-0.136D-03
 Coeff-Com: -0.931D-03-0.285D-02 0.420D-04 0.988D-02 0.175D-01-0.872D-02
 Coeff-Com: -0.377D-01-0.997D-01-0.192D-01 0.300D+00 0.841D+00
 Coeff:     -0.745D-05 0.145D-04 0.293D-04 0.430D-04 0.810D-04-0.136D-03
 Coeff:     -0.931D-03-0.285D-02 0.420D-04 0.988D-02 0.175D-01-0.872D-02
 Coeff:     -0.377D-01-0.997D-01-0.192D-01 0.300D+00 0.841D+00
 Gap=     0.123 Goal=   None    Shift=    0.000
 RMSDP=1.37D-08 MaxDP=1.06D-06 DE=-1.20D-10 OVMax= 9.55D-06

 Cycle  18  Pass 1  IDiag  1:
 RMSU=  5.32D-09    CP:  9.64D-01  1.50D+00  6.87D-01  6.26D-01  8.74D-01
                    CP:  9.24D-01  1.14D+00  1.36D+00  1.78D+00  2.27D+00
                    CP:  2.02D+00  2.02D+00  1.46D+00  1.40D+00  1.59D+00
                    CP:  1.62D+00  1.34D+00
 E= -4069.81159012354     Delta-E=       -0.000000000346 Rises=F Damp=F
 DIIS: error= 6.73D-08 at cycle  18 NSaved=  18.
 NSaved=18 IEnMin=18 EnMin= -4069.81159012354     IErMin=18 ErrMin= 6.73D-08
 ErrMax= 6.73D-08  0.00D+00 EMaxC= 1.00D-01 BMatC= 8.14D-12 BMatP= 1.91D-11
 IDIUse=1 WtCom= 1.00D+00 WtEn= 0.00D+00
 Coeff-Com:  0.114D-05-0.261D-05-0.118D-05 0.307D-05 0.638D-04 0.158D-03
 Coeff-Com:  0.270D-03-0.722D-04-0.120D-02-0.475D-02 0.153D-02 0.177D-01
 Coeff-Com:  0.129D-01-0.413D-01-0.153D+00-0.148D+00 0.409D+00 0.907D+00
 Coeff:      0.114D-05-0.261D-05-0.118D-05 0.307D-05 0.638D-04 0.158D-03
 Coeff:      0.270D-03-0.722D-04-0.120D-02-0.475D-02 0.153D-02 0.177D-01
 Coeff:      0.129D-01-0.413D-01-0.153D+00-0.148D+00 0.409D+00 0.907D+00
 Gap=     0.123 Goal=   None    Shift=    0.000
 RMSDP=1.11D-08 MaxDP=7.41D-07 DE=-3.46D-10 OVMax= 5.89D-06

 Cycle  19  Pass 1  IDiag  1:
 RMSU=  3.17D-09    CP:  9.64D-01  1.50D+00  6.87D-01  6.26D-01  8.74D-01
                    CP:  9.24D-01  1.14D+00  1.36D+00  1.78D+00  2.27D+00
                    CP:  2.02D+00  2.03D+00  1.47D+00  1.44D+00  1.73D+00
                    CP:  1.90D+00  1.86D+00  1.22D+00
 E= -4069.81159012368     Delta-E=       -0.000000000135 Rises=F Damp=F
 DIIS: error= 2.80D-08 at cycle  19 NSaved=  19.
 NSaved=19 IEnMin=19 EnMin= -4069.81159012368     IErMin=19 ErrMin= 2.80D-08
 ErrMax= 2.80D-08  0.00D+00 EMaxC= 1.00D-01 BMatC= 2.26D-12 BMatP= 8.14D-12
 IDIUse=1 WtCom= 1.00D+00 WtEn= 0.00D+00
 Coeff-Com:  0.311D-05-0.631D-05-0.103D-04-0.124D-04 0.179D-04 0.137D-03
 Coeff-Com:  0.498D-03 0.830D-03-0.660D-03-0.647D-02-0.481D-02 0.140D-01
 Coeff-Com:  0.217D-01 0.749D-02-0.861D-01-0.198D+00-0.300D-02 0.545D+00
 Coeff-Com:  0.710D+00
 Coeff:      0.311D-05-0.631D-05-0.103D-04-0.124D-04 0.179D-04 0.137D-03
 Coeff:      0.498D-03 0.830D-03-0.660D-03-0.647D-02-0.481D-02 0.140D-01
 Coeff:      0.217D-01 0.749D-02-0.861D-01-0.198D+00-0.300D-02 0.545D+00
 Coeff:      0.710D+00
 Gap=     0.123 Goal=   None    Shift=    0.000
 RMSDP=5.43D-09 MaxDP=3.76D-07 DE=-1.35D-10 OVMax= 3.82D-06

 SCF Done:  E(RCAM-B3LYP) =  -4069.81159012     A.U. after   19 cycles
            NFock= 19  Conv=0.54D-08     -V/T= 2.0102
 KE= 4.028801961215D+03 PE=-3.789370275590D+04 EE= 1.558899871069D+04
 Leave Link  502 at Sat Sep 11 06:41:57 2021, MaxMem= 23488102400 cpu:           12179.5 elap:             531.1
 (Enter /sw/apps/gaussian-16.0/g16/l801.exe)
 DoSCS=F DFT=T ScalE2(SS,OS)=  1.000000  1.000000
 ExpMin= 3.36D-02 ExpMax= 4.95D+03 ExpMxC= 7.45D+02 IAcc=3 IRadAn=         5 AccDes= 0.00D+00
 HarFok:  IExCor=  205 AccDes= 0.00D+00 IRadAn=         5 IDoV=-2 UseB2=F ITyADJ=14
 ICtDFT= 12500011 ScaDFX=  1.000000  1.000000  1.000000  1.000000
 GSVD:  LWork=       -9588 too small for GESVD, short by       45590 words or       45590 for optimal perf.
 Largest valence mixing into a core orbital is  2.03D-04
 Largest core mixing into a valence orbital is  5.24D-05
 Range of M.O.s used for correlation:    95  1572
 NBasis=  1572 NAE=   312 NBE=   312 NFC=    94 NFV=     0
 NROrb=   1478 NOA=   218 NOB=   218 NVA=  1260 NVB=  1260
 Leave Link  801 at Sat Sep 11 06:41:58 2021, MaxMem= 23488102400 cpu:               8.9 elap:               0.4
 (Enter /sw/apps/gaussian-16.0/g16/l914.exe)
 RHF ground state
 Two-electron integrals replicated using symmetry.
 MDV= 23488102400 DFT=T DoStab=F Mixed=T DoRPA=T DoScal=F NonHer=T
 Making orbital integer symmetry assigments:
 Orbital symmetries:
       Occupied  (A) (A) (A) (A) (A) (A) (A) (A) (A) (A) (A) (A)
                 (A) (A) (A) (A) (A) (A) (A) (A) (A) (A) (A) (A)
                 (A) (A) (A) (A) (A) (A) (A) (A) (A) (A) (A) (A)
                 (A) (A) (A) (A) (A) (A) (A) (A) (A) (A) (A) (A)
                 (A) (A) (A) (A) (A) (A) (A) (A) (A) (A) (A) (A)
                 (A) (A) (A) (A) (A) (A) (A) (A) (A) (A) (A) (A)
                 (A) (A) (A) (A) (A) (A) (A) (A) (A) (A) (A) (A)
                 (A) (A) (A) (A) (A) (A) (A) (A) (A) (A) (A) (A)
                 (A) (A) (A) (A) (A) (A) (A) (A) (A) (A) (A) (A)
                 (A) (A) (A) (A) (A) (A) (A) (A) (A) (A) (A) (A)
                 (A) (A) (A) (A) (A) (A) (A) (A) (A) (A) (A) (A)
                 (A) (A) (A) (A) (A) (A) (A) (A) (A) (A) (A) (A)
                 (A) (A) (A) (A) (A) (A) (A) (A) (A) (A) (A) (A)
                 (A) (A) (A) (A) (A) (A) (A) (A) (A) (A) (A) (A)
                 (A) (A) (A) (A) (A) (A) (A) (A) (A) (A) (A) (A)
                 (A) (A) (A) (A) (A) (A) (A) (A) (A) (A) (A) (A)
                 (A) (A) (A) (A) (A) (A) (A) (A) (A) (A) (A) (A)
                 (A) (A) (A) (A) (A) (A) (A) (A) (A) (A) (A) (A)
                 (A) (A) (A) (A) (A) (A) (A) (A) (A) (A) (A) (A)
                 (A) (A) (A) (A) (A) (A) (A) (A) (A) (A) (A) (A)
                 (A) (A) (A) (A) (A) (A) (A) (A) (A) (A) (A) (A)
                 (A) (A) (A) (A) (A) (A) (A) (A) (A) (A) (A) (A)
                 (A) (A) (A) (A) (A) (A) (A) (A) (A) (A) (A) (A)
                 (A) (A) (A) (A) (A) (A) (A) (A) (A) (A) (A) (A)
                 (A) (A) (A) (A) (A) (A) (A) (A) (A) (A) (A) (A)
                 (A) (A) (A) (A) (A) (A) (A) (A) (A) (A) (A) (A)
       Virtual   (A) (A) (A) (A) (A) (A) (A) (A) (A) (A) (A) (A)
                 (A) (A) (A) (A) (A) (A) (A) (A) (A) (A) (A) (A)
                 (A) (A) (A) (A) (A) (A) (A) (A) (A) (A) (A) (A)
                 (A) (A) (A) (A) (A) (A) (A) (A) (A) (A) (A) (A)
                 (A) (A) (A) (A) (A) (A) (A) (A) (A) (A) (A) (A)
                 (A) (A) (A) (A) (A) (A) (A) (A) (A) (A) (A) (A)
                 (A) (A) (A) (A) (A) (A) (A) (A) (A) (A) (A) (A)
                 (A) (A) (A) (A) (A) (A) (A) (A) (A) (A) (A) (A)
                 (A) (A) (A) (A) (A) (A) (A) (A) (A) (A) (A) (A)
                 (A) (A) (A) (A) (A) (A) (A) (A) (A) (A) (A) (A)
                 (A) (A) (A) (A) (A) (A) (A) (A) (A) (A) (A) (A)
                 (A) (A) (A) (A) (A) (A) (A) (A) (A) (A) (A) (A)
                 (A) (A) (A) (A) (A) (A) (A) (A) (A) (A) (A) (A)
                 (A) (A) (A) (A) (A) (A) (A) (A) (A) (A) (A) (A)
                 (A) (A) (A) (A) (A) (A) (A) (A) (A) (A) (A) (A)
                 (A) (A) (A) (A) (A) (A) (A) (A) (A) (A) (A) (A)
                 (A) (A) (A) (A) (A) (A) (A) (A) (A) (A) (A) (A)
                 (A) (A) (A) (A) (A) (A) (A) (A) (A) (A) (A) (A)
                 (A) (A) (A) (A) (A) (A) (A) (A) (A) (A) (A) (A)
                 (A) (A) (A) (A) (A) (A) (A) (A) (A) (A) (A) (A)
                 (A) (A) (A) (A) (A) (A) (A) (A) (A) (A) (A) (A)
                 (A) (A) (A) (A) (A) (A) (A) (A) (A) (A) (A) (A)
                 (A) (A) (A) (A) (A) (A) (A) (A) (A) (A) (A) (A)
                 (A) (A) (A) (A) (A) (A) (A) (A) (A) (A) (A) (A)
                 (A) (A) (A) (A) (A) (A) (A) (A) (A) (A) (A) (A)
                 (A) (A) (A) (A) (A) (A) (A) (A) (A) (A) (A) (A)
                 (A) (A) (A) (A) (A) (A) (A) (A) (A) (A) (A) (A)
                 (A) (A) (A) (A) (A) (A) (A) (A) (A) (A) (A) (A)
                 (A) (A) (A) (A) (A) (A) (A) (A) (A) (A) (A) (A)
                 (A) (A) (A) (A) (A) (A) (A) (A) (A) (A) (A) (A)
                 (A) (A) (A) (A) (A) (A) (A) (A) (A) (A) (A) (A)
                 (A) (A) (A) (A) (A) (A) (A) (A) (A) (A) (A) (A)
                 (A) (A) (A) (A) (A) (A) (A) (A) (A) (A) (A) (A)
                 (A) (A) (A) (A) (A) (A) (A) (A) (A) (A) (A) (A)
                 (A) (A) (A) (A) (A) (A) (A) (A) (A) (A) (A) (A)
                 (A) (A) (A) (A) (A) (A) (A) (A) (A) (A) (A) (A)
                 (A) (A) (A) (A) (A) (A) (A) (A) (A) (A) (A) (A)
                 (A) (A) (A) (A) (A) (A) (A) (A) (A) (A) (A) (A)
                 (A) (A) (A) (A) (A) (A) (A) (A) (A) (A) (A) (A)
                 (A) (A) (A) (A) (A) (A) (A) (A) (A) (A) (A) (A)
                 (A) (A) (A) (A) (A) (A) (A) (A) (A) (A) (A) (A)
                 (A) (A) (A) (A) (A) (A) (A) (A) (A) (A) (A) (A)
                 (A) (A) (A) (A) (A) (A) (A) (A) (A) (A) (A) (A)
                 (A) (A) (A) (A) (A) (A) (A) (A) (A) (A) (A) (A)
                 (A) (A) (A) (A) (A) (A) (A) (A) (A) (A) (A) (A)
                 (A) (A) (A) (A) (A) (A) (A) (A) (A) (A) (A) (A)
                 (A) (A) (A) (A) (A) (A) (A) (A) (A) (A) (A) (A)
                 (A) (A) (A) (A) (A) (A) (A) (A) (A) (A) (A) (A)
                 (A) (A) (A) (A) (A) (A) (A) (A) (A) (A) (A) (A)
                 (A) (A) (A) (A) (A) (A) (A) (A) (A) (A) (A) (A)
                 (A) (A) (A) (A) (A) (A) (A) (A) (A) (A) (A) (A)
                 (A) (A) (A) (A) (A) (A) (A) (A) (A) (A) (A) (A)
                 (A) (A) (A) (A) (A) (A) (A) (A) (A) (A) (A) (A)
                 (A) (A) (A) (A) (A) (A) (A) (A) (A) (A) (A) (A)
                 (A) (A) (A) (A) (A) (A) (A) (A) (A) (A) (A) (A)
                 (A) (A) (A) (A) (A) (A) (A) (A) (A) (A) (A) (A)
                 (A) (A) (A) (A) (A) (A) (A) (A) (A) (A) (A) (A)
                 (A) (A) (A) (A) (A) (A) (A) (A) (A) (A) (A) (A)
                 (A) (A) (A) (A) (A) (A) (A) (A) (A) (A) (A) (A)
                 (A) (A) (A) (A) (A) (A) (A) (A) (A) (A) (A) (A)
                 (A) (A) (A) (A) (A) (A) (A) (A) (A) (A) (A) (A)
                 (A) (A) (A) (A) (A) (A) (A) (A) (A) (A) (A) (A)
                 (A) (A) (A) (A) (A) (A) (A) (A) (A) (A) (A) (A)
                 (A) (A) (A) (A) (A) (A) (A) (A) (A) (A) (A) (A)
                 (A) (A) (A) (A) (A) (A) (A) (A) (A) (A) (A) (A)
                 (A) (A) (A) (A) (A) (A) (A) (A) (A) (A) (A) (A)
                 (A) (A) (A) (A) (A) (A) (A) (A) (A) (A) (A) (A)
                 (A) (A) (A) (A) (A) (A) (A) (A) (A) (A) (A) (A)
                 (A) (A) (A) (A) (A) (A) (A) (A) (A) (A) (A) (A)
                 (A) (A) (A) (A) (A) (A) (A) (A) (A) (A) (A) (A)
                 (A) (A) (A) (A) (A) (A) (A) (A) (A) (A) (A) (A)
                 (A) (A) (A) (A) (A) (A) (A) (A) (A) (A) (A) (A)
                 (A) (A) (A) (A) (A) (A) (A) (A) (A) (A) (A) (A)
                 (A) (A) (A) (A) (A) (A) (A) (A) (A) (A) (A) (A)
                 (A) (A) (A) (A) (A) (A) (A) (A) (A) (A) (A) (A)
                 (A) (A) (A) (A) (A) (A) (A) (A) (A) (A) (A) (A)
                 (A) (A) (A) (A) (A) (A) (A) (A) (A) (A) (A) (A)
                 (A) (A) (A) (A) (A) (A) (A) (A) (A) (A) (A) (A)
                 (A) (A) (A) (A) (A) (A) (A) (A) (A) (A) (A) (A)
                 (A) (A) (A) (A) (A) (A) (A) (A) (A) (A) (A) (A)
                 (A) (A) (A) (A) (A) (A) (A) (A) (A) (A) (A) (A)
                 (A) (A) (A) (A) (A) (A) (A) (A) (A) (A) (A) (A)
                 (A) (A) (A) (A) (A) (A) (A) (A) (A) (A) (A) (A)
                 (A) (A) (A) (A) (A) (A) (A) (A) (A) (A) (A) (A)
                 (A) (A) (A) (A) (A) (A) (A) (A) (A) (A) (A) (A)
                 (A) (A) (A) (A) (A) (A) (A) (A) (A) (A) (A) (A)
                 (A) (A) (A) (A) (A) (A) (A) (A) (A) (A) (A) (A)
                 (A) (A) (A) (A) (A) (A) (A) (A) (A) (A) (A) (A)
                 (A) (A) (A) (A) (A) (A) (A) (A) (A) (A) (A) (A)
                 (A) (A) (A) (A) (A) (A) (A) (A) (A) (A) (A) (A)
                 (A) (A) (A) (A) (A) (A) (A) (A) (A) (A) (A) (A)
                 (A) (A) (A) (A) (A) (A) (A) (A) (A) (A) (A) (A)
                 (A) (A) (A) (A) (A) (A) (A) (A) (A) (A) (A) (A)
                 (A) (A) (A) (A) (A) (A) (A) (A) (A) (A) (A) (A)
                 (A) (A) (A) (A) (A) (A) (A) (A) (A) (A) (A) (A)
                 (A) (A) (A) (A) (A) (A) (A) (A) (A) (A) (A) (A)
                 (A) (A) (A) (A) (A) (A) (A) (A) (A) (A) (A) (A)
                 (A) (A) (A) (A) (A) (A) (A) (A) (A) (A) (A) (A)
                 (A) (A) (A) (A) (A) (A) (A) (A) (A) (A) (A) (A)
                 (A) (A) (A) (A) (A) (A) (A) (A) (A) (A) (A) (A)
                 (A) (A) (A) (A) (A) (A) (A) (A) (A) (A) (A) (A)
                 (A) (A) (A) (A) (A) (A) (A) (A) (A) (A) (A) (A)
                 (A) (A) (A) (A) (A) (A) (A) (A) (A) (A) (A) (A)
                 (A) (A) (A) (A) (A) (A) (A) (A) (A) (A) (A) (A)
                 (A) (A) (A) (A) (A) (A) (A) (A) (A) (A) (A) (A)
    20 initial guesses have been made.
 Convergence on wavefunction:    0.001000000000000
 Davidson Disk Diagonalization:  ConvIn= 1.00D-03 SkipCon=T Conv= 1.00D-03.
 Max sub-space:  2000 roots to seek:    20 dimension of matrix:       549360
 Iteration     1 Dimension    20 NMult     0 NNew     20
 CISAX will form    20 AO SS matrices at one time.
 NMat=    20 NSing=    20 JSym2X= 0.
 FoFJK:  IHMeth= 1 ICntrl=       0 DoSepK=T KAlg= 0 I1Cent=           0 FoldK=F
 IRaf=         1 NMat=      40 IRICut=       1 DoRegI=T DoRafI=F ISym2E= 0 IDoP0=3 IntGTp=3.
 FoFCou: FMM=T IPFlag=           0 FMFlag=      100000 FMFlg1=        2001
         NFxFlg=           0 DoJE=F BraDBF=F KetDBF=F FulRan=T
         wScrn=  0.000000 ICntrl=       500 IOpCl=  0 I1Cent=           0 NGrid=           0
         NMat0=   20 NMatS0=     20 NMatT0=    0 NMatD0=   20 NMtDS0=    0 NMtDT0=    0
 Symmetry not used in FoFCou.
 FMM levels:  10  Number of levels for PrismC:   9
 New state      1 was old state      8
 New state      2 was old state      5
 New state      3 was old state      2
 New state      4 was old state      1
 New state      5 was old state      3
 Excitation Energies [eV] at current iteration:
 Root      1 :     2.613544219615142
 Root      2 :     2.618849215539561
 Root      3 :     2.660300247028463
 Root      4 :     2.706437934046298
 Root      5 :     2.710817219081073
 Root      6 :     2.730867090451431
 Root      7 :     3.507227947845201
 Root      8 :     3.521971510491160
 Root      9 :     3.625223014649847
 Root     10 :     3.665754160619580
 Root     11 :     3.738495411931918
 Root     12 :     3.761387670148585
 Root     13 :     4.285443064577590
 Root     14 :     4.320705379752116
 Root     15 :     4.637475294450362
 Root     16 :     4.638605470356225
 Root     17 :     4.928309463632912
 Root     18 :     4.931092657119302
 Root     19 :     4.960593521510025
 Root     20 :     4.966603992571418
 Iteration     2 Dimension    30 NMult    20 NNew     10
 CISAX will form    10 AO SS matrices at one time.
 NMat=    10 NSing=    10 JSym2X= 0.
 New state      1 was old state      3
 Root      1 not converged, maximum delta is    0.145933452997536
 New state      2 was old state      5
 Root      2 not converged, maximum delta is    0.151688697001604
 New state      3 was old state      2
 Root      3 not converged, maximum delta is    0.320848709644887
 New state      4 was old state      1
 Root      4 not converged, maximum delta is    0.343036889010500
 New state      5 was old state      4
 Root      5 not converged, maximum delta is    0.001174173376127
 Excitation Energies [eV] at current iteration:
 Root      1 :     1.790610751339403   Change is   -0.869689495689060
 Root      2 :     1.816752027728928   Change is   -0.894065191352145
 Root      3 :     2.234164601120557   Change is   -0.384684614419004
 Root      4 :     2.239918007137379   Change is   -0.373626212477763
 Root      5 :     2.706296770193654   Change is   -0.000141163852644
 Iteration     3 Dimension    40 NMult    30 NNew     10
 CISAX will form    10 AO SS matrices at one time.
 NMat=    10 NSing=    10 JSym2X= 0.
 Root      1 not converged, maximum delta is    0.053830470525127
 Root      2 not converged, maximum delta is    0.054674378405183
 Root      3 not converged, maximum delta is    0.082797434011880
 Root      4 not converged, maximum delta is    0.082558420206131
 Root      5 has converged.
 Excitation Energies [eV] at current iteration:
 Root      1 :     1.684185281786576   Change is   -0.106425469552827
 Root      2 :     1.707706780688582   Change is   -0.109045247040345
 Root      3 :     2.192920979937887   Change is   -0.041243621182670
 Root      4 :     2.200255832034178   Change is   -0.039662175103201
 Root      5 :     2.706296169267168   Change is   -0.000000600926486
 Iteration     4 Dimension    48 NMult    40 NNew      8
 CISAX will form     8 AO SS matrices at one time.
 NMat=     8 NSing=     8 JSym2X= 0.
 Root      1 not converged, maximum delta is    0.010441863186839
 Root      2 not converged, maximum delta is    0.010279500239439
 Root      3 not converged, maximum delta is    0.013831223386375
 Root      4 not converged, maximum delta is    0.013718636510434
 Root      5 has converged.
 Excitation Energies [eV] at current iteration:
 Root      1 :     1.667453965210990   Change is   -0.016731316575587
 Root      2 :     1.690853064598281   Change is   -0.016853716090301
 Root      3 :     2.185646256883641   Change is   -0.007274723054246
 Root      4 :     2.193367113236318   Change is   -0.006888718797860
 Root      5 :     2.706296169265103   Change is   -0.000000000002065
 Iteration     5 Dimension    56 NMult    48 NNew      8
 CISAX will form     8 AO SS matrices at one time.
 NMat=     8 NSing=     8 JSym2X= 0.
 Root      1 not converged, maximum delta is    0.001684858257840
 Root      2 not converged, maximum delta is    0.001712199505516
 Root      3 not converged, maximum delta is    0.002399720151506
 Root      4 not converged, maximum delta is    0.002293449702932
 Root      5 has converged.
 Excitation Energies [eV] at current iteration:
 Root      1 :     1.665704647074426   Change is   -0.001749318136564
 Root      2 :     1.689052338722465   Change is   -0.001800725875817
 Root      3 :     2.184802296744380   Change is   -0.000843960139261
 Root      4 :     2.192578915863536   Change is   -0.000788197372782
 Root      5 :     2.706296169263524   Change is   -0.000000000001580
 Iteration     6 Dimension    64 NMult    56 NNew      8
 CISAX will form     8 AO SS matrices at one time.
 NMat=     8 NSing=     8 JSym2X= 0.
 Root      1 not converged, maximum delta is    0.001057634722817
 Root      2 not converged, maximum delta is    0.001066366681457
 Root      3 not converged, maximum delta is    0.001014127947178
 Root      4 has converged.
 Root      5 has converged.
 Excitation Energies [eV] at current iteration:
 Root      1 :     1.665455830813162   Change is   -0.000248816261264
 Root      2 :     1.688793343864798   Change is   -0.000258994857667
 Root      3 :     2.184674015215840   Change is   -0.000128281528540
 Root      4 :     2.192458799268166   Change is   -0.000120116595370
 Root      5 :     2.706296169262278   Change is   -0.000000000001245
 Iteration     7 Dimension    70 NMult    64 NNew      6
 CISAX will form     6 AO SS matrices at one time.
 NMat=     6 NSing=     6 JSym2X= 0.
 Root      1 has converged.
 Root      2 has converged.
 Root      3 has converged.
 Root      4 has converged.
 Root      5 has converged.
 Excitation Energies [eV] at current iteration:
 Root      1 :     1.665431535225852   Change is   -0.000024295587310
[...]
 Alpha virt. eigenvalues --    1.83562   1.83927   1.83934   1.84188   1.84240
 Alpha virt. eigenvalues --    1.84579   1.84623   1.84826   1.84969   1.85183
 Alpha virt. eigenvalues --    1.85286   1.85361   1.85439   1.85526   1.85615
 Alpha virt. eigenvalues --    1.85948   1.86039   1.86427   1.86528   1.86688
 Alpha virt. eigenvalues --    1.86711   1.86874   1.86951   1.87098   1.87222
 Alpha virt. eigenvalues --    1.87529   1.87619   1.87814   1.87847   1.88034
 Alpha virt. eigenvalues --    1.88054   1.88208   1.88219   1.88609   1.88695
 Alpha virt. eigenvalues --    1.88975   1.88980   1.89120   1.89297   1.89689
 Alpha virt. eigenvalues --    1.89776   1.89903   1.89913   1.90227   1.90280
 Alpha virt. eigenvalues --    1.90922   1.90937   1.91465   1.91514   1.91599
 Alpha virt. eigenvalues --    1.91630   1.92227   1.92326   1.92704   1.92792
 Alpha virt. eigenvalues --    1.93149   1.93193   1.93507   1.93548   1.94358
 Alpha virt. eigenvalues --    1.94459   1.94844   1.94850   1.95641   1.95644
 Alpha virt. eigenvalues --    1.95857   1.95897   1.96093   1.96166   1.96217
 Alpha virt. eigenvalues --    1.96327   1.96532   1.96768   1.96972   1.97061
 Alpha virt. eigenvalues --    1.97588   1.97622   1.97850   1.98012   1.98210
 Alpha virt. eigenvalues --    1.98340   1.98393   1.98841   1.99110   1.99298
 Alpha virt. eigenvalues --    1.99969   1.99986   2.00772   2.00832   2.01137
 Alpha virt. eigenvalues --    2.01165   2.01554   2.01645   2.01648   2.01845
 Alpha virt. eigenvalues --    2.01867   2.01886   2.02750   2.02950   2.03180
 Alpha virt. eigenvalues --    2.03398   2.03419   2.03564   2.03570   2.03657
 Alpha virt. eigenvalues --    2.04068   2.04202   2.05016   2.05121   2.05665
 Alpha virt. eigenvalues --    2.05675   2.06236   2.06318   2.07073   2.07074
 Alpha virt. eigenvalues --    2.07359   2.07395   2.08572   2.08732   2.09048
 Alpha virt. eigenvalues --    2.09148   2.09652   2.09756   2.10950   2.11082
 Alpha virt. eigenvalues --    2.11353   2.11449   2.11572   2.11705   2.11889
 Alpha virt. eigenvalues --    2.11900   2.12502   2.12631   2.12841   2.12913
 Alpha virt. eigenvalues --    2.12967   2.13006   2.13666   2.13931   2.14289
 Alpha virt. eigenvalues --    2.14299   2.15445   2.15501   2.16092   2.16121
 Alpha virt. eigenvalues --    2.16630   2.16688   2.16930   2.17219   2.17580
 Alpha virt. eigenvalues --    2.17683   2.17864   2.17970   2.18051   2.18245
 Alpha virt. eigenvalues --    2.18487   2.18708   2.19035   2.19275   2.19807
 Alpha virt. eigenvalues --    2.19857   2.20202   2.20286   2.20388   2.20474
 Alpha virt. eigenvalues --    2.21216   2.21319   2.21803   2.21830   2.21913
 Alpha virt. eigenvalues --    2.21919   2.22740   2.22848   2.23389   2.23489
 Alpha virt. eigenvalues --    2.24466   2.24559   2.25043   2.25132   2.26468
 Alpha virt. eigenvalues --    2.26479   2.26944   2.27045   2.27242   2.27271
 Alpha virt. eigenvalues --    2.28301   2.28348   2.29431   2.29473   2.29901
 Alpha virt. eigenvalues --    2.29918   2.30620   2.30655   2.30857   2.31242
 Alpha virt. eigenvalues --    2.31251   2.31348   2.32274   2.32281   2.33267
 Alpha virt. eigenvalues --    2.33298   2.33527   2.33634   2.34180   2.34308
 Alpha virt. eigenvalues --    2.35336   2.35539   2.35941   2.35958   2.36366
 Alpha virt. eigenvalues --    2.36490   2.36520   2.36785   2.37724   2.37835
 Alpha virt. eigenvalues --    2.38405   2.38409   2.38811   2.39017   2.39702
 Alpha virt. eigenvalues --    2.39772   2.40309   2.40352   2.40651   2.40861
 Alpha virt. eigenvalues --    2.41246   2.41434   2.41737   2.41857   2.42163
 Alpha virt. eigenvalues --    2.42209   2.42859   2.43096   2.43107   2.43696
 Alpha virt. eigenvalues --    2.43998   2.44323   2.44836   2.44891   2.45023
 Alpha virt. eigenvalues --    2.45066   2.45604   2.45717   2.46306   2.46451
 Alpha virt. eigenvalues --    2.46528   2.46645   2.46834   2.46964   2.47416
 Alpha virt. eigenvalues --    2.47424   2.47877   2.47918   2.49417   2.49462
 Alpha virt. eigenvalues --    2.49938   2.50238   2.50484   2.50715   2.51285
 Alpha virt. eigenvalues --    2.51297   2.51637   2.52046   2.52423   2.52601
 Alpha virt. eigenvalues --    2.52970   2.53189   2.53992   2.54078   2.54287
 Alpha virt. eigenvalues --    2.54290   2.54840   2.54954   2.55674   2.55691
 Alpha virt. eigenvalues --    2.58019   2.58099   2.58802   2.58925   2.60327
 Alpha virt. eigenvalues --    2.60373   2.60770   2.60943   2.61842   2.61867
 Alpha virt. eigenvalues --    2.62453   2.62693   2.63122   2.63154   2.64094
 Alpha virt. eigenvalues --    2.64238   2.64410   2.64455   2.65124   2.65244
 Alpha virt. eigenvalues --    2.65878   2.65943   2.66854   2.66949   2.67068
 Alpha virt. eigenvalues --    2.67076   2.68004   2.68072   2.68840   2.69016
 Alpha virt. eigenvalues --    2.69053   2.69187   2.69564   2.69620   2.70167
 Alpha virt. eigenvalues --    2.70168   2.71087   2.71146   2.71912   2.72215
 Alpha virt. eigenvalues --    2.72513   2.72755   2.72820   2.72992   2.73313
 Alpha virt. eigenvalues --    2.73443   2.73497   2.73706   2.74533   2.74679
 Alpha virt. eigenvalues --    2.75074   2.75139   2.76544   2.76758   2.77091
 Alpha virt. eigenvalues --    2.77403   2.77606   2.77610   2.78293   2.78327
 Alpha virt. eigenvalues --    2.78707   2.78894   2.79170   2.79293   2.80264
 Alpha virt. eigenvalues --    2.80493   2.80709   2.80755   2.81171   2.81286
 Alpha virt. eigenvalues --    2.82006   2.82096   2.82354   2.82506   2.83851
 Alpha virt. eigenvalues --    2.83906   2.83925   2.83928   2.84544   2.84712
 Alpha virt. eigenvalues --    2.84904   2.85047   2.85695   2.85816   2.86673
 Alpha virt. eigenvalues --    2.87158   2.87188   2.87773   2.88235   2.88298
 Alpha virt. eigenvalues --    2.88641   2.88682   2.88889   2.89100   2.90663
 Alpha virt. eigenvalues --    2.90675   2.91082   2.91351   2.93315   2.93331
 Alpha virt. eigenvalues --    2.93783   2.94362   2.94582   2.94711   2.95478
 Alpha virt. eigenvalues --    2.95524   2.95851   2.96370   2.96391   2.96612
 Alpha virt. eigenvalues --    2.96885   2.97344   2.97975   2.98030   2.98354
 Alpha virt. eigenvalues --    2.98365   2.98538   2.98581   2.98775   2.98804
 Alpha virt. eigenvalues --    2.98938   2.99038   2.99751   2.99816   3.00029
 Alpha virt. eigenvalues --    3.00189   3.00345   3.00379   3.00623   3.01001
 Alpha virt. eigenvalues --    3.01921   3.02111   3.02160   3.02172   3.02818
 Alpha virt. eigenvalues --    3.02886   3.03140   3.03307   3.03472   3.03720
 Alpha virt. eigenvalues --    3.04066   3.04345   3.04448   3.04633   3.04721
 Alpha virt. eigenvalues --    3.04760   3.05353   3.05440   3.06165   3.06267
 Alpha virt. eigenvalues --    3.06941   3.06962   3.07918   3.08292   3.09355
 Alpha virt. eigenvalues --    3.09555   3.09844   3.10435   3.10599   3.10745
 Alpha virt. eigenvalues --    3.11475   3.11477   3.11926   3.12103   3.12308
 Alpha virt. eigenvalues --    3.12356   3.13446   3.13658   3.13696   3.13802
 Alpha virt. eigenvalues --    3.14259   3.14484   3.16017   3.16097   3.17434
 Alpha virt. eigenvalues --    3.17535   3.17870   3.18220   3.19037   3.19284
 Alpha virt. eigenvalues --    3.22480   3.22612   3.24116   3.24454   3.24850
 Alpha virt. eigenvalues --    3.25210   3.26671   3.26675   3.27406   3.27789
 Alpha virt. eigenvalues --    3.29240   3.29278   3.31389   3.31692   3.33195
 Alpha virt. eigenvalues --    3.33585   3.40274   3.40805   3.42810   3.42962
 Alpha virt. eigenvalues --    3.48713   3.48834   3.50190   3.50292   3.50844
 Alpha virt. eigenvalues --    3.51639   3.56714   3.57013   3.59267   3.59351
 Alpha virt. eigenvalues --    3.62528   3.63009   3.66098   3.66319   3.67362
 Alpha virt. eigenvalues --    3.67559   3.73451   3.74040   3.76237   3.76701
          Condensed to atoms (all electrons):
 Mulliken charges:
               1
     1  Mg   0.839385
     2  C   -0.002859
     3  C   -0.094153
     4  C   -0.045964
     5  C   -0.063692
     6  N   -0.256745
     7  C   -0.052353
     8  C   -0.014060
     9  C   -0.086983
    10  C    0.046277
    11  C    0.104885
    12  C    0.053451
    13  C   -0.071671
    14  H    0.035988
    15  N   -0.433032
    16  C    0.168321
    17  C   -0.177353
    18  C   -0.004288
    19  C    0.148683
    20  C    0.110247
    21  C    0.012036
    22  O   -0.250168
    23  C    0.062585
    24  N   -0.341231
    25  C    0.041262
    26  C   -0.028009
    27  C   -0.024048
    28  C    0.075109
    29  C    0.076319
    30  C    0.035079
    31  C   -0.004503
    32  N   -0.310654
    33  C    0.080884
    34  C   -0.168937
    35  C    0.008485
    36  C    0.083465
    37  C    0.127140
    38  C    0.046557
    39  O   -0.188144
    40  C   -0.005520
    41  C    0.212839
    42  O   -0.256503
    43  O   -0.304950
    44  C    0.157724
    45  H   -0.017907
    46  H   -0.017284
    47  H   -0.041208
    48  H    0.000807
    49  H   -0.004147
    50  H    0.025374
    51  H    0.016337
    52  H    0.016402
    53  H    0.011365
    54  H    0.044401
    55  H    0.017675
    56  H    0.017887
    57  H    0.005816
    58  H    0.026417
    59  H    0.039287
    60  H    0.037309
    61  H    0.034886
    62  H    0.031388
    63  H    0.016262
    64  H    0.009240
    65  H    0.022723
    66  H    0.012388
    67  H    0.004588
    68  H    0.005683
    69  H    0.005072
    70  H    0.007919
    71  H    0.019530
    72  H    0.029614
    73  H    0.048444
    74  H    0.009460
    75  H    0.045672
    76  H    0.034919
    77  H    0.042768
    78  H    0.046184
    79  H    0.053833
    80  Mg   0.838469
    81  C   -0.016748
    82  C   -0.087820
    83  C   -0.045613
    84  C   -0.064685
    85  N   -0.254552
    86  C   -0.049748
    87  C   -0.015126
    88  C   -0.090519
    89  C    0.045747
    90  C    0.114436
    91  C    0.062524
    92  C   -0.077727
    93  H    0.034606
    94  N   -0.423393
    95  C    0.162855
    96  C   -0.174787
    97  C   -0.008066
    98  C    0.152095
    99  C    0.099425
   100  C    0.015342
   101  O   -0.253617
   102  C    0.061297
   103  N   -0.350150
   104  C    0.037527
   105  C   -0.019693
   106  C   -0.034886
   107  C    0.089147
   108  C    0.073781
   109  C    0.034699
   110  C   -0.007696
   111  N   -0.324278
   112  C    0.078910
   113  C   -0.162426
   114  C    0.002340
   115  C    0.096668
   116  C    0.131344
   117  C    0.042819
   118  O   -0.187579
   119  C    0.000723
   120  C    0.211234
   121  O   -0.250448
   122  O   -0.305762
   123  C    0.152099
   124  H   -0.019921
   125  H   -0.015929
   126  H   -0.040168
   127  H   -0.000774
   128  H   -0.004405
   129  H    0.022359
   130  H    0.014334
   131  H    0.016058
   132  H    0.014127
   133  H    0.037905
   134  H    0.020609
   135  H    0.019593
   136  H    0.008721
   137  H    0.025782
   138  H    0.039582
   139  H    0.038219
   140  H    0.035735
   141  H    0.033770
   142  H    0.014203
   143  H    0.012232
   144  H    0.024749
   145  H    0.011474
   146  H    0.005535
   147  H    0.005753
   148  H    0.003965
   149  H    0.010244
   150  H    0.019119
   151  H    0.030627
   152  H    0.046832
   153  H    0.008838
   154  H    0.046628
   155  H    0.034804
   156  H    0.043751
   157  H    0.049249
   158  H    0.053631
 Sum of Mulliken charges =  -0.00000
 Mulliken charges with hydrogens summed into heavy atoms:
               1
     1  Mg   0.839385
     2  C   -0.002859
     3  C   -0.112060
     4  C   -0.063249
     5  C   -0.104901
     6  N   -0.256745
     7  C   -0.052353
     8  C   -0.013253
     9  C   -0.091130
    10  C    0.046277
    11  C    0.162998
    12  C    0.109218
    13  C   -0.000121
    15  N   -0.433032
    16  C    0.168321
    17  C   -0.177353
    18  C   -0.004288
    19  C    0.148683
    20  C    0.181767
    21  C    0.012036
    22  O   -0.250168
    23  C    0.166169
    24  N   -0.341231
    25  C    0.041262
    26  C   -0.011748
    27  C   -0.014808
    28  C    0.075109
    29  C    0.116017
    30  C    0.045833
    31  C    0.052560
    32  N   -0.310654
    33  C    0.080884
    34  C   -0.168937
    35  C    0.008485
    36  C    0.083465
    37  C    0.230716
    38  C    0.046557
    39  O   -0.188144
    40  C    0.029399
    41  C    0.212839
    42  O   -0.256503
    43  O   -0.304950
    44  C    0.300508
    80  Mg   0.838469
    81  C   -0.016748
    82  C   -0.107741
    83  C   -0.061542
    84  C   -0.104853
    85  N   -0.254552
    86  C   -0.049748
    87  C   -0.015900
    88  C   -0.094924
    89  C    0.045747
    90  C    0.167188
    91  C    0.114557
    92  C   -0.002919
    94  N   -0.423393
    95  C    0.162855
    96  C   -0.174787
    97  C   -0.008066
    98  C    0.152095
    99  C    0.173510
   100  C    0.015342
   101  O   -0.253617
   102  C    0.169021
   103  N   -0.350150
   104  C    0.037527
   105  C   -0.005490
   106  C   -0.022654
   107  C    0.089147
   108  C    0.115540
   109  C    0.044417
   110  C    0.052293
   111  N   -0.324278
   112  C    0.078910
   113  C   -0.162426
   114  C    0.002340
   115  C    0.096668
   116  C    0.233642
   117  C    0.042819
   118  O   -0.187579
   119  C    0.035527
   120  C    0.211234
   121  O   -0.250448
   122  O   -0.305762
   123  C    0.298729
 Electronic spatial extent (au):  <R**2>=         152017.9710
 Charge=             -0.0000 electrons
 Dipole moment (field-independent basis, Debye):
    X=              0.1638    Y=             -0.3134    Z=              7.1663  Tot=              7.1750
 Quadrupole moment (field-independent basis, Debye-Ang):
   XX=           -462.5581   YY=           -461.2986   ZZ=           -540.0068
   XY=             27.3206   XZ=              4.4324   YZ=              0.8188
 Traceless Quadrupole moment (field-independent basis, Debye-Ang):
   XX=             25.3964   YY=             26.6559   ZZ=            -52.0523
   XY=             27.3206   XZ=              4.4324   YZ=              0.8188
 Octapole moment (field-independent basis, Debye-Ang**2):
  XXX=             38.1321  YYY=             10.8628  ZZZ=            372.6243  XYY=             -1.0308
  XXY=             19.1384  XXZ=            328.0343  XZZ=             16.7727  YZZ=             -6.6136
  YYZ=           -292.9076  XYZ=            388.3988
 Hexadecapole moment (field-independent basis, Debye-Ang**3):
 XXXX=        -137569.5988 YYYY=         -32636.4481 ZZZZ=         -32684.8411 XXXY=           2166.1062
 XXXZ=            463.8800 YYYX=           1125.7645 YYYZ=            -38.5445 ZZZX=             96.0396
 ZZZY=             -4.6025 XXYY=         -27166.3563 XXZZ=         -29893.8072 YYZZ=         -11473.0712
 XXYZ=           -117.1052 YYXZ=             -9.1710 ZZXY=            599.5942
 N-N= 1.420609049387D+04 E-N=-3.789370274959D+04  KE= 4.028801961215D+03
 Leave Link  601 at Sat Sep 11 07:03:35 2021, MaxMem= 23488102400 cpu:              16.2 elap:               0.8
 (Enter /sw/apps/gaussian-16.0/g16/l9999.exe)
 1\1\GINC-BP1-COMPUTE00091\SP\RCAM-B3LYP TD-FC\def2SVP\C68H72Mg2N8O8\OF
 15641\11-Sep-2021\0\\#p cam-b3lyp/Def2SVP td=(nstates=5)\\TDDFT excite
 d states in gaussian\\0,1\Mg,0,0.,0.,0.\C,0,-0.217,-2.218,2.801\C,0,-1
 .255,2.442,2.026\C,0,-0.245,1.85,-2.564\C,0,0.146,-2.824,-2.037\N,0,-0
 .617,-0.009,2.126\C,0,-0.594,-0.908,3.105\C,0,-0.936,-0.309,4.502\C,0,
 -1.773,0.964,4.032\C,0,-1.155,1.168,2.66\C,0,-3.263,0.685,3.863\C,0,0.
 345,0.11,5.299\C,0,0.124,0.397,6.787\H,0,1.168,0.033,7.733\N,0,-0.185,
 1.961,-0.152\C,0,-0.703,2.8,0.777\C,0,-0.62,4.156,0.193\C,0,-0.187,4.0
 15,-1.225\C,0,-0.214,2.583,-1.38\C,0,-0.887,5.406,0.974\C,0,0.181,5.01
 3,-2.277\O,0,0.303,4.69,-3.508\C,0,0.31,6.414,-1.837\N,0,-0.265,-0.413
 ,-2.029\C,0,-0.279,0.569,-2.937\C,0,-0.196,0.024,-4.332\C,0,0.124,-1.5
 33,-4.18\C,0,0.086,-1.632,-2.635\C,0,-1.451,0.205,-5.197\C,0,1.373,-2.
 07,-4.923\C,0,2.626,-1.49,-4.306\N,0,0.15,-2.144,0.303\C,0,0.173,-3.13
 6,-0.688\C,0,0.173,-4.438,0.004\C,0,0.133,-4.111,1.358\C,0,0.083,-2.69
 5,1.502\C,0,0.149,-5.715,-0.623\C,0,0.096,-4.629,2.716\O,0,0.208,-5.74
 7,3.221\C,0,-0.255,-3.428,3.701\C,0,0.717,-3.482,4.848\O,0,1.931,-3.25
 5,4.669\O,0,0.038,-3.556,6.003\C,0,0.943,-3.583,7.183\H,0,-1.859,3.22,
 2.497\H,0,-0.218,2.453,-3.474\H,0,0.276,-3.747,-2.605\H,0,-1.554,-0.94
 9,5.132\H,0,-1.585,1.831,4.665\H,0,-3.484,-0.377,3.969\H,0,-3.511,1.02
 7,2.858\H,0,-3.852,1.301,4.543\H,0,0.669,1.096,4.966\H,0,1.13,-0.639,5
 .189\H,0,-0.844,0.026,7.125\H,0,0.062,1.477,6.921\H,0,-1.344,5.186,1.9
 38\H,0,-1.651,5.963,0.432\H,0,0.007,6.02,1.084\H,0,-0.635,6.744,-1.405
 \H,0,0.665,6.97,-2.704\H,0,1.048,6.466,-1.036\H,0,0.608,0.501,-4.891\H
 ,0,-0.692,-2.156,-4.547\H,0,-1.267,0.74,-6.129\H,0,-2.204,0.714,-4.596
 \H,0,-1.967,-0.72,-5.453\H,0,1.356,-1.759,-5.967\H,0,1.452,-3.157,-4.9
 02\H,0,2.714,-0.522,-4.798\H,0,3.487,-2.121,-4.529\H,0,2.495,-1.303,-3
 .24\H,0,0.867,-6.333,-0.084\H,0,0.404,-5.642,-1.68\H,0,-0.891,-5.999,-
 0.463\H,0,-1.283,-3.581,4.028\H,0,0.698,-4.478,7.755\H,0,0.833,-2.619,
 7.68\H,0,2.,-3.754,6.976\Mg,0,13.13098,1.18506,0.99099\C,0,13.51162,-1
 .55351,-1.2969\C,0,13.7952,3.26901,-1.62637\C,0,13.24782,3.58642,3.061
 55\C,0,13.62977,-1.09162,3.58207\N,0,13.57893,0.78945,-1.13858\C,0,13.
 63591,-0.28789,-1.90698\C,0,13.75719,0.01078,-3.42542\C,0,14.40471,1.4
 773,-3.33107\C,0,13.86845,1.89371,-1.96297\C,0,15.92282,1.46172,-3.264
 48\C,0,12.36137,0.04415,-4.14138\C,0,12.42219,0.02295,-5.67031\H,0,11.
 38016,-0.69571,-6.39843\N,0,12.98596,3.1424,0.69711\C,0,13.27451,3.818
 93,-0.4344\C,0,13.02253,5.23621,-0.1311\C,0,12.71978,5.35856,1.32083\C
 ,0,12.99931,4.00717,1.76318\C,0,13.0035,6.30334,-1.1867\C,0,12.26743,6
 .50565,2.17276\O,0,12.29581,6.44594,3.45278\C,0,11.87849,7.73431,1.465
 22\N,0,13.6088,1.28217,3.01203\C,0,13.52921,2.44279,3.68624\C,0,13.650
 19,2.2184,5.17466\C,0,13.585,0.63333,5.37688\C,0,13.52463,0.19183,3.89
 809\C,0,14.92008,2.76279,5.82843\C,0,12.50591,0.09236,6.35443\C,0,11.1
 2646,0.33126,5.78396\N,0,13.32028,-0.96045,1.16141\C,0,13.55023,-1.705
 62,2.33866\C,0,13.71905,-3.11658,1.9348\C,0,13.59754,-3.09083,0.53728\
 C,0,13.38924,-1.75509,0.09921\C,0,13.99801,-4.2045,2.8093\C,0,13.60872
 ,-3.88844,-0.66787\O,0,13.65772,-5.09338,-0.91168\C,0,13.67977,-2.9116
 1,-1.91973\C,0,12.64566,-3.35813,-2.91659\O,0,11.43414,-3.28912,-2.644
 42\O,0,13.24406,-3.58675,-4.09982\C,0,12.25744,-4.02142,-5.12425\H,0,1
 4.2142,3.99647,-2.32216\H,0,13.18882,4.36253,3.82814\H,0,13.69102,-1.8
 7615,4.33932\H,0,14.41912,-0.65376,-3.96764\H,0,14.01671,2.13111,-4.10
 783\H,0,16.31178,0.45856,-3.1722\H,0,16.18521,2.05068,-2.39539\H,0,16.
 34333,1.99021,-4.12483\H,0,11.90232,1.02885,-3.98525\H,0,11.73555,-0.7
 5458,-3.79353\H,0,13.415,-0.26171,-6.03943\H,0,12.28199,1.04258,-6.037
 34\H,0,13.42364,5.94068,-2.13293\H,0,13.69853,7.08569,-0.86306\H,0,12.
 01354,6.74409,-1.32229\H,0,12.71668,8.08916,0.87027\H,0,11.50075,8.408
 49,2.23638\H,0,11.07329,7.49324,0.76226\H,0,12.822,2.67444,5.70308\H,0
 ,14.52564,0.23566,5.78541\H,0,14.71693,3.47218,6.65279\H,0,15.5238,3.2
 3207,5.06303\H,0,15.59598,2.00692,6.22469\H,0,12.54786,0.63431,7.30241
 \H,0,12.61854,-0.96255,6.58129\H,0,10.9177,1.36689,6.06851\H,0,10.4051
 5,-0.35275,6.22656\H,0,11.14036,0.28674,4.68875\H,0,13.36368,-5.02409,
 2.4988\H,0,13.82055,-3.93498,3.84835\H,0,15.06041,-4.35545,2.60008\H,0
 ,14.69086,-2.97071,-2.3244\H,0,12.61054,-4.97771,-5.52238\H,0,12.17528
 ,-3.17884,-5.83634\H,0,11.26441,-4.28847,-4.78217\\Version=ES64L-G16Re
 vA.03\State=1-A\HF=-4069.8115901\RMSD=5.426e-09\PG=C01 [X(C68H72Mg2N8O
 8)]\\@


 IT IS BETTER TO THINK YOU ARE HALF DRY THAN TO KNOW YOU
 ARE ALL WET.  -- SNOOPY
 Job cpu time:       0 days 12 hours  2 minutes  9.7 seconds.
 Elapsed time:       0 days  0 hours 30 minutes 40.6 seconds.
 File lengths (MBytes):  RWF=  13225 Int=      0 D2E=      0 Chk=    574 Scr=      1
 Normal termination of Gaussian 16 at Sat Sep 11 07:03:36 2021.
