 Entering Gaussian System, Link 0=g16
 Initial command:
 /sw/apps/gaussian-16.0/g16/l1.exe "/tmp/Gau-82749.inp" -scrdir="/tmp/"
 Entering Link 1 = /sw/apps/gaussian-16.0/g16/l1.exe PID=     82750.
  
 Copyright (c) 1988,1990,1992,1993,1995,1998,2003,2009,2016,
            Gaussian, Inc.  All Rights Reserved.
  
 This is part of the Gaussian(R) 16 program.  It is based on
 the Gaussian(R) 09 system (copyright 2009, Gaussian, Inc.),
 the Gaussian(R) 03 system (copyright 2003, Gaussian, Inc.),
 the Gaussian(R) 98 system (copyright 1998, Gaussian, Inc.),
 the Gaussian(R) 94 system (copyright 1995, Gaussian, Inc.),
 the Gaussian 92(TM) system (copyright 1992, Gaussian, Inc.),
 the Gaussian 90(TM) system (copyright 1990, Gaussian, Inc.),
 the Gaussian 88(TM) system (copyright 1988, Gaussian, Inc.),
 the Gaussian 86(TM) system (copyright 1986, Carnegie Mellon
 University), and the Gaussian 82(TM) system (copyright 1983,
 Carnegie Mellon University). Gaussian is a federally registered
 trademark of Gaussian, Inc.
  
 This software contains proprietary and confidential information,
 including trade secrets, belonging to Gaussian, Inc.
  
 This software is provided under written license and may be
 used, copied, transmitted, or stored only in accord with that
 written license.
  
 The following legend is applicable only to US Government
 contracts under FAR:
  
                    RESTRICTED RIGHTS LEGEND
  
 Use, reproduction and disclosure by the US Government is
 subject to restrictions as set forth in subparagraphs (a)
 and (c) of the Commercial Computer Software - Restricted
 Rights clause in FAR 52.227-19.
  
 Gaussian, Inc.
 340 Quinnipiac St., Bldg. 40, Wallingford CT 06492
  
  
 ---------------------------------------------------------------
 Warning -- This program may not be used in any manner that
 competes with the business of Gaussian, Inc. or will provide
 assistance to any competitor of Gaussian, Inc.  The licensee
 of this program is prohibited from giving any competitor of
 Gaussian, Inc. access to this program.  By using this program,
 the user acknowledges that Gaussian, Inc. is engaged in the
 business of creating and licensing software in the field of
 computational chemistry and represents and warrants to the
 licensee that it is not a competitor of Gaussian, Inc. and that
 it will not use this program in any manner prohibited above.
 ---------------------------------------------------------------
  

 Cite this work as:
 Gaussian 16, Revision A.03,
 M. J. Frisch, G. W. Trucks, H. B. Schlegel, G. E. Scuseria, 
 M. A. Robb, J. R. Cheeseman, G. Scalmani, V. Barone, 
 G. A. Petersson, H. Nakatsuji, X. Li, M. Caricato, A. V. Marenich, 
 J. Bloino, B. G. Janesko, R. Gomperts, B. Mennucci, H. P. Hratchian, 
 J. V. Ortiz, A. F. Izmaylov, J. L. Sonnenberg, D. Williams-Young, 
 F. Ding, F. Lipparini, F. Egidi, J. Goings, B. Peng, A. Petrone, 
 T. Henderson, D. Ranasinghe, V. G. Zakrzewski, J. Gao, N. Rega, 
 G. Zheng, W. Liang, M. Hada, M. Ehara, K. Toyota, R. Fukuda, 
 J. Hasegawa, M. Ishida, T. Nakajima, Y. Honda, O. Kitao, H. Nakai, 
 T. Vreven, K. Throssell, J. A. Montgomery, Jr., J. E. Peralta, 
 F. Ogliaro, M. J. Bearpark, J. J. Heyd, E. N. Brothers, K. N. Kudin, 
 V. N. Staroverov, T. A. Keith, R. Kobayashi, J. Normand, 
 K. Raghavachari, A. P. Rendell, J. C. Burant, S. S. Iyengar, 
 J. Tomasi, M. Cossi, J. M. Millam, M. Klene, C. Adamo, R. Cammi, 
 J. W. Ochterski, R. L. Martin, K. Morokuma, O. Farkas, 
 J. B. Foresman, and D. J. Fox, Gaussian, Inc., Wallingford CT, 2016.
 
 ******************************************
 Gaussian 16:  ES64L-G16RevA.03 25-Dec-2016
                 8-Sep-2021 
 ******************************************
 %nproc=24
 Will use up to   24 processors via shared memory.
 %mem=175gb
 -----------------------------------
 #p cam-b3lyp/Def2SVP td=(nstates=5)
 -----------------------------------
 1/38=1,172=1/1;
 2/12=2,17=6,18=5,40=1/2;
 3/5=43,7=101,11=9,25=1,30=1,74=-40/1,2,3,8;
 4//1;
 5/5=2,38=5/2;
 8/6=1,10=1,108=5/1;
 9/41=5,42=1,70=2/14;
 6/7=2,8=2,9=2,10=2/1;
 99/5=1,9=1/99;
 Leave Link    1 at Wed Sep  8 19:08:02 2021, MaxMem= 23488102400 cpu:               0.6 elap:               0.0
 (Enter /sw/apps/gaussian-16.0/g16/l101.exe)
 --------------------------------
 TDDFT excited states in gaussian
 --------------------------------
 Symbolic Z-matrix:
 Charge =  0 Multiplicity = 1
 Mg                    0.        0.        0. 
 C                    -0.217    -2.218     2.801 
 C                    -1.255     2.442     2.026 
 C                    -0.245     1.85     -2.564 
 C                     0.146    -2.824    -2.037 
 N                    -0.617    -0.009     2.126 
 C                    -0.594    -0.908     3.105 
 C                    -0.936    -0.309     4.502 
 C                    -1.773     0.964     4.032 
 C                    -1.155     1.168     2.66 
 C                    -3.263     0.685     3.863 
 C                     0.345     0.11      5.299 
 C                     0.124     0.397     6.787 
 H                     1.168     0.033     7.733 
 N                    -0.185     1.961    -0.152 
 C                    -0.703     2.8       0.777 
 C                    -0.62      4.156     0.193 
 C                    -0.187     4.015    -1.225 
 C                    -0.214     2.583    -1.38 
 C                    -0.887     5.406     0.974 
 C                     0.181     5.013    -2.277 
 O                     0.303     4.69     -3.508 
 C                     0.31      6.414    -1.837 
 N                    -0.265    -0.413    -2.029 
 C                    -0.279     0.569    -2.937 
 C                    -0.196     0.024    -4.332 
 C                     0.124    -1.533    -4.18 
 C                     0.086    -1.632    -2.635 
 C                    -1.451     0.205    -5.197 
 C                     1.373    -2.07     -4.923 
 C                     2.626    -1.49     -4.306 
 N                     0.15     -2.144     0.303 
 C                     0.173    -3.136    -0.688 
 C                     0.173    -4.438     0.004 
 C                     0.133    -4.111     1.358 
 C                     0.083    -2.695     1.502 
 C                     0.149    -5.715    -0.623 
 C                     0.096    -4.629     2.716 
 O                     0.208    -5.747     3.221 
 C                    -0.255    -3.428     3.701 
 C                     0.717    -3.482     4.848 
 O                     1.931    -3.255     4.669 
 O                     0.038    -3.556     6.003 
 C                     0.943    -3.583     7.183 
 H                    -1.859     3.22      2.497 
 H                    -0.218     2.453    -3.474 
 H                     0.276    -3.747    -2.605 
 H                    -1.554    -0.949     5.132 
 H                    -1.585     1.831     4.665 
 H                    -3.484    -0.377     3.969 
 H                    -3.511     1.027     2.858 
 H                    -3.852     1.301     4.543 
 H                     0.669     1.096     4.966 
 H                     1.13     -0.639     5.189 
 H                    -0.844     0.026     7.125 
 H                     0.062     1.477     6.921 
 H                    -1.344     5.186     1.938 
 H                    -1.651     5.963     0.432 
 H                     0.007     6.02      1.084 
 H                    -0.635     6.744    -1.405 
 H                     0.665     6.97     -2.704 
 H                     1.048     6.466    -1.036 
 H                     0.608     0.501    -4.891 
 H                    -0.692    -2.156    -4.547 
 H                    -1.267     0.74     -6.129 
 H                    -2.204     0.714    -4.596 
 H                    -1.967    -0.72     -5.453 
 H                     1.356    -1.759    -5.967 
 H                     1.452    -3.157    -4.902 
 H                     2.714    -0.522    -4.798 
 H                     3.487    -2.121    -4.529 
 H                     2.495    -1.303    -3.24 
 H                     0.867    -6.333    -0.084 
 H                     0.404    -5.642    -1.68 
 H                    -0.891    -5.999    -0.463 
 H                    -1.283    -3.581     4.028 
 H                     0.698    -4.478     7.755 
 H                     0.833    -2.619     7.68 
 H                     2.       -3.754     6.976 
 Mg                    7.87409   0.71203   0.59383 
 C                     7.60424  -2.07485  -1.65106 
 C                     7.91734   2.7307   -2.1553 
 C                     8.56302   3.14327   2.51265 
 C                     8.94546  -1.53475   3.03306 
 N                     7.76744   0.26734  -1.57023 
 C                     7.60426  -0.82399  -2.30283 
 C                     7.35092  -0.5547   -3.81043 
 C                     8.03801   0.89302  -3.91488 
 C                     7.87001   1.34836  -2.46673 
 C                     9.52398   0.83281  -4.2273 
 C                     5.82205  -0.49131  -4.15763 
 C                     5.49957  -0.54004  -5.65275 
 H                     4.29137  -1.23911  -6.08176 
 N                     7.70945   2.66763   0.29873 
 C                     7.72388   3.31604  -0.88476 
 C                     7.59092   4.74517  -0.56216 
 C                     7.66252   4.90099   0.91612 
 C                     8.00954   3.54942   1.30714 
 C                     7.33625   5.79449  -1.605 
 C                     7.46547   6.07536   1.8262 
 O                     7.81029   6.03635   3.06006 
 C                     6.94341   7.30311   1.2085 
 N                     8.84254   0.82867   2.42981 
 C                     8.96245   2.00234   3.07484 
 C                     9.44471   1.79947   4.4914 
 C                     9.39232   0.22071   4.74113 
 C                     8.95449  -0.24358   3.33467 
 C                     10.85062   2.31625   4.79593 
 C                     8.57756  -0.27097   5.96876 
 C                     7.10591  -0.00023   5.7535 
 N                     8.04615  -1.43503   0.76284 
 C                     8.54338  -2.16689   1.8634 
 C                     8.57094  -3.5889    1.46394 
 C                     8.10584  -3.583     0.14026 
 C                     7.82847  -2.24915  -0.26395 
 C                     9.03163  -4.66987   2.2673 
 C                     7.79653  -4.40074  -1.01053 
 O                     7.7531   -5.61054  -1.23014 
 C                     7.57792  -3.44768  -2.26364 
 C                     6.31727  -3.87954  -2.96133 
 O                     5.21385  -3.76947  -2.39833 
 O                     6.59617  -4.14595  -4.25036 
 C                     5.37492  -4.56785  -4.98682 
 H                     8.16787   3.43339  -2.9505 
 H                     8.71626   3.93358   3.25116 
 H                     9.17377  -2.30792   3.76977 
 H                     7.8401   -1.24791  -4.48417 
 H                     7.48523   1.54507  -4.58617 
 H                     9.89844  -0.17993  -4.21074 
 H                     10.00922   1.42812  -3.46495 
 H                     9.73      1.33383  -5.17749 
 H                     5.44114   0.50927  -3.91578 
 H                     5.28283  -1.26485  -3.64626 
 H                     6.3617   -0.86067  -6.25014 
 H                     5.29791   0.47703  -5.99758 
 H                     7.49825   5.40346  -2.61705 
 H                     8.10932   6.56086  -1.48294 
 H                     6.35506   6.26253  -1.50075 
 H                     7.61559   7.62248   0.41563 
 H                     6.78664   8.00124   2.03306 
 H                     5.98272   7.07463   0.73363 
 H                     8.78592   2.28908   5.19806 
 H                     10.39482  -0.1982    4.91242 
 H                     10.87703   3.0452    5.6278 
 H                     11.25621   2.75418   3.89357 
 H                     11.5848   1.54712   5.02965 
 H                     8.86786   0.28533   6.86342 
 H                     8.71673  -1.32484   6.18555 
 H                     7.00057   1.04587   6.05628 
 H                     6.50071  -0.65464   6.37761 
 H                     6.84545  -0.06356   4.69057 
 H                     8.31967  -5.47507   2.14378 
 H                     9.12538  -4.37768   3.31115 
 H                     10.00432  -4.85627   1.80427 
 H                     8.45455  -3.54403  -2.90538 
 H                     5.5937   -5.54092  -5.43735 
 H                     5.13908  -3.73528  -5.67599 
 H                     4.49204  -4.79906  -4.40243 
 
 ITRead=  0  0  0  0  0  0  0  0  0  0  0  0  0  0  0  0  0  0  0  0
 ITRead=  0  0  0  0  0  0  0  0  0  0  0  0  0  0  0  0  0  0  0  0
 ITRead=  0  0  0  0  0  0  0  0  0  0  0  0  0  0  0  0  0  0  0  0
 ITRead=  0  0  0  0  0  0  0  0  0  0  0  0  0  0  0  0  0  0  0  0
 ITRead=  0  0  0  0  0  0  0  0  0  0  0  0  0  0  0  0  0  0  0  0
 ITRead=  0  0  0  0  0  0  0  0  0  0  0  0  0  0  0  0  0  0  0  0
 ITRead=  0  0  0  0  0  0  0  0  0  0  0  0  0  0  0  0  0  0  0  0
 ITRead=  0  0  0  0  0  0  0  0  0  0  0  0  0  0  0  0  0  0
 MicOpt= -1 -1 -1 -1 -1 -1 -1 -1 -1 -1 -1 -1 -1 -1 -1 -1 -1 -1 -1 -1
 MicOpt= -1 -1 -1 -1 -1 -1 -1 -1 -1 -1 -1 -1 -1 -1 -1 -1 -1 -1 -1 -1
 MicOpt= -1 -1 -1 -1 -1 -1 -1 -1 -1 -1 -1 -1 -1 -1 -1 -1 -1 -1 -1 -1
 MicOpt= -1 -1 -1 -1 -1 -1 -1 -1 -1 -1 -1 -1 -1 -1 -1 -1 -1 -1 -1 -1
 MicOpt= -1 -1 -1 -1 -1 -1 -1 -1 -1 -1 -1 -1 -1 -1 -1 -1 -1 -1 -1 -1
 MicOpt= -1 -1 -1 -1 -1 -1 -1 -1 -1 -1 -1 -1 -1 -1 -1 -1 -1 -1 -1 -1
 MicOpt= -1 -1 -1 -1 -1 -1 -1 -1 -1 -1 -1 -1 -1 -1 -1 -1 -1 -1 -1 -1
 MicOpt= -1 -1 -1 -1 -1 -1 -1 -1 -1 -1 -1 -1 -1 -1 -1 -1 -1 -1
 NAtoms=    158 NQM=      158 NQMF=       0 NMMI=      0 NMMIF=      0
                NMic=       0 NMicF=      0.
                    Isotopes and Nuclear Properties:
 (Nuclear quadrupole moments (NQMom) in fm**2, nuclear magnetic moments (NMagM)
  in nuclear magnetons)

  Atom         1           2           3           4           5           6           7           8           9          10
 IAtWgt=          24          12          12          12          12          14          12          12          12          12
 AtmWgt=  23.9850450  12.0000000  12.0000000  12.0000000  12.0000000  14.0030740  12.0000000  12.0000000  12.0000000  12.0000000
 NucSpn=           0           0           0           0           0           2           0           0           0           0
 AtZEff=  -0.0000000  -0.0000000  -0.0000000  -0.0000000  -0.0000000  -0.0000000  -0.0000000  -0.0000000  -0.0000000  -0.0000000
 NQMom=    0.0000000   0.0000000   0.0000000   0.0000000   0.0000000   2.0440000   0.0000000   0.0000000   0.0000000   0.0000000
 NMagM=    0.0000000   0.0000000   0.0000000   0.0000000   0.0000000   0.4037610   0.0000000   0.0000000   0.0000000   0.0000000
 AtZNuc=  12.0000000   6.0000000   6.0000000   6.0000000   6.0000000   7.0000000   6.0000000   6.0000000   6.0000000   6.0000000

  Atom        11          12          13          14          15          16          17          18          19          20
 IAtWgt=          12          12          12           1          14          12          12          12          12          12
 AtmWgt=  12.0000000  12.0000000  12.0000000   1.0078250  14.0030740  12.0000000  12.0000000  12.0000000  12.0000000  12.0000000
 NucSpn=           0           0           0           1           2           0           0           0           0           0
 AtZEff=  -0.0000000  -0.0000000  -0.0000000  -0.0000000  -0.0000000  -0.0000000  -0.0000000  -0.0000000  -0.0000000  -0.0000000
 NQMom=    0.0000000   0.0000000   0.0000000   0.0000000   2.0440000   0.0000000   0.0000000   0.0000000   0.0000000   0.0000000
 NMagM=    0.0000000   0.0000000   0.0000000   2.7928460   0.4037610   0.0000000   0.0000000   0.0000000   0.0000000   0.0000000
 AtZNuc=   6.0000000   6.0000000   6.0000000   1.0000000   7.0000000   6.0000000   6.0000000   6.0000000   6.0000000   6.0000000

  Atom        21          22          23          24          25          26          27          28          29          30
 IAtWgt=          12          16          12          14          12          12          12          12          12          12
 AtmWgt=  12.0000000  15.9949146  12.0000000  14.0030740  12.0000000  12.0000000  12.0000000  12.0000000  12.0000000  12.0000000
 NucSpn=           0           0           0           2           0           0           0           0           0           0
 AtZEff=  -0.0000000  -0.0000000  -0.0000000  -0.0000000  -0.0000000  -0.0000000  -0.0000000  -0.0000000  -0.0000000  -0.0000000
 NQMom=    0.0000000   0.0000000   0.0000000   2.0440000   0.0000000   0.0000000   0.0000000   0.0000000   0.0000000   0.0000000
 NMagM=    0.0000000   0.0000000   0.0000000   0.4037610   0.0000000   0.0000000   0.0000000   0.0000000   0.0000000   0.0000000
 AtZNuc=   6.0000000   8.0000000   6.0000000   7.0000000   6.0000000   6.0000000   6.0000000   6.0000000   6.0000000   6.0000000

  Atom        31          32          33          34          35          36          37          38          39          40
 IAtWgt=          12          14          12          12          12          12          12          12          16          12
 AtmWgt=  12.0000000  14.0030740  12.0000000  12.0000000  12.0000000  12.0000000  12.0000000  12.0000000  15.9949146  12.0000000
 NucSpn=           0           2           0           0           0           0           0           0           0           0
 AtZEff=  -0.0000000  -0.0000000  -0.0000000  -0.0000000  -0.0000000  -0.0000000  -0.0000000  -0.0000000  -0.0000000  -0.0000000
 NQMom=    0.0000000   2.0440000   0.0000000   0.0000000   0.0000000   0.0000000   0.0000000   0.0000000   0.0000000   0.0000000
 NMagM=    0.0000000   0.4037610   0.0000000   0.0000000   0.0000000   0.0000000   0.0000000   0.0000000   0.0000000   0.0000000
 AtZNuc=   6.0000000   7.0000000   6.0000000   6.0000000   6.0000000   6.0000000   6.0000000   6.0000000   8.0000000   6.0000000

  Atom        41          42          43          44          45          46          47          48          49          50
 IAtWgt=          12          16          16          12           1           1           1           1           1           1
 AtmWgt=  12.0000000  15.9949146  15.9949146  12.0000000   1.0078250   1.0078250   1.0078250   1.0078250   1.0078250   1.0078250
 NucSpn=           0           0           0           0           1           1           1           1           1           1
 AtZEff=  -0.0000000  -0.0000000  -0.0000000  -0.0000000  -0.0000000  -0.0000000  -0.0000000  -0.0000000  -0.0000000  -0.0000000
 NQMom=    0.0000000   0.0000000   0.0000000   0.0000000   0.0000000   0.0000000   0.0000000   0.0000000   0.0000000   0.0000000
 NMagM=    0.0000000   0.0000000   0.0000000   0.0000000   2.7928460   2.7928460   2.7928460   2.7928460   2.7928460   2.7928460
 AtZNuc=   6.0000000   8.0000000   8.0000000   6.0000000   1.0000000   1.0000000   1.0000000   1.0000000   1.0000000   1.0000000

  Atom        51          52          53          54          55          56          57          58          59          60
 IAtWgt=           1           1           1           1           1           1           1           1           1           1
 AtmWgt=   1.0078250   1.0078250   1.0078250   1.0078250   1.0078250   1.0078250   1.0078250   1.0078250   1.0078250   1.0078250
 NucSpn=           1           1           1           1           1           1           1           1           1           1
 AtZEff=  -0.0000000  -0.0000000  -0.0000000  -0.0000000  -0.0000000  -0.0000000  -0.0000000  -0.0000000  -0.0000000  -0.0000000
 NQMom=    0.0000000   0.0000000   0.0000000   0.0000000   0.0000000   0.0000000   0.0000000   0.0000000   0.0000000   0.0000000
 NMagM=    2.7928460   2.7928460   2.7928460   2.7928460   2.7928460   2.7928460   2.7928460   2.7928460   2.7928460   2.7928460
 AtZNuc=   1.0000000   1.0000000   1.0000000   1.0000000   1.0000000   1.0000000   1.0000000   1.0000000   1.0000000   1.0000000

  Atom        61          62          63          64          65          66          67          68          69          70
 IAtWgt=           1           1           1           1           1           1           1           1           1           1
 AtmWgt=   1.0078250   1.0078250   1.0078250   1.0078250   1.0078250   1.0078250   1.0078250   1.0078250   1.0078250   1.0078250
 NucSpn=           1           1           1           1           1           1           1           1           1           1
 AtZEff=  -0.0000000  -0.0000000  -0.0000000  -0.0000000  -0.0000000  -0.0000000  -0.0000000  -0.0000000  -0.0000000  -0.0000000
 NQMom=    0.0000000   0.0000000   0.0000000   0.0000000   0.0000000   0.0000000   0.0000000   0.0000000   0.0000000   0.0000000
 NMagM=    2.7928460   2.7928460   2.7928460   2.7928460   2.7928460   2.7928460   2.7928460   2.7928460   2.7928460   2.7928460
 AtZNuc=   1.0000000   1.0000000   1.0000000   1.0000000   1.0000000   1.0000000   1.0000000   1.0000000   1.0000000   1.0000000

  Atom        71          72          73          74          75          76          77          78          79          80
 IAtWgt=           1           1           1           1           1           1           1           1           1          24
 AtmWgt=   1.0078250   1.0078250   1.0078250   1.0078250   1.0078250   1.0078250   1.0078250   1.0078250   1.0078250  23.9850450
 NucSpn=           1           1           1           1           1           1           1           1           1           0
 AtZEff=  -0.0000000  -0.0000000  -0.0000000  -0.0000000  -0.0000000  -0.0000000  -0.0000000  -0.0000000  -0.0000000  -0.0000000
 NQMom=    0.0000000   0.0000000   0.0000000   0.0000000   0.0000000   0.0000000   0.0000000   0.0000000   0.0000000   0.0000000
 NMagM=    2.7928460   2.7928460   2.7928460   2.7928460   2.7928460   2.7928460   2.7928460   2.7928460   2.7928460   0.0000000
 AtZNuc=   1.0000000   1.0000000   1.0000000   1.0000000   1.0000000   1.0000000   1.0000000   1.0000000   1.0000000  12.0000000

  Atom        81          82          83          84          85          86          87          88          89          90
 IAtWgt=          12          12          12          12          14          12          12          12          12          12
 AtmWgt=  12.0000000  12.0000000  12.0000000  12.0000000  14.0030740  12.0000000  12.0000000  12.0000000  12.0000000  12.0000000
 NucSpn=           0           0           0           0           2           0           0           0           0           0
 AtZEff=  -0.0000000  -0.0000000  -0.0000000  -0.0000000  -0.0000000  -0.0000000  -0.0000000  -0.0000000  -0.0000000  -0.0000000
 NQMom=    0.0000000   0.0000000   0.0000000   0.0000000   2.0440000   0.0000000   0.0000000   0.0000000   0.0000000   0.0000000
 NMagM=    0.0000000   0.0000000   0.0000000   0.0000000   0.4037610   0.0000000   0.0000000   0.0000000   0.0000000   0.0000000
 AtZNuc=   6.0000000   6.0000000   6.0000000   6.0000000   7.0000000   6.0000000   6.0000000   6.0000000   6.0000000   6.0000000

  Atom        91          92          93          94          95          96          97          98          99         100
 IAtWgt=          12          12           1          14          12          12          12          12          12          12
 AtmWgt=  12.0000000  12.0000000   1.0078250  14.0030740  12.0000000  12.0000000  12.0000000  12.0000000  12.0000000  12.0000000
 NucSpn=           0           0           1           2           0           0           0           0           0           0
 AtZEff=  -0.0000000  -0.0000000  -0.0000000  -0.0000000  -0.0000000  -0.0000000  -0.0000000  -0.0000000  -0.0000000  -0.0000000
 NQMom=    0.0000000   0.0000000   0.0000000   2.0440000   0.0000000   0.0000000   0.0000000   0.0000000   0.0000000   0.0000000
 NMagM=    0.0000000   0.0000000   2.7928460   0.4037610   0.0000000   0.0000000   0.0000000   0.0000000   0.0000000   0.0000000
 AtZNuc=   6.0000000   6.0000000   1.0000000   7.0000000   6.0000000   6.0000000   6.0000000   6.0000000   6.0000000   6.0000000

  Atom       101         102         103         104         105         106         107         108         109         110
 IAtWgt=          16          12          14          12          12          12          12          12          12          12
 AtmWgt=  15.9949146  12.0000000  14.0030740  12.0000000  12.0000000  12.0000000  12.0000000  12.0000000  12.0000000  12.0000000
 NucSpn=           0           0           2           0           0           0           0           0           0           0
 AtZEff=  -0.0000000  -0.0000000  -0.0000000  -0.0000000  -0.0000000  -0.0000000  -0.0000000  -0.0000000  -0.0000000  -0.0000000
 NQMom=    0.0000000   0.0000000   2.0440000   0.0000000   0.0000000   0.0000000   0.0000000   0.0000000   0.0000000   0.0000000
 NMagM=    0.0000000   0.0000000   0.4037610   0.0000000   0.0000000   0.0000000   0.0000000   0.0000000   0.0000000   0.0000000
 AtZNuc=   8.0000000   6.0000000   7.0000000   6.0000000   6.0000000   6.0000000   6.0000000   6.0000000   6.0000000   6.0000000

  Atom       111         112         113         114         115         116         117         118         119         120
 IAtWgt=          14          12          12          12          12          12          12          16          12          12
 AtmWgt=  14.0030740  12.0000000  12.0000000  12.0000000  12.0000000  12.0000000  12.0000000  15.9949146  12.0000000  12.0000000
 NucSpn=           2           0           0           0           0           0           0           0           0           0
 AtZEff=  -0.0000000  -0.0000000  -0.0000000  -0.0000000  -0.0000000  -0.0000000  -0.0000000  -0.0000000  -0.0000000  -0.0000000
 NQMom=    2.0440000   0.0000000   0.0000000   0.0000000   0.0000000   0.0000000   0.0000000   0.0000000   0.0000000   0.0000000
 NMagM=    0.4037610   0.0000000   0.0000000   0.0000000   0.0000000   0.0000000   0.0000000   0.0000000   0.0000000   0.0000000
 AtZNuc=   7.0000000   6.0000000   6.0000000   6.0000000   6.0000000   6.0000000   6.0000000   8.0000000   6.0000000   6.0000000

  Atom       121         122         123         124         125         126         127         128         129         130
 IAtWgt=          16          16          12           1           1           1           1           1           1           1
 AtmWgt=  15.9949146  15.9949146  12.0000000   1.0078250   1.0078250   1.0078250   1.0078250   1.0078250   1.0078250   1.0078250
 NucSpn=           0           0           0           1           1           1           1           1           1           1
 AtZEff=  -0.0000000  -0.0000000  -0.0000000  -0.0000000  -0.0000000  -0.0000000  -0.0000000  -0.0000000  -0.0000000  -0.0000000
 NQMom=    0.0000000   0.0000000   0.0000000   0.0000000   0.0000000   0.0000000   0.0000000   0.0000000   0.0000000   0.0000000
 NMagM=    0.0000000   0.0000000   0.0000000   2.7928460   2.7928460   2.7928460   2.7928460   2.7928460   2.7928460   2.7928460
 AtZNuc=   8.0000000   8.0000000   6.0000000   1.0000000   1.0000000   1.0000000   1.0000000   1.0000000   1.0000000   1.0000000

  Atom       131         132         133         134         135         136         137         138         139         140
 IAtWgt=           1           1           1           1           1           1           1           1           1           1
 AtmWgt=   1.0078250   1.0078250   1.0078250   1.0078250   1.0078250   1.0078250   1.0078250   1.0078250   1.0078250   1.0078250
 NucSpn=           1           1           1           1           1           1           1           1           1           1
 AtZEff=  -0.0000000  -0.0000000  -0.0000000  -0.0000000  -0.0000000  -0.0000000  -0.0000000  -0.0000000  -0.0000000  -0.0000000
 NQMom=    0.0000000   0.0000000   0.0000000   0.0000000   0.0000000   0.0000000   0.0000000   0.0000000   0.0000000   0.0000000
 NMagM=    2.7928460   2.7928460   2.7928460   2.7928460   2.7928460   2.7928460   2.7928460   2.7928460   2.7928460   2.7928460
 AtZNuc=   1.0000000   1.0000000   1.0000000   1.0000000   1.0000000   1.0000000   1.0000000   1.0000000   1.0000000   1.0000000

  Atom       141         142         143         144         145         146         147         148         149         150
 IAtWgt=           1           1           1           1           1           1           1           1           1           1
 AtmWgt=   1.0078250   1.0078250   1.0078250   1.0078250   1.0078250   1.0078250   1.0078250   1.0078250   1.0078250   1.0078250
 NucSpn=           1           1           1           1           1           1           1           1           1           1
 AtZEff=  -0.0000000  -0.0000000  -0.0000000  -0.0000000  -0.0000000  -0.0000000  -0.0000000  -0.0000000  -0.0000000  -0.0000000
 NQMom=    0.0000000   0.0000000   0.0000000   0.0000000   0.0000000   0.0000000   0.0000000   0.0000000   0.0000000   0.0000000
 NMagM=    2.7928460   2.7928460   2.7928460   2.7928460   2.7928460   2.7928460   2.7928460   2.7928460   2.7928460   2.7928460
 AtZNuc=   1.0000000   1.0000000   1.0000000   1.0000000   1.0000000   1.0000000   1.0000000   1.0000000   1.0000000   1.0000000

  Atom       151         152         153         154         155         156         157         158
 IAtWgt=           1           1           1           1           1           1           1           1
 AtmWgt=   1.0078250   1.0078250   1.0078250   1.0078250   1.0078250   1.0078250   1.0078250   1.0078250
 NucSpn=           1           1           1           1           1           1           1           1
 AtZEff=  -0.0000000  -0.0000000  -0.0000000  -0.0000000  -0.0000000  -0.0000000  -0.0000000  -0.0000000
 NQMom=    0.0000000   0.0000000   0.0000000   0.0000000   0.0000000   0.0000000   0.0000000   0.0000000
 NMagM=    2.7928460   2.7928460   2.7928460   2.7928460   2.7928460   2.7928460   2.7928460   2.7928460
 AtZNuc=   1.0000000   1.0000000   1.0000000   1.0000000   1.0000000   1.0000000   1.0000000   1.0000000
 Leave Link  101 at Wed Sep  8 19:08:02 2021, MaxMem= 23488102400 cpu:               3.3 elap:               0.2
 (Enter /sw/apps/gaussian-16.0/g16/l202.exe)
 Stoichiometry    C68H72Mg2N8O8
 Framework group  C1[X(C68H72Mg2N8O8)]
 Deg. of freedom   468
 Full point group                 C1      NOp   1
 Largest Abelian subgroup         C1      NOp   1
 Largest concise Abelian subgroup C1      NOp   1
                         Standard orientation:                         
 ---------------------------------------------------------------------
 Center     Atomic      Atomic             Coordinates (Angstroms)
 Number     Number       Type             X           Y           Z
 ---------------------------------------------------------------------
      1         12           0        3.771701   -0.611042    0.660091
      2          6           0        4.499606    2.238609   -1.379973
      3          6           0        4.768054    1.243269    3.345586
      4          6           0        3.570328   -3.244392    2.415522
      5          6           0        3.926477   -2.540582   -2.237939
      6          7           0        4.516548    1.466417    0.833337
      7          6           0        4.692220    2.473259   -0.016710
      8          6           0        5.027408    3.823160    0.685279
      9          6           0        5.630278    3.255480    2.047734
     10          6           0        4.902723    1.923578    2.098960
     11          6           0        7.131594    2.993049    1.987048
     12          6           0        3.750872    4.692786    0.942062
     13          6           0        4.019764    6.151884    1.321643
     14          1           0        3.105133    7.179050    0.846535
     15          7           0        3.647331   -0.838873    2.618528
     16          6           0        4.090063    0.024462    3.564006
     17          6           0        3.765625   -0.596003    4.866482
     18          6           0        3.269926   -1.975384    4.602503
     19          6           0        3.503764   -2.085434    3.185257
     20          6           0        3.889087    0.123799    6.174301
     21          6           0        2.688932   -3.031201    5.488973
     22          8           0        2.539453   -4.239724    5.099483
     23          6           0        2.377258   -2.628930    6.872476
     24          7           0        3.966982   -2.639065    0.205535
     25          6           0        3.774356   -3.577179    1.139249
     26          6           0        3.686591   -4.944731    0.529300
     27          6           0        3.616565   -4.720652   -1.050142
     28          6           0        3.767064   -3.179578   -1.076759
     29          6           0        4.842229   -5.899788    0.858508
     30          6           0        2.418794   -5.357796   -1.798348
     31          6           0        1.134057   -4.674793   -1.385970
     32          7           0        3.967912   -0.229145   -1.467513
     33          6           0        4.032708   -1.183548   -2.492984
     34          6           0        4.273941   -0.451411   -3.749904
     35          6           0        4.349731    0.885290   -3.363470
     36          6           0        4.193573    0.979570   -1.951019
     37          6           0        4.451385   -1.036896   -5.034488
     38          6           0        4.550885    2.253545   -3.812104
     39          8           0        4.641890    2.801009   -4.911874
     40          6           0        4.777573    3.172535   -2.531520
     41          6           0        3.899730    4.385103   -2.681116
     42          8           0        2.656468    4.283160   -2.645417
     43          8           0        4.653988    5.492213   -2.604023
     44          6           0        3.840235    6.732181   -2.715559
     45          1           0        5.275808    1.645971    4.224197
     46          1           0        3.394575   -4.169396    2.968618
     47          1           0        3.902104   -3.068059   -3.193254
     48          1           0        5.773975    4.429342    0.171853
     49          1           0        5.353584    3.871554    2.903079
     50          1           0        7.517275    3.117853    0.975319
     51          1           0        7.260635    1.962770    2.319262
     52          1           0        7.662364    3.610423    2.712243
     53          1           0        3.260709    4.351221    1.853728
     54          1           0        3.083082    4.661599    0.080430
     55          1           0        5.052280    6.434023    1.113757
     56          1           0        3.925734    6.246243    2.403519
     57          1           0        4.434374    1.060534    6.065966
     58          1           0        4.523901   -0.487445    6.815472
     59          1           0        2.921155    0.275373    6.652282
     60          1           0        3.286804   -2.274172    7.357677
     61          1           0        1.887813   -3.486873    7.332070
     62          1           0        1.692219   -1.780954    6.847806
     63          1           0        2.785760   -5.461990    0.856980
     64          1           0        4.492617   -5.122796   -1.559540
     65          1           0        4.520520   -6.833678    1.320090
     66          1           0        5.545976   -5.369051    1.499093
     67          1           0        5.475172   -6.160748    0.010746
     68          1           0        2.322199   -6.409996   -1.532847
     69          1           0        2.506949   -5.296205   -2.883100
     70          1           0        0.869329   -5.190619   -0.463650
     71          1           0        0.366248   -4.817220   -2.147150
     72          1           0        1.302559   -3.627008   -1.136493
     73          1           0        3.871001   -0.429846   -5.729192
     74          1           0        4.121734   -2.075558   -5.045209
     75          1           0        5.530445   -0.940030   -5.153241
     76          1           0        5.835536    3.432502   -2.515562
     77          1           0        4.253840    7.314561   -3.538965
     78          1           0        3.834162    7.188920   -1.725732
     79          1           0        2.810385    6.604358   -3.050835
     80         12           0       -4.065625    0.502090    0.214936
     81          6           0       -3.519465   -1.664670   -2.593249
     82          6           0       -4.588639   -2.301394    2.086179
     83          6           0       -4.991953    2.384204    2.595480
     84          6           0       -4.627170    3.080982   -2.060955
     85          7           0       -4.030308   -1.648632   -0.300259
     86          6           0       -3.750415   -2.355038   -1.385147
     87          6           0       -3.636970   -3.884466   -1.145283
     88          6           0       -4.540768   -3.988007    0.178092
     89          6           0       -4.352198   -2.570430    0.714389
     90          6           0       -6.017237   -4.194889   -0.116148
     91          6           0       -2.160510   -4.338348   -0.869480
     92          6           0       -1.929873   -5.849814   -0.932957
     93          1           0       -0.659355   -6.338424   -1.461672
     94          7           0       -4.218339    0.133158    2.158935
     95          6           0       -4.405925   -1.066877    2.747168
     96          6           0       -4.470909   -0.800676    4.192531
     97          6           0       -4.471375    0.673196    4.398489
     98          6           0       -4.584026    1.130814    3.028103
     99          6           0       -4.444893   -1.892046    5.222909
    100          6           0       -4.397261    1.528985    5.626639
    101          8           0       -4.653210    2.784337    5.589026
    102          6           0       -4.107562    0.837262    6.891180
    103          7           0       -4.922123    2.395859    0.263666
    104          6           0       -5.177369    3.009294    1.432636
    105          6           0       -5.532465    4.461616    1.220404
    106          6           0       -5.225664    4.758113   -0.320880
    107          6           0       -4.812637    3.340532   -0.773941
    108          6           0       -6.978274    4.845672    1.534280
    109          6           0       -4.269579    5.941784   -0.633102
    110          6           0       -2.872618    5.616697   -0.155388
    111          7           0       -3.899211    0.752011   -1.924662
    112          6           0       -4.208945    1.907416   -2.675125
    113          6           0       -4.045947    1.557065   -4.101003
    114          6           0       -3.672033    0.204915   -4.081980
    115          6           0       -3.626236   -0.260468   -2.740042
    116          6           0       -4.285579    2.424914   -5.203515
    117          6           0       -3.315990   -0.937416   -4.892536
    118          8           0       -3.103722   -1.120217   -6.090558
    119          6           0       -3.324293   -2.232835   -3.971548
    120          6           0       -2.059581   -3.001618   -4.239857
    121          8           0       -0.952124   -2.520067   -3.942757
    122          8           0       -2.376086   -4.258992   -4.599290
    123          6           0       -1.154207   -5.064031   -4.865277
    124          1           0       -4.992711   -3.099715    2.709309
    125          1           0       -5.216043    3.105561    3.384718
    126          1           0       -4.688458    3.856352   -2.827573
    127          1           0       -4.057177   -4.499996   -1.931611
    128          1           0       -4.136912   -4.716647    0.876196
    129          1           0       -6.232064   -4.119713   -1.171769
    130          1           0       -6.537748   -3.420507    0.431966
    131          1           0       -6.356671   -5.144294    0.307810
    132          1           0       -1.921085   -4.155919    0.186048
    133          1           0       -1.478939   -3.840684   -1.531607
    134          1           0       -2.769588   -6.375510   -1.403563
    135          1           0       -1.906979   -6.240503    0.087260
    136          1           0       -4.609627   -2.877291    4.769535
    137          1           0       -5.315867   -1.741737    5.869957
    138          1           0       -3.541361   -1.871052    5.835978
    139          1           0       -4.869309    0.082810    7.072866
    140          1           0       -4.006425    1.625982    7.639213
    141          1           0       -3.155423    0.304792    6.788528
    142          1           0       -4.912006    5.104842    1.832271
    143          1           0       -6.140182    5.011737   -0.876903
    144          1           0       -7.062036    5.653340    2.285765
    145          1           0       -7.501969    3.959790    1.868190
    146          1           0       -7.571079    5.154343    0.674913
    147          1           0       -4.583493    6.835883   -0.088856
    148          1           0       -4.233378    6.201679   -1.685790
    149          1           0       -2.908052    5.877446    0.906615
    150          1           0       -2.136867    6.218357   -0.685208
    151          1           0       -2.673529    4.540919   -0.224205
    152          1           0       -3.469092    2.278628   -5.898095
    153          1           0       -4.356121    3.462738   -4.884562
    154          1           0       -5.246172    2.036480   -5.552296
    155          1           0       -4.215117   -2.809011   -4.224626
    156          1           0       -1.251113   -5.466626   -5.878310
    157          1           0       -1.091478   -5.794444   -4.036839
    158          1           0       -0.211211   -4.534865   -4.937302
 ---------------------------------------------------------------------
 Rotational constants (GHZ):           0.0206028           0.0157141           0.0155541
 Leave Link  202 at Wed Sep  8 19:08:02 2021, MaxMem= 23488102400 cpu:               0.2 elap:               0.0
 (Enter /sw/apps/gaussian-16.0/g16/l301.exe)
 Standard basis: def2SVP (5D, 7F)
 Ernie: Thresh=  0.10000D-02 Tol=  0.10000D-05 Strict=F.
 There are  1658 symmetry adapted cartesian basis functions of A   symmetry.
 There are  1572 symmetry adapted basis functions of A   symmetry.
  1572 basis functions,  2678 primitive gaussians,  1658 cartesian basis functions
   312 alpha electrons      312 beta electrons
       nuclear repulsion energy     15940.9097570194 Hartrees.
 IExCor=20419 DFT=T Ex+Corr=CAM-B3LYP ExCW=0 ScaHFX=  1.000000
 ScaDFX=  1.000000  1.000000  1.000000  0.810000 ScalE2=  1.000000  1.000000
 IRadAn=      5 IRanWt=     -1 IRanGd=            0 ICorTp=0 IEmpDi=  4
 HFx  wShort=  0.000000 wLong=  0.330000 cFull=  0.190000 cShort=  0.000000 cLong=  0.460000
 DFx  wShort=  0.000000 wLong=  0.330000 cFull=  0.190000 cShort=  0.000000 cLong=  0.460000
 NAtoms=  158 NActive=  158 NUniq=  158 SFac= 1.00D+00 NAtFMM=   60 NAOKFM=T Big=T
 Integral buffers will be    131072 words long.
 Raffenetti 1 integral format.
 Two-electron integral symmetry is turned on.
 Leave Link  301 at Wed Sep  8 19:08:02 2021, MaxMem= 23488102400 cpu:               1.5 elap:               0.1
 (Enter /sw/apps/gaussian-16.0/g16/l302.exe)
 NPDir=0 NMtPBC=     1 NCelOv=     1 NCel=       1 NClECP=     1 NCelD=      1
         NCelK=      1 NCelE2=     1 NClLst=     1 CellRange=     0.0.
 One-electron integrals computed using PRISM.
 One-electron integral symmetry used in STVInt
   1 Symmetry operations used in ECPInt.
 ECPInt:  NShTT=  271216 NPrTT=  987664 LenC2=  163029 LenP2D=  340588.
 LDataN:  DoStor=T MaxTD1= 4 Len=   56
 NBasis=  1572 RedAO= T EigKep=  3.36D-04  NBF=  1572
 NBsUse=  1572 1.00D-06 EigRej= -1.00D+00 NBFU=  1572
 Precomputing XC quadrature grid using
 IXCGrd= 4 IRadAn=           5 IRanWt=          -1 IRanGd=           0 AccXCQ= 0.00D+00.
 Generated NRdTot=       0 NPtTot=           0 NUsed=           0 NTot=          32
 NSgBfM=  1226  1164  1186  1204  1226 MxSgAt=   158 MxSgA2=   158.
 Leave Link  302 at Wed Sep  8 19:08:08 2021, MaxMem= 23488102400 cpu:             130.2 elap:               5.4
 (Enter /sw/apps/gaussian-16.0/g16/l303.exe)
 DipDrv:  MaxL=1.
 Leave Link  303 at Wed Sep  8 19:08:08 2021, MaxMem= 23488102400 cpu:               9.4 elap:               0.4
 (Enter /sw/apps/gaussian-16.0/g16/l308.exe)
 Leave Link  308 at Wed Sep  8 19:08:09 2021, MaxMem= 23488102400 cpu:              16.5 elap:               0.8
 (Enter /sw/apps/gaussian-16.0/g16/l401.exe)
 ExpMin= 3.36D-02 ExpMax= 4.95D+03 ExpMxC= 7.45D+02 IAcc=3 IRadAn=         5 AccDes= 0.00D+00
 Harris functional with IExCor=20419 and IRadAn=       5 diagonalized for initial guess.
 HarFok:  IExCor=20419 AccDes= 0.00D+00 IRadAn=         5 IDoV= 1 UseB2=F ITyADJ=14
 ICtDFT=  3500011 ScaDFX=  1.000000  1.000000  1.000000  1.000000
 FoFCou: FMM=F IPFlag=           0 FMFlag=      100000 FMFlg1=        2001
         NFxFlg=           0 DoJE=T BraDBF=F KetDBF=T FulRan=T
         wScrn=  0.000000 ICntrl=       500 IOpCl=  0 I1Cent=   200000004 NGrid=           0
         NMat0=    1 NMatS0=      1 NMatT0=    0 NMatD0=    1 NMtDS0=    0 NMtDT0=    0
 Petite list used in FoFCou.
 Harris En= -3918.65032308227    
 JPrj=0 DoOrth=F DoCkMO=F.
 Leave Link  401 at Wed Sep  8 19:08:18 2021, MaxMem= 23488102400 cpu:             204.8 elap:               8.6
 (Enter /sw/apps/gaussian-16.0/g16/l502.exe)
 Integral symmetry usage will be decided dynamically.
 Closed shell SCF:
 Using DIIS extrapolation, IDIIS=  1040.
 NGot= 23488102400 LenX= 23482547354 LenY= 23479796732
 Requested convergence on RMS density matrix=1.00D-08 within 128 cycles.
 Requested convergence on MAX density matrix=1.00D-06.
 Requested convergence on             energy=1.00D-06.
 No special actions if energy rises.
 Fock matrices will be formed incrementally for  20 cycles.

 Cycle   1  Pass 1  IDiag  1:
 FoFJK:  IHMeth= 1 ICntrl=       0 DoSepK=T KAlg= 0 I1Cent=           0 FoldK=F
 IRaf=         1 NMat=       1 IRICut=       1 DoRegI=T DoRafI=F ISym2E= 0 IDoP0=0 IntGTp=1.
 FoFCou: FMM=T IPFlag=           0 FMFlag=      100000 FMFlg1=        2001
         NFxFlg=           0 DoJE=T BraDBF=F KetDBF=F FulRan=T
         wScrn=  0.000000 ICntrl=       500 IOpCl=  0 I1Cent=           0 NGrid=           0
         NMat0=    1 NMatS0=      1 NMatT0=    0 NMatD0=    1 NMtDS0=    0 NMtDT0=    0
 Symmetry not used in FoFCou.
 FMM levels:  10  Number of levels for PrismC:   9
 E= -4068.93987358252    
 DIIS: error= 1.86D-02 at cycle   1 NSaved=   1.
 NSaved= 1 IEnMin= 1 EnMin= -4068.93987358252     IErMin= 1 ErrMin= 1.86D-02
 ErrMax= 1.86D-02  0.00D+00 EMaxC= 1.00D-01 BMatC= 1.69D+00 BMatP= 1.69D+00
 IDIUse=3 WtCom= 8.14D-01 WtEn= 1.86D-01
 Coeff-Com:  0.100D+01
 Coeff-En:   0.100D+01
 Coeff:      0.100D+01
 Gap=     0.119 Goal=   None    Shift=    0.000
 GapD=    0.119 DampG=1.000 DampE=0.500 DampFc=0.5000 IDamp=-1.
 Damping current iteration by 5.00D-01
 RMSDP=1.58D-03 MaxDP=1.32D-01              OVMax= 2.29D-01

 Cycle   2  Pass 1  IDiag  1:
 RMSU=  7.76D-04    CP:  9.82D-01
 E= -4069.32776906524     Delta-E=       -0.387895482727 Rises=F Damp=T
 DIIS: error= 1.12D-02 at cycle   2 NSaved=   2.
 NSaved= 2 IEnMin= 2 EnMin= -4069.32776906524     IErMin= 2 ErrMin= 1.12D-02
 ErrMax= 1.12D-02  0.00D+00 EMaxC= 1.00D-01 BMatC= 3.08D-01 BMatP= 1.69D+00
 IDIUse=3 WtCom= 8.88D-01 WtEn= 1.12D-01
 Coeff-Com: -0.209D+00 0.121D+01
 Coeff-En:   0.000D+00 0.100D+01
 Coeff:     -0.185D+00 0.119D+01
 Gap=     0.138 Goal=   None    Shift=    0.000
 RMSDP=7.80D-04 MaxDP=9.30D-02 DE=-3.88D-01 OVMax= 2.02D-01

 Cycle   3  Pass 1  IDiag  1:
 RMSU=  7.52D-04    CP:  9.68D-01  1.22D+00
 E= -4069.60609774559     Delta-E=       -0.278328680342 Rises=F Damp=F
 DIIS: error= 1.61D-02 at cycle   3 NSaved=   3.
 NSaved= 3 IEnMin= 3 EnMin= -4069.60609774559     IErMin= 2 ErrMin= 1.12D-02
 ErrMax= 1.61D-02  0.00D+00 EMaxC= 1.00D-01 BMatC= 2.15D-01 BMatP= 3.08D-01
 IDIUse=3 WtCom= 8.39D-01 WtEn= 1.61D-01
 Coeff-Com: -0.270D+00 0.662D+00 0.608D+00
 Coeff-En:   0.000D+00 0.000D+00 0.100D+01
 Coeff:     -0.226D+00 0.555D+00 0.671D+00
 Gap=     0.124 Goal=   None    Shift=    0.000
 RMSDP=5.44D-04 MaxDP=4.81D-02 DE=-2.78D-01 OVMax= 1.85D-01

 Cycle   4  Pass 1  IDiag  1:
 RMSU=  2.80D-04    CP:  9.65D-01  1.55D+00  4.81D-01
 E= -4069.74984870038     Delta-E=       -0.143750954798 Rises=F Damp=F
 DIIS: error= 7.43D-03 at cycle   4 NSaved=   4.
 NSaved= 4 IEnMin= 4 EnMin= -4069.74984870038     IErMin= 4 ErrMin= 7.43D-03
 ErrMax= 7.43D-03  0.00D+00 EMaxC= 1.00D-01 BMatC= 5.74D-02 BMatP= 2.15D-01
 IDIUse=3 WtCom= 9.26D-01 WtEn= 7.43D-02
 Coeff-Com: -0.112D+00 0.234D+00 0.413D+00 0.465D+00
 Coeff-En:   0.000D+00 0.000D+00 0.241D+00 0.759D+00
 Coeff:     -0.104D+00 0.216D+00 0.400D+00 0.487D+00
 Gap=     0.122 Goal=   None    Shift=    0.000
 RMSDP=2.26D-04 MaxDP=2.13D-02 DE=-1.44D-01 OVMax= 9.03D-02

 Cycle   5  Pass 1  IDiag  1:
 RMSU=  8.76D-05    CP:  9.64D-01  1.48D+00  6.81D-01  5.20D-01
 E= -4069.80334831460     Delta-E=       -0.053499614220 Rises=F Damp=F
 DIIS: error= 7.52D-04 at cycle   5 NSaved=   5.
 NSaved= 5 IEnMin= 5 EnMin= -4069.80334831460     IErMin= 5 ErrMin= 7.52D-04
 ErrMax= 7.52D-04  0.00D+00 EMaxC= 1.00D-01 BMatC= 1.76D-03 BMatP= 5.74D-02
 IDIUse=3 WtCom= 9.92D-01 WtEn= 7.52D-03
 Coeff-Com: -0.419D-01 0.828D-01 0.187D+00 0.267D+00 0.505D+00
 Coeff-En:   0.000D+00 0.000D+00 0.000D+00 0.000D+00 0.100D+01
 Coeff:     -0.415D-01 0.822D-01 0.185D+00 0.265D+00 0.509D+00
 Gap=     0.121 Goal=   None    Shift=    0.000
 RMSDP=5.30D-05 MaxDP=4.84D-03 DE=-5.35D-02 OVMax= 2.77D-02

 Cycle   6  Pass 1  IDiag  1:
 RMSU=  3.58D-05    CP:  9.64D-01  1.49D+00  6.70D-01  6.07D-01  6.71D-01
 E= -4069.80506872385     Delta-E=       -0.001720409244 Rises=F Damp=F
 DIIS: error= 2.35D-04 at cycle   6 NSaved=   6.
 NSaved= 6 IEnMin= 6 EnMin= -4069.80506872385     IErMin= 6 ErrMin= 2.35D-04
 ErrMax= 2.35D-04  0.00D+00 EMaxC= 1.00D-01 BMatC= 2.40D-04 BMatP= 1.76D-03
 IDIUse=3 WtCom= 9.98D-01 WtEn= 2.35D-03
 Coeff-Com:  0.145D-02-0.525D-02 0.160D-01 0.460D-01 0.291D+00 0.651D+00
 Coeff-En:   0.000D+00 0.000D+00 0.000D+00 0.000D+00 0.111D+00 0.889D+00
 Coeff:      0.145D-02-0.524D-02 0.160D-01 0.459D-01 0.291D+00 0.651D+00
 Gap=     0.122 Goal=   None    Shift=    0.000
 RMSDP=1.94D-05 MaxDP=1.60D-03 DE=-1.72D-03 OVMax= 9.39D-03

 Cycle   7  Pass 1  IDiag  1:
 RMSU=  1.26D-05    CP:  9.64D-01  1.49D+00  6.76D-01  6.04D-01  7.92D-01
                    CP:  7.48D-01
 E= -4069.80534438487     Delta-E=       -0.000275661023 Rises=F Damp=F
 DIIS: error= 1.31D-04 at cycle   7 NSaved=   7.
 NSaved= 7 IEnMin= 7 EnMin= -4069.80534438487     IErMin= 7 ErrMin= 1.31D-04
 ErrMax= 1.31D-04  0.00D+00 EMaxC= 1.00D-01 BMatC= 3.47D-05 BMatP= 2.40D-04
 IDIUse=3 WtCom= 9.99D-01 WtEn= 1.31D-03
 Coeff-Com:  0.487D-02-0.108D-01-0.888D-02-0.248D-02 0.108D+00 0.356D+00
 Coeff-Com:  0.554D+00
 Coeff-En:   0.000D+00 0.000D+00 0.000D+00 0.000D+00 0.000D+00 0.000D+00
 Coeff-En:   0.100D+01
 Coeff:      0.486D-02-0.107D-01-0.887D-02-0.248D-02 0.107D+00 0.356D+00
 Coeff:      0.554D+00
 Gap=     0.122 Goal=   None    Shift=    0.000
 RMSDP=7.37D-06 MaxDP=1.13D-03 DE=-2.76D-04 OVMax= 3.63D-03

 Cycle   8  Pass 1  IDiag  1:
 RMSU=  5.26D-06    CP:  9.64D-01  1.49D+00  6.77D-01  6.10D-01  7.90D-01
                    CP:  8.63D-01  7.96D-01
 E= -4069.80538587351     Delta-E=       -0.000041488642 Rises=F Damp=F
 DIIS: error= 5.90D-05 at cycle   8 NSaved=   8.
 NSaved= 8 IEnMin= 8 EnMin= -4069.80538587351     IErMin= 8 ErrMin= 5.90D-05
 ErrMax= 5.90D-05  0.00D+00 EMaxC= 1.00D-01 BMatC= 5.29D-06 BMatP= 3.47D-05
 IDIUse=1 WtCom= 1.00D+00 WtEn= 0.00D+00
 Coeff-Com:  0.233D-02-0.465D-02-0.797D-02-0.118D-01-0.448D-02 0.354D-01
 Coeff-Com:  0.289D+00 0.702D+00
 Coeff:      0.233D-02-0.465D-02-0.797D-02-0.118D-01-0.448D-02 0.354D-01
 Coeff:      0.289D+00 0.702D+00
 Gap=     0.122 Goal=   None    Shift=    0.000
 RMSDP=3.62D-06 MaxDP=4.06D-04 DE=-4.15D-05 OVMax= 1.32D-03

 Cycle   9  Pass 1  IDiag  1:
 RMSU=  2.14D-06    CP:  9.64D-01  1.49D+00  6.78D-01  6.11D-01  8.05D-01
                    CP:  8.93D-01  9.75D-01  1.01D+00
 E= -4069.80539474857     Delta-E=       -0.000008875057 Rises=F Damp=F
 DIIS: error= 2.00D-05 at cycle   9 NSaved=   9.
 NSaved= 9 IEnMin= 9 EnMin= -4069.80539474857     IErMin= 9 ErrMin= 2.00D-05
 ErrMax= 2.00D-05  0.00D+00 EMaxC= 1.00D-01 BMatC= 9.73D-07 BMatP= 5.29D-06
 IDIUse=1 WtCom= 1.00D+00 WtEn= 0.00D+00
 Coeff-Com:  0.479D-03-0.782D-03-0.276D-02-0.612D-02-0.181D-01-0.448D-01
 Coeff-Com:  0.741D-01 0.359D+00 0.639D+00
 Coeff:      0.479D-03-0.782D-03-0.276D-02-0.612D-02-0.181D-01-0.448D-01
 Coeff:      0.741D-01 0.359D+00 0.639D+00
 Gap=     0.122 Goal=   None    Shift=    0.000
 RMSDP=1.63D-06 MaxDP=1.83D-04 DE=-8.88D-06 OVMax= 8.05D-04

 Cycle  10  Pass 1  IDiag  1:
 RMSU=  1.04D-06    CP:  9.64D-01  1.49D+00  6.78D-01  6.12D-01  8.09D-01
                    CP:  9.06D-01  1.02D+00  1.18D+00  1.07D+00
 E= -4069.80539693001     Delta-E=       -0.000002181441 Rises=F Damp=F
 DIIS: error= 9.47D-06 at cycle  10 NSaved=  10.
 NSaved=10 IEnMin=10 EnMin= -4069.80539693001     IErMin=10 ErrMin= 9.47D-06
 ErrMax= 9.47D-06  0.00D+00 EMaxC= 1.00D-01 BMatC= 2.02D-07 BMatP= 9.73D-07
 IDIUse=1 WtCom= 1.00D+00 WtEn= 0.00D+00
 Coeff-Com: -0.455D-03 0.960D-03 0.128D-02 0.101D-02-0.317D-02-0.325D-01
 Coeff-Com: -0.453D-01-0.651D-01 0.211D+00 0.933D+00
 Coeff:     -0.455D-03 0.960D-03 0.128D-02 0.101D-02-0.317D-02-0.325D-01
 Coeff:     -0.453D-01-0.651D-01 0.211D+00 0.933D+00
 Gap=     0.122 Goal=   None    Shift=    0.000
 RMSDP=1.40D-06 MaxDP=1.29D-04 DE=-2.18D-06 OVMax= 6.87D-04

 Cycle  11  Pass 1  IDiag  1:
 RMSU=  6.00D-07    CP:  9.64D-01  1.49D+00  6.78D-01  6.12D-01  8.11D-01
                    CP:  9.16D-01  1.07D+00  1.30D+00  1.41D+00  1.41D+00
 E= -4069.80539795164     Delta-E=       -0.000001021635 Rises=F Damp=F
 DIIS: error= 4.44D-06 at cycle  11 NSaved=  11.
 NSaved=11 IEnMin=11 EnMin= -4069.80539795164     IErMin=11 ErrMin= 4.44D-06
 ErrMax= 4.44D-06  0.00D+00 EMaxC= 1.00D-01 BMatC= 8.74D-08 BMatP= 2.02D-07
 IDIUse=1 WtCom= 1.00D+00 WtEn= 0.00D+00
 Coeff-Com: -0.358D-03 0.696D-03 0.143D-02 0.214D-02 0.441D-02-0.818D-02
 Coeff-Com: -0.390D-01-0.131D+00-0.625D-01 0.503D+00 0.730D+00
 Coeff:     -0.358D-03 0.696D-03 0.143D-02 0.214D-02 0.441D-02-0.818D-02
 Coeff:     -0.390D-01-0.131D+00-0.625D-01 0.503D+00 0.730D+00
 Gap=     0.122 Goal=   None    Shift=    0.000
 RMSDP=8.04D-07 MaxDP=8.68D-05 DE=-1.02D-06 OVMax= 4.20D-04

 Cycle  12  Pass 1  IDiag  1:
 RMSU=  3.00D-07    CP:  9.64D-01  1.49D+00  6.78D-01  6.12D-01  8.12D-01
                    CP:  9.18D-01  1.09D+00  1.37D+00  1.59D+00  1.82D+00
                    CP:  1.20D+00
 E= -4069.80539831165     Delta-E=       -0.000000360007 Rises=F Damp=F
 DIIS: error= 2.84D-06 at cycle  12 NSaved=  12.
 NSaved=12 IEnMin=12 EnMin= -4069.80539831165     IErMin=12 ErrMin= 2.84D-06
 ErrMax= 2.84D-06  0.00D+00 EMaxC= 1.00D-01 BMatC= 2.08D-08 BMatP= 8.74D-08
 IDIUse=1 WtCom= 1.00D+00 WtEn= 0.00D+00
 Coeff-Com: -0.876D-05-0.220D-05 0.235D-03 0.564D-03 0.362D-02 0.437D-02
 Coeff-Com:  0.211D-02-0.342D-01-0.812D-01-0.531D-01 0.245D+00 0.913D+00
 Coeff:     -0.876D-05-0.220D-05 0.235D-03 0.564D-03 0.362D-02 0.437D-02
 Coeff:      0.211D-02-0.342D-01-0.812D-01-0.531D-01 0.245D+00 0.913D+00
 Gap=     0.122 Goal=   None    Shift=    0.000
 RMSDP=5.06D-07 MaxDP=3.53D-05 DE=-3.60D-07 OVMax= 2.86D-04

 Cycle  13  Pass 1  IDiag  1:
 RMSU=  1.85D-07    CP:  9.64D-01  1.49D+00  6.78D-01  6.12D-01  8.12D-01
                    CP:  9.19D-01  1.09D+00  1.40D+00  1.70D+00  2.06D+00
                    CP:  1.61D+00  1.28D+00
 E= -4069.80539843444     Delta-E=       -0.000000122785 Rises=F Damp=F
 DIIS: error= 1.58D-06 at cycle  13 NSaved=  13.
 NSaved=13 IEnMin=13 EnMin= -4069.80539843444     IErMin=13 ErrMin= 1.58D-06
 ErrMax= 1.58D-06  0.00D+00 EMaxC= 1.00D-01 BMatC= 1.11D-08 BMatP= 2.08D-08
 IDIUse=1 WtCom= 1.00D+00 WtEn= 0.00D+00
 Coeff-Com:  0.127D-03-0.260D-03-0.381D-03-0.463D-03 0.826D-03 0.496D-02
 Coeff-Com:  0.175D-01 0.260D-01-0.281D-01-0.241D+00-0.178D+00 0.597D+00
 Coeff-Com:  0.802D+00
 Coeff:      0.127D-03-0.260D-03-0.381D-03-0.463D-03 0.826D-03 0.496D-02
 Coeff:      0.175D-01 0.260D-01-0.281D-01-0.241D+00-0.178D+00 0.597D+00
 Coeff:      0.802D+00
 Gap=     0.122 Goal=   None    Shift=    0.000
 RMSDP=3.99D-07 MaxDP=2.81D-05 DE=-1.23D-07 OVMax= 2.25D-04

 Cycle  14  Pass 1  IDiag  1:
 RMSU=  8.80D-08    CP:  9.64D-01  1.49D+00  6.78D-01  6.12D-01  8.12D-01
                    CP:  9.19D-01  1.10D+00  1.42D+00  1.78D+00  2.27D+00
                    CP:  1.87D+00  1.80D+00  1.10D+00
 E= -4069.80539848279     Delta-E=       -0.000000048352 Rises=F Damp=F
 DIIS: error= 7.87D-07 at cycle  14 NSaved=  14.
 NSaved=14 IEnMin=14 EnMin= -4069.80539848279     IErMin=14 ErrMin= 7.87D-07
 ErrMax= 7.87D-07  0.00D+00 EMaxC= 1.00D-01 BMatC= 1.65D-09 BMatP= 1.11D-08
 IDIUse=1 WtCom= 1.00D+00 WtEn= 0.00D+00
 Coeff-Com:  0.714D-04-0.141D-03-0.259D-03-0.397D-03-0.320D-03 0.113D-02
 Coeff-Com:  0.932D-02 0.208D-01 0.713D-02-0.103D+00-0.150D+00 0.988D-01
 Coeff-Com:  0.405D+00 0.713D+00
 Coeff:      0.714D-04-0.141D-03-0.259D-03-0.397D-03-0.320D-03 0.113D-02
 Coeff:      0.932D-02 0.208D-01 0.713D-02-0.103D+00-0.150D+00 0.988D-01
 Coeff:      0.405D+00 0.713D+00
 Gap=     0.122 Goal=   None    Shift=    0.000
 RMSDP=1.18D-07 MaxDP=7.72D-06 DE=-4.84D-08 OVMax= 6.57D-05

 Cycle  15  Pass 1  IDiag  1:
 RMSU=  4.24D-08    CP:  9.64D-01  1.49D+00  6.78D-01  6.12D-01  8.12D-01
                    CP:  9.19D-01  1.10D+00  1.43D+00  1.80D+00  2.31D+00
                    CP:  1.97D+00  1.94D+00  1.33D+00  1.02D+00
 E= -4069.80539848832     Delta-E=       -0.000000005526 Rises=F Damp=F
 DIIS: error= 4.32D-07 at cycle  15 NSaved=  15.
 NSaved=15 IEnMin=15 EnMin= -4069.80539848832     IErMin=15 ErrMin= 4.32D-07
 ErrMax= 4.32D-07  0.00D+00 EMaxC= 1.00D-01 BMatC= 3.09D-10 BMatP= 1.65D-09
 IDIUse=1 WtCom= 1.00D+00 WtEn= 0.00D+00
 Coeff-Com:  0.740D-05-0.128D-04-0.410D-04-0.959D-04-0.273D-03-0.618D-03
 Coeff-Com:  0.104D-02 0.332D-02 0.910D-02 0.100D-02-0.343D-01-0.683D-01
 Coeff-Com:  0.337D-01 0.321D+00 0.735D+00
 Coeff:      0.740D-05-0.128D-04-0.410D-04-0.959D-04-0.273D-03-0.618D-03
 Coeff:      0.104D-02 0.332D-02 0.910D-02 0.100D-02-0.343D-01-0.683D-01
 Coeff:      0.337D-01 0.321D+00 0.735D+00
 Gap=     0.122 Goal=   None    Shift=    0.000
 RMSDP=4.14D-08 MaxDP=2.92D-06 DE=-5.53D-09 OVMax= 2.77D-05

 Cycle  16  Pass 1  IDiag  1:
 RMSU=  2.12D-08    CP:  9.64D-01  1.49D+00  6.78D-01  6.12D-01  8.12D-01
                    CP:  9.19D-01  1.10D+00  1.43D+00  1.80D+00  2.32D+00
                    CP:  1.99D+00  1.99D+00  1.40D+00  1.22D+00  1.10D+00
 E= -4069.80539848905     Delta-E=       -0.000000000739 Rises=F Damp=F
 DIIS: error= 1.90D-07 at cycle  16 NSaved=  16.
 NSaved=16 IEnMin=16 EnMin= -4069.80539848905     IErMin=16 ErrMin= 1.90D-07
 ErrMax= 1.90D-07  0.00D+00 EMaxC= 1.00D-01 BMatC= 1.04D-10 BMatP= 3.09D-10
 IDIUse=1 WtCom= 1.00D+00 WtEn= 0.00D+00
 Coeff-Com: -0.133D-04 0.272D-04 0.416D-04 0.414D-04-0.508D-04-0.650D-03
 Coeff-Com: -0.152D-02-0.383D-02 0.335D-02 0.244D-01 0.170D-01-0.598D-01
 Coeff-Com: -0.752D-01-0.976D-02 0.389D+00 0.717D+00
 Coeff:     -0.133D-04 0.272D-04 0.416D-04 0.414D-04-0.508D-04-0.650D-03
 Coeff:     -0.152D-02-0.383D-02 0.335D-02 0.244D-01 0.170D-01-0.598D-01
 Coeff:     -0.752D-01-0.976D-02 0.389D+00 0.717D+00
 Gap=     0.122 Goal=   None    Shift=    0.000
 RMSDP=2.40D-08 MaxDP=1.74D-06 DE=-7.39D-10 OVMax= 1.34D-05

 Cycle  17  Pass 1  IDiag  1:
 RMSU=  1.20D-08    CP:  9.64D-01  1.49D+00  6.78D-01  6.12D-01  8.12D-01
                    CP:  9.19D-01  1.10D+00  1.43D+00  1.81D+00  2.33D+00
                    CP:  2.01D+00  2.01D+00  1.44D+00  1.30D+00  1.37D+00
                    CP:  1.15D+00
 E= -4069.80539848943     Delta-E=       -0.000000000378 Rises=F Damp=F
 DIIS: error= 9.79D-08 at cycle  17 NSaved=  17.
 NSaved=17 IEnMin=17 EnMin= -4069.80539848943     IErMin=17 ErrMin= 9.79D-08
 ErrMax= 9.79D-08  0.00D+00 EMaxC= 1.00D-01 BMatC= 2.41D-11 BMatP= 1.04D-10
 IDIUse=1 WtCom= 1.00D+00 WtEn= 0.00D+00
 Coeff-Com: -0.793D-05 0.156D-04 0.300D-04 0.414D-04 0.664D-04-0.159D-03
 Coeff-Com: -0.807D-03-0.284D-02-0.326D-03 0.111D-01 0.169D-01-0.103D-01
 Coeff-Com: -0.398D-01-0.918D-01-0.117D-01 0.316D+00 0.813D+00
 Coeff:     -0.793D-05 0.156D-04 0.300D-04 0.414D-04 0.664D-04-0.159D-03
 Coeff:     -0.807D-03-0.284D-02-0.326D-03 0.111D-01 0.169D-01-0.103D-01
 Coeff:     -0.398D-01-0.918D-01-0.117D-01 0.316D+00 0.813D+00
 Gap=     0.122 Goal=   None    Shift=    0.000
 RMSDP=1.40D-08 MaxDP=9.25D-07 DE=-3.78D-10 OVMax= 8.68D-06

 Cycle  18  Pass 1  IDiag  1:
 RMSU=  5.70D-09    CP:  9.64D-01  1.49D+00  6.78D-01  6.12D-01  8.12D-01
                    CP:  9.19D-01  1.10D+00  1.43D+00  1.81D+00  2.33D+00
                    CP:  2.01D+00  2.02D+00  1.46D+00  1.36D+00  1.52D+00
                    CP:  1.52D+00  1.31D+00
 E= -4069.80539848951     Delta-E=       -0.000000000073 Rises=F Damp=F
 DIIS: error= 6.94D-08 at cycle  18 NSaved=  18.
 NSaved=18 IEnMin=18 EnMin= -4069.80539848951     IErMin=18 ErrMin= 6.94D-08
 ErrMax= 6.94D-08  0.00D+00 EMaxC= 1.00D-01 BMatC= 9.08D-12 BMatP= 2.41D-11
 IDIUse=1 WtCom= 1.00D+00 WtEn= 0.00D+00
 Coeff-Com:  0.454D-06-0.127D-05 0.138D-05 0.625D-05 0.662D-04 0.142D-03
 Coeff-Com:  0.196D-03-0.233D-03-0.121D-02-0.350D-02 0.218D-02 0.152D-01
 Coeff-Com:  0.892D-02-0.442D-01-0.140D+00-0.105D+00 0.392D+00 0.876D+00
 Coeff:      0.454D-06-0.127D-05 0.138D-05 0.625D-05 0.662D-04 0.142D-03
 Coeff:      0.196D-03-0.233D-03-0.121D-02-0.350D-02 0.218D-02 0.152D-01
 Coeff:      0.892D-02-0.442D-01-0.140D+00-0.105D+00 0.392D+00 0.876D+00
 Gap=     0.122 Goal=   None    Shift=    0.000
 RMSDP=1.08D-08 MaxDP=7.88D-07 DE=-7.28D-11 OVMax= 6.17D-06

 Cycle  19  Pass 1  IDiag  1:
 RMSU=  3.30D-09    CP:  9.64D-01  1.49D+00  6.78D-01  6.12D-01  8.12D-01
                    CP:  9.19D-01  1.10D+00  1.43D+00  1.81D+00  2.33D+00
                    CP:  2.01D+00  2.03D+00  1.47D+00  1.39D+00  1.63D+00
                    CP:  1.76D+00  1.80D+00  1.21D+00
 E= -4069.80539848950     Delta-E=        0.000000000007 Rises=F Damp=F
 DIIS: error= 2.95D-08 at cycle  19 NSaved=  19.
 NSaved=19 IEnMin=18 EnMin= -4069.80539848951     IErMin=19 ErrMin= 2.95D-08
 ErrMax= 2.95D-08  0.00D+00 EMaxC= 1.00D-01 BMatC= 2.88D-12 BMatP= 9.08D-12
 IDIUse=1 WtCom= 1.00D+00 WtEn= 0.00D+00
 Coeff-Com:  0.310D-05-0.630D-05-0.990D-05-0.112D-04 0.241D-04 0.140D-03
 Coeff-Com:  0.439D-03 0.843D-03-0.569D-03-0.634D-02-0.479D-02 0.134D-01
 Coeff-Com:  0.213D-01 0.533D-02-0.857D-01-0.191D+00-0.475D-01 0.537D+00
 Coeff-Com:  0.757D+00
 Coeff:      0.310D-05-0.630D-05-0.990D-05-0.112D-04 0.241D-04 0.140D-03
 Coeff:      0.439D-03 0.843D-03-0.569D-03-0.634D-02-0.479D-02 0.134D-01
 Coeff:      0.213D-01 0.533D-02-0.857D-01-0.191D+00-0.475D-01 0.537D+00
 Coeff:      0.757D+00
 Gap=     0.122 Goal=   None    Shift=    0.000
 RMSDP=6.54D-09 MaxDP=3.90D-07 DE= 7.28D-12 OVMax= 3.80D-06

 SCF Done:  E(RCAM-B3LYP) =  -4069.80539849     A.U. after   19 cycles
            NFock= 19  Conv=0.65D-08     -V/T= 2.0102
 KE= 4.028845431558D+03 PE=-4.136383533713D+04 EE= 1.732427475007D+04
 Leave Link  502 at Wed Sep  8 19:20:41 2021, MaxMem= 23488102400 cpu:           17174.7 elap:             743.0
 (Enter /sw/apps/gaussian-16.0/g16/l801.exe)
 DoSCS=F DFT=T ScalE2(SS,OS)=  1.000000  1.000000
 ExpMin= 3.36D-02 ExpMax= 4.95D+03 ExpMxC= 7.45D+02 IAcc=3 IRadAn=         5 AccDes= 0.00D+00
 HarFok:  IExCor=  205 AccDes= 0.00D+00 IRadAn=         5 IDoV=-2 UseB2=F ITyADJ=14
 ICtDFT= 12500011 ScaDFX=  1.000000  1.000000  1.000000  1.000000
 GSVD:  LWork=       -9588 too small for GESVD, short by       45590 words or       45590 for optimal perf.
 Largest valence mixing into a core orbital is  2.03D-04
 Largest core mixing into a valence orbital is  5.21D-05
 Range of M.O.s used for correlation:    95  1572
 NBasis=  1572 NAE=   312 NBE=   312 NFC=    94 NFV=     0
 NROrb=   1478 NOA=   218 NOB=   218 NVA=  1260 NVB=  1260
 Leave Link  801 at Wed Sep  8 19:20:41 2021, MaxMem= 23488102400 cpu:               8.0 elap:               0.4
 (Enter /sw/apps/gaussian-16.0/g16/l914.exe)
 RHF ground state
 Two-electron integrals replicated using symmetry.
 MDV= 23488102400 DFT=T DoStab=F Mixed=T DoRPA=T DoScal=F NonHer=T
 Making orbital integer symmetry assigments:
 Orbital symmetries:
       Occupied  (A) (A) (A) (A) (A) (A) (A) (A) (A) (A) (A) (A)
                 (A) (A) (A) (A) (A) (A) (A) (A) (A) (A) (A) (A)
                 (A) (A) (A) (A) (A) (A) (A) (A) (A) (A) (A) (A)
                 (A) (A) (A) (A) (A) (A) (A) (A) (A) (A) (A) (A)
                 (A) (A) (A) (A) (A) (A) (A) (A) (A) (A) (A) (A)
                 (A) (A) (A) (A) (A) (A) (A) (A) (A) (A) (A) (A)
                 (A) (A) (A) (A) (A) (A) (A) (A) (A) (A) (A) (A)
                 (A) (A) (A) (A) (A) (A) (A) (A) (A) (A) (A) (A)
                 (A) (A) (A) (A) (A) (A) (A) (A) (A) (A) (A) (A)
                 (A) (A) (A) (A) (A) (A) (A) (A) (A) (A) (A) (A)
                 (A) (A) (A) (A) (A) (A) (A) (A) (A) (A) (A) (A)
                 (A) (A) (A) (A) (A) (A) (A) (A) (A) (A) (A) (A)
                 (A) (A) (A) (A) (A) (A) (A) (A) (A) (A) (A) (A)
                 (A) (A) (A) (A) (A) (A) (A) (A) (A) (A) (A) (A)
                 (A) (A) (A) (A) (A) (A) (A) (A) (A) (A) (A) (A)
                 (A) (A) (A) (A) (A) (A) (A) (A) (A) (A) (A) (A)
                 (A) (A) (A) (A) (A) (A) (A) (A) (A) (A) (A) (A)
                 (A) (A) (A) (A) (A) (A) (A) (A) (A) (A) (A) (A)
                 (A) (A) (A) (A) (A) (A) (A) (A) (A) (A) (A) (A)
                 (A) (A) (A) (A) (A) (A) (A) (A) (A) (A) (A) (A)
                 (A) (A) (A) (A) (A) (A) (A) (A) (A) (A) (A) (A)
                 (A) (A) (A) (A) (A) (A) (A) (A) (A) (A) (A) (A)
                 (A) (A) (A) (A) (A) (A) (A) (A) (A) (A) (A) (A)
                 (A) (A) (A) (A) (A) (A) (A) (A) (A) (A) (A) (A)
                 (A) (A) (A) (A) (A) (A) (A) (A) (A) (A) (A) (A)
                 (A) (A) (A) (A) (A) (A) (A) (A) (A) (A) (A) (A)
       Virtual   (A) (A) (A) (A) (A) (A) (A) (A) (A) (A) (A) (A)
                 (A) (A) (A) (A) (A) (A) (A) (A) (A) (A) (A) (A)
                 (A) (A) (A) (A) (A) (A) (A) (A) (A) (A) (A) (A)
                 (A) (A) (A) (A) (A) (A) (A) (A) (A) (A) (A) (A)
                 (A) (A) (A) (A) (A) (A) (A) (A) (A) (A) (A) (A)
                 (A) (A) (A) (A) (A) (A) (A) (A) (A) (A) (A) (A)
                 (A) (A) (A) (A) (A) (A) (A) (A) (A) (A) (A) (A)
                 (A) (A) (A) (A) (A) (A) (A) (A) (A) (A) (A) (A)
                 (A) (A) (A) (A) (A) (A) (A) (A) (A) (A) (A) (A)
                 (A) (A) (A) (A) (A) (A) (A) (A) (A) (A) (A) (A)
                 (A) (A) (A) (A) (A) (A) (A) (A) (A) (A) (A) (A)
                 (A) (A) (A) (A) (A) (A) (A) (A) (A) (A) (A) (A)
                 (A) (A) (A) (A) (A) (A) (A) (A) (A) (A) (A) (A)
                 (A) (A) (A) (A) (A) (A) (A) (A) (A) (A) (A) (A)
                 (A) (A) (A) (A) (A) (A) (A) (A) (A) (A) (A) (A)
                 (A) (A) (A) (A) (A) (A) (A) (A) (A) (A) (A) (A)
                 (A) (A) (A) (A) (A) (A) (A) (A) (A) (A) (A) (A)
                 (A) (A) (A) (A) (A) (A) (A) (A) (A) (A) (A) (A)
                 (A) (A) (A) (A) (A) (A) (A) (A) (A) (A) (A) (A)
                 (A) (A) (A) (A) (A) (A) (A) (A) (A) (A) (A) (A)
                 (A) (A) (A) (A) (A) (A) (A) (A) (A) (A) (A) (A)
                 (A) (A) (A) (A) (A) (A) (A) (A) (A) (A) (A) (A)
                 (A) (A) (A) (A) (A) (A) (A) (A) (A) (A) (A) (A)
                 (A) (A) (A) (A) (A) (A) (A) (A) (A) (A) (A) (A)
                 (A) (A) (A) (A) (A) (A) (A) (A) (A) (A) (A) (A)
                 (A) (A) (A) (A) (A) (A) (A) (A) (A) (A) (A) (A)
                 (A) (A) (A) (A) (A) (A) (A) (A) (A) (A) (A) (A)
                 (A) (A) (A) (A) (A) (A) (A) (A) (A) (A) (A) (A)
                 (A) (A) (A) (A) (A) (A) (A) (A) (A) (A) (A) (A)
                 (A) (A) (A) (A) (A) (A) (A) (A) (A) (A) (A) (A)
                 (A) (A) (A) (A) (A) (A) (A) (A) (A) (A) (A) (A)
                 (A) (A) (A) (A) (A) (A) (A) (A) (A) (A) (A) (A)
                 (A) (A) (A) (A) (A) (A) (A) (A) (A) (A) (A) (A)
                 (A) (A) (A) (A) (A) (A) (A) (A) (A) (A) (A) (A)
                 (A) (A) (A) (A) (A) (A) (A) (A) (A) (A) (A) (A)
                 (A) (A) (A) (A) (A) (A) (A) (A) (A) (A) (A) (A)
                 (A) (A) (A) (A) (A) (A) (A) (A) (A) (A) (A) (A)
                 (A) (A) (A) (A) (A) (A) (A) (A) (A) (A) (A) (A)
                 (A) (A) (A) (A) (A) (A) (A) (A) (A) (A) (A) (A)
                 (A) (A) (A) (A) (A) (A) (A) (A) (A) (A) (A) (A)
                 (A) (A) (A) (A) (A) (A) (A) (A) (A) (A) (A) (A)
                 (A) (A) (A) (A) (A) (A) (A) (A) (A) (A) (A) (A)
                 (A) (A) (A) (A) (A) (A) (A) (A) (A) (A) (A) (A)
                 (A) (A) (A) (A) (A) (A) (A) (A) (A) (A) (A) (A)
                 (A) (A) (A) (A) (A) (A) (A) (A) (A) (A) (A) (A)
                 (A) (A) (A) (A) (A) (A) (A) (A) (A) (A) (A) (A)
                 (A) (A) (A) (A) (A) (A) (A) (A) (A) (A) (A) (A)
                 (A) (A) (A) (A) (A) (A) (A) (A) (A) (A) (A) (A)
                 (A) (A) (A) (A) (A) (A) (A) (A) (A) (A) (A) (A)
                 (A) (A) (A) (A) (A) (A) (A) (A) (A) (A) (A) (A)
                 (A) (A) (A) (A) (A) (A) (A) (A) (A) (A) (A) (A)
                 (A) (A) (A) (A) (A) (A) (A) (A) (A) (A) (A) (A)
                 (A) (A) (A) (A) (A) (A) (A) (A) (A) (A) (A) (A)
                 (A) (A) (A) (A) (A) (A) (A) (A) (A) (A) (A) (A)
                 (A) (A) (A) (A) (A) (A) (A) (A) (A) (A) (A) (A)
                 (A) (A) (A) (A) (A) (A) (A) (A) (A) (A) (A) (A)
                 (A) (A) (A) (A) (A) (A) (A) (A) (A) (A) (A) (A)
                 (A) (A) (A) (A) (A) (A) (A) (A) (A) (A) (A) (A)
                 (A) (A) (A) (A) (A) (A) (A) (A) (A) (A) (A) (A)
                 (A) (A) (A) (A) (A) (A) (A) (A) (A) (A) (A) (A)
                 (A) (A) (A) (A) (A) (A) (A) (A) (A) (A) (A) (A)
                 (A) (A) (A) (A) (A) (A) (A) (A) (A) (A) (A) (A)
                 (A) (A) (A) (A) (A) (A) (A) (A) (A) (A) (A) (A)
                 (A) (A) (A) (A) (A) (A) (A) (A) (A) (A) (A) (A)
                 (A) (A) (A) (A) (A) (A) (A) (A) (A) (A) (A) (A)
                 (A) (A) (A) (A) (A) (A) (A) (A) (A) (A) (A) (A)
                 (A) (A) (A) (A) (A) (A) (A) (A) (A) (A) (A) (A)
                 (A) (A) (A) (A) (A) (A) (A) (A) (A) (A) (A) (A)
                 (A) (A) (A) (A) (A) (A) (A) (A) (A) (A) (A) (A)
                 (A) (A) (A) (A) (A) (A) (A) (A) (A) (A) (A) (A)
                 (A) (A) (A) (A) (A) (A) (A) (A) (A) (A) (A) (A)
                 (A) (A) (A) (A) (A) (A) (A) (A) (A) (A) (A) (A)
                 (A) (A) (A) (A) (A) (A) (A) (A) (A) (A) (A) (A)
                 (A) (A) (A) (A) (A) (A) (A) (A) (A) (A) (A) (A)
                 (A) (A) (A) (A) (A) (A) (A) (A) (A) (A) (A) (A)
                 (A) (A) (A) (A) (A) (A) (A) (A) (A) (A) (A) (A)
                 (A) (A) (A) (A) (A) (A) (A) (A) (A) (A) (A) (A)
                 (A) (A) (A) (A) (A) (A) (A) (A) (A) (A) (A) (A)
                 (A) (A) (A) (A) (A) (A) (A) (A) (A) (A) (A) (A)
                 (A) (A) (A) (A) (A) (A) (A) (A) (A) (A) (A) (A)
                 (A) (A) (A) (A) (A) (A) (A) (A) (A) (A) (A) (A)
                 (A) (A) (A) (A) (A) (A) (A) (A) (A) (A) (A) (A)
                 (A) (A) (A) (A) (A) (A) (A) (A) (A) (A) (A) (A)
                 (A) (A) (A) (A) (A) (A) (A) (A) (A) (A) (A) (A)
                 (A) (A) (A) (A) (A) (A) (A) (A) (A) (A) (A) (A)
                 (A) (A) (A) (A) (A) (A) (A) (A) (A) (A) (A) (A)
                 (A) (A) (A) (A) (A) (A) (A) (A) (A) (A) (A) (A)
                 (A) (A) (A) (A) (A) (A) (A) (A) (A) (A) (A) (A)
                 (A) (A) (A) (A) (A) (A) (A) (A) (A) (A) (A) (A)
                 (A) (A) (A) (A) (A) (A) (A) (A) (A) (A) (A) (A)
                 (A) (A) (A) (A) (A) (A) (A) (A) (A) (A) (A) (A)
                 (A) (A) (A) (A) (A) (A) (A) (A) (A) (A) (A) (A)
                 (A) (A) (A) (A) (A) (A) (A) (A) (A) (A) (A) (A)
                 (A) (A) (A) (A) (A) (A) (A) (A) (A) (A) (A) (A)
                 (A) (A) (A) (A) (A) (A) (A) (A) (A) (A) (A) (A)
                 (A) (A) (A) (A) (A) (A) (A) (A) (A) (A) (A) (A)
                 (A) (A) (A) (A) (A) (A) (A) (A) (A) (A) (A) (A)
                 (A) (A) (A) (A) (A) (A) (A) (A) (A) (A) (A) (A)
                 (A) (A) (A) (A) (A) (A) (A) (A) (A) (A) (A) (A)
                 (A) (A) (A) (A) (A) (A) (A) (A) (A) (A) (A) (A)
                 (A) (A) (A) (A) (A) (A) (A) (A) (A) (A) (A) (A)
                 (A) (A) (A) (A) (A) (A) (A) (A) (A) (A) (A) (A)
                 (A) (A) (A) (A) (A) (A) (A) (A) (A) (A) (A) (A)
                 (A) (A) (A) (A) (A) (A) (A) (A) (A) (A) (A) (A)
                 (A) (A) (A) (A) (A) (A) (A) (A) (A) (A) (A) (A)
    20 initial guesses have been made.
 Convergence on wavefunction:    0.001000000000000
 Davidson Disk Diagonalization:  ConvIn= 1.00D-03 SkipCon=T Conv= 1.00D-03.
 Max sub-space:  2000 roots to seek:    20 dimension of matrix:       549360
 Iteration     1 Dimension    20 NMult     0 NNew     20
 CISAX will form    20 AO SS matrices at one time.
 NMat=    20 NSing=    20 JSym2X= 0.
 FoFJK:  IHMeth= 1 ICntrl=       0 DoSepK=T KAlg= 0 I1Cent=           0 FoldK=F
 IRaf=         1 NMat=      40 IRICut=       1 DoRegI=T DoRafI=F ISym2E= 0 IDoP0=3 IntGTp=3.
 FoFCou: FMM=T IPFlag=           0 FMFlag=      100000 FMFlg1=        2001
         NFxFlg=           0 DoJE=F BraDBF=F KetDBF=F FulRan=T
         wScrn=  0.000000 ICntrl=       500 IOpCl=  0 I1Cent=           0 NGrid=           0
         NMat0=   20 NMatS0=     20 NMatT0=    0 NMatD0=   20 NMtDS0=    0 NMtDT0=    0
 Symmetry not used in FoFCou.
 FMM levels:  10  Number of levels for PrismC:   9
 New state      2 was old state      4
 New state      3 was old state      2
 New state      4 was old state      7
 New state      5 was old state      6
 Excitation Energies [eV] at current iteration:
 Root      1 :     2.363105954645840
 Root      2 :     2.411857032203297
 Root      3 :     2.584214023114677
 Root      4 :     2.612862018948462
 Root      5 :     2.632631519450678
 Root      6 :     2.769240184021362
 Root      7 :     3.160500171399638
 Root      8 :     3.197217606413811
 Root      9 :     3.620566974168342
 Root     10 :     3.650718665556237
 Root     11 :     3.743048255041008
 Root     12 :     3.770963418175389
 Root     13 :     4.233901709845743
 Root     14 :     4.303139885425057
 Root     15 :     4.303571060845998
 Root     16 :     4.357639933036211
 Root     17 :     4.576953346570940
 Root     18 :     4.606213852991663
 Root     19 :     4.624799093496201
 Root     20 :     4.650501120021879
 Iteration     2 Dimension    30 NMult    20 NNew     10
 CISAX will form    10 AO SS matrices at one time.
 NMat=    10 NSing=    10 JSym2X= 0.
 New state      1 was old state      3
 Root      1 not converged, maximum delta is    0.207432885526226
 New state      2 was old state      4
 Root      2 not converged, maximum delta is    0.065092347722752
 New state      3 was old state      5
 Root      3 not converged, maximum delta is    0.165669411511738
 New state      4 was old state      1
 Root      4 not converged, maximum delta is    0.003962424643151
 New state      5 was old state      2
 Root      5 not converged, maximum delta is    0.007563385928728
 Excitation Energies [eV] at current iteration:
 Root      1 :     1.756543150248137   Change is   -0.827670872866540
 Root      2 :     2.227574357279650   Change is   -0.385287661668812
 Root      3 :     2.243169616106422   Change is   -0.389461903344256
 Root      4 :     2.361779488897354   Change is   -0.001326465748486
 Root      5 :     2.410371400237181   Change is   -0.001485631966116
 Iteration     3 Dimension    40 NMult    30 NNew     10
 CISAX will form    10 AO SS matrices at one time.
 NMat=    10 NSing=    10 JSym2X= 0.
 Root      1 not converged, maximum delta is    0.043033931875596
 No map to state      2
 New state      3 was old state      2
 Root      3 not converged, maximum delta is    0.065166826680984
 New state      4 was old state      3
 Root      4 not converged, maximum delta is    0.066858339419531
 New state      5 was old state      4
 Root      5 not converged, maximum delta is    0.003108097849226
 Excitation Energies [eV] at current iteration:
 Root      1 :     1.653932340598304   Change is   -0.102610809649833
 Root      2 :     1.843527333466514
 Root      3 :     2.186908630277441   Change is   -0.040665727002210
 Root      4 :     2.204006859276818   Change is   -0.039162756829604
 Root      5 :     2.361780361544548   Change is    0.000000872647194
 Iteration     4 Dimension    50 NMult    40 NNew     10
 CISAX will form    10 AO SS matrices at one time.
 NMat=    10 NSing=    10 JSym2X= 0.
 Root      1 not converged, maximum delta is    0.008151171668339
 Root      2 not converged, maximum delta is    0.027747138553648
 Root      3 not converged, maximum delta is    0.011291190278265
 Root      4 not converged, maximum delta is    0.011679606642192
 Root      5 has converged.
 Excitation Energies [eV] at current iteration:
 Root      1 :     1.637516809832999   Change is   -0.016415530765305
 Root      2 :     1.733053678297379   Change is   -0.110473655169135
 Root      3 :     2.179109479460036   Change is   -0.007799150817405
 Root      4 :     2.195807470369322   Change is   -0.008199388907496
 Root      5 :     2.361776787100791   Change is   -0.000003574443757
 Iteration     5 Dimension    58 NMult    50 NNew      8
 CISAX will form     8 AO SS matrices at one time.
 NMat=     8 NSing=     8 JSym2X= 0.
 Root      1 not converged, maximum delta is    0.001270010086067
 Root      2 not converged, maximum delta is    0.016047343752690
 Root      3 not converged, maximum delta is    0.001704569976251
 Root      4 not converged, maximum delta is    0.001712458075790
 Root      5 has converged.
 Excitation Energies [eV] at current iteration:
 Root      1 :     1.635844233992916   Change is   -0.001672575840083
 Root      2 :     1.710998679136013   Change is   -0.022054999161366
 Root      3 :     2.178261731816320   Change is   -0.000847747643716
 Root      4 :     2.194893095223765   Change is   -0.000914375145557
 Root      5 :     2.361776569503513   Change is   -0.000000217597277
 Iteration     6 Dimension    66 NMult    58 NNew      8
 CISAX will form     8 AO SS matrices at one time.
 NMat=     8 NSing=     8 JSym2X= 0.
 Root      1 has converged.
 Root      2 not converged, maximum delta is    0.002103116783702
 Root      3 has converged.
 Root      4 has converged.
 Root      5 has converged.
 Excitation Energies [eV] at current iteration:
 Root      1 :     1.635610604677716   Change is   -0.000233629315200
 Root      2 :     1.709128168277123   Change is   -0.001870510858890
 Root      3 :     2.178140982636585   Change is   -0.000120749179735
 Root      4 :     2.194751635944057   Change is   -0.000141459279708
 Root      5 :     2.361776551087253   Change is   -0.000000018416260
 Iteration     7 Dimension    68 NMult    66 NNew      2
 CISAX will form     2 AO SS matrices at one time.
 NMat=     2 NSing=     2 JSym2X= 0.
 Root      1 has converged.
 Root      2 has converged.
 Root      3 has converged.
 Root      4 has converged.
 Root      5 has converged.
 Excitation Energies [eV] at current iteration:
 Root      1 :     1.635610489683633   Change is   -0.000000114994083
[...]
 Alpha virt. eigenvalues --    1.84815   1.84946   1.85069   1.85152   1.85316
 Alpha virt. eigenvalues --    1.85413   1.85511   1.85558   1.85871   1.86118
 Alpha virt. eigenvalues --    1.86238   1.86520   1.86575   1.86729   1.86901
 Alpha virt. eigenvalues --    1.87034   1.87097   1.87485   1.87529   1.87636
 Alpha virt. eigenvalues --    1.87826   1.87893   1.88156   1.88173   1.88226
 Alpha virt. eigenvalues --    1.88361   1.88718   1.88874   1.88931   1.89082
 Alpha virt. eigenvalues --    1.89120   1.89508   1.89768   1.89858   1.89940
 Alpha virt. eigenvalues --    1.90154   1.90295   1.90533   1.90998   1.91060
 Alpha virt. eigenvalues --    1.91298   1.91617   1.91724   1.92163   1.92342
 Alpha virt. eigenvalues --    1.92471   1.92518   1.92841   1.93143   1.93260
 Alpha virt. eigenvalues --    1.93593   1.93680   1.93902   1.94545   1.94724
 Alpha virt. eigenvalues --    1.94929   1.95000   1.95174   1.95754   1.95990
 Alpha virt. eigenvalues --    1.96117   1.96243   1.96300   1.96399   1.96827
 Alpha virt. eigenvalues --    1.96871   1.97174   1.97268   1.97429   1.97734
 Alpha virt. eigenvalues --    1.97910   1.98196   1.98352   1.98417   1.98686
 Alpha virt. eigenvalues --    1.98930   1.99065   1.99237   1.99623   2.00084
 Alpha virt. eigenvalues --    2.00143   2.00796   2.00956   2.01143   2.01329
 Alpha virt. eigenvalues --    2.01426   2.01683   2.01758   2.02046   2.02083
 Alpha virt. eigenvalues --    2.02430   2.02990   2.03077   2.03289   2.03539
 Alpha virt. eigenvalues --    2.03586   2.03653   2.03831   2.03894   2.04254
 Alpha virt. eigenvalues --    2.04325   2.05145   2.05239   2.05628   2.05838
 Alpha virt. eigenvalues --    2.06343   2.06437   2.06761   2.07215   2.07584
 Alpha virt. eigenvalues --    2.07678   2.07755   2.08631   2.08980   2.09311
 Alpha virt. eigenvalues --    2.09479   2.09861   2.10466   2.11183   2.11344
 Alpha virt. eigenvalues --    2.11540   2.11584   2.11829   2.12036   2.12065
 Alpha virt. eigenvalues --    2.12718   2.12830   2.12931   2.13053   2.13115
 Alpha virt. eigenvalues --    2.13493   2.14008   2.14119   2.14387   2.14923
 Alpha virt. eigenvalues --    2.15559   2.15673   2.16229   2.16250   2.16319
 Alpha virt. eigenvalues --    2.16939   2.17110   2.17222   2.17361   2.17813
 Alpha virt. eigenvalues --    2.17938   2.18072   2.18145   2.18462   2.18590
 Alpha virt. eigenvalues --    2.19040   2.19254   2.19604   2.19764   2.20020
 Alpha virt. eigenvalues --    2.20274   2.20416   2.20566   2.20890   2.21306
 Alpha virt. eigenvalues --    2.21783   2.21895   2.22045   2.22072   2.22252
 Alpha virt. eigenvalues --    2.22675   2.22969   2.23545   2.23650   2.24218
 Alpha virt. eigenvalues --    2.24596   2.25077   2.25240   2.25759   2.26596
 Alpha virt. eigenvalues --    2.26768   2.27204   2.27301   2.27423   2.28216
 Alpha virt. eigenvalues --    2.28488   2.28667   2.29568   2.29667   2.30025
 Alpha virt. eigenvalues --    2.30141   2.30818   2.31076   2.31281   2.31419
 Alpha virt. eigenvalues --    2.31602   2.31660   2.32432   2.32868   2.33416
 Alpha virt. eigenvalues --    2.33609   2.33923   2.34030   2.34336   2.34842
 Alpha virt. eigenvalues --    2.35359   2.35768   2.36067   2.36117   2.36464
 Alpha virt. eigenvalues --    2.36591   2.36914   2.37498   2.37834   2.38435
 Alpha virt. eigenvalues --    2.38533   2.38738   2.39157   2.39535   2.39931
 Alpha virt. eigenvalues --    2.40008   2.40537   2.40697   2.40808   2.41123
 Alpha virt. eigenvalues --    2.41543   2.41766   2.41894   2.42342   2.42363
 Alpha virt. eigenvalues --    2.42669   2.42942   2.43086   2.43633   2.44135
 Alpha virt. eigenvalues --    2.44196   2.44737   2.45063   2.45130   2.45230
 Alpha virt. eigenvalues --    2.45406   2.45863   2.46125   2.46393   2.46554
 Alpha virt. eigenvalues --    2.46678   2.46807   2.47025   2.47131   2.47521
 Alpha virt. eigenvalues --    2.47697   2.48112   2.48420   2.49515   2.49765
 Alpha virt. eigenvalues --    2.50072   2.50498   2.50611   2.51365   2.51524
 Alpha virt. eigenvalues --    2.51803   2.52043   2.52399   2.52771   2.53103
 Alpha virt. eigenvalues --    2.53363   2.53474   2.54250   2.54305   2.54343
 Alpha virt. eigenvalues --    2.54404   2.54996   2.55681   2.55788   2.55912
 Alpha virt. eigenvalues --    2.58185   2.58228   2.59017   2.59077   2.60490
 Alpha virt. eigenvalues --    2.60563   2.60889   2.61217   2.61979   2.62097
 Alpha virt. eigenvalues --    2.62778   2.62862   2.63291   2.63322   2.64207
 Alpha virt. eigenvalues --    2.64443   2.64617   2.64698   2.65353   2.65561
 Alpha virt. eigenvalues --    2.66030   2.66334   2.66998   2.67168   2.67192
 Alpha virt. eigenvalues --    2.67435   2.68132   2.68297   2.68961   2.69111
 Alpha virt. eigenvalues --    2.69277   2.69531   2.69706   2.69979   2.70332
 Alpha virt. eigenvalues --    2.70461   2.71173   2.71362   2.72067   2.72362
 Alpha virt. eigenvalues --    2.72745   2.72901   2.72959   2.73144   2.73400
 Alpha virt. eigenvalues --    2.73442   2.73795   2.73913   2.74666   2.74913
 Alpha virt. eigenvalues --    2.75277   2.75334   2.76662   2.77160   2.77223
 Alpha virt. eigenvalues --    2.77558   2.77688   2.77746   2.78366   2.78419
 Alpha virt. eigenvalues --    2.78869   2.79009   2.79423   2.79479   2.80339
 Alpha virt. eigenvalues --    2.80555   2.80861   2.80872   2.81344   2.81431
 Alpha virt. eigenvalues --    2.82180   2.82303   2.82457   2.82636   2.83940
 Alpha virt. eigenvalues --    2.83983   2.84044   2.84127   2.84688   2.84869
 Alpha virt. eigenvalues --    2.85007   2.85272   2.85839   2.85932   2.86927
 Alpha virt. eigenvalues --    2.87289   2.87673   2.88074   2.88287   2.88402
 Alpha virt. eigenvalues --    2.88787   2.88897   2.89006   2.89389   2.90851
 Alpha virt. eigenvalues --    2.90941   2.91197   2.91930   2.93449   2.93584
 Alpha virt. eigenvalues --    2.93914   2.94521   2.94672   2.94936   2.95526
 Alpha virt. eigenvalues --    2.95782   2.95906   2.96482   2.96568   2.97200
 Alpha virt. eigenvalues --    2.97320   2.97984   2.98114   2.98298   2.98435
 Alpha virt. eigenvalues --    2.98559   2.98844   2.98949   2.98993   2.99055
 Alpha virt. eigenvalues --    2.99138   2.99837   2.99915   3.00149   3.00246
 Alpha virt. eigenvalues --    3.00431   3.00569   3.00777   3.01102   3.01480
 Alpha virt. eigenvalues --    3.02082   3.02231   3.02429   3.02789   3.02928
 Alpha virt. eigenvalues --    3.03228   3.03417   3.03438   3.03821   3.04185
 Alpha virt. eigenvalues --    3.04203   3.04742   3.04813   3.05039   3.05149
 Alpha virt. eigenvalues --    3.05458   3.05640   3.06253   3.06321   3.06855
 Alpha virt. eigenvalues --    3.07109   3.08002   3.08239   3.09001   3.09444
 Alpha virt. eigenvalues --    3.09716   3.10092   3.10762   3.10788   3.11534
 Alpha virt. eigenvalues --    3.11606   3.12049   3.12172   3.12263   3.12506
 Alpha virt. eigenvalues --    3.13592   3.13780   3.13897   3.14168   3.14358
 Alpha virt. eigenvalues --    3.14496   3.15605   3.16150   3.17024   3.17602
 Alpha virt. eigenvalues --    3.17772   3.17955   3.18412   3.19121   3.19495
 Alpha virt. eigenvalues --    3.22571   3.22692   3.24252   3.24539   3.24986
 Alpha virt. eigenvalues --    3.25256   3.26765   3.26832   3.27498   3.27933
 Alpha virt. eigenvalues --    3.29313   3.29370   3.31464   3.31824   3.33300
 Alpha virt. eigenvalues --    3.33731   3.40108   3.40877   3.42888   3.43025
 Alpha virt. eigenvalues --    3.48793   3.48979   3.50323   3.50393   3.50940
 Alpha virt. eigenvalues --    3.51760   3.56830   3.57091   3.59396   3.59449
 Alpha virt. eigenvalues --    3.62615   3.63144   3.66133   3.66338   3.67448
 Alpha virt. eigenvalues --    3.67481   3.73558   3.74068   3.76359   3.76777
          Condensed to atoms (all electrons):
 Mulliken charges:
               1
     1  Mg   0.839979
     2  C   -0.003252
     3  C   -0.094140
     4  C   -0.047041
     5  C   -0.057425
     6  N   -0.256692
     7  C   -0.052289
     8  C   -0.014068
     9  C   -0.086864
    10  C    0.045722
    11  C    0.104992
    12  C    0.053369
    13  C   -0.071263
    14  H    0.034947
    15  N   -0.432802
    16  C    0.167615
    17  C   -0.178044
    18  C   -0.005292
    19  C    0.148201
    20  C    0.110442
    21  C    0.010605
    22  O   -0.251942
    23  C    0.063199
    24  N   -0.341210
    25  C    0.041130
    26  C   -0.028816
    27  C   -0.024405
    28  C    0.074901
    29  C    0.077047
    30  C    0.056181
    31  C   -0.037842
    32  N   -0.312026
    33  C    0.085031
    34  C   -0.162741
    35  C    0.008024
    36  C    0.085545
    37  C    0.127425
    38  C    0.047680
    39  O   -0.187875
    40  C   -0.006121
    41  C    0.212831
    42  O   -0.256297
    43  O   -0.304898
    44  C    0.158150
    45  H   -0.018485
    46  H   -0.018833
    47  H   -0.040986
    48  H    0.000599
    49  H   -0.004354
    50  H    0.025113
    51  H    0.016261
    52  H    0.016016
    53  H    0.011712
    54  H    0.044050
    55  H    0.017602
    56  H    0.018139
    57  H    0.005888
    58  H    0.025691
    59  H    0.037987
    60  H    0.038027
    61  H    0.033211
    62  H    0.029425
    63  H    0.015556
    64  H    0.008413
    65  H    0.021421
    66  H    0.012693
    67  H    0.004331
    68  H   -0.001522
    69  H    0.001436
    70  H    0.013317
    71  H    0.028416
    72  H    0.038098
    73  H    0.051614
    74  H    0.010459
    75  H    0.044052
    76  H    0.034526
    77  H    0.042574
    78  H    0.045959
    79  H    0.052762
    80  Mg   0.838363
    81  C   -0.017101
    82  C   -0.086695
    83  C   -0.045740
    84  C   -0.063270
    85  N   -0.254593
    86  C   -0.050841
    87  C   -0.007942
    88  C   -0.088430
    89  C    0.044943
    90  C    0.114811
    91  C    0.047150
    92  C   -0.085310
    93  H    0.034428
    94  N   -0.423386
    95  C    0.162600
    96  C   -0.175052
    97  C   -0.008741
    98  C    0.151909
    99  C    0.099787
   100  C    0.014531
   101  O   -0.254103
   102  C    0.061931
   103  N   -0.350119
   104  C    0.037465
   105  C   -0.019504
   106  C   -0.035004
   107  C    0.089203
   108  C    0.073912
   109  C    0.034629
   110  C   -0.007286
   111  N   -0.324932
   112  C    0.080562
   113  C   -0.159613
   114  C    0.002555
   115  C    0.097742
   116  C    0.131056
   117  C    0.044016
   118  O   -0.187817
   119  C   -0.000957
   120  C    0.210198
   121  O   -0.249582
   122  O   -0.304937
   123  C    0.149685
   124  H   -0.019839
   125  H   -0.016406
   126  H   -0.039580
   127  H   -0.002302
   128  H   -0.003619
   129  H    0.021863
   130  H    0.014155
   131  H    0.016055
   132  H    0.015580
   133  H    0.047785
   134  H    0.016904
   135  H    0.018677
   136  H    0.009776
   137  H    0.025279
   138  H    0.038981
   139  H    0.038746
   140  H    0.034949
   141  H    0.031890
   142  H    0.013746
   143  H    0.011982
   144  H    0.024302
   145  H    0.011361
   146  H    0.005404
   147  H    0.004723
   148  H    0.004393
   149  H    0.008274
   150  H    0.019967
   151  H    0.033042
   152  H    0.048684
   153  H    0.009481
   154  H    0.045827
   155  H    0.034910
   156  H    0.044844
   157  H    0.054305
   158  H    0.054504
 Sum of Mulliken charges =  -0.00000
 Mulliken charges with hydrogens summed into heavy atoms:
               1
     1  Mg   0.839979
     2  C   -0.003252
     3  C   -0.112625
     4  C   -0.065873
     5  C   -0.098411
     6  N   -0.256692
     7  C   -0.052289
     8  C   -0.013469
     9  C   -0.091218
    10  C    0.045722
    11  C    0.162382
    12  C    0.109130
    13  C   -0.000574
    15  N   -0.432802
    16  C    0.167615
    17  C   -0.178044
    18  C   -0.005292
    19  C    0.148201
    20  C    0.180007
    21  C    0.010605
    22  O   -0.251942
    23  C    0.163861
    24  N   -0.341210
    25  C    0.041130
    26  C   -0.013260
    27  C   -0.015991
    28  C    0.074901
    29  C    0.115492
    30  C    0.056095
    31  C    0.041989
    32  N   -0.312026
    33  C    0.085031
    34  C   -0.162741
    35  C    0.008024
    36  C    0.085545
    37  C    0.233550
    38  C    0.047680
    39  O   -0.187875
    40  C    0.028405
    41  C    0.212831
    42  O   -0.256297
    43  O   -0.304898
    44  C    0.299445
    80  Mg   0.838363
    81  C   -0.017101
    82  C   -0.106534
    83  C   -0.062146
    84  C   -0.102851
    85  N   -0.254593
    86  C   -0.050841
    87  C   -0.010243
    88  C   -0.092048
    89  C    0.044943
    90  C    0.166884
    91  C    0.110514
    92  C   -0.015301
    94  N   -0.423386
    95  C    0.162600
    96  C   -0.175052
    97  C   -0.008741
    98  C    0.151909
    99  C    0.173824
   100  C    0.014531
   101  O   -0.254103
   102  C    0.167515
   103  N   -0.350119
   104  C    0.037465
   105  C   -0.005758
   106  C   -0.023022
   107  C    0.089203
   108  C    0.114980
   109  C    0.043745
   110  C    0.053997
   111  N   -0.324932
   112  C    0.080562
   113  C   -0.159613
   114  C    0.002555
   115  C    0.097742
   116  C    0.235048
   117  C    0.044016
   118  O   -0.187817
   119  C    0.033953
   120  C    0.210198
   121  O   -0.249582
   122  O   -0.304937
   123  C    0.303338
 Electronic spatial extent (au):  <R**2>=          87560.8394
 Charge=             -0.0000 electrons
 Dipole moment (field-independent basis, Debye):
    X=              0.1367    Y=             -1.3699    Z=              6.1634  Tot=              6.3153
 Quadrupole moment (field-independent basis, Debye-Ang):
   XX=           -489.9401   YY=           -466.2537   ZZ=           -536.3129
   XY=             12.7767   XZ=             15.9316   YZ=             13.2909
 Traceless Quadrupole moment (field-independent basis, Debye-Ang):
   XX=              7.5621   YY=             31.2485   ZZ=            -38.8106
   XY=             12.7767   XZ=             15.9316   YZ=             13.2909
 Octapole moment (field-independent basis, Debye-Ang**2):
  XXX=             31.5939  YYY=            141.5805  ZZZ=            341.8096  XYY=            -24.3999
  XXY=             13.3724  XXZ=             57.0696  XZZ=             77.8835  YZZ=            -86.6659
  YYZ=           -239.1795  XYZ=            260.3783
 Hexadecapole moment (field-independent basis, Debye-Ang**3):
 XXXX=         -53031.9467 YYYY=         -32141.2699 ZZZZ=         -32488.7959 XXXY=            439.5363
 XXXZ=            684.3078 YYYX=            451.5847 YYYZ=            206.7677 ZZZX=            259.7188
 ZZZY=              8.4256 XXYY=         -13791.4148 XXZZ=         -14563.2688 YYZZ=         -11321.3538
 XXYZ=            -55.8842 YYXZ=            -16.8925 ZZXY=            240.7193
 N-N= 1.594090975702D+04 E-N=-4.136383533816D+04  KE= 4.028845431558D+03
 Leave Link  601 at Wed Sep  8 19:46:46 2021, MaxMem= 23488102400 cpu:              17.4 elap:               0.9
 (Enter /sw/apps/gaussian-16.0/g16/l9999.exe)
 1\1\GINC-BP1-COMPUTE00100\SP\RCAM-B3LYP TD-FC\def2SVP\C68H72Mg2N8O8\OF
 15641\08-Sep-2021\0\\#p cam-b3lyp/Def2SVP td=(nstates=5)\\TDDFT excite
 d states in gaussian\\0,1\Mg,0,0.,0.,0.\C,0,-0.217,-2.218,2.801\C,0,-1
 .255,2.442,2.026\C,0,-0.245,1.85,-2.564\C,0,0.146,-2.824,-2.037\N,0,-0
 .617,-0.009,2.126\C,0,-0.594,-0.908,3.105\C,0,-0.936,-0.309,4.502\C,0,
 -1.773,0.964,4.032\C,0,-1.155,1.168,2.66\C,0,-3.263,0.685,3.863\C,0,0.
 345,0.11,5.299\C,0,0.124,0.397,6.787\H,0,1.168,0.033,7.733\N,0,-0.185,
 1.961,-0.152\C,0,-0.703,2.8,0.777\C,0,-0.62,4.156,0.193\C,0,-0.187,4.0
 15,-1.225\C,0,-0.214,2.583,-1.38\C,0,-0.887,5.406,0.974\C,0,0.181,5.01
 3,-2.277\O,0,0.303,4.69,-3.508\C,0,0.31,6.414,-1.837\N,0,-0.265,-0.413
 ,-2.029\C,0,-0.279,0.569,-2.937\C,0,-0.196,0.024,-4.332\C,0,0.124,-1.5
 33,-4.18\C,0,0.086,-1.632,-2.635\C,0,-1.451,0.205,-5.197\C,0,1.373,-2.
 07,-4.923\C,0,2.626,-1.49,-4.306\N,0,0.15,-2.144,0.303\C,0,0.173,-3.13
 6,-0.688\C,0,0.173,-4.438,0.004\C,0,0.133,-4.111,1.358\C,0,0.083,-2.69
 5,1.502\C,0,0.149,-5.715,-0.623\C,0,0.096,-4.629,2.716\O,0,0.208,-5.74
 7,3.221\C,0,-0.255,-3.428,3.701\C,0,0.717,-3.482,4.848\O,0,1.931,-3.25
 5,4.669\O,0,0.038,-3.556,6.003\C,0,0.943,-3.583,7.183\H,0,-1.859,3.22,
 2.497\H,0,-0.218,2.453,-3.474\H,0,0.276,-3.747,-2.605\H,0,-1.554,-0.94
 9,5.132\H,0,-1.585,1.831,4.665\H,0,-3.484,-0.377,3.969\H,0,-3.511,1.02
 7,2.858\H,0,-3.852,1.301,4.543\H,0,0.669,1.096,4.966\H,0,1.13,-0.639,5
 .189\H,0,-0.844,0.026,7.125\H,0,0.062,1.477,6.921\H,0,-1.344,5.186,1.9
 38\H,0,-1.651,5.963,0.432\H,0,0.007,6.02,1.084\H,0,-0.635,6.744,-1.405
 \H,0,0.665,6.97,-2.704\H,0,1.048,6.466,-1.036\H,0,0.608,0.501,-4.891\H
 ,0,-0.692,-2.156,-4.547\H,0,-1.267,0.74,-6.129\H,0,-2.204,0.714,-4.596
 \H,0,-1.967,-0.72,-5.453\H,0,1.356,-1.759,-5.967\H,0,1.452,-3.157,-4.9
 02\H,0,2.714,-0.522,-4.798\H,0,3.487,-2.121,-4.529\H,0,2.495,-1.303,-3
 .24\H,0,0.867,-6.333,-0.084\H,0,0.404,-5.642,-1.68\H,0,-0.891,-5.999,-
 0.463\H,0,-1.283,-3.581,4.028\H,0,0.698,-4.478,7.755\H,0,0.833,-2.619,
 7.68\H,0,2.,-3.754,6.976\Mg,0,7.87409,0.71203,0.59383\C,0,7.60424,-2.0
 7485,-1.65106\C,0,7.91734,2.7307,-2.1553\C,0,8.56302,3.14327,2.51265\C
 ,0,8.94546,-1.53475,3.03306\N,0,7.76744,0.26734,-1.57023\C,0,7.60426,-
 0.82399,-2.30283\C,0,7.35092,-0.5547,-3.81043\C,0,8.03801,0.89302,-3.9
 1488\C,0,7.87001,1.34836,-2.46673\C,0,9.52398,0.83281,-4.2273\C,0,5.82
 205,-0.49131,-4.15763\C,0,5.49957,-0.54004,-5.65275\H,0,4.29137,-1.239
 11,-6.08176\N,0,7.70945,2.66763,0.29873\C,0,7.72388,3.31604,-0.88476\C
 ,0,7.59092,4.74517,-0.56216\C,0,7.66252,4.90099,0.91612\C,0,8.00954,3.
 54942,1.30714\C,0,7.33625,5.79449,-1.605\C,0,7.46547,6.07536,1.8262\O,
 0,7.81029,6.03635,3.06006\C,0,6.94341,7.30311,1.2085\N,0,8.84254,0.828
 67,2.42981\C,0,8.96245,2.00234,3.07484\C,0,9.44471,1.79947,4.4914\C,0,
 9.39232,0.22071,4.74113\C,0,8.95449,-0.24358,3.33467\C,0,10.85062,2.31
 625,4.79593\C,0,8.57756,-0.27097,5.96876\C,0,7.10591,-0.00023,5.7535\N
 ,0,8.04615,-1.43503,0.76284\C,0,8.54338,-2.16689,1.8634\C,0,8.57094,-3
 .5889,1.46394\C,0,8.10584,-3.583,0.14026\C,0,7.82847,-2.24915,-0.26395
 \C,0,9.03163,-4.66987,2.2673\C,0,7.79653,-4.40074,-1.01053\O,0,7.7531,
 -5.61054,-1.23014\C,0,7.57792,-3.44768,-2.26364\C,0,6.31727,-3.87954,-
 2.96133\O,0,5.21385,-3.76947,-2.39833\O,0,6.59617,-4.14595,-4.25036\C,
 0,5.37492,-4.56785,-4.98682\H,0,8.16787,3.43339,-2.9505\H,0,8.71626,3.
 93358,3.25116\H,0,9.17377,-2.30792,3.76977\H,0,7.8401,-1.24791,-4.4841
 7\H,0,7.48523,1.54507,-4.58617\H,0,9.89844,-0.17993,-4.21074\H,0,10.00
 922,1.42812,-3.46495\H,0,9.73,1.33383,-5.17749\H,0,5.44114,0.50927,-3.
 91578\H,0,5.28283,-1.26485,-3.64626\H,0,6.3617,-0.86067,-6.25014\H,0,5
 .29791,0.47703,-5.99758\H,0,7.49825,5.40346,-2.61705\H,0,8.10932,6.560
 86,-1.48294\H,0,6.35506,6.26253,-1.50075\H,0,7.61559,7.62248,0.41563\H
 ,0,6.78664,8.00124,2.03306\H,0,5.98272,7.07463,0.73363\H,0,8.78592,2.2
 8908,5.19806\H,0,10.39482,-0.1982,4.91242\H,0,10.87703,3.0452,5.6278\H
 ,0,11.25621,2.75418,3.89357\H,0,11.5848,1.54712,5.02965\H,0,8.86786,0.
 28533,6.86342\H,0,8.71673,-1.32484,6.18555\H,0,7.00057,1.04587,6.05628
 \H,0,6.50071,-0.65464,6.37761\H,0,6.84545,-0.06356,4.69057\H,0,8.31967
 ,-5.47507,2.14378\H,0,9.12538,-4.37768,3.31115\H,0,10.00432,-4.85627,1
 .80427\H,0,8.45455,-3.54403,-2.90538\H,0,5.5937,-5.54092,-5.43735\H,0,
 5.13908,-3.73528,-5.67599\H,0,4.49204,-4.79906,-4.40243\\Version=ES64L
 -G16RevA.03\State=1-A\HF=-4069.8053985\RMSD=6.536e-09\PG=C01 [X(C68H72
 Mg2N8O8)]\\@


 WHAT, THEN, IS TIME?  IF NO ONE ASKS ME, I KNOW WHAT IT IS.
 IF I WISH TO EXPLAIN WHAT IT IS TO HIM WHO ASKS ME, I DO NOT KNOW.
                                   -- ST. AUGUSTINE (FIFTH CENTURY)
 Job cpu time:       0 days 15 hours 12 minutes 40.8 seconds.
 Elapsed time:       0 days  0 hours 38 minutes 43.0 seconds.
 File lengths (MBytes):  RWF=  13225 Int=      0 D2E=      0 Chk=    574 Scr=      1
 Normal termination of Gaussian 16 at Wed Sep  8 19:46:47 2021.
