 Entering Gaussian System, Link 0=g16
 Initial command:
 /sw/apps/gaussian-16.0/g16/l1.exe "/tmp/Gau-176780.inp" -scrdir="/tmp/"
 Entering Link 1 = /sw/apps/gaussian-16.0/g16/l1.exe PID=    176781.
  
 Copyright (c) 1988,1990,1992,1993,1995,1998,2003,2009,2016,
            Gaussian, Inc.  All Rights Reserved.
  
 This is part of the Gaussian(R) 16 program.  It is based on
 the Gaussian(R) 09 system (copyright 2009, Gaussian, Inc.),
 the Gaussian(R) 03 system (copyright 2003, Gaussian, Inc.),
 the Gaussian(R) 98 system (copyright 1998, Gaussian, Inc.),
 the Gaussian(R) 94 system (copyright 1995, Gaussian, Inc.),
 the Gaussian 92(TM) system (copyright 1992, Gaussian, Inc.),
 the Gaussian 90(TM) system (copyright 1990, Gaussian, Inc.),
 the Gaussian 88(TM) system (copyright 1988, Gaussian, Inc.),
 the Gaussian 86(TM) system (copyright 1986, Carnegie Mellon
 University), and the Gaussian 82(TM) system (copyright 1983,
 Carnegie Mellon University). Gaussian is a federally registered
 trademark of Gaussian, Inc.
  
 This software contains proprietary and confidential information,
 including trade secrets, belonging to Gaussian, Inc.
  
 This software is provided under written license and may be
 used, copied, transmitted, or stored only in accord with that
 written license.
  
 The following legend is applicable only to US Government
 contracts under FAR:
  
                    RESTRICTED RIGHTS LEGEND
  
 Use, reproduction and disclosure by the US Government is
 subject to restrictions as set forth in subparagraphs (a)
 and (c) of the Commercial Computer Software - Restricted
 Rights clause in FAR 52.227-19.
  
 Gaussian, Inc.
 340 Quinnipiac St., Bldg. 40, Wallingford CT 06492
  
  
 ---------------------------------------------------------------
 Warning -- This program may not be used in any manner that
 competes with the business of Gaussian, Inc. or will provide
 assistance to any competitor of Gaussian, Inc.  The licensee
 of this program is prohibited from giving any competitor of
 Gaussian, Inc. access to this program.  By using this program,
 the user acknowledges that Gaussian, Inc. is engaged in the
 business of creating and licensing software in the field of
 computational chemistry and represents and warrants to the
 licensee that it is not a competitor of Gaussian, Inc. and that
 it will not use this program in any manner prohibited above.
 ---------------------------------------------------------------
  

 Cite this work as:
 Gaussian 16, Revision A.03,
 M. J. Frisch, G. W. Trucks, H. B. Schlegel, G. E. Scuseria, 
 M. A. Robb, J. R. Cheeseman, G. Scalmani, V. Barone, 
 G. A. Petersson, H. Nakatsuji, X. Li, M. Caricato, A. V. Marenich, 
 J. Bloino, B. G. Janesko, R. Gomperts, B. Mennucci, H. P. Hratchian, 
 J. V. Ortiz, A. F. Izmaylov, J. L. Sonnenberg, D. Williams-Young, 
 F. Ding, F. Lipparini, F. Egidi, J. Goings, B. Peng, A. Petrone, 
 T. Henderson, D. Ranasinghe, V. G. Zakrzewski, J. Gao, N. Rega, 
 G. Zheng, W. Liang, M. Hada, M. Ehara, K. Toyota, R. Fukuda, 
 J. Hasegawa, M. Ishida, T. Nakajima, Y. Honda, O. Kitao, H. Nakai, 
 T. Vreven, K. Throssell, J. A. Montgomery, Jr., J. E. Peralta, 
 F. Ogliaro, M. J. Bearpark, J. J. Heyd, E. N. Brothers, K. N. Kudin, 
 V. N. Staroverov, T. A. Keith, R. Kobayashi, J. Normand, 
 K. Raghavachari, A. P. Rendell, J. C. Burant, S. S. Iyengar, 
 J. Tomasi, M. Cossi, J. M. Millam, M. Klene, C. Adamo, R. Cammi, 
 J. W. Ochterski, R. L. Martin, K. Morokuma, O. Farkas, 
 J. B. Foresman, and D. J. Fox, Gaussian, Inc., Wallingford CT, 2016.
 
 ******************************************
 Gaussian 16:  ES64L-G16RevA.03 25-Dec-2016
                12-Sep-2021 
 ******************************************
 %nproc=24
 Will use up to   24 processors via shared memory.
 %mem=175gb
 -----------------------------------
 #p cam-b3lyp/Def2SVP td=(nstates=5)
 -----------------------------------
 1/38=1,172=1/1;
 2/12=2,17=6,18=5,40=1/2;
 3/5=43,7=101,11=9,25=1,30=1,74=-40/1,2,3,8;
 4//1;
 5/5=2,38=5/2;
 8/6=1,10=1,108=5/1;
 9/41=5,42=1,70=2/14;
 6/7=2,8=2,9=2,10=2/1;
 99/5=1,9=1/99;
 Leave Link    1 at Sun Sep 12 12:49:34 2021, MaxMem= 23488102400 cpu:               0.8 elap:               0.0
 (Enter /sw/apps/gaussian-16.0/g16/l101.exe)
 --------------------------------
 TDDFT excited states in gaussian
 --------------------------------
 Symbolic Z-matrix:
 Charge =  0 Multiplicity = 1
 Mg                    0.        0.        0. 
 C                    -0.217    -2.218     2.801 
 C                    -1.255     2.442     2.026 
 C                    -0.245     1.85     -2.564 
 C                     0.146    -2.824    -2.037 
 N                    -0.617    -0.009     2.126 
 C                    -0.594    -0.908     3.105 
 C                    -0.936    -0.309     4.502 
 C                    -1.773     0.964     4.032 
 C                    -1.155     1.168     2.66 
 C                    -3.263     0.685     3.863 
 C                     0.345     0.11      5.299 
 C                     0.124     0.397     6.787 
 H                     1.168     0.033     7.733 
 N                    -0.185     1.961    -0.152 
 C                    -0.703     2.8       0.777 
 C                    -0.62      4.156     0.193 
 C                    -0.187     4.015    -1.225 
 C                    -0.214     2.583    -1.38 
 C                    -0.887     5.406     0.974 
 C                     0.181     5.013    -2.277 
 O                     0.303     4.69     -3.508 
 C                     0.31      6.414    -1.837 
 N                    -0.265    -0.413    -2.029 
 C                    -0.279     0.569    -2.937 
 C                    -0.196     0.024    -4.332 
 C                     0.124    -1.533    -4.18 
 C                     0.086    -1.632    -2.635 
 C                    -1.451     0.205    -5.197 
 C                     1.373    -2.07     -4.923 
 C                     2.626    -1.49     -4.306 
 N                     0.15     -2.144     0.303 
 C                     0.173    -3.136    -0.688 
 C                     0.173    -4.438     0.004 
 C                     0.133    -4.111     1.358 
 C                     0.083    -2.695     1.502 
 C                     0.149    -5.715    -0.623 
 C                     0.096    -4.629     2.716 
 O                     0.208    -5.747     3.221 
 C                    -0.255    -3.428     3.701 
 C                     0.717    -3.482     4.848 
 O                     1.931    -3.255     4.669 
 O                     0.038    -3.556     6.003 
 C                     0.943    -3.583     7.183 
 H                    -1.859     3.22      2.497 
 H                    -0.218     2.453    -3.474 
 H                     0.276    -3.747    -2.605 
 H                    -1.554    -0.949     5.132 
 H                    -1.585     1.831     4.665 
 H                    -3.484    -0.377     3.969 
 H                    -3.511     1.027     2.858 
 H                    -3.852     1.301     4.543 
 H                     0.669     1.096     4.966 
 H                     1.13     -0.639     5.189 
 H                    -0.844     0.026     7.125 
 H                     0.062     1.477     6.921 
 H                    -1.344     5.186     1.938 
 H                    -1.651     5.963     0.432 
 H                     0.007     6.02      1.084 
 H                    -0.635     6.744    -1.405 
 H                     0.665     6.97     -2.704 
 H                     1.048     6.466    -1.036 
 H                     0.608     0.501    -4.891 
 H                    -0.692    -2.156    -4.547 
 H                    -1.267     0.74     -6.129 
 H                    -2.204     0.714    -4.596 
 H                    -1.967    -0.72     -5.453 
 H                     1.356    -1.759    -5.967 
 H                     1.452    -3.157    -4.902 
 H                     2.714    -0.522    -4.798 
 H                     3.487    -2.121    -4.529 
 H                     2.495    -1.303    -3.24 
 H                     0.867    -6.333    -0.084 
 H                     0.404    -5.642    -1.68 
 H                    -0.891    -5.999    -0.463 
 H                    -1.283    -3.581     4.028 
 H                     0.698    -4.478     7.755 
 H                     0.833    -2.619     7.68 
 H                     2.       -3.754     6.976 
 Mg                    31.52418   2.84107   2.38925 
 C                     31.57838   0.07597   0.10226 
 C                     31.88228   4.89055  -0.31371 
 C                     31.93174   5.25975   4.40203 
 C                     32.31393   0.58173   4.9225 
 N                     31.69608   2.41908   0.22485 
 C                     31.6419   1.33388  -0.53262 
 C                     31.57563   1.61652  -2.0575 
 C                     32.24926   3.07429  -2.06136 
 C                     31.89448   3.51124  -0.64154 
 C                     33.76339   3.03726  -2.1854 
 C                     30.10158   1.66349  -2.5932 
 C                     29.96978   1.6271   -4.11735 
 H                     28.83518   0.91689  -4.7011 
 N                     31.36939   4.79747   2.09414 
 C                     31.52261   5.45912   0.92794 
 C                     31.32949   6.88269   1.24466 
 C                     31.21297   7.02302   2.72164 
 C                     31.52787   5.6719    3.14045 
 C                     31.19231   7.94006   0.18798 
 C                     30.88635   8.18448   3.61075 
 O                     31.07433   8.13635   4.8777 
 C                     30.42802   9.412     2.94394 
 N                     32.25306   2.95013   4.33326 
 C                     32.2741   4.11804   4.99919 
 C                     32.57791   3.90586   6.46311 
 C                     32.5176   2.32387   6.6895 
 C                     32.2663   1.86947   5.23494 
 C                     33.9269   4.43782   6.94647 
 C                     31.56263   1.80782   7.80054 
 C                     30.12579   2.06141   7.40485 
 N                     31.7049   0.69473   2.55842 
 C                     32.07086  -0.04266   3.70577 
 C                     32.16895  -1.45965   3.29964 
 C                     31.87339  -1.44521   1.92817 
 C                     31.6295  -0.11074   1.50485 
 C                     32.54099  -2.54328   4.1443 
 C                     31.72268  -2.25414   0.74006 
 O                     31.72472  -3.4619    0.50543 
 C                     31.64903  -1.29021  -0.52161 
 C                     30.49218  -1.73095  -1.37598 
 O                     29.32541  -1.64178  -0.95488 
 O                     30.93429  -1.97931  -2.62226 
 C                     29.82125  -2.40916  -3.51006 
 H                     32.22027   5.60529  -1.06457 
 H                     31.97968   6.04378   5.16129 
 H                     32.45932  -0.19649   5.67477 
 H                     32.15543   0.93738  -2.671 
 H                     31.77556   3.72637  -2.79057 
 H                     34.14751   2.02945  -2.13146 
 H                     34.14054   3.63044  -1.36264 
 H                     34.07958   3.5515   -3.09749 
 H                     29.67884   2.65618  -2.3917 
 H                     29.51382   0.87724  -2.16079 
 H                     30.90456   1.32459  -4.60482 
 H                     29.79816   2.64518  -4.47523 
 H                     31.48555   7.56248  -0.79936 
 H                     31.93276   8.71521   0.41325 
 H                     30.19908   8.39387   0.17265 
 H                     31.18956   9.74903   2.24471 
 H                     30.15901   10.09878   3.74881 
 H                     29.53786   9.17609   2.35016 
 H                     31.82869   4.37882   7.08607 
 H                     33.49671   1.91641   6.98131 
 H                     33.83822   5.15777   7.78186 
 H                     34.43597   4.89108   6.10627 
 H                     34.6371   3.67594   7.26326 
 H                     31.73039   2.35796   8.72971 
 H                     31.68885   0.75355   8.0232 
 H                     29.96813   3.10259   7.7018 
 H                     29.45672   1.39214   7.94194 
 H                     30.00156   2.00644   6.3171 
 H                     31.86191  -3.35642   3.92489 
 H                     32.49891  -2.26149   5.19435 
 H                     33.56665  -2.71161   3.80526 
 H                     32.60048  -1.36779  -1.04914 
 H                     30.10889  -3.37417  -3.93866 
 H                     29.66156  -1.57218  -4.21555 
 H                     28.87554  -2.65853  -3.04327 
 
 ITRead=  0  0  0  0  0  0  0  0  0  0  0  0  0  0  0  0  0  0  0  0
 ITRead=  0  0  0  0  0  0  0  0  0  0  0  0  0  0  0  0  0  0  0  0
 ITRead=  0  0  0  0  0  0  0  0  0  0  0  0  0  0  0  0  0  0  0  0
 ITRead=  0  0  0  0  0  0  0  0  0  0  0  0  0  0  0  0  0  0  0  0
 ITRead=  0  0  0  0  0  0  0  0  0  0  0  0  0  0  0  0  0  0  0  0
 ITRead=  0  0  0  0  0  0  0  0  0  0  0  0  0  0  0  0  0  0  0  0
 ITRead=  0  0  0  0  0  0  0  0  0  0  0  0  0  0  0  0  0  0  0  0
 ITRead=  0  0  0  0  0  0  0  0  0  0  0  0  0  0  0  0  0  0
 MicOpt= -1 -1 -1 -1 -1 -1 -1 -1 -1 -1 -1 -1 -1 -1 -1 -1 -1 -1 -1 -1
 MicOpt= -1 -1 -1 -1 -1 -1 -1 -1 -1 -1 -1 -1 -1 -1 -1 -1 -1 -1 -1 -1
 MicOpt= -1 -1 -1 -1 -1 -1 -1 -1 -1 -1 -1 -1 -1 -1 -1 -1 -1 -1 -1 -1
 MicOpt= -1 -1 -1 -1 -1 -1 -1 -1 -1 -1 -1 -1 -1 -1 -1 -1 -1 -1 -1 -1
 MicOpt= -1 -1 -1 -1 -1 -1 -1 -1 -1 -1 -1 -1 -1 -1 -1 -1 -1 -1 -1 -1
 MicOpt= -1 -1 -1 -1 -1 -1 -1 -1 -1 -1 -1 -1 -1 -1 -1 -1 -1 -1 -1 -1
 MicOpt= -1 -1 -1 -1 -1 -1 -1 -1 -1 -1 -1 -1 -1 -1 -1 -1 -1 -1 -1 -1
 MicOpt= -1 -1 -1 -1 -1 -1 -1 -1 -1 -1 -1 -1 -1 -1 -1 -1 -1 -1
 NAtoms=    158 NQM=      158 NQMF=       0 NMMI=      0 NMMIF=      0
                NMic=       0 NMicF=      0.
                    Isotopes and Nuclear Properties:
 (Nuclear quadrupole moments (NQMom) in fm**2, nuclear magnetic moments (NMagM)
  in nuclear magnetons)

  Atom         1           2           3           4           5           6           7           8           9          10
 IAtWgt=          24          12          12          12          12          14          12          12          12          12
 AtmWgt=  23.9850450  12.0000000  12.0000000  12.0000000  12.0000000  14.0030740  12.0000000  12.0000000  12.0000000  12.0000000
 NucSpn=           0           0           0           0           0           2           0           0           0           0
 AtZEff=  -0.0000000  -0.0000000  -0.0000000  -0.0000000  -0.0000000  -0.0000000  -0.0000000  -0.0000000  -0.0000000  -0.0000000
 NQMom=    0.0000000   0.0000000   0.0000000   0.0000000   0.0000000   2.0440000   0.0000000   0.0000000   0.0000000   0.0000000
 NMagM=    0.0000000   0.0000000   0.0000000   0.0000000   0.0000000   0.4037610   0.0000000   0.0000000   0.0000000   0.0000000
 AtZNuc=  12.0000000   6.0000000   6.0000000   6.0000000   6.0000000   7.0000000   6.0000000   6.0000000   6.0000000   6.0000000

  Atom        11          12          13          14          15          16          17          18          19          20
 IAtWgt=          12          12          12           1          14          12          12          12          12          12
 AtmWgt=  12.0000000  12.0000000  12.0000000   1.0078250  14.0030740  12.0000000  12.0000000  12.0000000  12.0000000  12.0000000
 NucSpn=           0           0           0           1           2           0           0           0           0           0
 AtZEff=  -0.0000000  -0.0000000  -0.0000000  -0.0000000  -0.0000000  -0.0000000  -0.0000000  -0.0000000  -0.0000000  -0.0000000
 NQMom=    0.0000000   0.0000000   0.0000000   0.0000000   2.0440000   0.0000000   0.0000000   0.0000000   0.0000000   0.0000000
 NMagM=    0.0000000   0.0000000   0.0000000   2.7928460   0.4037610   0.0000000   0.0000000   0.0000000   0.0000000   0.0000000
 AtZNuc=   6.0000000   6.0000000   6.0000000   1.0000000   7.0000000   6.0000000   6.0000000   6.0000000   6.0000000   6.0000000

  Atom        21          22          23          24          25          26          27          28          29          30
 IAtWgt=          12          16          12          14          12          12          12          12          12          12
 AtmWgt=  12.0000000  15.9949146  12.0000000  14.0030740  12.0000000  12.0000000  12.0000000  12.0000000  12.0000000  12.0000000
 NucSpn=           0           0           0           2           0           0           0           0           0           0
 AtZEff=  -0.0000000  -0.0000000  -0.0000000  -0.0000000  -0.0000000  -0.0000000  -0.0000000  -0.0000000  -0.0000000  -0.0000000
 NQMom=    0.0000000   0.0000000   0.0000000   2.0440000   0.0000000   0.0000000   0.0000000   0.0000000   0.0000000   0.0000000
 NMagM=    0.0000000   0.0000000   0.0000000   0.4037610   0.0000000   0.0000000   0.0000000   0.0000000   0.0000000   0.0000000
 AtZNuc=   6.0000000   8.0000000   6.0000000   7.0000000   6.0000000   6.0000000   6.0000000   6.0000000   6.0000000   6.0000000

  Atom        31          32          33          34          35          36          37          38          39          40
 IAtWgt=          12          14          12          12          12          12          12          12          16          12
 AtmWgt=  12.0000000  14.0030740  12.0000000  12.0000000  12.0000000  12.0000000  12.0000000  12.0000000  15.9949146  12.0000000
 NucSpn=           0           2           0           0           0           0           0           0           0           0
 AtZEff=  -0.0000000  -0.0000000  -0.0000000  -0.0000000  -0.0000000  -0.0000000  -0.0000000  -0.0000000  -0.0000000  -0.0000000
 NQMom=    0.0000000   2.0440000   0.0000000   0.0000000   0.0000000   0.0000000   0.0000000   0.0000000   0.0000000   0.0000000
 NMagM=    0.0000000   0.4037610   0.0000000   0.0000000   0.0000000   0.0000000   0.0000000   0.0000000   0.0000000   0.0000000
 AtZNuc=   6.0000000   7.0000000   6.0000000   6.0000000   6.0000000   6.0000000   6.0000000   6.0000000   8.0000000   6.0000000

  Atom        41          42          43          44          45          46          47          48          49          50
 IAtWgt=          12          16          16          12           1           1           1           1           1           1
 AtmWgt=  12.0000000  15.9949146  15.9949146  12.0000000   1.0078250   1.0078250   1.0078250   1.0078250   1.0078250   1.0078250
 NucSpn=           0           0           0           0           1           1           1           1           1           1
 AtZEff=  -0.0000000  -0.0000000  -0.0000000  -0.0000000  -0.0000000  -0.0000000  -0.0000000  -0.0000000  -0.0000000  -0.0000000
 NQMom=    0.0000000   0.0000000   0.0000000   0.0000000   0.0000000   0.0000000   0.0000000   0.0000000   0.0000000   0.0000000
 NMagM=    0.0000000   0.0000000   0.0000000   0.0000000   2.7928460   2.7928460   2.7928460   2.7928460   2.7928460   2.7928460
 AtZNuc=   6.0000000   8.0000000   8.0000000   6.0000000   1.0000000   1.0000000   1.0000000   1.0000000   1.0000000   1.0000000

  Atom        51          52          53          54          55          56          57          58          59          60
 IAtWgt=           1           1           1           1           1           1           1           1           1           1
 AtmWgt=   1.0078250   1.0078250   1.0078250   1.0078250   1.0078250   1.0078250   1.0078250   1.0078250   1.0078250   1.0078250
 NucSpn=           1           1           1           1           1           1           1           1           1           1
 AtZEff=  -0.0000000  -0.0000000  -0.0000000  -0.0000000  -0.0000000  -0.0000000  -0.0000000  -0.0000000  -0.0000000  -0.0000000
 NQMom=    0.0000000   0.0000000   0.0000000   0.0000000   0.0000000   0.0000000   0.0000000   0.0000000   0.0000000   0.0000000
 NMagM=    2.7928460   2.7928460   2.7928460   2.7928460   2.7928460   2.7928460   2.7928460   2.7928460   2.7928460   2.7928460
 AtZNuc=   1.0000000   1.0000000   1.0000000   1.0000000   1.0000000   1.0000000   1.0000000   1.0000000   1.0000000   1.0000000

  Atom        61          62          63          64          65          66          67          68          69          70
 IAtWgt=           1           1           1           1           1           1           1           1           1           1
 AtmWgt=   1.0078250   1.0078250   1.0078250   1.0078250   1.0078250   1.0078250   1.0078250   1.0078250   1.0078250   1.0078250
 NucSpn=           1           1           1           1           1           1           1           1           1           1
 AtZEff=  -0.0000000  -0.0000000  -0.0000000  -0.0000000  -0.0000000  -0.0000000  -0.0000000  -0.0000000  -0.0000000  -0.0000000
 NQMom=    0.0000000   0.0000000   0.0000000   0.0000000   0.0000000   0.0000000   0.0000000   0.0000000   0.0000000   0.0000000
 NMagM=    2.7928460   2.7928460   2.7928460   2.7928460   2.7928460   2.7928460   2.7928460   2.7928460   2.7928460   2.7928460
 AtZNuc=   1.0000000   1.0000000   1.0000000   1.0000000   1.0000000   1.0000000   1.0000000   1.0000000   1.0000000   1.0000000

  Atom        71          72          73          74          75          76          77          78          79          80
 IAtWgt=           1           1           1           1           1           1           1           1           1          24
 AtmWgt=   1.0078250   1.0078250   1.0078250   1.0078250   1.0078250   1.0078250   1.0078250   1.0078250   1.0078250  23.9850450
 NucSpn=           1           1           1           1           1           1           1           1           1           0
 AtZEff=  -0.0000000  -0.0000000  -0.0000000  -0.0000000  -0.0000000  -0.0000000  -0.0000000  -0.0000000  -0.0000000  -0.0000000
 NQMom=    0.0000000   0.0000000   0.0000000   0.0000000   0.0000000   0.0000000   0.0000000   0.0000000   0.0000000   0.0000000
 NMagM=    2.7928460   2.7928460   2.7928460   2.7928460   2.7928460   2.7928460   2.7928460   2.7928460   2.7928460   0.0000000
 AtZNuc=   1.0000000   1.0000000   1.0000000   1.0000000   1.0000000   1.0000000   1.0000000   1.0000000   1.0000000  12.0000000

  Atom        81          82          83          84          85          86          87          88          89          90
 IAtWgt=          12          12          12          12          14          12          12          12          12          12
 AtmWgt=  12.0000000  12.0000000  12.0000000  12.0000000  14.0030740  12.0000000  12.0000000  12.0000000  12.0000000  12.0000000
 NucSpn=           0           0           0           0           2           0           0           0           0           0
 AtZEff=  -0.0000000  -0.0000000  -0.0000000  -0.0000000  -0.0000000  -0.0000000  -0.0000000  -0.0000000  -0.0000000  -0.0000000
 NQMom=    0.0000000   0.0000000   0.0000000   0.0000000   2.0440000   0.0000000   0.0000000   0.0000000   0.0000000   0.0000000
 NMagM=    0.0000000   0.0000000   0.0000000   0.0000000   0.4037610   0.0000000   0.0000000   0.0000000   0.0000000   0.0000000
 AtZNuc=   6.0000000   6.0000000   6.0000000   6.0000000   7.0000000   6.0000000   6.0000000   6.0000000   6.0000000   6.0000000

  Atom        91          92          93          94          95          96          97          98          99         100
 IAtWgt=          12          12           1          14          12          12          12          12          12          12
 AtmWgt=  12.0000000  12.0000000   1.0078250  14.0030740  12.0000000  12.0000000  12.0000000  12.0000000  12.0000000  12.0000000
 NucSpn=           0           0           1           2           0           0           0           0           0           0
 AtZEff=  -0.0000000  -0.0000000  -0.0000000  -0.0000000  -0.0000000  -0.0000000  -0.0000000  -0.0000000  -0.0000000  -0.0000000
 NQMom=    0.0000000   0.0000000   0.0000000   2.0440000   0.0000000   0.0000000   0.0000000   0.0000000   0.0000000   0.0000000
 NMagM=    0.0000000   0.0000000   2.7928460   0.4037610   0.0000000   0.0000000   0.0000000   0.0000000   0.0000000   0.0000000
 AtZNuc=   6.0000000   6.0000000   1.0000000   7.0000000   6.0000000   6.0000000   6.0000000   6.0000000   6.0000000   6.0000000

  Atom       101         102         103         104         105         106         107         108         109         110
 IAtWgt=          16          12          14          12          12          12          12          12          12          12
 AtmWgt=  15.9949146  12.0000000  14.0030740  12.0000000  12.0000000  12.0000000  12.0000000  12.0000000  12.0000000  12.0000000
 NucSpn=           0           0           2           0           0           0           0           0           0           0
 AtZEff=  -0.0000000  -0.0000000  -0.0000000  -0.0000000  -0.0000000  -0.0000000  -0.0000000  -0.0000000  -0.0000000  -0.0000000
 NQMom=    0.0000000   0.0000000   2.0440000   0.0000000   0.0000000   0.0000000   0.0000000   0.0000000   0.0000000   0.0000000
 NMagM=    0.0000000   0.0000000   0.4037610   0.0000000   0.0000000   0.0000000   0.0000000   0.0000000   0.0000000   0.0000000
 AtZNuc=   8.0000000   6.0000000   7.0000000   6.0000000   6.0000000   6.0000000   6.0000000   6.0000000   6.0000000   6.0000000

  Atom       111         112         113         114         115         116         117         118         119         120
 IAtWgt=          14          12          12          12          12          12          12          16          12          12
 AtmWgt=  14.0030740  12.0000000  12.0000000  12.0000000  12.0000000  12.0000000  12.0000000  15.9949146  12.0000000  12.0000000
 NucSpn=           2           0           0           0           0           0           0           0           0           0
 AtZEff=  -0.0000000  -0.0000000  -0.0000000  -0.0000000  -0.0000000  -0.0000000  -0.0000000  -0.0000000  -0.0000000  -0.0000000
 NQMom=    2.0440000   0.0000000   0.0000000   0.0000000   0.0000000   0.0000000   0.0000000   0.0000000   0.0000000   0.0000000
 NMagM=    0.4037610   0.0000000   0.0000000   0.0000000   0.0000000   0.0000000   0.0000000   0.0000000   0.0000000   0.0000000
 AtZNuc=   7.0000000   6.0000000   6.0000000   6.0000000   6.0000000   6.0000000   6.0000000   8.0000000   6.0000000   6.0000000

  Atom       121         122         123         124         125         126         127         128         129         130
 IAtWgt=          16          16          12           1           1           1           1           1           1           1
 AtmWgt=  15.9949146  15.9949146  12.0000000   1.0078250   1.0078250   1.0078250   1.0078250   1.0078250   1.0078250   1.0078250
 NucSpn=           0           0           0           1           1           1           1           1           1           1
 AtZEff=  -0.0000000  -0.0000000  -0.0000000  -0.0000000  -0.0000000  -0.0000000  -0.0000000  -0.0000000  -0.0000000  -0.0000000
 NQMom=    0.0000000   0.0000000   0.0000000   0.0000000   0.0000000   0.0000000   0.0000000   0.0000000   0.0000000   0.0000000
 NMagM=    0.0000000   0.0000000   0.0000000   2.7928460   2.7928460   2.7928460   2.7928460   2.7928460   2.7928460   2.7928460
 AtZNuc=   8.0000000   8.0000000   6.0000000   1.0000000   1.0000000   1.0000000   1.0000000   1.0000000   1.0000000   1.0000000

  Atom       131         132         133         134         135         136         137         138         139         140
 IAtWgt=           1           1           1           1           1           1           1           1           1           1
 AtmWgt=   1.0078250   1.0078250   1.0078250   1.0078250   1.0078250   1.0078250   1.0078250   1.0078250   1.0078250   1.0078250
 NucSpn=           1           1           1           1           1           1           1           1           1           1
 AtZEff=  -0.0000000  -0.0000000  -0.0000000  -0.0000000  -0.0000000  -0.0000000  -0.0000000  -0.0000000  -0.0000000  -0.0000000
 NQMom=    0.0000000   0.0000000   0.0000000   0.0000000   0.0000000   0.0000000   0.0000000   0.0000000   0.0000000   0.0000000
 NMagM=    2.7928460   2.7928460   2.7928460   2.7928460   2.7928460   2.7928460   2.7928460   2.7928460   2.7928460   2.7928460
 AtZNuc=   1.0000000   1.0000000   1.0000000   1.0000000   1.0000000   1.0000000   1.0000000   1.0000000   1.0000000   1.0000000

  Atom       141         142         143         144         145         146         147         148         149         150
 IAtWgt=           1           1           1           1           1           1           1           1           1           1
 AtmWgt=   1.0078250   1.0078250   1.0078250   1.0078250   1.0078250   1.0078250   1.0078250   1.0078250   1.0078250   1.0078250
 NucSpn=           1           1           1           1           1           1           1           1           1           1
 AtZEff=  -0.0000000  -0.0000000  -0.0000000  -0.0000000  -0.0000000  -0.0000000  -0.0000000  -0.0000000  -0.0000000  -0.0000000
 NQMom=    0.0000000   0.0000000   0.0000000   0.0000000   0.0000000   0.0000000   0.0000000   0.0000000   0.0000000   0.0000000
 NMagM=    2.7928460   2.7928460   2.7928460   2.7928460   2.7928460   2.7928460   2.7928460   2.7928460   2.7928460   2.7928460
 AtZNuc=   1.0000000   1.0000000   1.0000000   1.0000000   1.0000000   1.0000000   1.0000000   1.0000000   1.0000000   1.0000000

  Atom       151         152         153         154         155         156         157         158
 IAtWgt=           1           1           1           1           1           1           1           1
 AtmWgt=   1.0078250   1.0078250   1.0078250   1.0078250   1.0078250   1.0078250   1.0078250   1.0078250
 NucSpn=           1           1           1           1           1           1           1           1
 AtZEff=  -0.0000000  -0.0000000  -0.0000000  -0.0000000  -0.0000000  -0.0000000  -0.0000000  -0.0000000
 NQMom=    0.0000000   0.0000000   0.0000000   0.0000000   0.0000000   0.0000000   0.0000000   0.0000000
 NMagM=    2.7928460   2.7928460   2.7928460   2.7928460   2.7928460   2.7928460   2.7928460   2.7928460
 AtZNuc=   1.0000000   1.0000000   1.0000000   1.0000000   1.0000000   1.0000000   1.0000000   1.0000000
 Leave Link  101 at Sun Sep 12 12:49:34 2021, MaxMem= 23488102400 cpu:               3.2 elap:               0.2
 (Enter /sw/apps/gaussian-16.0/g16/l202.exe)
 Stoichiometry    C68H72Mg2N8O8
 Framework group  C1[X(C68H72Mg2N8O8)]
 Deg. of freedom   468
 Full point group                 C1      NOp   1
 Largest Abelian subgroup         C1      NOp   1
 Largest concise Abelian subgroup C1      NOp   1
                         Standard orientation:                         
 ---------------------------------------------------------------------
 Center     Atomic      Atomic             Coordinates (Angstroms)
 Number     Number       Type             X           Y           Z
 ---------------------------------------------------------------------
      1         12           0       15.787066   -0.627463    0.415039
      2          6           0       16.088992    2.154891   -1.816454
      3          6           0       16.746450    1.473574    2.926670
      4          6           0       15.968009   -3.158957    2.316464
      5          6           0       15.965321   -2.700129   -2.381020
      6          7           0       16.320779    1.520935    0.428469
      7          6           0       16.338679    2.488143   -0.483321
      8          6           0       16.573603    3.904139    0.122598
      9          6           0       17.314018    3.481726    1.469948
     10          6           0       16.733517    2.088840    1.639692
     11          6           0       18.828010    3.368375    1.323386
     12          6           0       15.231475    4.654756    0.417549
     13          6           0       15.369616    6.153421    0.700878
     14          1           0       14.325848    7.053470    0.234179
     15          7           0       15.806411   -0.750094    2.386697
     16          6           0       16.213548    0.207908    3.253737
     17          6           0       16.035264   -0.363683    4.605838
     18          6           0       15.670703   -1.799114    4.448587
     19          6           0       15.828106   -1.968959    3.026703
     20          6           0       16.162433    0.441168    5.862736
     21          6           0       15.257750   -2.853538    5.426234
     22          8           0       15.211468   -4.091925    5.111863
     23          6           0       14.990610   -2.403292    6.804260
     24          7           0       16.164372   -2.648962    0.056124
     25          6           0       16.127576   -3.544653    1.048780
     26          6           0       16.145704   -4.947854    0.519030
     27          6           0       15.956818   -4.826011   -1.061865
     28          6           0       15.944194   -3.281918   -1.179711
     29          6           0       17.412344   -5.760718    0.820507
     30          6           0       14.788602   -5.623552   -1.694019
     31          6           0       13.467219   -5.049880   -1.233643
     32          7           0       15.812713   -0.354630   -1.738087
     33          6           0       15.914018   -1.356815   -2.713811
     34          6           0       16.000852   -0.679976   -4.020875
     35          6           0       15.960454    0.678126   -3.711406
     36          6           0       15.881515    0.839831   -2.298639
     37          6           0       16.159826   -1.319808   -5.281738
     38          6           0       15.990442    2.030644   -4.243998
     39          8           0       15.956921    2.518293   -5.374735
     40          6           0       16.197696    3.042082   -3.031617
     41          6           0       15.190944    4.149268   -3.186211
     42          8           0       13.969531    3.925188   -3.062501
     43          8           0       15.829154    5.329191   -3.218017
     44          6           0       14.885488    6.472288   -3.340400
     45          1           0       17.262015    1.976661    3.747058
     46          1           0       15.923453   -4.062504    2.928065
     47          1           0       15.937936   -3.283106   -3.303430
     48          1           0       17.220408    4.550763   -0.470652
     49          1           0       17.027231    4.116508    2.308117
     50          1           0       19.136363    3.471090    0.283055
     51          1           0       19.083552    2.377806    1.700168
     52          1           0       19.334749    4.077882    1.978057
     53          1           0       14.835879    4.320327    1.376571
     54          1           0       14.519405    4.505569   -0.394870
     55          1           0       16.352593    6.525074    0.410124
     56          1           0       15.332240    6.301843    1.780124
     57          1           0       16.599653    1.419881    5.669072
     58          1           0       16.895231   -0.064076    6.491580
     59          1           0       15.214850    0.522773    6.395426
     60          1           0       15.886103   -1.930772    7.208445
     61          1           0       14.621984   -3.277309    7.340040
     62          1           0       14.220803   -1.631421    6.780543
     63          1           0       15.325210   -5.532682    0.932783
     64          1           0       16.837363   -5.167571   -1.606523
     65          1           0       17.218256   -6.693186    1.351108
     66          1           0       18.094670   -5.124889    1.383929
     67          1           0       18.016280   -6.006558   -0.052557
     68          1           0       14.818377   -6.662526   -1.367533
     69          1           0       14.803737   -5.617852   -2.783968
     70          1           0       13.314200   -5.534090   -0.269819
     71          1           0       12.673545   -5.313641   -1.933446
     72          1           0       13.540601   -3.977523   -1.051565
     73          1           0       15.478243   -0.816434   -5.967324
     74          1           0       15.940038   -2.385140   -5.215676
     75          1           0       17.213713   -1.122198   -5.477004
     76          1           0       17.221854    3.407547   -3.099860
     77          1           0       15.185386    7.043427   -4.219089
     78          1           0       14.892111    6.983997   -2.377843
     79          1           0       13.856065    6.221953   -3.599165
     80         12           0      -15.932966    0.551102    0.483179
     81          6           0      -15.658894   -1.767072   -2.242621
     82          6           0      -16.364438   -2.140734    2.533167
     83          6           0      -16.626082    2.573246    2.827945
     84          6           0      -16.619401    3.025851   -1.872687
     85          7           0      -15.984625   -1.622976    0.079486
     86          6           0      -15.807307   -2.389833   -0.985805
     87          6           0      -15.707634   -3.907663   -0.676300
     88          6           0      -16.504909   -3.921702    0.717630
     89          6           0      -16.244034   -2.484216    1.162897
     90          6           0      -18.004221   -4.105635    0.551562
     91          6           0      -14.223863   -4.384383   -0.494185
     92          6           0      -14.031224   -5.902478   -0.496822
     93          1           0      -12.817647   -6.449046   -1.097633
     94          7           0      -15.937823    0.284241    2.449728
     95          6           0      -16.103336   -0.879602    3.112566
     96          6           0      -16.047065   -0.539605    4.542738
     97          6           0      -15.999748    0.942295    4.671084
     98          6           0      -16.211671    1.333231    3.291829
     99          6           0      -15.962112   -1.578161    5.623298
    100          6           0      -15.809657    1.856520    5.843366
    101          8           0      -16.041034    3.114473    5.760697
    102          6           0      -15.434717    1.222052    7.115520
    103          7           0      -16.742356    2.466024    0.500434
    104          6           0      -16.890381    3.143648    1.652317
    105          6           0      -17.230320    4.592011    1.393340
    106          6           0      -17.041287    4.802868   -0.180633
    107          6           0      -16.695978    3.354325   -0.590344
    108          6           0      -18.637969    5.027840    1.799504
    109          6           0      -16.088213    5.944777   -0.628269
    110          6           0      -14.664814    5.608799   -0.245589
    111          7           0      -15.932580    0.688982   -1.672985
    112          6           0      -16.276586    1.812712   -2.455910
    113          6           0      -16.235412    1.387193   -3.870005
    114          6           0      -15.890015    0.028664   -3.810066
    115          6           0      -15.747158   -0.369759   -2.453473
    116          6           0      -16.543772    2.204370   -4.993950
    117          6           0      -15.624179   -1.161580   -4.585525
    118          8           0      -15.512151   -1.409620   -5.785386
    119          6           0      -15.586501   -2.408500   -3.600555
    120          6           0      -14.363876   -3.221568   -3.927066
    121          8           0      -13.226244   -2.753908   -3.743439
    122          8           0      -14.734729   -4.486983   -4.194554
    123          6           0      -13.555384   -5.335055   -4.513520
    124          1           0      -16.734383   -2.896260    3.226853
    125          1           0      -16.771051    3.338765    3.593740
    126          1           0      -16.725178    3.763055   -2.671446
    127          1           0      -16.202262   -4.551071   -1.394040
    128          1           0      -16.062213   -4.624358    1.418802
    129          1           0      -18.300974   -4.078142   -0.486378
    130          1           0      -18.462731   -3.291762    1.097839
    131          1           0      -18.328855   -5.023644    1.049758
    132          1           0      -13.897115   -4.155300    0.528313
    133          1           0      -13.586882   -3.938012   -1.232858
    134          1           0      -14.916815   -6.429712   -0.871930
    135          1           0      -13.935284   -6.241904    0.537395
    136          1           0      -16.183424   -2.580442    5.236193
    137          1           0      -16.775269   -1.373536    6.328120
    138          1           0      -15.012278   -1.549311    6.161506
    139          1           0      -16.195404    0.497214    7.395559
    140          1           0      -15.257453    2.044525    7.811195
    141          1           0      -14.505359    0.661155    6.966180
    142          1           0      -16.549460    5.249228    1.920213
    143          1           0      -17.991667    5.051341   -0.675477
    144          1           0      -18.644271    5.874083    2.512176
    145          1           0      -19.152052    4.173387    2.219220
    146          1           0      -19.290773    5.307885    0.974505
    147          1           0      -16.338604    6.872728   -0.108303
    148          1           0      -16.130641    6.150477   -1.692638
    149          1           0      -14.609815    5.923365    0.800888
    150          1           0      -13.961072    6.164272   -0.862224
    151          1           0      -14.494779    4.526233   -0.273749
    152          1           0      -15.788625    2.002760   -5.742011
    153          1           0      -16.566545    3.258353   -4.724908
    154          1           0      -17.537181    1.823368   -5.245421
    155          1           0      -16.506726   -2.973898   -3.752458
    156          1           0      -13.741370   -5.785422   -5.493447
    157          1           0      -13.442273   -6.024297   -3.655672
    158          1           0      -12.610103   -4.834234   -4.686917
 ---------------------------------------------------------------------
 Rotational constants (GHZ):           0.0204349           0.0016272           0.0016251
 Leave Link  202 at Sun Sep 12 12:49:34 2021, MaxMem= 23488102400 cpu:               0.2 elap:               0.0
 (Enter /sw/apps/gaussian-16.0/g16/l301.exe)
 Standard basis: def2SVP (5D, 7F)
 Ernie: Thresh=  0.10000D-02 Tol=  0.10000D-05 Strict=F.
 There are  1658 symmetry adapted cartesian basis functions of A   symmetry.
 There are  1572 symmetry adapted basis functions of A   symmetry.
  1572 basis functions,  2678 primitive gaussians,  1658 cartesian basis functions
   312 alpha electrons      312 beta electrons
       nuclear repulsion energy     12305.2532257477 Hartrees.
 IExCor=20419 DFT=T Ex+Corr=CAM-B3LYP ExCW=0 ScaHFX=  1.000000
 ScaDFX=  1.000000  1.000000  1.000000  0.810000 ScalE2=  1.000000  1.000000
 IRadAn=      5 IRanWt=     -1 IRanGd=            0 ICorTp=0 IEmpDi=  4
 HFx  wShort=  0.000000 wLong=  0.330000 cFull=  0.190000 cShort=  0.000000 cLong=  0.460000
 DFx  wShort=  0.000000 wLong=  0.330000 cFull=  0.190000 cShort=  0.000000 cLong=  0.460000
 NAtoms=  158 NActive=  158 NUniq=  158 SFac= 1.00D+00 NAtFMM=   60 NAOKFM=T Big=T
 Integral buffers will be    131072 words long.
 Raffenetti 1 integral format.
 Two-electron integral symmetry is turned on.
 Leave Link  301 at Sun Sep 12 12:49:34 2021, MaxMem= 23488102400 cpu:               1.3 elap:               0.1
 (Enter /sw/apps/gaussian-16.0/g16/l302.exe)
 NPDir=0 NMtPBC=     1 NCelOv=     1 NCel=       1 NClECP=     1 NCelD=      1
         NCelK=      1 NCelE2=     1 NClLst=     1 CellRange=     0.0.
 One-electron integrals computed using PRISM.
 One-electron integral symmetry used in STVInt
   1 Symmetry operations used in ECPInt.
 ECPInt:  NShTT=  271216 NPrTT=  987664 LenC2=  103957 LenP2D=  239866.
 LDataN:  DoStor=T MaxTD1= 4 Len=   56
 NBasis=  1572 RedAO= T EigKep=  3.36D-04  NBF=  1572
 NBsUse=  1572 1.00D-06 EigRej= -1.00D+00 NBFU=  1572
 Precomputing XC quadrature grid using
 IXCGrd= 4 IRadAn=           5 IRanWt=          -1 IRanGd=           0 AccXCQ= 0.00D+00.
 Generated NRdTot=       0 NPtTot=           0 NUsed=           0 NTot=          32
 NSgBfM=   812   812   812   812   812 MxSgAt=   158 MxSgA2=    79.
 Leave Link  302 at Sun Sep 12 12:49:38 2021, MaxMem= 23488102400 cpu:              99.3 elap:               4.2
 (Enter /sw/apps/gaussian-16.0/g16/l303.exe)
 DipDrv:  MaxL=1.
 Leave Link  303 at Sun Sep 12 12:49:39 2021, MaxMem= 23488102400 cpu:               8.4 elap:               0.4
 (Enter /sw/apps/gaussian-16.0/g16/l308.exe)
 Leave Link  308 at Sun Sep 12 12:49:40 2021, MaxMem= 23488102400 cpu:              14.1 elap:               0.7
 (Enter /sw/apps/gaussian-16.0/g16/l401.exe)
 ExpMin= 3.36D-02 ExpMax= 4.95D+03 ExpMxC= 7.45D+02 IAcc=3 IRadAn=         5 AccDes= 0.00D+00
 Harris functional with IExCor=20419 and IRadAn=       5 diagonalized for initial guess.
 HarFok:  IExCor=20419 AccDes= 0.00D+00 IRadAn=         5 IDoV= 1 UseB2=F ITyADJ=14
 ICtDFT=  3500011 ScaDFX=  1.000000  1.000000  1.000000  1.000000
 FoFCou: FMM=F IPFlag=           0 FMFlag=      100000 FMFlg1=        2001
         NFxFlg=           0 DoJE=T BraDBF=F KetDBF=T FulRan=T
         wScrn=  0.000000 ICntrl=       500 IOpCl=  0 I1Cent=   200000004 NGrid=           0
         NMat0=    1 NMatS0=      1 NMatT0=    0 NMatD0=    1 NMtDS0=    0 NMtDT0=    0
 Petite list used in FoFCou.
 Harris En= -3918.65801142082    
 JPrj=0 DoOrth=F DoCkMO=F.
 Leave Link  401 at Sun Sep 12 12:49:46 2021, MaxMem= 23488102400 cpu:             156.0 elap:               6.5
 (Enter /sw/apps/gaussian-16.0/g16/l502.exe)
 Integral symmetry usage will be decided dynamically.
 Closed shell SCF:
 Using DIIS extrapolation, IDIIS=  1040.
 NGot= 23488102400 LenX= 23482547354 LenY= 23479796732
 Requested convergence on RMS density matrix=1.00D-08 within 128 cycles.
 Requested convergence on MAX density matrix=1.00D-06.
 Requested convergence on             energy=1.00D-06.
 No special actions if energy rises.
 Fock matrices will be formed incrementally for  20 cycles.

 Cycle   1  Pass 1  IDiag  1:
 FoFJK:  IHMeth= 1 ICntrl=       0 DoSepK=T KAlg= 0 I1Cent=           0 FoldK=F
 IRaf=         1 NMat=       1 IRICut=       1 DoRegI=T DoRafI=F ISym2E= 0 IDoP0=0 IntGTp=1.
 FoFCou: FMM=T IPFlag=           0 FMFlag=      100000 FMFlg1=        2001
         NFxFlg=           0 DoJE=T BraDBF=F KetDBF=F FulRan=T
         wScrn=  0.000000 ICntrl=       500 IOpCl=  0 I1Cent=           0 NGrid=           0
         NMat0=    1 NMatS0=      1 NMatT0=    0 NMatD0=    1 NMtDS0=    0 NMtDT0=    0
 Symmetry not used in FoFCou.
 FMM levels:  10  Number of levels for PrismC:   9
 E= -4068.94926064253    
 DIIS: error= 2.04D-02 at cycle   1 NSaved=   1.
 NSaved= 1 IEnMin= 1 EnMin= -4068.94926064253     IErMin= 1 ErrMin= 2.04D-02
 ErrMax= 2.04D-02  0.00D+00 EMaxC= 1.00D-01 BMatC= 1.69D+00 BMatP= 1.69D+00
 IDIUse=3 WtCom= 7.96D-01 WtEn= 2.04D-01
 Coeff-Com:  0.100D+01
 Coeff-En:   0.100D+01
 Coeff:      0.100D+01
 Gap=     0.120 Goal=   None    Shift=    0.000
 GapD=    0.120 DampG=1.000 DampE=0.500 DampFc=0.5000 IDamp=-1.
 Damping current iteration by 5.00D-01
 RMSDP=1.57D-03 MaxDP=1.35D-01              OVMax= 2.03D-01

 Cycle   2  Pass 1  IDiag  1:
 RMSU=  7.69D-04    CP:  9.82D-01
 E= -4069.33817733212     Delta-E=       -0.388916689590 Rises=F Damp=T
 DIIS: error= 1.27D-02 at cycle   2 NSaved=   2.
 NSaved= 2 IEnMin= 2 EnMin= -4069.33817733212     IErMin= 2 ErrMin= 1.27D-02
 ErrMax= 1.27D-02  0.00D+00 EMaxC= 1.00D-01 BMatC= 3.07D-01 BMatP= 1.69D+00
 IDIUse=3 WtCom= 8.73D-01 WtEn= 1.27D-01
 Coeff-Com: -0.213D+00 0.121D+01
 Coeff-En:   0.000D+00 0.100D+01
 Coeff:     -0.186D+00 0.119D+01
 Gap=     0.138 Goal=   None    Shift=    0.000
 RMSDP=7.65D-04 MaxDP=9.44D-02 DE=-3.89D-01 OVMax= 1.88D-01

 Cycle   3  Pass 1  IDiag  1:
 RMSU=  7.32D-04    CP:  9.68D-01  1.24D+00
 E= -4069.62794794925     Delta-E=       -0.289770617132 Rises=F Damp=F
 DIIS: error= 1.58D-02 at cycle   3 NSaved=   3.
 NSaved= 3 IEnMin= 3 EnMin= -4069.62794794925     IErMin= 2 ErrMin= 1.27D-02
 ErrMax= 1.58D-02  0.00D+00 EMaxC= 1.00D-01 BMatC= 2.02D-01 BMatP= 3.07D-01
 IDIUse=3 WtCom= 8.42D-01 WtEn= 1.58D-01
 Coeff-Com: -0.267D+00 0.652D+00 0.616D+00
 Coeff-En:   0.000D+00 0.000D+00 0.100D+01
 Coeff:     -0.225D+00 0.549D+00 0.676D+00
 Gap=     0.125 Goal=   None    Shift=    0.000
 RMSDP=5.08D-04 MaxDP=4.92D-02 DE=-2.90D-01 OVMax= 1.43D-01

 Cycle   4  Pass 1  IDiag  1:
 RMSU=  2.65D-04    CP:  9.65D-01  1.55D+00  5.06D-01
 E= -4069.76504703099     Delta-E=       -0.137099081747 Rises=F Damp=F
 DIIS: error= 7.32D-03 at cycle   4 NSaved=   4.
 NSaved= 4 IEnMin= 4 EnMin= -4069.76504703099     IErMin= 4 ErrMin= 7.32D-03
 ErrMax= 7.32D-03  0.00D+00 EMaxC= 1.00D-01 BMatC= 5.04D-02 BMatP= 2.02D-01
 IDIUse=3 WtCom= 9.27D-01 WtEn= 7.32D-02
 Coeff-Com: -0.109D+00 0.226D+00 0.409D+00 0.474D+00
 Coeff-En:   0.000D+00 0.000D+00 0.221D+00 0.779D+00
 Coeff:     -0.101D+00 0.209D+00 0.395D+00 0.497D+00
 Gap=     0.123 Goal=   None    Shift=    0.000
 RMSDP=2.00D-04 MaxDP=2.09D-02 DE=-1.37D-01 OVMax= 6.18D-02

 Cycle   5  Pass 1  IDiag  1:
 RMSU=  7.58D-05    CP:  9.64D-01  1.49D+00  6.89D-01  5.49D-01
 E= -4069.81052240245     Delta-E=       -0.045475371458 Rises=F Damp=F
 DIIS: error= 7.88D-04 at cycle   5 NSaved=   5.
 NSaved= 5 IEnMin= 5 EnMin= -4069.81052240245     IErMin= 5 ErrMin= 7.88D-04
 ErrMax= 7.88D-04  0.00D+00 EMaxC= 1.00D-01 BMatC= 1.17D-03 BMatP= 5.04D-02
 IDIUse=3 WtCom= 9.92D-01 WtEn= 7.88D-03
 Coeff-Com: -0.357D-01 0.702D-01 0.165D+00 0.249D+00 0.551D+00
 Coeff-En:   0.000D+00 0.000D+00 0.000D+00 0.000D+00 0.100D+01
 Coeff:     -0.355D-01 0.696D-01 0.164D+00 0.247D+00 0.555D+00
 Gap=     0.122 Goal=   None    Shift=    0.000
 RMSDP=4.07D-05 MaxDP=4.17D-03 DE=-4.55D-02 OVMax= 1.64D-02

 Cycle   6  Pass 1  IDiag  1:
 RMSU=  3.02D-05    CP:  9.64D-01  1.49D+00  6.81D-01  6.21D-01  7.59D-01
 E= -4069.81152965355     Delta-E=       -0.001007251094 Rises=F Damp=F
 DIIS: error= 2.19D-04 at cycle   6 NSaved=   6.
 NSaved= 6 IEnMin= 6 EnMin= -4069.81152965355     IErMin= 6 ErrMin= 2.19D-04
 ErrMax= 2.19D-04  0.00D+00 EMaxC= 1.00D-01 BMatC= 1.76D-04 BMatP= 1.17D-03
 IDIUse=3 WtCom= 9.98D-01 WtEn= 2.19D-03
 Coeff-Com:  0.231D-02-0.678D-02 0.109D-01 0.398D-01 0.306D+00 0.648D+00
 Coeff-En:   0.000D+00 0.000D+00 0.000D+00 0.000D+00 0.102D+00 0.898D+00
 Coeff:      0.230D-02-0.676D-02 0.108D-01 0.397D-01 0.306D+00 0.648D+00
 Gap=     0.123 Goal=   None    Shift=    0.000
 RMSDP=1.58D-05 MaxDP=1.24D-03 DE=-1.01D-03 OVMax= 7.24D-03

 Cycle   7  Pass 1  IDiag  1:
 RMSU=  1.07D-05    CP:  9.64D-01  1.50D+00  6.87D-01  6.21D-01  8.60D-01
                    CP:  7.50D-01
 E= -4069.81171804679     Delta-E=       -0.000188393242 Rises=F Damp=F
 DIIS: error= 8.38D-05 at cycle   7 NSaved=   7.
 NSaved= 7 IEnMin= 7 EnMin= -4069.81171804679     IErMin= 7 ErrMin= 8.38D-05
 ErrMax= 8.38D-05  0.00D+00 EMaxC= 1.00D-01 BMatC= 2.07D-05 BMatP= 1.76D-04
 IDIUse=1 WtCom= 1.00D+00 WtEn= 0.00D+00
 Coeff-Com:  0.445D-02-0.974D-02-0.898D-02-0.382D-02 0.102D+00 0.329D+00
 Coeff-Com:  0.587D+00
 Coeff:      0.445D-02-0.974D-02-0.898D-02-0.382D-02 0.102D+00 0.329D+00
 Coeff:      0.587D+00
 Gap=     0.123 Goal=   None    Shift=    0.000
 RMSDP=6.50D-06 MaxDP=1.11D-03 DE=-1.88D-04 OVMax= 3.41D-03

 Cycle   8  Pass 1  IDiag  1:
 RMSU=  4.67D-06    CP:  9.64D-01  1.50D+00  6.88D-01  6.26D-01  8.64D-01
                    CP:  8.76D-01  8.23D-01
 E= -4069.81174376212     Delta-E=       -0.000025715330 Rises=F Damp=F
 DIIS: error= 5.00D-05 at cycle   8 NSaved=   8.
 NSaved= 8 IEnMin= 8 EnMin= -4069.81174376212     IErMin= 8 ErrMin= 5.00D-05
 ErrMax= 5.00D-05  0.00D+00 EMaxC= 1.00D-01 BMatC= 4.82D-06 BMatP= 2.07D-05
 IDIUse=1 WtCom= 1.00D+00 WtEn= 0.00D+00
 Coeff-Com:  0.215D-02-0.426D-02-0.775D-02-0.121D-01-0.117D-01 0.336D-01
 Coeff-Com:  0.344D+00 0.656D+00
 Coeff:      0.215D-02-0.426D-02-0.775D-02-0.121D-01-0.117D-01 0.336D-01
 Coeff:      0.344D+00 0.656D+00
 Gap=     0.123 Goal=   None    Shift=    0.000
 RMSDP=3.27D-06 MaxDP=3.52D-04 DE=-2.57D-05 OVMax= 1.11D-03

 Cycle   9  Pass 1  IDiag  1:
 RMSU=  1.91D-06    CP:  9.64D-01  1.50D+00  6.88D-01  6.27D-01  8.81D-01
                    CP:  9.02D-01  1.02D+00  9.40D-01
 E= -4069.81175146289     Delta-E=       -0.000007700770 Rises=F Damp=F
 DIIS: error= 1.94D-05 at cycle   9 NSaved=   9.
 NSaved= 9 IEnMin= 9 EnMin= -4069.81175146289     IErMin= 9 ErrMin= 1.94D-05
 ErrMax= 1.94D-05  0.00D+00 EMaxC= 1.00D-01 BMatC= 6.88D-07 BMatP= 4.82D-06
 IDIUse=1 WtCom= 1.00D+00 WtEn= 0.00D+00
 Coeff-Com:  0.462D-03-0.767D-03-0.266D-02-0.599D-02-0.212D-01-0.386D-01
 Coeff-Com:  0.104D+00 0.326D+00 0.639D+00
 Coeff:      0.462D-03-0.767D-03-0.266D-02-0.599D-02-0.212D-01-0.386D-01
 Coeff:      0.104D+00 0.326D+00 0.639D+00
 Gap=     0.123 Goal=   None    Shift=    0.000
 RMSDP=1.42D-06 MaxDP=1.50D-04 DE=-7.70D-06 OVMax= 7.45D-04

 Cycle  10  Pass 1  IDiag  1:
 RMSU=  9.38D-07    CP:  9.64D-01  1.50D+00  6.88D-01  6.28D-01  8.84D-01
                    CP:  9.15D-01  1.07D+00  1.11D+00  1.05D+00
 E= -4069.81175304991     Delta-E=       -0.000001587025 Rises=F Damp=F
 DIIS: error= 1.02D-05 at cycle  10 NSaved=  10.
 NSaved=10 IEnMin=10 EnMin= -4069.81175304991     IErMin=10 ErrMin= 1.02D-05
 ErrMax= 1.02D-05  0.00D+00 EMaxC= 1.00D-01 BMatC= 1.71D-07 BMatP= 6.88D-07
 IDIUse=1 WtCom= 1.00D+00 WtEn= 0.00D+00
 Coeff-Com: -0.427D-03 0.895D-03 0.123D-02 0.112D-02-0.376D-02-0.310D-01
 Coeff-Com: -0.465D-01-0.764D-01 0.255D+00 0.900D+00
 Coeff:     -0.427D-03 0.895D-03 0.123D-02 0.112D-02-0.376D-02-0.310D-01
 Coeff:     -0.465D-01-0.764D-01 0.255D+00 0.900D+00
 Gap=     0.123 Goal=   None    Shift=    0.000
 RMSDP=1.22D-06 MaxDP=1.24D-04 DE=-1.59D-06 OVMax= 6.08D-04

 Cycle  11  Pass 1  IDiag  1:
 RMSU=  5.15D-07    CP:  9.64D-01  1.50D+00  6.88D-01  6.28D-01  8.86D-01
                    CP:  9.26D-01  1.11D+00  1.22D+00  1.39D+00  1.37D+00
 E= -4069.81175383778     Delta-E=       -0.000000787863 Rises=F Damp=F
 DIIS: error= 3.99D-06 at cycle  11 NSaved=  11.
 NSaved=11 IEnMin=11 EnMin= -4069.81175383778     IErMin=11 ErrMin= 3.99D-06
 ErrMax= 3.99D-06  0.00D+00 EMaxC= 1.00D-01 BMatC= 6.10D-08 BMatP= 1.71D-07
 IDIUse=1 WtCom= 1.00D+00 WtEn= 0.00D+00
 Coeff-Com: -0.327D-03 0.635D-03 0.133D-02 0.212D-02 0.443D-02-0.833D-02
 Coeff-Com: -0.436D-01-0.132D+00-0.237D-01 0.464D+00 0.735D+00
 Coeff:     -0.327D-03 0.635D-03 0.133D-02 0.212D-02 0.443D-02-0.833D-02
 Coeff:     -0.436D-01-0.132D+00-0.237D-01 0.464D+00 0.735D+00
 Gap=     0.123 Goal=   None    Shift=    0.000
 RMSDP=6.87D-07 MaxDP=5.84D-05 DE=-7.88D-07 OVMax= 3.72D-04

 Cycle  12  Pass 1  IDiag  1:
 RMSU=  2.63D-07    CP:  9.64D-01  1.50D+00  6.88D-01  6.28D-01  8.87D-01
                    CP:  9.28D-01  1.14D+00  1.28D+00  1.56D+00  1.76D+00
                    CP:  1.20D+00
 E= -4069.81175410094     Delta-E=       -0.000000263160 Rises=F Damp=F
 DIIS: error= 2.34D-06 at cycle  12 NSaved=  12.
 NSaved=12 IEnMin=12 EnMin= -4069.81175410094     IErMin=12 ErrMin= 2.34D-06
 ErrMax= 2.34D-06  0.00D+00 EMaxC= 1.00D-01 BMatC= 1.48D-08 BMatP= 6.10D-08
 IDIUse=1 WtCom= 1.00D+00 WtEn= 0.00D+00
 Coeff-Com:  0.107D-05-0.187D-04 0.175D-03 0.505D-03 0.329D-02 0.409D-02
 Coeff-Com:  0.295D-02-0.346D-01-0.679D-01-0.772D-01 0.249D+00 0.920D+00
 Coeff:      0.107D-05-0.187D-04 0.175D-03 0.505D-03 0.329D-02 0.409D-02
 Coeff:      0.295D-02-0.346D-01-0.679D-01-0.772D-01 0.249D+00 0.920D+00
 Gap=     0.123 Goal=   None    Shift=    0.000
 RMSDP=4.39D-07 MaxDP=3.18D-05 DE=-2.63D-07 OVMax= 2.49D-04

 Cycle  13  Pass 1  IDiag  1:
 RMSU=  1.65D-07    CP:  9.64D-01  1.50D+00  6.88D-01  6.28D-01  8.87D-01
                    CP:  9.28D-01  1.14D+00  1.31D+00  1.67D+00  1.99D+00
                    CP:  1.62D+00  1.28D+00
 E= -4069.81175419300     Delta-E=       -0.000000092059 Rises=F Damp=F
 DIIS: error= 1.25D-06 at cycle  13 NSaved=  13.
 NSaved=13 IEnMin=13 EnMin= -4069.81175419300     IErMin=13 ErrMin= 1.25D-06
 ErrMax= 1.25D-06  0.00D+00 EMaxC= 1.00D-01 BMatC= 8.11D-09 BMatP= 1.48D-08
 IDIUse=1 WtCom= 1.00D+00 WtEn= 0.00D+00
 Coeff-Com:  0.120D-03-0.245D-03-0.371D-03-0.459D-03 0.565D-03 0.508D-02
 Coeff-Com:  0.197D-01 0.228D-01-0.337D-01-0.242D+00-0.157D+00 0.600D+00
 Coeff-Com:  0.785D+00
 Coeff:      0.120D-03-0.245D-03-0.371D-03-0.459D-03 0.565D-03 0.508D-02
 Coeff:      0.197D-01 0.228D-01-0.337D-01-0.242D+00-0.157D+00 0.600D+00
 Coeff:      0.785D+00
 Gap=     0.123 Goal=   None    Shift=    0.000
 RMSDP=3.39D-07 MaxDP=2.27D-05 DE=-9.21D-08 OVMax= 1.96D-04

 Cycle  14  Pass 1  IDiag  1:
 RMSU=  7.60D-08    CP:  9.64D-01  1.50D+00  6.88D-01  6.28D-01  8.88D-01
                    CP:  9.29D-01  1.15D+00  1.33D+00  1.74D+00  2.18D+00
                    CP:  1.88D+00  1.79D+00  1.09D+00
 E= -4069.81175422848     Delta-E=       -0.000000035488 Rises=F Damp=F
 DIIS: error= 6.32D-07 at cycle  14 NSaved=  14.
 NSaved=14 IEnMin=14 EnMin= -4069.81175422848     IErMin=14 ErrMin= 6.32D-07
 ErrMax= 6.32D-07  0.00D+00 EMaxC= 1.00D-01 BMatC= 1.25D-09 BMatP= 8.11D-09
 IDIUse=1 WtCom= 1.00D+00 WtEn= 0.00D+00
 Coeff-Com:  0.662D-04-0.130D-03-0.246D-03-0.386D-03-0.484D-03 0.129D-02
 Coeff-Com:  0.107D-01 0.191D-01 0.379D-02-0.994D-01-0.142D+00 0.941D-01
 Coeff-Com:  0.404D+00 0.710D+00
 Coeff:      0.662D-04-0.130D-03-0.246D-03-0.386D-03-0.484D-03 0.129D-02
 Coeff:      0.107D-01 0.191D-01 0.379D-02-0.994D-01-0.142D+00 0.941D-01
 Coeff:      0.404D+00 0.710D+00
 Gap=     0.123 Goal=   None    Shift=    0.000
 RMSDP=1.01D-07 MaxDP=6.88D-06 DE=-3.55D-08 OVMax= 5.42D-05

 Cycle  15  Pass 1  IDiag  1:
 RMSU=  3.82D-08    CP:  9.64D-01  1.50D+00  6.88D-01  6.28D-01  8.88D-01
                    CP:  9.29D-01  1.15D+00  1.34D+00  1.76D+00  2.22D+00
                    CP:  1.98D+00  1.93D+00  1.32D+00  1.03D+00
 E= -4069.81175423265     Delta-E=       -0.000000004162 Rises=F Damp=F
 DIIS: error= 3.37D-07 at cycle  15 NSaved=  15.
 NSaved=15 IEnMin=15 EnMin= -4069.81175423265     IErMin=15 ErrMin= 3.37D-07
 ErrMax= 3.37D-07  0.00D+00 EMaxC= 1.00D-01 BMatC= 2.26D-10 BMatP= 1.25D-09
 IDIUse=1 WtCom= 1.00D+00 WtEn= 0.00D+00
 Coeff-Com:  0.511D-05-0.844D-05-0.318D-04-0.806D-04-0.299D-03-0.518D-03
 Coeff-Com:  0.111D-02 0.247D-02 0.876D-02 0.198D-02-0.306D-01-0.731D-01
 Coeff-Com:  0.284D-01 0.297D+00 0.764D+00
 Coeff:      0.511D-05-0.844D-05-0.318D-04-0.806D-04-0.299D-03-0.518D-03
 Coeff:      0.111D-02 0.247D-02 0.876D-02 0.198D-02-0.306D-01-0.731D-01
 Coeff:      0.284D-01 0.297D+00 0.764D+00
 Gap=     0.123 Goal=   None    Shift=    0.000
 RMSDP=4.07D-08 MaxDP=2.81D-06 DE=-4.16D-09 OVMax= 2.69D-05

 Cycle  16  Pass 1  IDiag  1:
 RMSU=  1.87D-08    CP:  9.64D-01  1.50D+00  6.88D-01  6.28D-01  8.88D-01
                    CP:  9.29D-01  1.15D+00  1.34D+00  1.76D+00  2.24D+00
                    CP:  2.01D+00  1.99D+00  1.40D+00  1.24D+00  1.14D+00
 E= -4069.81175423361     Delta-E=       -0.000000000964 Rises=F Damp=F
 DIIS: error= 1.64D-07 at cycle  16 NSaved=  16.
 NSaved=16 IEnMin=16 EnMin= -4069.81175423361     IErMin=16 ErrMin= 1.64D-07
 ErrMax= 1.64D-07  0.00D+00 EMaxC= 1.00D-01 BMatC= 8.14D-11 BMatP= 2.26D-10
 IDIUse=1 WtCom= 1.00D+00 WtEn= 0.00D+00
 Coeff-Com: -0.142D-04 0.288D-04 0.471D-04 0.539D-04-0.261D-04-0.633D-03
 Coeff-Com: -0.198D-02-0.426D-02 0.452D-02 0.256D-01 0.206D-01-0.646D-01
 Coeff-Com: -0.833D-01-0.368D-01 0.397D+00 0.743D+00
 Coeff:     -0.142D-04 0.288D-04 0.471D-04 0.539D-04-0.261D-04-0.633D-03
 Coeff:     -0.198D-02-0.426D-02 0.452D-02 0.256D-01 0.206D-01-0.646D-01
 Coeff:     -0.833D-01-0.368D-01 0.397D+00 0.743D+00
 Gap=     0.123 Goal=   None    Shift=    0.000
 RMSDP=2.28D-08 MaxDP=1.52D-06 DE=-9.64D-10 OVMax= 1.30D-05

 Cycle  17  Pass 1  IDiag  1:
 RMSU=  1.04D-08    CP:  9.64D-01  1.50D+00  6.88D-01  6.28D-01  8.88D-01
                    CP:  9.29D-01  1.15D+00  1.34D+00  1.77D+00  2.24D+00
                    CP:  2.02D+00  2.01D+00  1.45D+00  1.34D+00  1.44D+00
                    CP:  1.25D+00
 E= -4069.81175423392     Delta-E=       -0.000000000315 Rises=F Damp=F
 DIIS: error= 9.39D-08 at cycle  17 NSaved=  17.
 NSaved=17 IEnMin=17 EnMin= -4069.81175423392     IErMin=17 ErrMin= 9.39D-08
 ErrMax= 9.39D-08  0.00D+00 EMaxC= 1.00D-01 BMatC= 1.78D-11 BMatP= 8.14D-11
 IDIUse=1 WtCom= 1.00D+00 WtEn= 0.00D+00
 Coeff-Com: -0.717D-05 0.139D-04 0.285D-04 0.424D-04 0.841D-04-0.122D-03
 Coeff-Com: -0.959D-03-0.279D-02 0.130D-03 0.919D-02 0.174D-01-0.720D-02
 Coeff-Com: -0.369D-01-0.101D+00-0.317D-01 0.294D+00 0.860D+00
 Coeff:     -0.717D-05 0.139D-04 0.285D-04 0.424D-04 0.841D-04-0.122D-03
 Coeff:     -0.959D-03-0.279D-02 0.130D-03 0.919D-02 0.174D-01-0.720D-02
 Coeff:     -0.369D-01-0.101D+00-0.317D-01 0.294D+00 0.860D+00
 Gap=     0.123 Goal=   None    Shift=    0.000
 RMSDP=1.37D-08 MaxDP=1.09D-06 DE=-3.15D-10 OVMax= 8.88D-06

 Cycle  18  Pass 1  IDiag  1:
 RMSU=  4.86D-09    CP:  9.64D-01  1.50D+00  6.88D-01  6.28D-01  8.88D-01
                    CP:  9.29D-01  1.15D+00  1.34D+00  1.77D+00  2.24D+00
                    CP:  2.02D+00  2.02D+00  1.47D+00  1.41D+00  1.61D+00
                    CP:  1.66D+00  1.39D+00
 E= -4069.81175423392     Delta-E=        0.000000000004 Rises=F Damp=F
 DIIS: error= 5.08D-08 at cycle  18 NSaved=  18.
 NSaved=18 IEnMin=17 EnMin= -4069.81175423392     IErMin=18 ErrMin= 5.08D-08
 ErrMax= 5.08D-08  0.00D+00 EMaxC= 1.00D-01 BMatC= 6.89D-12 BMatP= 1.78D-11
 IDIUse=1 WtCom= 1.00D+00 WtEn= 0.00D+00
 Coeff-Com:  0.209D-05-0.448D-05-0.471D-05-0.189D-05 0.589D-04 0.184D-03
 Coeff-Com:  0.409D-03 0.237D-03-0.129D-02-0.625D-02-0.189D-03 0.203D-01
 Coeff-Com:  0.186D-01-0.325D-01-0.163D+00-0.193D+00 0.348D+00 0.101D+01
 Coeff:      0.209D-05-0.448D-05-0.471D-05-0.189D-05 0.589D-04 0.184D-03
 Coeff:      0.409D-03 0.237D-03-0.129D-02-0.625D-02-0.189D-03 0.203D-01
 Coeff:      0.186D-01-0.325D-01-0.163D+00-0.193D+00 0.348D+00 0.101D+01
 Gap=     0.123 Goal=   None    Shift=    0.000
 RMSDP=1.18D-08 MaxDP=8.19D-07 DE= 3.64D-12 OVMax= 6.81D-06

 Cycle  19  Pass 1  IDiag  1:
 RMSU=  2.78D-09    CP:  9.64D-01  1.50D+00  6.88D-01  6.28D-01  8.88D-01
                    CP:  9.29D-01  1.15D+00  1.34D+00  1.77D+00  2.24D+00
                    CP:  2.03D+00  2.03D+00  1.48D+00  1.46D+00  1.77D+00
                    CP:  1.99D+00  1.94D+00  1.38D+00
 E= -4069.81175423399     Delta-E=       -0.000000000067 Rises=F Damp=F
 DIIS: error= 3.38D-08 at cycle  19 NSaved=  19.
 NSaved=19 IEnMin=19 EnMin= -4069.81175423399     IErMin=19 ErrMin= 3.38D-08
 ErrMax= 3.38D-08  0.00D+00 EMaxC= 1.00D-01 BMatC= 1.40D-12 BMatP= 6.89D-12
 IDIUse=1 WtCom= 1.00D+00 WtEn= 0.00D+00
 Coeff-Com:  0.286D-05-0.577D-05-0.981D-05-0.123D-04 0.106D-04 0.117D-03
 Coeff-Com:  0.472D-03 0.788D-03-0.583D-03-0.589D-02-0.478D-02 0.119D-01
 Coeff-Com:  0.199D-01 0.113D-01-0.678D-01-0.176D+00-0.337D-01 0.487D+00
 Coeff-Com:  0.757D+00
 Coeff:      0.286D-05-0.577D-05-0.981D-05-0.123D-04 0.106D-04 0.117D-03
 Coeff:      0.472D-03 0.788D-03-0.583D-03-0.589D-02-0.478D-02 0.119D-01
 Coeff:      0.199D-01 0.113D-01-0.678D-01-0.176D+00-0.337D-01 0.487D+00
 Coeff:      0.757D+00
 Gap=     0.123 Goal=   None    Shift=    0.000
 RMSDP=4.48D-09 MaxDP=3.28D-07 DE=-6.73D-11 OVMax= 2.90D-06

 SCF Done:  E(RCAM-B3LYP) =  -4069.81175423     A.U. after   19 cycles
            NFock= 19  Conv=0.45D-08     -V/T= 2.0102
 KE= 4.028802087255D+03 PE=-3.409145467998D+04 EE= 1.368758761274D+04
 Leave Link  502 at Sun Sep 12 12:58:08 2021, MaxMem= 23488102400 cpu:           11445.2 elap:             501.4
 (Enter /sw/apps/gaussian-16.0/g16/l801.exe)
 DoSCS=F DFT=T ScalE2(SS,OS)=  1.000000  1.000000
 ExpMin= 3.36D-02 ExpMax= 4.95D+03 ExpMxC= 7.45D+02 IAcc=3 IRadAn=         5 AccDes= 0.00D+00
 HarFok:  IExCor=  205 AccDes= 0.00D+00 IRadAn=         5 IDoV=-2 UseB2=F ITyADJ=14
 ICtDFT= 12500011 ScaDFX=  1.000000  1.000000  1.000000  1.000000
 GSVD:  LWork=       -9588 too small for GESVD, short by       45590 words or       45590 for optimal perf.
 Largest valence mixing into a core orbital is  2.03D-04
 Largest core mixing into a valence orbital is  5.24D-05
 Range of M.O.s used for correlation:    95  1572
 NBasis=  1572 NAE=   312 NBE=   312 NFC=    94 NFV=     0
 NROrb=   1478 NOA=   218 NOB=   218 NVA=  1260 NVB=  1260
 Leave Link  801 at Sun Sep 12 12:58:08 2021, MaxMem= 23488102400 cpu:               9.7 elap:               0.4
 (Enter /sw/apps/gaussian-16.0/g16/l914.exe)
 RHF ground state
 Two-electron integrals replicated using symmetry.
 MDV= 23488102400 DFT=T DoStab=F Mixed=T DoRPA=T DoScal=F NonHer=T
 Making orbital integer symmetry assigments:
 Orbital symmetries:
       Occupied  (A) (A) (A) (A) (A) (A) (A) (A) (A) (A) (A) (A)
                 (A) (A) (A) (A) (A) (A) (A) (A) (A) (A) (A) (A)
                 (A) (A) (A) (A) (A) (A) (A) (A) (A) (A) (A) (A)
                 (A) (A) (A) (A) (A) (A) (A) (A) (A) (A) (A) (A)
                 (A) (A) (A) (A) (A) (A) (A) (A) (A) (A) (A) (A)
                 (A) (A) (A) (A) (A) (A) (A) (A) (A) (A) (A) (A)
                 (A) (A) (A) (A) (A) (A) (A) (A) (A) (A) (A) (A)
                 (A) (A) (A) (A) (A) (A) (A) (A) (A) (A) (A) (A)
                 (A) (A) (A) (A) (A) (A) (A) (A) (A) (A) (A) (A)
                 (A) (A) (A) (A) (A) (A) (A) (A) (A) (A) (A) (A)
                 (A) (A) (A) (A) (A) (A) (A) (A) (A) (A) (A) (A)
                 (A) (A) (A) (A) (A) (A) (A) (A) (A) (A) (A) (A)
                 (A) (A) (A) (A) (A) (A) (A) (A) (A) (A) (A) (A)
                 (A) (A) (A) (A) (A) (A) (A) (A) (A) (A) (A) (A)
                 (A) (A) (A) (A) (A) (A) (A) (A) (A) (A) (A) (A)
                 (A) (A) (A) (A) (A) (A) (A) (A) (A) (A) (A) (A)
                 (A) (A) (A) (A) (A) (A) (A) (A) (A) (A) (A) (A)
                 (A) (A) (A) (A) (A) (A) (A) (A) (A) (A) (A) (A)
                 (A) (A) (A) (A) (A) (A) (A) (A) (A) (A) (A) (A)
                 (A) (A) (A) (A) (A) (A) (A) (A) (A) (A) (A) (A)
                 (A) (A) (A) (A) (A) (A) (A) (A) (A) (A) (A) (A)
                 (A) (A) (A) (A) (A) (A) (A) (A) (A) (A) (A) (A)
                 (A) (A) (A) (A) (A) (A) (A) (A) (A) (A) (A) (A)
                 (A) (A) (A) (A) (A) (A) (A) (A) (A) (A) (A) (A)
                 (A) (A) (A) (A) (A) (A) (A) (A) (A) (A) (A) (A)
                 (A) (A) (A) (A) (A) (A) (A) (A) (A) (A) (A) (A)
       Virtual   (A) (A) (A) (A) (A) (A) (A) (A) (A) (A) (A) (A)
                 (A) (A) (A) (A) (A) (A) (A) (A) (A) (A) (A) (A)
                 (A) (A) (A) (A) (A) (A) (A) (A) (A) (A) (A) (A)
                 (A) (A) (A) (A) (A) (A) (A) (A) (A) (A) (A) (A)
                 (A) (A) (A) (A) (A) (A) (A) (A) (A) (A) (A) (A)
                 (A) (A) (A) (A) (A) (A) (A) (A) (A) (A) (A) (A)
                 (A) (A) (A) (A) (A) (A) (A) (A) (A) (A) (A) (A)
                 (A) (A) (A) (A) (A) (A) (A) (A) (A) (A) (A) (A)
                 (A) (A) (A) (A) (A) (A) (A) (A) (A) (A) (A) (A)
                 (A) (A) (A) (A) (A) (A) (A) (A) (A) (A) (A) (A)
                 (A) (A) (A) (A) (A) (A) (A) (A) (A) (A) (A) (A)
                 (A) (A) (A) (A) (A) (A) (A) (A) (A) (A) (A) (A)
                 (A) (A) (A) (A) (A) (A) (A) (A) (A) (A) (A) (A)
                 (A) (A) (A) (A) (A) (A) (A) (A) (A) (A) (A) (A)
                 (A) (A) (A) (A) (A) (A) (A) (A) (A) (A) (A) (A)
                 (A) (A) (A) (A) (A) (A) (A) (A) (A) (A) (A) (A)
                 (A) (A) (A) (A) (A) (A) (A) (A) (A) (A) (A) (A)
                 (A) (A) (A) (A) (A) (A) (A) (A) (A) (A) (A) (A)
                 (A) (A) (A) (A) (A) (A) (A) (A) (A) (A) (A) (A)
                 (A) (A) (A) (A) (A) (A) (A) (A) (A) (A) (A) (A)
                 (A) (A) (A) (A) (A) (A) (A) (A) (A) (A) (A) (A)
                 (A) (A) (A) (A) (A) (A) (A) (A) (A) (A) (A) (A)
                 (A) (A) (A) (A) (A) (A) (A) (A) (A) (A) (A) (A)
                 (A) (A) (A) (A) (A) (A) (A) (A) (A) (A) (A) (A)
                 (A) (A) (A) (A) (A) (A) (A) (A) (A) (A) (A) (A)
                 (A) (A) (A) (A) (A) (A) (A) (A) (A) (A) (A) (A)
                 (A) (A) (A) (A) (A) (A) (A) (A) (A) (A) (A) (A)
                 (A) (A) (A) (A) (A) (A) (A) (A) (A) (A) (A) (A)
                 (A) (A) (A) (A) (A) (A) (A) (A) (A) (A) (A) (A)
                 (A) (A) (A) (A) (A) (A) (A) (A) (A) (A) (A) (A)
                 (A) (A) (A) (A) (A) (A) (A) (A) (A) (A) (A) (A)
                 (A) (A) (A) (A) (A) (A) (A) (A) (A) (A) (A) (A)
                 (A) (A) (A) (A) (A) (A) (A) (A) (A) (A) (A) (A)
                 (A) (A) (A) (A) (A) (A) (A) (A) (A) (A) (A) (A)
                 (A) (A) (A) (A) (A) (A) (A) (A) (A) (A) (A) (A)
                 (A) (A) (A) (A) (A) (A) (A) (A) (A) (A) (A) (A)
                 (A) (A) (A) (A) (A) (A) (A) (A) (A) (A) (A) (A)
                 (A) (A) (A) (A) (A) (A) (A) (A) (A) (A) (A) (A)
                 (A) (A) (A) (A) (A) (A) (A) (A) (A) (A) (A) (A)
                 (A) (A) (A) (A) (A) (A) (A) (A) (A) (A) (A) (A)
                 (A) (A) (A) (A) (A) (A) (A) (A) (A) (A) (A) (A)
                 (A) (A) (A) (A) (A) (A) (A) (A) (A) (A) (A) (A)
                 (A) (A) (A) (A) (A) (A) (A) (A) (A) (A) (A) (A)
                 (A) (A) (A) (A) (A) (A) (A) (A) (A) (A) (A) (A)
                 (A) (A) (A) (A) (A) (A) (A) (A) (A) (A) (A) (A)
                 (A) (A) (A) (A) (A) (A) (A) (A) (A) (A) (A) (A)
                 (A) (A) (A) (A) (A) (A) (A) (A) (A) (A) (A) (A)
                 (A) (A) (A) (A) (A) (A) (A) (A) (A) (A) (A) (A)
                 (A) (A) (A) (A) (A) (A) (A) (A) (A) (A) (A) (A)
                 (A) (A) (A) (A) (A) (A) (A) (A) (A) (A) (A) (A)
                 (A) (A) (A) (A) (A) (A) (A) (A) (A) (A) (A) (A)
                 (A) (A) (A) (A) (A) (A) (A) (A) (A) (A) (A) (A)
                 (A) (A) (A) (A) (A) (A) (A) (A) (A) (A) (A) (A)
                 (A) (A) (A) (A) (A) (A) (A) (A) (A) (A) (A) (A)
                 (A) (A) (A) (A) (A) (A) (A) (A) (A) (A) (A) (A)
                 (A) (A) (A) (A) (A) (A) (A) (A) (A) (A) (A) (A)
                 (A) (A) (A) (A) (A) (A) (A) (A) (A) (A) (A) (A)
                 (A) (A) (A) (A) (A) (A) (A) (A) (A) (A) (A) (A)
                 (A) (A) (A) (A) (A) (A) (A) (A) (A) (A) (A) (A)
                 (A) (A) (A) (A) (A) (A) (A) (A) (A) (A) (A) (A)
                 (A) (A) (A) (A) (A) (A) (A) (A) (A) (A) (A) (A)
                 (A) (A) (A) (A) (A) (A) (A) (A) (A) (A) (A) (A)
                 (A) (A) (A) (A) (A) (A) (A) (A) (A) (A) (A) (A)
                 (A) (A) (A) (A) (A) (A) (A) (A) (A) (A) (A) (A)
                 (A) (A) (A) (A) (A) (A) (A) (A) (A) (A) (A) (A)
                 (A) (A) (A) (A) (A) (A) (A) (A) (A) (A) (A) (A)
                 (A) (A) (A) (A) (A) (A) (A) (A) (A) (A) (A) (A)
                 (A) (A) (A) (A) (A) (A) (A) (A) (A) (A) (A) (A)
                 (A) (A) (A) (A) (A) (A) (A) (A) (A) (A) (A) (A)
                 (A) (A) (A) (A) (A) (A) (A) (A) (A) (A) (A) (A)
                 (A) (A) (A) (A) (A) (A) (A) (A) (A) (A) (A) (A)
                 (A) (A) (A) (A) (A) (A) (A) (A) (A) (A) (A) (A)
                 (A) (A) (A) (A) (A) (A) (A) (A) (A) (A) (A) (A)
                 (A) (A) (A) (A) (A) (A) (A) (A) (A) (A) (A) (A)
                 (A) (A) (A) (A) (A) (A) (A) (A) (A) (A) (A) (A)
                 (A) (A) (A) (A) (A) (A) (A) (A) (A) (A) (A) (A)
                 (A) (A) (A) (A) (A) (A) (A) (A) (A) (A) (A) (A)
                 (A) (A) (A) (A) (A) (A) (A) (A) (A) (A) (A) (A)
                 (A) (A) (A) (A) (A) (A) (A) (A) (A) (A) (A) (A)
                 (A) (A) (A) (A) (A) (A) (A) (A) (A) (A) (A) (A)
                 (A) (A) (A) (A) (A) (A) (A) (A) (A) (A) (A) (A)
                 (A) (A) (A) (A) (A) (A) (A) (A) (A) (A) (A) (A)
                 (A) (A) (A) (A) (A) (A) (A) (A) (A) (A) (A) (A)
                 (A) (A) (A) (A) (A) (A) (A) (A) (A) (A) (A) (A)
                 (A) (A) (A) (A) (A) (A) (A) (A) (A) (A) (A) (A)
                 (A) (A) (A) (A) (A) (A) (A) (A) (A) (A) (A) (A)
                 (A) (A) (A) (A) (A) (A) (A) (A) (A) (A) (A) (A)
                 (A) (A) (A) (A) (A) (A) (A) (A) (A) (A) (A) (A)
                 (A) (A) (A) (A) (A) (A) (A) (A) (A) (A) (A) (A)
                 (A) (A) (A) (A) (A) (A) (A) (A) (A) (A) (A) (A)
                 (A) (A) (A) (A) (A) (A) (A) (A) (A) (A) (A) (A)
                 (A) (A) (A) (A) (A) (A) (A) (A) (A) (A) (A) (A)
                 (A) (A) (A) (A) (A) (A) (A) (A) (A) (A) (A) (A)
                 (A) (A) (A) (A) (A) (A) (A) (A) (A) (A) (A) (A)
                 (A) (A) (A) (A) (A) (A) (A) (A) (A) (A) (A) (A)
                 (A) (A) (A) (A) (A) (A) (A) (A) (A) (A) (A) (A)
                 (A) (A) (A) (A) (A) (A) (A) (A) (A) (A) (A) (A)
                 (A) (A) (A) (A) (A) (A) (A) (A) (A) (A) (A) (A)
                 (A) (A) (A) (A) (A) (A) (A) (A) (A) (A) (A) (A)
                 (A) (A) (A) (A) (A) (A) (A) (A) (A) (A) (A) (A)
                 (A) (A) (A) (A) (A) (A) (A) (A) (A) (A) (A) (A)
                 (A) (A) (A) (A) (A) (A) (A) (A) (A) (A) (A) (A)
                 (A) (A) (A) (A) (A) (A) (A) (A) (A) (A) (A) (A)
                 (A) (A) (A) (A) (A) (A) (A) (A) (A) (A) (A) (A)
                 (A) (A) (A) (A) (A) (A) (A) (A) (A) (A) (A) (A)
    20 initial guesses have been made.
 Convergence on wavefunction:    0.001000000000000
 Davidson Disk Diagonalization:  ConvIn= 1.00D-03 SkipCon=T Conv= 1.00D-03.
 Max sub-space:  2000 roots to seek:    20 dimension of matrix:       549360
 Iteration     1 Dimension    20 NMult     0 NNew     20
 CISAX will form    20 AO SS matrices at one time.
 NMat=    20 NSing=    20 JSym2X= 0.
 FoFJK:  IHMeth= 1 ICntrl=       0 DoSepK=T KAlg= 0 I1Cent=           0 FoldK=F
 IRaf=         1 NMat=      40 IRICut=       1 DoRegI=T DoRafI=F ISym2E= 0 IDoP0=3 IntGTp=3.
 FoFCou: FMM=T IPFlag=           0 FMFlag=      100000 FMFlg1=        2001
         NFxFlg=           0 DoJE=F BraDBF=F KetDBF=F FulRan=T
         wScrn=  0.000000 ICntrl=       500 IOpCl=  0 I1Cent=           0 NGrid=           0
         NMat0=   20 NMatS0=     20 NMatT0=    0 NMatD0=   20 NMtDS0=    0 NMtDT0=    0
 Symmetry not used in FoFCou.
 FMM levels:  10  Number of levels for PrismC:   9
 New state      1 was old state      8
 New state      2 was old state      5
 New state      3 was old state      2
 New state      4 was old state      3
 New state      5 was old state      1
 Excitation Energies [eV] at current iteration:
 Root      1 :     2.614431652381732
 Root      2 :     2.619343567180087
 Root      3 :     2.680390125691655
 Root      4 :     2.690265916941108
 Root      5 :     3.059938001974766
 Root      6 :     3.082712498758882
 Root      7 :     3.628522003833026
 Root      8 :     3.668945539400998
 Root      9 :     3.735900276133298
 Root     10 :     3.759328447961702
 Root     11 :     3.863213330390909
 Root     12 :     3.876587684030102
 Root     13 :     4.303198079743653
 Root     14 :     4.306529013816811
 Root     15 :     4.993487459881396
 Root     16 :     4.994696216398043
 Root     17 :     5.283860661018706
 Root     18 :     5.288380495115983
 Root     19 :     5.315576045178400
 Root     20 :     5.322707314632737
 Iteration     2 Dimension    30 NMult    20 NNew     10
 CISAX will form    10 AO SS matrices at one time.
 NMat=    10 NSing=    10 JSym2X= 0.
 New state      1 was old state      3
 Root      1 not converged, maximum delta is    0.187158267989093
 New state      2 was old state      4
 Root      2 not converged, maximum delta is    0.188517273687851
 New state      3 was old state      2
 Root      3 not converged, maximum delta is    0.066013189289195
 New state      4 was old state      1
 Root      4 not converged, maximum delta is    0.089824451658307
 Root      5 has converged.
 Excitation Energies [eV] at current iteration:
 Root      1 :     1.801345893413086   Change is   -0.879044232278569
 Root      2 :     1.807430884621310   Change is   -0.882835032319798
 Root      3 :     2.235860361250578   Change is   -0.383483205929509
 Root      4 :     2.239075053952914   Change is   -0.375356598428819
 Root      5 :     3.059932793191866   Change is   -0.000005208782899
 Iteration     3 Dimension    38 NMult    30 NNew      8
 CISAX will form     8 AO SS matrices at one time.
 NMat=     8 NSing=     8 JSym2X= 0.
 Root      1 not converged, maximum delta is    0.069369949551898
 Root      2 not converged, maximum delta is    0.070528945913373
 Root      3 not converged, maximum delta is    0.044044039477820
 Root      4 not converged, maximum delta is    0.042608158941399
 Root      5 has converged.
 Excitation Energies [eV] at current iteration:
 Root      1 :     1.694100704216571   Change is   -0.107245189196515
 Root      2 :     1.699039119701417   Change is   -0.108391764919893
 Root      3 :     2.194370552259044   Change is   -0.041489808991534
 Root      4 :     2.200166502687395   Change is   -0.038908551265519
 Root      5 :     3.059932793191866   Change is    0.000000000000000
 Iteration     4 Dimension    46 NMult    38 NNew      8
 CISAX will form     8 AO SS matrices at one time.
 NMat=     8 NSing=     8 JSym2X= 0.
 Root      1 not converged, maximum delta is    0.013020417815535
 Root      2 not converged, maximum delta is    0.013278308167628
 Root      3 not converged, maximum delta is    0.009747934558452
 Root      4 not converged, maximum delta is    0.008911346554123
 Root      5 has converged.
 Excitation Energies [eV] at current iteration:
 Root      1 :     1.677385737521487   Change is   -0.016714966695085
 Root      2 :     1.682161967194097   Change is   -0.016877152507319
 Root      3 :     2.187063982344828   Change is   -0.007306569914216
 Root      4 :     2.193387865183217   Change is   -0.006778637504178
 Root      5 :     3.059932793192054   Change is    0.000000000000188
 Iteration     5 Dimension    54 NMult    46 NNew      8
 CISAX will form     8 AO SS matrices at one time.
 NMat=     8 NSing=     8 JSym2X= 0.
 Root      1 not converged, maximum delta is    0.002164448535638
 Root      2 not converged, maximum delta is    0.002165510732471
 Root      3 not converged, maximum delta is    0.002501365403836
 Root      4 not converged, maximum delta is    0.002387904951228
 Root      5 has converged.
 Excitation Energies [eV] at current iteration:
 Root      1 :     1.675607277857463   Change is   -0.001778459664024
 Root      2 :     1.680389112696115   Change is   -0.001772854497982
 Root      3 :     2.186217402520618   Change is   -0.000846579824210
 Root      4 :     2.192611033371501   Change is   -0.000776831811717
 Root      5 :     3.059932793192000   Change is   -0.000000000000054
 Iteration     6 Dimension    62 NMult    54 NNew      8
 CISAX will form     8 AO SS matrices at one time.
 NMat=     8 NSing=     8 JSym2X= 0.
 Root      1 not converged, maximum delta is    0.001356491018120
 Root      2 not converged, maximum delta is    0.001376603843321
 Root      3 not converged, maximum delta is    0.001070232461493
 Root      4 not converged, maximum delta is    0.001014967454322
 Root      5 has converged.
 Excitation Energies [eV] at current iteration:
 Root      1 :     1.675353534157893   Change is   -0.000253743699570
 Root      2 :     1.680134128471334   Change is   -0.000254984224781
 Root      3 :     2.186089087586492   Change is   -0.000128314934125
 Root      4 :     2.192493232981810   Change is   -0.000117800389690
 Root      5 :     3.059932793192054   Change is    0.000000000000054
 Iteration     7 Dimension    70 NMult    62 NNew      8
 CISAX will form     8 AO SS matrices at one time.
 NMat=     8 NSing=     8 JSym2X= 0.
 Root      1 has converged.
 Root      2 has converged.
 Root      3 has converged.
 Root      4 has converged.
 Root      5 has converged.
 Excitation Energies [eV] at current iteration:
 Root      1 :     1.675329294072057   Change is   -0.000024240085836
[...]
 Alpha virt. eigenvalues --    1.83476   1.83834   1.83846   1.84098   1.84158
 Alpha virt. eigenvalues --    1.84481   1.84525   1.84741   1.84885   1.85081
 Alpha virt. eigenvalues --    1.85179   1.85301   1.85349   1.85442   1.85555
 Alpha virt. eigenvalues --    1.85855   1.85942   1.86336   1.86435   1.86606
 Alpha virt. eigenvalues --    1.86630   1.86778   1.86858   1.86999   1.87115
 Alpha virt. eigenvalues --    1.87437   1.87521   1.87727   1.87756   1.87943
 Alpha virt. eigenvalues --    1.87967   1.88115   1.88133   1.88527   1.88610
 Alpha virt. eigenvalues --    1.88891   1.88897   1.89026   1.89200   1.89613
 Alpha virt. eigenvalues --    1.89699   1.89820   1.89831   1.90143   1.90193
 Alpha virt. eigenvalues --    1.90827   1.90849   1.91379   1.91423   1.91514
 Alpha virt. eigenvalues --    1.91545   1.92137   1.92229   1.92616   1.92702
 Alpha virt. eigenvalues --    1.93056   1.93103   1.93411   1.93455   1.94262
 Alpha virt. eigenvalues --    1.94357   1.94762   1.94768   1.95544   1.95548
 Alpha virt. eigenvalues --    1.95767   1.95803   1.96001   1.96071   1.96127
 Alpha virt. eigenvalues --    1.96226   1.96436   1.96669   1.96888   1.96973
 Alpha virt. eigenvalues --    1.97496   1.97524   1.97755   1.97910   1.98120
 Alpha virt. eigenvalues --    1.98245   1.98304   1.98752   1.99024   1.99211
 Alpha virt. eigenvalues --    1.99885   1.99897   2.00678   2.00734   2.01049
 Alpha virt. eigenvalues --    2.01072   2.01458   2.01557   2.01561   2.01747
 Alpha virt. eigenvalues --    2.01778   2.01795   2.02663   2.02860   2.03092
 Alpha virt. eigenvalues --    2.03309   2.03332   2.03473   2.03479   2.03560
 Alpha virt. eigenvalues --    2.03978   2.04110   2.04928   2.05032   2.05581
 Alpha virt. eigenvalues --    2.05588   2.06153   2.06238   2.06979   2.06987
 Alpha virt. eigenvalues --    2.07258   2.07298   2.08503   2.08658   2.08956
 Alpha virt. eigenvalues --    2.09056   2.09564   2.09665   2.10851   2.10984
 Alpha virt. eigenvalues --    2.11257   2.11357   2.11484   2.11614   2.11801
 Alpha virt. eigenvalues --    2.11815   2.12416   2.12540   2.12751   2.12819
 Alpha virt. eigenvalues --    2.12878   2.12909   2.13581   2.13842   2.14201
 Alpha virt. eigenvalues --    2.14209   2.15356   2.15410   2.15999   2.16031
 Alpha virt. eigenvalues --    2.16541   2.16595   2.16828   2.17122   2.17490
 Alpha virt. eigenvalues --    2.17598   2.17777   2.17883   2.17953   2.18143
 Alpha virt. eigenvalues --    2.18399   2.18623   2.18943   2.19185   2.19715
 Alpha virt. eigenvalues --    2.19768   2.20112   2.20192   2.20286   2.20388
 Alpha virt. eigenvalues --    2.21121   2.21222   2.21713   2.21743   2.21819
 Alpha virt. eigenvalues --    2.21825   2.22650   2.22753   2.23290   2.23387
 Alpha virt. eigenvalues --    2.24367   2.24467   2.24953   2.25031   2.26373
 Alpha virt. eigenvalues --    2.26389   2.26852   2.26957   2.27151   2.27176
 Alpha virt. eigenvalues --    2.28210   2.28262   2.29340   2.29383   2.29808
 Alpha virt. eigenvalues --    2.29827   2.30528   2.30570   2.30776   2.31147
 Alpha virt. eigenvalues --    2.31156   2.31256   2.32186   2.32192   2.33181
 Alpha virt. eigenvalues --    2.33208   2.33430   2.33534   2.34087   2.34211
 Alpha virt. eigenvalues --    2.35248   2.35445   2.35855   2.35869   2.36279
 Alpha virt. eigenvalues --    2.36394   2.36423   2.36696   2.37623   2.37730
 Alpha virt. eigenvalues --    2.38327   2.38328   2.38729   2.38930   2.39613
 Alpha virt. eigenvalues --    2.39682   2.40212   2.40253   2.40558   2.40774
 Alpha virt. eigenvalues --    2.41159   2.41342   2.41639   2.41758   2.42074
 Alpha virt. eigenvalues --    2.42113   2.42766   2.43013   2.43021   2.43609
 Alpha virt. eigenvalues --    2.43920   2.44241   2.44748   2.44802   2.44931
 Alpha virt. eigenvalues --    2.44975   2.45513   2.45618   2.46227   2.46371
 Alpha virt. eigenvalues --    2.46438   2.46549   2.46742   2.46871   2.47319
 Alpha virt. eigenvalues --    2.47324   2.47784   2.47827   2.49334   2.49379
 Alpha virt. eigenvalues --    2.49833   2.50138   2.50396   2.50619   2.51192
 Alpha virt. eigenvalues --    2.51208   2.51551   2.51957   2.52339   2.52511
 Alpha virt. eigenvalues --    2.52879   2.53102   2.53908   2.53988   2.54218
 Alpha virt. eigenvalues --    2.54221   2.54745   2.54858   2.55588   2.55603
 Alpha virt. eigenvalues --    2.57933   2.58014   2.58712   2.58838   2.60237
 Alpha virt. eigenvalues --    2.60278   2.60682   2.60859   2.61755   2.61779
 Alpha virt. eigenvalues --    2.62366   2.62603   2.63025   2.63060   2.64005
 Alpha virt. eigenvalues --    2.64152   2.64312   2.64359   2.65032   2.65148
 Alpha virt. eigenvalues --    2.65795   2.65857   2.66753   2.66846   2.66978
 Alpha virt. eigenvalues --    2.66988   2.67912   2.67977   2.68751   2.68927
 Alpha virt. eigenvalues --    2.68965   2.69094   2.69459   2.69525   2.70067
 Alpha virt. eigenvalues --    2.70068   2.70999   2.71049   2.71825   2.72124
 Alpha virt. eigenvalues --    2.72425   2.72667   2.72723   2.72900   2.73215
 Alpha virt. eigenvalues --    2.73343   2.73402   2.73605   2.74436   2.74580
 Alpha virt. eigenvalues --    2.74983   2.75044   2.76448   2.76659   2.76993
 Alpha virt. eigenvalues --    2.77302   2.77524   2.77532   2.78222   2.78257
 Alpha virt. eigenvalues --    2.78616   2.78799   2.79083   2.79203   2.80190
 Alpha virt. eigenvalues --    2.80413   2.80617   2.80659   2.81076   2.81185
 Alpha virt. eigenvalues --    2.81915   2.82003   2.82259   2.82409   2.83771
 Alpha virt. eigenvalues --    2.83821   2.83830   2.83835   2.84450   2.84613
 Alpha virt. eigenvalues --    2.84808   2.84950   2.85616   2.85735   2.86584
 Alpha virt. eigenvalues --    2.87065   2.87101   2.87679   2.88160   2.88222
 Alpha virt. eigenvalues --    2.88539   2.88576   2.88794   2.89002   2.90566
 Alpha virt. eigenvalues --    2.90582   2.90989   2.91255   2.93223   2.93243
 Alpha virt. eigenvalues --    2.93692   2.94268   2.94494   2.94624   2.95395
 Alpha virt. eigenvalues --    2.95437   2.95767   2.96274   2.96296   2.96509
 Alpha virt. eigenvalues --    2.96797   2.97248   2.97887   2.97952   2.98276
 Alpha virt. eigenvalues --    2.98280   2.98433   2.98493   2.98670   2.98700
 Alpha virt. eigenvalues --    2.98842   2.98950   2.99653   2.99721   2.99940
 Alpha virt. eigenvalues --    3.00101   3.00257   3.00289   3.00530   3.00913
 Alpha virt. eigenvalues --    3.01821   3.02037   3.02057   3.02100   3.02745
 Alpha virt. eigenvalues --    3.02804   3.03048   3.03236   3.03394   3.03628
 Alpha virt. eigenvalues --    3.03972   3.04238   3.04352   3.04519   3.04616
 Alpha virt. eigenvalues --    3.04647   3.05270   3.05361   3.06082   3.06181
 Alpha virt. eigenvalues --    3.06855   3.06873   3.07841   3.08212   3.09275
 Alpha virt. eigenvalues --    3.09471   3.09762   3.10355   3.10511   3.10658
 Alpha virt. eigenvalues --    3.11396   3.11396   3.11817   3.12014   3.12223
 Alpha virt. eigenvalues --    3.12243   3.13353   3.13569   3.13606   3.13708
 Alpha virt. eigenvalues --    3.14165   3.14397   3.15907   3.15989   3.17333
 Alpha virt. eigenvalues --    3.17437   3.17797   3.18146   3.18950   3.19196
 Alpha virt. eigenvalues --    3.22379   3.22520   3.24017   3.24356   3.24746
 Alpha virt. eigenvalues --    3.25112   3.26574   3.26575   3.27312   3.27692
 Alpha virt. eigenvalues --    3.29145   3.29175   3.31296   3.31595   3.33101
 Alpha virt. eigenvalues --    3.33489   3.40185   3.40706   3.42735   3.42886
 Alpha virt. eigenvalues --    3.48614   3.48731   3.50093   3.50198   3.50753
 Alpha virt. eigenvalues --    3.51546   3.56622   3.56922   3.59170   3.59256
 Alpha virt. eigenvalues --    3.62432   3.62909   3.66033   3.66255   3.67262
 Alpha virt. eigenvalues --    3.67466   3.73346   3.73943   3.76131   3.76601
          Condensed to atoms (all electrons):
 Mulliken charges:
               1
     1  Mg   0.838757
     2  C   -0.002941
     3  C   -0.094125
     4  C   -0.045873
     5  C   -0.063953
     6  N   -0.256775
     7  C   -0.052440
     8  C   -0.014032
     9  C   -0.086992
    10  C    0.046330
    11  C    0.104825
    12  C    0.053459
    13  C   -0.071833
    14  H    0.036228
    15  N   -0.433126
    16  C    0.168431
    17  C   -0.177169
    18  C   -0.004020
    19  C    0.148709
    20  C    0.110193
    21  C    0.012271
    22  O   -0.249670
    23  C    0.062481
    24  N   -0.341144
    25  C    0.041246
    26  C   -0.028169
    27  C   -0.023988
    28  C    0.074847
    29  C    0.076201
    30  C    0.035142
    31  C   -0.004509
    32  N   -0.310476
    33  C    0.080431
    34  C   -0.169690
    35  C    0.008381
    36  C    0.083020
    37  C    0.127302
    38  C    0.046144
    39  O   -0.188397
    40  C   -0.005344
    41  C    0.212883
    42  O   -0.257028
    43  O   -0.304829
    44  C    0.157666
    45  H   -0.017633
    46  H   -0.016886
    47  H   -0.041495
    48  H    0.000930
    49  H   -0.004025
    50  H    0.025460
    51  H    0.016417
    52  H    0.016630
    53  H    0.011228
    54  H    0.044178
    55  H    0.017834
    56  H    0.017944
    57  H    0.005871
    58  H    0.026766
    59  H    0.039559
    60  H    0.037316
    61  H    0.035592
    62  H    0.031537
    63  H    0.016540
    64  H    0.009427
    65  H    0.023157
    66  H    0.012523
    67  H    0.004718
    68  H    0.006313
    69  H    0.004742
    70  H    0.008752
    71  H    0.018198
    72  H    0.029027
    73  H    0.047632
    74  H    0.009114
    75  H    0.045976
    76  H    0.035124
    77  H    0.042946
    78  H    0.046398
    79  H    0.053768
    80  Mg   0.837905
    81  C   -0.016808
    82  C   -0.087799
    83  C   -0.045520
    84  C   -0.064894
    85  N   -0.254599
    86  C   -0.049809
    87  C   -0.015090
    88  C   -0.090515
    89  C    0.045785
    90  C    0.114379
    91  C    0.062527
    92  C   -0.077938
    93  H    0.035014
    94  N   -0.423500
    95  C    0.162937
    96  C   -0.174632
    97  C   -0.007797
    98  C    0.152114
    99  C    0.099369
   100  C    0.015545
   101  O   -0.253195
   102  C    0.061208
   103  N   -0.350069
   104  C    0.037529
   105  C   -0.019837
   106  C   -0.034821
   107  C    0.088925
   108  C    0.073676
   109  C    0.034734
   110  C   -0.007686
   111  N   -0.324133
   112  C    0.078472
   113  C   -0.163111
   114  C    0.002257
   115  C    0.096231
   116  C    0.131482
   117  C    0.042417
   118  O   -0.187809
   119  C    0.000894
   120  C    0.211279
   121  O   -0.250959
   122  O   -0.305658
   123  C    0.152003
   124  H   -0.019667
   125  H   -0.015593
   126  H   -0.040446
   127  H   -0.000641
   128  H   -0.004304
   129  H    0.022450
   130  H    0.014396
   131  H    0.016280
   132  H    0.013933
   133  H    0.037728
   134  H    0.020764
   135  H    0.019592
   136  H    0.008769
   137  H    0.026118
   138  H    0.039815
   139  H    0.038236
   140  H    0.036370
   141  H    0.033921
   142  H    0.014407
   143  H    0.012397
   144  H    0.025123
   145  H    0.011616
   146  H    0.005652
   147  H    0.006245
   148  H    0.003672
   149  H    0.010921
   150  H    0.017995
   151  H    0.030129
   152  H    0.046078
   153  H    0.008526
   154  H    0.046915
   155  H    0.035006
   156  H    0.043934
   157  H    0.049493
   158  H    0.053664
 Sum of Mulliken charges =  -0.00000
 Mulliken charges with hydrogens summed into heavy atoms:
               1
     1  Mg   0.838757
     2  C   -0.002941
     3  C   -0.111758
     4  C   -0.062758
     5  C   -0.105447
     6  N   -0.256775
     7  C   -0.052440
     8  C   -0.013102
     9  C   -0.091017
    10  C    0.046330
    11  C    0.163333
    12  C    0.108865
    13  C    0.000173
    15  N   -0.433126
    16  C    0.168431
    17  C   -0.177169
    18  C   -0.004020
    19  C    0.148709
    20  C    0.182389
    21  C    0.012271
    22  O   -0.249670
    23  C    0.166926
    24  N   -0.341144
    25  C    0.041246
    26  C   -0.011629
    27  C   -0.014561
    28  C    0.074847
    29  C    0.116599
    30  C    0.046197
    31  C    0.051467
    32  N   -0.310476
    33  C    0.080431
    34  C   -0.169690
    35  C    0.008381
    36  C    0.083020
    37  C    0.230024
    38  C    0.046144
    39  O   -0.188397
    40  C    0.029780
    41  C    0.212883
    42  O   -0.257028
    43  O   -0.304829
    44  C    0.300779
    80  Mg   0.837905
    81  C   -0.016808
    82  C   -0.107466
    83  C   -0.061113
    84  C   -0.105339
    85  N   -0.254599
    86  C   -0.049809
    87  C   -0.015731
    88  C   -0.094818
    89  C    0.045785
    90  C    0.167505
    91  C    0.114188
    92  C   -0.002568
    94  N   -0.423500
    95  C    0.162937
    96  C   -0.174632
    97  C   -0.007797
    98  C    0.152114
    99  C    0.174072
   100  C    0.015545
   101  O   -0.253195
   102  C    0.169736
   103  N   -0.350069
   104  C    0.037529
   105  C   -0.005430
   106  C   -0.022424
   107  C    0.088925
   108  C    0.116067
   109  C    0.044652
   110  C    0.051359
   111  N   -0.324133
   112  C    0.078472
   113  C   -0.163111
   114  C    0.002257
   115  C    0.096231
   116  C    0.233001
   117  C    0.042417
   118  O   -0.187809
   119  C    0.035899
   120  C    0.211279
   121  O   -0.250959
   122  O   -0.305658
   123  C    0.299095
 Electronic spatial extent (au):  <R**2>=         615235.4347
 Charge=             -0.0000 electrons
 Dipole moment (field-independent basis, Debye):
    X=              0.4426    Y=             -1.1654    Z=              7.3997  Tot=              7.5040
 Quadrupole moment (field-independent basis, Debye-Ang):
   XX=           -399.8423   YY=           -460.2813   ZZ=           -538.7229
   XY=             54.2548   XZ=             14.6211   YZ=              8.4442
 Traceless Quadrupole moment (field-independent basis, Debye-Ang):
   XX=             66.4399   YY=              6.0009   ZZ=            -72.4408
   XY=             54.2548   XZ=             14.6211   YZ=              8.4442
 Octapole moment (field-independent basis, Debye-Ang**2):
  XXX=            338.0207  YYY=             85.7441  ZZZ=            369.7765  XYY=           -158.0060
  XXY=            -67.3384  XXZ=           1624.9897  XZZ=            202.0078  YZZ=            -82.6747
  YYZ=           -255.8675  XYZ=            947.2484
 Hexadecapole moment (field-independent basis, Debye-Ang**3):
 XXXX=        -729265.0557 YYYY=         -32381.3665 ZZZZ=         -32643.3138 XXXY=          14252.6627
 XXXZ=           7384.7957 YYYX=           3036.2483 YYYZ=            114.6287 ZZZX=            639.1120
 ZZZY=            -32.1319 XXYY=        -123325.8737 XXZZ=        -142139.5549 YYZZ=         -11403.7803
 XXYZ=           1165.0532 YYXZ=           -120.1957 ZZXY=           1561.0453
 N-N= 1.230525322575D+04 E-N=-3.409145467130D+04  KE= 4.028802087255D+03
 Leave Link  601 at Sun Sep 12 13:15:50 2021, MaxMem= 23488102400 cpu:              12.8 elap:               0.6
 (Enter /sw/apps/gaussian-16.0/g16/l9999.exe)
 1\1\GINC-BP1-COMPUTE00092\SP\RCAM-B3LYP TD-FC\def2SVP\C68H72Mg2N8O8\OF
 15641\12-Sep-2021\0\\#p cam-b3lyp/Def2SVP td=(nstates=5)\\TDDFT excite
 d states in gaussian\\0,1\Mg,0,0.,0.,0.\C,0,-0.217,-2.218,2.801\C,0,-1
 .255,2.442,2.026\C,0,-0.245,1.85,-2.564\C,0,0.146,-2.824,-2.037\N,0,-0
 .617,-0.009,2.126\C,0,-0.594,-0.908,3.105\C,0,-0.936,-0.309,4.502\C,0,
 -1.773,0.964,4.032\C,0,-1.155,1.168,2.66\C,0,-3.263,0.685,3.863\C,0,0.
 345,0.11,5.299\C,0,0.124,0.397,6.787\H,0,1.168,0.033,7.733\N,0,-0.185,
 1.961,-0.152\C,0,-0.703,2.8,0.777\C,0,-0.62,4.156,0.193\C,0,-0.187,4.0
 15,-1.225\C,0,-0.214,2.583,-1.38\C,0,-0.887,5.406,0.974\C,0,0.181,5.01
 3,-2.277\O,0,0.303,4.69,-3.508\C,0,0.31,6.414,-1.837\N,0,-0.265,-0.413
 ,-2.029\C,0,-0.279,0.569,-2.937\C,0,-0.196,0.024,-4.332\C,0,0.124,-1.5
 33,-4.18\C,0,0.086,-1.632,-2.635\C,0,-1.451,0.205,-5.197\C,0,1.373,-2.
 07,-4.923\C,0,2.626,-1.49,-4.306\N,0,0.15,-2.144,0.303\C,0,0.173,-3.13
 6,-0.688\C,0,0.173,-4.438,0.004\C,0,0.133,-4.111,1.358\C,0,0.083,-2.69
 5,1.502\C,0,0.149,-5.715,-0.623\C,0,0.096,-4.629,2.716\O,0,0.208,-5.74
 7,3.221\C,0,-0.255,-3.428,3.701\C,0,0.717,-3.482,4.848\O,0,1.931,-3.25
 5,4.669\O,0,0.038,-3.556,6.003\C,0,0.943,-3.583,7.183\H,0,-1.859,3.22,
 2.497\H,0,-0.218,2.453,-3.474\H,0,0.276,-3.747,-2.605\H,0,-1.554,-0.94
 9,5.132\H,0,-1.585,1.831,4.665\H,0,-3.484,-0.377,3.969\H,0,-3.511,1.02
 7,2.858\H,0,-3.852,1.301,4.543\H,0,0.669,1.096,4.966\H,0,1.13,-0.639,5
 .189\H,0,-0.844,0.026,7.125\H,0,0.062,1.477,6.921\H,0,-1.344,5.186,1.9
 38\H,0,-1.651,5.963,0.432\H,0,0.007,6.02,1.084\H,0,-0.635,6.744,-1.405
 \H,0,0.665,6.97,-2.704\H,0,1.048,6.466,-1.036\H,0,0.608,0.501,-4.891\H
 ,0,-0.692,-2.156,-4.547\H,0,-1.267,0.74,-6.129\H,0,-2.204,0.714,-4.596
 \H,0,-1.967,-0.72,-5.453\H,0,1.356,-1.759,-5.967\H,0,1.452,-3.157,-4.9
 02\H,0,2.714,-0.522,-4.798\H,0,3.487,-2.121,-4.529\H,0,2.495,-1.303,-3
 .24\H,0,0.867,-6.333,-0.084\H,0,0.404,-5.642,-1.68\H,0,-0.891,-5.999,-
 0.463\H,0,-1.283,-3.581,4.028\H,0,0.698,-4.478,7.755\H,0,0.833,-2.619,
 7.68\H,0,2.,-3.754,6.976\Mg,0,31.52418,2.84107,2.38925\C,0,31.57838,0.
 07597,0.10226\C,0,31.88228,4.89055,-0.31371\C,0,31.93174,5.25975,4.402
 03\C,0,32.31393,0.58173,4.9225\N,0,31.69608,2.41908,0.22485\C,0,31.641
 9,1.33388,-0.53262\C,0,31.57563,1.61652,-2.0575\C,0,32.24926,3.07429,-
 2.06136\C,0,31.89448,3.51124,-0.64154\C,0,33.76339,3.03726,-2.1854\C,0
 ,30.10158,1.66349,-2.5932\C,0,29.96978,1.6271,-4.11735\H,0,28.83518,0.
 91689,-4.7011\N,0,31.36939,4.79747,2.09414\C,0,31.52261,5.45912,0.9279
 4\C,0,31.32949,6.88269,1.24466\C,0,31.21297,7.02302,2.72164\C,0,31.527
 87,5.6719,3.14045\C,0,31.19231,7.94006,0.18798\C,0,30.88635,8.18448,3.
 61075\O,0,31.07433,8.13635,4.8777\C,0,30.42802,9.412,2.94394\N,0,32.25
 306,2.95013,4.33326\C,0,32.2741,4.11804,4.99919\C,0,32.57791,3.90586,6
 .46311\C,0,32.5176,2.32387,6.6895\C,0,32.2663,1.86947,5.23494\C,0,33.9
 269,4.43782,6.94647\C,0,31.56263,1.80782,7.80054\C,0,30.12579,2.06141,
 7.40485\N,0,31.7049,0.69473,2.55842\C,0,32.07086,-0.04266,3.70577\C,0,
 32.16895,-1.45965,3.29964\C,0,31.87339,-1.44521,1.92817\C,0,31.6295,-0
 .11074,1.50485\C,0,32.54099,-2.54328,4.1443\C,0,31.72268,-2.25414,0.74
 006\O,0,31.72472,-3.4619,0.50543\C,0,31.64903,-1.29021,-0.52161\C,0,30
 .49218,-1.73095,-1.37598\O,0,29.32541,-1.64178,-0.95488\O,0,30.93429,-
 1.97931,-2.62226\C,0,29.82125,-2.40916,-3.51006\H,0,32.22027,5.60529,-
 1.06457\H,0,31.97968,6.04378,5.16129\H,0,32.45932,-0.19649,5.67477\H,0
 ,32.15543,0.93738,-2.671\H,0,31.77556,3.72637,-2.79057\H,0,34.14751,2.
 02945,-2.13146\H,0,34.14054,3.63044,-1.36264\H,0,34.07958,3.5515,-3.09
 749\H,0,29.67884,2.65618,-2.3917\H,0,29.51382,0.87724,-2.16079\H,0,30.
 90456,1.32459,-4.60482\H,0,29.79816,2.64518,-4.47523\H,0,31.48555,7.56
 248,-0.79936\H,0,31.93276,8.71521,0.41325\H,0,30.19908,8.39387,0.17265
 \H,0,31.18956,9.74903,2.24471\H,0,30.15901,10.09878,3.74881\H,0,29.537
 86,9.17609,2.35016\H,0,31.82869,4.37882,7.08607\H,0,33.49671,1.91641,6
 .98131\H,0,33.83822,5.15777,7.78186\H,0,34.43597,4.89108,6.10627\H,0,3
 4.6371,3.67594,7.26326\H,0,31.73039,2.35796,8.72971\H,0,31.68885,0.753
 55,8.0232\H,0,29.96813,3.10259,7.7018\H,0,29.45672,1.39214,7.94194\H,0
 ,30.00156,2.00644,6.3171\H,0,31.86191,-3.35642,3.92489\H,0,32.49891,-2
 .26149,5.19435\H,0,33.56665,-2.71161,3.80526\H,0,32.60048,-1.36779,-1.
 04914\H,0,30.10889,-3.37417,-3.93866\H,0,29.66156,-1.57218,-4.21555\H,
 0,28.87554,-2.65853,-3.04327\\Version=ES64L-G16RevA.03\State=1-A\HF=-4
 069.8117542\RMSD=4.477e-09\PG=C01 [X(C68H72Mg2N8O8)]\\@


 EDUCATION DOESN'T COST 
           ... IT PAYS!

 -- POSTMARK, UNIV. OF MISSISSIPPI, DEC 78
 Job cpu time:       0 days 10 hours 16 minutes 17.6 seconds.
 Elapsed time:       0 days  0 hours 26 minutes 16.5 seconds.
 File lengths (MBytes):  RWF=  13225 Int=      0 D2E=      0 Chk=    574 Scr=      1
 Normal termination of Gaussian 16 at Sun Sep 12 13:15:51 2021.
