 Entering Gaussian System, Link 0=g16
 Initial command:
 /sw/apps/gaussian-16.0/g16/l1.exe "/tmp/Gau-177339.inp" -scrdir="/tmp/"
 Entering Link 1 = /sw/apps/gaussian-16.0/g16/l1.exe PID=    177340.
  
 Copyright (c) 1988,1990,1992,1993,1995,1998,2003,2009,2016,
            Gaussian, Inc.  All Rights Reserved.
  
 This is part of the Gaussian(R) 16 program.  It is based on
 the Gaussian(R) 09 system (copyright 2009, Gaussian, Inc.),
 the Gaussian(R) 03 system (copyright 2003, Gaussian, Inc.),
 the Gaussian(R) 98 system (copyright 1998, Gaussian, Inc.),
 the Gaussian(R) 94 system (copyright 1995, Gaussian, Inc.),
 the Gaussian 92(TM) system (copyright 1992, Gaussian, Inc.),
 the Gaussian 90(TM) system (copyright 1990, Gaussian, Inc.),
 the Gaussian 88(TM) system (copyright 1988, Gaussian, Inc.),
 the Gaussian 86(TM) system (copyright 1986, Carnegie Mellon
 University), and the Gaussian 82(TM) system (copyright 1983,
 Carnegie Mellon University). Gaussian is a federally registered
 trademark of Gaussian, Inc.
  
 This software contains proprietary and confidential information,
 including trade secrets, belonging to Gaussian, Inc.
  
 This software is provided under written license and may be
 used, copied, transmitted, or stored only in accord with that
 written license.
  
 The following legend is applicable only to US Government
 contracts under FAR:
  
                    RESTRICTED RIGHTS LEGEND
  
 Use, reproduction and disclosure by the US Government is
 subject to restrictions as set forth in subparagraphs (a)
 and (c) of the Commercial Computer Software - Restricted
 Rights clause in FAR 52.227-19.
  
 Gaussian, Inc.
 340 Quinnipiac St., Bldg. 40, Wallingford CT 06492
  
  
 ---------------------------------------------------------------
 Warning -- This program may not be used in any manner that
 competes with the business of Gaussian, Inc. or will provide
 assistance to any competitor of Gaussian, Inc.  The licensee
 of this program is prohibited from giving any competitor of
 Gaussian, Inc. access to this program.  By using this program,
 the user acknowledges that Gaussian, Inc. is engaged in the
 business of creating and licensing software in the field of
 computational chemistry and represents and warrants to the
 licensee that it is not a competitor of Gaussian, Inc. and that
 it will not use this program in any manner prohibited above.
 ---------------------------------------------------------------
  

 Cite this work as:
 Gaussian 16, Revision A.03,
 M. J. Frisch, G. W. Trucks, H. B. Schlegel, G. E. Scuseria, 
 M. A. Robb, J. R. Cheeseman, G. Scalmani, V. Barone, 
 G. A. Petersson, H. Nakatsuji, X. Li, M. Caricato, A. V. Marenich, 
 J. Bloino, B. G. Janesko, R. Gomperts, B. Mennucci, H. P. Hratchian, 
 J. V. Ortiz, A. F. Izmaylov, J. L. Sonnenberg, D. Williams-Young, 
 F. Ding, F. Lipparini, F. Egidi, J. Goings, B. Peng, A. Petrone, 
 T. Henderson, D. Ranasinghe, V. G. Zakrzewski, J. Gao, N. Rega, 
 G. Zheng, W. Liang, M. Hada, M. Ehara, K. Toyota, R. Fukuda, 
 J. Hasegawa, M. Ishida, T. Nakajima, Y. Honda, O. Kitao, H. Nakai, 
 T. Vreven, K. Throssell, J. A. Montgomery, Jr., J. E. Peralta, 
 F. Ogliaro, M. J. Bearpark, J. J. Heyd, E. N. Brothers, K. N. Kudin, 
 V. N. Staroverov, T. A. Keith, R. Kobayashi, J. Normand, 
 K. Raghavachari, A. P. Rendell, J. C. Burant, S. S. Iyengar, 
 J. Tomasi, M. Cossi, J. M. Millam, M. Klene, C. Adamo, R. Cammi, 
 J. W. Ochterski, R. L. Martin, K. Morokuma, O. Farkas, 
 J. B. Foresman, and D. J. Fox, Gaussian, Inc., Wallingford CT, 2016.
 
 ******************************************
 Gaussian 16:  ES64L-G16RevA.03 25-Dec-2016
                 9-Sep-2021 
 ******************************************
 %nproc=24
 Will use up to   24 processors via shared memory.
 %mem=175gb
 -----------------------------------
 #p cam-b3lyp/Def2SVP td=(nstates=5)
 -----------------------------------
 1/38=1,172=1/1;
 2/12=2,17=6,18=5,40=1/2;
 3/5=43,7=101,11=9,25=1,30=1,74=-40/1,2,3,8;
 4//1;
 5/5=2,38=5/2;
 8/6=1,10=1,108=5/1;
 9/41=5,42=1,70=2/14;
 6/7=2,8=2,9=2,10=2/1;
 99/5=1,9=1/99;
 Leave Link    1 at Thu Sep  9 09:32:10 2021, MaxMem= 23488102400 cpu:               0.6 elap:               0.0
 (Enter /sw/apps/gaussian-16.0/g16/l101.exe)
 --------------------------------
 TDDFT excited states in gaussian
 --------------------------------
 Symbolic Z-matrix:
 Charge =  0 Multiplicity = 1
 Mg                    0.        0.        0. 
 C                    -0.217    -2.218     2.801 
 C                    -1.255     2.442     2.026 
 C                    -0.245     1.85     -2.564 
 C                     0.146    -2.824    -2.037 
 N                    -0.617    -0.009     2.126 
 C                    -0.594    -0.908     3.105 
 C                    -0.936    -0.309     4.502 
 C                    -1.773     0.964     4.032 
 C                    -1.155     1.168     2.66 
 C                    -3.263     0.685     3.863 
 C                     0.345     0.11      5.299 
 C                     0.124     0.397     6.787 
 H                     1.168     0.033     7.733 
 N                    -0.185     1.961    -0.152 
 C                    -0.703     2.8       0.777 
 C                    -0.62      4.156     0.193 
 C                    -0.187     4.015    -1.225 
 C                    -0.214     2.583    -1.38 
 C                    -0.887     5.406     0.974 
 C                     0.181     5.013    -2.277 
 O                     0.303     4.69     -3.508 
 C                     0.31      6.414    -1.837 
 N                    -0.265    -0.413    -2.029 
 C                    -0.279     0.569    -2.937 
 C                    -0.196     0.024    -4.332 
 C                     0.124    -1.533    -4.18 
 C                     0.086    -1.632    -2.635 
 C                    -1.451     0.205    -5.197 
 C                     1.373    -2.07     -4.923 
 C                     2.626    -1.49     -4.306 
 N                     0.15     -2.144     0.303 
 C                     0.173    -3.136    -0.688 
 C                     0.173    -4.438     0.004 
 C                     0.133    -4.111     1.358 
 C                     0.083    -2.695     1.502 
 C                     0.149    -5.715    -0.623 
 C                     0.096    -4.629     2.716 
 O                     0.208    -5.747     3.221 
 C                    -0.255    -3.428     3.701 
 C                     0.717    -3.482     4.848 
 O                     1.931    -3.255     4.669 
 O                     0.038    -3.556     6.003 
 C                     0.943    -3.583     7.183 
 H                    -1.859     3.22      2.497 
 H                    -0.218     2.453    -3.474 
 H                     0.276    -3.747    -2.605 
 H                    -1.554    -0.949     5.132 
 H                    -1.585     1.831     4.665 
 H                    -3.484    -0.377     3.969 
 H                    -3.511     1.027     2.858 
 H                    -3.852     1.301     4.543 
 H                     0.669     1.096     4.966 
 H                     1.13     -0.639     5.189 
 H                    -0.844     0.026     7.125 
 H                     0.062     1.477     6.921 
 H                    -1.344     5.186     1.938 
 H                    -1.651     5.963     0.432 
 H                     0.007     6.02      1.084 
 H                    -0.635     6.744    -1.405 
 H                     0.665     6.97     -2.704 
 H                     1.048     6.466    -1.036 
 H                     0.608     0.501    -4.891 
 H                    -0.692    -2.156    -4.547 
 H                    -1.267     0.74     -6.129 
 H                    -2.204     0.714    -4.596 
 H                    -1.967    -0.72     -5.453 
 H                     1.356    -1.759    -5.967 
 H                     1.452    -3.157    -4.902 
 H                     2.714    -0.522    -4.798 
 H                     3.487    -2.121    -4.529 
 H                     2.495    -1.303    -3.24 
 H                     0.867    -6.333    -0.084 
 H                     0.404    -5.642    -1.68 
 H                    -0.891    -5.999    -0.463 
 H                    -1.283    -3.581     4.028 
 H                     0.698    -4.478     7.755 
 H                     0.833    -2.619     7.68 
 H                     2.       -3.754     6.976 
 Mg                    7.89026   0.70588   0.60569 
 C                     8.07103  -2.72069  -0.44551 
 C                     6.87848  -0.43892   3.65534 
 C                     7.28852   3.71188   1.4238 
 C                     7.79755   1.58986  -2.76413 
 N                     7.55627  -1.33792   1.38261 
 C                     7.71657  -2.56513   0.91081 
 C                     7.56225  -3.68745   1.97201 
 C                     6.64588  -2.89635   3.02714 
 C                     7.07343  -1.46729   2.69902 
 C                     5.15776  -3.02576   2.74771 
 C                     8.93618  -4.10525   2.60427 
 C                     8.90231  -5.40108   3.41755 
 H                     10.07244  -6.27412   3.3849 
 N                     7.66384   1.52846   2.39752 
 C                     7.26783   0.91289   3.53133 
 C                     7.24079   1.95679   4.56752 
 C                     7.49397   3.27077   3.91632 
 C                     7.47078   2.88202   2.52046 
 C                     7.07118   1.65021   6.0272 
 C                     7.70728   4.65124   4.45946 
 O                     7.67257   5.68529   3.70291 
 C                     7.86503   4.76526   5.91672 
 N                     7.37396   2.39094  -0.49718 
 C                     7.22133   3.58682   0.09822 
 C                     7.12413   4.69576  -0.92217 
 C                     7.48726   4.021    -2.32588 
 C                     7.6517    2.55543  -1.86716 
 C                     5.7646    5.38656  -1.02641 
 C                     8.63562   4.67275  -3.14391 
 C                     9.95226   4.48499  -2.42517 
 N                     8.11083  -0.32607  -1.27965 
 C                     8.01033   0.23052  -2.57356 
 C                     8.11921  -0.88433  -3.53672 
 C                     8.25349  -2.02394  -2.72942 
 C                     8.20967  -1.6483   -1.35957 
 C                     8.04023  -0.77047  -4.95338 
 C                     8.41166  -3.46048  -2.72448 
 O                     8.59662  -4.31703  -3.58811 
 C                     8.17362  -3.99001  -1.24484 
 C                     9.28796  -4.94233  -0.90743 
 O                     10.46013  -4.53688  -0.81664 
 O                     8.761    -6.1233   -0.53596 
 C                     9.82685  -7.09782  -0.18086 
 H                     6.33851  -0.67829   4.57186 
 H                     7.18764   4.77603   1.64937 
 H                     7.87612   1.79404  -3.83409 
 H                     7.04685  -4.5744    1.62349 
 H                     6.91322  -3.14901   4.04991 
 H                     4.9658   -3.5327    1.81373 
 H                     4.7756   -2.01388   2.71447 
 H                     4.65656  -3.50966   3.5909 
 H                     9.19693  -3.39252   3.39722 
 H                     9.69771  -4.17077   1.85167 
 H                     7.98729  -5.97789   3.23596 
 H                     8.85087  -5.1438    4.47829 
 H                     6.74136   0.61598   6.18533 
 H                     6.23528   2.25989   6.38696 
 H                     7.96085   1.88885   6.61388 
 H                     6.98314   4.36123   6.40813 
 H                     8.09637   5.81558   6.10432 
 H                     8.71134   4.14219   6.22682 
 H                     7.84265   5.47855  -0.71221 
 H                     6.6339    4.03927  -3.01963 
 H                     5.8171    6.47992  -0.86556 
 H                     5.09349   4.92887  -0.3118 
 H                     5.23953   5.233    -1.96764 
 H                     8.47767   5.75095  -3.22571 
 H                     8.72283   4.28262  -4.15247 
 H                     9.9558    5.30323  -1.69884 
 H                     10.7843   4.57135  -3.12107 
 H                     9.9627    3.54445  -1.86221 
 H                     8.82346  -1.39623  -5.36017 
 H                     8.14827   0.26304  -5.27582 
 H                     7.02914  -1.14997  -5.12348 
 H                     7.19818  -4.47752  -1.22431 
 H                     9.66814  -7.98513  -0.80148 
 H                     9.7571   -7.23066   0.91515 
 H                     10.8476  -6.83988  -0.43775 
 
 ITRead=  0  0  0  0  0  0  0  0  0  0  0  0  0  0  0  0  0  0  0  0
 ITRead=  0  0  0  0  0  0  0  0  0  0  0  0  0  0  0  0  0  0  0  0
 ITRead=  0  0  0  0  0  0  0  0  0  0  0  0  0  0  0  0  0  0  0  0
 ITRead=  0  0  0  0  0  0  0  0  0  0  0  0  0  0  0  0  0  0  0  0
 ITRead=  0  0  0  0  0  0  0  0  0  0  0  0  0  0  0  0  0  0  0  0
 ITRead=  0  0  0  0  0  0  0  0  0  0  0  0  0  0  0  0  0  0  0  0
 ITRead=  0  0  0  0  0  0  0  0  0  0  0  0  0  0  0  0  0  0  0  0
 ITRead=  0  0  0  0  0  0  0  0  0  0  0  0  0  0  0  0  0  0
 MicOpt= -1 -1 -1 -1 -1 -1 -1 -1 -1 -1 -1 -1 -1 -1 -1 -1 -1 -1 -1 -1
 MicOpt= -1 -1 -1 -1 -1 -1 -1 -1 -1 -1 -1 -1 -1 -1 -1 -1 -1 -1 -1 -1
 MicOpt= -1 -1 -1 -1 -1 -1 -1 -1 -1 -1 -1 -1 -1 -1 -1 -1 -1 -1 -1 -1
 MicOpt= -1 -1 -1 -1 -1 -1 -1 -1 -1 -1 -1 -1 -1 -1 -1 -1 -1 -1 -1 -1
 MicOpt= -1 -1 -1 -1 -1 -1 -1 -1 -1 -1 -1 -1 -1 -1 -1 -1 -1 -1 -1 -1
 MicOpt= -1 -1 -1 -1 -1 -1 -1 -1 -1 -1 -1 -1 -1 -1 -1 -1 -1 -1 -1 -1
 MicOpt= -1 -1 -1 -1 -1 -1 -1 -1 -1 -1 -1 -1 -1 -1 -1 -1 -1 -1 -1 -1
 MicOpt= -1 -1 -1 -1 -1 -1 -1 -1 -1 -1 -1 -1 -1 -1 -1 -1 -1 -1
 NAtoms=    158 NQM=      158 NQMF=       0 NMMI=      0 NMMIF=      0
                NMic=       0 NMicF=      0.
                    Isotopes and Nuclear Properties:
 (Nuclear quadrupole moments (NQMom) in fm**2, nuclear magnetic moments (NMagM)
  in nuclear magnetons)

  Atom         1           2           3           4           5           6           7           8           9          10
 IAtWgt=          24          12          12          12          12          14          12          12          12          12
 AtmWgt=  23.9850450  12.0000000  12.0000000  12.0000000  12.0000000  14.0030740  12.0000000  12.0000000  12.0000000  12.0000000
 NucSpn=           0           0           0           0           0           2           0           0           0           0
 AtZEff=  -0.0000000  -0.0000000  -0.0000000  -0.0000000  -0.0000000  -0.0000000  -0.0000000  -0.0000000  -0.0000000  -0.0000000
 NQMom=    0.0000000   0.0000000   0.0000000   0.0000000   0.0000000   2.0440000   0.0000000   0.0000000   0.0000000   0.0000000
 NMagM=    0.0000000   0.0000000   0.0000000   0.0000000   0.0000000   0.4037610   0.0000000   0.0000000   0.0000000   0.0000000
 AtZNuc=  12.0000000   6.0000000   6.0000000   6.0000000   6.0000000   7.0000000   6.0000000   6.0000000   6.0000000   6.0000000

  Atom        11          12          13          14          15          16          17          18          19          20
 IAtWgt=          12          12          12           1          14          12          12          12          12          12
 AtmWgt=  12.0000000  12.0000000  12.0000000   1.0078250  14.0030740  12.0000000  12.0000000  12.0000000  12.0000000  12.0000000
 NucSpn=           0           0           0           1           2           0           0           0           0           0
 AtZEff=  -0.0000000  -0.0000000  -0.0000000  -0.0000000  -0.0000000  -0.0000000  -0.0000000  -0.0000000  -0.0000000  -0.0000000
 NQMom=    0.0000000   0.0000000   0.0000000   0.0000000   2.0440000   0.0000000   0.0000000   0.0000000   0.0000000   0.0000000
 NMagM=    0.0000000   0.0000000   0.0000000   2.7928460   0.4037610   0.0000000   0.0000000   0.0000000   0.0000000   0.0000000
 AtZNuc=   6.0000000   6.0000000   6.0000000   1.0000000   7.0000000   6.0000000   6.0000000   6.0000000   6.0000000   6.0000000

  Atom        21          22          23          24          25          26          27          28          29          30
 IAtWgt=          12          16          12          14          12          12          12          12          12          12
 AtmWgt=  12.0000000  15.9949146  12.0000000  14.0030740  12.0000000  12.0000000  12.0000000  12.0000000  12.0000000  12.0000000
 NucSpn=           0           0           0           2           0           0           0           0           0           0
 AtZEff=  -0.0000000  -0.0000000  -0.0000000  -0.0000000  -0.0000000  -0.0000000  -0.0000000  -0.0000000  -0.0000000  -0.0000000
 NQMom=    0.0000000   0.0000000   0.0000000   2.0440000   0.0000000   0.0000000   0.0000000   0.0000000   0.0000000   0.0000000
 NMagM=    0.0000000   0.0000000   0.0000000   0.4037610   0.0000000   0.0000000   0.0000000   0.0000000   0.0000000   0.0000000
 AtZNuc=   6.0000000   8.0000000   6.0000000   7.0000000   6.0000000   6.0000000   6.0000000   6.0000000   6.0000000   6.0000000

  Atom        31          32          33          34          35          36          37          38          39          40
 IAtWgt=          12          14          12          12          12          12          12          12          16          12
 AtmWgt=  12.0000000  14.0030740  12.0000000  12.0000000  12.0000000  12.0000000  12.0000000  12.0000000  15.9949146  12.0000000
 NucSpn=           0           2           0           0           0           0           0           0           0           0
 AtZEff=  -0.0000000  -0.0000000  -0.0000000  -0.0000000  -0.0000000  -0.0000000  -0.0000000  -0.0000000  -0.0000000  -0.0000000
 NQMom=    0.0000000   2.0440000   0.0000000   0.0000000   0.0000000   0.0000000   0.0000000   0.0000000   0.0000000   0.0000000
 NMagM=    0.0000000   0.4037610   0.0000000   0.0000000   0.0000000   0.0000000   0.0000000   0.0000000   0.0000000   0.0000000
 AtZNuc=   6.0000000   7.0000000   6.0000000   6.0000000   6.0000000   6.0000000   6.0000000   6.0000000   8.0000000   6.0000000

  Atom        41          42          43          44          45          46          47          48          49          50
 IAtWgt=          12          16          16          12           1           1           1           1           1           1
 AtmWgt=  12.0000000  15.9949146  15.9949146  12.0000000   1.0078250   1.0078250   1.0078250   1.0078250   1.0078250   1.0078250
 NucSpn=           0           0           0           0           1           1           1           1           1           1
 AtZEff=  -0.0000000  -0.0000000  -0.0000000  -0.0000000  -0.0000000  -0.0000000  -0.0000000  -0.0000000  -0.0000000  -0.0000000
 NQMom=    0.0000000   0.0000000   0.0000000   0.0000000   0.0000000   0.0000000   0.0000000   0.0000000   0.0000000   0.0000000
 NMagM=    0.0000000   0.0000000   0.0000000   0.0000000   2.7928460   2.7928460   2.7928460   2.7928460   2.7928460   2.7928460
 AtZNuc=   6.0000000   8.0000000   8.0000000   6.0000000   1.0000000   1.0000000   1.0000000   1.0000000   1.0000000   1.0000000

  Atom        51          52          53          54          55          56          57          58          59          60
 IAtWgt=           1           1           1           1           1           1           1           1           1           1
 AtmWgt=   1.0078250   1.0078250   1.0078250   1.0078250   1.0078250   1.0078250   1.0078250   1.0078250   1.0078250   1.0078250
 NucSpn=           1           1           1           1           1           1           1           1           1           1
 AtZEff=  -0.0000000  -0.0000000  -0.0000000  -0.0000000  -0.0000000  -0.0000000  -0.0000000  -0.0000000  -0.0000000  -0.0000000
 NQMom=    0.0000000   0.0000000   0.0000000   0.0000000   0.0000000   0.0000000   0.0000000   0.0000000   0.0000000   0.0000000
 NMagM=    2.7928460   2.7928460   2.7928460   2.7928460   2.7928460   2.7928460   2.7928460   2.7928460   2.7928460   2.7928460
 AtZNuc=   1.0000000   1.0000000   1.0000000   1.0000000   1.0000000   1.0000000   1.0000000   1.0000000   1.0000000   1.0000000

  Atom        61          62          63          64          65          66          67          68          69          70
 IAtWgt=           1           1           1           1           1           1           1           1           1           1
 AtmWgt=   1.0078250   1.0078250   1.0078250   1.0078250   1.0078250   1.0078250   1.0078250   1.0078250   1.0078250   1.0078250
 NucSpn=           1           1           1           1           1           1           1           1           1           1
 AtZEff=  -0.0000000  -0.0000000  -0.0000000  -0.0000000  -0.0000000  -0.0000000  -0.0000000  -0.0000000  -0.0000000  -0.0000000
 NQMom=    0.0000000   0.0000000   0.0000000   0.0000000   0.0000000   0.0000000   0.0000000   0.0000000   0.0000000   0.0000000
 NMagM=    2.7928460   2.7928460   2.7928460   2.7928460   2.7928460   2.7928460   2.7928460   2.7928460   2.7928460   2.7928460
 AtZNuc=   1.0000000   1.0000000   1.0000000   1.0000000   1.0000000   1.0000000   1.0000000   1.0000000   1.0000000   1.0000000

  Atom        71          72          73          74          75          76          77          78          79          80
 IAtWgt=           1           1           1           1           1           1           1           1           1          24
 AtmWgt=   1.0078250   1.0078250   1.0078250   1.0078250   1.0078250   1.0078250   1.0078250   1.0078250   1.0078250  23.9850450
 NucSpn=           1           1           1           1           1           1           1           1           1           0
 AtZEff=  -0.0000000  -0.0000000  -0.0000000  -0.0000000  -0.0000000  -0.0000000  -0.0000000  -0.0000000  -0.0000000  -0.0000000
 NQMom=    0.0000000   0.0000000   0.0000000   0.0000000   0.0000000   0.0000000   0.0000000   0.0000000   0.0000000   0.0000000
 NMagM=    2.7928460   2.7928460   2.7928460   2.7928460   2.7928460   2.7928460   2.7928460   2.7928460   2.7928460   0.0000000
 AtZNuc=   1.0000000   1.0000000   1.0000000   1.0000000   1.0000000   1.0000000   1.0000000   1.0000000   1.0000000  12.0000000

  Atom        81          82          83          84          85          86          87          88          89          90
 IAtWgt=          12          12          12          12          14          12          12          12          12          12
 AtmWgt=  12.0000000  12.0000000  12.0000000  12.0000000  14.0030740  12.0000000  12.0000000  12.0000000  12.0000000  12.0000000
 NucSpn=           0           0           0           0           2           0           0           0           0           0
 AtZEff=  -0.0000000  -0.0000000  -0.0000000  -0.0000000  -0.0000000  -0.0000000  -0.0000000  -0.0000000  -0.0000000  -0.0000000
 NQMom=    0.0000000   0.0000000   0.0000000   0.0000000   2.0440000   0.0000000   0.0000000   0.0000000   0.0000000   0.0000000
 NMagM=    0.0000000   0.0000000   0.0000000   0.0000000   0.4037610   0.0000000   0.0000000   0.0000000   0.0000000   0.0000000
 AtZNuc=   6.0000000   6.0000000   6.0000000   6.0000000   7.0000000   6.0000000   6.0000000   6.0000000   6.0000000   6.0000000

  Atom        91          92          93          94          95          96          97          98          99         100
 IAtWgt=          12          12           1          14          12          12          12          12          12          12
 AtmWgt=  12.0000000  12.0000000   1.0078250  14.0030740  12.0000000  12.0000000  12.0000000  12.0000000  12.0000000  12.0000000
 NucSpn=           0           0           1           2           0           0           0           0           0           0
 AtZEff=  -0.0000000  -0.0000000  -0.0000000  -0.0000000  -0.0000000  -0.0000000  -0.0000000  -0.0000000  -0.0000000  -0.0000000
 NQMom=    0.0000000   0.0000000   0.0000000   2.0440000   0.0000000   0.0000000   0.0000000   0.0000000   0.0000000   0.0000000
 NMagM=    0.0000000   0.0000000   2.7928460   0.4037610   0.0000000   0.0000000   0.0000000   0.0000000   0.0000000   0.0000000
 AtZNuc=   6.0000000   6.0000000   1.0000000   7.0000000   6.0000000   6.0000000   6.0000000   6.0000000   6.0000000   6.0000000

  Atom       101         102         103         104         105         106         107         108         109         110
 IAtWgt=          16          12          14          12          12          12          12          12          12          12
 AtmWgt=  15.9949146  12.0000000  14.0030740  12.0000000  12.0000000  12.0000000  12.0000000  12.0000000  12.0000000  12.0000000
 NucSpn=           0           0           2           0           0           0           0           0           0           0
 AtZEff=  -0.0000000  -0.0000000  -0.0000000  -0.0000000  -0.0000000  -0.0000000  -0.0000000  -0.0000000  -0.0000000  -0.0000000
 NQMom=    0.0000000   0.0000000   2.0440000   0.0000000   0.0000000   0.0000000   0.0000000   0.0000000   0.0000000   0.0000000
 NMagM=    0.0000000   0.0000000   0.4037610   0.0000000   0.0000000   0.0000000   0.0000000   0.0000000   0.0000000   0.0000000
 AtZNuc=   8.0000000   6.0000000   7.0000000   6.0000000   6.0000000   6.0000000   6.0000000   6.0000000   6.0000000   6.0000000

  Atom       111         112         113         114         115         116         117         118         119         120
 IAtWgt=          14          12          12          12          12          12          12          16          12          12
 AtmWgt=  14.0030740  12.0000000  12.0000000  12.0000000  12.0000000  12.0000000  12.0000000  15.9949146  12.0000000  12.0000000
 NucSpn=           2           0           0           0           0           0           0           0           0           0
 AtZEff=  -0.0000000  -0.0000000  -0.0000000  -0.0000000  -0.0000000  -0.0000000  -0.0000000  -0.0000000  -0.0000000  -0.0000000
 NQMom=    2.0440000   0.0000000   0.0000000   0.0000000   0.0000000   0.0000000   0.0000000   0.0000000   0.0000000   0.0000000
 NMagM=    0.4037610   0.0000000   0.0000000   0.0000000   0.0000000   0.0000000   0.0000000   0.0000000   0.0000000   0.0000000
 AtZNuc=   7.0000000   6.0000000   6.0000000   6.0000000   6.0000000   6.0000000   6.0000000   8.0000000   6.0000000   6.0000000

  Atom       121         122         123         124         125         126         127         128         129         130
 IAtWgt=          16          16          12           1           1           1           1           1           1           1
 AtmWgt=  15.9949146  15.9949146  12.0000000   1.0078250   1.0078250   1.0078250   1.0078250   1.0078250   1.0078250   1.0078250
 NucSpn=           0           0           0           1           1           1           1           1           1           1
 AtZEff=  -0.0000000  -0.0000000  -0.0000000  -0.0000000  -0.0000000  -0.0000000  -0.0000000  -0.0000000  -0.0000000  -0.0000000
 NQMom=    0.0000000   0.0000000   0.0000000   0.0000000   0.0000000   0.0000000   0.0000000   0.0000000   0.0000000   0.0000000
 NMagM=    0.0000000   0.0000000   0.0000000   2.7928460   2.7928460   2.7928460   2.7928460   2.7928460   2.7928460   2.7928460
 AtZNuc=   8.0000000   8.0000000   6.0000000   1.0000000   1.0000000   1.0000000   1.0000000   1.0000000   1.0000000   1.0000000

  Atom       131         132         133         134         135         136         137         138         139         140
 IAtWgt=           1           1           1           1           1           1           1           1           1           1
 AtmWgt=   1.0078250   1.0078250   1.0078250   1.0078250   1.0078250   1.0078250   1.0078250   1.0078250   1.0078250   1.0078250
 NucSpn=           1           1           1           1           1           1           1           1           1           1
 AtZEff=  -0.0000000  -0.0000000  -0.0000000  -0.0000000  -0.0000000  -0.0000000  -0.0000000  -0.0000000  -0.0000000  -0.0000000
 NQMom=    0.0000000   0.0000000   0.0000000   0.0000000   0.0000000   0.0000000   0.0000000   0.0000000   0.0000000   0.0000000
 NMagM=    2.7928460   2.7928460   2.7928460   2.7928460   2.7928460   2.7928460   2.7928460   2.7928460   2.7928460   2.7928460
 AtZNuc=   1.0000000   1.0000000   1.0000000   1.0000000   1.0000000   1.0000000   1.0000000   1.0000000   1.0000000   1.0000000

  Atom       141         142         143         144         145         146         147         148         149         150
 IAtWgt=           1           1           1           1           1           1           1           1           1           1
 AtmWgt=   1.0078250   1.0078250   1.0078250   1.0078250   1.0078250   1.0078250   1.0078250   1.0078250   1.0078250   1.0078250
 NucSpn=           1           1           1           1           1           1           1           1           1           1
 AtZEff=  -0.0000000  -0.0000000  -0.0000000  -0.0000000  -0.0000000  -0.0000000  -0.0000000  -0.0000000  -0.0000000  -0.0000000
 NQMom=    0.0000000   0.0000000   0.0000000   0.0000000   0.0000000   0.0000000   0.0000000   0.0000000   0.0000000   0.0000000
 NMagM=    2.7928460   2.7928460   2.7928460   2.7928460   2.7928460   2.7928460   2.7928460   2.7928460   2.7928460   2.7928460
 AtZNuc=   1.0000000   1.0000000   1.0000000   1.0000000   1.0000000   1.0000000   1.0000000   1.0000000   1.0000000   1.0000000

  Atom       151         152         153         154         155         156         157         158
 IAtWgt=           1           1           1           1           1           1           1           1
 AtmWgt=   1.0078250   1.0078250   1.0078250   1.0078250   1.0078250   1.0078250   1.0078250   1.0078250
 NucSpn=           1           1           1           1           1           1           1           1
 AtZEff=  -0.0000000  -0.0000000  -0.0000000  -0.0000000  -0.0000000  -0.0000000  -0.0000000  -0.0000000
 NQMom=    0.0000000   0.0000000   0.0000000   0.0000000   0.0000000   0.0000000   0.0000000   0.0000000
 NMagM=    2.7928460   2.7928460   2.7928460   2.7928460   2.7928460   2.7928460   2.7928460   2.7928460
 AtZNuc=   1.0000000   1.0000000   1.0000000   1.0000000   1.0000000   1.0000000   1.0000000   1.0000000
 Leave Link  101 at Thu Sep  9 09:32:10 2021, MaxMem= 23488102400 cpu:               3.2 elap:               0.2
 (Enter /sw/apps/gaussian-16.0/g16/l202.exe)
 Stoichiometry    C68H72Mg2N8O8
 Framework group  C1[X(C68H72Mg2N8O8)]
 Deg. of freedom   468
 Full point group                 C1      NOp   1
 Largest Abelian subgroup         C1      NOp   1
 Largest concise Abelian subgroup C1      NOp   1
                         Standard orientation:                         
 ---------------------------------------------------------------------
 Center     Atomic      Atomic             Coordinates (Angstroms)
 Number     Number       Type             X           Y           Z
 ---------------------------------------------------------------------
      1         12           0       -3.769513    0.388668   -1.081444
      2          6           0       -4.210225   -2.780324    0.523385
      3          6           0       -5.501299    1.774993    1.511255
      4          6           0       -3.788780    3.117935   -2.696173
      5          6           0       -3.098372   -1.359292   -4.020809
      6          7           0       -4.686689   -0.494328    0.729565
      7          6           0       -4.733162   -1.713453    1.257529
      8          6           0       -5.322689   -1.740209    2.699443
      9          6           0       -6.183447   -0.399290    2.644398
     10          6           0       -5.390997    0.354971    1.591289
     11          6           0       -7.605149   -0.608472    2.133019
     12          6           0       -4.209929   -1.661979    3.798250
     13          6           0       -4.667931   -2.008844    5.217853
     14          1           0       -3.746609   -2.710057    6.099224
     15          7           0       -4.089899    2.238662   -0.466852
     16          6           0       -4.804407    2.618824    0.619537
     17          6           0       -4.748252    4.096231    0.647726
     18          6           0       -4.103339    4.551246   -0.615264
     19          6           0       -3.990468    3.306038   -1.330873
     20          6           0       -5.227290    4.915894    1.806357
     21          6           0       -3.668807    5.896570   -1.104567
     22          8           0       -3.342899    6.104429   -2.323235
     23          6           0       -3.720078    6.999066   -0.127370
     24          7           0       -3.701627    0.833070   -3.119956
     25          6           0       -3.663396    2.099246   -3.549284
     26          6           0       -3.333934    2.170485   -5.010899
     27          6           0       -2.913429    0.691566   -5.441861
     28          6           0       -3.167781   -0.028192   -4.094448
     29          6           0       -4.460148    2.668320   -5.927313
     30          6           0       -1.529921    0.522886   -6.118524
     31          6           0       -0.431704    0.820978   -5.122452
     32          7           0       -3.490680   -1.690458   -1.638701
     33          6           0       -3.242706   -2.192813   -2.924322
     34          6           0       -3.237160   -3.663564   -2.819778
     35          6           0       -3.500456   -3.916553   -1.474967
     36          6           0       -3.686339   -2.682677   -0.788460
     37          6           0       -3.065259   -4.575077   -3.898679
     38          6           0       -3.692382   -4.942873   -0.463193
     39          8           0       -3.564203   -6.167733   -0.435250
     40          6           0       -4.279945   -4.252288    0.845887
     41          6           0       -3.484192   -4.753290    2.020230
     42          8           0       -2.279699   -4.454265    2.151171
     43          8           0       -4.315803   -5.301458    2.919384
     44          6           0       -3.593119   -5.792271    4.123122
     45          1           0       -6.228929    2.284493    2.146002
     46          1           0       -3.678888    4.039415   -3.271705
     47          1           0       -2.812126   -1.969111   -4.879668
     48          1           0       -5.971496   -2.590713    2.909483
     49          1           0       -6.161047    0.137870    3.592385
     50          1           0       -7.751770   -1.624983    1.768150
     51          1           0       -7.731254    0.109022    1.321975
     52          1           0       -8.335195   -0.331750    2.894093
     53          1           0       -3.922494   -0.620901    3.945215
     54          1           0       -3.358772   -2.289093    3.530695
     55          1           0       -5.641271   -2.500271    5.213728
     56          1           0       -4.836755   -1.077959    5.759288
     57          1           0       -5.800283    4.315558    2.511922
     58          1           0       -5.947127    5.633314    1.412845
     59          1           0       -4.411986    5.445789    2.299126
     60          1           0       -4.741665    7.109976    0.236784
     61          1           0       -3.289212    7.865216   -0.628358
     62          1           0       -3.113315    6.732048    0.738361
     63          1           0       -2.498767    2.846113   -5.191032
     64          1           0       -3.613671    0.259250   -6.157010
     65          1           0       -4.186703    3.539086   -6.523718
     66          1           0       -5.331653    2.876920   -5.307429
     67          1           0       -4.856104    1.919670   -6.612994
     68          1           0       -1.420058    1.231527   -6.938709
     69          1           0       -1.366334   -0.477206   -6.520152
     70          1           0       -0.352335    1.906657   -5.165277
     71          1           0        0.501206    0.348801   -5.432193
     72          1           0       -0.731355    0.555916   -4.108334
     73          1           0       -2.385359   -5.347704   -3.539856
     74          1           0       -2.665886   -4.074290   -4.780335
     75          1           0       -4.090773   -4.915726   -4.040574
     76          1           0       -5.328642   -4.541067    0.908848
     77          1           0       -3.844894   -6.846273    4.241118
     78          1           0       -3.852655   -5.115802    4.937638
     79          1           0       -2.506849   -5.847790    4.043921
     80         12           0        3.864192    0.909423    1.057878
     81          6           0        4.475271   -1.789512   -1.227163
     82          6           0        2.516020   -1.392934    3.183016
     83          6           0        2.906331    3.312565    2.894952
     84          6           0        4.191289    3.086710   -1.643628
     85          7           0        3.588637   -1.278571    0.887517
     86          6           0        3.915588   -2.204908   -0.000931
     87          6           0        3.700549   -3.664200    0.482584
     88          6           0        2.578806   -3.385303    1.597386
     89          6           0        2.931452   -1.939950    1.942738
     90          6           0        1.162824   -3.412893    1.046422
     91          6           0        4.997247   -4.281745    1.114409
     92          6           0        4.951234   -5.796743    1.325151
     93          1           0        6.180982   -6.562641    1.141873
     94          7           0        3.312875    0.927981    2.964252
     95          6           0        2.807588   -0.101792    3.675257
     96          6           0        2.544813    0.429512    5.021665
     97          6           0        2.781975    1.898533    5.000776
     98          6           0        2.994105    2.111178    3.583076
     99          6           0        2.190069   -0.447155    6.187442
    100          6           0        2.800489    2.941615    6.076804
    101          8           0        2.791999    4.193373    5.801374
    102          6           0        2.734523    2.455158    7.462625
    103          7           0        3.378142    2.889216    0.649843
    104          6           0        3.043314    3.736757    1.638523
    105          6           0        3.005513    5.163315    1.144665
    106          6           0        3.623037    5.123938   -0.330015
    107          6           0        3.838039    3.601285   -0.473765
    108          6           0        1.623836    5.815537    1.100307
    109          6           0        4.821181    6.069931   -0.616771
    110          6           0        6.030019    5.626401    0.175299
    111          7           0        4.440452    0.737608   -1.017329
    112          6           0        4.484324    1.770956   -1.978767
    113          6           0        4.822951    1.146404   -3.274024
    114          6           0        4.930844   -0.220871   -2.978396
    115          6           0        4.657502   -0.435945   -1.600520
    116          6           0        4.942064    1.825688   -4.519219
    117          6           0        5.203368   -1.532437   -3.520809
    118          8           0        5.581424   -1.960403   -4.610609
    119          6           0        4.796453   -2.621914   -2.437360
    120          6           0        5.923781   -3.611685   -2.327835
    121          8           0        7.033177   -3.260122   -1.889360
    122          8           0        5.446552   -4.849640   -2.551635
    123          6           0        6.525308   -5.867639   -2.443075
    124          1           0        1.869717   -1.992927    3.824246
    125          1           0        2.687133    4.191104    3.506176
    126          1           0        4.407884    3.709840   -2.513957
    127          1           0        3.315549   -4.340437   -0.271248
    128          1           0        2.714098   -4.028133    2.463314
    129          1           0        1.150947   -3.498780   -0.029979
    130          1           0        0.708247   -2.481137    1.356651
    131          1           0        0.585390   -4.205774    1.530405
    132          1           0        5.080681   -3.949446    2.157175
    133          1           0        5.863027   -4.023481    0.536177
    134          1           0        4.122593   -6.263865    0.779168
    135          1           0        4.725054   -5.994241    2.375791
    136          1           0        1.926297   -1.461208    5.862574
    137          1           0        1.263734   -0.049716    6.616174
    138          1           0        2.962342   -0.454137    6.959582
    139          1           0        1.826443    1.872470    7.597975
    140          1           0        2.849541    3.341678    8.089312
    141          1           0        3.574676    1.773046    7.634338
    142          1           0        3.619463    5.803964    1.765751
    143          1           0        2.881179    5.409696   -1.090169
    144          1           0        1.562905    6.749475    1.690317
    145          1           0        0.895459    5.096282    1.450556
    146          1           0        1.255727    6.050174    0.102993
    147          1           0        4.589324    7.085503   -0.286604
    148          1           0        5.085879    6.125416   -1.667417
    149          1           0        5.860938    6.078181    1.157333
    150          1           0        6.944662    6.001400   -0.279485
    151          1           0        6.035134    4.538453    0.309431
    152          1           0        5.824629    1.431884   -5.005532
    153          1           0        5.011153    2.902506   -4.379672
    154          1           0        4.000917    1.532604   -4.992085
    155          1           0        3.871517   -3.090670   -2.775491
    156          1           0        6.531643   -6.427931   -3.383133
    157          1           0        6.307792   -6.436077   -1.519324
    158          1           0        7.548079   -5.511660   -2.402149
 ---------------------------------------------------------------------
 Rotational constants (GHZ):           0.0206137           0.0163025           0.0149054
 Leave Link  202 at Thu Sep  9 09:32:10 2021, MaxMem= 23488102400 cpu:               0.2 elap:               0.0
 (Enter /sw/apps/gaussian-16.0/g16/l301.exe)
 Standard basis: def2SVP (5D, 7F)
 Ernie: Thresh=  0.10000D-02 Tol=  0.10000D-05 Strict=F.
 There are  1658 symmetry adapted cartesian basis functions of A   symmetry.
 There are  1572 symmetry adapted basis functions of A   symmetry.
  1572 basis functions,  2678 primitive gaussians,  1658 cartesian basis functions
   312 alpha electrons      312 beta electrons
       nuclear repulsion energy     15936.8517483322 Hartrees.
 IExCor=20419 DFT=T Ex+Corr=CAM-B3LYP ExCW=0 ScaHFX=  1.000000
 ScaDFX=  1.000000  1.000000  1.000000  0.810000 ScalE2=  1.000000  1.000000
 IRadAn=      5 IRanWt=     -1 IRanGd=            0 ICorTp=0 IEmpDi=  4
 HFx  wShort=  0.000000 wLong=  0.330000 cFull=  0.190000 cShort=  0.000000 cLong=  0.460000
 DFx  wShort=  0.000000 wLong=  0.330000 cFull=  0.190000 cShort=  0.000000 cLong=  0.460000
 NAtoms=  158 NActive=  158 NUniq=  158 SFac= 1.00D+00 NAtFMM=   60 NAOKFM=T Big=T
 Integral buffers will be    131072 words long.
 Raffenetti 1 integral format.
 Two-electron integral symmetry is turned on.
 Leave Link  301 at Thu Sep  9 09:32:10 2021, MaxMem= 23488102400 cpu:               1.4 elap:               0.1
 (Enter /sw/apps/gaussian-16.0/g16/l302.exe)
 NPDir=0 NMtPBC=     1 NCelOv=     1 NCel=       1 NClECP=     1 NCelD=      1
         NCelK=      1 NCelE2=     1 NClLst=     1 CellRange=     0.0.
 One-electron integrals computed using PRISM.
 One-electron integral symmetry used in STVInt
   1 Symmetry operations used in ECPInt.
 ECPInt:  NShTT=  271216 NPrTT=  987664 LenC2=  164259 LenP2D=  344669.
 LDataN:  DoStor=T MaxTD1= 4 Len=   56
 NBasis=  1572 RedAO= T EigKep=  3.35D-04  NBF=  1572
 NBsUse=  1572 1.00D-06 EigRej= -1.00D+00 NBFU=  1572
 Precomputing XC quadrature grid using
 IXCGrd= 4 IRadAn=           5 IRanWt=          -1 IRanGd=           0 AccXCQ= 0.00D+00.
 Generated NRdTot=       0 NPtTot=           0 NUsed=           0 NTot=          32
 NSgBfM=  1257  1241  1243  1247  1257 MxSgAt=   158 MxSgA2=   158.
 Leave Link  302 at Thu Sep  9 09:32:16 2021, MaxMem= 23488102400 cpu:             129.5 elap:               5.4
 (Enter /sw/apps/gaussian-16.0/g16/l303.exe)
 DipDrv:  MaxL=1.
 Leave Link  303 at Thu Sep  9 09:32:16 2021, MaxMem= 23488102400 cpu:               9.1 elap:               0.4
 (Enter /sw/apps/gaussian-16.0/g16/l308.exe)
 Leave Link  308 at Thu Sep  9 09:32:17 2021, MaxMem= 23488102400 cpu:              15.0 elap:               0.7
 (Enter /sw/apps/gaussian-16.0/g16/l401.exe)
 ExpMin= 3.36D-02 ExpMax= 4.95D+03 ExpMxC= 7.45D+02 IAcc=3 IRadAn=         5 AccDes= 0.00D+00
 Harris functional with IExCor=20419 and IRadAn=       5 diagonalized for initial guess.
 HarFok:  IExCor=20419 AccDes= 0.00D+00 IRadAn=         5 IDoV= 1 UseB2=F ITyADJ=14
 ICtDFT=  3500011 ScaDFX=  1.000000  1.000000  1.000000  1.000000
 FoFCou: FMM=F IPFlag=           0 FMFlag=      100000 FMFlg1=        2001
         NFxFlg=           0 DoJE=T BraDBF=F KetDBF=T FulRan=T
         wScrn=  0.000000 ICntrl=       500 IOpCl=  0 I1Cent=   200000004 NGrid=           0
         NMat0=    1 NMatS0=      1 NMatT0=    0 NMatD0=    1 NMtDS0=    0 NMtDT0=    0
 Petite list used in FoFCou.
 Harris En= -3918.66082088422    
 JPrj=0 DoOrth=F DoCkMO=F.
 Leave Link  401 at Thu Sep  9 09:32:25 2021, MaxMem= 23488102400 cpu:             201.2 elap:               8.4
 (Enter /sw/apps/gaussian-16.0/g16/l502.exe)
 Integral symmetry usage will be decided dynamically.
 Closed shell SCF:
 Using DIIS extrapolation, IDIIS=  1040.
 NGot= 23488102400 LenX= 23482547354 LenY= 23479796732
 Requested convergence on RMS density matrix=1.00D-08 within 128 cycles.
 Requested convergence on MAX density matrix=1.00D-06.
 Requested convergence on             energy=1.00D-06.
 No special actions if energy rises.
 Fock matrices will be formed incrementally for  20 cycles.

 Cycle   1  Pass 1  IDiag  1:
 FoFJK:  IHMeth= 1 ICntrl=       0 DoSepK=T KAlg= 0 I1Cent=           0 FoldK=F
 IRaf=         1 NMat=       1 IRICut=       1 DoRegI=T DoRafI=F ISym2E= 0 IDoP0=0 IntGTp=1.
 FoFCou: FMM=T IPFlag=           0 FMFlag=      100000 FMFlg1=        2001
         NFxFlg=           0 DoJE=T BraDBF=F KetDBF=F FulRan=T
         wScrn=  0.000000 ICntrl=       500 IOpCl=  0 I1Cent=           0 NGrid=           0
         NMat0=    1 NMatS0=      1 NMatT0=    0 NMatD0=    1 NMtDS0=    0 NMtDT0=    0
 Symmetry not used in FoFCou.
 FMM levels:  10  Number of levels for PrismC:   9
 E= -4068.95218575341    
 DIIS: error= 2.04D-02 at cycle   1 NSaved=   1.
 NSaved= 1 IEnMin= 1 EnMin= -4068.95218575341     IErMin= 1 ErrMin= 2.04D-02
 ErrMax= 2.04D-02  0.00D+00 EMaxC= 1.00D-01 BMatC= 1.69D+00 BMatP= 1.69D+00
 IDIUse=3 WtCom= 7.96D-01 WtEn= 2.04D-01
 Coeff-Com:  0.100D+01
 Coeff-En:   0.100D+01
 Coeff:      0.100D+01
 Gap=     0.120 Goal=   None    Shift=    0.000
 GapD=    0.120 DampG=1.000 DampE=0.500 DampFc=0.5000 IDamp=-1.
 Damping current iteration by 5.00D-01
 RMSDP=1.58D-03 MaxDP=1.38D-01              OVMax= 1.99D-01

 Cycle   2  Pass 1  IDiag  1:
 RMSU=  7.74D-04    CP:  9.82D-01
 E= -4069.34194706218     Delta-E=       -0.389761308768 Rises=F Damp=T
 DIIS: error= 1.27D-02 at cycle   2 NSaved=   2.
 NSaved= 2 IEnMin= 2 EnMin= -4069.34194706218     IErMin= 2 ErrMin= 1.27D-02
 ErrMax= 1.27D-02  0.00D+00 EMaxC= 1.00D-01 BMatC= 3.06D-01 BMatP= 1.69D+00
 IDIUse=3 WtCom= 8.73D-01 WtEn= 1.27D-01
 Coeff-Com: -0.215D+00 0.121D+01
 Coeff-En:   0.000D+00 0.100D+01
 Coeff:     -0.187D+00 0.119D+01
 Gap=     0.131 Goal=   None    Shift=    0.000
 RMSDP=7.68D-04 MaxDP=9.43D-02 DE=-3.90D-01 OVMax= 1.91D-01

 Cycle   3  Pass 1  IDiag  1:
 RMSU=  7.35D-04    CP:  9.68D-01  1.24D+00
 E= -4069.63259538721     Delta-E=       -0.290648325026 Rises=F Damp=F
 DIIS: error= 1.48D-02 at cycle   3 NSaved=   3.
 NSaved= 3 IEnMin= 3 EnMin= -4069.63259538721     IErMin= 2 ErrMin= 1.27D-02
 ErrMax= 1.48D-02  0.00D+00 EMaxC= 1.00D-01 BMatC= 1.99D-01 BMatP= 3.06D-01
 IDIUse=3 WtCom= 8.52D-01 WtEn= 1.48D-01
 Coeff-Com: -0.267D+00 0.650D+00 0.617D+00
 Coeff-En:   0.000D+00 0.000D+00 0.100D+01
 Coeff:     -0.227D+00 0.554D+00 0.674D+00
 Gap=     0.117 Goal=   None    Shift=    0.000
 RMSDP=5.08D-04 MaxDP=4.63D-02 DE=-2.91D-01 OVMax= 1.42D-01

 Cycle   4  Pass 1  IDiag  1:
 RMSU=  2.65D-04    CP:  9.64D-01  1.54D+00  5.06D-01
 E= -4069.77036559404     Delta-E=       -0.137770206828 Rises=F Damp=F
 DIIS: error= 6.49D-03 at cycle   4 NSaved=   4.
 NSaved= 4 IEnMin= 4 EnMin= -4069.77036559404     IErMin= 4 ErrMin= 6.49D-03
 ErrMax= 6.49D-03  0.00D+00 EMaxC= 1.00D-01 BMatC= 4.74D-02 BMatP= 1.99D-01
 IDIUse=3 WtCom= 9.35D-01 WtEn= 6.49D-02
 Coeff-Com: -0.110D+00 0.228D+00 0.405D+00 0.477D+00
 Coeff-En:   0.000D+00 0.000D+00 0.213D+00 0.787D+00
 Coeff:     -0.103D+00 0.213D+00 0.393D+00 0.497D+00
 Gap=     0.118 Goal=   None    Shift=    0.000
 RMSDP=1.99D-04 MaxDP=1.83D-02 DE=-1.38D-01 OVMax= 6.39D-02

 Cycle   5  Pass 1  IDiag  1:
 RMSU=  7.68D-05    CP:  9.64D-01  1.49D+00  6.88D-01  5.52D-01
 E= -4069.81375969255     Delta-E=       -0.043394098509 Rises=F Damp=F
 DIIS: error= 6.74D-04 at cycle   5 NSaved=   5.
 NSaved= 5 IEnMin= 5 EnMin= -4069.81375969255     IErMin= 5 ErrMin= 6.74D-04
 ErrMax= 6.74D-04  0.00D+00 EMaxC= 1.00D-01 BMatC= 1.18D-03 BMatP= 4.74D-02
 IDIUse=3 WtCom= 9.93D-01 WtEn= 6.74D-03
 Coeff-Com: -0.381D-01 0.751D-01 0.169D+00 0.254D+00 0.540D+00
 Coeff-En:   0.000D+00 0.000D+00 0.000D+00 0.000D+00 0.100D+01
 Coeff:     -0.379D-01 0.746D-01 0.168D+00 0.252D+00 0.543D+00
 Gap=     0.117 Goal=   None    Shift=    0.000
 RMSDP=4.38D-05 MaxDP=4.88D-03 DE=-4.34D-02 OVMax= 2.06D-02

 Cycle   6  Pass 1  IDiag  1:
 RMSU=  3.24D-05    CP:  9.64D-01  1.50D+00  6.79D-01  6.24D-01  7.28D-01
 E= -4069.81480882389     Delta-E=       -0.001049131341 Rises=F Damp=F
 DIIS: error= 2.27D-04 at cycle   6 NSaved=   6.
 NSaved= 6 IEnMin= 6 EnMin= -4069.81480882389     IErMin= 6 ErrMin= 2.27D-04
 ErrMax= 2.27D-04  0.00D+00 EMaxC= 1.00D-01 BMatC= 2.05D-04 BMatP= 1.18D-03
 IDIUse=3 WtCom= 9.98D-01 WtEn= 2.27D-03
 Coeff-Com:  0.125D-02-0.469D-02 0.146D-01 0.443D-01 0.316D+00 0.628D+00
 Coeff-En:   0.000D+00 0.000D+00 0.000D+00 0.000D+00 0.144D+00 0.856D+00
 Coeff:      0.124D-02-0.468D-02 0.145D-01 0.442D-01 0.316D+00 0.629D+00
 Gap=     0.118 Goal=   None    Shift=    0.000
 RMSDP=1.79D-05 MaxDP=1.22D-03 DE=-1.05D-03 OVMax= 8.66D-03

 Cycle   7  Pass 1  IDiag  1:
 RMSU=  1.14D-05    CP:  9.64D-01  1.50D+00  6.85D-01  6.22D-01  8.46D-01
                    CP:  7.13D-01
 E= -4069.81503765255     Delta-E=       -0.000228828660 Rises=F Damp=F
 DIIS: error= 1.15D-04 at cycle   7 NSaved=   7.
 NSaved= 7 IEnMin= 7 EnMin= -4069.81503765255     IErMin= 7 ErrMin= 1.15D-04
 ErrMax= 1.15D-04  0.00D+00 EMaxC= 1.00D-01 BMatC= 2.72D-05 BMatP= 2.05D-04
 IDIUse=3 WtCom= 9.99D-01 WtEn= 1.15D-03
 Coeff-Com:  0.446D-02-0.984D-02-0.827D-02-0.246D-02 0.115D+00 0.342D+00
 Coeff-Com:  0.559D+00
 Coeff-En:   0.000D+00 0.000D+00 0.000D+00 0.000D+00 0.000D+00 0.000D+00
 Coeff-En:   0.100D+01
 Coeff:      0.445D-02-0.983D-02-0.826D-02-0.245D-02 0.115D+00 0.342D+00
 Coeff:      0.559D+00
 Gap=     0.118 Goal=   None    Shift=    0.000
 RMSDP=6.84D-06 MaxDP=1.27D-03 DE=-2.29D-04 OVMax= 3.75D-03

 Cycle   8  Pass 1  IDiag  1:
 RMSU=  4.74D-06    CP:  9.64D-01  1.50D+00  6.86D-01  6.27D-01  8.45D-01
                    CP:  8.37D-01  7.99D-01
 E= -4069.81507065162     Delta-E=       -0.000032999069 Rises=F Damp=F
 DIIS: error= 4.63D-05 at cycle   8 NSaved=   8.
 NSaved= 8 IEnMin= 8 EnMin= -4069.81507065162     IErMin= 8 ErrMin= 4.63D-05
 ErrMax= 4.63D-05  0.00D+00 EMaxC= 1.00D-01 BMatC= 4.64D-06 BMatP= 2.72D-05
 IDIUse=1 WtCom= 1.00D+00 WtEn= 0.00D+00
 Coeff-Com:  0.227D-02-0.452D-02-0.790D-02-0.123D-01-0.960D-02 0.347D-01
 Coeff-Com:  0.306D+00 0.691D+00
 Coeff:      0.227D-02-0.452D-02-0.790D-02-0.123D-01-0.960D-02 0.347D-01
 Coeff:      0.306D+00 0.691D+00
 Gap=     0.118 Goal=   None    Shift=    0.000
 RMSDP=3.37D-06 MaxDP=4.68D-04 DE=-3.30D-05 OVMax= 1.20D-03

 Cycle   9  Pass 1  IDiag  1:
 RMSU=  1.94D-06    CP:  9.64D-01  1.50D+00  6.86D-01  6.28D-01  8.63D-01
                    CP:  8.65D-01  9.88D-01  9.76D-01
 E= -4069.81507810021     Delta-E=       -0.000007448598 Rises=F Damp=F
 DIIS: error= 1.81D-05 at cycle   9 NSaved=   9.
 NSaved= 9 IEnMin= 9 EnMin= -4069.81507810021     IErMin= 9 ErrMin= 1.81D-05
 ErrMax= 1.81D-05  0.00D+00 EMaxC= 1.00D-01 BMatC= 7.46D-07 BMatP= 4.64D-06
 IDIUse=1 WtCom= 1.00D+00 WtEn= 0.00D+00
 Coeff-Com:  0.542D-03-0.924D-03-0.287D-02-0.627D-02-0.213D-01-0.378D-01
 Coeff-Com:  0.883D-01 0.352D+00 0.628D+00
 Coeff:      0.542D-03-0.924D-03-0.287D-02-0.627D-02-0.213D-01-0.378D-01
 Coeff:      0.883D-01 0.352D+00 0.628D+00
 Gap=     0.118 Goal=   None    Shift=    0.000
 RMSDP=1.38D-06 MaxDP=1.40D-04 DE=-7.45D-06 OVMax= 6.98D-04

 Cycle  10  Pass 1  IDiag  1:
 RMSU=  9.29D-07    CP:  9.64D-01  1.50D+00  6.86D-01  6.29D-01  8.66D-01
                    CP:  8.76D-01  1.03D+00  1.13D+00  1.04D+00
 E= -4069.81507967689     Delta-E=       -0.000001576678 Rises=F Damp=F
 DIIS: error= 8.38D-06 at cycle  10 NSaved=  10.
 NSaved=10 IEnMin=10 EnMin= -4069.81507967689     IErMin=10 ErrMin= 8.38D-06
 ErrMax= 8.38D-06  0.00D+00 EMaxC= 1.00D-01 BMatC= 1.50D-07 BMatP= 7.46D-07
 IDIUse=1 WtCom= 1.00D+00 WtEn= 0.00D+00
 Coeff-Com: -0.403D-03 0.850D-03 0.111D-02 0.961D-03-0.406D-02-0.295D-01
 Coeff-Com: -0.421D-01-0.613D-01 0.223D+00 0.912D+00
 Coeff:     -0.403D-03 0.850D-03 0.111D-02 0.961D-03-0.406D-02-0.295D-01
 Coeff:     -0.421D-01-0.613D-01 0.223D+00 0.912D+00
 Gap=     0.118 Goal=   None    Shift=    0.000
 RMSDP=1.17D-06 MaxDP=1.21D-04 DE=-1.58D-06 OVMax= 6.00D-04

 Cycle  11  Pass 1  IDiag  1:
 RMSU=  5.11D-07    CP:  9.64D-01  1.50D+00  6.86D-01  6.29D-01  8.68D-01
                    CP:  8.85D-01  1.07D+00  1.24D+00  1.36D+00  1.35D+00
 E= -4069.81508038966     Delta-E=       -0.000000712771 Rises=F Damp=F
 DIIS: error= 4.09D-06 at cycle  11 NSaved=  11.
 NSaved=11 IEnMin=11 EnMin= -4069.81508038966     IErMin=11 ErrMin= 4.09D-06
 ErrMax= 4.09D-06  0.00D+00 EMaxC= 1.00D-01 BMatC= 6.02D-08 BMatP= 1.50D-07
 IDIUse=1 WtCom= 1.00D+00 WtEn= 0.00D+00
 Coeff-Com: -0.335D-03 0.653D-03 0.130D-02 0.207D-02 0.419D-02-0.817D-02
 Coeff-Com: -0.387D-01-0.124D+00-0.435D-01 0.483D+00 0.724D+00
 Coeff:     -0.335D-03 0.653D-03 0.130D-02 0.207D-02 0.419D-02-0.817D-02
 Coeff:     -0.387D-01-0.124D+00-0.435D-01 0.483D+00 0.724D+00
 Gap=     0.118 Goal=   None    Shift=    0.000
 RMSDP=6.54D-07 MaxDP=5.51D-05 DE=-7.13D-07 OVMax= 3.49D-04

 Cycle  12  Pass 1  IDiag  1:
 RMSU=  2.61D-07    CP:  9.64D-01  1.50D+00  6.86D-01  6.29D-01  8.69D-01
                    CP:  8.87D-01  1.09D+00  1.30D+00  1.51D+00  1.73D+00
                    CP:  1.19D+00
 E= -4069.81508062986     Delta-E=       -0.000000240201 Rises=F Damp=F
 DIIS: error= 2.55D-06 at cycle  12 NSaved=  12.
 NSaved=12 IEnMin=12 EnMin= -4069.81508062986     IErMin=12 ErrMin= 2.55D-06
 ErrMax= 2.55D-06  0.00D+00 EMaxC= 1.00D-01 BMatC= 1.42D-08 BMatP= 6.02D-08
 IDIUse=1 WtCom= 1.00D+00 WtEn= 0.00D+00
 Coeff-Com: -0.255D-04 0.348D-04 0.253D-03 0.601D-03 0.337D-02 0.283D-02
 Coeff-Com:  0.398D-03-0.362D-01-0.711D-01-0.327D-01 0.263D+00 0.870D+00
 Coeff:     -0.255D-04 0.348D-04 0.253D-03 0.601D-03 0.337D-02 0.283D-02
 Coeff:      0.398D-03-0.362D-01-0.711D-01-0.327D-01 0.263D+00 0.870D+00
 Gap=     0.118 Goal=   None    Shift=    0.000
 RMSDP=3.93D-07 MaxDP=2.50D-05 DE=-2.40D-07 OVMax= 2.28D-04

 Cycle  13  Pass 1  IDiag  1:
 RMSU=  1.66D-07    CP:  9.64D-01  1.50D+00  6.86D-01  6.29D-01  8.70D-01
                    CP:  8.87D-01  1.10D+00  1.33D+00  1.61D+00  1.94D+00
                    CP:  1.57D+00  1.20D+00
 E= -4069.81508070918     Delta-E=       -0.000000079319 Rises=F Damp=F
 DIIS: error= 1.47D-06 at cycle  13 NSaved=  13.
 NSaved=13 IEnMin=13 EnMin= -4069.81508070918     IErMin=13 ErrMin= 1.47D-06
 ErrMax= 1.47D-06  0.00D+00 EMaxC= 1.00D-01 BMatC= 8.51D-09 BMatP= 1.42D-08
 IDIUse=1 WtCom= 1.00D+00 WtEn= 0.00D+00
 Coeff-Com:  0.114D-03-0.234D-03-0.339D-03-0.413D-03 0.754D-03 0.440D-02
 Coeff-Com:  0.172D-01 0.222D-01-0.322D-01-0.229D+00-0.158D+00 0.597D+00
 Coeff-Com:  0.778D+00
 Coeff:      0.114D-03-0.234D-03-0.339D-03-0.413D-03 0.754D-03 0.440D-02
 Coeff:      0.172D-01 0.222D-01-0.322D-01-0.229D+00-0.158D+00 0.597D+00
 Coeff:      0.778D+00
 Gap=     0.118 Goal=   None    Shift=    0.000
 RMSDP=3.25D-07 MaxDP=1.92D-05 DE=-7.93D-08 OVMax= 1.79D-04

 Cycle  14  Pass 1  IDiag  1:
 RMSU=  7.80D-08    CP:  9.64D-01  1.50D+00  6.86D-01  6.29D-01  8.70D-01
                    CP:  8.88D-01  1.10D+00  1.35D+00  1.68D+00  2.12D+00
                    CP:  1.82D+00  1.73D+00  1.08D+00
 E= -4069.81508074492     Delta-E=       -0.000000035740 Rises=F Damp=F
 DIIS: error= 6.66D-07 at cycle  14 NSaved=  14.
 NSaved=14 IEnMin=14 EnMin= -4069.81508074492     IErMin=14 ErrMin= 6.66D-07
 ErrMax= 6.66D-07  0.00D+00 EMaxC= 1.00D-01 BMatC= 1.34D-09 BMatP= 8.51D-09
 IDIUse=1 WtCom= 1.00D+00 WtEn= 0.00D+00
 Coeff-Com:  0.714D-04-0.141D-03-0.256D-03-0.399D-03-0.419D-03 0.119D-02
 Coeff-Com:  0.101D-01 0.207D-01 0.385D-02-0.107D+00-0.155D+00 0.104D+00
 Coeff-Com:  0.411D+00 0.712D+00
 Coeff:      0.714D-04-0.141D-03-0.256D-03-0.399D-03-0.419D-03 0.119D-02
 Coeff:      0.101D-01 0.207D-01 0.385D-02-0.107D+00-0.155D+00 0.104D+00
 Coeff:      0.411D+00 0.712D+00
 Gap=     0.118 Goal=   None    Shift=    0.000
 RMSDP=1.09D-07 MaxDP=6.51D-06 DE=-3.57D-08 OVMax= 6.43D-05

 Cycle  15  Pass 1  IDiag  1:
 RMSU=  3.94D-08    CP:  9.64D-01  1.50D+00  6.86D-01  6.29D-01  8.70D-01
                    CP:  8.88D-01  1.10D+00  1.35D+00  1.69D+00  2.17D+00
                    CP:  1.94D+00  1.88D+00  1.33D+00  9.98D-01
 E= -4069.81508074908     Delta-E=       -0.000000004158 Rises=F Damp=F
 DIIS: error= 3.55D-07 at cycle  15 NSaved=  15.
 NSaved=15 IEnMin=15 EnMin= -4069.81508074908     IErMin=15 ErrMin= 3.55D-07
 ErrMax= 3.55D-07  0.00D+00 EMaxC= 1.00D-01 BMatC= 2.61D-10 BMatP= 1.34D-09
 IDIUse=1 WtCom= 1.00D+00 WtEn= 0.00D+00
 Coeff-Com:  0.120D-04-0.222D-04-0.547D-04-0.113D-03-0.310D-03-0.410D-03
 Coeff-Com:  0.183D-02 0.457D-02 0.828D-02-0.631D-02-0.426D-01-0.630D-01
 Coeff-Com:  0.493D-01 0.332D+00 0.717D+00
 Coeff:      0.120D-04-0.222D-04-0.547D-04-0.113D-03-0.310D-03-0.410D-03
 Coeff:      0.183D-02 0.457D-02 0.828D-02-0.631D-02-0.426D-01-0.630D-01
 Coeff:      0.493D-01 0.332D+00 0.717D+00
 Gap=     0.118 Goal=   None    Shift=    0.000
 RMSDP=3.90D-08 MaxDP=2.36D-06 DE=-4.16D-09 OVMax= 2.25D-05

 Cycle  16  Pass 1  IDiag  1:
 RMSU=  1.95D-08    CP:  9.64D-01  1.50D+00  6.86D-01  6.29D-01  8.70D-01
                    CP:  8.88D-01  1.10D+00  1.35D+00  1.70D+00  2.18D+00
                    CP:  1.96D+00  1.94D+00  1.40D+00  1.21D+00  1.08D+00
 E= -4069.81508074990     Delta-E=       -0.000000000819 Rises=F Damp=F
 DIIS: error= 1.62D-07 at cycle  16 NSaved=  16.
 NSaved=16 IEnMin=16 EnMin= -4069.81508074990     IErMin=16 ErrMin= 1.62D-07
 ErrMax= 1.62D-07  0.00D+00 EMaxC= 1.00D-01 BMatC= 9.13D-11 BMatP= 2.61D-10
 IDIUse=1 WtCom= 1.00D+00 WtEn= 0.00D+00
 Coeff-Com: -0.122D-04 0.250D-04 0.384D-04 0.402D-04-0.479D-04-0.596D-03
 Coeff-Com: -0.147D-02-0.353D-02 0.388D-02 0.233D-01 0.168D-01-0.634D-01
 Coeff-Com: -0.758D-01-0.119D-01 0.393D+00 0.719D+00
 Coeff:     -0.122D-04 0.250D-04 0.384D-04 0.402D-04-0.479D-04-0.596D-03
 Coeff:     -0.147D-02-0.353D-02 0.388D-02 0.233D-01 0.168D-01-0.634D-01
 Coeff:     -0.758D-01-0.119D-01 0.393D+00 0.719D+00
 Gap=     0.118 Goal=   None    Shift=    0.000
 RMSDP=2.32D-08 MaxDP=1.53D-06 DE=-8.19D-10 OVMax= 1.63D-05

 Cycle  17  Pass 1  IDiag  1:
 RMSU=  1.13D-08    CP:  9.64D-01  1.50D+00  6.86D-01  6.29D-01  8.70D-01
                    CP:  8.88D-01  1.10D+00  1.35D+00  1.70D+00  2.19D+00
                    CP:  1.98D+00  1.96D+00  1.45D+00  1.29D+00  1.37D+00
                    CP:  1.13D+00
 E= -4069.81508075009     Delta-E=       -0.000000000193 Rises=F Damp=F
 DIIS: error= 1.07D-07 at cycle  17 NSaved=  17.
 NSaved=17 IEnMin=17 EnMin= -4069.81508075009     IErMin=17 ErrMin= 1.07D-07
 ErrMax= 1.07D-07  0.00D+00 EMaxC= 1.00D-01 BMatC= 2.29D-11 BMatP= 9.13D-11
 IDIUse=1 WtCom= 1.00D+00 WtEn= 0.00D+00
 Coeff-Com: -0.905D-05 0.178D-04 0.336D-04 0.474D-04 0.730D-04-0.207D-03
 Coeff-Com: -0.105D-02-0.322D-02 0.258D-03 0.130D-01 0.199D-01-0.157D-01
 Coeff-Com: -0.461D-01-0.969D-01 0.530D-02 0.346D+00 0.779D+00
 Coeff:     -0.905D-05 0.178D-04 0.336D-04 0.474D-04 0.730D-04-0.207D-03
 Coeff:     -0.105D-02-0.322D-02 0.258D-03 0.130D-01 0.199D-01-0.157D-01
 Coeff:     -0.461D-01-0.969D-01 0.530D-02 0.346D+00 0.779D+00
 Gap=     0.118 Goal=   None    Shift=    0.000
 RMSDP=1.32D-08 MaxDP=9.19D-07 DE=-1.93D-10 OVMax= 7.46D-06

 Cycle  18  Pass 1  IDiag  1:
 RMSU=  5.52D-09    CP:  9.64D-01  1.50D+00  6.86D-01  6.29D-01  8.70D-01
                    CP:  8.88D-01  1.10D+00  1.35D+00  1.70D+00  2.19D+00
                    CP:  1.98D+00  1.97D+00  1.47D+00  1.35D+00  1.51D+00
                    CP:  1.51D+00  1.30D+00
 E= -4069.81508075004     Delta-E=        0.000000000047 Rises=F Damp=F
 DIIS: error= 7.95D-08 at cycle  18 NSaved=  18.
 NSaved=18 IEnMin=17 EnMin= -4069.81508075009     IErMin=18 ErrMin= 7.95D-08
 ErrMax= 7.95D-08  0.00D+00 EMaxC= 1.00D-01 BMatC= 8.10D-12 BMatP= 2.29D-11
 IDIUse=1 WtCom= 1.00D+00 WtEn= 0.00D+00
 Coeff-Com: -0.507D-06 0.661D-06 0.459D-05 0.102D-04 0.695D-04 0.935D-04
 Coeff-Com:  0.648D-04-0.595D-03-0.100D-02-0.206D-02 0.447D-02 0.138D-01
 Coeff-Com:  0.607D-02-0.477D-01-0.134D+00-0.773D-01 0.386D+00 0.852D+00
 Coeff:     -0.507D-06 0.661D-06 0.459D-05 0.102D-04 0.695D-04 0.935D-04
 Coeff:      0.648D-04-0.595D-03-0.100D-02-0.206D-02 0.447D-02 0.138D-01
 Coeff:      0.607D-02-0.477D-01-0.134D+00-0.773D-01 0.386D+00 0.852D+00
 Gap=     0.118 Goal=   None    Shift=    0.000
 RMSDP=9.91D-09 MaxDP=6.69D-07 DE= 4.73D-11 OVMax= 6.93D-06

 SCF Done:  E(RCAM-B3LYP) =  -4069.81508075     A.U. after   18 cycles
            NFock= 18  Conv=0.99D-08     -V/T= 2.0102
 KE= 4.028792070169D+03 PE=-4.135492817129D+04 EE= 1.731946927204D+04
 Leave Link  502 at Thu Sep  9 09:44:26 2021, MaxMem= 23488102400 cpu:           16671.4 elap:             720.2
 (Enter /sw/apps/gaussian-16.0/g16/l801.exe)
 DoSCS=F DFT=T ScalE2(SS,OS)=  1.000000  1.000000
 ExpMin= 3.36D-02 ExpMax= 4.95D+03 ExpMxC= 7.45D+02 IAcc=3 IRadAn=         5 AccDes= 0.00D+00
 HarFok:  IExCor=  205 AccDes= 0.00D+00 IRadAn=         5 IDoV=-2 UseB2=F ITyADJ=14
 ICtDFT= 12500011 ScaDFX=  1.000000  1.000000  1.000000  1.000000
 GSVD:  LWork=       -9588 too small for GESVD, short by       45590 words or       45590 for optimal perf.
 Largest valence mixing into a core orbital is  2.03D-04
 Largest core mixing into a valence orbital is  5.24D-05
 Range of M.O.s used for correlation:    95  1572
 NBasis=  1572 NAE=   312 NBE=   312 NFC=    94 NFV=     0
 NROrb=   1478 NOA=   218 NOB=   218 NVA=  1260 NVB=  1260
 Leave Link  801 at Thu Sep  9 09:44:26 2021, MaxMem= 23488102400 cpu:               8.7 elap:               0.4
 (Enter /sw/apps/gaussian-16.0/g16/l914.exe)
 RHF ground state
 Two-electron integrals replicated using symmetry.
 MDV= 23488102400 DFT=T DoStab=F Mixed=T DoRPA=T DoScal=F NonHer=T
 Making orbital integer symmetry assigments:
 Orbital symmetries:
       Occupied  (A) (A) (A) (A) (A) (A) (A) (A) (A) (A) (A) (A)
                 (A) (A) (A) (A) (A) (A) (A) (A) (A) (A) (A) (A)
                 (A) (A) (A) (A) (A) (A) (A) (A) (A) (A) (A) (A)
                 (A) (A) (A) (A) (A) (A) (A) (A) (A) (A) (A) (A)
                 (A) (A) (A) (A) (A) (A) (A) (A) (A) (A) (A) (A)
                 (A) (A) (A) (A) (A) (A) (A) (A) (A) (A) (A) (A)
                 (A) (A) (A) (A) (A) (A) (A) (A) (A) (A) (A) (A)
                 (A) (A) (A) (A) (A) (A) (A) (A) (A) (A) (A) (A)
                 (A) (A) (A) (A) (A) (A) (A) (A) (A) (A) (A) (A)
                 (A) (A) (A) (A) (A) (A) (A) (A) (A) (A) (A) (A)
                 (A) (A) (A) (A) (A) (A) (A) (A) (A) (A) (A) (A)
                 (A) (A) (A) (A) (A) (A) (A) (A) (A) (A) (A) (A)
                 (A) (A) (A) (A) (A) (A) (A) (A) (A) (A) (A) (A)
                 (A) (A) (A) (A) (A) (A) (A) (A) (A) (A) (A) (A)
                 (A) (A) (A) (A) (A) (A) (A) (A) (A) (A) (A) (A)
                 (A) (A) (A) (A) (A) (A) (A) (A) (A) (A) (A) (A)
                 (A) (A) (A) (A) (A) (A) (A) (A) (A) (A) (A) (A)
                 (A) (A) (A) (A) (A) (A) (A) (A) (A) (A) (A) (A)
                 (A) (A) (A) (A) (A) (A) (A) (A) (A) (A) (A) (A)
                 (A) (A) (A) (A) (A) (A) (A) (A) (A) (A) (A) (A)
                 (A) (A) (A) (A) (A) (A) (A) (A) (A) (A) (A) (A)
                 (A) (A) (A) (A) (A) (A) (A) (A) (A) (A) (A) (A)
                 (A) (A) (A) (A) (A) (A) (A) (A) (A) (A) (A) (A)
                 (A) (A) (A) (A) (A) (A) (A) (A) (A) (A) (A) (A)
                 (A) (A) (A) (A) (A) (A) (A) (A) (A) (A) (A) (A)
                 (A) (A) (A) (A) (A) (A) (A) (A) (A) (A) (A) (A)
       Virtual   (A) (A) (A) (A) (A) (A) (A) (A) (A) (A) (A) (A)
                 (A) (A) (A) (A) (A) (A) (A) (A) (A) (A) (A) (A)
                 (A) (A) (A) (A) (A) (A) (A) (A) (A) (A) (A) (A)
                 (A) (A) (A) (A) (A) (A) (A) (A) (A) (A) (A) (A)
                 (A) (A) (A) (A) (A) (A) (A) (A) (A) (A) (A) (A)
                 (A) (A) (A) (A) (A) (A) (A) (A) (A) (A) (A) (A)
                 (A) (A) (A) (A) (A) (A) (A) (A) (A) (A) (A) (A)
                 (A) (A) (A) (A) (A) (A) (A) (A) (A) (A) (A) (A)
                 (A) (A) (A) (A) (A) (A) (A) (A) (A) (A) (A) (A)
                 (A) (A) (A) (A) (A) (A) (A) (A) (A) (A) (A) (A)
                 (A) (A) (A) (A) (A) (A) (A) (A) (A) (A) (A) (A)
                 (A) (A) (A) (A) (A) (A) (A) (A) (A) (A) (A) (A)
                 (A) (A) (A) (A) (A) (A) (A) (A) (A) (A) (A) (A)
                 (A) (A) (A) (A) (A) (A) (A) (A) (A) (A) (A) (A)
                 (A) (A) (A) (A) (A) (A) (A) (A) (A) (A) (A) (A)
                 (A) (A) (A) (A) (A) (A) (A) (A) (A) (A) (A) (A)
                 (A) (A) (A) (A) (A) (A) (A) (A) (A) (A) (A) (A)
                 (A) (A) (A) (A) (A) (A) (A) (A) (A) (A) (A) (A)
                 (A) (A) (A) (A) (A) (A) (A) (A) (A) (A) (A) (A)
                 (A) (A) (A) (A) (A) (A) (A) (A) (A) (A) (A) (A)
                 (A) (A) (A) (A) (A) (A) (A) (A) (A) (A) (A) (A)
                 (A) (A) (A) (A) (A) (A) (A) (A) (A) (A) (A) (A)
                 (A) (A) (A) (A) (A) (A) (A) (A) (A) (A) (A) (A)
                 (A) (A) (A) (A) (A) (A) (A) (A) (A) (A) (A) (A)
                 (A) (A) (A) (A) (A) (A) (A) (A) (A) (A) (A) (A)
                 (A) (A) (A) (A) (A) (A) (A) (A) (A) (A) (A) (A)
                 (A) (A) (A) (A) (A) (A) (A) (A) (A) (A) (A) (A)
                 (A) (A) (A) (A) (A) (A) (A) (A) (A) (A) (A) (A)
                 (A) (A) (A) (A) (A) (A) (A) (A) (A) (A) (A) (A)
                 (A) (A) (A) (A) (A) (A) (A) (A) (A) (A) (A) (A)
                 (A) (A) (A) (A) (A) (A) (A) (A) (A) (A) (A) (A)
                 (A) (A) (A) (A) (A) (A) (A) (A) (A) (A) (A) (A)
                 (A) (A) (A) (A) (A) (A) (A) (A) (A) (A) (A) (A)
                 (A) (A) (A) (A) (A) (A) (A) (A) (A) (A) (A) (A)
                 (A) (A) (A) (A) (A) (A) (A) (A) (A) (A) (A) (A)
                 (A) (A) (A) (A) (A) (A) (A) (A) (A) (A) (A) (A)
                 (A) (A) (A) (A) (A) (A) (A) (A) (A) (A) (A) (A)
                 (A) (A) (A) (A) (A) (A) (A) (A) (A) (A) (A) (A)
                 (A) (A) (A) (A) (A) (A) (A) (A) (A) (A) (A) (A)
                 (A) (A) (A) (A) (A) (A) (A) (A) (A) (A) (A) (A)
                 (A) (A) (A) (A) (A) (A) (A) (A) (A) (A) (A) (A)
                 (A) (A) (A) (A) (A) (A) (A) (A) (A) (A) (A) (A)
                 (A) (A) (A) (A) (A) (A) (A) (A) (A) (A) (A) (A)
                 (A) (A) (A) (A) (A) (A) (A) (A) (A) (A) (A) (A)
                 (A) (A) (A) (A) (A) (A) (A) (A) (A) (A) (A) (A)
                 (A) (A) (A) (A) (A) (A) (A) (A) (A) (A) (A) (A)
                 (A) (A) (A) (A) (A) (A) (A) (A) (A) (A) (A) (A)
                 (A) (A) (A) (A) (A) (A) (A) (A) (A) (A) (A) (A)
                 (A) (A) (A) (A) (A) (A) (A) (A) (A) (A) (A) (A)
                 (A) (A) (A) (A) (A) (A) (A) (A) (A) (A) (A) (A)
                 (A) (A) (A) (A) (A) (A) (A) (A) (A) (A) (A) (A)
                 (A) (A) (A) (A) (A) (A) (A) (A) (A) (A) (A) (A)
                 (A) (A) (A) (A) (A) (A) (A) (A) (A) (A) (A) (A)
                 (A) (A) (A) (A) (A) (A) (A) (A) (A) (A) (A) (A)
                 (A) (A) (A) (A) (A) (A) (A) (A) (A) (A) (A) (A)
                 (A) (A) (A) (A) (A) (A) (A) (A) (A) (A) (A) (A)
                 (A) (A) (A) (A) (A) (A) (A) (A) (A) (A) (A) (A)
                 (A) (A) (A) (A) (A) (A) (A) (A) (A) (A) (A) (A)
                 (A) (A) (A) (A) (A) (A) (A) (A) (A) (A) (A) (A)
                 (A) (A) (A) (A) (A) (A) (A) (A) (A) (A) (A) (A)
                 (A) (A) (A) (A) (A) (A) (A) (A) (A) (A) (A) (A)
                 (A) (A) (A) (A) (A) (A) (A) (A) (A) (A) (A) (A)
                 (A) (A) (A) (A) (A) (A) (A) (A) (A) (A) (A) (A)
                 (A) (A) (A) (A) (A) (A) (A) (A) (A) (A) (A) (A)
                 (A) (A) (A) (A) (A) (A) (A) (A) (A) (A) (A) (A)
                 (A) (A) (A) (A) (A) (A) (A) (A) (A) (A) (A) (A)
                 (A) (A) (A) (A) (A) (A) (A) (A) (A) (A) (A) (A)
                 (A) (A) (A) (A) (A) (A) (A) (A) (A) (A) (A) (A)
                 (A) (A) (A) (A) (A) (A) (A) (A) (A) (A) (A) (A)
                 (A) (A) (A) (A) (A) (A) (A) (A) (A) (A) (A) (A)
                 (A) (A) (A) (A) (A) (A) (A) (A) (A) (A) (A) (A)
                 (A) (A) (A) (A) (A) (A) (A) (A) (A) (A) (A) (A)
                 (A) (A) (A) (A) (A) (A) (A) (A) (A) (A) (A) (A)
                 (A) (A) (A) (A) (A) (A) (A) (A) (A) (A) (A) (A)
                 (A) (A) (A) (A) (A) (A) (A) (A) (A) (A) (A) (A)
                 (A) (A) (A) (A) (A) (A) (A) (A) (A) (A) (A) (A)
                 (A) (A) (A) (A) (A) (A) (A) (A) (A) (A) (A) (A)
                 (A) (A) (A) (A) (A) (A) (A) (A) (A) (A) (A) (A)
                 (A) (A) (A) (A) (A) (A) (A) (A) (A) (A) (A) (A)
                 (A) (A) (A) (A) (A) (A) (A) (A) (A) (A) (A) (A)
                 (A) (A) (A) (A) (A) (A) (A) (A) (A) (A) (A) (A)
                 (A) (A) (A) (A) (A) (A) (A) (A) (A) (A) (A) (A)
                 (A) (A) (A) (A) (A) (A) (A) (A) (A) (A) (A) (A)
                 (A) (A) (A) (A) (A) (A) (A) (A) (A) (A) (A) (A)
                 (A) (A) (A) (A) (A) (A) (A) (A) (A) (A) (A) (A)
                 (A) (A) (A) (A) (A) (A) (A) (A) (A) (A) (A) (A)
                 (A) (A) (A) (A) (A) (A) (A) (A) (A) (A) (A) (A)
                 (A) (A) (A) (A) (A) (A) (A) (A) (A) (A) (A) (A)
                 (A) (A) (A) (A) (A) (A) (A) (A) (A) (A) (A) (A)
                 (A) (A) (A) (A) (A) (A) (A) (A) (A) (A) (A) (A)
                 (A) (A) (A) (A) (A) (A) (A) (A) (A) (A) (A) (A)
                 (A) (A) (A) (A) (A) (A) (A) (A) (A) (A) (A) (A)
                 (A) (A) (A) (A) (A) (A) (A) (A) (A) (A) (A) (A)
                 (A) (A) (A) (A) (A) (A) (A) (A) (A) (A) (A) (A)
                 (A) (A) (A) (A) (A) (A) (A) (A) (A) (A) (A) (A)
                 (A) (A) (A) (A) (A) (A) (A) (A) (A) (A) (A) (A)
                 (A) (A) (A) (A) (A) (A) (A) (A) (A) (A) (A) (A)
                 (A) (A) (A) (A) (A) (A) (A) (A) (A) (A) (A) (A)
                 (A) (A) (A) (A) (A) (A) (A) (A) (A) (A) (A) (A)
                 (A) (A) (A) (A) (A) (A) (A) (A) (A) (A) (A) (A)
                 (A) (A) (A) (A) (A) (A) (A) (A) (A) (A) (A) (A)
                 (A) (A) (A) (A) (A) (A) (A) (A) (A) (A) (A) (A)
                 (A) (A) (A) (A) (A) (A) (A) (A) (A) (A) (A) (A)
                 (A) (A) (A) (A) (A) (A) (A) (A) (A) (A) (A) (A)
                 (A) (A) (A) (A) (A) (A) (A) (A) (A) (A) (A) (A)
    20 initial guesses have been made.
 Convergence on wavefunction:    0.001000000000000
 Davidson Disk Diagonalization:  ConvIn= 1.00D-03 SkipCon=T Conv= 1.00D-03.
 Max sub-space:  2000 roots to seek:    20 dimension of matrix:       549360
 Iteration     1 Dimension    20 NMult     0 NNew     20
 CISAX will form    20 AO SS matrices at one time.
 NMat=    20 NSing=    20 JSym2X= 0.
 FoFJK:  IHMeth= 1 ICntrl=       0 DoSepK=T KAlg= 0 I1Cent=           0 FoldK=F
 IRaf=         1 NMat=      40 IRICut=       1 DoRegI=T DoRafI=F ISym2E= 0 IDoP0=3 IntGTp=3.
 FoFCou: FMM=T IPFlag=           0 FMFlag=      100000 FMFlg1=        2001
         NFxFlg=           0 DoJE=F BraDBF=F KetDBF=F FulRan=T
         wScrn=  0.000000 ICntrl=       500 IOpCl=  0 I1Cent=           0 NGrid=           0
         NMat0=   20 NMatS0=     20 NMatT0=    0 NMatD0=   20 NMtDS0=    0 NMtDT0=    0
 Symmetry not used in FoFCou.
 FMM levels:  10  Number of levels for PrismC:   9
 New state      2 was old state      4
 New state      3 was old state      7
 New state      4 was old state      6
 New state      5 was old state      2
 Excitation Energies [eV] at current iteration:
 Root      1 :     2.191859675918839
 Root      2 :     2.488596967714423
 Root      3 :     2.606483869883088
 Root      4 :     2.611392202246606
 Root      5 :     2.661139125419841
 Root      6 :     2.716217901461427
 Root      7 :     2.972671834547745
 Root      8 :     3.285544557865596
 Root      9 :     3.633945844207515
 Root     10 :     3.677307298414006
 Root     11 :     3.742874914029803
 Root     12 :     3.756831737625154
 Root     13 :     4.093091982038038
 Root     14 :     4.264011933323493
 Root     15 :     4.334692185329674
 Root     16 :     4.425512234431010
 Root     17 :     4.451260503338831
 Root     18 :     4.491653348630729
 Root     19 :     4.586615393952119
 Root     20 :     4.738034029713233
 Iteration     2 Dimension    30 NMult    20 NNew     10
 CISAX will form    10 AO SS matrices at one time.
 NMat=    10 NSing=    10 JSym2X= 0.
 New state      1 was old state      5
 Root      1 not converged, maximum delta is    0.328635602989936
 New state      2 was old state      3
 Root      2 not converged, maximum delta is    0.183902962285534
 New state      3 was old state      1
 Root      3 not converged, maximum delta is    0.007577464074354
 Root      4 not converged, maximum delta is    0.265364394191992
 New state      5 was old state      2
 Root      5 not converged, maximum delta is    0.007170226189031
 Excitation Energies [eV] at current iteration:
 Root      1 :     1.781091458192331   Change is   -0.880047667227510
 Root      2 :     2.153842814785261   Change is   -0.452641055097827
 Root      3 :     2.190499635917125   Change is   -0.001360040001714
 Root      4 :     2.243263480331455   Change is   -0.368128721915150
 Root      5 :     2.486947774466816   Change is   -0.001649193247607
 Iteration     3 Dimension    40 NMult    30 NNew     10
 CISAX will form    10 AO SS matrices at one time.
 NMat=    10 NSing=    10 JSym2X= 0.
 Root      1 not converged, maximum delta is    0.054709111608790
 Root      2 not converged, maximum delta is    0.352501846232057
 Root      3 not converged, maximum delta is    0.016072671522034
 Root      4 not converged, maximum delta is    0.336969177415584
 No map to state      5
 Excitation Energies [eV] at current iteration:
 Root      1 :     1.676024670408327   Change is   -0.105066787784003
 Root      2 :     1.762209081993604   Change is   -0.391633732791657
 Root      3 :     2.190476469372794   Change is   -0.000023166544331
 Root      4 :     2.195462925409080   Change is   -0.047800554922376
 Root      5 :     2.209543245145224
 Iteration     4 Dimension    50 NMult    40 NNew     10
 CISAX will form    10 AO SS matrices at one time.
 NMat=    10 NSing=    10 JSym2X= 0.
 Root      1 not converged, maximum delta is    0.013888653777967
 Root      2 not converged, maximum delta is    0.037398216044388
 New state      3 was old state      4
 Root      3 not converged, maximum delta is    0.250672092329009
 New state      4 was old state      3
 Root      4 not converged, maximum delta is    0.044105978367644
 Root      5 not converged, maximum delta is    0.245291885466738
 Excitation Energies [eV] at current iteration:
 Root      1 :     1.659326655580829   Change is   -0.016698014827498
 Root      2 :     1.693356852631073   Change is   -0.068852229362531
 Root      3 :     2.182200053566313   Change is   -0.013262871842767
 Root      4 :     2.190485913276879   Change is    0.000009443904085
 Root      5 :     2.196448030585421   Change is   -0.013095214559803
 Iteration     5 Dimension    60 NMult    50 NNew     10
 CISAX will form    10 AO SS matrices at one time.
 NMat=    10 NSing=    10 JSym2X= 0.
 Root      1 not converged, maximum delta is    0.005659339901654
 Root      2 not converged, maximum delta is    0.009931519261004
 Root      3 not converged, maximum delta is    0.023334970945084
 Root      4 not converged, maximum delta is    0.003325127675950
 Root      5 not converged, maximum delta is    0.022877779586805
 Excitation Energies [eV] at current iteration:
 Root      1 :     1.657535910261650   Change is   -0.001790745319179
 Root      2 :     1.683251072696382   Change is   -0.010105779934691
 Root      3 :     2.180266909060116   Change is   -0.001933144506197
 Root      4 :     2.190484034214919   Change is   -0.000001879061960
 Root      5 :     2.195285779396288   Change is   -0.001162251189133
 Iteration     6 Dimension    70 NMult    60 NNew     10
 CISAX will form    10 AO SS matrices at one time.
 NMat=    10 NSing=    10 JSym2X= 0.
 Root      1 not converged, maximum delta is    0.001040162148740
 Root      2 not converged, maximum delta is    0.002162475326084
 Root      3 not converged, maximum delta is    0.002141980985678
 Root      4 has converged.
 Root      5 not converged, maximum delta is    0.002325605602582
 Excitation Energies [eV] at current iteration:
 Root      1 :     1.657283397823978   Change is   -0.000252512437672
 Root      2 :     1.682261221784060   Change is   -0.000989850912322
 Root      3 :     2.180028708225128   Change is   -0.000238200834988
 Root      4 :     2.190483726662011   Change is   -0.000000307552908
 Root      5 :     2.195132559187737   Change is   -0.000153220208551
 Iteration     7 Dimension    78 NMult    70 NNew      8
 CISAX will form     8 AO SS matrices at one time.
 NMat=     8 NSing=     8 JSym2X= 0.
 Root      1 has converged.
 Root      2 has converged.
 Root      3 has converged.
 Root      4 has converged.
 Root      5 has converged.
 Excitation Energies [eV] at current iteration:
 Root      1 :     1.657258359978282   Change is   -0.000025037845696
 Root      2 :     1.682140695178299   Change is   -0.000120526605760
 Root      3 :     2.179992319028567   Change is   -0.000036389196561
 Root      4 :     2.190483691480647   Change is   -0.000000035181363
 Root      5 :     2.195112175427290   Change is   -0.000020383760448
 Convergence achieved on expansion vectors.
 ***********************************************************************
 Excited states from <AA,BB:AA,BB> singles matrix:
 ***********************************************************************
 
 1PDM for each excited state written to RWF  633
 Ground to excited state transition densities written to RWF  633
 Ground to excited state transition electric dipole moments (Au):
       state          X           Y           Z        Dip. S.      Osc.
         1         0.3885      1.3324     -1.7380      4.9468      0.2009
         2         0.9520     -2.3153     -2.1735     10.9910      0.4530
         3         0.1731     -1.1289     -0.4635      1.5193      0.0811
         4         0.0130      0.0627     -0.0294      0.0050      0.0003
[...]
 Alpha virt. eigenvalues --    1.83646   1.83892   1.83950   1.84262   1.84279
 Alpha virt. eigenvalues --    1.84660   1.84761   1.84888   1.84999   1.85160
 Alpha virt. eigenvalues --    1.85260   1.85403   1.85441   1.85535   1.85727
 Alpha virt. eigenvalues --    1.85973   1.86236   1.86287   1.86442   1.86616
 Alpha virt. eigenvalues --    1.86768   1.86851   1.86964   1.87103   1.87290
 Alpha virt. eigenvalues --    1.87343   1.87481   1.87726   1.87883   1.87931
 Alpha virt. eigenvalues --    1.88087   1.88295   1.88384   1.88506   1.88637
 Alpha virt. eigenvalues --    1.89020   1.89146   1.89257   1.89489   1.89589
 Alpha virt. eigenvalues --    1.89788   1.89957   1.90027   1.90150   1.90571
 Alpha virt. eigenvalues --    1.90692   1.91129   1.91305   1.91374   1.91681
 Alpha virt. eigenvalues --    1.91983   1.92211   1.92388   1.92745   1.92850
 Alpha virt. eigenvalues --    1.93231   1.93281   1.93539   1.93800   1.94173
 Alpha virt. eigenvalues --    1.94559   1.94580   1.95065   1.95372   1.95536
 Alpha virt. eigenvalues --    1.95751   1.95819   1.96044   1.96258   1.96396
 Alpha virt. eigenvalues --    1.96463   1.96601   1.96773   1.96872   1.97253
 Alpha virt. eigenvalues --    1.97384   1.97699   1.97846   1.97973   1.98163
 Alpha virt. eigenvalues --    1.98347   1.98608   1.98770   1.98991   1.99459
 Alpha virt. eigenvalues --    1.99616   2.00402   2.00564   2.00831   2.01101
 Alpha virt. eigenvalues --    2.01191   2.01434   2.01515   2.01572   2.01772
 Alpha virt. eigenvalues --    2.01982   2.02261   2.02597   2.03036   2.03107
 Alpha virt. eigenvalues --    2.03202   2.03249   2.03463   2.03742   2.03854
 Alpha virt. eigenvalues --    2.03936   2.04391   2.04852   2.05244   2.05373
 Alpha virt. eigenvalues --    2.05884   2.05923   2.06560   2.06608   2.07032
 Alpha virt. eigenvalues --    2.07381   2.07663   2.08475   2.08710   2.08803
 Alpha virt. eigenvalues --    2.09345   2.09407   2.09957   2.10706   2.10999
 Alpha virt. eigenvalues --    2.11253   2.11293   2.11566   2.11713   2.11947
 Alpha virt. eigenvalues --    2.12267   2.12309   2.12647   2.12689   2.12909
 Alpha virt. eigenvalues --    2.13235   2.13328   2.13513   2.14034   2.14448
 Alpha virt. eigenvalues --    2.14581   2.15176   2.15696   2.15718   2.16360
 Alpha virt. eigenvalues --    2.16534   2.16596   2.17039   2.17243   2.17517
 Alpha virt. eigenvalues --    2.17555   2.17848   2.17930   2.18093   2.18265
 Alpha virt. eigenvalues --    2.18581   2.18641   2.19067   2.19453   2.19808
 Alpha virt. eigenvalues --    2.19855   2.20014   2.20355   2.20607   2.20997
 Alpha virt. eigenvalues --    2.21122   2.21370   2.21506   2.21559   2.22148
 Alpha virt. eigenvalues --    2.22162   2.22551   2.23134   2.23234   2.23625
 Alpha virt. eigenvalues --    2.24279   2.24706   2.24916   2.25225   2.26046
 Alpha virt. eigenvalues --    2.26628   2.26812   2.26893   2.27332   2.27574
 Alpha virt. eigenvalues --    2.27958   2.28958   2.29136   2.29535   2.29953
 Alpha virt. eigenvalues --    2.30215   2.30495   2.30755   2.30990   2.31072
 Alpha virt. eigenvalues --    2.31385   2.31587   2.32012   2.32494   2.32928
 Alpha virt. eigenvalues --    2.33284   2.33685   2.33778   2.34031   2.34508
 Alpha virt. eigenvalues --    2.35060   2.35606   2.35639   2.36271   2.36421
 Alpha virt. eigenvalues --    2.36474   2.36641   2.36687   2.37595   2.37939
 Alpha virt. eigenvalues --    2.38157   2.38601   2.38643   2.39384   2.39428
 Alpha virt. eigenvalues --    2.39990   2.40118   2.40282   2.40513   2.41037
 Alpha virt. eigenvalues --    2.41304   2.41613   2.41748   2.41780   2.41974
 Alpha virt. eigenvalues --    2.42480   2.42874   2.43026   2.43092   2.43376
 Alpha virt. eigenvalues --    2.43955   2.44351   2.44562   2.44715   2.45114
 Alpha virt. eigenvalues --    2.45351   2.45551   2.45919   2.46167   2.46295
 Alpha virt. eigenvalues --    2.46584   2.46590   2.46836   2.47094   2.47165
 Alpha virt. eigenvalues --    2.47560   2.47648   2.48150   2.49204   2.49583
 Alpha virt. eigenvalues --    2.49996   2.50137   2.50495   2.50733   2.50904
 Alpha virt. eigenvalues --    2.51636   2.51700   2.51881   2.52201   2.52624
 Alpha virt. eigenvalues --    2.52827   2.53665   2.53771   2.54036   2.54293
 Alpha virt. eigenvalues --    2.54448   2.54634   2.55057   2.55363   2.55943
 Alpha virt. eigenvalues --    2.57718   2.58394   2.58504   2.59347   2.59926
 Alpha virt. eigenvalues --    2.60400   2.60693   2.61478   2.61575   2.62166
 Alpha virt. eigenvalues --    2.62331   2.62762   2.62824   2.63472   2.63761
 Alpha virt. eigenvalues --    2.64160   2.64621   2.64742   2.64919   2.65450
 Alpha virt. eigenvalues --    2.65568   2.66373   2.66665   2.66766   2.67104
 Alpha virt. eigenvalues --    2.67533   2.67760   2.68406   2.68626   2.68812
 Alpha virt. eigenvalues --    2.69096   2.69276   2.69452   2.69834   2.70058
 Alpha virt. eigenvalues --    2.70490   2.70793   2.71534   2.71768   2.72181
 Alpha virt. eigenvalues --    2.72372   2.72510   2.72782   2.72972   2.73206
 Alpha virt. eigenvalues --    2.73217   2.73536   2.73759   2.74314   2.74759
 Alpha virt. eigenvalues --    2.74792   2.75376   2.76462   2.76812   2.76997
 Alpha virt. eigenvalues --    2.77274   2.77350   2.77901   2.78033   2.78408
 Alpha virt. eigenvalues --    2.78529   2.78943   2.78958   2.79523   2.80042
 Alpha virt. eigenvalues --    2.80327   2.80463   2.80878   2.81010   2.81392
 Alpha virt. eigenvalues --    2.81720   2.82186   2.82285   2.82647   2.83457
 Alpha virt. eigenvalues --    2.83640   2.84045   2.84175   2.84397   2.84728
 Alpha virt. eigenvalues --    2.84788   2.85090   2.85533   2.85907   2.86723
 Alpha virt. eigenvalues --    2.86896   2.87271   2.87482   2.88020   2.88348
 Alpha virt. eigenvalues --    2.88430   2.88768   2.88948   2.89105   2.90310
 Alpha virt. eigenvalues --    2.91021   2.91126   2.91501   2.92949   2.93696
 Alpha virt. eigenvalues --    2.94056   2.94164   2.94458   2.94776   2.95121
 Alpha virt. eigenvalues --    2.95757   2.95975   2.96226   2.96312   2.96701
 Alpha virt. eigenvalues --    2.96829   2.97228   2.97501   2.98039   2.98206
 Alpha virt. eigenvalues --    2.98226   2.98418   2.98725   2.98794   2.98933
 Alpha virt. eigenvalues --    2.99141   2.99311   2.99609   2.99652   2.99995
 Alpha virt. eigenvalues --    3.00113   3.00240   3.00338   3.00563   3.01452
 Alpha virt. eigenvalues --    3.01824   3.01880   3.02334   3.02358   3.02647
 Alpha virt. eigenvalues --    3.02754   3.03055   3.03210   3.03844   3.04110
 Alpha virt. eigenvalues --    3.04277   3.04383   3.04495   3.04692   3.04823
 Alpha virt. eigenvalues --    3.05126   3.05233   3.05629   3.05952   3.06442
 Alpha virt. eigenvalues --    3.06587   3.07523   3.08061   3.08259   3.09169
 Alpha virt. eigenvalues --    3.09507   3.09541   3.10267   3.10985   3.11240
 Alpha virt. eigenvalues --    3.11354   3.11648   3.11749   3.12079   3.12198
 Alpha virt. eigenvalues --    3.12890   3.13111   3.13537   3.13705   3.13878
 Alpha virt. eigenvalues --    3.14095   3.14770   3.15911   3.16149   3.17072
 Alpha virt. eigenvalues --    3.17766   3.17964   3.18017   3.18992   3.19224
 Alpha virt. eigenvalues --    3.21787   3.22863   3.23755   3.24362   3.24682
 Alpha virt. eigenvalues --    3.25421   3.26329   3.26914   3.27425   3.27675
 Alpha virt. eigenvalues --    3.28517   3.29479   3.31324   3.31641   3.33254
 Alpha virt. eigenvalues --    3.33461   3.40411   3.40523   3.42670   3.43000
 Alpha virt. eigenvalues --    3.48424   3.48931   3.49860   3.50573   3.51144
 Alpha virt. eigenvalues --    3.51308   3.56386   3.57228   3.58970   3.59564
 Alpha virt. eigenvalues --    3.62660   3.62745   3.66051   3.66223   3.66924
 Alpha virt. eigenvalues --    3.67802   3.73216   3.74255   3.76249   3.76903
          Condensed to atoms (all electrons):
 Mulliken charges:
               1
     1  Mg   0.839457
     2  C   -0.004993
     3  C   -0.093737
     4  C   -0.045389
     5  C   -0.062899
     6  N   -0.256960
     7  C   -0.052802
     8  C   -0.014209
     9  C   -0.087178
    10  C    0.046510
    11  C    0.104652
    12  C    0.053506
    13  C   -0.071314
    14  H    0.032450
    15  N   -0.433354
    16  C    0.169270
    17  C   -0.176209
    18  C   -0.003492
    19  C    0.149091
    20  C    0.109829
    21  C    0.011985
    22  O   -0.249697
    23  C    0.061754
    24  N   -0.341135
    25  C    0.041872
    26  C   -0.028358
    27  C   -0.024007
    28  C    0.074809
    29  C    0.076063
    30  C    0.034774
    31  C   -0.006566
    32  N   -0.310278
    33  C    0.079943
    34  C   -0.170221
    35  C    0.007434
    36  C    0.082650
    37  C    0.127490
    38  C    0.044364
    39  O   -0.189579
    40  C   -0.005448
    41  C    0.217342
    42  O   -0.259532
    43  O   -0.302513
    44  C    0.157930
    45  H   -0.017168
    46  H   -0.016466
    47  H   -0.040232
    48  H    0.000717
    49  H   -0.003731
    50  H    0.025493
    51  H    0.017115
    52  H    0.017158
    53  H    0.012510
    54  H    0.040394
    55  H    0.019023
    56  H    0.019244
    57  H    0.006095
    58  H    0.027173
    59  H    0.041640
    60  H    0.037866
    61  H    0.035557
    62  H    0.033080
    63  H    0.016711
    64  H    0.009919
    65  H    0.023545
    66  H    0.012396
    67  H    0.005338
    68  H    0.006750
    69  H    0.006311
    70  H    0.007482
    71  H    0.022471
    72  H    0.029294
    73  H    0.046694
    74  H    0.010855
    75  H    0.046297
    76  H    0.036316
    77  H    0.044731
    78  H    0.047586
    79  H    0.050084
    80  Mg   0.835978
    81  C   -0.017111
    82  C   -0.087453
    83  C   -0.047233
    84  C   -0.065392
    85  N   -0.255646
    86  C   -0.047819
    87  C   -0.015395
    88  C   -0.090938
    89  C    0.045702
    90  C    0.115870
    91  C    0.062325
    92  C   -0.077067
    93  H    0.031563
    94  N   -0.423563
    95  C    0.163003
    96  C   -0.174818
    97  C   -0.009353
    98  C    0.152593
    99  C    0.099835
   100  C    0.014447
   101  O   -0.254850
   102  C    0.061623
   103  N   -0.350532
   104  C    0.037708
   105  C   -0.019650
   106  C   -0.035132
   107  C    0.088873
   108  C    0.072463
   109  C    0.035020
   110  C   -0.007492
   111  N   -0.324017
   112  C    0.078208
   113  C   -0.164096
   114  C    0.001407
   115  C    0.096204
   116  C    0.131735
   117  C    0.040950
   118  O   -0.189662
   119  C    0.001704
   120  C    0.211327
   121  O   -0.251641
   122  O   -0.305005
   123  C    0.152421
   124  H   -0.014733
   125  H   -0.017738
   126  H   -0.041323
   127  H    0.000882
   128  H   -0.006264
   129  H    0.018326
   130  H    0.012399
   131  H    0.034420
   132  H    0.012478
   133  H    0.035669
   134  H    0.023589
   135  H    0.019237
   136  H    0.010084
   137  H    0.023717
   138  H    0.038719
   139  H    0.036979
   140  H    0.035060
   141  H    0.034178
   142  H    0.013488
   143  H    0.013937
   144  H    0.022482
   145  H    0.009615
   146  H    0.008933
   147  H    0.005437
   148  H    0.003552
   149  H    0.010226
   150  H    0.017263
   151  H    0.030575
   152  H    0.045185
   153  H    0.008251
   154  H    0.045006
   155  H    0.035567
   156  H    0.042969
   157  H    0.050529
   158  H    0.052667
 Sum of Mulliken charges =  -0.00000
 Mulliken charges with hydrogens summed into heavy atoms:
               1
     1  Mg   0.839457
     2  C   -0.004993
     3  C   -0.110905
     4  C   -0.061855
     5  C   -0.103131
     6  N   -0.256960
     7  C   -0.052802
     8  C   -0.013492
     9  C   -0.090910
    10  C    0.046510
    11  C    0.164418
    12  C    0.106409
    13  C   -0.000597
    15  N   -0.433354
    16  C    0.169270
    17  C   -0.176209
    18  C   -0.003492
    19  C    0.149091
    20  C    0.184737
    21  C    0.011985
    22  O   -0.249697
    23  C    0.168258
    24  N   -0.341135
    25  C    0.041872
    26  C   -0.011646
    27  C   -0.014089
    28  C    0.074809
    29  C    0.117342
    30  C    0.047835
    31  C    0.052680
    32  N   -0.310278
    33  C    0.079943
    34  C   -0.170221
    35  C    0.007434
    36  C    0.082650
    37  C    0.231336
    38  C    0.044364
    39  O   -0.189579
    40  C    0.030869
    41  C    0.217342
    42  O   -0.259532
    43  O   -0.302513
    44  C    0.300331
    80  Mg   0.835978
    81  C   -0.017111
    82  C   -0.102187
    83  C   -0.064972
    84  C   -0.106714
    85  N   -0.255646
    86  C   -0.047819
    87  C   -0.014513
    88  C   -0.097202
    89  C    0.045702
    90  C    0.181013
    91  C    0.110472
    92  C   -0.002679
    94  N   -0.423563
    95  C    0.163003
    96  C   -0.174818
    97  C   -0.009353
    98  C    0.152593
    99  C    0.172356
   100  C    0.014447
   101  O   -0.254850
   102  C    0.167840
   103  N   -0.350532
   104  C    0.037708
   105  C   -0.006162
   106  C   -0.021195
   107  C    0.088873
   108  C    0.113493
   109  C    0.044009
   110  C    0.050572
   111  N   -0.324017
   112  C    0.078208
   113  C   -0.164096
   114  C    0.001407
   115  C    0.096204
   116  C    0.230176
   117  C    0.040950
   118  O   -0.189662
   119  C    0.037271
   120  C    0.211327
   121  O   -0.251641
   122  O   -0.305005
   123  C    0.298584
 Electronic spatial extent (au):  <R**2>=          87738.8610
 Charge=             -0.0000 electrons
 Dipole moment (field-independent basis, Debye):
    X=             -6.3213    Y=              1.1364    Z=              4.8927  Tot=              8.0740
 Quadrupole moment (field-independent basis, Debye-Ang):
   XX=           -517.4032   YY=           -517.5671   ZZ=           -484.4027
   XY=             -9.5498   XZ=             -3.1613   YZ=            -21.3573
 Traceless Quadrupole moment (field-independent basis, Debye-Ang):
   XX=            -10.9455   YY=            -11.1094   ZZ=             22.0550
   XY=             -9.5498   XZ=             -3.1613   YZ=            -21.3573
 Octapole moment (field-independent basis, Debye-Ang**2):
  XXX=           -384.4827  YYY=            -25.7284  ZZZ=             87.8250  XYY=            191.8861
  XXY=             64.8370  XXZ=            216.4427  XZZ=           -176.7558  YZZ=           -173.7860
  YYZ=             50.0010  XYZ=           -128.9464
 Hexadecapole moment (field-independent basis, Debye-Ang**3):
 XXXX=         -54135.2950 YYYY=         -36793.9777 ZZZZ=         -28315.3694 XXXY=           -178.2164
 XXXZ=           -218.4948 YYYX=          -1297.4616 YYYZ=            -74.7515 ZZZX=            634.4191
 ZZZY=           -934.9640 XXYY=         -14154.3535 XXZZ=         -13896.3164 YYZZ=         -11252.6313
 XXYZ=           -114.9802 YYXZ=          -1236.9819 ZZXY=            226.6994
 N-N= 1.593685174833D+04 E-N=-4.135492816891D+04  KE= 4.028792070169D+03
 Leave Link  601 at Thu Sep  9 10:18:26 2021, MaxMem= 23488102400 cpu:              14.2 elap:               0.7
 (Enter /sw/apps/gaussian-16.0/g16/l9999.exe)
 1\1\GINC-BP1-COMPUTE00105\SP\RCAM-B3LYP TD-FC\def2SVP\C68H72Mg2N8O8\OF
 15641\09-Sep-2021\0\\#p cam-b3lyp/Def2SVP td=(nstates=5)\\TDDFT excite
 d states in gaussian\\0,1\Mg,0,0.,0.,0.\C,0,-0.217,-2.218,2.801\C,0,-1
 .255,2.442,2.026\C,0,-0.245,1.85,-2.564\C,0,0.146,-2.824,-2.037\N,0,-0
 .617,-0.009,2.126\C,0,-0.594,-0.908,3.105\C,0,-0.936,-0.309,4.502\C,0,
 -1.773,0.964,4.032\C,0,-1.155,1.168,2.66\C,0,-3.263,0.685,3.863\C,0,0.
 345,0.11,5.299\C,0,0.124,0.397,6.787\H,0,1.168,0.033,7.733\N,0,-0.185,
 1.961,-0.152\C,0,-0.703,2.8,0.777\C,0,-0.62,4.156,0.193\C,0,-0.187,4.0
 15,-1.225\C,0,-0.214,2.583,-1.38\C,0,-0.887,5.406,0.974\C,0,0.181,5.01
 3,-2.277\O,0,0.303,4.69,-3.508\C,0,0.31,6.414,-1.837\N,0,-0.265,-0.413
 ,-2.029\C,0,-0.279,0.569,-2.937\C,0,-0.196,0.024,-4.332\C,0,0.124,-1.5
 33,-4.18\C,0,0.086,-1.632,-2.635\C,0,-1.451,0.205,-5.197\C,0,1.373,-2.
 07,-4.923\C,0,2.626,-1.49,-4.306\N,0,0.15,-2.144,0.303\C,0,0.173,-3.13
 6,-0.688\C,0,0.173,-4.438,0.004\C,0,0.133,-4.111,1.358\C,0,0.083,-2.69
 5,1.502\C,0,0.149,-5.715,-0.623\C,0,0.096,-4.629,2.716\O,0,0.208,-5.74
 7,3.221\C,0,-0.255,-3.428,3.701\C,0,0.717,-3.482,4.848\O,0,1.931,-3.25
 5,4.669\O,0,0.038,-3.556,6.003\C,0,0.943,-3.583,7.183\H,0,-1.859,3.22,
 2.497\H,0,-0.218,2.453,-3.474\H,0,0.276,-3.747,-2.605\H,0,-1.554,-0.94
 9,5.132\H,0,-1.585,1.831,4.665\H,0,-3.484,-0.377,3.969\H,0,-3.511,1.02
 7,2.858\H,0,-3.852,1.301,4.543\H,0,0.669,1.096,4.966\H,0,1.13,-0.639,5
 .189\H,0,-0.844,0.026,7.125\H,0,0.062,1.477,6.921\H,0,-1.344,5.186,1.9
 38\H,0,-1.651,5.963,0.432\H,0,0.007,6.02,1.084\H,0,-0.635,6.744,-1.405
 \H,0,0.665,6.97,-2.704\H,0,1.048,6.466,-1.036\H,0,0.608,0.501,-4.891\H
 ,0,-0.692,-2.156,-4.547\H,0,-1.267,0.74,-6.129\H,0,-2.204,0.714,-4.596
 \H,0,-1.967,-0.72,-5.453\H,0,1.356,-1.759,-5.967\H,0,1.452,-3.157,-4.9
 02\H,0,2.714,-0.522,-4.798\H,0,3.487,-2.121,-4.529\H,0,2.495,-1.303,-3
 .24\H,0,0.867,-6.333,-0.084\H,0,0.404,-5.642,-1.68\H,0,-0.891,-5.999,-
 0.463\H,0,-1.283,-3.581,4.028\H,0,0.698,-4.478,7.755\H,0,0.833,-2.619,
 7.68\H,0,2.,-3.754,6.976\Mg,0,7.89026,0.70588,0.60569\C,0,8.07103,-2.7
 2069,-0.44551\C,0,6.87848,-0.43892,3.65534\C,0,7.28852,3.71188,1.4238\
 C,0,7.79755,1.58986,-2.76413\N,0,7.55627,-1.33792,1.38261\C,0,7.71657,
 -2.56513,0.91081\C,0,7.56225,-3.68745,1.97201\C,0,6.64588,-2.89635,3.0
 2714\C,0,7.07343,-1.46729,2.69902\C,0,5.15776,-3.02576,2.74771\C,0,8.9
 3618,-4.10525,2.60427\C,0,8.90231,-5.40108,3.41755\H,0,10.07244,-6.274
 12,3.3849\N,0,7.66384,1.52846,2.39752\C,0,7.26783,0.91289,3.53133\C,0,
 7.24079,1.95679,4.56752\C,0,7.49397,3.27077,3.91632\C,0,7.47078,2.8820
 2,2.52046\C,0,7.07118,1.65021,6.0272\C,0,7.70728,4.65124,4.45946\O,0,7
 .67257,5.68529,3.70291\C,0,7.86503,4.76526,5.91672\N,0,7.37396,2.39094
 ,-0.49718\C,0,7.22133,3.58682,0.09822\C,0,7.12413,4.69576,-0.92217\C,0
 ,7.48726,4.021,-2.32588\C,0,7.6517,2.55543,-1.86716\C,0,5.7646,5.38656
 ,-1.02641\C,0,8.63562,4.67275,-3.14391\C,0,9.95226,4.48499,-2.42517\N,
 0,8.11083,-0.32607,-1.27965\C,0,8.01033,0.23052,-2.57356\C,0,8.11921,-
 0.88433,-3.53672\C,0,8.25349,-2.02394,-2.72942\C,0,8.20967,-1.6483,-1.
 35957\C,0,8.04023,-0.77047,-4.95338\C,0,8.41166,-3.46048,-2.72448\O,0,
 8.59662,-4.31703,-3.58811\C,0,8.17362,-3.99001,-1.24484\C,0,9.28796,-4
 .94233,-0.90743\O,0,10.46013,-4.53688,-0.81664\O,0,8.761,-6.1233,-0.53
 596\C,0,9.82685,-7.09782,-0.18086\H,0,6.33851,-0.67829,4.57186\H,0,7.1
 8764,4.77603,1.64937\H,0,7.87612,1.79404,-3.83409\H,0,7.04685,-4.5744,
 1.62349\H,0,6.91322,-3.14901,4.04991\H,0,4.9658,-3.5327,1.81373\H,0,4.
 7756,-2.01388,2.71447\H,0,4.65656,-3.50966,3.5909\H,0,9.19693,-3.39252
 ,3.39722\H,0,9.69771,-4.17077,1.85167\H,0,7.98729,-5.97789,3.23596\H,0
 ,8.85087,-5.1438,4.47829\H,0,6.74136,0.61598,6.18533\H,0,6.23528,2.259
 89,6.38696\H,0,7.96085,1.88885,6.61388\H,0,6.98314,4.36123,6.40813\H,0
 ,8.09637,5.81558,6.10432\H,0,8.71134,4.14219,6.22682\H,0,7.84265,5.478
 55,-0.71221\H,0,6.6339,4.03927,-3.01963\H,0,5.8171,6.47992,-0.86556\H,
 0,5.09349,4.92887,-0.3118\H,0,5.23953,5.233,-1.96764\H,0,8.47767,5.750
 95,-3.22571\H,0,8.72283,4.28262,-4.15247\H,0,9.9558,5.30323,-1.69884\H
 ,0,10.7843,4.57135,-3.12107\H,0,9.9627,3.54445,-1.86221\H,0,8.82346,-1
 .39623,-5.36017\H,0,8.14827,0.26304,-5.27582\H,0,7.02914,-1.14997,-5.1
 2348\H,0,7.19818,-4.47752,-1.22431\H,0,9.66814,-7.98513,-0.80148\H,0,9
 .7571,-7.23066,0.91515\H,0,10.8476,-6.83988,-0.43775\\Version=ES64L-G1
 6RevA.03\State=1-A\HF=-4069.8150808\RMSD=9.908e-09\PG=C01 [X(C68H72Mg2
 N8O8)]\\@


 IF YOU DON'T HAVE THE LAW - ARGUE THE FACTS.
 IF YOU DON'T HAVE THE FACTS - ARGUE THE LAW.
 IF YOU DON'T HAVE EITHER - POUND THE TABLE.
 Job cpu time:       0 days 18 hours 14 minutes 19.4 seconds.
 Elapsed time:       0 days  0 hours 46 minutes 15.0 seconds.
 File lengths (MBytes):  RWF=  13225 Int=      0 D2E=      0 Chk=    574 Scr=      1
 Normal termination of Gaussian 16 at Thu Sep  9 10:18:27 2021.
