 Entering Gaussian System, Link 0=g16
 Initial command:
 /sw/apps/gaussian-16.0/g16/l1.exe "/tmp/Gau-66414.inp" -scrdir="/tmp/"
 Entering Link 1 = /sw/apps/gaussian-16.0/g16/l1.exe PID=     66415.
  
 Copyright (c) 1988,1990,1992,1993,1995,1998,2003,2009,2016,
            Gaussian, Inc.  All Rights Reserved.
  
 This is part of the Gaussian(R) 16 program.  It is based on
 the Gaussian(R) 09 system (copyright 2009, Gaussian, Inc.),
 the Gaussian(R) 03 system (copyright 2003, Gaussian, Inc.),
 the Gaussian(R) 98 system (copyright 1998, Gaussian, Inc.),
 the Gaussian(R) 94 system (copyright 1995, Gaussian, Inc.),
 the Gaussian 92(TM) system (copyright 1992, Gaussian, Inc.),
 the Gaussian 90(TM) system (copyright 1990, Gaussian, Inc.),
 the Gaussian 88(TM) system (copyright 1988, Gaussian, Inc.),
 the Gaussian 86(TM) system (copyright 1986, Carnegie Mellon
 University), and the Gaussian 82(TM) system (copyright 1983,
 Carnegie Mellon University). Gaussian is a federally registered
 trademark of Gaussian, Inc.
  
 This software contains proprietary and confidential information,
 including trade secrets, belonging to Gaussian, Inc.
  
 This software is provided under written license and may be
 used, copied, transmitted, or stored only in accord with that
 written license.
  
 The following legend is applicable only to US Government
 contracts under FAR:
  
                    RESTRICTED RIGHTS LEGEND
  
 Use, reproduction and disclosure by the US Government is
 subject to restrictions as set forth in subparagraphs (a)
 and (c) of the Commercial Computer Software - Restricted
 Rights clause in FAR 52.227-19.
  
 Gaussian, Inc.
 340 Quinnipiac St., Bldg. 40, Wallingford CT 06492
  
  
 ---------------------------------------------------------------
 Warning -- This program may not be used in any manner that
 competes with the business of Gaussian, Inc. or will provide
 assistance to any competitor of Gaussian, Inc.  The licensee
 of this program is prohibited from giving any competitor of
 Gaussian, Inc. access to this program.  By using this program,
 the user acknowledges that Gaussian, Inc. is engaged in the
 business of creating and licensing software in the field of
 computational chemistry and represents and warrants to the
 licensee that it is not a competitor of Gaussian, Inc. and that
 it will not use this program in any manner prohibited above.
 ---------------------------------------------------------------
  

 Cite this work as:
 Gaussian 16, Revision A.03,
 M. J. Frisch, G. W. Trucks, H. B. Schlegel, G. E. Scuseria, 
 M. A. Robb, J. R. Cheeseman, G. Scalmani, V. Barone, 
 G. A. Petersson, H. Nakatsuji, X. Li, M. Caricato, A. V. Marenich, 
 J. Bloino, B. G. Janesko, R. Gomperts, B. Mennucci, H. P. Hratchian, 
 J. V. Ortiz, A. F. Izmaylov, J. L. Sonnenberg, D. Williams-Young, 
 F. Ding, F. Lipparini, F. Egidi, J. Goings, B. Peng, A. Petrone, 
 T. Henderson, D. Ranasinghe, V. G. Zakrzewski, J. Gao, N. Rega, 
 G. Zheng, W. Liang, M. Hada, M. Ehara, K. Toyota, R. Fukuda, 
 J. Hasegawa, M. Ishida, T. Nakajima, Y. Honda, O. Kitao, H. Nakai, 
 T. Vreven, K. Throssell, J. A. Montgomery, Jr., J. E. Peralta, 
 F. Ogliaro, M. J. Bearpark, J. J. Heyd, E. N. Brothers, K. N. Kudin, 
 V. N. Staroverov, T. A. Keith, R. Kobayashi, J. Normand, 
 K. Raghavachari, A. P. Rendell, J. C. Burant, S. S. Iyengar, 
 J. Tomasi, M. Cossi, J. M. Millam, M. Klene, C. Adamo, R. Cammi, 
 J. W. Ochterski, R. L. Martin, K. Morokuma, O. Farkas, 
 J. B. Foresman, and D. J. Fox, Gaussian, Inc., Wallingford CT, 2016.
 
 ******************************************
 Gaussian 16:  ES64L-G16RevA.03 25-Dec-2016
                12-Sep-2021 
 ******************************************
 %nproc=24
 Will use up to   24 processors via shared memory.
 %mem=175gb
 -----------------------------------
 #p cam-b3lyp/Def2SVP td=(nstates=5)
 -----------------------------------
 1/38=1,172=1/1;
 2/12=2,17=6,18=5,40=1/2;
 3/5=43,7=101,11=9,25=1,30=1,74=-40/1,2,3,8;
 4//1;
 5/5=2,38=5/2;
 8/6=1,10=1,108=5/1;
 9/41=5,42=1,70=2/14;
 6/7=2,8=2,9=2,10=2/1;
 99/5=1,9=1/99;
 Leave Link    1 at Sun Sep 12 06:46:13 2021, MaxMem= 23488102400 cpu:               0.9 elap:               0.0
 (Enter /sw/apps/gaussian-16.0/g16/l101.exe)
 --------------------------------
 TDDFT excited states in gaussian
 --------------------------------
 Symbolic Z-matrix:
 Charge =  0 Multiplicity = 1
 Mg                    0.        0.        0. 
 C                    -0.217    -2.218     2.801 
 C                    -1.255     2.442     2.026 
 C                    -0.245     1.85     -2.564 
 C                     0.146    -2.824    -2.037 
 N                    -0.617    -0.009     2.126 
 C                    -0.594    -0.908     3.105 
 C                    -0.936    -0.309     4.502 
 C                    -1.773     0.964     4.032 
 C                    -1.155     1.168     2.66 
 C                    -3.263     0.685     3.863 
 C                     0.345     0.11      5.299 
 C                     0.124     0.397     6.787 
 H                     1.168     0.033     7.733 
 N                    -0.185     1.961    -0.152 
 C                    -0.703     2.8       0.777 
 C                    -0.62      4.156     0.193 
 C                    -0.187     4.015    -1.225 
 C                    -0.214     2.583    -1.38 
 C                    -0.887     5.406     0.974 
 C                     0.181     5.013    -2.277 
 O                     0.303     4.69     -3.508 
 C                     0.31      6.414    -1.837 
 N                    -0.265    -0.413    -2.029 
 C                    -0.279     0.569    -2.937 
 C                    -0.196     0.024    -4.332 
 C                     0.124    -1.533    -4.18 
 C                     0.086    -1.632    -2.635 
 C                    -1.451     0.205    -5.197 
 C                     1.373    -2.07     -4.923 
 C                     2.626    -1.49     -4.306 
 N                     0.15     -2.144     0.303 
 C                     0.173    -3.136    -0.688 
 C                     0.173    -4.438     0.004 
 C                     0.133    -4.111     1.358 
 C                     0.083    -2.695     1.502 
 C                     0.149    -5.715    -0.623 
 C                     0.096    -4.629     2.716 
 O                     0.208    -5.747     3.221 
 C                    -0.255    -3.428     3.701 
 C                     0.717    -3.482     4.848 
 O                     1.931    -3.255     4.669 
 O                     0.038    -3.556     6.003 
 C                     0.943    -3.583     7.183 
 H                    -1.859     3.22      2.497 
 H                    -0.218     2.453    -3.474 
 H                     0.276    -3.747    -2.605 
 H                    -1.554    -0.949     5.132 
 H                    -1.585     1.831     4.665 
 H                    -3.484    -0.377     3.969 
 H                    -3.511     1.027     2.858 
 H                    -3.852     1.301     4.543 
 H                     0.669     1.096     4.966 
 H                     1.13     -0.639     5.189 
 H                    -0.844     0.026     7.125 
 H                     0.062     1.477     6.921 
 H                    -1.344     5.186     1.938 
 H                    -1.651     5.963     0.432 
 H                     0.007     6.02      1.084 
 H                    -0.635     6.744    -1.405 
 H                     0.665     6.97     -2.704 
 H                     1.048     6.466    -1.036 
 H                     0.608     0.501    -4.891 
 H                    -0.692    -2.156    -4.547 
 H                    -1.267     0.74     -6.129 
 H                    -2.204     0.714    -4.596 
 H                    -1.967    -0.72     -5.453 
 H                     1.356    -1.759    -5.967 
 H                     1.452    -3.157    -4.902 
 H                     2.714    -0.522    -4.798 
 H                     3.487    -2.121    -4.529 
 H                     2.495    -1.303    -3.24 
 H                     0.867    -6.333    -0.084 
 H                     0.404    -5.642    -1.68 
 H                    -0.891    -5.999    -0.463 
 H                    -1.283    -3.581     4.028 
 H                     0.698    -4.478     7.755 
 H                     0.833    -2.619     7.68 
 H                     2.       -3.754     6.976 
 Mg                    15.76629   1.42811   1.2037 
 C                     17.56315   0.25753   4.08121 
 C                     13.14093   2.06266   3.28683 
 C                     14.00572   2.04101  -1.36383 
 C                     18.04643  -0.32779  -0.76187 
 N                     15.50691   1.15395   3.3831 
 C                     16.2798   0.75862   4.38346 
 C                     15.6717   0.98365   5.79382 
 C                     14.11858   1.00171   5.38595 
 C                     14.25156   1.46878   3.9379 
 C                     13.48019  -0.37735   5.38628 
 C                     16.11571   2.34977   6.42516 
 C                     15.81293   2.49692   7.91795 
 H                     16.75998   3.23286   8.751 
 N                     14.05447   2.41644   1.02636 
 C                     13.1159   2.59579   1.97936 
 C                     12.04027   3.37231   1.34361 
 C                     12.34534   3.49529  -0.10778 
 C                     13.49481   2.61881  -0.21071 
 C                     10.90808   3.98058   2.11923 
 C                     11.70048   4.26332  -1.22155 
 O                     11.98725   4.03654  -2.45004 
 C                     10.65558   5.22332  -0.83676 
 N                     15.86137   0.76114  -0.76314 
 C                     15.0071   1.22454  -1.69234 
 C                     15.43809   0.8171   -3.08109 
 C                     16.89743   0.18569  -2.91012 
 C                     17.02645   0.25921  -1.3728 
 C                     14.52993  -0.18602  -3.79199 
 C                     18.03352   0.79415  -3.77715 
 C                     18.31794   2.21138  -3.33449 
 N                     17.60013   0.33843   1.54671 
 C                     18.38069  -0.34153   0.58626 
 C                     19.46782  -1.02689   1.31487 
 C                     19.229   -0.71448   2.66166 
 C                     18.0629   0.09089   2.76697 
 C                     20.4695  -1.85232   0.73056 
 C                     19.69212  -0.89166   4.01917 
 O                     20.68168  -1.40539   4.53934 
 C                     18.56194  -0.37497   5.01018 
 C                     19.21476   0.50455   6.0411 
 O                     19.73725   1.58391   5.71157 
 O                     18.9253   0.03465   7.2682 
 C                     19.5416   0.88027   8.32504 
 H                     12.18452   2.0861    3.80991 
 H                     13.49787   2.31258  -2.29217 
 H                     18.85446  -0.81483  -1.31191 
 H                     15.86076   0.18629   6.50252 
 H                     13.56467   1.73027   5.97225 
 H                     14.20847  -1.15841   5.54657 
 H                     13.01567  -0.48671   4.41504 
 H                     12.6661  -0.41571   6.11575 
 H                     15.48223   3.15184   6.02501 
 H                     17.15821   2.53024   6.24839 
 H                     15.55689   1.53726   8.38317 
 H                     14.90827   3.09931   8.03081 
 H                     10.86009   3.58213   3.14018 
 H                     9.97911   3.6386    1.65025 
 H                     10.92852   5.07242   2.10802 
 H                     9.86218   4.70074  -0.3077 
 H                     10.37772   5.73793  -1.75863 
 H                     11.0844   5.94259  -0.13009 
 H                     15.50226   1.67858  -3.73443 
 H                     16.91338  -0.88147  -3.17613 
 H                     14.15493   0.17918  -4.76672 
 H                     13.70589  -0.42674  -3.13354 
 H                     14.97399  -1.16335  -3.97316 
 H                     17.72203   0.85225  -4.82298 
 H                     18.95421   0.22109  -3.74671 
 H                     17.55488   2.79226  -3.86118 
 H                     19.31979   2.51248  -3.63396 
 H                     18.13981   2.33118  -2.25952 
 H                     21.40712  -1.58223   1.19792 
 H                     20.51087  -1.72351  -0.34901 
 H                     20.09639  -2.84067   1.01203 
 H                     18.09297  -1.25195   5.45802 
 H                     20.14988   0.21855   8.94938 
 H                     18.70046   1.40411   8.81681 
 H                     20.27697   1.61341   8.0149 
 
 ITRead=  0  0  0  0  0  0  0  0  0  0  0  0  0  0  0  0  0  0  0  0
 ITRead=  0  0  0  0  0  0  0  0  0  0  0  0  0  0  0  0  0  0  0  0
 ITRead=  0  0  0  0  0  0  0  0  0  0  0  0  0  0  0  0  0  0  0  0
 ITRead=  0  0  0  0  0  0  0  0  0  0  0  0  0  0  0  0  0  0  0  0
 ITRead=  0  0  0  0  0  0  0  0  0  0  0  0  0  0  0  0  0  0  0  0
 ITRead=  0  0  0  0  0  0  0  0  0  0  0  0  0  0  0  0  0  0  0  0
 ITRead=  0  0  0  0  0  0  0  0  0  0  0  0  0  0  0  0  0  0  0  0
 ITRead=  0  0  0  0  0  0  0  0  0  0  0  0  0  0  0  0  0  0
 MicOpt= -1 -1 -1 -1 -1 -1 -1 -1 -1 -1 -1 -1 -1 -1 -1 -1 -1 -1 -1 -1
 MicOpt= -1 -1 -1 -1 -1 -1 -1 -1 -1 -1 -1 -1 -1 -1 -1 -1 -1 -1 -1 -1
 MicOpt= -1 -1 -1 -1 -1 -1 -1 -1 -1 -1 -1 -1 -1 -1 -1 -1 -1 -1 -1 -1
 MicOpt= -1 -1 -1 -1 -1 -1 -1 -1 -1 -1 -1 -1 -1 -1 -1 -1 -1 -1 -1 -1
 MicOpt= -1 -1 -1 -1 -1 -1 -1 -1 -1 -1 -1 -1 -1 -1 -1 -1 -1 -1 -1 -1
 MicOpt= -1 -1 -1 -1 -1 -1 -1 -1 -1 -1 -1 -1 -1 -1 -1 -1 -1 -1 -1 -1
 MicOpt= -1 -1 -1 -1 -1 -1 -1 -1 -1 -1 -1 -1 -1 -1 -1 -1 -1 -1 -1 -1
 MicOpt= -1 -1 -1 -1 -1 -1 -1 -1 -1 -1 -1 -1 -1 -1 -1 -1 -1 -1
 NAtoms=    158 NQM=      158 NQMF=       0 NMMI=      0 NMMIF=      0
                NMic=       0 NMicF=      0.
                    Isotopes and Nuclear Properties:
 (Nuclear quadrupole moments (NQMom) in fm**2, nuclear magnetic moments (NMagM)
  in nuclear magnetons)

  Atom         1           2           3           4           5           6           7           8           9          10
 IAtWgt=          24          12          12          12          12          14          12          12          12          12
 AtmWgt=  23.9850450  12.0000000  12.0000000  12.0000000  12.0000000  14.0030740  12.0000000  12.0000000  12.0000000  12.0000000
 NucSpn=           0           0           0           0           0           2           0           0           0           0
 AtZEff=  -0.0000000  -0.0000000  -0.0000000  -0.0000000  -0.0000000  -0.0000000  -0.0000000  -0.0000000  -0.0000000  -0.0000000
 NQMom=    0.0000000   0.0000000   0.0000000   0.0000000   0.0000000   2.0440000   0.0000000   0.0000000   0.0000000   0.0000000
 NMagM=    0.0000000   0.0000000   0.0000000   0.0000000   0.0000000   0.4037610   0.0000000   0.0000000   0.0000000   0.0000000
 AtZNuc=  12.0000000   6.0000000   6.0000000   6.0000000   6.0000000   7.0000000   6.0000000   6.0000000   6.0000000   6.0000000

  Atom        11          12          13          14          15          16          17          18          19          20
 IAtWgt=          12          12          12           1          14          12          12          12          12          12
 AtmWgt=  12.0000000  12.0000000  12.0000000   1.0078250  14.0030740  12.0000000  12.0000000  12.0000000  12.0000000  12.0000000
 NucSpn=           0           0           0           1           2           0           0           0           0           0
 AtZEff=  -0.0000000  -0.0000000  -0.0000000  -0.0000000  -0.0000000  -0.0000000  -0.0000000  -0.0000000  -0.0000000  -0.0000000
 NQMom=    0.0000000   0.0000000   0.0000000   0.0000000   2.0440000   0.0000000   0.0000000   0.0000000   0.0000000   0.0000000
 NMagM=    0.0000000   0.0000000   0.0000000   2.7928460   0.4037610   0.0000000   0.0000000   0.0000000   0.0000000   0.0000000
 AtZNuc=   6.0000000   6.0000000   6.0000000   1.0000000   7.0000000   6.0000000   6.0000000   6.0000000   6.0000000   6.0000000

  Atom        21          22          23          24          25          26          27          28          29          30
 IAtWgt=          12          16          12          14          12          12          12          12          12          12
 AtmWgt=  12.0000000  15.9949146  12.0000000  14.0030740  12.0000000  12.0000000  12.0000000  12.0000000  12.0000000  12.0000000
 NucSpn=           0           0           0           2           0           0           0           0           0           0
 AtZEff=  -0.0000000  -0.0000000  -0.0000000  -0.0000000  -0.0000000  -0.0000000  -0.0000000  -0.0000000  -0.0000000  -0.0000000
 NQMom=    0.0000000   0.0000000   0.0000000   2.0440000   0.0000000   0.0000000   0.0000000   0.0000000   0.0000000   0.0000000
 NMagM=    0.0000000   0.0000000   0.0000000   0.4037610   0.0000000   0.0000000   0.0000000   0.0000000   0.0000000   0.0000000
 AtZNuc=   6.0000000   8.0000000   6.0000000   7.0000000   6.0000000   6.0000000   6.0000000   6.0000000   6.0000000   6.0000000

  Atom        31          32          33          34          35          36          37          38          39          40
 IAtWgt=          12          14          12          12          12          12          12          12          16          12
 AtmWgt=  12.0000000  14.0030740  12.0000000  12.0000000  12.0000000  12.0000000  12.0000000  12.0000000  15.9949146  12.0000000
 NucSpn=           0           2           0           0           0           0           0           0           0           0
 AtZEff=  -0.0000000  -0.0000000  -0.0000000  -0.0000000  -0.0000000  -0.0000000  -0.0000000  -0.0000000  -0.0000000  -0.0000000
 NQMom=    0.0000000   2.0440000   0.0000000   0.0000000   0.0000000   0.0000000   0.0000000   0.0000000   0.0000000   0.0000000
 NMagM=    0.0000000   0.4037610   0.0000000   0.0000000   0.0000000   0.0000000   0.0000000   0.0000000   0.0000000   0.0000000
 AtZNuc=   6.0000000   7.0000000   6.0000000   6.0000000   6.0000000   6.0000000   6.0000000   6.0000000   8.0000000   6.0000000

  Atom        41          42          43          44          45          46          47          48          49          50
 IAtWgt=          12          16          16          12           1           1           1           1           1           1
 AtmWgt=  12.0000000  15.9949146  15.9949146  12.0000000   1.0078250   1.0078250   1.0078250   1.0078250   1.0078250   1.0078250
 NucSpn=           0           0           0           0           1           1           1           1           1           1
 AtZEff=  -0.0000000  -0.0000000  -0.0000000  -0.0000000  -0.0000000  -0.0000000  -0.0000000  -0.0000000  -0.0000000  -0.0000000
 NQMom=    0.0000000   0.0000000   0.0000000   0.0000000   0.0000000   0.0000000   0.0000000   0.0000000   0.0000000   0.0000000
 NMagM=    0.0000000   0.0000000   0.0000000   0.0000000   2.7928460   2.7928460   2.7928460   2.7928460   2.7928460   2.7928460
 AtZNuc=   6.0000000   8.0000000   8.0000000   6.0000000   1.0000000   1.0000000   1.0000000   1.0000000   1.0000000   1.0000000

  Atom        51          52          53          54          55          56          57          58          59          60
 IAtWgt=           1           1           1           1           1           1           1           1           1           1
 AtmWgt=   1.0078250   1.0078250   1.0078250   1.0078250   1.0078250   1.0078250   1.0078250   1.0078250   1.0078250   1.0078250
 NucSpn=           1           1           1           1           1           1           1           1           1           1
 AtZEff=  -0.0000000  -0.0000000  -0.0000000  -0.0000000  -0.0000000  -0.0000000  -0.0000000  -0.0000000  -0.0000000  -0.0000000
 NQMom=    0.0000000   0.0000000   0.0000000   0.0000000   0.0000000   0.0000000   0.0000000   0.0000000   0.0000000   0.0000000
 NMagM=    2.7928460   2.7928460   2.7928460   2.7928460   2.7928460   2.7928460   2.7928460   2.7928460   2.7928460   2.7928460
 AtZNuc=   1.0000000   1.0000000   1.0000000   1.0000000   1.0000000   1.0000000   1.0000000   1.0000000   1.0000000   1.0000000

  Atom        61          62          63          64          65          66          67          68          69          70
 IAtWgt=           1           1           1           1           1           1           1           1           1           1
 AtmWgt=   1.0078250   1.0078250   1.0078250   1.0078250   1.0078250   1.0078250   1.0078250   1.0078250   1.0078250   1.0078250
 NucSpn=           1           1           1           1           1           1           1           1           1           1
 AtZEff=  -0.0000000  -0.0000000  -0.0000000  -0.0000000  -0.0000000  -0.0000000  -0.0000000  -0.0000000  -0.0000000  -0.0000000
 NQMom=    0.0000000   0.0000000   0.0000000   0.0000000   0.0000000   0.0000000   0.0000000   0.0000000   0.0000000   0.0000000
 NMagM=    2.7928460   2.7928460   2.7928460   2.7928460   2.7928460   2.7928460   2.7928460   2.7928460   2.7928460   2.7928460
 AtZNuc=   1.0000000   1.0000000   1.0000000   1.0000000   1.0000000   1.0000000   1.0000000   1.0000000   1.0000000   1.0000000

  Atom        71          72          73          74          75          76          77          78          79          80
 IAtWgt=           1           1           1           1           1           1           1           1           1          24
 AtmWgt=   1.0078250   1.0078250   1.0078250   1.0078250   1.0078250   1.0078250   1.0078250   1.0078250   1.0078250  23.9850450
 NucSpn=           1           1           1           1           1           1           1           1           1           0
 AtZEff=  -0.0000000  -0.0000000  -0.0000000  -0.0000000  -0.0000000  -0.0000000  -0.0000000  -0.0000000  -0.0000000  -0.0000000
 NQMom=    0.0000000   0.0000000   0.0000000   0.0000000   0.0000000   0.0000000   0.0000000   0.0000000   0.0000000   0.0000000
 NMagM=    2.7928460   2.7928460   2.7928460   2.7928460   2.7928460   2.7928460   2.7928460   2.7928460   2.7928460   0.0000000
 AtZNuc=   1.0000000   1.0000000   1.0000000   1.0000000   1.0000000   1.0000000   1.0000000   1.0000000   1.0000000  12.0000000

  Atom        81          82          83          84          85          86          87          88          89          90
 IAtWgt=          12          12          12          12          14          12          12          12          12          12
 AtmWgt=  12.0000000  12.0000000  12.0000000  12.0000000  14.0030740  12.0000000  12.0000000  12.0000000  12.0000000  12.0000000
 NucSpn=           0           0           0           0           2           0           0           0           0           0
 AtZEff=  -0.0000000  -0.0000000  -0.0000000  -0.0000000  -0.0000000  -0.0000000  -0.0000000  -0.0000000  -0.0000000  -0.0000000
 NQMom=    0.0000000   0.0000000   0.0000000   0.0000000   2.0440000   0.0000000   0.0000000   0.0000000   0.0000000   0.0000000
 NMagM=    0.0000000   0.0000000   0.0000000   0.0000000   0.4037610   0.0000000   0.0000000   0.0000000   0.0000000   0.0000000
 AtZNuc=   6.0000000   6.0000000   6.0000000   6.0000000   7.0000000   6.0000000   6.0000000   6.0000000   6.0000000   6.0000000

  Atom        91          92          93          94          95          96          97          98          99         100
 IAtWgt=          12          12           1          14          12          12          12          12          12          12
 AtmWgt=  12.0000000  12.0000000   1.0078250  14.0030740  12.0000000  12.0000000  12.0000000  12.0000000  12.0000000  12.0000000
 NucSpn=           0           0           1           2           0           0           0           0           0           0
 AtZEff=  -0.0000000  -0.0000000  -0.0000000  -0.0000000  -0.0000000  -0.0000000  -0.0000000  -0.0000000  -0.0000000  -0.0000000
 NQMom=    0.0000000   0.0000000   0.0000000   2.0440000   0.0000000   0.0000000   0.0000000   0.0000000   0.0000000   0.0000000
 NMagM=    0.0000000   0.0000000   2.7928460   0.4037610   0.0000000   0.0000000   0.0000000   0.0000000   0.0000000   0.0000000
 AtZNuc=   6.0000000   6.0000000   1.0000000   7.0000000   6.0000000   6.0000000   6.0000000   6.0000000   6.0000000   6.0000000

  Atom       101         102         103         104         105         106         107         108         109         110
 IAtWgt=          16          12          14          12          12          12          12          12          12          12
 AtmWgt=  15.9949146  12.0000000  14.0030740  12.0000000  12.0000000  12.0000000  12.0000000  12.0000000  12.0000000  12.0000000
 NucSpn=           0           0           2           0           0           0           0           0           0           0
 AtZEff=  -0.0000000  -0.0000000  -0.0000000  -0.0000000  -0.0000000  -0.0000000  -0.0000000  -0.0000000  -0.0000000  -0.0000000
 NQMom=    0.0000000   0.0000000   2.0440000   0.0000000   0.0000000   0.0000000   0.0000000   0.0000000   0.0000000   0.0000000
 NMagM=    0.0000000   0.0000000   0.4037610   0.0000000   0.0000000   0.0000000   0.0000000   0.0000000   0.0000000   0.0000000
 AtZNuc=   8.0000000   6.0000000   7.0000000   6.0000000   6.0000000   6.0000000   6.0000000   6.0000000   6.0000000   6.0000000

  Atom       111         112         113         114         115         116         117         118         119         120
 IAtWgt=          14          12          12          12          12          12          12          16          12          12
 AtmWgt=  14.0030740  12.0000000  12.0000000  12.0000000  12.0000000  12.0000000  12.0000000  15.9949146  12.0000000  12.0000000
 NucSpn=           2           0           0           0           0           0           0           0           0           0
 AtZEff=  -0.0000000  -0.0000000  -0.0000000  -0.0000000  -0.0000000  -0.0000000  -0.0000000  -0.0000000  -0.0000000  -0.0000000
 NQMom=    2.0440000   0.0000000   0.0000000   0.0000000   0.0000000   0.0000000   0.0000000   0.0000000   0.0000000   0.0000000
 NMagM=    0.4037610   0.0000000   0.0000000   0.0000000   0.0000000   0.0000000   0.0000000   0.0000000   0.0000000   0.0000000
 AtZNuc=   7.0000000   6.0000000   6.0000000   6.0000000   6.0000000   6.0000000   6.0000000   8.0000000   6.0000000   6.0000000

  Atom       121         122         123         124         125         126         127         128         129         130
 IAtWgt=          16          16          12           1           1           1           1           1           1           1
 AtmWgt=  15.9949146  15.9949146  12.0000000   1.0078250   1.0078250   1.0078250   1.0078250   1.0078250   1.0078250   1.0078250
 NucSpn=           0           0           0           1           1           1           1           1           1           1
 AtZEff=  -0.0000000  -0.0000000  -0.0000000  -0.0000000  -0.0000000  -0.0000000  -0.0000000  -0.0000000  -0.0000000  -0.0000000
 NQMom=    0.0000000   0.0000000   0.0000000   0.0000000   0.0000000   0.0000000   0.0000000   0.0000000   0.0000000   0.0000000
 NMagM=    0.0000000   0.0000000   0.0000000   2.7928460   2.7928460   2.7928460   2.7928460   2.7928460   2.7928460   2.7928460
 AtZNuc=   8.0000000   8.0000000   6.0000000   1.0000000   1.0000000   1.0000000   1.0000000   1.0000000   1.0000000   1.0000000

  Atom       131         132         133         134         135         136         137         138         139         140
 IAtWgt=           1           1           1           1           1           1           1           1           1           1
 AtmWgt=   1.0078250   1.0078250   1.0078250   1.0078250   1.0078250   1.0078250   1.0078250   1.0078250   1.0078250   1.0078250
 NucSpn=           1           1           1           1           1           1           1           1           1           1
 AtZEff=  -0.0000000  -0.0000000  -0.0000000  -0.0000000  -0.0000000  -0.0000000  -0.0000000  -0.0000000  -0.0000000  -0.0000000
 NQMom=    0.0000000   0.0000000   0.0000000   0.0000000   0.0000000   0.0000000   0.0000000   0.0000000   0.0000000   0.0000000
 NMagM=    2.7928460   2.7928460   2.7928460   2.7928460   2.7928460   2.7928460   2.7928460   2.7928460   2.7928460   2.7928460
 AtZNuc=   1.0000000   1.0000000   1.0000000   1.0000000   1.0000000   1.0000000   1.0000000   1.0000000   1.0000000   1.0000000

  Atom       141         142         143         144         145         146         147         148         149         150
 IAtWgt=           1           1           1           1           1           1           1           1           1           1
 AtmWgt=   1.0078250   1.0078250   1.0078250   1.0078250   1.0078250   1.0078250   1.0078250   1.0078250   1.0078250   1.0078250
 NucSpn=           1           1           1           1           1           1           1           1           1           1
 AtZEff=  -0.0000000  -0.0000000  -0.0000000  -0.0000000  -0.0000000  -0.0000000  -0.0000000  -0.0000000  -0.0000000  -0.0000000
 NQMom=    0.0000000   0.0000000   0.0000000   0.0000000   0.0000000   0.0000000   0.0000000   0.0000000   0.0000000   0.0000000
 NMagM=    2.7928460   2.7928460   2.7928460   2.7928460   2.7928460   2.7928460   2.7928460   2.7928460   2.7928460   2.7928460
 AtZNuc=   1.0000000   1.0000000   1.0000000   1.0000000   1.0000000   1.0000000   1.0000000   1.0000000   1.0000000   1.0000000

  Atom       151         152         153         154         155         156         157         158
 IAtWgt=           1           1           1           1           1           1           1           1
 AtmWgt=   1.0078250   1.0078250   1.0078250   1.0078250   1.0078250   1.0078250   1.0078250   1.0078250
 NucSpn=           1           1           1           1           1           1           1           1
 AtZEff=  -0.0000000  -0.0000000  -0.0000000  -0.0000000  -0.0000000  -0.0000000  -0.0000000  -0.0000000
 NQMom=    0.0000000   0.0000000   0.0000000   0.0000000   0.0000000   0.0000000   0.0000000   0.0000000
 NMagM=    2.7928460   2.7928460   2.7928460   2.7928460   2.7928460   2.7928460   2.7928460   2.7928460
 AtZNuc=   1.0000000   1.0000000   1.0000000   1.0000000   1.0000000   1.0000000   1.0000000   1.0000000
 Leave Link  101 at Sun Sep 12 06:46:14 2021, MaxMem= 23488102400 cpu:               4.1 elap:               0.2
 (Enter /sw/apps/gaussian-16.0/g16/l202.exe)
 Stoichiometry    C68H72Mg2N8O8
 Framework group  C1[X(C68H72Mg2N8O8)]
 Deg. of freedom   468
 Full point group                 C1      NOp   1
 Largest Abelian subgroup         C1      NOp   1
 Largest concise Abelian subgroup C1      NOp   1
                         Standard orientation:                         
 ---------------------------------------------------------------------
 Center     Atomic      Atomic             Coordinates (Angstroms)
 Number     Number       Type             X           Y           Z
 ---------------------------------------------------------------------
      1         12           0        8.072336   -0.481845   -0.053317
      2          6           0        8.141632    2.862887   -1.326180
      3          6           0        8.964440    0.811118    2.975785
      4          6           0        8.460511   -3.454950    0.979443
      5          6           0        8.306039   -1.584338   -3.351127
      6          7           0        8.471275    1.590580    0.614923
      7          6           0        8.404938    2.788986    0.043438
      8          6           0        8.566960    3.964646    1.052867
      9          6           0        9.367342    3.201720    2.201489
     10          6           0        8.879437    1.787782    1.939477
     11          6           0       10.881091    3.240821    2.018353
     12          6           0        7.188855    4.497077    1.571590
     13          6           0        7.240702    5.843281    2.299875
     14          1           0        6.130986    6.770413    2.137689
     15          7           0        8.150987   -1.199323    1.785675
     16          6           0        8.520221   -0.526839    2.902239
     17          6           0        8.413429   -1.494795    4.015046
     18          6           0        8.135045   -2.834705    3.427479
     19          6           0        8.265385   -2.551064    2.021087
     20          6           0        8.523106   -1.105728    5.457387
     21          6           0        7.814396   -4.162681    4.037231
     22          8           0        7.837161   -5.246000    3.358647
     23          6           0        7.555944   -4.173989    5.488477
     24          7           0        8.565359   -2.266831   -1.016847
     25          6           0        8.610507   -3.423286   -0.346357
     26          6           0        8.702159   -4.593014   -1.280849
     27          6           0        8.464651   -4.007076   -2.747143
     28          6           0        8.352727   -2.505329   -2.385899
     29          6           0       10.024469   -5.371850   -1.250508
     30          6           0        7.332239   -4.650176   -3.586479
     31          6           0        5.990198   -4.334946   -2.964662
     32          7           0        8.024453    0.436761   -2.019255
     33          6           0        8.162401   -0.210237   -3.255798
     34          6           0        8.172571    0.837766   -4.292935
     35          6           0        8.055735    2.030450   -3.581810
     36          6           0        8.003949    1.747148   -2.187052
     37          6           0        8.337995    0.625925   -5.690144
     38          6           0        7.987388    3.479805   -3.674314
     39          8           0        7.893896    4.286141   -4.600907
     40          6           0        8.162923    4.084083   -2.211487
     41          6           0        7.085413    5.115108   -2.013321
     42          8           0        5.884006    4.782203   -1.957091
     43          8           0        7.647786    6.288522   -1.685636
     44          6           0        6.631824    7.348066   -1.446172
     45          1           0        9.468983    1.073074    3.907856
     46          1           0        8.488412   -4.502984    1.284867
     47          1           0        8.290861   -1.858123   -4.407661
     48          1           0        9.156424    4.803615    0.682616
     49          1           0        9.063628    3.529280    3.195564
     50          1           0       11.155053    3.676953    1.057804
     51          1           0       11.207668    2.202081    2.071830
     52          1           0       11.359617    3.748866    2.856016
     53          1           0        6.840159    3.859820    2.384226
     54          1           0        6.466407    4.555588    0.756746
     55          1           0        8.190640    6.351320    2.131286
     56          1           0        7.222465    5.652047    3.372861
     57          1           0        8.893245   -0.087521    5.570507
     58          1           0        9.302208   -1.728351    5.896762
     59          1           0        7.586575   -1.254780    5.994998
     60          1           0        8.430536   -3.788329    6.012789
     61          1           0        7.256688   -5.192644    5.732687
     62          1           0        6.739169   -3.485470    5.707036
     63          1           0        7.930844   -5.330157   -1.061486
     64          1           0        9.350185   -4.105793   -3.375441
     65          1           0        9.902859   -6.432683   -1.030170
     66          1           0       10.680380   -4.894082   -0.523315
     67          1           0       10.619449   -5.297963   -2.160429
     68          1           0        7.435264   -5.734736   -3.594389
     69          1           0        7.318400   -4.310784   -4.622274
     70          1           0        5.892986   -5.099593   -2.194794
     71          1           0        5.196429   -4.425159   -3.706958
     72          1           0        6.001351   -3.367086   -2.463056
     73          1           0        7.608618    1.267555   -6.184401
     74          1           0        8.186842   -0.420927   -5.952550
     75          1           0        9.372032    0.944263   -5.821614
     76          1           0        9.160168    4.521046   -2.170422
     77          1           0        6.872394    8.179166   -2.109219
     78          1           0        6.631782    7.540496   -0.373150
     79          1           0        5.613574    7.119995   -1.763172
     80         12           0       -7.792765   -0.994920    0.262339
     81          6           0       -9.795263    1.951735   -0.169229
     82          6           0       -5.434685    1.000650    1.708631
     83          6           0       -5.823315   -3.482608    0.250433
     84          6           0       -9.751052   -2.515897   -2.186626
     85          7           0       -7.738052    1.179809    0.662071
     86          6           0       -8.582109    2.189165    0.509975
     87          6           0       -8.134237    3.510301    1.190819
     88          6           0       -6.551967    3.238207    1.226203
     89          6           0       -6.566725    1.710992    1.235363
     90          6           0       -5.833417    3.701387   -0.030180
     91          6           0       -8.722643    3.666810    2.636953
     92          6           0       -8.581486    5.065838    3.240730
     93          1           0       -9.651065    5.563667    4.101340
     94          7           0       -6.135702   -1.326047    1.303046
     95          6           0       -5.310763   -0.400349    1.835821
     96          6           0       -4.226234   -1.153561    2.484367
     97          6           0       -4.390421   -2.594311    2.149696
     98          6           0       -5.467679   -2.519325    1.183267
     99          6           0       -3.217479   -0.509902    3.390760
    100          6           0       -3.684946   -3.833129    2.612117
    101          8           0       -3.831959   -4.955736    2.011288
    102          6           0       -2.745066   -3.673270    3.731291
    103          7           0       -7.647980   -2.672816   -0.956699
    104          6           0       -6.734463   -3.628547   -0.711760
    105          6           0       -6.997444   -4.860681   -1.544269
    106          6           0       -8.425059   -4.622823   -2.224653
    107          6           0       -8.712652   -3.193082   -1.716190
    108          6           0       -5.962395   -5.165364   -2.626962
    109          6           0       -9.503163   -5.718151   -1.999680
    110          6           0       -9.917213   -5.743916   -0.545967
    111          7           0       -9.581473   -0.485420   -0.837189
    112          6           0      -10.218024   -1.255929   -1.834787
    113          6           0      -11.328929   -0.442620   -2.370381
    114          6           0      -11.246712    0.763088   -1.657649
    115          6           0      -10.148816    0.712962   -0.756755
    116          6           0      -12.214040   -0.829137   -3.415990
    117          6           0      -11.832556    2.070878   -1.470091
    118          8           0      -12.836098    2.642186   -1.894632
    119          6           0      -10.841886    2.946623   -0.588037
    120          6           0      -11.648051    3.612552    0.493242
    121          8           0      -12.199930    2.935147    1.378203
    122          8           0      -11.455461    4.942722    0.430586
    123          6           0      -12.225892    5.646300    1.490408
    124          1           0       -4.539125    1.565630    1.968729
    125          1           0       -5.242108   -4.407086    0.282300
    126          1           0      -10.468094   -2.956078   -2.882871
    127          1           0       -8.344466    4.408282    0.622298
    128          1           0       -6.105750    3.620702    2.140508
    129          1           0       -6.524818    4.030943   -0.791427
    130          1           0       -5.267529    2.846835   -0.377392
    131          1           0       -5.096192    4.470031    0.218872
    132          1           0       -8.102491    3.095485    3.339613
    133          1           0       -9.751117    3.363341    2.664721
    134          1           0       -8.315220    5.815631    2.485847
    135          1           0       -7.731503    5.063295    3.927420
    136          1           0       -3.248277    0.584003    3.314418
    137          1           0       -2.226735   -0.780952    3.010185
    138          1           0       -3.303669   -0.849192    4.425222
    139          1           0       -1.978461   -2.951772    3.458830
    140          1           0       -2.407813   -4.682335    3.976083
    141          1           0       -3.286274   -3.250196    4.584941
    142          1           0       -7.048191   -5.744980   -0.920925
    143          1           0       -8.348575   -4.557370   -3.319966
    144          1           0       -5.514181   -6.172363   -2.531291
    145          1           0       -5.195709   -4.402864   -2.590482
    146          1           0       -6.325095   -5.079541   -3.649835
    147          1           0       -9.091997   -6.705728   -2.222833
    148          1           0      -10.385309   -5.589380   -2.617928
    149          1           0       -9.142053   -6.359206   -0.079459
    150          1           0      -10.900358   -6.197020   -0.435652
    151          1           0       -9.856039   -4.743722   -0.101543
    152          1           0      -13.208797   -0.538769   -3.105103
    153          1           0      -12.154208   -1.897502   -3.612944
    154          1           0      -11.811240   -0.236345   -4.241594
    155          1           0      -10.367502    3.671735   -1.250427
    156          1           0      -12.852234    6.390733    0.989216
    157          1           0      -11.472357    6.022633    2.207571
    158          1           0      -12.969865    5.074429    2.032550
 ---------------------------------------------------------------------
 Rotational constants (GHZ):           0.0241555           0.0056160           0.0052024
 Leave Link  202 at Sun Sep 12 06:46:14 2021, MaxMem= 23488102400 cpu:               0.2 elap:               0.0
 (Enter /sw/apps/gaussian-16.0/g16/l301.exe)
 Standard basis: def2SVP (5D, 7F)
 Ernie: Thresh=  0.10000D-02 Tol=  0.10000D-05 Strict=F.
 There are  1658 symmetry adapted cartesian basis functions of A   symmetry.
 There are  1572 symmetry adapted basis functions of A   symmetry.
  1572 basis functions,  2678 primitive gaussians,  1658 cartesian basis functions
   312 alpha electrons      312 beta electrons
       nuclear repulsion energy     13762.4307145181 Hartrees.
 IExCor=20419 DFT=T Ex+Corr=CAM-B3LYP ExCW=0 ScaHFX=  1.000000
 ScaDFX=  1.000000  1.000000  1.000000  0.810000 ScalE2=  1.000000  1.000000
 IRadAn=      5 IRanWt=     -1 IRanGd=            0 ICorTp=0 IEmpDi=  4
 HFx  wShort=  0.000000 wLong=  0.330000 cFull=  0.190000 cShort=  0.000000 cLong=  0.460000
 DFx  wShort=  0.000000 wLong=  0.330000 cFull=  0.190000 cShort=  0.000000 cLong=  0.460000
 NAtoms=  158 NActive=  158 NUniq=  158 SFac= 1.00D+00 NAtFMM=   60 NAOKFM=T Big=T
 Integral buffers will be    131072 words long.
 Raffenetti 1 integral format.
 Two-electron integral symmetry is turned on.
 Leave Link  301 at Sun Sep 12 06:46:14 2021, MaxMem= 23488102400 cpu:               1.3 elap:               0.1
 (Enter /sw/apps/gaussian-16.0/g16/l302.exe)
 NPDir=0 NMtPBC=     1 NCelOv=     1 NCel=       1 NClECP=     1 NCelD=      1
         NCelK=      1 NCelE2=     1 NClLst=     1 CellRange=     0.0.
 One-electron integrals computed using PRISM.
 One-electron integral symmetry used in STVInt
   1 Symmetry operations used in ECPInt.
 ECPInt:  NShTT=  271216 NPrTT=  987664 LenC2=  110728 LenP2D=  248218.
 LDataN:  DoStor=T MaxTD1= 4 Len=   56
 NBasis=  1572 RedAO= T EigKep=  3.36D-04  NBF=  1572
 NBsUse=  1572 1.00D-06 EigRej= -1.00D+00 NBFU=  1572
 Precomputing XC quadrature grid using
 IXCGrd= 4 IRadAn=           5 IRanWt=          -1 IRanGd=           0 AccXCQ= 0.00D+00.
 Generated NRdTot=       0 NPtTot=           0 NUsed=           0 NTot=          32
 NSgBfM=   999   961   973   984   999 MxSgAt=   158 MxSgA2=   157.
 Leave Link  302 at Sun Sep 12 06:46:19 2021, MaxMem= 23488102400 cpu:             115.5 elap:               4.8
 (Enter /sw/apps/gaussian-16.0/g16/l303.exe)
 DipDrv:  MaxL=1.
 Leave Link  303 at Sun Sep 12 06:46:19 2021, MaxMem= 23488102400 cpu:               8.8 elap:               0.4
 (Enter /sw/apps/gaussian-16.0/g16/l308.exe)
 Leave Link  308 at Sun Sep 12 06:46:20 2021, MaxMem= 23488102400 cpu:              13.0 elap:               0.6
 (Enter /sw/apps/gaussian-16.0/g16/l401.exe)
 ExpMin= 3.36D-02 ExpMax= 4.95D+03 ExpMxC= 7.45D+02 IAcc=3 IRadAn=         5 AccDes= 0.00D+00
 Harris functional with IExCor=20419 and IRadAn=       5 diagonalized for initial guess.
 HarFok:  IExCor=20419 AccDes= 0.00D+00 IRadAn=         5 IDoV= 1 UseB2=F ITyADJ=14
 ICtDFT=  3500011 ScaDFX=  1.000000  1.000000  1.000000  1.000000
 FoFCou: FMM=F IPFlag=           0 FMFlag=      100000 FMFlg1=        2001
         NFxFlg=           0 DoJE=T BraDBF=F KetDBF=T FulRan=T
         wScrn=  0.000000 ICntrl=       500 IOpCl=  0 I1Cent=   200000004 NGrid=           0
         NMat0=    1 NMatS0=      1 NMatT0=    0 NMatD0=    1 NMtDS0=    0 NMtDT0=    0
 Petite list used in FoFCou.
 Harris En= -3918.65801421283    
 JPrj=0 DoOrth=F DoCkMO=F.
 Leave Link  401 at Sun Sep 12 06:46:26 2021, MaxMem= 23488102400 cpu:             158.4 elap:               6.6
 (Enter /sw/apps/gaussian-16.0/g16/l502.exe)
 Integral symmetry usage will be decided dynamically.
 Closed shell SCF:
 Using DIIS extrapolation, IDIIS=  1040.
 NGot= 23488102400 LenX= 23482547354 LenY= 23479796732
 Requested convergence on RMS density matrix=1.00D-08 within 128 cycles.
 Requested convergence on MAX density matrix=1.00D-06.
 Requested convergence on             energy=1.00D-06.
 No special actions if energy rises.
 Fock matrices will be formed incrementally for  20 cycles.

 Cycle   1  Pass 1  IDiag  1:
 FoFJK:  IHMeth= 1 ICntrl=       0 DoSepK=T KAlg= 0 I1Cent=           0 FoldK=F
 IRaf=         1 NMat=       1 IRICut=       1 DoRegI=T DoRafI=F ISym2E= 0 IDoP0=0 IntGTp=1.
 FoFCou: FMM=T IPFlag=           0 FMFlag=      100000 FMFlg1=        2001
         NFxFlg=           0 DoJE=T BraDBF=F KetDBF=F FulRan=T
         wScrn=  0.000000 ICntrl=       500 IOpCl=  0 I1Cent=           0 NGrid=           0
         NMat0=    1 NMatS0=      1 NMatT0=    0 NMatD0=    1 NMtDS0=    0 NMtDT0=    0
 Symmetry not used in FoFCou.
 FMM levels:  10  Number of levels for PrismC:   9
 E= -4068.94918558644    
 DIIS: error= 2.04D-02 at cycle   1 NSaved=   1.
 NSaved= 1 IEnMin= 1 EnMin= -4068.94918558644     IErMin= 1 ErrMin= 2.04D-02
 ErrMax= 2.04D-02  0.00D+00 EMaxC= 1.00D-01 BMatC= 1.69D+00 BMatP= 1.69D+00
 IDIUse=3 WtCom= 7.96D-01 WtEn= 2.04D-01
 Coeff-Com:  0.100D+01
 Coeff-En:   0.100D+01
 Coeff:      0.100D+01
 Gap=     0.120 Goal=   None    Shift=    0.000
 GapD=    0.120 DampG=1.000 DampE=0.500 DampFc=0.5000 IDamp=-1.
 Damping current iteration by 5.00D-01
 RMSDP=1.57D-03 MaxDP=1.35D-01              OVMax= 2.03D-01

 Cycle   2  Pass 1  IDiag  1:
 RMSU=  7.69D-04    CP:  9.82D-01
 E= -4069.33814126057     Delta-E=       -0.388955674123 Rises=F Damp=T
 DIIS: error= 1.27D-02 at cycle   2 NSaved=   2.
 NSaved= 2 IEnMin= 2 EnMin= -4069.33814126057     IErMin= 2 ErrMin= 1.27D-02
 ErrMax= 1.27D-02  0.00D+00 EMaxC= 1.00D-01 BMatC= 3.07D-01 BMatP= 1.69D+00
 IDIUse=3 WtCom= 8.73D-01 WtEn= 1.27D-01
 Coeff-Com: -0.213D+00 0.121D+01
 Coeff-En:   0.000D+00 0.100D+01
 Coeff:     -0.186D+00 0.119D+01
 Gap=     0.135 Goal=   None    Shift=    0.000
 RMSDP=7.65D-04 MaxDP=9.42D-02 DE=-3.89D-01 OVMax= 1.89D-01

 Cycle   3  Pass 1  IDiag  1:
 RMSU=  7.32D-04    CP:  9.68D-01  1.24D+00
 E= -4069.62789897966     Delta-E=       -0.289757719096 Rises=F Damp=F
 DIIS: error= 1.57D-02 at cycle   3 NSaved=   3.
 NSaved= 3 IEnMin= 3 EnMin= -4069.62789897966     IErMin= 2 ErrMin= 1.27D-02
 ErrMax= 1.57D-02  0.00D+00 EMaxC= 1.00D-01 BMatC= 2.01D-01 BMatP= 3.07D-01
 IDIUse=3 WtCom= 8.43D-01 WtEn= 1.57D-01
 Coeff-Com: -0.267D+00 0.651D+00 0.616D+00
 Coeff-En:   0.000D+00 0.000D+00 0.100D+01
 Coeff:     -0.225D+00 0.549D+00 0.676D+00
 Gap=     0.123 Goal=   None    Shift=    0.000
 RMSDP=5.08D-04 MaxDP=4.78D-02 DE=-2.90D-01 OVMax= 1.43D-01

 Cycle   4  Pass 1  IDiag  1:
 RMSU=  2.65D-04    CP:  9.65D-01  1.55D+00  5.06D-01
 E= -4069.76517088215     Delta-E=       -0.137271902488 Rises=F Damp=F
 DIIS: error= 7.23D-03 at cycle   4 NSaved=   4.
 NSaved= 4 IEnMin= 4 EnMin= -4069.76517088215     IErMin= 4 ErrMin= 7.23D-03
 ErrMax= 7.23D-03  0.00D+00 EMaxC= 1.00D-01 BMatC= 5.01D-02 BMatP= 2.01D-01
 IDIUse=3 WtCom= 9.28D-01 WtEn= 7.23D-02
 Coeff-Com: -0.109D+00 0.226D+00 0.408D+00 0.474D+00
 Coeff-En:   0.000D+00 0.000D+00 0.220D+00 0.780D+00
 Coeff:     -0.101D+00 0.210D+00 0.395D+00 0.496D+00
 Gap=     0.122 Goal=   None    Shift=    0.000
 RMSDP=2.00D-04 MaxDP=2.04D-02 DE=-1.37D-01 OVMax= 6.19D-02

 Cycle   5  Pass 1  IDiag  1:
 RMSU=  7.59D-05    CP:  9.64D-01  1.49D+00  6.89D-01  5.50D-01
 E= -4069.81053643255     Delta-E=       -0.045365550402 Rises=F Damp=F
 DIIS: error= 7.80D-04 at cycle   5 NSaved=   5.
 NSaved= 5 IEnMin= 5 EnMin= -4069.81053643255     IErMin= 5 ErrMin= 7.80D-04
 ErrMax= 7.80D-04  0.00D+00 EMaxC= 1.00D-01 BMatC= 1.17D-03 BMatP= 5.01D-02
 IDIUse=3 WtCom= 9.92D-01 WtEn= 7.80D-03
 Coeff-Com: -0.359D-01 0.704D-01 0.165D+00 0.249D+00 0.551D+00
 Coeff-En:   0.000D+00 0.000D+00 0.000D+00 0.000D+00 0.100D+01
 Coeff:     -0.356D-01 0.699D-01 0.164D+00 0.247D+00 0.554D+00
 Gap=     0.121 Goal=   None    Shift=    0.000
 RMSDP=4.09D-05 MaxDP=4.12D-03 DE=-4.54D-02 OVMax= 1.64D-02

 Cycle   6  Pass 1  IDiag  1:
 RMSU=  3.03D-05    CP:  9.64D-01  1.49D+00  6.81D-01  6.22D-01  7.57D-01
 E= -4069.81154884375     Delta-E=       -0.001012411194 Rises=F Damp=F
 DIIS: error= 2.11D-04 at cycle   6 NSaved=   6.
 NSaved= 6 IEnMin= 6 EnMin= -4069.81154884375     IErMin= 6 ErrMin= 2.11D-04
 ErrMax= 2.11D-04  0.00D+00 EMaxC= 1.00D-01 BMatC= 1.78D-04 BMatP= 1.17D-03
 IDIUse=3 WtCom= 9.98D-01 WtEn= 2.11D-03
 Coeff-Com:  0.226D-02-0.668D-02 0.110D-01 0.399D-01 0.307D+00 0.647D+00
 Coeff-En:   0.000D+00 0.000D+00 0.000D+00 0.000D+00 0.106D+00 0.894D+00
 Coeff:      0.225D-02-0.666D-02 0.110D-01 0.398D-01 0.307D+00 0.647D+00
 Gap=     0.121 Goal=   None    Shift=    0.000
 RMSDP=1.60D-05 MaxDP=1.19D-03 DE=-1.01D-03 OVMax= 7.26D-03

 Cycle   7  Pass 1  IDiag  1:
 RMSU=  1.07D-05    CP:  9.64D-01  1.50D+00  6.87D-01  6.21D-01  8.59D-01
                    CP:  7.47D-01
 E= -4069.81174059631     Delta-E=       -0.000191752559 Rises=F Damp=F
 DIIS: error= 8.30D-05 at cycle   7 NSaved=   7.
 NSaved= 7 IEnMin= 7 EnMin= -4069.81174059631     IErMin= 7 ErrMin= 8.30D-05
 ErrMax= 8.30D-05  0.00D+00 EMaxC= 1.00D-01 BMatC= 2.11D-05 BMatP= 1.78D-04
 IDIUse=1 WtCom= 1.00D+00 WtEn= 0.00D+00
 Coeff-Com:  0.446D-02-0.977D-02-0.896D-02-0.376D-02 0.103D+00 0.330D+00
 Coeff-Com:  0.585D+00
 Coeff:      0.446D-02-0.977D-02-0.896D-02-0.376D-02 0.103D+00 0.330D+00
 Coeff:      0.585D+00
 Gap=     0.122 Goal=   None    Shift=    0.000
 RMSDP=6.51D-06 MaxDP=1.08D-03 DE=-1.92D-04 OVMax= 3.39D-03

 Cycle   8  Pass 1  IDiag  1:
 RMSU=  4.68D-06    CP:  9.64D-01  1.50D+00  6.88D-01  6.26D-01  8.63D-01
                    CP:  8.73D-01  8.20D-01
 E= -4069.81176677169     Delta-E=       -0.000026175388 Rises=F Damp=F
 DIIS: error= 5.02D-05 at cycle   8 NSaved=   8.
 NSaved= 8 IEnMin= 8 EnMin= -4069.81176677169     IErMin= 8 ErrMin= 5.02D-05
 ErrMax= 5.02D-05  0.00D+00 EMaxC= 1.00D-01 BMatC= 4.87D-06 BMatP= 2.11D-05
 IDIUse=1 WtCom= 1.00D+00 WtEn= 0.00D+00
 Coeff-Com:  0.216D-02-0.429D-02-0.776D-02-0.121D-01-0.113D-01 0.337D-01
 Coeff-Com:  0.343D+00 0.657D+00
 Coeff:      0.216D-02-0.429D-02-0.776D-02-0.121D-01-0.113D-01 0.337D-01
 Coeff:      0.343D+00 0.657D+00
 Gap=     0.122 Goal=   None    Shift=    0.000
 RMSDP=3.28D-06 MaxDP=3.58D-04 DE=-2.62D-05 OVMax= 1.10D-03

 Cycle   9  Pass 1  IDiag  1:
 RMSU=  1.91D-06    CP:  9.64D-01  1.50D+00  6.88D-01  6.27D-01  8.80D-01
                    CP:  8.99D-01  1.02D+00  9.41D-01
 E= -4069.81177452943     Delta-E=       -0.000007757735 Rises=F Damp=F
 DIIS: error= 1.94D-05 at cycle   9 NSaved=   9.
 NSaved= 9 IEnMin= 9 EnMin= -4069.81177452943     IErMin= 9 ErrMin= 1.94D-05
 ErrMax= 1.94D-05  0.00D+00 EMaxC= 1.00D-01 BMatC= 6.92D-07 BMatP= 4.87D-06
 IDIUse=1 WtCom= 1.00D+00 WtEn= 0.00D+00
 Coeff-Com:  0.469D-03-0.781D-03-0.268D-02-0.600D-02-0.212D-01-0.387D-01
 Coeff-Com:  0.104D+00 0.326D+00 0.639D+00
 Coeff:      0.469D-03-0.781D-03-0.268D-02-0.600D-02-0.212D-01-0.387D-01
 Coeff:      0.104D+00 0.326D+00 0.639D+00
 Gap=     0.122 Goal=   None    Shift=    0.000
 RMSDP=1.41D-06 MaxDP=1.46D-04 DE=-7.76D-06 OVMax= 7.43D-04

 Cycle  10  Pass 1  IDiag  1:
 RMSU=  9.38D-07    CP:  9.64D-01  1.50D+00  6.88D-01  6.28D-01  8.83D-01
                    CP:  9.12D-01  1.06D+00  1.11D+00  1.05D+00
 E= -4069.81177611649     Delta-E=       -0.000001587061 Rises=F Damp=F
 DIIS: error= 1.03D-05 at cycle  10 NSaved=  10.
 NSaved=10 IEnMin=10 EnMin= -4069.81177611649     IErMin=10 ErrMin= 1.03D-05
 ErrMax= 1.03D-05  0.00D+00 EMaxC= 1.00D-01 BMatC= 1.72D-07 BMatP= 6.92D-07
 IDIUse=1 WtCom= 1.00D+00 WtEn= 0.00D+00
 Coeff-Com: -0.425D-03 0.890D-03 0.122D-02 0.110D-02-0.380D-02-0.310D-01
 Coeff-Com: -0.456D-01-0.759D-01 0.253D+00 0.900D+00
 Coeff:     -0.425D-03 0.890D-03 0.122D-02 0.110D-02-0.380D-02-0.310D-01
 Coeff:     -0.456D-01-0.759D-01 0.253D+00 0.900D+00
 Gap=     0.122 Goal=   None    Shift=    0.000
 RMSDP=1.22D-06 MaxDP=1.23D-04 DE=-1.59D-06 OVMax= 6.14D-04

 Cycle  11  Pass 1  IDiag  1:
 RMSU=  5.16D-07    CP:  9.64D-01  1.50D+00  6.88D-01  6.28D-01  8.86D-01
                    CP:  9.22D-01  1.11D+00  1.22D+00  1.39D+00  1.37D+00
 E= -4069.81177689940     Delta-E=       -0.000000782911 Rises=F Damp=F
 DIIS: error= 4.04D-06 at cycle  11 NSaved=  11.
 NSaved=11 IEnMin=11 EnMin= -4069.81177689940     IErMin=11 ErrMin= 4.04D-06
 ErrMax= 4.04D-06  0.00D+00 EMaxC= 1.00D-01 BMatC= 6.19D-08 BMatP= 1.72D-07
 IDIUse=1 WtCom= 1.00D+00 WtEn= 0.00D+00
 Coeff-Com: -0.328D-03 0.638D-03 0.132D-02 0.211D-02 0.437D-02-0.847D-02
 Coeff-Com: -0.431D-01-0.132D+00-0.237D-01 0.467D+00 0.732D+00
 Coeff:     -0.328D-03 0.638D-03 0.132D-02 0.211D-02 0.437D-02-0.847D-02
 Coeff:     -0.431D-01-0.132D+00-0.237D-01 0.467D+00 0.732D+00
 Gap=     0.122 Goal=   None    Shift=    0.000
 RMSDP=6.85D-07 MaxDP=5.87D-05 DE=-7.83D-07 OVMax= 3.71D-04

 Cycle  12  Pass 1  IDiag  1:
 RMSU=  2.63D-07    CP:  9.64D-01  1.50D+00  6.88D-01  6.28D-01  8.87D-01
                    CP:  9.25D-01  1.13D+00  1.28D+00  1.56D+00  1.75D+00
                    CP:  1.20D+00
 E= -4069.81177716096     Delta-E=       -0.000000261560 Rises=F Damp=F
 DIIS: error= 2.36D-06 at cycle  12 NSaved=  12.
 NSaved=12 IEnMin=12 EnMin= -4069.81177716096     IErMin=12 ErrMin= 2.36D-06
 ErrMax= 2.36D-06  0.00D+00 EMaxC= 1.00D-01 BMatC= 1.52D-08 BMatP= 6.19D-08
 IDIUse=1 WtCom= 1.00D+00 WtEn= 0.00D+00
 Coeff-Com: -0.440D-05-0.785D-05 0.195D-03 0.533D-03 0.334D-02 0.389D-02
 Coeff-Com:  0.225D-02-0.361D-01-0.681D-01-0.687D-01 0.258D+00 0.905D+00
 Coeff:     -0.440D-05-0.785D-05 0.195D-03 0.533D-03 0.334D-02 0.389D-02
 Coeff:      0.225D-02-0.361D-01-0.681D-01-0.687D-01 0.258D+00 0.905D+00
 Gap=     0.122 Goal=   None    Shift=    0.000
 RMSDP=4.32D-07 MaxDP=3.03D-05 DE=-2.62D-07 OVMax= 2.46D-04

 Cycle  13  Pass 1  IDiag  1:
 RMSU=  1.65D-07    CP:  9.64D-01  1.50D+00  6.88D-01  6.28D-01  8.87D-01
                    CP:  9.25D-01  1.14D+00  1.31D+00  1.66D+00  1.98D+00
                    CP:  1.61D+00  1.26D+00
 E= -4069.81177725185     Delta-E=       -0.000000090891 Rises=F Damp=F
 DIIS: error= 1.26D-06 at cycle  13 NSaved=  13.
 NSaved=13 IEnMin=13 EnMin= -4069.81177725185     IErMin=13 ErrMin= 1.26D-06
 ErrMax= 1.26D-06  0.00D+00 EMaxC= 1.00D-01 BMatC= 8.15D-09 BMatP= 1.52D-08
 IDIUse=1 WtCom= 1.00D+00 WtEn= 0.00D+00
 Coeff-Com:  0.119D-03-0.243D-03-0.365D-03-0.449D-03 0.607D-03 0.505D-02
 Coeff-Com:  0.194D-01 0.225D-01-0.340D-01-0.240D+00-0.153D+00 0.591D+00
 Coeff-Com:  0.789D+00
 Coeff:      0.119D-03-0.243D-03-0.365D-03-0.449D-03 0.607D-03 0.505D-02
 Coeff:      0.194D-01 0.225D-01-0.340D-01-0.240D+00-0.153D+00 0.591D+00
 Coeff:      0.789D+00
 Gap=     0.122 Goal=   None    Shift=    0.000
 RMSDP=3.40D-07 MaxDP=2.06D-05 DE=-9.09D-08 OVMax= 1.98D-04

 Cycle  14  Pass 1  IDiag  1:
 RMSU=  7.63D-08    CP:  9.64D-01  1.50D+00  6.88D-01  6.28D-01  8.87D-01
                    CP:  9.26D-01  1.15D+00  1.33D+00  1.74D+00  2.17D+00
                    CP:  1.87D+00  1.77D+00  1.09D+00
 E= -4069.81177728800     Delta-E=       -0.000000036143 Rises=F Damp=F
 DIIS: error= 6.67D-07 at cycle  14 NSaved=  14.
 NSaved=14 IEnMin=14 EnMin= -4069.81177728800     IErMin=14 ErrMin= 6.67D-07
 ErrMax= 6.67D-07  0.00D+00 EMaxC= 1.00D-01 BMatC= 1.28D-09 BMatP= 8.15D-09
 IDIUse=1 WtCom= 1.00D+00 WtEn= 0.00D+00
 Coeff-Com:  0.669D-04-0.132D-03-0.247D-03-0.388D-03-0.475D-03 0.131D-02
 Coeff-Com:  0.107D-01 0.193D-01 0.354D-02-0.101D+00-0.142D+00 0.899D-01
 Coeff-Com:  0.409D+00 0.711D+00
 Coeff:      0.669D-04-0.132D-03-0.247D-03-0.388D-03-0.475D-03 0.131D-02
 Coeff:      0.107D-01 0.193D-01 0.354D-02-0.101D+00-0.142D+00 0.899D-01
 Coeff:      0.409D+00 0.711D+00
 Gap=     0.122 Goal=   None    Shift=    0.000
 RMSDP=1.03D-07 MaxDP=6.66D-06 DE=-3.61D-08 OVMax= 5.51D-05

 Cycle  15  Pass 1  IDiag  1:
 RMSU=  3.82D-08    CP:  9.64D-01  1.50D+00  6.88D-01  6.28D-01  8.87D-01
                    CP:  9.25D-01  1.15D+00  1.34D+00  1.76D+00  2.21D+00
                    CP:  1.97D+00  1.91D+00  1.33D+00  1.03D+00
 E= -4069.81177729229     Delta-E=       -0.000000004296 Rises=F Damp=F
 DIIS: error= 3.10D-07 at cycle  15 NSaved=  15.
 NSaved=15 IEnMin=15 EnMin= -4069.81177729229     IErMin=15 ErrMin= 3.10D-07
 ErrMax= 3.10D-07  0.00D+00 EMaxC= 1.00D-01 BMatC= 2.20D-10 BMatP= 1.28D-09
 IDIUse=1 WtCom= 1.00D+00 WtEn= 0.00D+00
 Coeff-Com:  0.574D-05-0.970D-05-0.338D-04-0.831D-04-0.299D-03-0.499D-03
 Coeff-Com:  0.118D-02 0.266D-02 0.866D-02 0.104D-02-0.308D-01-0.727D-01
 Coeff-Com:  0.328D-01 0.294D+00 0.765D+00
 Coeff:      0.574D-05-0.970D-05-0.338D-04-0.831D-04-0.299D-03-0.499D-03
 Coeff:      0.118D-02 0.266D-02 0.866D-02 0.104D-02-0.308D-01-0.727D-01
 Coeff:      0.328D-01 0.294D+00 0.765D+00
 Gap=     0.122 Goal=   None    Shift=    0.000
 RMSDP=3.97D-08 MaxDP=2.52D-06 DE=-4.30D-09 OVMax= 2.71D-05

 Cycle  16  Pass 1  IDiag  1:
 RMSU=  1.86D-08    CP:  9.64D-01  1.50D+00  6.88D-01  6.28D-01  8.87D-01
                    CP:  9.25D-01  1.15D+00  1.34D+00  1.76D+00  2.23D+00
                    CP:  2.00D+00  1.97D+00  1.41D+00  1.24D+00  1.14D+00
 E= -4069.81177729298     Delta-E=       -0.000000000684 Rises=F Damp=F
 DIIS: error= 1.74D-07 at cycle  16 NSaved=  16.
 NSaved=16 IEnMin=16 EnMin= -4069.81177729298     IErMin=16 ErrMin= 1.74D-07
 ErrMax= 1.74D-07  0.00D+00 EMaxC= 1.00D-01 BMatC= 8.35D-11 BMatP= 2.20D-10
 IDIUse=1 WtCom= 1.00D+00 WtEn= 0.00D+00
 Coeff-Com: -0.140D-04 0.284D-04 0.462D-04 0.525D-04-0.302D-04-0.629D-03
 Coeff-Com: -0.194D-02-0.419D-02 0.450D-02 0.252D-01 0.204D-01-0.645D-01
 Coeff-Com: -0.812D-01-0.400D-01 0.402D+00 0.740D+00
 Coeff:     -0.140D-04 0.284D-04 0.462D-04 0.525D-04-0.302D-04-0.629D-03
 Coeff:     -0.194D-02-0.419D-02 0.450D-02 0.252D-01 0.204D-01-0.645D-01
 Coeff:     -0.812D-01-0.400D-01 0.402D+00 0.740D+00
 Gap=     0.122 Goal=   None    Shift=    0.000
 RMSDP=2.30D-08 MaxDP=1.43D-06 DE=-6.84D-10 OVMax= 1.21D-05

 Cycle  17  Pass 1  IDiag  1:
 RMSU=  1.03D-08    CP:  9.64D-01  1.50D+00  6.88D-01  6.28D-01  8.87D-01
                    CP:  9.25D-01  1.15D+00  1.34D+00  1.76D+00  2.23D+00
                    CP:  2.01D+00  1.99D+00  1.45D+00  1.33D+00  1.44D+00
                    CP:  1.24D+00
 E= -4069.81177729325     Delta-E=       -0.000000000269 Rises=F Damp=F
 DIIS: error= 9.18D-08 at cycle  17 NSaved=  17.
 NSaved=17 IEnMin=17 EnMin= -4069.81177729325     IErMin=17 ErrMin= 9.18D-08
 ErrMax= 9.18D-08  0.00D+00 EMaxC= 1.00D-01 BMatC= 1.74D-11 BMatP= 8.35D-11
 IDIUse=1 WtCom= 1.00D+00 WtEn= 0.00D+00
 Coeff-Com: -0.720D-05 0.140D-04 0.284D-04 0.422D-04 0.821D-04-0.126D-03
 Coeff-Com: -0.949D-03-0.279D-02 0.166D-03 0.923D-02 0.174D-01-0.744D-02
 Coeff-Com: -0.359D-01-0.101D+00-0.259D-01 0.286D+00 0.862D+00
 Coeff:     -0.720D-05 0.140D-04 0.284D-04 0.422D-04 0.821D-04-0.126D-03
 Coeff:     -0.949D-03-0.279D-02 0.166D-03 0.923D-02 0.174D-01-0.744D-02
 Coeff:     -0.359D-01-0.101D+00-0.259D-01 0.286D+00 0.862D+00
 Gap=     0.122 Goal=   None    Shift=    0.000
 RMSDP=1.35D-08 MaxDP=8.55D-07 DE=-2.69D-10 OVMax= 9.17D-06

 Cycle  18  Pass 1  IDiag  1:
 RMSU=  4.94D-09    CP:  9.64D-01  1.50D+00  6.88D-01  6.28D-01  8.87D-01
                    CP:  9.25D-01  1.15D+00  1.34D+00  1.76D+00  2.23D+00
                    CP:  2.02D+00  2.00D+00  1.47D+00  1.40D+00  1.61D+00
                    CP:  1.65D+00  1.39D+00
 E= -4069.81177729320     Delta-E=        0.000000000044 Rises=F Damp=F
 DIIS: error= 5.88D-08 at cycle  18 NSaved=  18.
 NSaved=18 IEnMin=17 EnMin= -4069.81177729325     IErMin=18 ErrMin= 5.88D-08
 ErrMax= 5.88D-08  0.00D+00 EMaxC= 1.00D-01 BMatC= 7.28D-12 BMatP= 1.74D-11
 IDIUse=1 WtCom= 1.00D+00 WtEn= 0.00D+00
 Coeff-Com:  0.177D-05-0.386D-05-0.355D-05-0.318D-06 0.605D-04 0.175D-03
 Coeff-Com:  0.361D-03 0.135D-03-0.125D-02-0.576D-02 0.410D-03 0.193D-01
 Coeff-Com:  0.171D-01-0.344D-01-0.159D+00-0.188D+00 0.373D+00 0.978D+00
 Coeff:      0.177D-05-0.386D-05-0.355D-05-0.318D-06 0.605D-04 0.175D-03
 Coeff:      0.361D-03 0.135D-03-0.125D-02-0.576D-02 0.410D-03 0.193D-01
 Coeff:      0.171D-01-0.344D-01-0.159D+00-0.188D+00 0.373D+00 0.978D+00
 Gap=     0.122 Goal=   None    Shift=    0.000
 RMSDP=1.15D-08 MaxDP=6.71D-07 DE= 4.37D-11 OVMax= 6.12D-06

 Cycle  19  Pass 1  IDiag  1:
 RMSU=  2.90D-09    CP:  9.64D-01  1.50D+00  6.88D-01  6.28D-01  8.87D-01
                    CP:  9.25D-01  1.15D+00  1.34D+00  1.76D+00  2.23D+00
                    CP:  2.02D+00  2.01D+00  1.48D+00  1.44D+00  1.76D+00
                    CP:  1.97D+00  1.93D+00  1.33D+00
 E= -4069.81177729322     Delta-E=       -0.000000000015 Rises=F Damp=F
 DIIS: error= 3.13D-08 at cycle  19 NSaved=  19.
 NSaved=19 IEnMin=17 EnMin= -4069.81177729325     IErMin=19 ErrMin= 3.13D-08
 ErrMax= 3.13D-08  0.00D+00 EMaxC= 1.00D-01 BMatC= 1.60D-12 BMatP= 7.28D-12
 IDIUse=1 WtCom= 1.00D+00 WtEn= 0.00D+00
 Coeff-Com:  0.292D-05-0.590D-05-0.985D-05-0.122D-04 0.134D-04 0.124D-03
 Coeff-Com:  0.480D-03 0.790D-03-0.623D-03-0.605D-02-0.472D-02 0.124D-01
 Coeff-Com:  0.206D-01 0.106D-01-0.730D-01-0.185D+00-0.184D-01 0.507D+00
 Coeff-Com:  0.736D+00
 Coeff:      0.292D-05-0.590D-05-0.985D-05-0.122D-04 0.134D-04 0.124D-03
 Coeff:      0.480D-03 0.790D-03-0.623D-03-0.605D-02-0.472D-02 0.124D-01
 Coeff:      0.206D-01 0.106D-01-0.730D-01-0.185D+00-0.184D-01 0.507D+00
 Coeff:      0.736D+00
 Gap=     0.122 Goal=   None    Shift=    0.000
 RMSDP=4.66D-09 MaxDP=2.99D-07 DE=-1.46D-11 OVMax= 3.35D-06

 SCF Done:  E(RCAM-B3LYP) =  -4069.81177729     A.U. after   19 cycles
            NFock= 19  Conv=0.47D-08     -V/T= 2.0102
 KE= 4.028802086575D+03 PE=-3.700556414834D+04 EE= 1.514451956995D+04
 Leave Link  502 at Sun Sep 12 06:55:10 2021, MaxMem= 23488102400 cpu:           11990.5 elap:             523.6
 (Enter /sw/apps/gaussian-16.0/g16/l801.exe)
 DoSCS=F DFT=T ScalE2(SS,OS)=  1.000000  1.000000
 ExpMin= 3.36D-02 ExpMax= 4.95D+03 ExpMxC= 7.45D+02 IAcc=3 IRadAn=         5 AccDes= 0.00D+00
 HarFok:  IExCor=  205 AccDes= 0.00D+00 IRadAn=         5 IDoV=-2 UseB2=F ITyADJ=14
 ICtDFT= 12500011 ScaDFX=  1.000000  1.000000  1.000000  1.000000
 GSVD:  LWork=       -9588 too small for GESVD, short by       45590 words or       45590 for optimal perf.
 Largest valence mixing into a core orbital is  2.03D-04
 Largest core mixing into a valence orbital is  5.24D-05
 Range of M.O.s used for correlation:    95  1572
 NBasis=  1572 NAE=   312 NBE=   312 NFC=    94 NFV=     0
 NROrb=   1478 NOA=   218 NOB=   218 NVA=  1260 NVB=  1260
 Leave Link  801 at Sun Sep 12 06:55:10 2021, MaxMem= 23488102400 cpu:               7.9 elap:               0.4
 (Enter /sw/apps/gaussian-16.0/g16/l914.exe)
 RHF ground state
 Two-electron integrals replicated using symmetry.
 MDV= 23488102400 DFT=T DoStab=F Mixed=T DoRPA=T DoScal=F NonHer=T
 Making orbital integer symmetry assigments:
 Orbital symmetries:
       Occupied  (A) (A) (A) (A) (A) (A) (A) (A) (A) (A) (A) (A)
                 (A) (A) (A) (A) (A) (A) (A) (A) (A) (A) (A) (A)
                 (A) (A) (A) (A) (A) (A) (A) (A) (A) (A) (A) (A)
                 (A) (A) (A) (A) (A) (A) (A) (A) (A) (A) (A) (A)
                 (A) (A) (A) (A) (A) (A) (A) (A) (A) (A) (A) (A)
                 (A) (A) (A) (A) (A) (A) (A) (A) (A) (A) (A) (A)
                 (A) (A) (A) (A) (A) (A) (A) (A) (A) (A) (A) (A)
                 (A) (A) (A) (A) (A) (A) (A) (A) (A) (A) (A) (A)
                 (A) (A) (A) (A) (A) (A) (A) (A) (A) (A) (A) (A)
                 (A) (A) (A) (A) (A) (A) (A) (A) (A) (A) (A) (A)
                 (A) (A) (A) (A) (A) (A) (A) (A) (A) (A) (A) (A)
                 (A) (A) (A) (A) (A) (A) (A) (A) (A) (A) (A) (A)
                 (A) (A) (A) (A) (A) (A) (A) (A) (A) (A) (A) (A)
                 (A) (A) (A) (A) (A) (A) (A) (A) (A) (A) (A) (A)
                 (A) (A) (A) (A) (A) (A) (A) (A) (A) (A) (A) (A)
                 (A) (A) (A) (A) (A) (A) (A) (A) (A) (A) (A) (A)
                 (A) (A) (A) (A) (A) (A) (A) (A) (A) (A) (A) (A)
                 (A) (A) (A) (A) (A) (A) (A) (A) (A) (A) (A) (A)
                 (A) (A) (A) (A) (A) (A) (A) (A) (A) (A) (A) (A)
                 (A) (A) (A) (A) (A) (A) (A) (A) (A) (A) (A) (A)
                 (A) (A) (A) (A) (A) (A) (A) (A) (A) (A) (A) (A)
                 (A) (A) (A) (A) (A) (A) (A) (A) (A) (A) (A) (A)
                 (A) (A) (A) (A) (A) (A) (A) (A) (A) (A) (A) (A)
                 (A) (A) (A) (A) (A) (A) (A) (A) (A) (A) (A) (A)
                 (A) (A) (A) (A) (A) (A) (A) (A) (A) (A) (A) (A)
                 (A) (A) (A) (A) (A) (A) (A) (A) (A) (A) (A) (A)
       Virtual   (A) (A) (A) (A) (A) (A) (A) (A) (A) (A) (A) (A)
                 (A) (A) (A) (A) (A) (A) (A) (A) (A) (A) (A) (A)
                 (A) (A) (A) (A) (A) (A) (A) (A) (A) (A) (A) (A)
                 (A) (A) (A) (A) (A) (A) (A) (A) (A) (A) (A) (A)
                 (A) (A) (A) (A) (A) (A) (A) (A) (A) (A) (A) (A)
                 (A) (A) (A) (A) (A) (A) (A) (A) (A) (A) (A) (A)
                 (A) (A) (A) (A) (A) (A) (A) (A) (A) (A) (A) (A)
                 (A) (A) (A) (A) (A) (A) (A) (A) (A) (A) (A) (A)
                 (A) (A) (A) (A) (A) (A) (A) (A) (A) (A) (A) (A)
                 (A) (A) (A) (A) (A) (A) (A) (A) (A) (A) (A) (A)
                 (A) (A) (A) (A) (A) (A) (A) (A) (A) (A) (A) (A)
                 (A) (A) (A) (A) (A) (A) (A) (A) (A) (A) (A) (A)
                 (A) (A) (A) (A) (A) (A) (A) (A) (A) (A) (A) (A)
                 (A) (A) (A) (A) (A) (A) (A) (A) (A) (A) (A) (A)
                 (A) (A) (A) (A) (A) (A) (A) (A) (A) (A) (A) (A)
                 (A) (A) (A) (A) (A) (A) (A) (A) (A) (A) (A) (A)
                 (A) (A) (A) (A) (A) (A) (A) (A) (A) (A) (A) (A)
                 (A) (A) (A) (A) (A) (A) (A) (A) (A) (A) (A) (A)
                 (A) (A) (A) (A) (A) (A) (A) (A) (A) (A) (A) (A)
                 (A) (A) (A) (A) (A) (A) (A) (A) (A) (A) (A) (A)
                 (A) (A) (A) (A) (A) (A) (A) (A) (A) (A) (A) (A)
                 (A) (A) (A) (A) (A) (A) (A) (A) (A) (A) (A) (A)
                 (A) (A) (A) (A) (A) (A) (A) (A) (A) (A) (A) (A)
                 (A) (A) (A) (A) (A) (A) (A) (A) (A) (A) (A) (A)
                 (A) (A) (A) (A) (A) (A) (A) (A) (A) (A) (A) (A)
                 (A) (A) (A) (A) (A) (A) (A) (A) (A) (A) (A) (A)
                 (A) (A) (A) (A) (A) (A) (A) (A) (A) (A) (A) (A)
                 (A) (A) (A) (A) (A) (A) (A) (A) (A) (A) (A) (A)
                 (A) (A) (A) (A) (A) (A) (A) (A) (A) (A) (A) (A)
                 (A) (A) (A) (A) (A) (A) (A) (A) (A) (A) (A) (A)
                 (A) (A) (A) (A) (A) (A) (A) (A) (A) (A) (A) (A)
                 (A) (A) (A) (A) (A) (A) (A) (A) (A) (A) (A) (A)
                 (A) (A) (A) (A) (A) (A) (A) (A) (A) (A) (A) (A)
                 (A) (A) (A) (A) (A) (A) (A) (A) (A) (A) (A) (A)
                 (A) (A) (A) (A) (A) (A) (A) (A) (A) (A) (A) (A)
                 (A) (A) (A) (A) (A) (A) (A) (A) (A) (A) (A) (A)
                 (A) (A) (A) (A) (A) (A) (A) (A) (A) (A) (A) (A)
                 (A) (A) (A) (A) (A) (A) (A) (A) (A) (A) (A) (A)
                 (A) (A) (A) (A) (A) (A) (A) (A) (A) (A) (A) (A)
                 (A) (A) (A) (A) (A) (A) (A) (A) (A) (A) (A) (A)
                 (A) (A) (A) (A) (A) (A) (A) (A) (A) (A) (A) (A)
                 (A) (A) (A) (A) (A) (A) (A) (A) (A) (A) (A) (A)
                 (A) (A) (A) (A) (A) (A) (A) (A) (A) (A) (A) (A)
                 (A) (A) (A) (A) (A) (A) (A) (A) (A) (A) (A) (A)
                 (A) (A) (A) (A) (A) (A) (A) (A) (A) (A) (A) (A)
                 (A) (A) (A) (A) (A) (A) (A) (A) (A) (A) (A) (A)
                 (A) (A) (A) (A) (A) (A) (A) (A) (A) (A) (A) (A)
                 (A) (A) (A) (A) (A) (A) (A) (A) (A) (A) (A) (A)
                 (A) (A) (A) (A) (A) (A) (A) (A) (A) (A) (A) (A)
                 (A) (A) (A) (A) (A) (A) (A) (A) (A) (A) (A) (A)
                 (A) (A) (A) (A) (A) (A) (A) (A) (A) (A) (A) (A)
                 (A) (A) (A) (A) (A) (A) (A) (A) (A) (A) (A) (A)
                 (A) (A) (A) (A) (A) (A) (A) (A) (A) (A) (A) (A)
                 (A) (A) (A) (A) (A) (A) (A) (A) (A) (A) (A) (A)
                 (A) (A) (A) (A) (A) (A) (A) (A) (A) (A) (A) (A)
                 (A) (A) (A) (A) (A) (A) (A) (A) (A) (A) (A) (A)
                 (A) (A) (A) (A) (A) (A) (A) (A) (A) (A) (A) (A)
                 (A) (A) (A) (A) (A) (A) (A) (A) (A) (A) (A) (A)
                 (A) (A) (A) (A) (A) (A) (A) (A) (A) (A) (A) (A)
                 (A) (A) (A) (A) (A) (A) (A) (A) (A) (A) (A) (A)
                 (A) (A) (A) (A) (A) (A) (A) (A) (A) (A) (A) (A)
                 (A) (A) (A) (A) (A) (A) (A) (A) (A) (A) (A) (A)
                 (A) (A) (A) (A) (A) (A) (A) (A) (A) (A) (A) (A)
                 (A) (A) (A) (A) (A) (A) (A) (A) (A) (A) (A) (A)
                 (A) (A) (A) (A) (A) (A) (A) (A) (A) (A) (A) (A)
                 (A) (A) (A) (A) (A) (A) (A) (A) (A) (A) (A) (A)
                 (A) (A) (A) (A) (A) (A) (A) (A) (A) (A) (A) (A)
                 (A) (A) (A) (A) (A) (A) (A) (A) (A) (A) (A) (A)
                 (A) (A) (A) (A) (A) (A) (A) (A) (A) (A) (A) (A)
                 (A) (A) (A) (A) (A) (A) (A) (A) (A) (A) (A) (A)
                 (A) (A) (A) (A) (A) (A) (A) (A) (A) (A) (A) (A)
                 (A) (A) (A) (A) (A) (A) (A) (A) (A) (A) (A) (A)
                 (A) (A) (A) (A) (A) (A) (A) (A) (A) (A) (A) (A)
                 (A) (A) (A) (A) (A) (A) (A) (A) (A) (A) (A) (A)
                 (A) (A) (A) (A) (A) (A) (A) (A) (A) (A) (A) (A)
                 (A) (A) (A) (A) (A) (A) (A) (A) (A) (A) (A) (A)
                 (A) (A) (A) (A) (A) (A) (A) (A) (A) (A) (A) (A)
                 (A) (A) (A) (A) (A) (A) (A) (A) (A) (A) (A) (A)
                 (A) (A) (A) (A) (A) (A) (A) (A) (A) (A) (A) (A)
                 (A) (A) (A) (A) (A) (A) (A) (A) (A) (A) (A) (A)
                 (A) (A) (A) (A) (A) (A) (A) (A) (A) (A) (A) (A)
                 (A) (A) (A) (A) (A) (A) (A) (A) (A) (A) (A) (A)
                 (A) (A) (A) (A) (A) (A) (A) (A) (A) (A) (A) (A)
                 (A) (A) (A) (A) (A) (A) (A) (A) (A) (A) (A) (A)
                 (A) (A) (A) (A) (A) (A) (A) (A) (A) (A) (A) (A)
                 (A) (A) (A) (A) (A) (A) (A) (A) (A) (A) (A) (A)
                 (A) (A) (A) (A) (A) (A) (A) (A) (A) (A) (A) (A)
                 (A) (A) (A) (A) (A) (A) (A) (A) (A) (A) (A) (A)
                 (A) (A) (A) (A) (A) (A) (A) (A) (A) (A) (A) (A)
                 (A) (A) (A) (A) (A) (A) (A) (A) (A) (A) (A) (A)
                 (A) (A) (A) (A) (A) (A) (A) (A) (A) (A) (A) (A)
                 (A) (A) (A) (A) (A) (A) (A) (A) (A) (A) (A) (A)
                 (A) (A) (A) (A) (A) (A) (A) (A) (A) (A) (A) (A)
                 (A) (A) (A) (A) (A) (A) (A) (A) (A) (A) (A) (A)
                 (A) (A) (A) (A) (A) (A) (A) (A) (A) (A) (A) (A)
                 (A) (A) (A) (A) (A) (A) (A) (A) (A) (A) (A) (A)
                 (A) (A) (A) (A) (A) (A) (A) (A) (A) (A) (A) (A)
                 (A) (A) (A) (A) (A) (A) (A) (A) (A) (A) (A) (A)
                 (A) (A) (A) (A) (A) (A) (A) (A) (A) (A) (A) (A)
                 (A) (A) (A) (A) (A) (A) (A) (A) (A) (A) (A) (A)
                 (A) (A) (A) (A) (A) (A) (A) (A) (A) (A) (A) (A)
                 (A) (A) (A) (A) (A) (A) (A) (A) (A) (A) (A) (A)
                 (A) (A) (A) (A) (A) (A) (A) (A) (A) (A) (A) (A)
                 (A) (A) (A) (A) (A) (A) (A) (A) (A) (A) (A) (A)
                 (A) (A) (A) (A) (A) (A) (A) (A) (A) (A) (A) (A)
    20 initial guesses have been made.
 Convergence on wavefunction:    0.001000000000000
 Davidson Disk Diagonalization:  ConvIn= 1.00D-03 SkipCon=T Conv= 1.00D-03.
 Max sub-space:  2000 roots to seek:    20 dimension of matrix:       549360
 Iteration     1 Dimension    20 NMult     0 NNew     20
 CISAX will form    20 AO SS matrices at one time.
 NMat=    20 NSing=    20 JSym2X= 0.
 FoFJK:  IHMeth= 1 ICntrl=       0 DoSepK=T KAlg= 0 I1Cent=           0 FoldK=F
 IRaf=         1 NMat=      40 IRICut=       1 DoRegI=T DoRafI=F ISym2E= 0 IDoP0=3 IntGTp=3.
 FoFCou: FMM=T IPFlag=           0 FMFlag=      100000 FMFlg1=        2001
         NFxFlg=           0 DoJE=F BraDBF=F KetDBF=F FulRan=T
         wScrn=  0.000000 ICntrl=       500 IOpCl=  0 I1Cent=           0 NGrid=           0
         NMat0=   20 NMatS0=     20 NMatT0=    0 NMatD0=   20 NMtDS0=    0 NMtDT0=    0
 Symmetry not used in FoFCou.
 FMM levels:  10  Number of levels for PrismC:   9
 New state      1 was old state      7
 New state      2 was old state      6
 New state      3 was old state      2
 New state      4 was old state      3
 New state      5 was old state      1
 Excitation Energies [eV] at current iteration:
 Root      1 :     2.613049525468128
 Root      2 :     2.619889236540763
 Root      3 :     2.674034731220273
 Root      4 :     2.696356780149906
 Root      5 :     2.739124690406056
 Root      6 :     2.829220854910381
 Root      7 :     3.542209725450788
 Root      8 :     3.629602067948802
 Root      9 :     3.631062202801343
 Root     10 :     3.669359249787369
 Root     11 :     3.735599351079582
 Root     12 :     3.759995074859149
 Root     13 :     4.292436581068834
 Root     14 :     4.318144595140072
 Root     15 :     4.647745765212778
 Root     16 :     4.755960865585000
 Root     17 :     4.864501477282755
 Root     18 :     5.042854448326811
 Root     19 :     5.057248398333053
 Root     20 :     5.088090516457742
 Iteration     2 Dimension    30 NMult    20 NNew     10
 CISAX will form    10 AO SS matrices at one time.
 NMat=    10 NSing=    10 JSym2X= 0.
 New state      1 was old state      3
 Root      1 not converged, maximum delta is    0.159942485591842
 New state      2 was old state      4
 Root      2 not converged, maximum delta is    0.163245278612533
 New state      3 was old state      2
 Root      3 not converged, maximum delta is    0.417039609837196
 New state      4 was old state      1
 Root      4 not converged, maximum delta is    0.410493496211918
 Root      5 not converged, maximum delta is    0.006977725803812
 Excitation Energies [eV] at current iteration:
 Root      1 :     1.797301434059812   Change is   -0.876733297160461
 Root      2 :     1.810608299019906   Change is   -0.885748481130000
 Root      3 :     2.234908853600683   Change is   -0.384980382940079
 Root      4 :     2.239810720928661   Change is   -0.373238804539468
 Root      5 :     2.738436465009311   Change is   -0.000688225396745
 Iteration     3 Dimension    40 NMult    30 NNew     10
 CISAX will form    10 AO SS matrices at one time.
 NMat=    10 NSing=    10 JSym2X= 0.
 Root      1 not converged, maximum delta is    0.057596919250433
 Root      2 not converged, maximum delta is    0.058733701015206
 Root      3 not converged, maximum delta is    0.103494563490320
 Root      4 not converged, maximum delta is    0.103023717685760
 Root      5 has converged.
 Excitation Energies [eV] at current iteration:
 Root      1 :     1.690357334499523   Change is   -0.106944099560288
 Root      2 :     1.702045233914242   Change is   -0.108563065105665
 Root      3 :     2.193780652523000   Change is   -0.041128201077683
 Root      4 :     2.200826247004338   Change is   -0.038984473924323
 Root      5 :     2.738435254720656   Change is   -0.000001210288656
 Iteration     4 Dimension    48 NMult    40 NNew      8
 CISAX will form     8 AO SS matrices at one time.
 NMat=     8 NSing=     8 JSym2X= 0.
 Root      1 not converged, maximum delta is    0.011115000283846
 Root      2 not converged, maximum delta is    0.011093144441976
 Root      3 not converged, maximum delta is    0.013453878885801
 Root      4 not converged, maximum delta is    0.013329594619277
 Root      5 has converged.
 Excitation Energies [eV] at current iteration:
 Root      1 :     1.673605345276310   Change is   -0.016751989223213
 Root      2 :     1.685202194016159   Change is   -0.016843039898083
 Root      3 :     2.186521646486467   Change is   -0.007259006036533
 Root      4 :     2.194036257266915   Change is   -0.006789989737423
 Root      5 :     2.738435254720506   Change is   -0.000000000000150
 Iteration     5 Dimension    56 NMult    48 NNew      8
 CISAX will form     8 AO SS matrices at one time.
 NMat=     8 NSing=     8 JSym2X= 0.
 Root      1 not converged, maximum delta is    0.001826682668437
 Root      2 not converged, maximum delta is    0.001855394090912
 Root      3 not converged, maximum delta is    0.002454023252665
 Root      4 not converged, maximum delta is    0.002312219956082
 Root      5 has converged.
 Excitation Energies [eV] at current iteration:
 Root      1 :     1.671835441390737   Change is   -0.001769903885573
 Root      2 :     1.683420463013238   Change is   -0.001781731002921
 Root      3 :     2.185678375548931   Change is   -0.000843270937536
 Root      4 :     2.193262720908828   Change is   -0.000773536358087
 Root      5 :     2.738435254720295   Change is   -0.000000000000210
 Iteration     6 Dimension    64 NMult    56 NNew      8
 CISAX will form     8 AO SS matrices at one time.
 NMat=     8 NSing=     8 JSym2X= 0.
 Root      1 not converged, maximum delta is    0.001139480733874
 Root      2 not converged, maximum delta is    0.001145833023064
 Root      3 not converged, maximum delta is    0.001041248369550
 Root      4 has converged.
 Root      5 has converged.
 Excitation Energies [eV] at current iteration:
 Root      1 :     1.671583883278507   Change is   -0.000251558112230
 Root      2 :     1.683164056523901   Change is   -0.000256406489336
 Root      3 :     2.185550770029216   Change is   -0.000127605519715
 Root      4 :     2.193144619605724   Change is   -0.000118101303104
 Root      5 :     2.738435254720385   Change is    0.000000000000090
 Iteration     7 Dimension    70 NMult    64 NNew      6
 CISAX will form     6 AO SS matrices at one time.
 NMat=     6 NSing=     6 JSym2X= 0.
 Root      1 has converged.
 Root      2 has converged.
 Root      3 has converged.
 Root      4 has converged.
 Root      5 has converged.
 Excitation Energies [eV] at current iteration:
 Root      1 :     1.671559499970910   Change is   -0.000024383307597
[...]
 Alpha virt. eigenvalues --    1.84388   1.84544   1.84742   1.84815   1.85045
 Alpha virt. eigenvalues --    1.85140   1.85209   1.85364   1.85422   1.85509
 Alpha virt. eigenvalues --    1.85803   1.85924   1.86302   1.86405   1.86495
 Alpha virt. eigenvalues --    1.86672   1.86723   1.86844   1.86976   1.87056
 Alpha virt. eigenvalues --    1.87377   1.87502   1.87609   1.87787   1.87806
 Alpha virt. eigenvalues --    1.87975   1.88035   1.88199   1.88467   1.88598
 Alpha virt. eigenvalues --    1.88747   1.88970   1.89076   1.89094   1.89563
 Alpha virt. eigenvalues --    1.89680   1.89682   1.89895   1.90051   1.90212
 Alpha virt. eigenvalues --    1.90683   1.90916   1.91279   1.91384   1.91446
 Alpha virt. eigenvalues --    1.91622   1.92087   1.92206   1.92536   1.92677
 Alpha virt. eigenvalues --    1.92920   1.93173   1.93285   1.93522   1.94227
 Alpha virt. eigenvalues --    1.94324   1.94630   1.94836   1.95432   1.95611
 Alpha virt. eigenvalues --    1.95652   1.95832   1.95916   1.96070   1.96100
 Alpha virt. eigenvalues --    1.96191   1.96501   1.96533   1.96830   1.96960
 Alpha virt. eigenvalues --    1.97388   1.97555   1.97777   1.97818   1.98094
 Alpha virt. eigenvalues --    1.98190   1.98363   1.98588   1.99062   1.99095
 Alpha virt. eigenvalues --    1.99738   1.99955   2.00599   2.00744   2.00920
 Alpha virt. eigenvalues --    2.01115   2.01387   2.01525   2.01618   2.01622
 Alpha virt. eigenvalues --    2.01640   2.01841   2.02714   2.02728   2.03159
 Alpha virt. eigenvalues --    2.03179   2.03327   2.03397   2.03401   2.03537
 Alpha virt. eigenvalues --    2.03965   2.04043   2.04893   2.04996   2.05450
 Alpha virt. eigenvalues --    2.05648   2.06012   2.06301   2.06817   2.07047
 Alpha virt. eigenvalues --    2.07118   2.07365   2.08530   2.08568   2.08907
 Alpha virt. eigenvalues --    2.09021   2.09508   2.09628   2.10735   2.11049
 Alpha virt. eigenvalues --    2.11114   2.11425   2.11449   2.11545   2.11654
 Alpha virt. eigenvalues --    2.11888   2.12388   2.12482   2.12737   2.12768
 Alpha virt. eigenvalues --    2.12821   2.12890   2.13653   2.13671   2.14091
 Alpha virt. eigenvalues --    2.14272   2.15268   2.15423   2.15852   2.16104
 Alpha virt. eigenvalues --    2.16464   2.16612   2.16685   2.17189   2.17351
 Alpha virt. eigenvalues --    2.17642   2.17667   2.17959   2.18017   2.18019
 Alpha virt. eigenvalues --    2.18243   2.18687   2.18783   2.19251   2.19563
 Alpha virt. eigenvalues --    2.19836   2.19956   2.20142   2.20257   2.20455
 Alpha virt. eigenvalues --    2.21107   2.21187   2.21602   2.21667   2.21779
 Alpha virt. eigenvalues --    2.21887   2.22612   2.22722   2.23255   2.23356
 Alpha virt. eigenvalues --    2.24331   2.24431   2.24917   2.25018   2.26216
 Alpha virt. eigenvalues --    2.26456   2.26715   2.27022   2.27023   2.27218
 Alpha virt. eigenvalues --    2.28062   2.28338   2.29201   2.29458   2.29655
 Alpha virt. eigenvalues --    2.29897   2.30370   2.30636   2.30833   2.31006
 Alpha virt. eigenvalues --    2.31097   2.31215   2.32061   2.32256   2.33054
 Alpha virt. eigenvalues --    2.33250   2.33390   2.33495   2.34081   2.34154
 Alpha virt. eigenvalues --    2.35284   2.35307   2.35716   2.35930   2.36304
 Alpha virt. eigenvalues --    2.36349   2.36459   2.36549   2.37607   2.37688
 Alpha virt. eigenvalues --    2.38196   2.38394   2.38764   2.38796   2.39536
 Alpha virt. eigenvalues --    2.39681   2.40123   2.40276   2.40400   2.40840
 Alpha virt. eigenvalues --    2.41178   2.41221   2.41629   2.41701   2.41953
 Alpha virt. eigenvalues --    2.42136   2.42831   2.42893   2.43062   2.43432
 Alpha virt. eigenvalues --    2.43987   2.44088   2.44655   2.44816   2.44829
 Alpha virt. eigenvalues --    2.45002   2.45481   2.45581   2.46233   2.46296
 Alpha virt. eigenvalues --    2.46403   2.46505   2.46719   2.46807   2.47190
 Alpha virt. eigenvalues --    2.47384   2.47645   2.47896   2.49252   2.49401
 Alpha virt. eigenvalues --    2.49896   2.50015   2.50462   2.50494   2.51033
 Alpha virt. eigenvalues --    2.51274   2.51617   2.51801   2.52347   2.52395
 Alpha virt. eigenvalues --    2.52730   2.53176   2.53852   2.53977   2.54088
 Alpha virt. eigenvalues --    2.54288   2.54723   2.54811   2.55452   2.55672
 Alpha virt. eigenvalues --    2.57793   2.58086   2.58580   2.58913   2.60117
 Alpha virt. eigenvalues --    2.60303   2.60524   2.60931   2.61641   2.61828
 Alpha virt. eigenvalues --    2.62432   2.62450   2.62881   2.63128   2.63855
 Alpha virt. eigenvalues --    2.64199   2.64228   2.64426   2.65009   2.65101
 Alpha virt. eigenvalues --    2.65696   2.65862   2.66718   2.66819   2.66838
 Alpha virt. eigenvalues --    2.67066   2.67842   2.67984   2.68780   2.68817
 Alpha virt. eigenvalues --    2.68939   2.69027   2.69329   2.69594   2.69927
 Alpha virt. eigenvalues --    2.70136   2.70907   2.71067   2.71887   2.71973
 Alpha virt. eigenvalues --    2.72483   2.72570   2.72730   2.72731   2.73224
 Alpha virt. eigenvalues --    2.73282   2.73430   2.73454   2.74437   2.74502
 Alpha virt. eigenvalues --    2.74896   2.75050   2.76516   2.76527   2.77060
 Alpha virt. eigenvalues --    2.77151   2.77381   2.77602   2.78124   2.78292
 Alpha virt. eigenvalues --    2.78648   2.78683   2.79059   2.79150   2.80257
 Alpha virt. eigenvalues --    2.80269   2.80495   2.80677   2.81038   2.81142
 Alpha virt. eigenvalues --    2.81852   2.81980   2.82274   2.82328   2.83668
 Alpha virt. eigenvalues --    2.83693   2.83839   2.83892   2.84477   2.84518
 Alpha virt. eigenvalues --    2.84823   2.84876   2.85599   2.85681   2.86643
 Alpha virt. eigenvalues --    2.86923   2.87155   2.87512   2.88082   2.88228
 Alpha virt. eigenvalues --    2.88440   2.88605   2.88860   2.88863   2.90417
 Alpha virt. eigenvalues --    2.90649   2.91059   2.91133   2.93070   2.93315
 Alpha virt. eigenvalues --    2.93760   2.94126   2.94499   2.94561   2.95271
 Alpha virt. eigenvalues --    2.95465   2.95816   2.96105   2.96358   2.96376
 Alpha virt. eigenvalues --    2.96850   2.97082   2.97719   2.98018   2.98127
 Alpha virt. eigenvalues --    2.98301   2.98344   2.98528   2.98565   2.98768
 Alpha virt. eigenvalues --    2.98815   2.98910   2.99528   2.99782   2.99940
 Alpha virt. eigenvalues --    2.99998   3.00138   3.00322   3.00377   3.00986
 Alpha virt. eigenvalues --    3.01892   3.01935   3.01955   3.02108   3.02636
 Alpha virt. eigenvalues --    3.02802   3.02891   3.03257   3.03311   3.03707
 Alpha virt. eigenvalues --    3.04042   3.04115   3.04381   3.04414   3.04488
 Alpha virt. eigenvalues --    3.04709   3.05244   3.05341   3.06040   3.06153
 Alpha virt. eigenvalues --    3.06711   3.06930   3.07909   3.08082   3.09309
 Alpha virt. eigenvalues --    3.09344   3.09609   3.10359   3.10415   3.10730
 Alpha virt. eigenvalues --    3.11285   3.11467   3.11847   3.11878   3.12142
 Alpha virt. eigenvalues --    3.12291   3.13191   3.13583   3.13634   3.13674
 Alpha virt. eigenvalues --    3.13992   3.14450   3.15881   3.15966   3.17191
 Alpha virt. eigenvalues --    3.17504   3.17864   3.18019   3.19018   3.19061
 Alpha virt. eigenvalues --    3.22205   3.22574   3.23871   3.24424   3.24593
 Alpha virt. eigenvalues --    3.25174   3.26431   3.26643   3.27381   3.27545
 Alpha virt. eigenvalues --    3.28997   3.29196   3.31365   3.31450   3.33173
 Alpha virt. eigenvalues --    3.33346   3.40231   3.40522   3.42750   3.42804
 Alpha virt. eigenvalues --    3.48584   3.48681   3.49948   3.50271   3.50825
 Alpha virt. eigenvalues --    3.51402   3.56482   3.56992   3.59035   3.59328
 Alpha virt. eigenvalues --    3.62500   3.62763   3.66101   3.66126   3.67082
 Alpha virt. eigenvalues --    3.67516   3.73174   3.73996   3.75966   3.76656
          Condensed to atoms (all electrons):
 Mulliken charges:
               1
     1  Mg   0.838257
     2  C   -0.003241
     3  C   -0.094503
     4  C   -0.045662
     5  C   -0.063743
     6  N   -0.256795
     7  C   -0.052634
     8  C   -0.013945
     9  C   -0.086919
    10  C    0.046161
    11  C    0.104771
    12  C    0.053580
    13  C   -0.071578
    14  H    0.035348
    15  N   -0.433160
    16  C    0.168244
    17  C   -0.177393
    18  C   -0.004008
    19  C    0.148603
    20  C    0.110202
    21  C    0.012227
    22  O   -0.249110
    23  C    0.062581
    24  N   -0.341140
    25  C    0.041227
    26  C   -0.028258
    27  C   -0.024053
    28  C    0.074887
    29  C    0.076081
    30  C    0.035041
    31  C   -0.004554
    32  N   -0.310480
    33  C    0.080389
    34  C   -0.169586
    35  C    0.008370
    36  C    0.082902
    37  C    0.127303
    38  C    0.046075
    39  O   -0.188354
    40  C   -0.005317
    41  C    0.212940
    42  O   -0.257633
    43  O   -0.304607
    44  C    0.157758
    45  H   -0.017574
    46  H   -0.016474
    47  H   -0.041195
    48  H    0.001073
    49  H   -0.004271
    50  H    0.025593
    51  H    0.016649
    52  H    0.016748
    53  H    0.010663
    54  H    0.043694
    55  H    0.018304
    56  H    0.017824
    57  H    0.005779
    58  H    0.027114
    59  H    0.039008
    60  H    0.037455
    61  H    0.036049
    62  H    0.030829
    63  H    0.016929
    64  H    0.009617
    65  H    0.023542
    66  H    0.012502
    67  H    0.004902
    68  H    0.006756
    69  H    0.004785
    70  H    0.009226
    71  H    0.018545
    72  H    0.028471
    73  H    0.047596
    74  H    0.009341
    75  H    0.046183
    76  H    0.035322
    77  H    0.043219
    78  H    0.046255
    79  H    0.053269
    80  Mg   0.837956
    81  C   -0.016845
    82  C   -0.087697
    83  C   -0.045402
    84  C   -0.064845
    85  N   -0.254613
    86  C   -0.049746
    87  C   -0.015131
    88  C   -0.090488
    89  C    0.045724
    90  C    0.114234
    91  C    0.062576
    92  C   -0.077733
    93  H    0.034504
    94  N   -0.423561
    95  C    0.162896
    96  C   -0.174259
    97  C   -0.007763
    98  C    0.152204
    99  C    0.099220
   100  C    0.015683
   101  O   -0.253088
   102  C    0.061180
   103  N   -0.350034
   104  C    0.037631
   105  C   -0.019891
   106  C   -0.034787
   107  C    0.088908
   108  C    0.073580
   109  C    0.034763
   110  C   -0.007642
   111  N   -0.324107
   112  C    0.078429
   113  C   -0.163199
   114  C    0.002246
   115  C    0.096144
   116  C    0.131495
   117  C    0.042327
   118  O   -0.188051
   119  C    0.000914
   120  C    0.211212
   121  O   -0.251152
   122  O   -0.305545
   123  C    0.152095
   124  H   -0.019150
   125  H   -0.015535
   126  H   -0.040577
   127  H   -0.000590
   128  H   -0.004558
   129  H    0.022506
   130  H    0.015117
   131  H    0.016726
   132  H    0.013741
   133  H    0.037551
   134  H    0.020920
   135  H    0.019414
   136  H    0.008849
   137  H    0.026653
   138  H    0.039174
   139  H    0.038420
   140  H    0.036412
   141  H    0.033452
   142  H    0.014276
   143  H    0.012452
   144  H    0.025014
   145  H    0.012047
   146  H    0.005683
   147  H    0.006165
   148  H    0.003565
   149  H    0.010880
   150  H    0.017761
   151  H    0.030121
   152  H    0.045838
   153  H    0.008404
   154  H    0.047020
   155  H    0.035186
   156  H    0.043839
   157  H    0.049441
   158  H    0.053443
 Sum of Mulliken charges =  -0.00000
 Mulliken charges with hydrogens summed into heavy atoms:
               1
     1  Mg   0.838257
     2  C   -0.003241
     3  C   -0.112077
     4  C   -0.062137
     5  C   -0.104938
     6  N   -0.256795
     7  C   -0.052634
     8  C   -0.012871
     9  C   -0.091191
    10  C    0.046161
    11  C    0.163761
    12  C    0.107936
    13  C   -0.000102
    15  N   -0.433160
    16  C    0.168244
    17  C   -0.177393
    18  C   -0.004008
    19  C    0.148603
    20  C    0.182103
    21  C    0.012227
    22  O   -0.249110
    23  C    0.166914
    24  N   -0.341140
    25  C    0.041227
    26  C   -0.011330
    27  C   -0.014436
    28  C    0.074887
    29  C    0.117027
    30  C    0.046582
    31  C    0.051688
    32  N   -0.310480
    33  C    0.080389
    34  C   -0.169586
    35  C    0.008370
    36  C    0.082902
    37  C    0.230424
    38  C    0.046075
    39  O   -0.188354
    40  C    0.030005
    41  C    0.212940
    42  O   -0.257633
    43  O   -0.304607
    44  C    0.300501
    80  Mg   0.837956
    81  C   -0.016845
    82  C   -0.106847
    83  C   -0.060938
    84  C   -0.105422
    85  N   -0.254613
    86  C   -0.049746
    87  C   -0.015722
    88  C   -0.095046
    89  C    0.045724
    90  C    0.168584
    91  C    0.113867
    92  C   -0.002895
    94  N   -0.423561
    95  C    0.162896
    96  C   -0.174259
    97  C   -0.007763
    98  C    0.152204
    99  C    0.173897
   100  C    0.015683
   101  O   -0.253088
   102  C    0.169464
   103  N   -0.350034
   104  C    0.037631
   105  C   -0.005615
   106  C   -0.022335
   107  C    0.088908
   108  C    0.116324
   109  C    0.044493
   110  C    0.051120
   111  N   -0.324107
   112  C    0.078429
   113  C   -0.163199
   114  C    0.002246
   115  C    0.096144
   116  C    0.232757
   117  C    0.042327
   118  O   -0.188051
   119  C    0.036100
   120  C    0.211212
   121  O   -0.251152
   122  O   -0.305545
   123  C    0.298818
 Electronic spatial extent (au):  <R**2>=         199744.3490
 Charge=             -0.0000 electrons
 Dipole moment (field-independent basis, Debye):
    X=              6.3194    Y=              1.3238    Z=              5.0582  Tot=              8.2020
 Quadrupole moment (field-independent basis, Debye-Ang):
   XX=           -561.4258   YY=           -502.0486   ZZ=           -488.4560
   XY=             15.7580   XZ=             29.0562   YZ=             57.4071
 Traceless Quadrupole moment (field-independent basis, Debye-Ang):
   XX=            -44.1157   YY=             15.2616   ZZ=             28.8541
   XY=             15.7580   XZ=             29.0562   YZ=             57.4071
 Octapole moment (field-independent basis, Debye-Ang**2):
  XXX=           1616.7591  YYY=            386.6866  ZZZ=            166.7326  XYY=           -233.6857
  XXY=           -202.1517  XXZ=            277.5842  XZZ=             62.9107  YZZ=           -140.5697
  YYZ=            -31.2994  XYZ=             72.2475
 Hexadecapole moment (field-independent basis, Debye-Ang**3):
 XXXX=        -231990.5102 YYYY=         -36559.3015 ZZZZ=         -18540.1908 XXXY=           4383.2627
 XXXZ=            862.5823 YYYX=            248.5477 YYYZ=           1171.2232 ZZZX=           1159.1682
 ZZZY=            156.2887 XXYY=         -40103.6752 XXZZ=         -37992.9526 YYZZ=          -9786.7516
 XXYZ=           4629.8333 YYXZ=           -264.3567 ZZXY=           -750.9221
 N-N= 1.376243071452D+04 E-N=-3.700556414772D+04  KE= 4.028802086575D+03
 Leave Link  601 at Sun Sep 12 07:16:24 2021, MaxMem= 23488102400 cpu:              16.9 elap:               0.8
 (Enter /sw/apps/gaussian-16.0/g16/l9999.exe)
 1\1\GINC-BP1-COMPUTE00091\SP\RCAM-B3LYP TD-FC\def2SVP\C68H72Mg2N8O8\OF
 15641\12-Sep-2021\0\\#p cam-b3lyp/Def2SVP td=(nstates=5)\\TDDFT excite
 d states in gaussian\\0,1\Mg,0,0.,0.,0.\C,0,-0.217,-2.218,2.801\C,0,-1
 .255,2.442,2.026\C,0,-0.245,1.85,-2.564\C,0,0.146,-2.824,-2.037\N,0,-0
 .617,-0.009,2.126\C,0,-0.594,-0.908,3.105\C,0,-0.936,-0.309,4.502\C,0,
 -1.773,0.964,4.032\C,0,-1.155,1.168,2.66\C,0,-3.263,0.685,3.863\C,0,0.
 345,0.11,5.299\C,0,0.124,0.397,6.787\H,0,1.168,0.033,7.733\N,0,-0.185,
 1.961,-0.152\C,0,-0.703,2.8,0.777\C,0,-0.62,4.156,0.193\C,0,-0.187,4.0
 15,-1.225\C,0,-0.214,2.583,-1.38\C,0,-0.887,5.406,0.974\C,0,0.181,5.01
 3,-2.277\O,0,0.303,4.69,-3.508\C,0,0.31,6.414,-1.837\N,0,-0.265,-0.413
 ,-2.029\C,0,-0.279,0.569,-2.937\C,0,-0.196,0.024,-4.332\C,0,0.124,-1.5
 33,-4.18\C,0,0.086,-1.632,-2.635\C,0,-1.451,0.205,-5.197\C,0,1.373,-2.
 07,-4.923\C,0,2.626,-1.49,-4.306\N,0,0.15,-2.144,0.303\C,0,0.173,-3.13
 6,-0.688\C,0,0.173,-4.438,0.004\C,0,0.133,-4.111,1.358\C,0,0.083,-2.69
 5,1.502\C,0,0.149,-5.715,-0.623\C,0,0.096,-4.629,2.716\O,0,0.208,-5.74
 7,3.221\C,0,-0.255,-3.428,3.701\C,0,0.717,-3.482,4.848\O,0,1.931,-3.25
 5,4.669\O,0,0.038,-3.556,6.003\C,0,0.943,-3.583,7.183\H,0,-1.859,3.22,
 2.497\H,0,-0.218,2.453,-3.474\H,0,0.276,-3.747,-2.605\H,0,-1.554,-0.94
 9,5.132\H,0,-1.585,1.831,4.665\H,0,-3.484,-0.377,3.969\H,0,-3.511,1.02
 7,2.858\H,0,-3.852,1.301,4.543\H,0,0.669,1.096,4.966\H,0,1.13,-0.639,5
 .189\H,0,-0.844,0.026,7.125\H,0,0.062,1.477,6.921\H,0,-1.344,5.186,1.9
 38\H,0,-1.651,5.963,0.432\H,0,0.007,6.02,1.084\H,0,-0.635,6.744,-1.405
 \H,0,0.665,6.97,-2.704\H,0,1.048,6.466,-1.036\H,0,0.608,0.501,-4.891\H
 ,0,-0.692,-2.156,-4.547\H,0,-1.267,0.74,-6.129\H,0,-2.204,0.714,-4.596
 \H,0,-1.967,-0.72,-5.453\H,0,1.356,-1.759,-5.967\H,0,1.452,-3.157,-4.9
 02\H,0,2.714,-0.522,-4.798\H,0,3.487,-2.121,-4.529\H,0,2.495,-1.303,-3
 .24\H,0,0.867,-6.333,-0.084\H,0,0.404,-5.642,-1.68\H,0,-0.891,-5.999,-
 0.463\H,0,-1.283,-3.581,4.028\H,0,0.698,-4.478,7.755\H,0,0.833,-2.619,
 7.68\H,0,2.,-3.754,6.976\Mg,0,15.76629,1.42811,1.2037\C,0,17.56315,0.2
 5753,4.08121\C,0,13.14093,2.06266,3.28683\C,0,14.00572,2.04101,-1.3638
 3\C,0,18.04643,-0.32779,-0.76187\N,0,15.50691,1.15395,3.3831\C,0,16.27
 98,0.75862,4.38346\C,0,15.6717,0.98365,5.79382\C,0,14.11858,1.00171,5.
 38595\C,0,14.25156,1.46878,3.9379\C,0,13.48019,-0.37735,5.38628\C,0,16
 .11571,2.34977,6.42516\C,0,15.81293,2.49692,7.91795\H,0,16.75998,3.232
 86,8.751\N,0,14.05447,2.41644,1.02636\C,0,13.1159,2.59579,1.97936\C,0,
 12.04027,3.37231,1.34361\C,0,12.34534,3.49529,-0.10778\C,0,13.49481,2.
 61881,-0.21071\C,0,10.90808,3.98058,2.11923\C,0,11.70048,4.26332,-1.22
 155\O,0,11.98725,4.03654,-2.45004\C,0,10.65558,5.22332,-0.83676\N,0,15
 .86137,0.76114,-0.76314\C,0,15.0071,1.22454,-1.69234\C,0,15.43809,0.81
 71,-3.08109\C,0,16.89743,0.18569,-2.91012\C,0,17.02645,0.25921,-1.3728
 \C,0,14.52993,-0.18602,-3.79199\C,0,18.03352,0.79415,-3.77715\C,0,18.3
 1794,2.21138,-3.33449\N,0,17.60013,0.33843,1.54671\C,0,18.38069,-0.341
 53,0.58626\C,0,19.46782,-1.02689,1.31487\C,0,19.229,-0.71448,2.66166\C
 ,0,18.0629,0.09089,2.76697\C,0,20.4695,-1.85232,0.73056\C,0,19.69212,-
 0.89166,4.01917\O,0,20.68168,-1.40539,4.53934\C,0,18.56194,-0.37497,5.
 01018\C,0,19.21476,0.50455,6.0411\O,0,19.73725,1.58391,5.71157\O,0,18.
 9253,0.03465,7.2682\C,0,19.5416,0.88027,8.32504\H,0,12.18452,2.0861,3.
 80991\H,0,13.49787,2.31258,-2.29217\H,0,18.85446,-0.81483,-1.31191\H,0
 ,15.86076,0.18629,6.50252\H,0,13.56467,1.73027,5.97225\H,0,14.20847,-1
 .15841,5.54657\H,0,13.01567,-0.48671,4.41504\H,0,12.6661,-0.41571,6.11
 575\H,0,15.48223,3.15184,6.02501\H,0,17.15821,2.53024,6.24839\H,0,15.5
 5689,1.53726,8.38317\H,0,14.90827,3.09931,8.03081\H,0,10.86009,3.58213
 ,3.14018\H,0,9.97911,3.6386,1.65025\H,0,10.92852,5.07242,2.10802\H,0,9
 .86218,4.70074,-0.3077\H,0,10.37772,5.73793,-1.75863\H,0,11.0844,5.942
 59,-0.13009\H,0,15.50226,1.67858,-3.73443\H,0,16.91338,-0.88147,-3.176
 13\H,0,14.15493,0.17918,-4.76672\H,0,13.70589,-0.42674,-3.13354\H,0,14
 .97399,-1.16335,-3.97316\H,0,17.72203,0.85225,-4.82298\H,0,18.95421,0.
 22109,-3.74671\H,0,17.55488,2.79226,-3.86118\H,0,19.31979,2.51248,-3.6
 3396\H,0,18.13981,2.33118,-2.25952\H,0,21.40712,-1.58223,1.19792\H,0,2
 0.51087,-1.72351,-0.34901\H,0,20.09639,-2.84067,1.01203\H,0,18.09297,-
 1.25195,5.45802\H,0,20.14988,0.21855,8.94938\H,0,18.70046,1.40411,8.81
 681\H,0,20.27697,1.61341,8.0149\\Version=ES64L-G16RevA.03\State=1-A\HF
 =-4069.8117773\RMSD=4.658e-09\PG=C01 [X(C68H72Mg2N8O8)]\\@


 MY DESCRIPTION OF EXPERIENCE IS NOT WHAT HAPPENS
 TO A MAN.  EXPERIENCE IS WHAT A MAN DOES WITH WHAT
 HAPPENS TO HIM.
                         - CHUCK KNOX, SEATTLE SEAHAWKS, 1985
 Job cpu time:       0 days 11 hours 49 minutes 43.8 seconds.
 Elapsed time:       0 days  0 hours 30 minutes  9.9 seconds.
 File lengths (MBytes):  RWF=  13225 Int=      0 D2E=      0 Chk=    574 Scr=      1
 Normal termination of Gaussian 16 at Sun Sep 12 07:16:25 2021.
