 Entering Gaussian System, Link 0=g16
 Initial command:
 /sw/apps/gaussian-16.0/g16/l1.exe "/tmp/Gau-121197.inp" -scrdir="/tmp/"
 Entering Link 1 = /sw/apps/gaussian-16.0/g16/l1.exe PID=    121198.
  
 Copyright (c) 1988,1990,1992,1993,1995,1998,2003,2009,2016,
            Gaussian, Inc.  All Rights Reserved.
  
 This is part of the Gaussian(R) 16 program.  It is based on
 the Gaussian(R) 09 system (copyright 2009, Gaussian, Inc.),
 the Gaussian(R) 03 system (copyright 2003, Gaussian, Inc.),
 the Gaussian(R) 98 system (copyright 1998, Gaussian, Inc.),
 the Gaussian(R) 94 system (copyright 1995, Gaussian, Inc.),
 the Gaussian 92(TM) system (copyright 1992, Gaussian, Inc.),
 the Gaussian 90(TM) system (copyright 1990, Gaussian, Inc.),
 the Gaussian 88(TM) system (copyright 1988, Gaussian, Inc.),
 the Gaussian 86(TM) system (copyright 1986, Carnegie Mellon
 University), and the Gaussian 82(TM) system (copyright 1983,
 Carnegie Mellon University). Gaussian is a federally registered
 trademark of Gaussian, Inc.
  
 This software contains proprietary and confidential information,
 including trade secrets, belonging to Gaussian, Inc.
  
 This software is provided under written license and may be
 used, copied, transmitted, or stored only in accord with that
 written license.
  
 The following legend is applicable only to US Government
 contracts under FAR:
  
                    RESTRICTED RIGHTS LEGEND
  
 Use, reproduction and disclosure by the US Government is
 subject to restrictions as set forth in subparagraphs (a)
 and (c) of the Commercial Computer Software - Restricted
 Rights clause in FAR 52.227-19.
  
 Gaussian, Inc.
 340 Quinnipiac St., Bldg. 40, Wallingford CT 06492
  
  
 ---------------------------------------------------------------
 Warning -- This program may not be used in any manner that
 competes with the business of Gaussian, Inc. or will provide
 assistance to any competitor of Gaussian, Inc.  The licensee
 of this program is prohibited from giving any competitor of
 Gaussian, Inc. access to this program.  By using this program,
 the user acknowledges that Gaussian, Inc. is engaged in the
 business of creating and licensing software in the field of
 computational chemistry and represents and warrants to the
 licensee that it is not a competitor of Gaussian, Inc. and that
 it will not use this program in any manner prohibited above.
 ---------------------------------------------------------------
  

 Cite this work as:
 Gaussian 16, Revision A.03,
 M. J. Frisch, G. W. Trucks, H. B. Schlegel, G. E. Scuseria, 
 M. A. Robb, J. R. Cheeseman, G. Scalmani, V. Barone, 
 G. A. Petersson, H. Nakatsuji, X. Li, M. Caricato, A. V. Marenich, 
 J. Bloino, B. G. Janesko, R. Gomperts, B. Mennucci, H. P. Hratchian, 
 J. V. Ortiz, A. F. Izmaylov, J. L. Sonnenberg, D. Williams-Young, 
 F. Ding, F. Lipparini, F. Egidi, J. Goings, B. Peng, A. Petrone, 
 T. Henderson, D. Ranasinghe, V. G. Zakrzewski, J. Gao, N. Rega, 
 G. Zheng, W. Liang, M. Hada, M. Ehara, K. Toyota, R. Fukuda, 
 J. Hasegawa, M. Ishida, T. Nakajima, Y. Honda, O. Kitao, H. Nakai, 
 T. Vreven, K. Throssell, J. A. Montgomery, Jr., J. E. Peralta, 
 F. Ogliaro, M. J. Bearpark, J. J. Heyd, E. N. Brothers, K. N. Kudin, 
 V. N. Staroverov, T. A. Keith, R. Kobayashi, J. Normand, 
 K. Raghavachari, A. P. Rendell, J. C. Burant, S. S. Iyengar, 
 J. Tomasi, M. Cossi, J. M. Millam, M. Klene, C. Adamo, R. Cammi, 
 J. W. Ochterski, R. L. Martin, K. Morokuma, O. Farkas, 
 J. B. Foresman, and D. J. Fox, Gaussian, Inc., Wallingford CT, 2016.
 
 ******************************************
 Gaussian 16:  ES64L-G16RevA.03 25-Dec-2016
                 4-Sep-2021 
 ******************************************
 %nproc=24
 Will use up to   24 processors via shared memory.
 %mem=175gb
 -----------------------------------
 #p cam-b3lyp/Def2SVP td=(nstates=5)
 -----------------------------------
 1/38=1,172=1/1;
 2/12=2,17=6,18=5,40=1/2;
 3/5=43,7=101,11=9,25=1,30=1,74=-40/1,2,3,8;
 4//1;
 5/5=2,38=5/2;
 8/6=1,10=1,108=5/1;
 9/41=5,42=1,70=2/14;
 6/7=2,8=2,9=2,10=2/1;
 99/5=1,9=1/99;
 Leave Link    1 at Sat Sep  4 05:37:13 2021, MaxMem= 23488102400 cpu:               0.8 elap:               0.0
 (Enter /sw/apps/gaussian-16.0/g16/l101.exe)
 --------------------------------
 TDDFT excited states in gaussian
 --------------------------------
 Symbolic Z-matrix:
 Charge =  0 Multiplicity = 1
 Mg                    0.        0.        0. 
 C                    -0.217    -2.218     2.801 
 C                    -1.255     2.442     2.026 
 C                    -0.245     1.85     -2.564 
 C                     0.146    -2.824    -2.037 
 N                    -0.617    -0.009     2.126 
 C                    -0.594    -0.908     3.105 
 C                    -0.936    -0.309     4.502 
 C                    -1.773     0.964     4.032 
 C                    -1.155     1.168     2.66 
 C                    -3.263     0.685     3.863 
 C                     0.345     0.11      5.299 
 C                     0.124     0.397     6.787 
 H                     1.168     0.033     7.733 
 N                    -0.185     1.961    -0.152 
 C                    -0.703     2.8       0.777 
 C                    -0.62      4.156     0.193 
 C                    -0.187     4.015    -1.225 
 C                    -0.214     2.583    -1.38 
 C                    -0.887     5.406     0.974 
 C                     0.181     5.013    -2.277 
 O                     0.303     4.69     -3.508 
 C                     0.31      6.414    -1.837 
 N                    -0.265    -0.413    -2.029 
 C                    -0.279     0.569    -2.937 
 C                    -0.196     0.024    -4.332 
 C                     0.124    -1.533    -4.18 
 C                     0.086    -1.632    -2.635 
 C                    -1.451     0.205    -5.197 
 C                     1.373    -2.07     -4.923 
 C                     2.626    -1.49     -4.306 
 N                     0.15     -2.144     0.303 
 C                     0.173    -3.136    -0.688 
 C                     0.173    -4.438     0.004 
 C                     0.133    -4.111     1.358 
 C                     0.083    -2.695     1.502 
 C                     0.149    -5.715    -0.623 
 C                     0.096    -4.629     2.716 
 O                     0.208    -5.747     3.221 
 C                    -0.255    -3.428     3.701 
 C                     0.717    -3.482     4.848 
 O                     1.931    -3.255     4.669 
 O                     0.038    -3.556     6.003 
 C                     0.943    -3.583     7.183 
 H                    -1.859     3.22      2.497 
 H                    -0.218     2.453    -3.474 
 H                     0.276    -3.747    -2.605 
 H                    -1.554    -0.949     5.132 
 H                    -1.585     1.831     4.665 
 H                    -3.484    -0.377     3.969 
 H                    -3.511     1.027     2.858 
 H                    -3.852     1.301     4.543 
 H                     0.669     1.096     4.966 
 H                     1.13     -0.639     5.189 
 H                    -0.844     0.026     7.125 
 H                     0.062     1.477     6.921 
 H                    -1.344     5.186     1.938 
 H                    -1.651     5.963     0.432 
 H                     0.007     6.02      1.084 
 H                    -0.635     6.744    -1.405 
 H                     0.665     6.97     -2.704 
 H                     1.048     6.466    -1.036 
 H                     0.608     0.501    -4.891 
 H                    -0.692    -2.156    -4.547 
 H                    -1.267     0.74     -6.129 
 H                    -2.204     0.714    -4.596 
 H                    -1.967    -0.72     -5.453 
 H                     1.356    -1.759    -5.967 
 H                     1.452    -3.157    -4.902 
 H                     2.714    -0.522    -4.798 
 H                     3.487    -2.121    -4.529 
 H                     2.495    -1.303    -3.24 
 H                     0.867    -6.333    -0.084 
 H                     0.404    -5.642    -1.68 
 H                    -0.891    -5.999    -0.463 
 H                    -1.283    -3.581     4.028 
 H                     0.698    -4.478     7.755 
 H                     0.833    -2.619     7.68 
 H                     2.       -3.754     6.976 
 Mg                    10.51792   0.94285   0.80557 
 C                     10.68747  -2.54393  -0.02669 
 C                     9.48365  -0.00286   3.91531 
 C                     9.9266    3.99716   1.42924 
 C                     10.4482   1.61319  -2.61372 
 N                     10.16951  -1.04638   1.70769 
 C                     10.32631  -2.3016    1.31505 
 C                     10.16056  -3.35411   2.44391 
 C                     9.24232  -2.4939    3.44178 
 C                     9.67876  -1.09033   3.02681 
 C                     7.75514  -2.6338    3.16239 
 C                     11.5289  -3.73757   3.10922 
 C                     11.4841  -4.97942   4.00227 
 H                     12.65005  -5.85816   4.03149 
 N                     10.2857   1.87772   2.54069 
 C                     9.88038   1.33663   3.70869 
 C                     9.85281   2.44386   4.67691 
 C                     10.1161   3.71303   3.94574 
 C                     10.09868   3.23721   2.57703 
 C                     9.67362   2.23063   6.15199 
 C                     10.33326   5.12398   4.4021 
 O                     10.30785   6.10846   3.58174 
 C                     10.48352   5.32885   5.85018 
 N                     10.01608   2.55745  -0.40422 
 C                     9.86611   3.78915   0.1138 
 C                     9.78005   4.83204  -0.97495 
 C                     10.14756   4.06852  -2.33125 
 C                     10.3022   2.63401  -1.78019 
 C                     8.42456   5.52115  -1.1304 
 C                     11.30364   4.66214  -3.182 
 C                     12.61535   4.51396  -2.44521 
 N                     10.74376  -0.20683  -1.00973 
 C                     10.65317   0.26759  -2.33668 
 C                     10.76184  -0.90621  -3.22708 
 C                     10.88599  -1.99331  -2.34884 
 C                     10.83648  -1.53191  -1.00565 
 C                     10.69124  -0.88147  -4.64853 
 C                     11.037   -3.4274   -2.25252 
 O                     11.22248  -4.33749  -3.05941 
 C                     10.78818  -3.86155  -0.74388 
 C                     11.8959  -4.79584  -0.34069 
 O                     13.06954  -4.39088  -0.2688 
 O                     11.36103  -5.94863   0.10134 
 C                     12.42006  -6.90373   0.5233 
 H                     8.93744  -0.18153   4.84193 
 H                     9.82976   5.07386   1.58676 
 H                     10.53369   1.74919  -3.69393 
 H                     9.6427   -4.25887   2.14895 
 H                     9.50275  -2.68285   4.47997 
 H                     7.56583  -3.19768   2.26109 
 H                     7.3782   -1.62427   3.06327 
 H                     7.2469   -3.0613    4.03145 
 H                     11.7888  -2.97751   3.85722 
 H                     12.29423  -3.85388   2.36668 
 H                     10.56724  -5.56231   3.85205 
 H                     11.42809  -4.65559   5.04439 
 H                     9.3378    1.20996   6.37301 
 H                     8.83878   2.86561   6.46777 
 H                     10.56121   2.50166   6.72764 
 H                     9.59694   4.96065   6.36092 
 H                     10.71903   6.38783   5.97261 
 H                     11.325    4.72266   6.20382 
 H                     10.50127   5.62318  -0.81053 
 H                     9.29815   4.04697  -3.02973 
 H                     8.48159   6.62222  -1.03842 
 H                     7.74725   5.11248  -0.39231 
 H                     7.90393   5.31102  -2.06314 
 H                     11.1515   5.73376  -3.33245 
 H                     11.39448   4.20884  -4.16346 
 H                     12.61894   5.37632  -1.77184 
 H                     13.45164   4.55248  -3.14032 
 H                     12.61801   3.61072  -1.82408 
 H                     11.47358  -1.53522  -5.01053 
 H                     10.80618   0.12916  -5.03477 
 H                     9.67923  -1.26628  -4.80027 
 H                     9.81023  -4.3423   -0.69838 
 H                     12.26038  -7.82764  -0.04112 
 H                     12.3436  -6.96693   1.62508 
 H                     13.44348  -6.66719   0.25663 
 
 ITRead=  0  0  0  0  0  0  0  0  0  0  0  0  0  0  0  0  0  0  0  0
 ITRead=  0  0  0  0  0  0  0  0  0  0  0  0  0  0  0  0  0  0  0  0
 ITRead=  0  0  0  0  0  0  0  0  0  0  0  0  0  0  0  0  0  0  0  0
 ITRead=  0  0  0  0  0  0  0  0  0  0  0  0  0  0  0  0  0  0  0  0
 ITRead=  0  0  0  0  0  0  0  0  0  0  0  0  0  0  0  0  0  0  0  0
 ITRead=  0  0  0  0  0  0  0  0  0  0  0  0  0  0  0  0  0  0  0  0
 ITRead=  0  0  0  0  0  0  0  0  0  0  0  0  0  0  0  0  0  0  0  0
 ITRead=  0  0  0  0  0  0  0  0  0  0  0  0  0  0  0  0  0  0
 MicOpt= -1 -1 -1 -1 -1 -1 -1 -1 -1 -1 -1 -1 -1 -1 -1 -1 -1 -1 -1 -1
 MicOpt= -1 -1 -1 -1 -1 -1 -1 -1 -1 -1 -1 -1 -1 -1 -1 -1 -1 -1 -1 -1
 MicOpt= -1 -1 -1 -1 -1 -1 -1 -1 -1 -1 -1 -1 -1 -1 -1 -1 -1 -1 -1 -1
 MicOpt= -1 -1 -1 -1 -1 -1 -1 -1 -1 -1 -1 -1 -1 -1 -1 -1 -1 -1 -1 -1
 MicOpt= -1 -1 -1 -1 -1 -1 -1 -1 -1 -1 -1 -1 -1 -1 -1 -1 -1 -1 -1 -1
 MicOpt= -1 -1 -1 -1 -1 -1 -1 -1 -1 -1 -1 -1 -1 -1 -1 -1 -1 -1 -1 -1
 MicOpt= -1 -1 -1 -1 -1 -1 -1 -1 -1 -1 -1 -1 -1 -1 -1 -1 -1 -1 -1 -1
 MicOpt= -1 -1 -1 -1 -1 -1 -1 -1 -1 -1 -1 -1 -1 -1 -1 -1 -1 -1
 NAtoms=    158 NQM=      158 NQMF=       0 NMMI=      0 NMMIF=      0
                NMic=       0 NMicF=      0.
                    Isotopes and Nuclear Properties:
 (Nuclear quadrupole moments (NQMom) in fm**2, nuclear magnetic moments (NMagM)
  in nuclear magnetons)

  Atom         1           2           3           4           5           6           7           8           9          10
 IAtWgt=          24          12          12          12          12          14          12          12          12          12
 AtmWgt=  23.9850450  12.0000000  12.0000000  12.0000000  12.0000000  14.0030740  12.0000000  12.0000000  12.0000000  12.0000000
 NucSpn=           0           0           0           0           0           2           0           0           0           0
 AtZEff=  -0.0000000  -0.0000000  -0.0000000  -0.0000000  -0.0000000  -0.0000000  -0.0000000  -0.0000000  -0.0000000  -0.0000000
 NQMom=    0.0000000   0.0000000   0.0000000   0.0000000   0.0000000   2.0440000   0.0000000   0.0000000   0.0000000   0.0000000
 NMagM=    0.0000000   0.0000000   0.0000000   0.0000000   0.0000000   0.4037610   0.0000000   0.0000000   0.0000000   0.0000000
 AtZNuc=  12.0000000   6.0000000   6.0000000   6.0000000   6.0000000   7.0000000   6.0000000   6.0000000   6.0000000   6.0000000

  Atom        11          12          13          14          15          16          17          18          19          20
 IAtWgt=          12          12          12           1          14          12          12          12          12          12
 AtmWgt=  12.0000000  12.0000000  12.0000000   1.0078250  14.0030740  12.0000000  12.0000000  12.0000000  12.0000000  12.0000000
 NucSpn=           0           0           0           1           2           0           0           0           0           0
 AtZEff=  -0.0000000  -0.0000000  -0.0000000  -0.0000000  -0.0000000  -0.0000000  -0.0000000  -0.0000000  -0.0000000  -0.0000000
 NQMom=    0.0000000   0.0000000   0.0000000   0.0000000   2.0440000   0.0000000   0.0000000   0.0000000   0.0000000   0.0000000
 NMagM=    0.0000000   0.0000000   0.0000000   2.7928460   0.4037610   0.0000000   0.0000000   0.0000000   0.0000000   0.0000000
 AtZNuc=   6.0000000   6.0000000   6.0000000   1.0000000   7.0000000   6.0000000   6.0000000   6.0000000   6.0000000   6.0000000

  Atom        21          22          23          24          25          26          27          28          29          30
 IAtWgt=          12          16          12          14          12          12          12          12          12          12
 AtmWgt=  12.0000000  15.9949146  12.0000000  14.0030740  12.0000000  12.0000000  12.0000000  12.0000000  12.0000000  12.0000000
 NucSpn=           0           0           0           2           0           0           0           0           0           0
 AtZEff=  -0.0000000  -0.0000000  -0.0000000  -0.0000000  -0.0000000  -0.0000000  -0.0000000  -0.0000000  -0.0000000  -0.0000000
 NQMom=    0.0000000   0.0000000   0.0000000   2.0440000   0.0000000   0.0000000   0.0000000   0.0000000   0.0000000   0.0000000
 NMagM=    0.0000000   0.0000000   0.0000000   0.4037610   0.0000000   0.0000000   0.0000000   0.0000000   0.0000000   0.0000000
 AtZNuc=   6.0000000   8.0000000   6.0000000   7.0000000   6.0000000   6.0000000   6.0000000   6.0000000   6.0000000   6.0000000

  Atom        31          32          33          34          35          36          37          38          39          40
 IAtWgt=          12          14          12          12          12          12          12          12          16          12
 AtmWgt=  12.0000000  14.0030740  12.0000000  12.0000000  12.0000000  12.0000000  12.0000000  12.0000000  15.9949146  12.0000000
 NucSpn=           0           2           0           0           0           0           0           0           0           0
 AtZEff=  -0.0000000  -0.0000000  -0.0000000  -0.0000000  -0.0000000  -0.0000000  -0.0000000  -0.0000000  -0.0000000  -0.0000000
 NQMom=    0.0000000   2.0440000   0.0000000   0.0000000   0.0000000   0.0000000   0.0000000   0.0000000   0.0000000   0.0000000
 NMagM=    0.0000000   0.4037610   0.0000000   0.0000000   0.0000000   0.0000000   0.0000000   0.0000000   0.0000000   0.0000000
 AtZNuc=   6.0000000   7.0000000   6.0000000   6.0000000   6.0000000   6.0000000   6.0000000   6.0000000   8.0000000   6.0000000

  Atom        41          42          43          44          45          46          47          48          49          50
 IAtWgt=          12          16          16          12           1           1           1           1           1           1
 AtmWgt=  12.0000000  15.9949146  15.9949146  12.0000000   1.0078250   1.0078250   1.0078250   1.0078250   1.0078250   1.0078250
 NucSpn=           0           0           0           0           1           1           1           1           1           1
 AtZEff=  -0.0000000  -0.0000000  -0.0000000  -0.0000000  -0.0000000  -0.0000000  -0.0000000  -0.0000000  -0.0000000  -0.0000000
 NQMom=    0.0000000   0.0000000   0.0000000   0.0000000   0.0000000   0.0000000   0.0000000   0.0000000   0.0000000   0.0000000
 NMagM=    0.0000000   0.0000000   0.0000000   0.0000000   2.7928460   2.7928460   2.7928460   2.7928460   2.7928460   2.7928460
 AtZNuc=   6.0000000   8.0000000   8.0000000   6.0000000   1.0000000   1.0000000   1.0000000   1.0000000   1.0000000   1.0000000

  Atom        51          52          53          54          55          56          57          58          59          60
 IAtWgt=           1           1           1           1           1           1           1           1           1           1
 AtmWgt=   1.0078250   1.0078250   1.0078250   1.0078250   1.0078250   1.0078250   1.0078250   1.0078250   1.0078250   1.0078250
 NucSpn=           1           1           1           1           1           1           1           1           1           1
 AtZEff=  -0.0000000  -0.0000000  -0.0000000  -0.0000000  -0.0000000  -0.0000000  -0.0000000  -0.0000000  -0.0000000  -0.0000000
 NQMom=    0.0000000   0.0000000   0.0000000   0.0000000   0.0000000   0.0000000   0.0000000   0.0000000   0.0000000   0.0000000
 NMagM=    2.7928460   2.7928460   2.7928460   2.7928460   2.7928460   2.7928460   2.7928460   2.7928460   2.7928460   2.7928460
 AtZNuc=   1.0000000   1.0000000   1.0000000   1.0000000   1.0000000   1.0000000   1.0000000   1.0000000   1.0000000   1.0000000

  Atom        61          62          63          64          65          66          67          68          69          70
 IAtWgt=           1           1           1           1           1           1           1           1           1           1
 AtmWgt=   1.0078250   1.0078250   1.0078250   1.0078250   1.0078250   1.0078250   1.0078250   1.0078250   1.0078250   1.0078250
 NucSpn=           1           1           1           1           1           1           1           1           1           1
 AtZEff=  -0.0000000  -0.0000000  -0.0000000  -0.0000000  -0.0000000  -0.0000000  -0.0000000  -0.0000000  -0.0000000  -0.0000000
 NQMom=    0.0000000   0.0000000   0.0000000   0.0000000   0.0000000   0.0000000   0.0000000   0.0000000   0.0000000   0.0000000
 NMagM=    2.7928460   2.7928460   2.7928460   2.7928460   2.7928460   2.7928460   2.7928460   2.7928460   2.7928460   2.7928460
 AtZNuc=   1.0000000   1.0000000   1.0000000   1.0000000   1.0000000   1.0000000   1.0000000   1.0000000   1.0000000   1.0000000

  Atom        71          72          73          74          75          76          77          78          79          80
 IAtWgt=           1           1           1           1           1           1           1           1           1          24
 AtmWgt=   1.0078250   1.0078250   1.0078250   1.0078250   1.0078250   1.0078250   1.0078250   1.0078250   1.0078250  23.9850450
 NucSpn=           1           1           1           1           1           1           1           1           1           0
 AtZEff=  -0.0000000  -0.0000000  -0.0000000  -0.0000000  -0.0000000  -0.0000000  -0.0000000  -0.0000000  -0.0000000  -0.0000000
 NQMom=    0.0000000   0.0000000   0.0000000   0.0000000   0.0000000   0.0000000   0.0000000   0.0000000   0.0000000   0.0000000
 NMagM=    2.7928460   2.7928460   2.7928460   2.7928460   2.7928460   2.7928460   2.7928460   2.7928460   2.7928460   0.0000000
 AtZNuc=   1.0000000   1.0000000   1.0000000   1.0000000   1.0000000   1.0000000   1.0000000   1.0000000   1.0000000  12.0000000

  Atom        81          82          83          84          85          86          87          88          89          90
 IAtWgt=          12          12          12          12          14          12          12          12          12          12
 AtmWgt=  12.0000000  12.0000000  12.0000000  12.0000000  14.0030740  12.0000000  12.0000000  12.0000000  12.0000000  12.0000000
 NucSpn=           0           0           0           0           2           0           0           0           0           0
 AtZEff=  -0.0000000  -0.0000000  -0.0000000  -0.0000000  -0.0000000  -0.0000000  -0.0000000  -0.0000000  -0.0000000  -0.0000000
 NQMom=    0.0000000   0.0000000   0.0000000   0.0000000   2.0440000   0.0000000   0.0000000   0.0000000   0.0000000   0.0000000
 NMagM=    0.0000000   0.0000000   0.0000000   0.0000000   0.4037610   0.0000000   0.0000000   0.0000000   0.0000000   0.0000000
 AtZNuc=   6.0000000   6.0000000   6.0000000   6.0000000   7.0000000   6.0000000   6.0000000   6.0000000   6.0000000   6.0000000

  Atom        91          92          93          94          95          96          97          98          99         100
 IAtWgt=          12          12           1          14          12          12          12          12          12          12
 AtmWgt=  12.0000000  12.0000000   1.0078250  14.0030740  12.0000000  12.0000000  12.0000000  12.0000000  12.0000000  12.0000000
 NucSpn=           0           0           1           2           0           0           0           0           0           0
 AtZEff=  -0.0000000  -0.0000000  -0.0000000  -0.0000000  -0.0000000  -0.0000000  -0.0000000  -0.0000000  -0.0000000  -0.0000000
 NQMom=    0.0000000   0.0000000   0.0000000   2.0440000   0.0000000   0.0000000   0.0000000   0.0000000   0.0000000   0.0000000
 NMagM=    0.0000000   0.0000000   2.7928460   0.4037610   0.0000000   0.0000000   0.0000000   0.0000000   0.0000000   0.0000000
 AtZNuc=   6.0000000   6.0000000   1.0000000   7.0000000   6.0000000   6.0000000   6.0000000   6.0000000   6.0000000   6.0000000

  Atom       101         102         103         104         105         106         107         108         109         110
 IAtWgt=          16          12          14          12          12          12          12          12          12          12
 AtmWgt=  15.9949146  12.0000000  14.0030740  12.0000000  12.0000000  12.0000000  12.0000000  12.0000000  12.0000000  12.0000000
 NucSpn=           0           0           2           0           0           0           0           0           0           0
 AtZEff=  -0.0000000  -0.0000000  -0.0000000  -0.0000000  -0.0000000  -0.0000000  -0.0000000  -0.0000000  -0.0000000  -0.0000000
 NQMom=    0.0000000   0.0000000   2.0440000   0.0000000   0.0000000   0.0000000   0.0000000   0.0000000   0.0000000   0.0000000
 NMagM=    0.0000000   0.0000000   0.4037610   0.0000000   0.0000000   0.0000000   0.0000000   0.0000000   0.0000000   0.0000000
 AtZNuc=   8.0000000   6.0000000   7.0000000   6.0000000   6.0000000   6.0000000   6.0000000   6.0000000   6.0000000   6.0000000

  Atom       111         112         113         114         115         116         117         118         119         120
 IAtWgt=          14          12          12          12          12          12          12          16          12          12
 AtmWgt=  14.0030740  12.0000000  12.0000000  12.0000000  12.0000000  12.0000000  12.0000000  15.9949146  12.0000000  12.0000000
 NucSpn=           2           0           0           0           0           0           0           0           0           0
 AtZEff=  -0.0000000  -0.0000000  -0.0000000  -0.0000000  -0.0000000  -0.0000000  -0.0000000  -0.0000000  -0.0000000  -0.0000000
 NQMom=    2.0440000   0.0000000   0.0000000   0.0000000   0.0000000   0.0000000   0.0000000   0.0000000   0.0000000   0.0000000
 NMagM=    0.4037610   0.0000000   0.0000000   0.0000000   0.0000000   0.0000000   0.0000000   0.0000000   0.0000000   0.0000000
 AtZNuc=   7.0000000   6.0000000   6.0000000   6.0000000   6.0000000   6.0000000   6.0000000   8.0000000   6.0000000   6.0000000

  Atom       121         122         123         124         125         126         127         128         129         130
 IAtWgt=          16          16          12           1           1           1           1           1           1           1
 AtmWgt=  15.9949146  15.9949146  12.0000000   1.0078250   1.0078250   1.0078250   1.0078250   1.0078250   1.0078250   1.0078250
 NucSpn=           0           0           0           1           1           1           1           1           1           1
 AtZEff=  -0.0000000  -0.0000000  -0.0000000  -0.0000000  -0.0000000  -0.0000000  -0.0000000  -0.0000000  -0.0000000  -0.0000000
 NQMom=    0.0000000   0.0000000   0.0000000   0.0000000   0.0000000   0.0000000   0.0000000   0.0000000   0.0000000   0.0000000
 NMagM=    0.0000000   0.0000000   0.0000000   2.7928460   2.7928460   2.7928460   2.7928460   2.7928460   2.7928460   2.7928460
 AtZNuc=   8.0000000   8.0000000   6.0000000   1.0000000   1.0000000   1.0000000   1.0000000   1.0000000   1.0000000   1.0000000

  Atom       131         132         133         134         135         136         137         138         139         140
 IAtWgt=           1           1           1           1           1           1           1           1           1           1
 AtmWgt=   1.0078250   1.0078250   1.0078250   1.0078250   1.0078250   1.0078250   1.0078250   1.0078250   1.0078250   1.0078250
 NucSpn=           1           1           1           1           1           1           1           1           1           1
 AtZEff=  -0.0000000  -0.0000000  -0.0000000  -0.0000000  -0.0000000  -0.0000000  -0.0000000  -0.0000000  -0.0000000  -0.0000000
 NQMom=    0.0000000   0.0000000   0.0000000   0.0000000   0.0000000   0.0000000   0.0000000   0.0000000   0.0000000   0.0000000
 NMagM=    2.7928460   2.7928460   2.7928460   2.7928460   2.7928460   2.7928460   2.7928460   2.7928460   2.7928460   2.7928460
 AtZNuc=   1.0000000   1.0000000   1.0000000   1.0000000   1.0000000   1.0000000   1.0000000   1.0000000   1.0000000   1.0000000

  Atom       141         142         143         144         145         146         147         148         149         150
 IAtWgt=           1           1           1           1           1           1           1           1           1           1
 AtmWgt=   1.0078250   1.0078250   1.0078250   1.0078250   1.0078250   1.0078250   1.0078250   1.0078250   1.0078250   1.0078250
 NucSpn=           1           1           1           1           1           1           1           1           1           1
 AtZEff=  -0.0000000  -0.0000000  -0.0000000  -0.0000000  -0.0000000  -0.0000000  -0.0000000  -0.0000000  -0.0000000  -0.0000000
 NQMom=    0.0000000   0.0000000   0.0000000   0.0000000   0.0000000   0.0000000   0.0000000   0.0000000   0.0000000   0.0000000
 NMagM=    2.7928460   2.7928460   2.7928460   2.7928460   2.7928460   2.7928460   2.7928460   2.7928460   2.7928460   2.7928460
 AtZNuc=   1.0000000   1.0000000   1.0000000   1.0000000   1.0000000   1.0000000   1.0000000   1.0000000   1.0000000   1.0000000

  Atom       151         152         153         154         155         156         157         158
 IAtWgt=           1           1           1           1           1           1           1           1
 AtmWgt=   1.0078250   1.0078250   1.0078250   1.0078250   1.0078250   1.0078250   1.0078250   1.0078250
 NucSpn=           1           1           1           1           1           1           1           1
 AtZEff=  -0.0000000  -0.0000000  -0.0000000  -0.0000000  -0.0000000  -0.0000000  -0.0000000  -0.0000000
 NQMom=    0.0000000   0.0000000   0.0000000   0.0000000   0.0000000   0.0000000   0.0000000   0.0000000
 NMagM=    2.7928460   2.7928460   2.7928460   2.7928460   2.7928460   2.7928460   2.7928460   2.7928460
 AtZNuc=   1.0000000   1.0000000   1.0000000   1.0000000   1.0000000   1.0000000   1.0000000   1.0000000
 Leave Link  101 at Sat Sep  4 05:37:14 2021, MaxMem= 23488102400 cpu:               3.8 elap:               0.2
 (Enter /sw/apps/gaussian-16.0/g16/l202.exe)
 Stoichiometry    C68H72Mg2N8O8
 Framework group  C1[X(C68H72Mg2N8O8)]
 Deg. of freedom   468
 Full point group                 C1      NOp   1
 Largest Abelian subgroup         C1      NOp   1
 Largest concise Abelian subgroup C1      NOp   1
                         Standard orientation:                         
 ---------------------------------------------------------------------
 Center     Atomic      Atomic             Coordinates (Angstroms)
 Number     Number       Type             X           Y           Z
 ---------------------------------------------------------------------
      1         12           0       -5.177049    0.525024   -0.710654
      2          6           0       -5.509535   -2.629693    0.947484
      3          6           0       -6.454964    1.970652    2.103624
      4          6           0       -5.318766    3.259260   -2.310808
      5          6           0       -5.012869   -1.237118   -3.712913
      6          7           0       -5.856620   -0.326955    1.216250
      7          6           0       -5.875874   -1.545267    1.747772
      8          6           0       -6.250052   -1.553662    3.260152
      9          6           0       -7.053835   -0.178419    3.328243
     10          6           0       -6.392636    0.546995    2.169574
     11          6           0       -8.542170   -0.327167    3.029519
     12          6           0       -4.987070   -1.525469    4.185253
     13          6           0       -5.247629   -1.858996    5.657063
     14          1           0       -4.237531   -2.600874    6.396431
     15          7           0       -5.328372    2.384099   -0.059661
     16          6           0       -5.861076    2.788823    1.118351
     17          6           0       -5.740764    4.262568    1.135146
     18          6           0       -5.268222    4.695872   -0.209118
     19          6           0       -5.311871    3.449973   -0.931067
     20          6           0       -6.012138    5.096491    2.349510
     21          6           0       -4.854557    6.024235   -0.759087
     22          8           0       -4.701067    6.223474   -2.012609
     23          6           0       -4.717839    7.123969    0.212990
     24          7           0       -5.388119    0.974465   -2.738236
     25          6           0       -5.360735    2.239729   -3.171065
     26          6           0       -5.244674    2.303294   -4.665196
     27          6           0       -4.952431    0.810145   -5.149812
     28          6           0       -5.037499    0.095993   -3.778309
     29          6           0       -6.470763    2.850497   -5.409028
     30          6           0       -3.690140    0.587689   -6.020187
     31          6           0       -2.447439    0.836566   -5.195048
     32          7           0       -5.067879   -1.561516   -1.298425
     33          6           0       -5.030344   -2.068432   -2.605445
     34          6           0       -5.070089   -3.538585   -2.499908
     35          6           0       -5.145197   -3.785985   -1.130603
     36          6           0       -5.178418   -2.548304   -0.426804
     37          6           0       -5.094504   -4.452028   -3.590532
     38          6           0       -5.229958   -4.807646   -0.099642
     39          8           0       -5.149513   -6.036829   -0.088216
     40          6           0       -5.592036   -4.098853    1.279611
     41          6           0       -4.655236   -4.636727    2.326704
     42          8           0       -3.433246   -4.387792    2.280455
     43          8           0       -5.369067   -5.154001    3.338345
     44          6           0       -4.499803   -5.678822    4.425128
     45          1           0       -7.061001    2.506958    2.836451
     46          1           0       -5.255967    4.177774   -2.898027
     47          1           0       -4.879860   -1.854686   -4.603065
     48          1           0       -6.895810   -2.377730    3.564018
     49          1           0       -6.871769    0.353559    4.261824
     50          1           0       -8.781931   -1.335348    2.691871
     51          1           0       -8.755287    0.398142    2.244025
     52          1           0       -9.141790   -0.023851    3.888141
     53          1           0       -4.638789   -0.497630    4.286784
     54          1           0       -4.210360   -2.185822    3.797978
     55          1           0       -6.230583   -2.310143    5.795537
     56          1           0       -5.297532   -0.924164    6.215452
     57          1           0       -6.500615    4.517285    3.132105
     58          1           0       -6.751455    5.844355    2.063470
     59          1           0       -5.112766    5.590581    2.717394
     60          1           0       -5.670184    7.275144    0.721650
     61          1           0       -4.329186    7.973760   -0.347058
     62          1           0       -4.003122    6.828858    0.981780
     63          1           0       -4.417532    2.944885   -4.966234
     64          1           0       -5.766390    0.409736   -5.754640
     65          1           0       -6.251408    3.711728   -6.040588
     66          1           0       -7.233547    3.092106   -4.669383
     67          1           0       -6.992642    2.121446   -6.028337
     68          1           0       -3.671691    1.294529   -6.849031
     69          1           0       -3.627926   -0.416640   -6.439358
     70          1           0       -2.330602    1.918249   -5.251111
     71          1           0       -1.589685    0.327842   -5.636260
     72          1           0       -2.607070    0.579920   -4.147605
     73          1           0       -4.401978   -5.253276   -3.332894
     74          1           0       -4.807350   -3.964470   -4.521893
     75          1           0       -6.142873   -4.749835   -3.581072
     76          1           0       -6.631400   -4.344709    1.495018
     77          1           0       -4.774834   -6.722099    4.580578
     78          1           0       -4.610119   -4.995574    5.267392
     79          1           0       -3.439805   -5.778445    4.188871
     80         12           0        5.325327    0.793043    0.628312
     81          6           0        5.467640   -2.062715   -1.540427
     82          6           0        4.185772   -1.302410    3.066561
     83          6           0        4.761218    3.348491    2.422442
     84          6           0        5.366550    2.790040   -2.227570
     85          7           0        4.920964   -1.381489    0.640419
     86          6           0        5.070653   -2.374378   -0.223349
     87          6           0        4.856050   -3.788811    0.379063
     88          6           0        3.921607   -3.382326    1.620215
     89          6           0        4.390880   -1.942441    1.818209
     90          6           0        2.441413   -3.359342    1.276944
     91          6           0        6.198310   -4.443280    0.860770
     92          6           0        6.108746   -5.938576    1.173507
     93          1           0        7.260162   -6.783550    0.868981
     94          7           0        5.055867    0.952233    2.588057
     95          6           0        4.608255   -0.004330    3.428246
     96          6           0        4.568534    0.617264    4.760992
     97          6           0        4.872095    2.066520    4.611886
     98          6           0        4.888041    2.185268    3.167684
     99          6           0        4.342724   -0.169457    6.019371
    100          6           0        5.096590    3.166488    5.604798
    101          8           0        5.110019    4.398880    5.252851
    102          6           0        5.207049    2.764538    7.014664
    103          7           0        4.883431    2.771134    0.165437
    104          6           0        4.736517    3.691657    1.134444
    105          6           0        4.698121    5.087503    0.559517
    106          6           0        5.094153    4.928375   -0.981721
    107          6           0        5.211159    3.390105   -1.055419
    108          6           0        3.358183    5.814970    0.667904
    109          6           0        6.283527    5.785555   -1.494862
    110          6           0        7.570567    5.318745   -0.853758
    111          7           0        5.587591    0.470035   -1.491821
    112          6           0        5.543269    1.442554   -2.514719
    113          6           0        5.660759    0.726567   -3.801570
    114          6           0        5.742785   -0.625568   -3.436179
    115          6           0        5.660485   -0.745476   -2.022549
    116          6           0        5.632536    1.325646   -5.092470
    117          6           0        5.869597   -1.979521   -3.925489
    118          8           0        6.065302   -2.490124   -5.027633
    119          6           0        5.569927   -2.980016   -2.727323
    120          6           0        6.651279   -4.025481   -2.713691
    121          8           0        7.828162   -3.714239   -2.459394
    122          8           0        6.086550   -5.244511   -2.787497
    123          6           0        7.118376   -6.315348   -2.766152
    124          1           0        3.609850   -1.826440    3.829842
    125          1           0        4.675751    4.271686    3.000265
    126          1           0        5.485906    3.348905   -3.158206
    127          1           0        4.333762   -4.483558   -0.267707
    128          1           0        4.148437   -3.981440    2.498267
    129          1           0        2.270456   -3.505682    0.220773
    130          1           0        2.082580   -2.386659    1.587084
    131          1           0        1.901449   -4.088571    1.887675
    132          1           0        6.447256   -4.057401    1.857698
    133          1           0        6.983422   -4.268954    0.150957
    134          1           0        5.188176   -6.387379    0.780969
    135          1           0        6.026799   -6.062380    2.256085
    136          1           0        3.985422   -1.183422    5.801190
    137          1           0        3.508435    0.304729    6.547559
    138          1           0        5.216852   -0.177026    6.673961
    139          1           0        4.300411    2.244039    7.313893
    140          1           0        5.454523    3.677239    7.560215
    141          1           0        6.028636    2.045874    7.110227
    142          1           0        5.425827    5.725956    1.045229
    143          1           0        4.265511    5.212722   -1.646804
    144          1           0        3.428797    6.783016    1.198910
    145          1           0        2.653387    5.160218    1.162980
    146          1           0        2.862261    6.013219   -0.280765
    147          1           0        6.151807    6.830021   -1.201791
    148          1           0        6.396573    5.765575   -2.573666
    149          1           0        7.567064    5.834865    0.110977
    150          1           0        8.427497    5.613644   -1.456044
    151          1           0        7.541488    4.241753   -0.651529
    152          1           0        6.415441    0.854324   -5.671611
    153          1           0        5.773809    2.402861   -5.034029
    154          1           0        4.619852    1.060986   -5.408211
    155          1           0        4.584037   -3.413001   -2.900878
    156          1           0        6.961745   -6.927805   -3.659483
    157          1           0        7.008488   -6.816603   -1.786138
    158          1           0        8.152619   -6.017385   -2.892686
 ---------------------------------------------------------------------
 Rotational constants (GHZ):           0.0203953           0.0111869           0.0104679
 Leave Link  202 at Sat Sep  4 05:37:14 2021, MaxMem= 23488102400 cpu:               0.2 elap:               0.0
 (Enter /sw/apps/gaussian-16.0/g16/l301.exe)
 Standard basis: def2SVP (5D, 7F)
 Ernie: Thresh=  0.10000D-02 Tol=  0.10000D-05 Strict=F.
 There are  1658 symmetry adapted cartesian basis functions of A   symmetry.
 There are  1572 symmetry adapted basis functions of A   symmetry.
  1572 basis functions,  2678 primitive gaussians,  1658 cartesian basis functions
   312 alpha electrons      312 beta electrons
       nuclear repulsion energy     14944.0254142622 Hartrees.
 IExCor=20419 DFT=T Ex+Corr=CAM-B3LYP ExCW=0 ScaHFX=  1.000000
 ScaDFX=  1.000000  1.000000  1.000000  0.810000 ScalE2=  1.000000  1.000000
 IRadAn=      5 IRanWt=     -1 IRanGd=            0 ICorTp=0 IEmpDi=  4
 HFx  wShort=  0.000000 wLong=  0.330000 cFull=  0.190000 cShort=  0.000000 cLong=  0.460000
 DFx  wShort=  0.000000 wLong=  0.330000 cFull=  0.190000 cShort=  0.000000 cLong=  0.460000
 NAtoms=  158 NActive=  158 NUniq=  158 SFac= 1.00D+00 NAtFMM=   60 NAOKFM=T Big=T
 Integral buffers will be    131072 words long.
 Raffenetti 1 integral format.
 Two-electron integral symmetry is turned on.
 Leave Link  301 at Sat Sep  4 05:37:14 2021, MaxMem= 23488102400 cpu:               1.3 elap:               0.1
 (Enter /sw/apps/gaussian-16.0/g16/l302.exe)
 NPDir=0 NMtPBC=     1 NCelOv=     1 NCel=       1 NClECP=     1 NCelD=      1
         NCelK=      1 NCelE2=     1 NClLst=     1 CellRange=     0.0.
 One-electron integrals computed using PRISM.
 One-electron integral symmetry used in STVInt
   1 Symmetry operations used in ECPInt.
 ECPInt:  NShTT=  271216 NPrTT=  987664 LenC2=  137436 LenP2D=  286644.
 LDataN:  DoStor=T MaxTD1= 4 Len=   56
 NBasis=  1572 RedAO= T EigKep=  3.36D-04  NBF=  1572
 NBsUse=  1572 1.00D-06 EigRej= -1.00D+00 NBFU=  1572
 Precomputing XC quadrature grid using
 IXCGrd= 4 IRadAn=           5 IRanWt=          -1 IRanGd=           0 AccXCQ= 0.00D+00.
 Generated NRdTot=       0 NPtTot=           0 NUsed=           0 NTot=          32
 NSgBfM=  1188  1164  1169  1181  1188 MxSgAt=   158 MxSgA2=   157.
 Leave Link  302 at Sat Sep  4 05:37:19 2021, MaxMem= 23488102400 cpu:             125.7 elap:               5.3
 (Enter /sw/apps/gaussian-16.0/g16/l303.exe)
 DipDrv:  MaxL=1.
 Leave Link  303 at Sat Sep  4 05:37:19 2021, MaxMem= 23488102400 cpu:               8.3 elap:               0.4
 (Enter /sw/apps/gaussian-16.0/g16/l308.exe)
 Leave Link  308 at Sat Sep  4 05:37:20 2021, MaxMem= 23488102400 cpu:              15.2 elap:               0.7
 (Enter /sw/apps/gaussian-16.0/g16/l401.exe)
 ExpMin= 3.36D-02 ExpMax= 4.95D+03 ExpMxC= 7.45D+02 IAcc=3 IRadAn=         5 AccDes= 0.00D+00
 Harris functional with IExCor=20419 and IRadAn=       5 diagonalized for initial guess.
 HarFok:  IExCor=20419 AccDes= 0.00D+00 IRadAn=         5 IDoV= 1 UseB2=F ITyADJ=14
 ICtDFT=  3500011 ScaDFX=  1.000000  1.000000  1.000000  1.000000
 FoFCou: FMM=F IPFlag=           0 FMFlag=      100000 FMFlg1=        2001
         NFxFlg=           0 DoJE=T BraDBF=F KetDBF=T FulRan=T
         wScrn=  0.000000 ICntrl=       500 IOpCl=  0 I1Cent=   200000004 NGrid=           0
         NMat0=    1 NMatS0=      1 NMatT0=    0 NMatD0=    1 NMtDS0=    0 NMtDT0=    0
 Petite list used in FoFCou.
 Harris En= -3918.65800344671    
 JPrj=0 DoOrth=F DoCkMO=F.
 Leave Link  401 at Sat Sep  4 05:37:28 2021, MaxMem= 23488102400 cpu:             176.8 elap:               7.4
 (Enter /sw/apps/gaussian-16.0/g16/l502.exe)
 Integral symmetry usage will be decided dynamically.
 Closed shell SCF:
 Using DIIS extrapolation, IDIIS=  1040.
 NGot= 23488102400 LenX= 23482547354 LenY= 23479796732
 Requested convergence on RMS density matrix=1.00D-08 within 128 cycles.
 Requested convergence on MAX density matrix=1.00D-06.
 Requested convergence on             energy=1.00D-06.
 No special actions if energy rises.
 Fock matrices will be formed incrementally for  20 cycles.

 Cycle   1  Pass 1  IDiag  1:
 FoFJK:  IHMeth= 1 ICntrl=       0 DoSepK=T KAlg= 0 I1Cent=           0 FoldK=F
 IRaf=         1 NMat=       1 IRICut=       1 DoRegI=T DoRafI=F ISym2E= 0 IDoP0=0 IntGTp=1.
 FoFCou: FMM=T IPFlag=           0 FMFlag=      100000 FMFlg1=        2001
         NFxFlg=           0 DoJE=T BraDBF=F KetDBF=F FulRan=T
         wScrn=  0.000000 ICntrl=       500 IOpCl=  0 I1Cent=           0 NGrid=           0
         NMat0=    1 NMatS0=      1 NMatT0=    0 NMatD0=    1 NMtDS0=    0 NMtDT0=    0
 Symmetry not used in FoFCou.
 FMM levels:  10  Number of levels for PrismC:   9
 E= -4068.95034968194    
 DIIS: error= 2.04D-02 at cycle   1 NSaved=   1.
 NSaved= 1 IEnMin= 1 EnMin= -4068.95034968194     IErMin= 1 ErrMin= 2.04D-02
 ErrMax= 2.04D-02  0.00D+00 EMaxC= 1.00D-01 BMatC= 1.69D+00 BMatP= 1.69D+00
 IDIUse=3 WtCom= 7.96D-01 WtEn= 2.04D-01
 Coeff-Com:  0.100D+01
 Coeff-En:   0.100D+01
 Coeff:      0.100D+01
 Gap=     0.120 Goal=   None    Shift=    0.000
 GapD=    0.120 DampG=1.000 DampE=0.500 DampFc=0.5000 IDamp=-1.
 Damping current iteration by 5.00D-01
 RMSDP=1.57D-03 MaxDP=1.36D-01              OVMax= 2.01D-01

 Cycle   2  Pass 1  IDiag  1:
 RMSU=  7.69D-04    CP:  9.82D-01
 E= -4069.33918211444     Delta-E=       -0.388832432498 Rises=F Damp=T
 DIIS: error= 1.27D-02 at cycle   2 NSaved=   2.
 NSaved= 2 IEnMin= 2 EnMin= -4069.33918211444     IErMin= 2 ErrMin= 1.27D-02
 ErrMax= 1.27D-02  0.00D+00 EMaxC= 1.00D-01 BMatC= 3.06D-01 BMatP= 1.69D+00
 IDIUse=3 WtCom= 8.73D-01 WtEn= 1.27D-01
 Coeff-Com: -0.214D+00 0.121D+01
 Coeff-En:   0.000D+00 0.100D+01
 Coeff:     -0.187D+00 0.119D+01
 Gap=     0.134 Goal=   None    Shift=    0.000
 RMSDP=7.64D-04 MaxDP=9.44D-02 DE=-3.89D-01 OVMax= 1.88D-01

 Cycle   3  Pass 1  IDiag  1:
 RMSU=  7.32D-04    CP:  9.68D-01  1.24D+00
 E= -4069.62913026505     Delta-E=       -0.289948150607 Rises=F Damp=F
 DIIS: error= 1.55D-02 at cycle   3 NSaved=   3.
 NSaved= 3 IEnMin= 3 EnMin= -4069.62913026505     IErMin= 2 ErrMin= 1.27D-02
 ErrMax= 1.55D-02  0.00D+00 EMaxC= 1.00D-01 BMatC= 2.01D-01 BMatP= 3.06D-01
 IDIUse=3 WtCom= 8.45D-01 WtEn= 1.55D-01
 Coeff-Com: -0.267D+00 0.651D+00 0.616D+00
 Coeff-En:   0.000D+00 0.000D+00 0.100D+01
 Coeff:     -0.226D+00 0.550D+00 0.676D+00
 Gap=     0.121 Goal=   None    Shift=    0.000
 RMSDP=5.07D-04 MaxDP=4.75D-02 DE=-2.90D-01 OVMax= 1.39D-01

 Cycle   4  Pass 1  IDiag  1:
 RMSU=  2.65D-04    CP:  9.65D-01  1.55D+00  5.07D-01
 E= -4069.76630835232     Delta-E=       -0.137178087272 Rises=F Damp=F
 DIIS: error= 7.05D-03 at cycle   4 NSaved=   4.
 NSaved= 4 IEnMin= 4 EnMin= -4069.76630835232     IErMin= 4 ErrMin= 7.05D-03
 ErrMax= 7.05D-03  0.00D+00 EMaxC= 1.00D-01 BMatC= 4.93D-02 BMatP= 2.01D-01
 IDIUse=3 WtCom= 9.30D-01 WtEn= 7.05D-02
 Coeff-Com: -0.109D+00 0.226D+00 0.408D+00 0.475D+00
 Coeff-En:   0.000D+00 0.000D+00 0.218D+00 0.782D+00
 Coeff:     -0.101D+00 0.210D+00 0.394D+00 0.497D+00
 Gap=     0.120 Goal=   None    Shift=    0.000
 RMSDP=1.99D-04 MaxDP=1.96D-02 DE=-1.37D-01 OVMax= 6.01D-02

 Cycle   5  Pass 1  IDiag  1:
 RMSU=  7.58D-05    CP:  9.64D-01  1.49D+00  6.89D-01  5.51D-01
 E= -4069.81103468884     Delta-E=       -0.044726336524 Rises=F Damp=F
 DIIS: error= 7.46D-04 at cycle   5 NSaved=   5.
 NSaved= 5 IEnMin= 5 EnMin= -4069.81103468884     IErMin= 5 ErrMin= 7.46D-04
 ErrMax= 7.46D-04  0.00D+00 EMaxC= 1.00D-01 BMatC= 1.16D-03 BMatP= 4.93D-02
 IDIUse=3 WtCom= 9.93D-01 WtEn= 7.46D-03
 Coeff-Com: -0.363D-01 0.714D-01 0.166D+00 0.250D+00 0.549D+00
 Coeff-En:   0.000D+00 0.000D+00 0.000D+00 0.000D+00 0.100D+01
 Coeff:     -0.361D-01 0.709D-01 0.165D+00 0.248D+00 0.552D+00
 Gap=     0.120 Goal=   None    Shift=    0.000
 RMSDP=4.17D-05 MaxDP=4.37D-03 DE=-4.47D-02 OVMax= 1.67D-02

 Cycle   6  Pass 1  IDiag  1:
 RMSU=  3.09D-05    CP:  9.64D-01  1.49D+00  6.81D-01  6.23D-01  7.49D-01
 E= -4069.81204527182     Delta-E=       -0.001010582975 Rises=F Damp=F
 DIIS: error= 2.01D-04 at cycle   6 NSaved=   6.
 NSaved= 6 IEnMin= 6 EnMin= -4069.81204527182     IErMin= 6 ErrMin= 2.01D-04
 ErrMax= 2.01D-04  0.00D+00 EMaxC= 1.00D-01 BMatC= 1.85D-04 BMatP= 1.16D-03
 IDIUse=3 WtCom= 9.98D-01 WtEn= 2.01D-03
 Coeff-Com:  0.197D-02-0.612D-02 0.121D-01 0.414D-01 0.311D+00 0.640D+00
 Coeff-En:   0.000D+00 0.000D+00 0.000D+00 0.000D+00 0.120D+00 0.880D+00
 Coeff:      0.197D-02-0.610D-02 0.121D-01 0.413D-01 0.311D+00 0.640D+00
 Gap=     0.120 Goal=   None    Shift=    0.000
 RMSDP=1.66D-05 MaxDP=1.20D-03 DE=-1.01D-03 OVMax= 7.04D-03

 Cycle   7  Pass 1  IDiag  1:
 RMSU=  1.09D-05    CP:  9.64D-01  1.50D+00  6.87D-01  6.22D-01  8.56D-01
                    CP:  7.34D-01
 E= -4069.81224759020     Delta-E=       -0.000202318377 Rises=F Damp=F
 DIIS: error= 9.20D-05 at cycle   7 NSaved=   7.
 NSaved= 7 IEnMin= 7 EnMin= -4069.81224759020     IErMin= 7 ErrMin= 9.20D-05
 ErrMax= 9.20D-05  0.00D+00 EMaxC= 1.00D-01 BMatC= 2.31D-05 BMatP= 1.85D-04
 IDIUse=1 WtCom= 1.00D+00 WtEn= 0.00D+00
 Coeff-Com:  0.447D-02-0.980D-02-0.872D-02-0.320D-02 0.108D+00 0.335D+00
 Coeff-Com:  0.574D+00
 Coeff:      0.447D-02-0.980D-02-0.872D-02-0.320D-02 0.108D+00 0.335D+00
 Coeff:      0.574D+00
 Gap=     0.120 Goal=   None    Shift=    0.000
 RMSDP=6.67D-06 MaxDP=1.18D-03 DE=-2.02D-04 OVMax= 3.48D-03

 Cycle   8  Pass 1  IDiag  1:
 RMSU=  4.72D-06    CP:  9.64D-01  1.50D+00  6.87D-01  6.27D-01  8.58D-01
                    CP:  8.60D-01  8.09D-01
 E= -4069.81227609355     Delta-E=       -0.000028503357 Rises=F Damp=F
 DIIS: error= 5.25D-05 at cycle   8 NSaved=   8.
 NSaved= 8 IEnMin= 8 EnMin= -4069.81227609355     IErMin= 8 ErrMin= 5.25D-05
 ErrMax= 5.25D-05  0.00D+00 EMaxC= 1.00D-01 BMatC= 4.84D-06 BMatP= 2.31D-05
 IDIUse=1 WtCom= 1.00D+00 WtEn= 0.00D+00
 Coeff-Com:  0.220D-02-0.436D-02-0.783D-02-0.122D-01-0.107D-01 0.344D-01
 Coeff-Com:  0.331D+00 0.668D+00
 Coeff:      0.220D-02-0.436D-02-0.783D-02-0.122D-01-0.107D-01 0.344D-01
 Coeff:      0.331D+00 0.668D+00
 Gap=     0.121 Goal=   None    Shift=    0.000
 RMSDP=3.32D-06 MaxDP=3.86D-04 DE=-2.85D-05 OVMax= 1.16D-03

 Cycle   9  Pass 1  IDiag  1:
 RMSU=  1.92D-06    CP:  9.64D-01  1.50D+00  6.88D-01  6.28D-01  8.75D-01
                    CP:  8.87D-01  1.00D+00  9.51D-01
 E= -4069.81228383351     Delta-E=       -0.000007739956 Rises=F Damp=F
 DIIS: error= 2.10D-05 at cycle   9 NSaved=   9.
 NSaved= 9 IEnMin= 9 EnMin= -4069.81228383351     IErMin= 9 ErrMin= 2.10D-05
 ErrMax= 2.10D-05  0.00D+00 EMaxC= 1.00D-01 BMatC= 7.14D-07 BMatP= 4.84D-06
 IDIUse=1 WtCom= 1.00D+00 WtEn= 0.00D+00
 Coeff-Com:  0.493D-03-0.828D-03-0.276D-02-0.612D-02-0.214D-01-0.384D-01
 Coeff-Com:  0.998D-01 0.334D+00 0.635D+00
 Coeff:      0.493D-03-0.828D-03-0.276D-02-0.612D-02-0.214D-01-0.384D-01
 Coeff:      0.998D-01 0.334D+00 0.635D+00
 Gap=     0.121 Goal=   None    Shift=    0.000
 RMSDP=1.41D-06 MaxDP=1.50D-04 DE=-7.74D-06 OVMax= 7.58D-04

 Cycle  10  Pass 1  IDiag  1:
 RMSU=  9.38D-07    CP:  9.64D-01  1.50D+00  6.88D-01  6.29D-01  8.79D-01
                    CP:  9.00D-01  1.05D+00  1.11D+00  1.05D+00
 E= -4069.81228542730     Delta-E=       -0.000001593791 Rises=F Damp=F
 DIIS: error= 1.05D-05 at cycle  10 NSaved=  10.
 NSaved=10 IEnMin=10 EnMin= -4069.81228542730     IErMin=10 ErrMin= 1.05D-05
 ErrMax= 1.05D-05  0.00D+00 EMaxC= 1.00D-01 BMatC= 1.65D-07 BMatP= 7.14D-07
 IDIUse=1 WtCom= 1.00D+00 WtEn= 0.00D+00
 Coeff-Com: -0.419D-03 0.880D-03 0.120D-02 0.107D-02-0.386D-02-0.306D-01
 Coeff-Com: -0.441D-01-0.722D-01 0.241D+00 0.908D+00
 Coeff:     -0.419D-03 0.880D-03 0.120D-02 0.107D-02-0.386D-02-0.306D-01
 Coeff:     -0.441D-01-0.722D-01 0.241D+00 0.908D+00
 Gap=     0.121 Goal=   None    Shift=    0.000
 RMSDP=1.21D-06 MaxDP=1.17D-04 DE=-1.59D-06 OVMax= 6.16D-04

 Cycle  11  Pass 1  IDiag  1:
 RMSU=  5.16D-07    CP:  9.64D-01  1.50D+00  6.88D-01  6.29D-01  8.81D-01
                    CP:  9.10D-01  1.10D+00  1.22D+00  1.38D+00  1.36D+00
 E= -4069.81228619539     Delta-E=       -0.000000768090 Rises=F Damp=F
 DIIS: error= 4.18D-06 at cycle  11 NSaved=  11.
 NSaved=11 IEnMin=11 EnMin= -4069.81228619539     IErMin=11 ErrMin= 4.18D-06
 ErrMax= 4.18D-06  0.00D+00 EMaxC= 1.00D-01 BMatC= 6.26D-08 BMatP= 1.65D-07
 IDIUse=1 WtCom= 1.00D+00 WtEn= 0.00D+00
 Coeff-Com: -0.332D-03 0.647D-03 0.133D-02 0.211D-02 0.438D-02-0.858D-02
 Coeff-Com: -0.415D-01-0.130D+00-0.316D-01 0.477D+00 0.727D+00
 Coeff:     -0.332D-03 0.647D-03 0.133D-02 0.211D-02 0.438D-02-0.858D-02
 Coeff:     -0.415D-01-0.130D+00-0.316D-01 0.477D+00 0.727D+00
 Gap=     0.121 Goal=   None    Shift=    0.000
 RMSDP=6.77D-07 MaxDP=6.06D-05 DE=-7.68D-07 OVMax= 3.66D-04

 Cycle  12  Pass 1  IDiag  1:
 RMSU=  2.62D-07    CP:  9.64D-01  1.50D+00  6.88D-01  6.29D-01  8.82D-01
                    CP:  9.12D-01  1.12D+00  1.29D+00  1.54D+00  1.75D+00
                    CP:  1.19D+00
 E= -4069.81228645323     Delta-E=       -0.000000257838 Rises=F Damp=F
 DIIS: error= 2.54D-06 at cycle  12 NSaved=  12.
 NSaved=12 IEnMin=12 EnMin= -4069.81228645323     IErMin=12 ErrMin= 2.54D-06
 ErrMax= 2.54D-06  0.00D+00 EMaxC= 1.00D-01 BMatC= 1.50D-08 BMatP= 6.26D-08
 IDIUse=1 WtCom= 1.00D+00 WtEn= 0.00D+00
 Coeff-Com: -0.935D-05 0.218D-05 0.209D-03 0.548D-03 0.339D-02 0.353D-02
 Coeff-Com:  0.208D-02-0.357D-01-0.692D-01-0.584D-01 0.251D+00 0.902D+00
 Coeff:     -0.935D-05 0.218D-05 0.209D-03 0.548D-03 0.339D-02 0.353D-02
 Coeff:      0.208D-02-0.357D-01-0.692D-01-0.584D-01 0.251D+00 0.902D+00
 Gap=     0.121 Goal=   None    Shift=    0.000
 RMSDP=4.24D-07 MaxDP=2.96D-05 DE=-2.58D-07 OVMax= 2.46D-04

 Cycle  13  Pass 1  IDiag  1:
 RMSU=  1.65D-07    CP:  9.64D-01  1.50D+00  6.88D-01  6.29D-01  8.82D-01
                    CP:  9.12D-01  1.12D+00  1.31D+00  1.65D+00  1.97D+00
                    CP:  1.60D+00  1.25D+00
 E= -4069.81228654216     Delta-E=       -0.000000088930 Rises=F Damp=F
 DIIS: error= 1.31D-06 at cycle  13 NSaved=  13.
 NSaved=13 IEnMin=13 EnMin= -4069.81228654216     IErMin=13 ErrMin= 1.31D-06
 ErrMax= 1.31D-06  0.00D+00 EMaxC= 1.00D-01 BMatC= 8.43D-09 BMatP= 1.50D-08
 IDIUse=1 WtCom= 1.00D+00 WtEn= 0.00D+00
 Coeff-Com:  0.119D-03-0.243D-03-0.363D-03-0.447D-03 0.648D-03 0.484D-02
 Coeff-Com:  0.189D-01 0.227D-01-0.327D-01-0.238D+00-0.161D+00 0.597D+00
 Coeff-Com:  0.789D+00
 Coeff:      0.119D-03-0.243D-03-0.363D-03-0.447D-03 0.648D-03 0.484D-02
 Coeff:      0.189D-01 0.227D-01-0.327D-01-0.238D+00-0.161D+00 0.597D+00
 Coeff:      0.789D+00
 Gap=     0.121 Goal=   None    Shift=    0.000
 RMSDP=3.39D-07 MaxDP=2.19D-05 DE=-8.89D-08 OVMax= 1.95D-04

 Cycle  14  Pass 1  IDiag  1:
 RMSU=  7.60D-08    CP:  9.64D-01  1.50D+00  6.88D-01  6.29D-01  8.82D-01
                    CP:  9.13D-01  1.13D+00  1.34D+00  1.72D+00  2.16D+00
                    CP:  1.86D+00  1.77D+00  1.10D+00
 E= -4069.81228657851     Delta-E=       -0.000000036351 Rises=F Damp=F
 DIIS: error= 6.95D-07 at cycle  14 NSaved=  14.
 NSaved=14 IEnMin=14 EnMin= -4069.81228657851     IErMin=14 ErrMin= 6.95D-07
 ErrMax= 6.95D-07  0.00D+00 EMaxC= 1.00D-01 BMatC= 1.27D-09 BMatP= 8.43D-09
 IDIUse=1 WtCom= 1.00D+00 WtEn= 0.00D+00
 Coeff-Com:  0.676D-04-0.133D-03-0.249D-03-0.390D-03-0.463D-03 0.123D-02
 Coeff-Com:  0.105D-01 0.195D-01 0.434D-02-0.101D+00-0.146D+00 0.925D-01
 Coeff-Com:  0.404D+00 0.716D+00
 Coeff:      0.676D-04-0.133D-03-0.249D-03-0.390D-03-0.463D-03 0.123D-02
 Coeff:      0.105D-01 0.195D-01 0.434D-02-0.101D+00-0.146D+00 0.925D-01
 Coeff:      0.404D+00 0.716D+00
 Gap=     0.121 Goal=   None    Shift=    0.000
 RMSDP=1.04D-07 MaxDP=6.65D-06 DE=-3.64D-08 OVMax= 5.67D-05

 Cycle  15  Pass 1  IDiag  1:
 RMSU=  3.82D-08    CP:  9.64D-01  1.50D+00  6.88D-01  6.29D-01  8.82D-01
                    CP:  9.12D-01  1.13D+00  1.34D+00  1.74D+00  2.20D+00
                    CP:  1.97D+00  1.92D+00  1.34D+00  1.03D+00
 E= -4069.81228658272     Delta-E=       -0.000000004213 Rises=F Damp=F
 DIIS: error= 3.57D-07 at cycle  15 NSaved=  15.
 NSaved=15 IEnMin=15 EnMin= -4069.81228658272     IErMin=15 ErrMin= 3.57D-07
 ErrMax= 3.57D-07  0.00D+00 EMaxC= 1.00D-01 BMatC= 2.30D-10 BMatP= 1.27D-09
 IDIUse=1 WtCom= 1.00D+00 WtEn= 0.00D+00
 Coeff-Com:  0.645D-05-0.111D-04-0.361D-04-0.864D-04-0.297D-03-0.499D-03
 Coeff-Com:  0.125D-02 0.282D-02 0.857D-02 0.356D-03-0.321D-01-0.714D-01
 Coeff-Com:  0.308D-01 0.301D+00 0.760D+00
 Coeff:      0.645D-05-0.111D-04-0.361D-04-0.864D-04-0.297D-03-0.499D-03
 Coeff:      0.125D-02 0.282D-02 0.857D-02 0.356D-03-0.321D-01-0.714D-01
 Coeff:      0.308D-01 0.301D+00 0.760D+00
 Gap=     0.121 Goal=   None    Shift=    0.000
 RMSDP=4.01D-08 MaxDP=2.51D-06 DE=-4.21D-09 OVMax= 2.60D-05

 Cycle  16  Pass 1  IDiag  1:
 RMSU=  1.85D-08    CP:  9.64D-01  1.50D+00  6.88D-01  6.29D-01  8.82D-01
                    CP:  9.12D-01  1.13D+00  1.34D+00  1.75D+00  2.22D+00
                    CP:  1.99D+00  1.98D+00  1.41D+00  1.24D+00  1.14D+00
 E= -4069.81228658331     Delta-E=       -0.000000000589 Rises=F Damp=F
 DIIS: error= 1.72D-07 at cycle  16 NSaved=  16.
 NSaved=16 IEnMin=16 EnMin= -4069.81228658331     IErMin=16 ErrMin= 1.72D-07
 ErrMax= 1.72D-07  0.00D+00 EMaxC= 1.00D-01 BMatC= 8.27D-11 BMatP= 2.30D-10
 IDIUse=1 WtCom= 1.00D+00 WtEn= 0.00D+00
 Coeff-Com: -0.138D-04 0.280D-04 0.452D-04 0.512D-04-0.296D-04-0.619D-03
 Coeff-Com: -0.181D-02-0.414D-02 0.419D-02 0.250D-01 0.205D-01-0.634D-01
 Coeff-Com: -0.811D-01-0.346D-01 0.396D+00 0.740D+00
 Coeff:     -0.138D-04 0.280D-04 0.452D-04 0.512D-04-0.296D-04-0.619D-03
 Coeff:     -0.181D-02-0.414D-02 0.419D-02 0.250D-01 0.205D-01-0.634D-01
 Coeff:     -0.811D-01-0.346D-01 0.396D+00 0.740D+00
 Gap=     0.121 Goal=   None    Shift=    0.000
 RMSDP=2.26D-08 MaxDP=1.59D-06 DE=-5.89D-10 OVMax= 1.37D-05

 Cycle  17  Pass 1  IDiag  1:
 RMSU=  1.04D-08    CP:  9.64D-01  1.50D+00  6.88D-01  6.29D-01  8.82D-01
                    CP:  9.12D-01  1.13D+00  1.34D+00  1.75D+00  2.22D+00
                    CP:  2.01D+00  2.00D+00  1.46D+00  1.34D+00  1.43D+00
                    CP:  1.24D+00
 E= -4069.81228658379     Delta-E=       -0.000000000480 Rises=F Damp=F
 DIIS: error= 1.16D-07 at cycle  17 NSaved=  17.
 NSaved=17 IEnMin=17 EnMin= -4069.81228658379     IErMin=17 ErrMin= 1.16D-07
 ErrMax= 1.16D-07  0.00D+00 EMaxC= 1.00D-01 BMatC= 1.89D-11 BMatP= 8.27D-11
 IDIUse=1 WtCom= 1.00D+00 WtEn= 0.00D+00
 Coeff-Com: -0.757D-05 0.148D-04 0.295D-04 0.434D-04 0.818D-04-0.141D-03
 Coeff-Com: -0.946D-03-0.288D-02 0.958D-04 0.989D-02 0.179D-01-0.892D-02
 Coeff-Com: -0.379D-01-0.101D+00-0.234D-01 0.308D+00 0.839D+00
 Coeff:     -0.757D-05 0.148D-04 0.295D-04 0.434D-04 0.818D-04-0.141D-03
 Coeff:     -0.946D-03-0.288D-02 0.958D-04 0.989D-02 0.179D-01-0.892D-02
 Coeff:     -0.379D-01-0.101D+00-0.234D-01 0.308D+00 0.839D+00
 Gap=     0.121 Goal=   None    Shift=    0.000
 RMSDP=1.35D-08 MaxDP=9.61D-07 DE=-4.80D-10 OVMax= 8.01D-06

 Cycle  18  Pass 1  IDiag  1:
 RMSU=  5.04D-09    CP:  9.64D-01  1.50D+00  6.88D-01  6.29D-01  8.82D-01
                    CP:  9.13D-01  1.13D+00  1.34D+00  1.75D+00  2.22D+00
                    CP:  2.01D+00  2.01D+00  1.48D+00  1.40D+00  1.60D+00
                    CP:  1.64D+00  1.37D+00
 E= -4069.81228658379     Delta-E=        0.000000000000 Rises=F Damp=F
 DIIS: error= 5.69D-08 at cycle  18 NSaved=  18.
 NSaved=18 IEnMin=17 EnMin= -4069.81228658379     IErMin=18 ErrMin= 5.69D-08
 ErrMax= 5.69D-08  0.00D+00 EMaxC= 1.00D-01 BMatC= 7.36D-12 BMatP= 1.89D-11
 IDIUse=1 WtCom= 1.00D+00 WtEn= 0.00D+00
 Coeff-Com:  0.117D-05-0.265D-05-0.137D-05 0.246D-05 0.632D-04 0.149D-03
 Coeff-Com:  0.278D-03-0.637D-04-0.113D-02-0.471D-02 0.142D-02 0.178D-01
 Coeff-Com:  0.143D-01-0.384D-01-0.153D+00-0.147D+00 0.384D+00 0.926D+00
 Coeff:      0.117D-05-0.265D-05-0.137D-05 0.246D-05 0.632D-04 0.149D-03
 Coeff:      0.278D-03-0.637D-04-0.113D-02-0.471D-02 0.142D-02 0.178D-01
 Coeff:      0.143D-01-0.384D-01-0.153D+00-0.147D+00 0.384D+00 0.926D+00
 Gap=     0.121 Goal=   None    Shift=    0.000
 RMSDP=1.08D-08 MaxDP=7.18D-07 DE= 0.00D+00 OVMax= 6.96D-06

 Cycle  19  Pass 1  IDiag  1:
 RMSU=  3.09D-09    CP:  9.64D-01  1.50D+00  6.88D-01  6.29D-01  8.82D-01
                    CP:  9.13D-01  1.13D+00  1.34D+00  1.75D+00  2.23D+00
                    CP:  2.01D+00  2.01D+00  1.49D+00  1.44D+00  1.74D+00
                    CP:  1.94D+00  1.88D+00  1.26D+00
 E= -4069.81228658418     Delta-E=       -0.000000000386 Rises=F Damp=F
 DIIS: error= 4.44D-08 at cycle  19 NSaved=  19.
 NSaved=19 IEnMin=19 EnMin= -4069.81228658418     IErMin=19 ErrMin= 4.44D-08
 ErrMax= 4.44D-08  0.00D+00 EMaxC= 1.00D-01 BMatC= 2.29D-12 BMatP= 7.36D-12
 IDIUse=1 WtCom= 1.00D+00 WtEn= 0.00D+00
 Coeff-Com:  0.315D-05-0.638D-05-0.105D-04-0.128D-04 0.171D-04 0.136D-03
 Coeff-Com:  0.503D-03 0.846D-03-0.673D-03-0.658D-02-0.512D-02 0.139D-01
 Coeff-Com:  0.223D-01 0.884D-02-0.867D-01-0.200D+00-0.251D-01 0.562D+00
 Coeff-Com:  0.715D+00
 Coeff:      0.315D-05-0.638D-05-0.105D-04-0.128D-04 0.171D-04 0.136D-03
 Coeff:      0.503D-03 0.846D-03-0.673D-03-0.658D-02-0.512D-02 0.139D-01
 Coeff:      0.223D-01 0.884D-02-0.867D-01-0.200D+00-0.251D-01 0.562D+00
 Coeff:      0.715D+00
 Gap=     0.121 Goal=   None    Shift=    0.000
 RMSDP=5.65D-09 MaxDP=3.68D-07 DE=-3.86D-10 OVMax= 3.33D-06

 SCF Done:  E(RCAM-B3LYP) =  -4069.81228658     A.U. after   19 cycles
            NFock= 19  Conv=0.57D-08     -V/T= 2.0102
 KE= 4.028802109074D+03 PE=-3.936912057780D+04 EE= 1.632648076788D+04
 Leave Link  502 at Sat Sep  4 05:47:19 2021, MaxMem= 23488102400 cpu:           13609.9 elap:             591.9
 (Enter /sw/apps/gaussian-16.0/g16/l801.exe)
 DoSCS=F DFT=T ScalE2(SS,OS)=  1.000000  1.000000
 ExpMin= 3.36D-02 ExpMax= 4.95D+03 ExpMxC= 7.45D+02 IAcc=3 IRadAn=         5 AccDes= 0.00D+00
 HarFok:  IExCor=  205 AccDes= 0.00D+00 IRadAn=         5 IDoV=-2 UseB2=F ITyADJ=14
 ICtDFT= 12500011 ScaDFX=  1.000000  1.000000  1.000000  1.000000
 GSVD:  LWork=       -9588 too small for GESVD, short by       45590 words or       45590 for optimal perf.
 Largest valence mixing into a core orbital is  2.03D-04
 Largest core mixing into a valence orbital is  5.24D-05
 Range of M.O.s used for correlation:    95  1572
 NBasis=  1572 NAE=   312 NBE=   312 NFC=    94 NFV=     0
 NROrb=   1478 NOA=   218 NOB=   218 NVA=  1260 NVB=  1260
 Leave Link  801 at Sat Sep  4 05:47:20 2021, MaxMem= 23488102400 cpu:               9.1 elap:               0.4
 (Enter /sw/apps/gaussian-16.0/g16/l914.exe)
 RHF ground state
 Two-electron integrals replicated using symmetry.
 MDV= 23488102400 DFT=T DoStab=F Mixed=T DoRPA=T DoScal=F NonHer=T
 Making orbital integer symmetry assigments:
 Orbital symmetries:
       Occupied  (A) (A) (A) (A) (A) (A) (A) (A) (A) (A) (A) (A)
                 (A) (A) (A) (A) (A) (A) (A) (A) (A) (A) (A) (A)
                 (A) (A) (A) (A) (A) (A) (A) (A) (A) (A) (A) (A)
                 (A) (A) (A) (A) (A) (A) (A) (A) (A) (A) (A) (A)
                 (A) (A) (A) (A) (A) (A) (A) (A) (A) (A) (A) (A)
                 (A) (A) (A) (A) (A) (A) (A) (A) (A) (A) (A) (A)
                 (A) (A) (A) (A) (A) (A) (A) (A) (A) (A) (A) (A)
                 (A) (A) (A) (A) (A) (A) (A) (A) (A) (A) (A) (A)
                 (A) (A) (A) (A) (A) (A) (A) (A) (A) (A) (A) (A)
                 (A) (A) (A) (A) (A) (A) (A) (A) (A) (A) (A) (A)
                 (A) (A) (A) (A) (A) (A) (A) (A) (A) (A) (A) (A)
                 (A) (A) (A) (A) (A) (A) (A) (A) (A) (A) (A) (A)
                 (A) (A) (A) (A) (A) (A) (A) (A) (A) (A) (A) (A)
                 (A) (A) (A) (A) (A) (A) (A) (A) (A) (A) (A) (A)
                 (A) (A) (A) (A) (A) (A) (A) (A) (A) (A) (A) (A)
                 (A) (A) (A) (A) (A) (A) (A) (A) (A) (A) (A) (A)
                 (A) (A) (A) (A) (A) (A) (A) (A) (A) (A) (A) (A)
                 (A) (A) (A) (A) (A) (A) (A) (A) (A) (A) (A) (A)
                 (A) (A) (A) (A) (A) (A) (A) (A) (A) (A) (A) (A)
                 (A) (A) (A) (A) (A) (A) (A) (A) (A) (A) (A) (A)
                 (A) (A) (A) (A) (A) (A) (A) (A) (A) (A) (A) (A)
                 (A) (A) (A) (A) (A) (A) (A) (A) (A) (A) (A) (A)
                 (A) (A) (A) (A) (A) (A) (A) (A) (A) (A) (A) (A)
                 (A) (A) (A) (A) (A) (A) (A) (A) (A) (A) (A) (A)
                 (A) (A) (A) (A) (A) (A) (A) (A) (A) (A) (A) (A)
                 (A) (A) (A) (A) (A) (A) (A) (A) (A) (A) (A) (A)
       Virtual   (A) (A) (A) (A) (A) (A) (A) (A) (A) (A) (A) (A)
                 (A) (A) (A) (A) (A) (A) (A) (A) (A) (A) (A) (A)
                 (A) (A) (A) (A) (A) (A) (A) (A) (A) (A) (A) (A)
                 (A) (A) (A) (A) (A) (A) (A) (A) (A) (A) (A) (A)
                 (A) (A) (A) (A) (A) (A) (A) (A) (A) (A) (A) (A)
                 (A) (A) (A) (A) (A) (A) (A) (A) (A) (A) (A) (A)
                 (A) (A) (A) (A) (A) (A) (A) (A) (A) (A) (A) (A)
                 (A) (A) (A) (A) (A) (A) (A) (A) (A) (A) (A) (A)
                 (A) (A) (A) (A) (A) (A) (A) (A) (A) (A) (A) (A)
                 (A) (A) (A) (A) (A) (A) (A) (A) (A) (A) (A) (A)
                 (A) (A) (A) (A) (A) (A) (A) (A) (A) (A) (A) (A)
                 (A) (A) (A) (A) (A) (A) (A) (A) (A) (A) (A) (A)
                 (A) (A) (A) (A) (A) (A) (A) (A) (A) (A) (A) (A)
                 (A) (A) (A) (A) (A) (A) (A) (A) (A) (A) (A) (A)
                 (A) (A) (A) (A) (A) (A) (A) (A) (A) (A) (A) (A)
                 (A) (A) (A) (A) (A) (A) (A) (A) (A) (A) (A) (A)
                 (A) (A) (A) (A) (A) (A) (A) (A) (A) (A) (A) (A)
                 (A) (A) (A) (A) (A) (A) (A) (A) (A) (A) (A) (A)
                 (A) (A) (A) (A) (A) (A) (A) (A) (A) (A) (A) (A)
                 (A) (A) (A) (A) (A) (A) (A) (A) (A) (A) (A) (A)
                 (A) (A) (A) (A) (A) (A) (A) (A) (A) (A) (A) (A)
                 (A) (A) (A) (A) (A) (A) (A) (A) (A) (A) (A) (A)
                 (A) (A) (A) (A) (A) (A) (A) (A) (A) (A) (A) (A)
                 (A) (A) (A) (A) (A) (A) (A) (A) (A) (A) (A) (A)
                 (A) (A) (A) (A) (A) (A) (A) (A) (A) (A) (A) (A)
                 (A) (A) (A) (A) (A) (A) (A) (A) (A) (A) (A) (A)
                 (A) (A) (A) (A) (A) (A) (A) (A) (A) (A) (A) (A)
                 (A) (A) (A) (A) (A) (A) (A) (A) (A) (A) (A) (A)
                 (A) (A) (A) (A) (A) (A) (A) (A) (A) (A) (A) (A)
                 (A) (A) (A) (A) (A) (A) (A) (A) (A) (A) (A) (A)
                 (A) (A) (A) (A) (A) (A) (A) (A) (A) (A) (A) (A)
                 (A) (A) (A) (A) (A) (A) (A) (A) (A) (A) (A) (A)
                 (A) (A) (A) (A) (A) (A) (A) (A) (A) (A) (A) (A)
                 (A) (A) (A) (A) (A) (A) (A) (A) (A) (A) (A) (A)
                 (A) (A) (A) (A) (A) (A) (A) (A) (A) (A) (A) (A)
                 (A) (A) (A) (A) (A) (A) (A) (A) (A) (A) (A) (A)
                 (A) (A) (A) (A) (A) (A) (A) (A) (A) (A) (A) (A)
                 (A) (A) (A) (A) (A) (A) (A) (A) (A) (A) (A) (A)
                 (A) (A) (A) (A) (A) (A) (A) (A) (A) (A) (A) (A)
                 (A) (A) (A) (A) (A) (A) (A) (A) (A) (A) (A) (A)
                 (A) (A) (A) (A) (A) (A) (A) (A) (A) (A) (A) (A)
                 (A) (A) (A) (A) (A) (A) (A) (A) (A) (A) (A) (A)
                 (A) (A) (A) (A) (A) (A) (A) (A) (A) (A) (A) (A)
                 (A) (A) (A) (A) (A) (A) (A) (A) (A) (A) (A) (A)
                 (A) (A) (A) (A) (A) (A) (A) (A) (A) (A) (A) (A)
                 (A) (A) (A) (A) (A) (A) (A) (A) (A) (A) (A) (A)
                 (A) (A) (A) (A) (A) (A) (A) (A) (A) (A) (A) (A)
                 (A) (A) (A) (A) (A) (A) (A) (A) (A) (A) (A) (A)
                 (A) (A) (A) (A) (A) (A) (A) (A) (A) (A) (A) (A)
                 (A) (A) (A) (A) (A) (A) (A) (A) (A) (A) (A) (A)
                 (A) (A) (A) (A) (A) (A) (A) (A) (A) (A) (A) (A)
                 (A) (A) (A) (A) (A) (A) (A) (A) (A) (A) (A) (A)
                 (A) (A) (A) (A) (A) (A) (A) (A) (A) (A) (A) (A)
                 (A) (A) (A) (A) (A) (A) (A) (A) (A) (A) (A) (A)
                 (A) (A) (A) (A) (A) (A) (A) (A) (A) (A) (A) (A)
                 (A) (A) (A) (A) (A) (A) (A) (A) (A) (A) (A) (A)
                 (A) (A) (A) (A) (A) (A) (A) (A) (A) (A) (A) (A)
                 (A) (A) (A) (A) (A) (A) (A) (A) (A) (A) (A) (A)
                 (A) (A) (A) (A) (A) (A) (A) (A) (A) (A) (A) (A)
                 (A) (A) (A) (A) (A) (A) (A) (A) (A) (A) (A) (A)
                 (A) (A) (A) (A) (A) (A) (A) (A) (A) (A) (A) (A)
                 (A) (A) (A) (A) (A) (A) (A) (A) (A) (A) (A) (A)
                 (A) (A) (A) (A) (A) (A) (A) (A) (A) (A) (A) (A)
                 (A) (A) (A) (A) (A) (A) (A) (A) (A) (A) (A) (A)
                 (A) (A) (A) (A) (A) (A) (A) (A) (A) (A) (A) (A)
                 (A) (A) (A) (A) (A) (A) (A) (A) (A) (A) (A) (A)
                 (A) (A) (A) (A) (A) (A) (A) (A) (A) (A) (A) (A)
                 (A) (A) (A) (A) (A) (A) (A) (A) (A) (A) (A) (A)
                 (A) (A) (A) (A) (A) (A) (A) (A) (A) (A) (A) (A)
                 (A) (A) (A) (A) (A) (A) (A) (A) (A) (A) (A) (A)
                 (A) (A) (A) (A) (A) (A) (A) (A) (A) (A) (A) (A)
                 (A) (A) (A) (A) (A) (A) (A) (A) (A) (A) (A) (A)
                 (A) (A) (A) (A) (A) (A) (A) (A) (A) (A) (A) (A)
                 (A) (A) (A) (A) (A) (A) (A) (A) (A) (A) (A) (A)
                 (A) (A) (A) (A) (A) (A) (A) (A) (A) (A) (A) (A)
                 (A) (A) (A) (A) (A) (A) (A) (A) (A) (A) (A) (A)
                 (A) (A) (A) (A) (A) (A) (A) (A) (A) (A) (A) (A)
                 (A) (A) (A) (A) (A) (A) (A) (A) (A) (A) (A) (A)
                 (A) (A) (A) (A) (A) (A) (A) (A) (A) (A) (A) (A)
                 (A) (A) (A) (A) (A) (A) (A) (A) (A) (A) (A) (A)
                 (A) (A) (A) (A) (A) (A) (A) (A) (A) (A) (A) (A)
                 (A) (A) (A) (A) (A) (A) (A) (A) (A) (A) (A) (A)
                 (A) (A) (A) (A) (A) (A) (A) (A) (A) (A) (A) (A)
                 (A) (A) (A) (A) (A) (A) (A) (A) (A) (A) (A) (A)
                 (A) (A) (A) (A) (A) (A) (A) (A) (A) (A) (A) (A)
                 (A) (A) (A) (A) (A) (A) (A) (A) (A) (A) (A) (A)
                 (A) (A) (A) (A) (A) (A) (A) (A) (A) (A) (A) (A)
                 (A) (A) (A) (A) (A) (A) (A) (A) (A) (A) (A) (A)
                 (A) (A) (A) (A) (A) (A) (A) (A) (A) (A) (A) (A)
                 (A) (A) (A) (A) (A) (A) (A) (A) (A) (A) (A) (A)
                 (A) (A) (A) (A) (A) (A) (A) (A) (A) (A) (A) (A)
                 (A) (A) (A) (A) (A) (A) (A) (A) (A) (A) (A) (A)
                 (A) (A) (A) (A) (A) (A) (A) (A) (A) (A) (A) (A)
                 (A) (A) (A) (A) (A) (A) (A) (A) (A) (A) (A) (A)
                 (A) (A) (A) (A) (A) (A) (A) (A) (A) (A) (A) (A)
                 (A) (A) (A) (A) (A) (A) (A) (A) (A) (A) (A) (A)
                 (A) (A) (A) (A) (A) (A) (A) (A) (A) (A) (A) (A)
                 (A) (A) (A) (A) (A) (A) (A) (A) (A) (A) (A) (A)
                 (A) (A) (A) (A) (A) (A) (A) (A) (A) (A) (A) (A)
                 (A) (A) (A) (A) (A) (A) (A) (A) (A) (A) (A) (A)
                 (A) (A) (A) (A) (A) (A) (A) (A) (A) (A) (A) (A)
                 (A) (A) (A) (A) (A) (A) (A) (A) (A) (A) (A) (A)
                 (A) (A) (A) (A) (A) (A) (A) (A) (A) (A) (A) (A)
                 (A) (A) (A) (A) (A) (A) (A) (A) (A) (A) (A) (A)
                 (A) (A) (A) (A) (A) (A) (A) (A) (A) (A) (A) (A)
    20 initial guesses have been made.
 Convergence on wavefunction:    0.001000000000000
 Davidson Disk Diagonalization:  ConvIn= 1.00D-03 SkipCon=T Conv= 1.00D-03.
 Max sub-space:  2000 roots to seek:    20 dimension of matrix:       549360
 Iteration     1 Dimension    20 NMult     0 NNew     20
 CISAX will form    20 AO SS matrices at one time.
 NMat=    20 NSing=    20 JSym2X= 0.
 FoFJK:  IHMeth= 1 ICntrl=       0 DoSepK=T KAlg= 0 I1Cent=           0 FoldK=F
 IRaf=         1 NMat=      40 IRICut=       1 DoRegI=T DoRafI=F ISym2E= 0 IDoP0=3 IntGTp=3.
 FoFCou: FMM=T IPFlag=           0 FMFlag=      100000 FMFlg1=        2001
         NFxFlg=           0 DoJE=F BraDBF=F KetDBF=F FulRan=T
         wScrn=  0.000000 ICntrl=       500 IOpCl=  0 I1Cent=           0 NGrid=           0
         NMat0=   20 NMatS0=     20 NMatT0=    0 NMatD0=   20 NMtDS0=    0 NMtDT0=    0
 Symmetry not used in FoFCou.
 FMM levels:  10  Number of levels for PrismC:   9
 New state      2 was old state      7
 New state      3 was old state      6
 New state      5 was old state      2
 Excitation Energies [eV] at current iteration:
 Root      1 :     2.475609385696105
 Root      2 :     2.611525949192285
 Root      3 :     2.620149187704065
 Root      4 :     2.629307551740661
 Root      5 :     2.665214089269564
 Root      6 :     2.705383488631934
 Root      7 :     3.261355814918117
 Root      8 :     3.428722286720785
 Root      9 :     3.629244533038263
 Root     10 :     3.672019286238547
 Root     11 :     3.739507854034139
 Root     12 :     3.758321542710768
 Root     13 :     4.283456565731340
 Root     14 :     4.321812587459688
 Root     15 :     4.380514431283228
 Root     16 :     4.563372408439522
 Root     17 :     4.706878670164606
 Root     18 :     4.743603053222442
 Root     19 :     4.856581506028647
 Root     20 :     4.857759180281962
 Iteration     2 Dimension    30 NMult    20 NNew     10
 CISAX will form    10 AO SS matrices at one time.
 NMat=    10 NSing=    10 JSym2X= 0.
 New state      1 was old state      5
 Root      1 not converged, maximum delta is    0.170077317631316
 Root      2 not converged, maximum delta is    0.098398620929977
 Root      3 not converged, maximum delta is    0.124552035753940
 New state      4 was old state      1
 Root      4 not converged, maximum delta is    0.002272136094826
 New state      5 was old state      4
 Root      5 not converged, maximum delta is    0.004311432522767
 Excitation Energies [eV] at current iteration:
 Root      1 :     1.792629367855349   Change is   -0.872584721414215
 Root      2 :     2.203263965953947   Change is   -0.408261983238338
 Root      3 :     2.238899442987108   Change is   -0.381249744716956
 Root      4 :     2.475177100350500   Change is   -0.000432285345605
 Root      5 :     2.628764797815339   Change is   -0.000542753925322
 Iteration     3 Dimension    40 NMult    30 NNew     10
 CISAX will form    10 AO SS matrices at one time.
 NMat=    10 NSing=    10 JSym2X= 0.
 Root      1 not converged, maximum delta is    0.057787850558326
 Root      2 not converged, maximum delta is    0.358806524392123
 Root      3 not converged, maximum delta is    0.113344764503795
 No map to state      4
 New state      5 was old state      4
 Root      5 has converged.
 Excitation Energies [eV] at current iteration:
 Root      1 :     1.686102495916947   Change is   -0.106526871938402
 Root      2 :     1.898142970641601   Change is   -0.305120995312345
 Root      3 :     2.195152842155861   Change is   -0.043746600831247
 Root      4 :     2.247424231837877
 Root      5 :     2.475174492422382   Change is   -0.000002607928117
 Iteration     4 Dimension    48 NMult    40 NNew      8
 CISAX will form     8 AO SS matrices at one time.
 NMat=     8 NSing=     8 JSym2X= 0.
 Root      1 not converged, maximum delta is    0.013325879185274
 Root      2 not converged, maximum delta is    0.141982705350036
 Root      3 not converged, maximum delta is    0.278973445941545
 Root      4 not converged, maximum delta is    0.262309543903142
 Root      5 has converged.
 Excitation Energies [eV] at current iteration:
 Root      1 :     1.669345231811713   Change is   -0.016757264105234
 Root      2 :     1.703729970671463   Change is   -0.194412999970138
 Root      3 :     2.184950769407505   Change is   -0.010202072748356
 Root      4 :     2.196369666252151   Change is   -0.051054565585726
 Root      5 :     2.475174491624644   Change is   -0.000000000797739
 Iteration     5 Dimension    56 NMult    48 NNew      8
 CISAX will form     8 AO SS matrices at one time.
 NMat=     8 NSing=     8 JSym2X= 0.
 Root      1 not converged, maximum delta is    0.004378226694048
 Root      2 not converged, maximum delta is    0.011649524273858
 Root      3 not converged, maximum delta is    0.039094358402298
 Root      4 not converged, maximum delta is    0.038709350280929
 Root      5 has converged.
 Excitation Energies [eV] at current iteration:
 Root      1 :     1.667560967104757   Change is   -0.001784264706956
 Root      2 :     1.687111281540336   Change is   -0.016618689131127
 Root      3 :     2.183653587753058   Change is   -0.001297181654446
 Root      4 :     2.194264395461861   Change is   -0.002105270790290
 Root      5 :     2.475174491250336   Change is   -0.000000000374308
 Iteration     6 Dimension    64 NMult    56 NNew      8
 CISAX will form     8 AO SS matrices at one time.
 NMat=     8 NSing=     8 JSym2X= 0.
 Root      1 not converged, maximum delta is    0.002621536675000
 Root      2 not converged, maximum delta is    0.004501399778131
 Root      3 not converged, maximum delta is    0.009866164561212
 Root      4 not converged, maximum delta is    0.009879200211810
 Root      5 has converged.
 Excitation Energies [eV] at current iteration:
 Root      1 :     1.667305579269975   Change is   -0.000255387834782
 Root      2 :     1.684088698433554   Change is   -0.003022583106782
 Root      3 :     2.183412690536316   Change is   -0.000240897216742
 Root      4 :     2.193862006434484   Change is   -0.000402389027377
 Root      5 :     2.475174491084637   Change is   -0.000000000165699
 Iteration     7 Dimension    72 NMult    64 NNew      8
 CISAX will form     8 AO SS matrices at one time.
 NMat=     8 NSing=     8 JSym2X= 0.
 Root      1 has converged.
 Root      2 not converged, maximum delta is    0.001442856928106
 Root      3 has converged.
 Root      4 has converged.
 Root      5 has converged.
 Excitation Energies [eV] at current iteration:
 Root      1 :     1.667280160331074   Change is   -0.000025418938901
 Root      2 :     1.683814861073864   Change is   -0.000273837359690
 Root      3 :     2.183380520818275   Change is   -0.000032169718041
[...]
 Alpha virt. eigenvalues --    1.84445   1.84636   1.84750   1.84970   1.85038
 Alpha virt. eigenvalues --    1.85215   1.85250   1.85429   1.85453   1.85644
 Alpha virt. eigenvalues --    1.85808   1.86050   1.86313   1.86500   1.86510
 Alpha virt. eigenvalues --    1.86724   1.86785   1.86929   1.86958   1.87167
 Alpha virt. eigenvalues --    1.87377   1.87593   1.87640   1.87810   1.87913
 Alpha virt. eigenvalues --    1.87981   1.88135   1.88323   1.88475   1.88745
 Alpha virt. eigenvalues --    1.88754   1.89083   1.89112   1.89293   1.89576
 Alpha virt. eigenvalues --    1.89695   1.89799   1.89982   1.90052   1.90348
 Alpha virt. eigenvalues --    1.90670   1.91063   1.91267   1.91383   1.91535
 Alpha virt. eigenvalues --    1.91849   1.92086   1.92382   1.92519   1.92845
 Alpha virt. eigenvalues --    1.92925   1.93296   1.93299   1.93614   1.94230
 Alpha virt. eigenvalues --    1.94423   1.94640   1.94927   1.95441   1.95641
 Alpha virt. eigenvalues --    1.95689   1.95899   1.95993   1.96110   1.96204
 Alpha virt. eigenvalues --    1.96339   1.96531   1.96627   1.96839   1.97103
 Alpha virt. eigenvalues --    1.97387   1.97673   1.97780   1.97957   1.98089
 Alpha virt. eigenvalues --    1.98355   1.98518   1.98535   1.99053   1.99229
 Alpha virt. eigenvalues --    1.99725   2.00130   2.00606   2.00868   2.00908
 Alpha virt. eigenvalues --    2.01244   2.01357   2.01609   2.01612   2.01630
 Alpha virt. eigenvalues --    2.01767   2.02007   2.02708   2.02855   2.03179
 Alpha virt. eigenvalues --    2.03262   2.03312   2.03381   2.03535   2.03669
 Alpha virt. eigenvalues --    2.03956   2.04170   2.04904   2.05094   2.05458
 Alpha virt. eigenvalues --    2.05740   2.06014   2.06404   2.06780   2.07116
 Alpha virt. eigenvalues --    2.07196   2.07481   2.08547   2.08620   2.08909
 Alpha virt. eigenvalues --    2.09162   2.09498   2.09757   2.10751   2.11113
 Alpha virt. eigenvalues --    2.11127   2.11432   2.11539   2.11661   2.11714
 Alpha virt. eigenvalues --    2.12035   2.12380   2.12649   2.12745   2.12773
 Alpha virt. eigenvalues --    2.12940   2.13044   2.13653   2.13893   2.14099
 Alpha virt. eigenvalues --    2.14353   2.15270   2.15527   2.15841   2.16266
 Alpha virt. eigenvalues --    2.16475   2.16684   2.16749   2.17301   2.17346
 Alpha virt. eigenvalues --    2.17643   2.17741   2.18019   2.18097   2.18163
 Alpha virt. eigenvalues --    2.18218   2.18761   2.18837   2.19435   2.19554
 Alpha virt. eigenvalues --    2.19956   2.19998   2.20132   2.20385   2.20615
 Alpha virt. eigenvalues --    2.21126   2.21257   2.21602   2.21651   2.21900
 Alpha virt. eigenvalues --    2.22001   2.22620   2.22870   2.23258   2.23455
 Alpha virt. eigenvalues --    2.24343   2.24520   2.24938   2.25091   2.26198
 Alpha virt. eigenvalues --    2.26601   2.26717   2.27008   2.27147   2.27357
 Alpha virt. eigenvalues --    2.28061   2.28541   2.29209   2.29606   2.29648
 Alpha virt. eigenvalues --    2.30053   2.30357   2.30813   2.30971   2.31013
 Alpha virt. eigenvalues --    2.31078   2.31335   2.32071   2.32346   2.33045
 Alpha virt. eigenvalues --    2.33385   2.33411   2.33610   2.34084   2.34286
 Alpha virt. eigenvalues --    2.35244   2.35450   2.35716   2.36106   2.36319
 Alpha virt. eigenvalues --    2.36462   2.36538   2.36555   2.37621   2.37781
 Alpha virt. eigenvalues --    2.38214   2.38473   2.38752   2.38998   2.39537
 Alpha virt. eigenvalues --    2.39810   2.40125   2.40370   2.40393   2.41025
 Alpha virt. eigenvalues --    2.41161   2.41404   2.41641   2.41802   2.41924
 Alpha virt. eigenvalues --    2.42274   2.42905   2.42911   2.43218   2.43341
 Alpha virt. eigenvalues --    2.44071   2.44109   2.44658   2.44826   2.44937
 Alpha virt. eigenvalues --    2.45152   2.45487   2.45698   2.46248   2.46402
 Alpha virt. eigenvalues --    2.46410   2.46605   2.46711   2.46938   2.47186
 Alpha virt. eigenvalues --    2.47479   2.47648   2.47997   2.49268   2.49471
 Alpha virt. eigenvalues --    2.49988   2.50035   2.50515   2.50561   2.51018
 Alpha virt. eigenvalues --    2.51431   2.51722   2.51792   2.52329   2.52573
 Alpha virt. eigenvalues --    2.52727   2.53360   2.53859   2.54089   2.54107
 Alpha virt. eigenvalues --    2.54346   2.54722   2.54912   2.55459   2.55776
 Alpha virt. eigenvalues --    2.57804   2.58199   2.58586   2.59049   2.60095
 Alpha virt. eigenvalues --    2.60468   2.60517   2.61121   2.61654   2.61946
 Alpha virt. eigenvalues --    2.62445   2.62569   2.62878   2.63258   2.63859
 Alpha virt. eigenvalues --    2.64212   2.64411   2.64506   2.65010   2.65232
 Alpha virt. eigenvalues --    2.65688   2.66048   2.66731   2.66848   2.66921
 Alpha virt. eigenvalues --    2.67239   2.67847   2.68130   2.68771   2.68925
 Alpha virt. eigenvalues --    2.68926   2.69189   2.69340   2.69748   2.69928
 Alpha virt. eigenvalues --    2.70259   2.70898   2.71237   2.71944   2.72011
 Alpha virt. eigenvalues --    2.72546   2.72613   2.72676   2.72909   2.73239
 Alpha virt. eigenvalues --    2.73349   2.73368   2.73597   2.74430   2.74618
 Alpha virt. eigenvalues --    2.74888   2.75180   2.76533   2.76632   2.77139
 Alpha virt. eigenvalues --    2.77178   2.77383   2.77718   2.78133   2.78370
 Alpha virt. eigenvalues --    2.78623   2.78793   2.79055   2.79295   2.80258
 Alpha virt. eigenvalues --    2.80334   2.80467   2.80818   2.81024   2.81247
 Alpha virt. eigenvalues --    2.81847   2.82113   2.82279   2.82449   2.83639
 Alpha virt. eigenvalues --    2.83712   2.83919   2.84019   2.84483   2.84607
 Alpha virt. eigenvalues --    2.84833   2.84963   2.85610   2.85770   2.86752
 Alpha virt. eigenvalues --    2.86900   2.87304   2.87458   2.88096   2.88306
 Alpha virt. eigenvalues --    2.88442   2.88728   2.88865   2.88957   2.90412
 Alpha virt. eigenvalues --    2.90811   2.91143   2.91185   2.93066   2.93467
 Alpha virt. eigenvalues --    2.93895   2.94130   2.94514   2.94636   2.95255
 Alpha virt. eigenvalues --    2.95680   2.95988   2.96033   2.96379   2.96476
 Alpha virt. eigenvalues --    2.97006   2.97028   2.97683   2.98095   2.98136
 Alpha virt. eigenvalues --    2.98304   2.98527   2.98531   2.98711   2.98822
 Alpha virt. eigenvalues --    2.98905   2.99022   2.99555   2.99859   2.99895
 Alpha virt. eigenvalues --    3.00142   3.00149   3.00363   3.00415   3.01176
 Alpha virt. eigenvalues --    3.01944   3.01952   3.02036   3.02291   3.02579
 Alpha virt. eigenvalues --    3.02872   3.02920   3.03273   3.03473   3.03929
 Alpha virt. eigenvalues --    3.04125   3.04241   3.04385   3.04498   3.04547
 Alpha virt. eigenvalues --    3.04813   3.05262   3.05429   3.06043   3.06266
 Alpha virt. eigenvalues --    3.06700   3.07113   3.08001   3.08105   3.09293
 Alpha virt. eigenvalues --    3.09409   3.09605   3.10357   3.10640   3.10921
 Alpha virt. eigenvalues --    3.11294   3.11537   3.11823   3.11954   3.12167
 Alpha virt. eigenvalues --    3.12495   3.13183   3.13599   3.13750   3.13806
 Alpha virt. eigenvalues --    3.13924   3.14607   3.15907   3.16034   3.17187
 Alpha virt. eigenvalues --    3.17612   3.17918   3.18033   3.19073   3.19099
 Alpha virt. eigenvalues --    3.22127   3.22713   3.23869   3.24534   3.24560
 Alpha virt. eigenvalues --    3.25287   3.26433   3.26755   3.27502   3.27542
 Alpha virt. eigenvalues --    3.28910   3.29338   3.31445   3.31478   3.33287
 Alpha virt. eigenvalues --    3.33351   3.40384   3.40418   3.42760   3.42879
 Alpha virt. eigenvalues --    3.48570   3.48790   3.49954   3.50389   3.50950
 Alpha virt. eigenvalues --    3.51406   3.56486   3.57089   3.59044   3.59425
 Alpha virt. eigenvalues --    3.62605   3.62753   3.66133   3.66144   3.66993
 Alpha virt. eigenvalues --    3.67662   3.73097   3.74126   3.75906   3.76779
          Condensed to atoms (all electrons):
 Mulliken charges:
               1
     1  Mg   0.838697
     2  C   -0.003634
     3  C   -0.094175
     4  C   -0.045729
     5  C   -0.063502
     6  N   -0.256812
     7  C   -0.052686
     8  C   -0.014044
     9  C   -0.087016
    10  C    0.046240
    11  C    0.104746
    12  C    0.053554
    13  C   -0.071303
    14  H    0.034038
    15  N   -0.433208
    16  C    0.168550
    17  C   -0.176883
    18  C   -0.003762
    19  C    0.148763
    20  C    0.110038
    21  C    0.012298
    22  O   -0.249575
    23  C    0.062351
    24  N   -0.341137
    25  C    0.041416
    26  C   -0.028243
    27  C   -0.024040
    28  C    0.074731
    29  C    0.076109
    30  C    0.035002
    31  C   -0.004687
    32  N   -0.310356
    33  C    0.080154
    34  C   -0.169645
    35  C    0.008077
    36  C    0.082683
    37  C    0.127362
    38  C    0.045581
    39  O   -0.188972
    40  C   -0.005203
    41  C    0.213103
    42  O   -0.259045
    43  O   -0.304179
    44  C    0.158217
    45  H   -0.017435
    46  H   -0.016612
    47  H   -0.040892
    48  H    0.000884
    49  H   -0.004063
    50  H    0.025514
    51  H    0.016771
    52  H    0.016828
    53  H    0.011379
    54  H    0.042763
    55  H    0.018427
    56  H    0.018373
    57  H    0.005875
    58  H    0.027061
    59  H    0.040189
    60  H    0.037534
    61  H    0.035715
    62  H    0.031948
    63  H    0.016634
    64  H    0.009710
    65  H    0.023402
    66  H    0.012487
    67  H    0.005041
    68  H    0.006673
    69  H    0.005402
    70  H    0.008331
    71  H    0.019488
    72  H    0.028519
    73  H    0.047310
    74  H    0.009845
    75  H    0.046141
    76  H    0.035424
    77  H    0.043298
    78  H    0.046495
    79  H    0.051667
    80  Mg   0.837837
    81  C   -0.016843
    82  C   -0.087343
    83  C   -0.046254
    84  C   -0.065137
    85  N   -0.254865
    86  C   -0.048856
    87  C   -0.015296
    88  C   -0.090567
    89  C    0.045948
    90  C    0.114402
    91  C    0.062416
    92  C   -0.077737
    93  H    0.033634
    94  N   -0.423495
    95  C    0.162891
    96  C   -0.174655
    97  C   -0.008567
    98  C    0.152399
    99  C    0.099550
   100  C    0.015040
   101  O   -0.254020
   102  C    0.061388
   103  N   -0.350117
   104  C    0.037650
   105  C   -0.019755
   106  C   -0.034872
   107  C    0.088982
   108  C    0.073687
   109  C    0.034866
   110  C   -0.007578
   111  N   -0.324077
   112  C    0.078550
   113  C   -0.163522
   114  C    0.002216
   115  C    0.096181
   116  C    0.131573
   117  C    0.042020
   118  O   -0.188408
   119  C    0.001125
   120  C    0.211180
   121  O   -0.251455
   122  O   -0.305118
   123  C    0.152240
   124  H   -0.018335
   125  H   -0.016537
   126  H   -0.040898
   127  H    0.000714
   128  H   -0.004892
   129  H    0.023684
   130  H    0.014785
   131  H    0.022147
   132  H    0.013255
   133  H    0.036920
   134  H    0.022359
   135  H    0.019412
   136  H    0.009347
   137  H    0.025168
   138  H    0.039223
   139  H    0.037674
   140  H    0.035621
   141  H    0.033999
   142  H    0.013895
   143  H    0.012714
   144  H    0.024090
   145  H    0.011012
   146  H    0.006444
   147  H    0.005847
   148  H    0.003545
   149  H    0.010605
   150  H    0.017584
   151  H    0.030345
   152  H    0.045642
   153  H    0.008262
   154  H    0.046384
   155  H    0.036097
   156  H    0.043676
   157  H    0.049954
   158  H    0.053021
 Sum of Mulliken charges =  -0.00000
 Mulliken charges with hydrogens summed into heavy atoms:
               1
     1  Mg   0.838697
     2  C   -0.003634
     3  C   -0.111610
     4  C   -0.062341
     5  C   -0.104395
     6  N   -0.256812
     7  C   -0.052686
     8  C   -0.013160
     9  C   -0.091078
    10  C    0.046240
    11  C    0.163859
    12  C    0.107696
    13  C   -0.000466
    15  N   -0.433208
    16  C    0.168550
    17  C   -0.176883
    18  C   -0.003762
    19  C    0.148763
    20  C    0.183163
    21  C    0.012298
    22  O   -0.249575
    23  C    0.167548
    24  N   -0.341137
    25  C    0.041416
    26  C   -0.011609
    27  C   -0.014329
    28  C    0.074731
    29  C    0.117039
    30  C    0.047076
    31  C    0.051651
    32  N   -0.310356
    33  C    0.080154
    34  C   -0.169645
    35  C    0.008077
    36  C    0.082683
    37  C    0.230657
    38  C    0.045581
    39  O   -0.188972
    40  C    0.030221
    41  C    0.213103
    42  O   -0.259045
    43  O   -0.304179
    44  C    0.299676
    80  Mg   0.837837
    81  C   -0.016843
    82  C   -0.105678
    83  C   -0.062791
    84  C   -0.106035
    85  N   -0.254865
    86  C   -0.048856
    87  C   -0.014582
    88  C   -0.095459
    89  C    0.045948
    90  C    0.175018
    91  C    0.112591
    92  C   -0.002332
    94  N   -0.423495
    95  C    0.162891
    96  C   -0.174655
    97  C   -0.008567
    98  C    0.152399
    99  C    0.173288
   100  C    0.015040
   101  O   -0.254020
   102  C    0.168682
   103  N   -0.350117
   104  C    0.037650
   105  C   -0.005860
   106  C   -0.022158
   107  C    0.088982
   108  C    0.115234
   109  C    0.044258
   110  C    0.050955
   111  N   -0.324077
   112  C    0.078550
   113  C   -0.163522
   114  C    0.002216
   115  C    0.096181
   116  C    0.231861
   117  C    0.042020
   118  O   -0.188408
   119  C    0.037222
   120  C    0.211180
   121  O   -0.251455
   122  O   -0.305118
   123  C    0.298892
 Electronic spatial extent (au):  <R**2>=         115024.7277
 Charge=             -0.0000 electrons
 Dipole moment (field-independent basis, Debye):
    X=             -5.0465    Y=              1.7568    Z=              5.7777  Tot=              7.8699
 Quadrupole moment (field-independent basis, Debye-Ang):
   XX=           -518.4846   YY=           -521.1774   ZZ=           -478.9951
   XY=            -16.8465   XZ=              2.2689   YZ=            -21.5855
 Traceless Quadrupole moment (field-independent basis, Debye-Ang):
   XX=            -12.2656   YY=            -14.9583   ZZ=             27.2239
   XY=            -16.8465   XZ=              2.2689   YZ=            -21.5855
 Octapole moment (field-independent basis, Debye-Ang**2):
  XXX=           -463.2226  YYY=            -70.4585  ZZZ=            156.5732  XYY=            244.2676
  XXY=             89.3108  XXZ=            274.4451  XZZ=           -244.8523  YZZ=           -108.8517
  YYZ=             46.1307  XYZ=           -232.6605
 Hexadecapole moment (field-independent basis, Debye-Ang**3):
 XXXX=         -91564.9746 YYYY=         -37169.8972 ZZZZ=         -28554.3327 XXXY=           -228.2840
 XXXZ=           -145.4888 YYYX=          -1806.9051 YYYZ=            103.2444 ZZZX=           1056.7402
 ZZZY=           -909.2195 XXYY=         -20891.3516 XXZZ=         -19452.7181 YYZZ=         -11193.0295
 XXYZ=           -447.7569 YYXZ=          -1651.6004 ZZXY=            322.8159
 N-N= 1.494402541426D+04 E-N=-3.936912056743D+04  KE= 4.028802109074D+03
 Leave Link  601 at Sat Sep  4 06:12:40 2021, MaxMem= 23488102400 cpu:              15.7 elap:               0.8
 (Enter /sw/apps/gaussian-16.0/g16/l9999.exe)
 1\1\GINC-BP1-COMPUTE00083\SP\RCAM-B3LYP TD-FC\def2SVP\C68H72Mg2N8O8\OF
 15641\04-Sep-2021\0\\#p cam-b3lyp/Def2SVP td=(nstates=5)\\TDDFT excite
 d states in gaussian\\0,1\Mg,0,0.,0.,0.\C,0,-0.217,-2.218,2.801\C,0,-1
 .255,2.442,2.026\C,0,-0.245,1.85,-2.564\C,0,0.146,-2.824,-2.037\N,0,-0
 .617,-0.009,2.126\C,0,-0.594,-0.908,3.105\C,0,-0.936,-0.309,4.502\C,0,
 -1.773,0.964,4.032\C,0,-1.155,1.168,2.66\C,0,-3.263,0.685,3.863\C,0,0.
 345,0.11,5.299\C,0,0.124,0.397,6.787\H,0,1.168,0.033,7.733\N,0,-0.185,
 1.961,-0.152\C,0,-0.703,2.8,0.777\C,0,-0.62,4.156,0.193\C,0,-0.187,4.0
 15,-1.225\C,0,-0.214,2.583,-1.38\C,0,-0.887,5.406,0.974\C,0,0.181,5.01
 3,-2.277\O,0,0.303,4.69,-3.508\C,0,0.31,6.414,-1.837\N,0,-0.265,-0.413
 ,-2.029\C,0,-0.279,0.569,-2.937\C,0,-0.196,0.024,-4.332\C,0,0.124,-1.5
 33,-4.18\C,0,0.086,-1.632,-2.635\C,0,-1.451,0.205,-5.197\C,0,1.373,-2.
 07,-4.923\C,0,2.626,-1.49,-4.306\N,0,0.15,-2.144,0.303\C,0,0.173,-3.13
 6,-0.688\C,0,0.173,-4.438,0.004\C,0,0.133,-4.111,1.358\C,0,0.083,-2.69
 5,1.502\C,0,0.149,-5.715,-0.623\C,0,0.096,-4.629,2.716\O,0,0.208,-5.74
 7,3.221\C,0,-0.255,-3.428,3.701\C,0,0.717,-3.482,4.848\O,0,1.931,-3.25
 5,4.669\O,0,0.038,-3.556,6.003\C,0,0.943,-3.583,7.183\H,0,-1.859,3.22,
 2.497\H,0,-0.218,2.453,-3.474\H,0,0.276,-3.747,-2.605\H,0,-1.554,-0.94
 9,5.132\H,0,-1.585,1.831,4.665\H,0,-3.484,-0.377,3.969\H,0,-3.511,1.02
 7,2.858\H,0,-3.852,1.301,4.543\H,0,0.669,1.096,4.966\H,0,1.13,-0.639,5
 .189\H,0,-0.844,0.026,7.125\H,0,0.062,1.477,6.921\H,0,-1.344,5.186,1.9
 38\H,0,-1.651,5.963,0.432\H,0,0.007,6.02,1.084\H,0,-0.635,6.744,-1.405
 \H,0,0.665,6.97,-2.704\H,0,1.048,6.466,-1.036\H,0,0.608,0.501,-4.891\H
 ,0,-0.692,-2.156,-4.547\H,0,-1.267,0.74,-6.129\H,0,-2.204,0.714,-4.596
 \H,0,-1.967,-0.72,-5.453\H,0,1.356,-1.759,-5.967\H,0,1.452,-3.157,-4.9
 02\H,0,2.714,-0.522,-4.798\H,0,3.487,-2.121,-4.529\H,0,2.495,-1.303,-3
 .24\H,0,0.867,-6.333,-0.084\H,0,0.404,-5.642,-1.68\H,0,-0.891,-5.999,-
 0.463\H,0,-1.283,-3.581,4.028\H,0,0.698,-4.478,7.755\H,0,0.833,-2.619,
 7.68\H,0,2.,-3.754,6.976\Mg,0,10.51792,0.94285,0.80557\C,0,10.68747,-2
 .54393,-0.02669\C,0,9.48365,-0.00286,3.91531\C,0,9.9266,3.99716,1.4292
 4\C,0,10.4482,1.61319,-2.61372\N,0,10.16951,-1.04638,1.70769\C,0,10.32
 631,-2.3016,1.31505\C,0,10.16056,-3.35411,2.44391\C,0,9.24232,-2.4939,
 3.44178\C,0,9.67876,-1.09033,3.02681\C,0,7.75514,-2.6338,3.16239\C,0,1
 1.5289,-3.73757,3.10922\C,0,11.4841,-4.97942,4.00227\H,0,12.65005,-5.8
 5816,4.03149\N,0,10.2857,1.87772,2.54069\C,0,9.88038,1.33663,3.70869\C
 ,0,9.85281,2.44386,4.67691\C,0,10.1161,3.71303,3.94574\C,0,10.09868,3.
 23721,2.57703\C,0,9.67362,2.23063,6.15199\C,0,10.33326,5.12398,4.4021\
 O,0,10.30785,6.10846,3.58174\C,0,10.48352,5.32885,5.85018\N,0,10.01608
 ,2.55745,-0.40422\C,0,9.86611,3.78915,0.1138\C,0,9.78005,4.83204,-0.97
 495\C,0,10.14756,4.06852,-2.33125\C,0,10.3022,2.63401,-1.78019\C,0,8.4
 2456,5.52115,-1.1304\C,0,11.30364,4.66214,-3.182\C,0,12.61535,4.51396,
 -2.44521\N,0,10.74376,-0.20683,-1.00973\C,0,10.65317,0.26759,-2.33668\
 C,0,10.76184,-0.90621,-3.22708\C,0,10.88599,-1.99331,-2.34884\C,0,10.8
 3648,-1.53191,-1.00565\C,0,10.69124,-0.88147,-4.64853\C,0,11.037,-3.42
 74,-2.25252\O,0,11.22248,-4.33749,-3.05941\C,0,10.78818,-3.86155,-0.74
 388\C,0,11.8959,-4.79584,-0.34069\O,0,13.06954,-4.39088,-0.2688\O,0,11
 .36103,-5.94863,0.10134\C,0,12.42006,-6.90373,0.5233\H,0,8.93744,-0.18
 153,4.84193\H,0,9.82976,5.07386,1.58676\H,0,10.53369,1.74919,-3.69393\
 H,0,9.6427,-4.25887,2.14895\H,0,9.50275,-2.68285,4.47997\H,0,7.56583,-
 3.19768,2.26109\H,0,7.3782,-1.62427,3.06327\H,0,7.2469,-3.0613,4.03145
 \H,0,11.7888,-2.97751,3.85722\H,0,12.29423,-3.85388,2.36668\H,0,10.567
 24,-5.56231,3.85205\H,0,11.42809,-4.65559,5.04439\H,0,9.3378,1.20996,6
 .37301\H,0,8.83878,2.86561,6.46777\H,0,10.56121,2.50166,6.72764\H,0,9.
 59694,4.96065,6.36092\H,0,10.71903,6.38783,5.97261\H,0,11.325,4.72266,
 6.20382\H,0,10.50127,5.62318,-0.81053\H,0,9.29815,4.04697,-3.02973\H,0
 ,8.48159,6.62222,-1.03842\H,0,7.74725,5.11248,-0.39231\H,0,7.90393,5.3
 1102,-2.06314\H,0,11.1515,5.73376,-3.33245\H,0,11.39448,4.20884,-4.163
 46\H,0,12.61894,5.37632,-1.77184\H,0,13.45164,4.55248,-3.14032\H,0,12.
 61801,3.61072,-1.82408\H,0,11.47358,-1.53522,-5.01053\H,0,10.80618,0.1
 2916,-5.03477\H,0,9.67923,-1.26628,-4.80027\H,0,9.81023,-4.3423,-0.698
 38\H,0,12.26038,-7.82764,-0.04112\H,0,12.3436,-6.96693,1.62508\H,0,13.
 44348,-6.66719,0.25663\\Version=ES64L-G16RevA.03\State=1-A\HF=-4069.81
 22866\RMSD=5.655e-09\PG=C01 [X(C68H72Mg2N8O8)]\\@


 A MAN SHOULD NEVER BE ASHAMED TO OWN HE HAS BEEN IN THE WRONG
 WHICH IS BUT SAYING IN OTHER WORDS,
 THAT HE IS WISER TODAY THAN HE WAS YESTERDAY.

                          -- JONATHAN SWIFT
 Job cpu time:       0 days 13 hours 54 minutes 51.7 seconds.
 Elapsed time:       0 days  0 hours 35 minutes 26.0 seconds.
 File lengths (MBytes):  RWF=  13225 Int=      0 D2E=      0 Chk=    574 Scr=      1
 Normal termination of Gaussian 16 at Sat Sep  4 06:12:41 2021.
