 Entering Gaussian System, Link 0=g16
 Initial command:
 /sw/apps/gaussian-16.0/g16/l1.exe "/tmp/Gau-180416.inp" -scrdir="/tmp/"
 Entering Link 1 = /sw/apps/gaussian-16.0/g16/l1.exe PID=    180417.
  
 Copyright (c) 1988,1990,1992,1993,1995,1998,2003,2009,2016,
            Gaussian, Inc.  All Rights Reserved.
  
 This is part of the Gaussian(R) 16 program.  It is based on
 the Gaussian(R) 09 system (copyright 2009, Gaussian, Inc.),
 the Gaussian(R) 03 system (copyright 2003, Gaussian, Inc.),
 the Gaussian(R) 98 system (copyright 1998, Gaussian, Inc.),
 the Gaussian(R) 94 system (copyright 1995, Gaussian, Inc.),
 the Gaussian 92(TM) system (copyright 1992, Gaussian, Inc.),
 the Gaussian 90(TM) system (copyright 1990, Gaussian, Inc.),
 the Gaussian 88(TM) system (copyright 1988, Gaussian, Inc.),
 the Gaussian 86(TM) system (copyright 1986, Carnegie Mellon
 University), and the Gaussian 82(TM) system (copyright 1983,
 Carnegie Mellon University). Gaussian is a federally registered
 trademark of Gaussian, Inc.
  
 This software contains proprietary and confidential information,
 including trade secrets, belonging to Gaussian, Inc.
  
 This software is provided under written license and may be
 used, copied, transmitted, or stored only in accord with that
 written license.
  
 The following legend is applicable only to US Government
 contracts under FAR:
  
                    RESTRICTED RIGHTS LEGEND
  
 Use, reproduction and disclosure by the US Government is
 subject to restrictions as set forth in subparagraphs (a)
 and (c) of the Commercial Computer Software - Restricted
 Rights clause in FAR 52.227-19.
  
 Gaussian, Inc.
 340 Quinnipiac St., Bldg. 40, Wallingford CT 06492
  
  
 ---------------------------------------------------------------
 Warning -- This program may not be used in any manner that
 competes with the business of Gaussian, Inc. or will provide
 assistance to any competitor of Gaussian, Inc.  The licensee
 of this program is prohibited from giving any competitor of
 Gaussian, Inc. access to this program.  By using this program,
 the user acknowledges that Gaussian, Inc. is engaged in the
 business of creating and licensing software in the field of
 computational chemistry and represents and warrants to the
 licensee that it is not a competitor of Gaussian, Inc. and that
 it will not use this program in any manner prohibited above.
 ---------------------------------------------------------------
  

 Cite this work as:
 Gaussian 16, Revision A.03,
 M. J. Frisch, G. W. Trucks, H. B. Schlegel, G. E. Scuseria, 
 M. A. Robb, J. R. Cheeseman, G. Scalmani, V. Barone, 
 G. A. Petersson, H. Nakatsuji, X. Li, M. Caricato, A. V. Marenich, 
 J. Bloino, B. G. Janesko, R. Gomperts, B. Mennucci, H. P. Hratchian, 
 J. V. Ortiz, A. F. Izmaylov, J. L. Sonnenberg, D. Williams-Young, 
 F. Ding, F. Lipparini, F. Egidi, J. Goings, B. Peng, A. Petrone, 
 T. Henderson, D. Ranasinghe, V. G. Zakrzewski, J. Gao, N. Rega, 
 G. Zheng, W. Liang, M. Hada, M. Ehara, K. Toyota, R. Fukuda, 
 J. Hasegawa, M. Ishida, T. Nakajima, Y. Honda, O. Kitao, H. Nakai, 
 T. Vreven, K. Throssell, J. A. Montgomery, Jr., J. E. Peralta, 
 F. Ogliaro, M. J. Bearpark, J. J. Heyd, E. N. Brothers, K. N. Kudin, 
 V. N. Staroverov, T. A. Keith, R. Kobayashi, J. Normand, 
 K. Raghavachari, A. P. Rendell, J. C. Burant, S. S. Iyengar, 
 J. Tomasi, M. Cossi, J. M. Millam, M. Klene, C. Adamo, R. Cammi, 
 J. W. Ochterski, R. L. Martin, K. Morokuma, O. Farkas, 
 J. B. Foresman, and D. J. Fox, Gaussian, Inc., Wallingford CT, 2016.
 
 ******************************************
 Gaussian 16:  ES64L-G16RevA.03 25-Dec-2016
                 9-Sep-2021 
 ******************************************
 %nproc=24
 Will use up to   24 processors via shared memory.
 %mem=175gb
 -----------------------------------
 #p cam-b3lyp/Def2SVP td=(nstates=5)
 -----------------------------------
 1/38=1,172=1/1;
 2/12=2,17=6,18=5,40=1/2;
 3/5=43,7=101,11=9,25=1,30=1,74=-40/1,2,3,8;
 4//1;
 5/5=2,38=5/2;
 8/6=1,10=1,108=5/1;
 9/41=5,42=1,70=2/14;
 6/7=2,8=2,9=2,10=2/1;
 99/5=1,9=1/99;
 Leave Link    1 at Thu Sep  9 14:31:05 2021, MaxMem= 23488102400 cpu:               0.8 elap:               0.0
 (Enter /sw/apps/gaussian-16.0/g16/l101.exe)
 --------------------------------
 TDDFT excited states in gaussian
 --------------------------------
 Symbolic Z-matrix:
 Charge =  0 Multiplicity = 1
 Mg                    0.        0.        0. 
 C                    -0.217    -2.218     2.801 
 C                    -1.255     2.442     2.026 
 C                    -0.245     1.85     -2.564 
 C                     0.146    -2.824    -2.037 
 N                    -0.617    -0.009     2.126 
 C                    -0.594    -0.908     3.105 
 C                    -0.936    -0.309     4.502 
 C                    -1.773     0.964     4.032 
 C                    -1.155     1.168     2.66 
 C                    -3.263     0.685     3.863 
 C                     0.345     0.11      5.299 
 C                     0.124     0.397     6.787 
 H                     1.168     0.033     7.733 
 N                    -0.185     1.961    -0.152 
 C                    -0.703     2.8       0.777 
 C                    -0.62      4.156     0.193 
 C                    -0.187     4.015    -1.225 
 C                    -0.214     2.583    -1.38 
 C                    -0.887     5.406     0.974 
 C                     0.181     5.013    -2.277 
 O                     0.303     4.69     -3.508 
 C                     0.31      6.414    -1.837 
 N                    -0.265    -0.413    -2.029 
 C                    -0.279     0.569    -2.937 
 C                    -0.196     0.024    -4.332 
 C                     0.124    -1.533    -4.18 
 C                     0.086    -1.632    -2.635 
 C                    -1.451     0.205    -5.197 
 C                     1.373    -2.07     -4.923 
 C                     2.626    -1.49     -4.306 
 N                     0.15     -2.144     0.303 
 C                     0.173    -3.136    -0.688 
 C                     0.173    -4.438     0.004 
 C                     0.133    -4.111     1.358 
 C                     0.083    -2.695     1.502 
 C                     0.149    -5.715    -0.623 
 C                     0.096    -4.629     2.716 
 O                     0.208    -5.747     3.221 
 C                    -0.255    -3.428     3.701 
 C                     0.717    -3.482     4.848 
 O                     1.931    -3.255     4.669 
 O                     0.038    -3.556     6.003 
 C                     0.943    -3.583     7.183 
 H                    -1.859     3.22      2.497 
 H                    -0.218     2.453    -3.474 
 H                     0.276    -3.747    -2.605 
 H                    -1.554    -0.949     5.132 
 H                    -1.585     1.831     4.665 
 H                    -3.484    -0.377     3.969 
 H                    -3.511     1.027     2.858 
 H                    -3.852     1.301     4.543 
 H                     0.669     1.096     4.966 
 H                     1.13     -0.639     5.189 
 H                    -0.844     0.026     7.125 
 H                     0.062     1.477     6.921 
 H                    -1.344     5.186     1.938 
 H                    -1.651     5.963     0.432 
 H                     0.007     6.02      1.084 
 H                    -0.635     6.744    -1.405 
 H                     0.665     6.97     -2.704 
 H                     1.048     6.466    -1.036 
 H                     0.608     0.501    -4.891 
 H                    -0.692    -2.156    -4.547 
 H                    -1.267     0.74     -6.129 
 H                    -2.204     0.714    -4.596 
 H                    -1.967    -0.72     -5.453 
 H                     1.356    -1.759    -5.967 
 H                     1.452    -3.157    -4.902 
 H                     2.714    -0.522    -4.798 
 H                     3.487    -2.121    -4.529 
 H                     2.495    -1.303    -3.24 
 H                     0.867    -6.333    -0.084 
 H                     0.404    -5.642    -1.68 
 H                    -0.891    -5.999    -0.463 
 H                    -1.283    -3.581     4.028 
 H                     0.698    -4.478     7.755 
 H                     0.833    -2.619     7.68 
 H                     2.       -3.754     6.976 
 Mg                    8.93331   0.80674   0.66839 
 C                     11.03606  -1.70094  -0.80438 
 C                     10.99411   3.1403   -0.72524 
 C                     7.37257   3.0243    2.3158 
 C                     7.7531   -1.65391   2.83589 
 N                     10.74768   0.62     -0.58279 
 C                     11.41791  -0.38279  -1.13011 
 C                     12.51099   0.0512   -2.14321 
 C                     12.77295   1.53683  -1.59261 
 C                     11.41118   1.80489  -0.95512 
 C                     13.83057   1.59706  -0.50305 
 C                     11.9827   0.07098  -3.62056 
 C                     13.07038   0.18439  -4.691 
 H                     12.88069  -0.52398  -5.95382 
 N                     8.83666   2.77147   0.40561 
 C                     9.75054   3.55714  -0.2017 
 C                     9.22236   4.92759  -0.11758 
 C                     8.0017    4.90843   0.7335 
 C                     8.0355    3.541     1.21213 
 C                     9.82314   6.07883  -0.87066 
 C                     6.98089   5.95223   1.07209 
 O                     6.1354    5.78447   2.02068 
 C                     7.06037   7.21445   0.32244 
 N                     7.89379   0.7555    2.46815 
 C                     7.26316   1.84801   2.93361 
 C                     6.35902   1.50349   4.09302 
 C                     6.32915  -0.09429   4.15452 
 C                     7.3359   -0.40982   3.02656 
 C                     6.78174   2.05709   5.45361 
 C                     4.93331  -0.77429   4.11098 
 C                     4.29766  -0.56165   2.75595 
 N                     9.16462  -1.33222   0.86695 
 C                     8.60249  -2.16228   1.86148 
 C                     9.13821  -3.52228   1.64736 
 C                     9.99949  -3.38321   0.54857 
 C                     10.016   -2.0279    0.12153 
 C                     8.85142  -4.66471   2.44656 
 C                     10.90662  -4.07267  -0.34052 
 O                     11.22621  -5.24786  -0.51518 
 C                     11.71527  -2.98958  -1.17681 
 C                     11.68775  -3.40372  -2.62258 
 O                     10.61659  -3.42342  -3.25412 
 O                     12.95028  -3.49748  -3.07819 
 C                     12.97483  -3.89492  -4.51111 
 H                     11.70085   3.94623  -0.92494 
 H                     6.73159   3.72745   2.85265 
 H                     7.35853  -2.49613   3.40829 
 H                     13.42566  -0.52787  -2.1004 
 H                     12.95655   2.23314  -2.40674 
 H                     14.14812   0.61199  -0.19491 
 H                     13.37127   2.12246   0.32402 
 H                     14.66998   2.21924  -0.82647 
 H                     11.44688   1.01259  -3.79664 
 H                     11.36989  -0.78708  -3.81757 
 H                     14.07001  -0.01385  -4.28555 
 H                     13.11885   1.22277  -5.02781 
 H                     10.80803   5.82179  -1.27971 
 H                     10.03036   6.86666  -0.13836 
 H                     9.1541    6.47584  -1.63709 
 H                     8.03905   7.66351   0.47407 
 H                     6.19501   7.7987    0.64131 
 H                     6.97862   6.99176  -0.7473 
 H                     5.35354   1.86739   3.92074 
 H                     6.77227  -0.47452   5.08667 
 H                     6.00336   2.68117   5.93186 
 H                     7.6952    2.62205   5.3234 
 H                     7.07621   1.30735   6.18599 
 H                     4.26494  -0.31425   4.84297 
 H                     4.96377  -1.83721   4.32606 
 H                     3.85097   0.43303   2.84626 
 H                     3.5398   -1.31883   2.56526 
 H                     5.05814  -0.51118   1.96805 
 H                     8.68294  -5.48746   1.76451 
 H                     7.9885   -4.49528   3.08721 
 H                     9.77953  -4.73992   3.01946 
 H                     12.73031  -2.95939  -0.77886 
 H                     13.59584  -4.79318  -4.58293 
 H                     13.31779  -2.99995  -5.06353 
 H                     12.04747  -4.24323  -4.95058 
 
 ITRead=  0  0  0  0  0  0  0  0  0  0  0  0  0  0  0  0  0  0  0  0
 ITRead=  0  0  0  0  0  0  0  0  0  0  0  0  0  0  0  0  0  0  0  0
 ITRead=  0  0  0  0  0  0  0  0  0  0  0  0  0  0  0  0  0  0  0  0
 ITRead=  0  0  0  0  0  0  0  0  0  0  0  0  0  0  0  0  0  0  0  0
 ITRead=  0  0  0  0  0  0  0  0  0  0  0  0  0  0  0  0  0  0  0  0
 ITRead=  0  0  0  0  0  0  0  0  0  0  0  0  0  0  0  0  0  0  0  0
 ITRead=  0  0  0  0  0  0  0  0  0  0  0  0  0  0  0  0  0  0  0  0
 ITRead=  0  0  0  0  0  0  0  0  0  0  0  0  0  0  0  0  0  0
 MicOpt= -1 -1 -1 -1 -1 -1 -1 -1 -1 -1 -1 -1 -1 -1 -1 -1 -1 -1 -1 -1
 MicOpt= -1 -1 -1 -1 -1 -1 -1 -1 -1 -1 -1 -1 -1 -1 -1 -1 -1 -1 -1 -1
 MicOpt= -1 -1 -1 -1 -1 -1 -1 -1 -1 -1 -1 -1 -1 -1 -1 -1 -1 -1 -1 -1
 MicOpt= -1 -1 -1 -1 -1 -1 -1 -1 -1 -1 -1 -1 -1 -1 -1 -1 -1 -1 -1 -1
 MicOpt= -1 -1 -1 -1 -1 -1 -1 -1 -1 -1 -1 -1 -1 -1 -1 -1 -1 -1 -1 -1
 MicOpt= -1 -1 -1 -1 -1 -1 -1 -1 -1 -1 -1 -1 -1 -1 -1 -1 -1 -1 -1 -1
 MicOpt= -1 -1 -1 -1 -1 -1 -1 -1 -1 -1 -1 -1 -1 -1 -1 -1 -1 -1 -1 -1
 MicOpt= -1 -1 -1 -1 -1 -1 -1 -1 -1 -1 -1 -1 -1 -1 -1 -1 -1 -1
 NAtoms=    158 NQM=      158 NQMF=       0 NMMI=      0 NMMIF=      0
                NMic=       0 NMicF=      0.
                    Isotopes and Nuclear Properties:
 (Nuclear quadrupole moments (NQMom) in fm**2, nuclear magnetic moments (NMagM)
  in nuclear magnetons)

  Atom         1           2           3           4           5           6           7           8           9          10
 IAtWgt=          24          12          12          12          12          14          12          12          12          12
 AtmWgt=  23.9850450  12.0000000  12.0000000  12.0000000  12.0000000  14.0030740  12.0000000  12.0000000  12.0000000  12.0000000
 NucSpn=           0           0           0           0           0           2           0           0           0           0
 AtZEff=  -0.0000000  -0.0000000  -0.0000000  -0.0000000  -0.0000000  -0.0000000  -0.0000000  -0.0000000  -0.0000000  -0.0000000
 NQMom=    0.0000000   0.0000000   0.0000000   0.0000000   0.0000000   2.0440000   0.0000000   0.0000000   0.0000000   0.0000000
 NMagM=    0.0000000   0.0000000   0.0000000   0.0000000   0.0000000   0.4037610   0.0000000   0.0000000   0.0000000   0.0000000
 AtZNuc=  12.0000000   6.0000000   6.0000000   6.0000000   6.0000000   7.0000000   6.0000000   6.0000000   6.0000000   6.0000000

  Atom        11          12          13          14          15          16          17          18          19          20
 IAtWgt=          12          12          12           1          14          12          12          12          12          12
 AtmWgt=  12.0000000  12.0000000  12.0000000   1.0078250  14.0030740  12.0000000  12.0000000  12.0000000  12.0000000  12.0000000
 NucSpn=           0           0           0           1           2           0           0           0           0           0
 AtZEff=  -0.0000000  -0.0000000  -0.0000000  -0.0000000  -0.0000000  -0.0000000  -0.0000000  -0.0000000  -0.0000000  -0.0000000
 NQMom=    0.0000000   0.0000000   0.0000000   0.0000000   2.0440000   0.0000000   0.0000000   0.0000000   0.0000000   0.0000000
 NMagM=    0.0000000   0.0000000   0.0000000   2.7928460   0.4037610   0.0000000   0.0000000   0.0000000   0.0000000   0.0000000
 AtZNuc=   6.0000000   6.0000000   6.0000000   1.0000000   7.0000000   6.0000000   6.0000000   6.0000000   6.0000000   6.0000000

  Atom        21          22          23          24          25          26          27          28          29          30
 IAtWgt=          12          16          12          14          12          12          12          12          12          12
 AtmWgt=  12.0000000  15.9949146  12.0000000  14.0030740  12.0000000  12.0000000  12.0000000  12.0000000  12.0000000  12.0000000
 NucSpn=           0           0           0           2           0           0           0           0           0           0
 AtZEff=  -0.0000000  -0.0000000  -0.0000000  -0.0000000  -0.0000000  -0.0000000  -0.0000000  -0.0000000  -0.0000000  -0.0000000
 NQMom=    0.0000000   0.0000000   0.0000000   2.0440000   0.0000000   0.0000000   0.0000000   0.0000000   0.0000000   0.0000000
 NMagM=    0.0000000   0.0000000   0.0000000   0.4037610   0.0000000   0.0000000   0.0000000   0.0000000   0.0000000   0.0000000
 AtZNuc=   6.0000000   8.0000000   6.0000000   7.0000000   6.0000000   6.0000000   6.0000000   6.0000000   6.0000000   6.0000000

  Atom        31          32          33          34          35          36          37          38          39          40
 IAtWgt=          12          14          12          12          12          12          12          12          16          12
 AtmWgt=  12.0000000  14.0030740  12.0000000  12.0000000  12.0000000  12.0000000  12.0000000  12.0000000  15.9949146  12.0000000
 NucSpn=           0           2           0           0           0           0           0           0           0           0
 AtZEff=  -0.0000000  -0.0000000  -0.0000000  -0.0000000  -0.0000000  -0.0000000  -0.0000000  -0.0000000  -0.0000000  -0.0000000
 NQMom=    0.0000000   2.0440000   0.0000000   0.0000000   0.0000000   0.0000000   0.0000000   0.0000000   0.0000000   0.0000000
 NMagM=    0.0000000   0.4037610   0.0000000   0.0000000   0.0000000   0.0000000   0.0000000   0.0000000   0.0000000   0.0000000
 AtZNuc=   6.0000000   7.0000000   6.0000000   6.0000000   6.0000000   6.0000000   6.0000000   6.0000000   8.0000000   6.0000000

  Atom        41          42          43          44          45          46          47          48          49          50
 IAtWgt=          12          16          16          12           1           1           1           1           1           1
 AtmWgt=  12.0000000  15.9949146  15.9949146  12.0000000   1.0078250   1.0078250   1.0078250   1.0078250   1.0078250   1.0078250
 NucSpn=           0           0           0           0           1           1           1           1           1           1
 AtZEff=  -0.0000000  -0.0000000  -0.0000000  -0.0000000  -0.0000000  -0.0000000  -0.0000000  -0.0000000  -0.0000000  -0.0000000
 NQMom=    0.0000000   0.0000000   0.0000000   0.0000000   0.0000000   0.0000000   0.0000000   0.0000000   0.0000000   0.0000000
 NMagM=    0.0000000   0.0000000   0.0000000   0.0000000   2.7928460   2.7928460   2.7928460   2.7928460   2.7928460   2.7928460
 AtZNuc=   6.0000000   8.0000000   8.0000000   6.0000000   1.0000000   1.0000000   1.0000000   1.0000000   1.0000000   1.0000000

  Atom        51          52          53          54          55          56          57          58          59          60
 IAtWgt=           1           1           1           1           1           1           1           1           1           1
 AtmWgt=   1.0078250   1.0078250   1.0078250   1.0078250   1.0078250   1.0078250   1.0078250   1.0078250   1.0078250   1.0078250
 NucSpn=           1           1           1           1           1           1           1           1           1           1
 AtZEff=  -0.0000000  -0.0000000  -0.0000000  -0.0000000  -0.0000000  -0.0000000  -0.0000000  -0.0000000  -0.0000000  -0.0000000
 NQMom=    0.0000000   0.0000000   0.0000000   0.0000000   0.0000000   0.0000000   0.0000000   0.0000000   0.0000000   0.0000000
 NMagM=    2.7928460   2.7928460   2.7928460   2.7928460   2.7928460   2.7928460   2.7928460   2.7928460   2.7928460   2.7928460
 AtZNuc=   1.0000000   1.0000000   1.0000000   1.0000000   1.0000000   1.0000000   1.0000000   1.0000000   1.0000000   1.0000000

  Atom        61          62          63          64          65          66          67          68          69          70
 IAtWgt=           1           1           1           1           1           1           1           1           1           1
 AtmWgt=   1.0078250   1.0078250   1.0078250   1.0078250   1.0078250   1.0078250   1.0078250   1.0078250   1.0078250   1.0078250
 NucSpn=           1           1           1           1           1           1           1           1           1           1
 AtZEff=  -0.0000000  -0.0000000  -0.0000000  -0.0000000  -0.0000000  -0.0000000  -0.0000000  -0.0000000  -0.0000000  -0.0000000
 NQMom=    0.0000000   0.0000000   0.0000000   0.0000000   0.0000000   0.0000000   0.0000000   0.0000000   0.0000000   0.0000000
 NMagM=    2.7928460   2.7928460   2.7928460   2.7928460   2.7928460   2.7928460   2.7928460   2.7928460   2.7928460   2.7928460
 AtZNuc=   1.0000000   1.0000000   1.0000000   1.0000000   1.0000000   1.0000000   1.0000000   1.0000000   1.0000000   1.0000000

  Atom        71          72          73          74          75          76          77          78          79          80
 IAtWgt=           1           1           1           1           1           1           1           1           1          24
 AtmWgt=   1.0078250   1.0078250   1.0078250   1.0078250   1.0078250   1.0078250   1.0078250   1.0078250   1.0078250  23.9850450
 NucSpn=           1           1           1           1           1           1           1           1           1           0
 AtZEff=  -0.0000000  -0.0000000  -0.0000000  -0.0000000  -0.0000000  -0.0000000  -0.0000000  -0.0000000  -0.0000000  -0.0000000
 NQMom=    0.0000000   0.0000000   0.0000000   0.0000000   0.0000000   0.0000000   0.0000000   0.0000000   0.0000000   0.0000000
 NMagM=    2.7928460   2.7928460   2.7928460   2.7928460   2.7928460   2.7928460   2.7928460   2.7928460   2.7928460   0.0000000
 AtZNuc=   1.0000000   1.0000000   1.0000000   1.0000000   1.0000000   1.0000000   1.0000000   1.0000000   1.0000000  12.0000000

  Atom        81          82          83          84          85          86          87          88          89          90
 IAtWgt=          12          12          12          12          14          12          12          12          12          12
 AtmWgt=  12.0000000  12.0000000  12.0000000  12.0000000  14.0030740  12.0000000  12.0000000  12.0000000  12.0000000  12.0000000
 NucSpn=           0           0           0           0           2           0           0           0           0           0
 AtZEff=  -0.0000000  -0.0000000  -0.0000000  -0.0000000  -0.0000000  -0.0000000  -0.0000000  -0.0000000  -0.0000000  -0.0000000
 NQMom=    0.0000000   0.0000000   0.0000000   0.0000000   2.0440000   0.0000000   0.0000000   0.0000000   0.0000000   0.0000000
 NMagM=    0.0000000   0.0000000   0.0000000   0.0000000   0.4037610   0.0000000   0.0000000   0.0000000   0.0000000   0.0000000
 AtZNuc=   6.0000000   6.0000000   6.0000000   6.0000000   7.0000000   6.0000000   6.0000000   6.0000000   6.0000000   6.0000000

  Atom        91          92          93          94          95          96          97          98          99         100
 IAtWgt=          12          12           1          14          12          12          12          12          12          12
 AtmWgt=  12.0000000  12.0000000   1.0078250  14.0030740  12.0000000  12.0000000  12.0000000  12.0000000  12.0000000  12.0000000
 NucSpn=           0           0           1           2           0           0           0           0           0           0
 AtZEff=  -0.0000000  -0.0000000  -0.0000000  -0.0000000  -0.0000000  -0.0000000  -0.0000000  -0.0000000  -0.0000000  -0.0000000
 NQMom=    0.0000000   0.0000000   0.0000000   2.0440000   0.0000000   0.0000000   0.0000000   0.0000000   0.0000000   0.0000000
 NMagM=    0.0000000   0.0000000   2.7928460   0.4037610   0.0000000   0.0000000   0.0000000   0.0000000   0.0000000   0.0000000
 AtZNuc=   6.0000000   6.0000000   1.0000000   7.0000000   6.0000000   6.0000000   6.0000000   6.0000000   6.0000000   6.0000000

  Atom       101         102         103         104         105         106         107         108         109         110
 IAtWgt=          16          12          14          12          12          12          12          12          12          12
 AtmWgt=  15.9949146  12.0000000  14.0030740  12.0000000  12.0000000  12.0000000  12.0000000  12.0000000  12.0000000  12.0000000
 NucSpn=           0           0           2           0           0           0           0           0           0           0
 AtZEff=  -0.0000000  -0.0000000  -0.0000000  -0.0000000  -0.0000000  -0.0000000  -0.0000000  -0.0000000  -0.0000000  -0.0000000
 NQMom=    0.0000000   0.0000000   2.0440000   0.0000000   0.0000000   0.0000000   0.0000000   0.0000000   0.0000000   0.0000000
 NMagM=    0.0000000   0.0000000   0.4037610   0.0000000   0.0000000   0.0000000   0.0000000   0.0000000   0.0000000   0.0000000
 AtZNuc=   8.0000000   6.0000000   7.0000000   6.0000000   6.0000000   6.0000000   6.0000000   6.0000000   6.0000000   6.0000000

  Atom       111         112         113         114         115         116         117         118         119         120
 IAtWgt=          14          12          12          12          12          12          12          16          12          12
 AtmWgt=  14.0030740  12.0000000  12.0000000  12.0000000  12.0000000  12.0000000  12.0000000  15.9949146  12.0000000  12.0000000
 NucSpn=           2           0           0           0           0           0           0           0           0           0
 AtZEff=  -0.0000000  -0.0000000  -0.0000000  -0.0000000  -0.0000000  -0.0000000  -0.0000000  -0.0000000  -0.0000000  -0.0000000
 NQMom=    2.0440000   0.0000000   0.0000000   0.0000000   0.0000000   0.0000000   0.0000000   0.0000000   0.0000000   0.0000000
 NMagM=    0.4037610   0.0000000   0.0000000   0.0000000   0.0000000   0.0000000   0.0000000   0.0000000   0.0000000   0.0000000
 AtZNuc=   7.0000000   6.0000000   6.0000000   6.0000000   6.0000000   6.0000000   6.0000000   8.0000000   6.0000000   6.0000000

  Atom       121         122         123         124         125         126         127         128         129         130
 IAtWgt=          16          16          12           1           1           1           1           1           1           1
 AtmWgt=  15.9949146  15.9949146  12.0000000   1.0078250   1.0078250   1.0078250   1.0078250   1.0078250   1.0078250   1.0078250
 NucSpn=           0           0           0           1           1           1           1           1           1           1
 AtZEff=  -0.0000000  -0.0000000  -0.0000000  -0.0000000  -0.0000000  -0.0000000  -0.0000000  -0.0000000  -0.0000000  -0.0000000
 NQMom=    0.0000000   0.0000000   0.0000000   0.0000000   0.0000000   0.0000000   0.0000000   0.0000000   0.0000000   0.0000000
 NMagM=    0.0000000   0.0000000   0.0000000   2.7928460   2.7928460   2.7928460   2.7928460   2.7928460   2.7928460   2.7928460
 AtZNuc=   8.0000000   8.0000000   6.0000000   1.0000000   1.0000000   1.0000000   1.0000000   1.0000000   1.0000000   1.0000000

  Atom       131         132         133         134         135         136         137         138         139         140
 IAtWgt=           1           1           1           1           1           1           1           1           1           1
 AtmWgt=   1.0078250   1.0078250   1.0078250   1.0078250   1.0078250   1.0078250   1.0078250   1.0078250   1.0078250   1.0078250
 NucSpn=           1           1           1           1           1           1           1           1           1           1
 AtZEff=  -0.0000000  -0.0000000  -0.0000000  -0.0000000  -0.0000000  -0.0000000  -0.0000000  -0.0000000  -0.0000000  -0.0000000
 NQMom=    0.0000000   0.0000000   0.0000000   0.0000000   0.0000000   0.0000000   0.0000000   0.0000000   0.0000000   0.0000000
 NMagM=    2.7928460   2.7928460   2.7928460   2.7928460   2.7928460   2.7928460   2.7928460   2.7928460   2.7928460   2.7928460
 AtZNuc=   1.0000000   1.0000000   1.0000000   1.0000000   1.0000000   1.0000000   1.0000000   1.0000000   1.0000000   1.0000000

  Atom       141         142         143         144         145         146         147         148         149         150
 IAtWgt=           1           1           1           1           1           1           1           1           1           1
 AtmWgt=   1.0078250   1.0078250   1.0078250   1.0078250   1.0078250   1.0078250   1.0078250   1.0078250   1.0078250   1.0078250
 NucSpn=           1           1           1           1           1           1           1           1           1           1
 AtZEff=  -0.0000000  -0.0000000  -0.0000000  -0.0000000  -0.0000000  -0.0000000  -0.0000000  -0.0000000  -0.0000000  -0.0000000
 NQMom=    0.0000000   0.0000000   0.0000000   0.0000000   0.0000000   0.0000000   0.0000000   0.0000000   0.0000000   0.0000000
 NMagM=    2.7928460   2.7928460   2.7928460   2.7928460   2.7928460   2.7928460   2.7928460   2.7928460   2.7928460   2.7928460
 AtZNuc=   1.0000000   1.0000000   1.0000000   1.0000000   1.0000000   1.0000000   1.0000000   1.0000000   1.0000000   1.0000000

  Atom       151         152         153         154         155         156         157         158
 IAtWgt=           1           1           1           1           1           1           1           1
 AtmWgt=   1.0078250   1.0078250   1.0078250   1.0078250   1.0078250   1.0078250   1.0078250   1.0078250
 NucSpn=           1           1           1           1           1           1           1           1
 AtZEff=  -0.0000000  -0.0000000  -0.0000000  -0.0000000  -0.0000000  -0.0000000  -0.0000000  -0.0000000
 NQMom=    0.0000000   0.0000000   0.0000000   0.0000000   0.0000000   0.0000000   0.0000000   0.0000000
 NMagM=    2.7928460   2.7928460   2.7928460   2.7928460   2.7928460   2.7928460   2.7928460   2.7928460
 AtZNuc=   1.0000000   1.0000000   1.0000000   1.0000000   1.0000000   1.0000000   1.0000000   1.0000000
 Leave Link  101 at Thu Sep  9 14:31:05 2021, MaxMem= 23488102400 cpu:               4.0 elap:               0.2
 (Enter /sw/apps/gaussian-16.0/g16/l202.exe)
 Stoichiometry    C68H72Mg2N8O8
 Framework group  C1[X(C68H72Mg2N8O8)]
 Deg. of freedom   468
 Full point group                 C1      NOp   1
 Largest Abelian subgroup         C1      NOp   1
 Largest concise Abelian subgroup C1      NOp   1
                         Standard orientation:                         
 ---------------------------------------------------------------------
 Center     Atomic      Atomic             Coordinates (Angstroms)
 Number     Number       Type             X           Y           Z
 ---------------------------------------------------------------------
      1         12           0        4.486972    0.478776    1.341067
      2          6           0        5.278051   -2.452443   -0.554814
      3          6           0        6.107758    2.286042   -1.056829
      4          6           0        4.198581    3.020262    3.215714
      5          6           0        3.952799   -1.613971    4.076160
      6          7           0        5.519284   -0.120896   -0.523168
      7          6           0        5.699784   -1.269957   -1.166789
      8          6           0        6.311956   -1.092251   -2.588422
      9          6           0        7.028733    0.316507   -2.379547
     10          6           0        6.145897    0.877365   -1.278655
     11          6           0        8.456054    0.201912   -1.854070
     12          6           0        5.214816   -1.017135   -3.703040
     13          6           0        5.728861   -1.171810   -5.137330
     14          1           0        4.899071   -1.870644   -6.107087
     15          7           0        4.624525    2.403938    0.919547
     16          6           0        5.313299    2.961401   -0.105202
     17          6           0        5.105426    4.420903    0.010227
     18          6           0        4.396840    4.679433    1.294424
     19          6           0        4.401632    3.363745    1.881212
     20          6           0        5.515817    5.396826   -1.049444
     21          6           0        3.817998    5.918051    1.901794
     22          8           0        3.452891    5.968641    3.126013
     23          6           0        3.770864    7.112485    1.039154
     24          7           0        4.340926    0.707374    3.410862
     25          6           0        4.165347    1.913731    3.961188
     26          6           0        3.806912    1.804371    5.413601
     27          6           0        3.534433    0.254795    5.686222
     28          6           0        3.883271   -0.296801    4.281827
     29          6           0        4.860901    2.319101    6.403638
     30          6           0        2.165058   -0.119892    6.306575
     31          6           0        1.058044    0.164013    5.316113
     32          7           0        4.415313   -1.663232    1.684159
     33          6           0        4.199939   -2.314455    2.907350
     34          6           0        4.347889   -3.760296    2.658911
     35          6           0        4.657406   -3.849236    1.303133
     36          6           0        4.725930   -2.540302    0.746098
     37          6           0        4.253712   -4.788088    3.638303
     38          6           0        4.970418   -4.744239    0.200930
     39          8           0        4.969801   -5.966774    0.049605
     40          6           0        5.504473   -3.870019   -1.018230
     41          6           0        4.783598   -4.328609   -2.256512
     42          8           0        3.556929   -4.141276   -2.389011
     43          8           0        5.681643   -4.696952   -3.183000
     44          6           0        5.032857   -5.135122   -4.447610
     45          1           0        6.788997    2.927563   -1.619239
     46          1           0        3.984964    3.863530    3.875794
     47          1           0        3.717292   -2.332637    4.863249
     48          1           0        7.048358   -1.847432   -2.863811
     49          1           0        6.966209    0.940988   -3.270522
     50          1           0        8.700936   -0.826004   -1.586970
     51          1           0        8.494422    0.843517   -0.973522
     52          1           0        9.165744    0.625939   -2.564927
     53          1           0        4.823863   -0.000989   -3.754643
     54          1           0        4.428749   -1.750741   -3.520703
     55          1           0        6.747530   -1.560238   -5.155927
     56          1           0        5.809365   -0.179051   -5.580215
     57          1           0        6.158941    4.931289   -1.795240
     58          1           0        6.151368    6.140252   -0.568715
     59          1           0        4.658180    5.888307   -1.509050
     60          1           0        4.781253    7.362064    0.714541
     61          1           0        3.244934    7.876011    1.611235
     62          1           0        3.208850    6.873656    0.135799
     63          1           0        2.903697    2.370617    5.637196
     64          1           0        4.264003   -0.174033    6.373615
     65          1           0        4.489526    3.093543    7.075221
     66          1           0        5.716045    2.675843    5.830266
     67          1           0        5.320969    1.549354    7.022705
     68          1           0        1.969515    0.488176    7.189164
     69          1           0        2.099145   -1.166605    6.603724
     70          1           0        0.866374    1.226310    5.463148
     71          1           0        0.174004   -0.428729    5.553476
     72          1           0        1.399664    0.033638    4.289086
     73          1           0        3.663021   -5.585598    3.187715
     74          1           0        3.790711   -4.421189    4.554064
     75          1           0        5.306501   -5.035813    3.772924
     76          1           0        6.578247   -4.043519   -1.081711
     77          1           0        5.393925   -6.141097   -4.661801
     78          1           0        5.234210   -4.357632   -5.184747
     79          1           0        3.956988   -5.307839   -4.402737
     80         12           0       -4.134180    0.443806   -1.223326
     81          6           0       -6.473564   -1.648024    0.517535
     82          6           0       -6.448800    2.941430   -1.025814
     83          6           0       -2.288620    2.170717   -3.141431
     84          6           0       -2.525509   -2.464759   -2.271266
     85          7           0       -6.161957    0.515687   -0.342863
     86          6           0       -6.921932   -0.321658    0.346809
     87          6           0       -8.199414    0.319247    0.952470
     88          6           0       -8.355088    1.552356   -0.064430
     89          6           0       -6.894696    1.709974   -0.482855
     90          6           0       -9.172151    1.213851   -1.300209
     91          6           0       -7.979419    0.813571    2.425321
     92          6           0       -9.261015    1.166630    3.183352
     93          1           0       -9.324655    0.880797    4.613994
     94          7           0       -4.105489    2.399520   -1.559361
     95          6           0       -5.128112    3.266650   -1.405724
     96          6           0       -4.602953    4.582377   -1.802277
     97          6           0       -3.235878    4.393361   -2.359138
     98          6           0       -3.163543    2.946439   -2.394900
     99          6           0       -5.350665    5.862198   -1.564782
    100          6           0       -2.174788    5.355603   -2.800038
    101          8           0       -1.154582    4.970677   -3.473708
    102          6           0       -2.411928    6.775347   -2.500735
    103          7           0       -2.753383   -0.070400   -2.690076
    104          6           0       -2.049270    0.874070   -3.338247
    105          6           0       -0.928007    0.262034   -4.143589
    106          6           0       -0.875726   -1.275772   -3.707705
    107          6           0       -2.086769   -1.308584   -2.749741
    108          6           0       -1.071915    0.355619   -5.662438
    109          6           0        0.487286   -1.815941   -3.194791
    110          6           0        0.835776   -1.167110   -1.874585
    111          7           0       -4.306537   -1.667814   -0.799731
    112          6           0       -3.550227   -2.716271   -1.367899
    113          6           0       -4.109007   -3.983860   -0.854647
    114          6           0       -5.174718   -3.582613   -0.035048
    115          6           0       -5.285869   -2.165993   -0.053274
    116          6           0       -3.659629   -5.290258   -1.197427
    117          6           0       -6.237615   -4.035874    0.833011
    118          8           0       -6.577981   -5.124600    1.294033
    119          6           0       -7.205232   -2.810241    1.129529
    120          6           0       -7.466501   -2.772399    2.610348
    121          8           0       -6.544261   -2.530718    3.408896
    122          8           0       -8.794241   -2.811462    2.824671
    123          6           0       -9.104039   -2.765064    4.278525
    124          1           0       -7.186624    3.720534   -1.219458
    125          1           0       -1.557406    2.723861   -3.735435
    126          1           0       -2.018207   -3.410476   -2.473568
    127          1           0       -9.082871   -0.306796    0.915748
    128          1           0       -8.703423    2.445351    0.448002
    129          1           0       -9.414615    0.162595   -1.347378
    130          1           0       -8.559300    1.499051   -2.145265
    131          1           0      -10.063604    1.845828   -1.347483
    132          1           0       -7.496288    1.798895    2.403913
    133          1           0       -7.413097    0.096559    2.987273
    134          1           0      -10.157243    0.789548    2.675873
    135          1           0       -9.383199    2.252427    3.171581
    136          1           0       -6.395994    5.672568   -1.291418
    137          1           0       -5.411501    6.380430   -2.527910
    138          1           0       -4.852232    6.513653   -0.843798
    139          1           0       -3.343033    7.091641   -2.964915
    140          1           0       -1.504011    7.295328   -2.812472
    141          1           0       -2.545672    6.887239   -1.418972
    142          1           0        0.019776    0.727858   -3.903154
    143          1           0       -1.119624   -1.945294   -4.545611
    144          1           0       -0.217383    0.860204   -6.151564
    145          1           0       -1.996632    0.870587   -5.886601
    146          1           0       -1.207954   -0.596258   -6.172953
    147          1           0        1.286224   -1.550537   -3.891515
    148          1           0        0.507820   -2.894211   -3.076902
    149          1           0        1.284864   -0.216573   -2.177693
    150          1           0        1.544776   -1.780128   -1.321805
    151          1           0       -0.068039   -0.935958   -1.298953
    152          1           0       -3.626392   -5.859321   -0.277885
    153          1           0       -2.686574   -5.261246   -1.683321
    154          1           0       -4.452919   -5.595188   -1.885153
    155          1           0       -8.119585   -2.968605    0.556413
    156          1           0       -9.720797   -3.641078    4.501889
    157          1           0       -9.557119   -1.771572    4.455872
    158          1           0       -8.281806   -2.903208    4.970841
 ---------------------------------------------------------------------
 Rotational constants (GHZ):           0.0236835           0.0123935           0.0115123
 Leave Link  202 at Thu Sep  9 14:31:05 2021, MaxMem= 23488102400 cpu:               0.2 elap:               0.0
 (Enter /sw/apps/gaussian-16.0/g16/l301.exe)
 Standard basis: def2SVP (5D, 7F)
 Ernie: Thresh=  0.10000D-02 Tol=  0.10000D-05 Strict=F.
 There are  1658 symmetry adapted cartesian basis functions of A   symmetry.
 There are  1572 symmetry adapted basis functions of A   symmetry.
  1572 basis functions,  2678 primitive gaussians,  1658 cartesian basis functions
   312 alpha electrons      312 beta electrons
       nuclear repulsion energy     15470.8900736956 Hartrees.
 IExCor=20419 DFT=T Ex+Corr=CAM-B3LYP ExCW=0 ScaHFX=  1.000000
 ScaDFX=  1.000000  1.000000  1.000000  0.810000 ScalE2=  1.000000  1.000000
 IRadAn=      5 IRanWt=     -1 IRanGd=            0 ICorTp=0 IEmpDi=  4
 HFx  wShort=  0.000000 wLong=  0.330000 cFull=  0.190000 cShort=  0.000000 cLong=  0.460000
 DFx  wShort=  0.000000 wLong=  0.330000 cFull=  0.190000 cShort=  0.000000 cLong=  0.460000
 NAtoms=  158 NActive=  158 NUniq=  158 SFac= 1.00D+00 NAtFMM=   60 NAOKFM=T Big=T
 Integral buffers will be    131072 words long.
 Raffenetti 1 integral format.
 Two-electron integral symmetry is turned on.
 Leave Link  301 at Thu Sep  9 14:31:05 2021, MaxMem= 23488102400 cpu:               1.3 elap:               0.1
 (Enter /sw/apps/gaussian-16.0/g16/l302.exe)
 NPDir=0 NMtPBC=     1 NCelOv=     1 NCel=       1 NClECP=     1 NCelD=      1
         NCelK=      1 NCelE2=     1 NClLst=     1 CellRange=     0.0.
 One-electron integrals computed using PRISM.
 One-electron integral symmetry used in STVInt
   1 Symmetry operations used in ECPInt.
 ECPInt:  NShTT=  271216 NPrTT=  987664 LenC2=  150110 LenP2D=  316813.
 LDataN:  DoStor=T MaxTD1= 4 Len=   56
 NBasis=  1572 RedAO= T EigKep=  3.32D-04  NBF=  1572
 NBsUse=  1572 1.00D-06 EigRej= -1.00D+00 NBFU=  1572
 Precomputing XC quadrature grid using
 IXCGrd= 4 IRadAn=           5 IRanWt=          -1 IRanGd=           0 AccXCQ= 0.00D+00.
 Generated NRdTot=       0 NPtTot=           0 NUsed=           0 NTot=          32
 NSgBfM=  1293  1270  1283  1286  1293 MxSgAt=   158 MxSgA2=   158.
 Leave Link  302 at Thu Sep  9 14:31:11 2021, MaxMem= 23488102400 cpu:             133.1 elap:               5.6
 (Enter /sw/apps/gaussian-16.0/g16/l303.exe)
 DipDrv:  MaxL=1.
 Leave Link  303 at Thu Sep  9 14:31:11 2021, MaxMem= 23488102400 cpu:               8.7 elap:               0.4
 (Enter /sw/apps/gaussian-16.0/g16/l308.exe)
 Leave Link  308 at Thu Sep  9 14:31:12 2021, MaxMem= 23488102400 cpu:              16.5 elap:               0.8
 (Enter /sw/apps/gaussian-16.0/g16/l401.exe)
 ExpMin= 3.36D-02 ExpMax= 4.95D+03 ExpMxC= 7.45D+02 IAcc=3 IRadAn=         5 AccDes= 0.00D+00
 Harris functional with IExCor=20419 and IRadAn=       5 diagonalized for initial guess.
 HarFok:  IExCor=20419 AccDes= 0.00D+00 IRadAn=         5 IDoV= 1 UseB2=F ITyADJ=14
 ICtDFT=  3500011 ScaDFX=  1.000000  1.000000  1.000000  1.000000
 FoFCou: FMM=F IPFlag=           0 FMFlag=      100000 FMFlg1=        2001
         NFxFlg=           0 DoJE=T BraDBF=F KetDBF=T FulRan=T
         wScrn=  0.000000 ICntrl=       500 IOpCl=  0 I1Cent=   200000004 NGrid=           0
         NMat0=    1 NMatS0=      1 NMatT0=    0 NMatD0=    1 NMtDS0=    0 NMtDT0=    0
 Petite list used in FoFCou.
 Harris En= -3918.66127475226    
 JPrj=0 DoOrth=F DoCkMO=F.
 Leave Link  401 at Thu Sep  9 14:31:20 2021, MaxMem= 23488102400 cpu:             198.4 elap:               8.3
 (Enter /sw/apps/gaussian-16.0/g16/l502.exe)
 Integral symmetry usage will be decided dynamically.
 Closed shell SCF:
 Using DIIS extrapolation, IDIIS=  1040.
 NGot= 23488102400 LenX= 23482547354 LenY= 23479796732
 Requested convergence on RMS density matrix=1.00D-08 within 128 cycles.
 Requested convergence on MAX density matrix=1.00D-06.
 Requested convergence on             energy=1.00D-06.
 No special actions if energy rises.
 Fock matrices will be formed incrementally for  20 cycles.

 Cycle   1  Pass 1  IDiag  1:
 FoFJK:  IHMeth= 1 ICntrl=       0 DoSepK=T KAlg= 0 I1Cent=           0 FoldK=F
 IRaf=         1 NMat=       1 IRICut=       1 DoRegI=T DoRafI=F ISym2E= 0 IDoP0=0 IntGTp=1.
 FoFCou: FMM=T IPFlag=           0 FMFlag=      100000 FMFlg1=        2001
         NFxFlg=           0 DoJE=T BraDBF=F KetDBF=F FulRan=T
         wScrn=  0.000000 ICntrl=       500 IOpCl=  0 I1Cent=           0 NGrid=           0
         NMat0=    1 NMatS0=      1 NMatT0=    0 NMatD0=    1 NMtDS0=    0 NMtDT0=    0
 Symmetry not used in FoFCou.
 FMM levels:  10  Number of levels for PrismC:   9
 E= -4068.95050578177    
 DIIS: error= 2.02D-02 at cycle   1 NSaved=   1.
 NSaved= 1 IEnMin= 1 EnMin= -4068.95050578177     IErMin= 1 ErrMin= 2.02D-02
 ErrMax= 2.02D-02  0.00D+00 EMaxC= 1.00D-01 BMatC= 1.69D+00 BMatP= 1.69D+00
 IDIUse=3 WtCom= 7.98D-01 WtEn= 2.02D-01
 Coeff-Com:  0.100D+01
 Coeff-En:   0.100D+01
 Coeff:      0.100D+01
 Gap=     0.119 Goal=   None    Shift=    0.000
 GapD=    0.119 DampG=1.000 DampE=0.500 DampFc=0.5000 IDamp=-1.
 Damping current iteration by 5.00D-01
 RMSDP=1.58D-03 MaxDP=1.40D-01              OVMax= 2.06D-01

 Cycle   2  Pass 1  IDiag  1:
 RMSU=  7.74D-04    CP:  9.82D-01
 E= -4069.33982054502     Delta-E=       -0.389314763252 Rises=F Damp=T
 DIIS: error= 1.26D-02 at cycle   2 NSaved=   2.
 NSaved= 2 IEnMin= 2 EnMin= -4069.33982054502     IErMin= 2 ErrMin= 1.26D-02
 ErrMax= 1.26D-02  0.00D+00 EMaxC= 1.00D-01 BMatC= 3.07D-01 BMatP= 1.69D+00
 IDIUse=3 WtCom= 8.74D-01 WtEn= 1.26D-01
 Coeff-Com: -0.212D+00 0.121D+01
 Coeff-En:   0.000D+00 0.100D+01
 Coeff:     -0.185D+00 0.119D+01
 Gap=     0.140 Goal=   None    Shift=    0.000
 RMSDP=7.74D-04 MaxDP=9.40D-02 DE=-3.89D-01 OVMax= 1.90D-01

 Cycle   3  Pass 1  IDiag  1:
 RMSU=  7.41D-04    CP:  9.68D-01  1.24D+00
 E= -4069.62610420186     Delta-E=       -0.286283656846 Rises=F Damp=F
 DIIS: error= 1.57D-02 at cycle   3 NSaved=   3.
 NSaved= 3 IEnMin= 3 EnMin= -4069.62610420186     IErMin= 2 ErrMin= 1.26D-02
 ErrMax= 1.57D-02  0.00D+00 EMaxC= 1.00D-01 BMatC= 2.06D-01 BMatP= 3.07D-01
 IDIUse=3 WtCom= 8.43D-01 WtEn= 1.57D-01
 Coeff-Com: -0.267D+00 0.655D+00 0.613D+00
 Coeff-En:   0.000D+00 0.000D+00 0.100D+01
 Coeff:     -0.226D+00 0.552D+00 0.673D+00
 Gap=     0.123 Goal=   None    Shift=    0.000
 RMSDP=5.24D-04 MaxDP=4.79D-02 DE=-2.86D-01 OVMax= 1.56D-01

 Cycle   4  Pass 1  IDiag  1:
 RMSU=  2.74D-04    CP:  9.64D-01  1.55D+00  4.93D-01
 E= -4069.76484484985     Delta-E=       -0.138740647992 Rises=F Damp=F
 DIIS: error= 7.34D-03 at cycle   4 NSaved=   4.
 NSaved= 4 IEnMin= 4 EnMin= -4069.76484484985     IErMin= 4 ErrMin= 7.34D-03
 ErrMax= 7.34D-03  0.00D+00 EMaxC= 1.00D-01 BMatC= 5.30D-02 BMatP= 2.06D-01
 IDIUse=3 WtCom= 9.27D-01 WtEn= 7.34D-02
 Coeff-Com: -0.110D+00 0.230D+00 0.411D+00 0.470D+00
 Coeff-En:   0.000D+00 0.000D+00 0.231D+00 0.769D+00
 Coeff:     -0.102D+00 0.213D+00 0.398D+00 0.492D+00
 Gap=     0.121 Goal=   None    Shift=    0.000
 RMSDP=2.13D-04 MaxDP=2.04D-02 DE=-1.39D-01 OVMax= 7.33D-02

 Cycle   5  Pass 1  IDiag  1:
 RMSU=  8.16D-05    CP:  9.64D-01  1.49D+00  6.86D-01  5.34D-01
 E= -4069.81359006100     Delta-E=       -0.048745211145 Rises=F Damp=F
 DIIS: error= 6.94D-04 at cycle   5 NSaved=   5.
 NSaved= 5 IEnMin= 5 EnMin= -4069.81359006100     IErMin= 5 ErrMin= 6.94D-04
 ErrMax= 6.94D-04  0.00D+00 EMaxC= 1.00D-01 BMatC= 1.47D-03 BMatP= 5.30D-02
 IDIUse=3 WtCom= 9.93D-01 WtEn= 6.94D-03
 Coeff-Com: -0.397D-01 0.784D-01 0.179D+00 0.261D+00 0.521D+00
 Coeff-En:   0.000D+00 0.000D+00 0.000D+00 0.000D+00 0.100D+01
 Coeff:     -0.395D-01 0.779D-01 0.178D+00 0.259D+00 0.525D+00
 Gap=     0.120 Goal=   None    Shift=    0.000
 RMSDP=4.79D-05 MaxDP=4.41D-03 DE=-4.87D-02 OVMax= 2.14D-02

 Cycle   6  Pass 1  IDiag  1:
 RMSU=  3.37D-05    CP:  9.64D-01  1.49D+00  6.76D-01  6.15D-01  7.03D-01
 E= -4069.81495736239     Delta-E=       -0.001367301389 Rises=F Damp=F
 DIIS: error= 2.28D-04 at cycle   6 NSaved=   6.
 NSaved= 6 IEnMin= 6 EnMin= -4069.81495736239     IErMin= 6 ErrMin= 2.28D-04
 ErrMax= 2.28D-04  0.00D+00 EMaxC= 1.00D-01 BMatC= 2.10D-04 BMatP= 1.47D-03
 IDIUse=3 WtCom= 9.98D-01 WtEn= 2.28D-03
 Coeff-Com:  0.148D-02-0.522D-02 0.149D-01 0.448D-01 0.297D+00 0.647D+00
 Coeff-En:   0.000D+00 0.000D+00 0.000D+00 0.000D+00 0.114D+00 0.886D+00
 Coeff:      0.148D-02-0.521D-02 0.149D-01 0.447D-01 0.297D+00 0.647D+00
 Gap=     0.121 Goal=   None    Shift=    0.000
 RMSDP=1.82D-05 MaxDP=1.33D-03 DE=-1.37D-03 OVMax= 8.86D-03

 Cycle   7  Pass 1  IDiag  1:
 RMSU=  1.18D-05    CP:  9.64D-01  1.50D+00  6.82D-01  6.12D-01  8.19D-01
                    CP:  7.37D-01
 E= -4069.81519526184     Delta-E=       -0.000237899454 Rises=F Damp=F
 DIIS: error= 1.13D-04 at cycle   7 NSaved=   7.
 NSaved= 7 IEnMin= 7 EnMin= -4069.81519526184     IErMin= 7 ErrMin= 1.13D-04
 ErrMax= 1.13D-04  0.00D+00 EMaxC= 1.00D-01 BMatC= 2.94D-05 BMatP= 2.10D-04
 IDIUse=3 WtCom= 9.99D-01 WtEn= 1.13D-03
 Coeff-Com:  0.462D-02-0.102D-01-0.859D-02-0.237D-02 0.107D+00 0.350D+00
 Coeff-Com:  0.559D+00
 Coeff-En:   0.000D+00 0.000D+00 0.000D+00 0.000D+00 0.000D+00 0.000D+00
 Coeff-En:   0.100D+01
 Coeff:      0.461D-02-0.102D-01-0.858D-02-0.237D-02 0.107D+00 0.350D+00
 Coeff:      0.560D+00
 Gap=     0.121 Goal=   None    Shift=    0.000
 RMSDP=7.08D-06 MaxDP=1.13D-03 DE=-2.38D-04 OVMax= 3.50D-03

 Cycle   8  Pass 1  IDiag  1:
 RMSU=  4.97D-06    CP:  9.64D-01  1.50D+00  6.82D-01  6.17D-01  8.18D-01
                    CP:  8.59D-01  8.00D-01
 E= -4069.81523119458     Delta-E=       -0.000035932735 Rises=F Damp=F
 DIIS: error= 6.18D-05 at cycle   8 NSaved=   8.
 NSaved= 8 IEnMin= 8 EnMin= -4069.81523119458     IErMin= 8 ErrMin= 6.18D-05
 ErrMax= 6.18D-05  0.00D+00 EMaxC= 1.00D-01 BMatC= 4.89D-06 BMatP= 2.94D-05
 IDIUse=1 WtCom= 1.00D+00 WtEn= 0.00D+00
 Coeff-Com:  0.227D-02-0.453D-02-0.794D-02-0.120D-01-0.813D-02 0.357D-01
 Coeff-Com:  0.302D+00 0.693D+00
 Coeff:      0.227D-02-0.453D-02-0.794D-02-0.120D-01-0.813D-02 0.357D-01
 Coeff:      0.302D+00 0.693D+00
 Gap=     0.121 Goal=   None    Shift=    0.000
 RMSDP=3.46D-06 MaxDP=4.06D-04 DE=-3.59D-05 OVMax= 1.24D-03

 Cycle   9  Pass 1  IDiag  1:
 RMSU=  2.03D-06    CP:  9.64D-01  1.50D+00  6.83D-01  6.19D-01  8.34D-01
                    CP:  8.87D-01  9.85D-01  9.84D-01
 E= -4069.81523932000     Delta-E=       -0.000008125426 Rises=F Damp=F
 DIIS: error= 2.18D-05 at cycle   9 NSaved=   9.
 NSaved= 9 IEnMin= 9 EnMin= -4069.81523932000     IErMin= 9 ErrMin= 2.18D-05
 ErrMax= 2.18D-05  0.00D+00 EMaxC= 1.00D-01 BMatC= 8.26D-07 BMatP= 4.89D-06
 IDIUse=1 WtCom= 1.00D+00 WtEn= 0.00D+00
 Coeff-Com:  0.503D-03-0.840D-03-0.282D-02-0.615D-02-0.199D-01-0.408D-01
 Coeff-Com:  0.826D-01 0.354D+00 0.634D+00
 Coeff:      0.503D-03-0.840D-03-0.282D-02-0.615D-02-0.199D-01-0.408D-01
 Coeff:      0.826D-01 0.354D+00 0.634D+00
 Gap=     0.121 Goal=   None    Shift=    0.000
 RMSDP=1.51D-06 MaxDP=1.59D-04 DE=-8.13D-06 OVMax= 8.13D-04

 Cycle  10  Pass 1  IDiag  1:
 RMSU=  9.87D-07    CP:  9.64D-01  1.50D+00  6.83D-01  6.19D-01  8.37D-01
                    CP:  9.00D-01  1.03D+00  1.15D+00  1.06D+00
 E= -4069.81524115346     Delta-E=       -0.000001833454 Rises=F Damp=F
 DIIS: error= 1.02D-05 at cycle  10 NSaved=  10.
 NSaved=10 IEnMin=10 EnMin= -4069.81524115346     IErMin=10 ErrMin= 1.02D-05
 ErrMax= 1.02D-05  0.00D+00 EMaxC= 1.00D-01 BMatC= 1.67D-07 BMatP= 8.26D-07
 IDIUse=1 WtCom= 1.00D+00 WtEn= 0.00D+00
 Coeff-Com: -0.424D-03 0.894D-03 0.119D-02 0.993D-03-0.362D-02-0.308D-01
 Coeff-Com: -0.444D-01-0.620D-01 0.219D+00 0.919D+00
 Coeff:     -0.424D-03 0.894D-03 0.119D-02 0.993D-03-0.362D-02-0.308D-01
 Coeff:     -0.444D-01-0.620D-01 0.219D+00 0.919D+00
 Gap=     0.121 Goal=   None    Shift=    0.000
 RMSDP=1.27D-06 MaxDP=1.26D-04 DE=-1.83D-06 OVMax= 6.91D-04

 Cycle  11  Pass 1  IDiag  1:
 RMSU=  5.59D-07    CP:  9.64D-01  1.50D+00  6.83D-01  6.20D-01  8.39D-01
                    CP:  9.09D-01  1.07D+00  1.26D+00  1.39D+00  1.37D+00
 E= -4069.81524200082     Delta-E=       -0.000000847362 Rises=F Damp=F
 DIIS: error= 4.23D-06 at cycle  11 NSaved=  11.
 NSaved=11 IEnMin=11 EnMin= -4069.81524200082     IErMin=11 ErrMin= 4.23D-06
 ErrMax= 4.23D-06  0.00D+00 EMaxC= 1.00D-01 BMatC= 7.21D-08 BMatP= 1.67D-07
 IDIUse=1 WtCom= 1.00D+00 WtEn= 0.00D+00
 Coeff-Com: -0.349D-03 0.680D-03 0.139D-02 0.214D-02 0.427D-02-0.829D-02
 Coeff-Com: -0.406D-01-0.129D+00-0.518D-01 0.502D+00 0.720D+00
 Coeff:     -0.349D-03 0.680D-03 0.139D-02 0.214D-02 0.427D-02-0.829D-02
 Coeff:     -0.406D-01-0.129D+00-0.518D-01 0.502D+00 0.720D+00
 Gap=     0.121 Goal=   None    Shift=    0.000
 RMSDP=7.31D-07 MaxDP=7.40D-05 DE=-8.47D-07 OVMax= 4.34D-04

 Cycle  12  Pass 1  IDiag  1:
 RMSU=  2.82D-07    CP:  9.64D-01  1.50D+00  6.83D-01  6.20D-01  8.40D-01
                    CP:  9.12D-01  1.09D+00  1.33D+00  1.55D+00  1.77D+00
                    CP:  1.18D+00
 E= -4069.81524229660     Delta-E=       -0.000000295779 Rises=F Damp=F
 DIIS: error= 2.80D-06 at cycle  12 NSaved=  12.
 NSaved=12 IEnMin=12 EnMin= -4069.81524229660     IErMin=12 ErrMin= 2.80D-06
 ErrMax= 2.80D-06  0.00D+00 EMaxC= 1.00D-01 BMatC= 1.61D-08 BMatP= 7.21D-08
 IDIUse=1 WtCom= 1.00D+00 WtEn= 0.00D+00
 Coeff-Com: -0.156D-04 0.135D-04 0.243D-03 0.590D-03 0.343D-02 0.377D-02
 Coeff-Com:  0.112D-02-0.354D-01-0.768D-01-0.408D-01 0.245D+00 0.899D+00
 Coeff:     -0.156D-04 0.135D-04 0.243D-03 0.590D-03 0.343D-02 0.377D-02
 Coeff:      0.112D-02-0.354D-01-0.768D-01-0.408D-01 0.245D+00 0.899D+00
 Gap=     0.121 Goal=   None    Shift=    0.000
 RMSDP=4.49D-07 MaxDP=2.88D-05 DE=-2.96D-07 OVMax= 2.79D-04

 Cycle  13  Pass 1  IDiag  1:
 RMSU=  1.73D-07    CP:  9.64D-01  1.50D+00  6.83D-01  6.20D-01  8.41D-01
                    CP:  9.12D-01  1.10D+00  1.36D+00  1.66D+00  1.99D+00
                    CP:  1.58D+00  1.26D+00
 E= -4069.81524239659     Delta-E=       -0.000000099993 Rises=F Damp=F
 DIIS: error= 1.42D-06 at cycle  13 NSaved=  13.
 NSaved=13 IEnMin=13 EnMin= -4069.81524239659     IErMin=13 ErrMin= 1.42D-06
 ErrMax= 1.42D-06  0.00D+00 EMaxC= 1.00D-01 BMatC= 9.25D-09 BMatP= 1.61D-08
 IDIUse=1 WtCom= 1.00D+00 WtEn= 0.00D+00
 Coeff-Com:  0.122D-03-0.250D-03-0.370D-03-0.451D-03 0.680D-03 0.480D-02
 Coeff-Com:  0.179D-01 0.248D-01-0.298D-01-0.237D+00-0.177D+00 0.587D+00
 Coeff-Com:  0.810D+00
 Coeff:      0.122D-03-0.250D-03-0.370D-03-0.451D-03 0.680D-03 0.480D-02
 Coeff:      0.179D-01 0.248D-01-0.298D-01-0.237D+00-0.177D+00 0.587D+00
 Coeff:      0.810D+00
 Gap=     0.121 Goal=   None    Shift=    0.000
 RMSDP=3.68D-07 MaxDP=2.48D-05 DE=-1.00D-07 OVMax= 2.42D-04

 Cycle  14  Pass 1  IDiag  1:
 RMSU=  8.04D-08    CP:  9.64D-01  1.50D+00  6.83D-01  6.20D-01  8.41D-01
                    CP:  9.13D-01  1.11D+00  1.38D+00  1.74D+00  2.19D+00
                    CP:  1.84D+00  1.78D+00  1.13D+00
 E= -4069.81524243832     Delta-E=       -0.000000041731 Rises=F Damp=F
 DIIS: error= 7.57D-07 at cycle  14 NSaved=  14.
 NSaved=14 IEnMin=14 EnMin= -4069.81524243832     IErMin=14 ErrMin= 7.57D-07
 ErrMax= 7.57D-07  0.00D+00 EMaxC= 1.00D-01 BMatC= 1.32D-09 BMatP= 9.25D-09
 IDIUse=1 WtCom= 1.00D+00 WtEn= 0.00D+00
 Coeff-Com:  0.688D-04-0.136D-03-0.253D-03-0.391D-03-0.414D-03 0.111D-02
 Coeff-Com:  0.958D-02 0.202D-01 0.643D-02-0.100D+00-0.148D+00 0.850D-01
 Coeff-Com:  0.397D+00 0.729D+00
 Coeff:      0.688D-04-0.136D-03-0.253D-03-0.391D-03-0.414D-03 0.111D-02
 Coeff:      0.958D-02 0.202D-01 0.643D-02-0.100D+00-0.148D+00 0.850D-01
 Coeff:      0.397D+00 0.729D+00
 Gap=     0.121 Goal=   None    Shift=    0.000
 RMSDP=1.10D-07 MaxDP=7.56D-06 DE=-4.17D-08 OVMax= 6.75D-05

 Cycle  15  Pass 1  IDiag  1:
 RMSU=  3.94D-08    CP:  9.64D-01  1.50D+00  6.83D-01  6.20D-01  8.41D-01
                    CP:  9.12D-01  1.11D+00  1.39D+00  1.75D+00  2.23D+00
                    CP:  1.95D+00  1.93D+00  1.36D+00  1.05D+00
 E= -4069.81524244273     Delta-E=       -0.000000004406 Rises=F Damp=F
 DIIS: error= 3.93D-07 at cycle  15 NSaved=  15.
 NSaved=15 IEnMin=15 EnMin= -4069.81524244273     IErMin=15 ErrMin= 3.93D-07
 ErrMax= 3.93D-07  0.00D+00 EMaxC= 1.00D-01 BMatC= 2.43D-10 BMatP= 1.32D-09
 IDIUse=1 WtCom= 1.00D+00 WtEn= 0.00D+00
 Coeff-Com:  0.621D-05-0.106D-04-0.362D-04-0.865D-04-0.279D-03-0.561D-03
 Coeff-Com:  0.988D-03 0.294D-02 0.862D-02 0.136D-02-0.303D-01-0.718D-01
 Coeff-Com:  0.257D-01 0.309D+00 0.754D+00
 Coeff:      0.621D-05-0.106D-04-0.362D-04-0.865D-04-0.279D-03-0.561D-03
 Coeff:      0.988D-03 0.294D-02 0.862D-02 0.136D-02-0.303D-01-0.718D-01
 Coeff:      0.257D-01 0.309D+00 0.754D+00
 Gap=     0.121 Goal=   None    Shift=    0.000
 RMSDP=4.03D-08 MaxDP=3.05D-06 DE=-4.41D-09 OVMax= 3.18D-05

 Cycle  16  Pass 1  IDiag  1:
 RMSU=  1.95D-08    CP:  9.64D-01  1.50D+00  6.83D-01  6.20D-01  8.41D-01
                    CP:  9.12D-01  1.11D+00  1.39D+00  1.76D+00  2.24D+00
                    CP:  1.97D+00  1.98D+00  1.43D+00  1.26D+00  1.14D+00
 E= -4069.81524244366     Delta-E=       -0.000000000931 Rises=F Damp=F
 DIIS: error= 2.02D-07 at cycle  16 NSaved=  16.
 NSaved=16 IEnMin=16 EnMin= -4069.81524244366     IErMin=16 ErrMin= 2.02D-07
 ErrMax= 2.02D-07  0.00D+00 EMaxC= 1.00D-01 BMatC= 8.57D-11 BMatP= 2.43D-10
 IDIUse=1 WtCom= 1.00D+00 WtEn= 0.00D+00
 Coeff-Com: -0.136D-04 0.277D-04 0.437D-04 0.473D-04-0.341D-04-0.608D-03
 Coeff-Com: -0.167D-02-0.396D-02 0.341D-02 0.245D-01 0.204D-01-0.607D-01
 Coeff-Com: -0.797D-01-0.279D-01 0.391D+00 0.735D+00
 Coeff:     -0.136D-04 0.277D-04 0.437D-04 0.473D-04-0.341D-04-0.608D-03
 Coeff:     -0.167D-02-0.396D-02 0.341D-02 0.245D-01 0.204D-01-0.607D-01
 Coeff:     -0.797D-01-0.279D-01 0.391D+00 0.735D+00
 Gap=     0.121 Goal=   None    Shift=    0.000
 RMSDP=2.32D-08 MaxDP=1.49D-06 DE=-9.31D-10 OVMax= 1.48D-05

 Cycle  17  Pass 1  IDiag  1:
 RMSU=  1.09D-08    CP:  9.64D-01  1.50D+00  6.83D-01  6.20D-01  8.41D-01
                    CP:  9.12D-01  1.11D+00  1.39D+00  1.76D+00  2.25D+00
                    CP:  1.98D+00  2.01D+00  1.48D+00  1.35D+00  1.42D+00
                    CP:  1.22D+00
 E= -4069.81524244384     Delta-E=       -0.000000000182 Rises=F Damp=F
 DIIS: error= 9.59D-08 at cycle  17 NSaved=  17.
 NSaved=17 IEnMin=17 EnMin= -4069.81524244384     IErMin=17 ErrMin= 9.59D-08
 ErrMax= 9.59D-08  0.00D+00 EMaxC= 1.00D-01 BMatC= 1.92D-11 BMatP= 8.57D-11
 IDIUse=1 WtCom= 1.00D+00 WtEn= 0.00D+00
 Coeff-Com: -0.745D-05 0.145D-04 0.289D-04 0.416D-04 0.765D-04-0.124D-03
 Coeff-Com: -0.832D-03-0.275D-02-0.366D-03 0.985D-02 0.174D-01-0.760D-02
 Coeff-Com: -0.359D-01-0.983D-01-0.267D-01 0.304D+00 0.842D+00
 Coeff:     -0.745D-05 0.145D-04 0.289D-04 0.416D-04 0.765D-04-0.124D-03
 Coeff:     -0.832D-03-0.275D-02-0.366D-03 0.985D-02 0.174D-01-0.760D-02
 Coeff:     -0.359D-01-0.983D-01-0.267D-01 0.304D+00 0.842D+00
 Gap=     0.121 Goal=   None    Shift=    0.000
 RMSDP=1.38D-08 MaxDP=9.39D-07 DE=-1.82D-10 OVMax= 1.06D-05

 Cycle  18  Pass 1  IDiag  1:
 RMSU=  5.28D-09    CP:  9.64D-01  1.50D+00  6.83D-01  6.20D-01  8.41D-01
                    CP:  9.12D-01  1.11D+00  1.39D+00  1.76D+00  2.25D+00
                    CP:  1.99D+00  2.01D+00  1.50D+00  1.42D+00  1.58D+00
                    CP:  1.62D+00  1.36D+00
 E= -4069.81524244400     Delta-E=       -0.000000000164 Rises=F Damp=F
 DIIS: error= 6.73D-08 at cycle  18 NSaved=  18.
 NSaved=18 IEnMin=18 EnMin= -4069.81524244400     IErMin=18 ErrMin= 6.73D-08
 ErrMax= 6.73D-08  0.00D+00 EMaxC= 1.00D-01 BMatC= 7.84D-12 BMatP= 1.92D-11
 IDIUse=1 WtCom= 1.00D+00 WtEn= 0.00D+00
 Coeff-Com:  0.124D-05-0.283D-05-0.158D-05 0.236D-05 0.614D-04 0.158D-03
 Coeff-Com:  0.281D-03 0.192D-04-0.120D-02-0.479D-02 0.711D-03 0.173D-01
 Coeff-Com:  0.149D-01-0.388D-01-0.156D+00-0.152D+00 0.387D+00 0.932D+00
 Coeff:      0.124D-05-0.283D-05-0.158D-05 0.236D-05 0.614D-04 0.158D-03
 Coeff:      0.281D-03 0.192D-04-0.120D-02-0.479D-02 0.711D-03 0.173D-01
 Coeff:      0.149D-01-0.388D-01-0.156D+00-0.152D+00 0.387D+00 0.932D+00
 Gap=     0.121 Goal=   None    Shift=    0.000
 RMSDP=1.14D-08 MaxDP=7.56D-07 DE=-1.64D-10 OVMax= 7.21D-06

 Cycle  19  Pass 1  IDiag  1:
 RMSU=  3.18D-09    CP:  9.64D-01  1.50D+00  6.83D-01  6.20D-01  8.41D-01
                    CP:  9.12D-01  1.11D+00  1.39D+00  1.76D+00  2.25D+00
                    CP:  1.99D+00  2.02D+00  1.51D+00  1.46D+00  1.72D+00
                    CP:  1.91D+00  1.89D+00  1.25D+00
 E= -4069.81524244410     Delta-E=       -0.000000000091 Rises=F Damp=F
 DIIS: error= 2.70D-08 at cycle  19 NSaved=  19.
 NSaved=19 IEnMin=19 EnMin= -4069.81524244410     IErMin=19 ErrMin= 2.70D-08
 ErrMax= 2.70D-08  0.00D+00 EMaxC= 1.00D-01 BMatC= 2.10D-12 BMatP= 7.84D-12
 IDIUse=1 WtCom= 1.00D+00 WtEn= 0.00D+00
 Coeff-Com:  0.306D-05-0.620D-05-0.101D-04-0.120D-04 0.173D-04 0.127D-03
 Coeff-Com:  0.452D-03 0.840D-03-0.529D-03-0.621D-02-0.512D-02 0.128D-01
 Coeff-Com:  0.217D-01 0.895D-02-0.823D-01-0.193D+00-0.193D-01 0.537D+00
 Coeff-Com:  0.724D+00
 Coeff:      0.306D-05-0.620D-05-0.101D-04-0.120D-04 0.173D-04 0.127D-03
 Coeff:      0.452D-03 0.840D-03-0.529D-03-0.621D-02-0.512D-02 0.128D-01
 Coeff:      0.217D-01 0.895D-02-0.823D-01-0.193D+00-0.193D-01 0.537D+00
 Coeff:      0.724D+00
 Gap=     0.121 Goal=   None    Shift=    0.000
 RMSDP=5.40D-09 MaxDP=4.39D-07 DE=-9.09D-11 OVMax= 4.10D-06

 SCF Done:  E(RCAM-B3LYP) =  -4069.81524244     A.U. after   19 cycles
            NFock= 19  Conv=0.54D-08     -V/T= 2.0102
 KE= 4.028784409169D+03 PE=-4.042360717309D+04 EE= 1.685411744778D+04
 Leave Link  502 at Thu Sep  9 14:43:03 2021, MaxMem= 23488102400 cpu:           16210.3 elap:             702.4
 (Enter /sw/apps/gaussian-16.0/g16/l801.exe)
 DoSCS=F DFT=T ScalE2(SS,OS)=  1.000000  1.000000
 ExpMin= 3.36D-02 ExpMax= 4.95D+03 ExpMxC= 7.45D+02 IAcc=3 IRadAn=         5 AccDes= 0.00D+00
 HarFok:  IExCor=  205 AccDes= 0.00D+00 IRadAn=         5 IDoV=-2 UseB2=F ITyADJ=14
 ICtDFT= 12500011 ScaDFX=  1.000000  1.000000  1.000000  1.000000
 GSVD:  LWork=       -9588 too small for GESVD, short by       45590 words or       45590 for optimal perf.
 Largest valence mixing into a core orbital is  2.03D-04
 Largest core mixing into a valence orbital is  5.23D-05
 Range of M.O.s used for correlation:    95  1572
 NBasis=  1572 NAE=   312 NBE=   312 NFC=    94 NFV=     0
 NROrb=   1478 NOA=   218 NOB=   218 NVA=  1260 NVB=  1260
 Leave Link  801 at Thu Sep  9 14:43:03 2021, MaxMem= 23488102400 cpu:               9.9 elap:               0.4
 (Enter /sw/apps/gaussian-16.0/g16/l914.exe)
 RHF ground state
 Two-electron integrals replicated using symmetry.
 MDV= 23488102400 DFT=T DoStab=F Mixed=T DoRPA=T DoScal=F NonHer=T
 Making orbital integer symmetry assigments:
 Orbital symmetries:
       Occupied  (A) (A) (A) (A) (A) (A) (A) (A) (A) (A) (A) (A)
                 (A) (A) (A) (A) (A) (A) (A) (A) (A) (A) (A) (A)
                 (A) (A) (A) (A) (A) (A) (A) (A) (A) (A) (A) (A)
                 (A) (A) (A) (A) (A) (A) (A) (A) (A) (A) (A) (A)
                 (A) (A) (A) (A) (A) (A) (A) (A) (A) (A) (A) (A)
                 (A) (A) (A) (A) (A) (A) (A) (A) (A) (A) (A) (A)
                 (A) (A) (A) (A) (A) (A) (A) (A) (A) (A) (A) (A)
                 (A) (A) (A) (A) (A) (A) (A) (A) (A) (A) (A) (A)
                 (A) (A) (A) (A) (A) (A) (A) (A) (A) (A) (A) (A)
                 (A) (A) (A) (A) (A) (A) (A) (A) (A) (A) (A) (A)
                 (A) (A) (A) (A) (A) (A) (A) (A) (A) (A) (A) (A)
                 (A) (A) (A) (A) (A) (A) (A) (A) (A) (A) (A) (A)
                 (A) (A) (A) (A) (A) (A) (A) (A) (A) (A) (A) (A)
                 (A) (A) (A) (A) (A) (A) (A) (A) (A) (A) (A) (A)
                 (A) (A) (A) (A) (A) (A) (A) (A) (A) (A) (A) (A)
                 (A) (A) (A) (A) (A) (A) (A) (A) (A) (A) (A) (A)
                 (A) (A) (A) (A) (A) (A) (A) (A) (A) (A) (A) (A)
                 (A) (A) (A) (A) (A) (A) (A) (A) (A) (A) (A) (A)
                 (A) (A) (A) (A) (A) (A) (A) (A) (A) (A) (A) (A)
                 (A) (A) (A) (A) (A) (A) (A) (A) (A) (A) (A) (A)
                 (A) (A) (A) (A) (A) (A) (A) (A) (A) (A) (A) (A)
                 (A) (A) (A) (A) (A) (A) (A) (A) (A) (A) (A) (A)
                 (A) (A) (A) (A) (A) (A) (A) (A) (A) (A) (A) (A)
                 (A) (A) (A) (A) (A) (A) (A) (A) (A) (A) (A) (A)
                 (A) (A) (A) (A) (A) (A) (A) (A) (A) (A) (A) (A)
                 (A) (A) (A) (A) (A) (A) (A) (A) (A) (A) (A) (A)
       Virtual   (A) (A) (A) (A) (A) (A) (A) (A) (A) (A) (A) (A)
                 (A) (A) (A) (A) (A) (A) (A) (A) (A) (A) (A) (A)
                 (A) (A) (A) (A) (A) (A) (A) (A) (A) (A) (A) (A)
                 (A) (A) (A) (A) (A) (A) (A) (A) (A) (A) (A) (A)
                 (A) (A) (A) (A) (A) (A) (A) (A) (A) (A) (A) (A)
                 (A) (A) (A) (A) (A) (A) (A) (A) (A) (A) (A) (A)
                 (A) (A) (A) (A) (A) (A) (A) (A) (A) (A) (A) (A)
                 (A) (A) (A) (A) (A) (A) (A) (A) (A) (A) (A) (A)
                 (A) (A) (A) (A) (A) (A) (A) (A) (A) (A) (A) (A)
                 (A) (A) (A) (A) (A) (A) (A) (A) (A) (A) (A) (A)
                 (A) (A) (A) (A) (A) (A) (A) (A) (A) (A) (A) (A)
                 (A) (A) (A) (A) (A) (A) (A) (A) (A) (A) (A) (A)
                 (A) (A) (A) (A) (A) (A) (A) (A) (A) (A) (A) (A)
                 (A) (A) (A) (A) (A) (A) (A) (A) (A) (A) (A) (A)
                 (A) (A) (A) (A) (A) (A) (A) (A) (A) (A) (A) (A)
                 (A) (A) (A) (A) (A) (A) (A) (A) (A) (A) (A) (A)
                 (A) (A) (A) (A) (A) (A) (A) (A) (A) (A) (A) (A)
                 (A) (A) (A) (A) (A) (A) (A) (A) (A) (A) (A) (A)
                 (A) (A) (A) (A) (A) (A) (A) (A) (A) (A) (A) (A)
                 (A) (A) (A) (A) (A) (A) (A) (A) (A) (A) (A) (A)
                 (A) (A) (A) (A) (A) (A) (A) (A) (A) (A) (A) (A)
                 (A) (A) (A) (A) (A) (A) (A) (A) (A) (A) (A) (A)
                 (A) (A) (A) (A) (A) (A) (A) (A) (A) (A) (A) (A)
                 (A) (A) (A) (A) (A) (A) (A) (A) (A) (A) (A) (A)
                 (A) (A) (A) (A) (A) (A) (A) (A) (A) (A) (A) (A)
                 (A) (A) (A) (A) (A) (A) (A) (A) (A) (A) (A) (A)
                 (A) (A) (A) (A) (A) (A) (A) (A) (A) (A) (A) (A)
                 (A) (A) (A) (A) (A) (A) (A) (A) (A) (A) (A) (A)
                 (A) (A) (A) (A) (A) (A) (A) (A) (A) (A) (A) (A)
                 (A) (A) (A) (A) (A) (A) (A) (A) (A) (A) (A) (A)
                 (A) (A) (A) (A) (A) (A) (A) (A) (A) (A) (A) (A)
                 (A) (A) (A) (A) (A) (A) (A) (A) (A) (A) (A) (A)
                 (A) (A) (A) (A) (A) (A) (A) (A) (A) (A) (A) (A)
                 (A) (A) (A) (A) (A) (A) (A) (A) (A) (A) (A) (A)
                 (A) (A) (A) (A) (A) (A) (A) (A) (A) (A) (A) (A)
                 (A) (A) (A) (A) (A) (A) (A) (A) (A) (A) (A) (A)
                 (A) (A) (A) (A) (A) (A) (A) (A) (A) (A) (A) (A)
                 (A) (A) (A) (A) (A) (A) (A) (A) (A) (A) (A) (A)
                 (A) (A) (A) (A) (A) (A) (A) (A) (A) (A) (A) (A)
                 (A) (A) (A) (A) (A) (A) (A) (A) (A) (A) (A) (A)
                 (A) (A) (A) (A) (A) (A) (A) (A) (A) (A) (A) (A)
                 (A) (A) (A) (A) (A) (A) (A) (A) (A) (A) (A) (A)
                 (A) (A) (A) (A) (A) (A) (A) (A) (A) (A) (A) (A)
                 (A) (A) (A) (A) (A) (A) (A) (A) (A) (A) (A) (A)
                 (A) (A) (A) (A) (A) (A) (A) (A) (A) (A) (A) (A)
                 (A) (A) (A) (A) (A) (A) (A) (A) (A) (A) (A) (A)
                 (A) (A) (A) (A) (A) (A) (A) (A) (A) (A) (A) (A)
                 (A) (A) (A) (A) (A) (A) (A) (A) (A) (A) (A) (A)
                 (A) (A) (A) (A) (A) (A) (A) (A) (A) (A) (A) (A)
                 (A) (A) (A) (A) (A) (A) (A) (A) (A) (A) (A) (A)
                 (A) (A) (A) (A) (A) (A) (A) (A) (A) (A) (A) (A)
                 (A) (A) (A) (A) (A) (A) (A) (A) (A) (A) (A) (A)
                 (A) (A) (A) (A) (A) (A) (A) (A) (A) (A) (A) (A)
                 (A) (A) (A) (A) (A) (A) (A) (A) (A) (A) (A) (A)
                 (A) (A) (A) (A) (A) (A) (A) (A) (A) (A) (A) (A)
                 (A) (A) (A) (A) (A) (A) (A) (A) (A) (A) (A) (A)
                 (A) (A) (A) (A) (A) (A) (A) (A) (A) (A) (A) (A)
                 (A) (A) (A) (A) (A) (A) (A) (A) (A) (A) (A) (A)
                 (A) (A) (A) (A) (A) (A) (A) (A) (A) (A) (A) (A)
                 (A) (A) (A) (A) (A) (A) (A) (A) (A) (A) (A) (A)
                 (A) (A) (A) (A) (A) (A) (A) (A) (A) (A) (A) (A)
                 (A) (A) (A) (A) (A) (A) (A) (A) (A) (A) (A) (A)
                 (A) (A) (A) (A) (A) (A) (A) (A) (A) (A) (A) (A)
                 (A) (A) (A) (A) (A) (A) (A) (A) (A) (A) (A) (A)
                 (A) (A) (A) (A) (A) (A) (A) (A) (A) (A) (A) (A)
                 (A) (A) (A) (A) (A) (A) (A) (A) (A) (A) (A) (A)
                 (A) (A) (A) (A) (A) (A) (A) (A) (A) (A) (A) (A)
                 (A) (A) (A) (A) (A) (A) (A) (A) (A) (A) (A) (A)
                 (A) (A) (A) (A) (A) (A) (A) (A) (A) (A) (A) (A)
                 (A) (A) (A) (A) (A) (A) (A) (A) (A) (A) (A) (A)
                 (A) (A) (A) (A) (A) (A) (A) (A) (A) (A) (A) (A)
                 (A) (A) (A) (A) (A) (A) (A) (A) (A) (A) (A) (A)
                 (A) (A) (A) (A) (A) (A) (A) (A) (A) (A) (A) (A)
                 (A) (A) (A) (A) (A) (A) (A) (A) (A) (A) (A) (A)
                 (A) (A) (A) (A) (A) (A) (A) (A) (A) (A) (A) (A)
                 (A) (A) (A) (A) (A) (A) (A) (A) (A) (A) (A) (A)
                 (A) (A) (A) (A) (A) (A) (A) (A) (A) (A) (A) (A)
                 (A) (A) (A) (A) (A) (A) (A) (A) (A) (A) (A) (A)
                 (A) (A) (A) (A) (A) (A) (A) (A) (A) (A) (A) (A)
                 (A) (A) (A) (A) (A) (A) (A) (A) (A) (A) (A) (A)
                 (A) (A) (A) (A) (A) (A) (A) (A) (A) (A) (A) (A)
                 (A) (A) (A) (A) (A) (A) (A) (A) (A) (A) (A) (A)
                 (A) (A) (A) (A) (A) (A) (A) (A) (A) (A) (A) (A)
                 (A) (A) (A) (A) (A) (A) (A) (A) (A) (A) (A) (A)
                 (A) (A) (A) (A) (A) (A) (A) (A) (A) (A) (A) (A)
                 (A) (A) (A) (A) (A) (A) (A) (A) (A) (A) (A) (A)
                 (A) (A) (A) (A) (A) (A) (A) (A) (A) (A) (A) (A)
                 (A) (A) (A) (A) (A) (A) (A) (A) (A) (A) (A) (A)
                 (A) (A) (A) (A) (A) (A) (A) (A) (A) (A) (A) (A)
                 (A) (A) (A) (A) (A) (A) (A) (A) (A) (A) (A) (A)
                 (A) (A) (A) (A) (A) (A) (A) (A) (A) (A) (A) (A)
                 (A) (A) (A) (A) (A) (A) (A) (A) (A) (A) (A) (A)
                 (A) (A) (A) (A) (A) (A) (A) (A) (A) (A) (A) (A)
                 (A) (A) (A) (A) (A) (A) (A) (A) (A) (A) (A) (A)
                 (A) (A) (A) (A) (A) (A) (A) (A) (A) (A) (A) (A)
                 (A) (A) (A) (A) (A) (A) (A) (A) (A) (A) (A) (A)
                 (A) (A) (A) (A) (A) (A) (A) (A) (A) (A) (A) (A)
                 (A) (A) (A) (A) (A) (A) (A) (A) (A) (A) (A) (A)
                 (A) (A) (A) (A) (A) (A) (A) (A) (A) (A) (A) (A)
                 (A) (A) (A) (A) (A) (A) (A) (A) (A) (A) (A) (A)
                 (A) (A) (A) (A) (A) (A) (A) (A) (A) (A) (A) (A)
                 (A) (A) (A) (A) (A) (A) (A) (A) (A) (A) (A) (A)
                 (A) (A) (A) (A) (A) (A) (A) (A) (A) (A) (A) (A)
                 (A) (A) (A) (A) (A) (A) (A) (A) (A) (A) (A) (A)
                 (A) (A) (A) (A) (A) (A) (A) (A) (A) (A) (A) (A)
    20 initial guesses have been made.
 Convergence on wavefunction:    0.001000000000000
 Davidson Disk Diagonalization:  ConvIn= 1.00D-03 SkipCon=T Conv= 1.00D-03.
 Max sub-space:  2000 roots to seek:    20 dimension of matrix:       549360
 Iteration     1 Dimension    20 NMult     0 NNew     20
 CISAX will form    20 AO SS matrices at one time.
 NMat=    20 NSing=    20 JSym2X= 0.
 FoFJK:  IHMeth= 1 ICntrl=       0 DoSepK=T KAlg= 0 I1Cent=           0 FoldK=F
 IRaf=         1 NMat=      40 IRICut=       1 DoRegI=T DoRafI=F ISym2E= 0 IDoP0=3 IntGTp=3.
 FoFCou: FMM=T IPFlag=           0 FMFlag=      100000 FMFlg1=        2001
         NFxFlg=           0 DoJE=F BraDBF=F KetDBF=F FulRan=T
         wScrn=  0.000000 ICntrl=       500 IOpCl=  0 I1Cent=           0 NGrid=           0
         NMat0=   20 NMatS0=     20 NMatT0=    0 NMatD0=   20 NMtDS0=    0 NMtDT0=    0
 Symmetry not used in FoFCou.
 FMM levels:  10  Number of levels for PrismC:   9
 New state      2 was old state      4
 New state      3 was old state      7
 New state      4 was old state      6
 New state      5 was old state     10
 Excitation Energies [eV] at current iteration:
 Root      1 :     2.406177172906346
 Root      2 :     2.527595641640494
 Root      3 :     2.599304546323383
 Root      4 :     2.614304448058347
 Root      5 :     2.630216500861737
 Root      6 :     2.750800608684140
 Root      7 :     3.202142367161820
 Root      8 :     3.329737535522880
 Root      9 :     3.623781647697841
 Root     10 :     3.675661454814175
 Root     11 :     3.748817159569772
 Root     12 :     3.754154323239405
 Root     13 :     4.264300436809092
 Root     14 :     4.311523669953736
 Root     15 :     4.343116507491132
 Root     16 :     4.424887134998199
 Root     17 :     4.624054447303882
 Root     18 :     4.660288242507871
 Root     19 :     4.749002740323664
 Root     20 :     4.788785463631077
 Iteration     2 Dimension    30 NMult    20 NNew     10
 CISAX will form    10 AO SS matrices at one time.
 NMat=    10 NSing=    10 JSym2X= 0.
 New state      1 was old state      3
 Root      1 not converged, maximum delta is    0.327565787007341
 New state      2 was old state      4
 Root      2 not converged, maximum delta is    0.088310919360357
 New state      3 was old state      5
 Root      3 not converged, maximum delta is    0.235943628194005
 New state      4 was old state      1
 Root      4 not converged, maximum delta is    0.018654824579534
 New state      5 was old state      2
 Root      5 not converged, maximum delta is    0.009840777890328
 Excitation Energies [eV] at current iteration:
 Root      1 :     1.766555140001793   Change is   -0.832749406321590
 Root      2 :     2.229517078101272   Change is   -0.384787369957075
 Root      3 :     2.242006760589492   Change is   -0.388209740272246
 Root      4 :     2.402962890968712   Change is   -0.003214281937634
 Root      5 :     2.526085177389590   Change is   -0.001510464250905
 Iteration     3 Dimension    40 NMult    30 NNew     10
 CISAX will form    10 AO SS matrices at one time.
 NMat=    10 NSing=    10 JSym2X= 0.
 Root      1 not converged, maximum delta is    0.054109685572930
 No map to state      2
 New state      3 was old state      2
 Root      3 not converged, maximum delta is    0.119869888774147
 New state      4 was old state      3
 Root      4 not converged, maximum delta is    0.124069891973018
 New state      5 was old state      4
 Root      5 not converged, maximum delta is    0.002801563650424
 Excitation Energies [eV] at current iteration:
 Root      1 :     1.662573129937422   Change is   -0.103982010064371
 Root      2 :     1.807260735531232
 Root      3 :     2.190098932274104   Change is   -0.039418145827168
 Root      4 :     2.204259347740422   Change is   -0.037747412849070
 Root      5 :     2.402953754283015   Change is   -0.000009136685697
 Iteration     4 Dimension    50 NMult    40 NNew     10
 CISAX will form    10 AO SS matrices at one time.
 NMat=    10 NSing=    10 JSym2X= 0.
 Root      1 not converged, maximum delta is    0.010571863268916
 Root      2 not converged, maximum delta is    0.032853019433657
 Root      3 not converged, maximum delta is    0.010544834743271
 Root      4 not converged, maximum delta is    0.010298836494979
 Root      5 has converged.
 Excitation Energies [eV] at current iteration:
 Root      1 :     1.646004150922978   Change is   -0.016568979014444
 Root      2 :     1.718422857463242   Change is   -0.088837878067990
 Root      3 :     2.181859591387782   Change is   -0.008239340886322
 Root      4 :     2.197251899338998   Change is   -0.007007448401424
 Root      5 :     2.402952117285669   Change is   -0.000001636997346
 Iteration     5 Dimension    58 NMult    50 NNew      8
 CISAX will form     8 AO SS matrices at one time.
 NMat=     8 NSing=     8 JSym2X= 0.
 Root      1 not converged, maximum delta is    0.001501550650282
 Root      2 not converged, maximum delta is    0.011783782020545
 Root      3 not converged, maximum delta is    0.002434161889928
 Root      4 not converged, maximum delta is    0.002098322269393
 Root      5 has converged.
 Excitation Energies [eV] at current iteration:
 Root      1 :     1.644267370585021   Change is   -0.001736780337957
 Root      2 :     1.704320072391694   Change is   -0.014102785071548
 Root      3 :     2.180955506055702   Change is   -0.000904085332080
 Root      4 :     2.196511079619339   Change is   -0.000740819719659
 Root      5 :     2.402952092784946   Change is   -0.000000024500723
 Iteration     6 Dimension    66 NMult    58 NNew      8
 CISAX will form     8 AO SS matrices at one time.
 NMat=     8 NSing=     8 JSym2X= 0.
 Root      1 has converged.
 Root      2 not converged, maximum delta is    0.001441429421650
 Root      3 not converged, maximum delta is    0.001030742404670
 Root      4 has converged.
 Root      5 has converged.
 Excitation Energies [eV] at current iteration:
 Root      1 :     1.644030347433723   Change is   -0.000237023151298
 Root      2 :     1.702883061289674   Change is   -0.001437011102020
 Root      3 :     2.180819379619845   Change is   -0.000136126435857
 Root      4 :     2.196396519828661   Change is   -0.000114559790678
 Root      5 :     2.402952085159713   Change is   -0.000000007625233
 Iteration     7 Dimension    70 NMult    66 NNew      4
 CISAX will form     4 AO SS matrices at one time.
 NMat=     4 NSing=     4 JSym2X= 0.
 Root      1 has converged.
 Root      2 has converged.
 Root      3 has converged.
 Root      4 has converged.
 Root      5 has converged.
 Excitation Energies [eV] at current iteration:
[...]
 Alpha virt. eigenvalues --    1.83801   1.83868   1.84183   1.84398   1.84541
 Alpha virt. eigenvalues --    1.84585   1.84926   1.84989   1.85136   1.85240
 Alpha virt. eigenvalues --    1.85396   1.85452   1.85655   1.85785   1.85972
 Alpha virt. eigenvalues --    1.86122   1.86242   1.86484   1.86686   1.86748
 Alpha virt. eigenvalues --    1.86885   1.87034   1.87165   1.87311   1.87529
 Alpha virt. eigenvalues --    1.87653   1.87717   1.87980   1.88055   1.88193
 Alpha virt. eigenvalues --    1.88285   1.88387   1.88624   1.88793   1.88954
 Alpha virt. eigenvalues --    1.88977   1.89167   1.89413   1.89681   1.89771
 Alpha virt. eigenvalues --    1.89842   1.89944   1.90233   1.90386   1.90541
 Alpha virt. eigenvalues --    1.90897   1.91187   1.91434   1.91572   1.91803
 Alpha virt. eigenvalues --    1.92002   1.92269   1.92489   1.92700   1.93031
 Alpha virt. eigenvalues --    1.93124   1.93483   1.93561   1.93896   1.94420
 Alpha virt. eigenvalues --    1.94781   1.94878   1.95103   1.95633   1.95798
 Alpha virt. eigenvalues --    1.95983   1.96072   1.96290   1.96362   1.96415
 Alpha virt. eigenvalues --    1.96712   1.96915   1.97022   1.97087   1.97215
 Alpha virt. eigenvalues --    1.97582   1.97984   1.98010   1.98217   1.98272
 Alpha virt. eigenvalues --    1.98440   1.98645   1.98917   1.99286   1.99418
 Alpha virt. eigenvalues --    1.99916   2.00163   2.00805   2.01074   2.01181
 Alpha virt. eigenvalues --    2.01310   2.01576   2.01780   2.01788   2.01856
 Alpha virt. eigenvalues --    2.02062   2.02404   2.02895   2.03037   2.03372
 Alpha virt. eigenvalues --    2.03483   2.03495   2.03553   2.03692   2.03828
 Alpha virt. eigenvalues --    2.04163   2.04342   2.05115   2.05300   2.05653
 Alpha virt. eigenvalues --    2.05949   2.06263   2.06518   2.07077   2.07218
 Alpha virt. eigenvalues --    2.07350   2.07669   2.08732   2.08823   2.09153
 Alpha virt. eigenvalues --    2.09291   2.09770   2.09892   2.10945   2.11266
 Alpha virt. eigenvalues --    2.11463   2.11645   2.11740   2.11904   2.11947
 Alpha virt. eigenvalues --    2.12103   2.12618   2.12767   2.12925   2.13007
 Alpha virt. eigenvalues --    2.13165   2.13373   2.13794   2.13893   2.14308
 Alpha virt. eigenvalues --    2.14600   2.15464   2.15829   2.16007   2.16386
 Alpha virt. eigenvalues --    2.16663   2.16839   2.16953   2.17416   2.17563
 Alpha virt. eigenvalues --    2.17818   2.18064   2.18161   2.18234   2.18386
 Alpha virt. eigenvalues --    2.18477   2.18846   2.19066   2.19499   2.19774
 Alpha virt. eigenvalues --    2.20045   2.20238   2.20327   2.20551   2.20697
 Alpha virt. eigenvalues --    2.21332   2.21738   2.21832   2.21874   2.22046
 Alpha virt. eigenvalues --    2.22110   2.22815   2.23033   2.23469   2.23812
 Alpha virt. eigenvalues --    2.24564   2.24837   2.25169   2.25726   2.26419
 Alpha virt. eigenvalues --    2.26669   2.26891   2.27163   2.27279   2.27500
 Alpha virt. eigenvalues --    2.28228   2.28591   2.29445   2.29743   2.29904
 Alpha virt. eigenvalues --    2.30098   2.30587   2.30814   2.30983   2.31109
 Alpha virt. eigenvalues --    2.31262   2.31580   2.32255   2.32600   2.33260
 Alpha virt. eigenvalues --    2.33426   2.33561   2.33873   2.34247   2.34775
 Alpha virt. eigenvalues --    2.35346   2.35551   2.35891   2.36103   2.36532
 Alpha virt. eigenvalues --    2.36540   2.36728   2.37082   2.37860   2.38331
 Alpha virt. eigenvalues --    2.38422   2.38763   2.38890   2.38982   2.39714
 Alpha virt. eigenvalues --    2.39943   2.40300   2.40531   2.40839   2.41032
 Alpha virt. eigenvalues --    2.41303   2.41466   2.41844   2.42026   2.42325
 Alpha virt. eigenvalues --    2.42402   2.43110   2.43166   2.43384   2.43609
 Alpha virt. eigenvalues --    2.44212   2.44338   2.44853   2.44977   2.45027
 Alpha virt. eigenvalues --    2.45257   2.45680   2.45866   2.46444   2.46458
 Alpha virt. eigenvalues --    2.46561   2.46722   2.46912   2.47007   2.47370
 Alpha virt. eigenvalues --    2.47771   2.47850   2.48287   2.49495   2.49766
 Alpha virt. eigenvalues --    2.50247   2.50388   2.50750   2.51058   2.51376
 Alpha virt. eigenvalues --    2.51494   2.51861   2.52037   2.52559   2.52587
 Alpha virt. eigenvalues --    2.52954   2.53383   2.54068   2.54234   2.54312
 Alpha virt. eigenvalues --    2.54484   2.54898   2.55221   2.55641   2.55939
 Alpha virt. eigenvalues --    2.57985   2.58315   2.58750   2.59180   2.60256
 Alpha virt. eigenvalues --    2.60471   2.60664   2.61101   2.61850   2.62068
 Alpha virt. eigenvalues --    2.62595   2.62664   2.63052   2.63395   2.64034
 Alpha virt. eigenvalues --    2.64392   2.64414   2.64921   2.65199   2.65441
 Alpha virt. eigenvalues --    2.65898   2.66043   2.66947   2.67025   2.67309
 Alpha virt. eigenvalues --    2.67392   2.68031   2.68436   2.68903   2.69068
 Alpha virt. eigenvalues --    2.69102   2.69274   2.69539   2.70024   2.70195
 Alpha virt. eigenvalues --    2.70501   2.71055   2.71359   2.72089   2.72142
 Alpha virt. eigenvalues --    2.72676   2.72692   2.72795   2.72969   2.73283
 Alpha virt. eigenvalues --    2.73458   2.73600   2.73824   2.74578   2.74865
 Alpha virt. eigenvalues --    2.75029   2.75284   2.76710   2.76937   2.77306
 Alpha virt. eigenvalues --    2.77381   2.77552   2.77762   2.78309   2.78440
 Alpha virt. eigenvalues --    2.78715   2.78950   2.79212   2.79363   2.80362
 Alpha virt. eigenvalues --    2.80399   2.80658   2.80853   2.81179   2.81360
 Alpha virt. eigenvalues --    2.82003   2.82155   2.82465   2.82628   2.83760
 Alpha virt. eigenvalues --    2.83907   2.84031   2.84085   2.84685   2.84798
 Alpha virt. eigenvalues --    2.85022   2.85262   2.85817   2.85935   2.86925
 Alpha virt. eigenvalues --    2.87012   2.87407   2.87599   2.88311   2.88374
 Alpha virt. eigenvalues --    2.88628   2.88992   2.89040   2.89161   2.90580
 Alpha virt. eigenvalues --    2.91012   2.91346   2.91422   2.93276   2.93528
 Alpha virt. eigenvalues --    2.94011   2.94394   2.94696   2.94926   2.95379
 Alpha virt. eigenvalues --    2.95652   2.95959   2.96097   2.96494   2.96763
 Alpha virt. eigenvalues --    2.97042   2.97348   2.97988   2.98315   2.98368
 Alpha virt. eigenvalues --    2.98495   2.98555   2.98706   2.98852   2.99014
 Alpha virt. eigenvalues --    2.99048   2.99226   2.99790   2.99963   3.00123
 Alpha virt. eigenvalues --    3.00287   3.00356   3.00634   3.01008   3.01249
 Alpha virt. eigenvalues --    3.02089   3.02125   3.02262   3.02474   3.02664
 Alpha virt. eigenvalues --    3.02926   3.03237   3.03457   3.03543   3.03949
 Alpha virt. eigenvalues --    3.04347   3.04441   3.04640   3.04718   3.04922
 Alpha virt. eigenvalues --    3.05451   3.05507   3.05883   3.06212   3.06378
 Alpha virt. eigenvalues --    3.06896   3.07235   3.08232   3.08359   3.09645
 Alpha virt. eigenvalues --    3.09769   3.10263   3.10544   3.10585   3.10935
 Alpha virt. eigenvalues --    3.11477   3.11759   3.11972   3.12396   3.12451
 Alpha virt. eigenvalues --    3.13098   3.13483   3.13789   3.13812   3.13964
 Alpha virt. eigenvalues --    3.14176   3.14591   3.16140   3.17073   3.17396
 Alpha virt. eigenvalues --    3.17751   3.18200   3.18240   3.19274   3.19324
 Alpha virt. eigenvalues --    3.22169   3.22728   3.24047   3.24624   3.24668
 Alpha virt. eigenvalues --    3.25362   3.26619   3.26874   3.27596   3.27712
 Alpha virt. eigenvalues --    3.28922   3.29336   3.31562   3.31620   3.33395
 Alpha virt. eigenvalues --    3.33527   3.40352   3.40587   3.42937   3.42951
 Alpha virt. eigenvalues --    3.48721   3.48882   3.50171   3.50500   3.51025
 Alpha virt. eigenvalues --    3.51587   3.56664   3.57196   3.59256   3.59590
 Alpha virt. eigenvalues --    3.62701   3.63032   3.66188   3.66322   3.67173
 Alpha virt. eigenvalues --    3.67647   3.73359   3.74143   3.76341   3.76811
          Condensed to atoms (all electrons):
 Mulliken charges:
               1
     1  Mg   0.837131
     2  C   -0.005589
     3  C   -0.093192
     4  C   -0.045380
     5  C   -0.062820
     6  N   -0.256850
     7  C   -0.054526
     8  C   -0.012784
     9  C   -0.087282
    10  C    0.046686
    11  C    0.104756
    12  C    0.046867
    13  C   -0.071647
    14  H    0.033917
    15  N   -0.433293
    16  C    0.169627
    17  C   -0.175334
    18  C   -0.002977
    19  C    0.149115
    20  C    0.109639
    21  C    0.012980
    22  O   -0.250054
    23  C    0.061289
    24  N   -0.340796
    25  C    0.041555
    26  C   -0.028165
    27  C   -0.024111
    28  C    0.074803
    29  C    0.076257
    30  C    0.034918
    31  C   -0.005116
    32  N   -0.310658
    33  C    0.080786
    34  C   -0.169072
    35  C    0.006634
    36  C    0.082578
    37  C    0.127192
    38  C    0.045229
    39  O   -0.188969
    40  C   -0.005863
    41  C    0.216296
    42  O   -0.260275
    43  O   -0.303182
    44  C    0.157228
    45  H   -0.017682
    46  H   -0.016751
    47  H   -0.040661
    48  H    0.000596
    49  H   -0.003594
    50  H    0.025360
    51  H    0.017032
    52  H    0.016806
    53  H    0.012625
    54  H    0.045481
    55  H    0.018857
    56  H    0.019514
    57  H    0.005790
    58  H    0.026167
    59  H    0.043639
    60  H    0.037104
    61  H    0.034518
    62  H    0.034843
    63  H    0.016834
    64  H    0.009296
    65  H    0.023092
    66  H    0.012212
    67  H    0.004817
    68  H    0.006147
    69  H    0.005592
    70  H    0.007916
    71  H    0.021897
    72  H    0.028781
    73  H    0.047727
    74  H    0.010340
    75  H    0.045675
    76  H    0.035750
    77  H    0.044435
    78  H    0.047215
    79  H    0.052063
    80  Mg   0.837298
    81  C   -0.017687
    82  C   -0.088389
    83  C   -0.046068
    84  C   -0.063768
    85  N   -0.254657
    86  C   -0.049803
    87  C   -0.015113
    88  C   -0.090382
    89  C    0.045455
    90  C    0.114604
    91  C    0.062627
    92  C   -0.077497
    93  H    0.034057
    94  N   -0.423187
    95  C    0.162515
    96  C   -0.175202
    97  C   -0.008591
    98  C    0.151952
    99  C    0.099472
   100  C    0.014736
   101  O   -0.255903
   102  C    0.061624
   103  N   -0.350474
   104  C    0.037806
   105  C   -0.018589
   106  C   -0.037893
   107  C    0.089756
   108  C    0.074839
   109  C    0.039417
   110  C   -0.025421
   111  N   -0.324359
   112  C    0.079126
   113  C   -0.161537
   114  C    0.001735
   115  C    0.096672
   116  C    0.130542
   117  C    0.042404
   118  O   -0.188169
   119  C    0.000934
   120  C    0.211216
   121  O   -0.251421
   122  O   -0.305611
   123  C    0.152267
   124  H   -0.020693
   125  H   -0.017296
   126  H   -0.035678
   127  H   -0.001084
   128  H   -0.004897
   129  H    0.022125
   130  H    0.014330
   131  H    0.015526
   132  H    0.014022
   133  H    0.037412
   134  H    0.020576
   135  H    0.019392
   136  H    0.008385
   137  H    0.024936
   138  H    0.039145
   139  H    0.038338
   140  H    0.033049
   141  H    0.034536
   142  H    0.012779
   143  H    0.011078
   144  H    0.021909
   145  H    0.010290
   146  H    0.005065
   147  H    0.003779
   148  H    0.017273
   149  H    0.005889
   150  H    0.042464
   151  H    0.022902
   152  H    0.046407
   153  H    0.013438
   154  H    0.045829
   155  H    0.034493
   156  H    0.043578
   157  H    0.049271
   158  H    0.053122
 Sum of Mulliken charges =  -0.00000
 Mulliken charges with hydrogens summed into heavy atoms:
               1
     1  Mg   0.837131
     2  C   -0.005589
     3  C   -0.110874
     4  C   -0.062132
     5  C   -0.103481
     6  N   -0.256850
     7  C   -0.054526
     8  C   -0.012189
     9  C   -0.090876
    10  C    0.046686
    11  C    0.163954
    12  C    0.104973
    13  C    0.000641
    15  N   -0.433293
    16  C    0.169627
    17  C   -0.175334
    18  C   -0.002977
    19  C    0.149115
    20  C    0.185235
    21  C    0.012980
    22  O   -0.250054
    23  C    0.167754
    24  N   -0.340796
    25  C    0.041555
    26  C   -0.011331
    27  C   -0.014815
    28  C    0.074803
    29  C    0.116378
    30  C    0.046658
    31  C    0.053479
    32  N   -0.310658
    33  C    0.080786
    34  C   -0.169072
    35  C    0.006634
    36  C    0.082578
    37  C    0.230935
    38  C    0.045229
    39  O   -0.188969
    40  C    0.029887
    41  C    0.216296
    42  O   -0.260275
    43  O   -0.303182
    44  C    0.300941
    80  Mg   0.837298
    81  C   -0.017687
    82  C   -0.109082
    83  C   -0.063364
    84  C   -0.099445
    85  N   -0.254657
    86  C   -0.049803
    87  C   -0.016197
    88  C   -0.095279
    89  C    0.045455
    90  C    0.166584
    91  C    0.114061
    92  C   -0.003473
    94  N   -0.423187
    95  C    0.162515
    96  C   -0.175202
    97  C   -0.008591
    98  C    0.151952
    99  C    0.171938
   100  C    0.014736
   101  O   -0.255903
   102  C    0.167546
   103  N   -0.350474
   104  C    0.037806
   105  C   -0.005810
   106  C   -0.026815
   107  C    0.089756
   108  C    0.112104
   109  C    0.060468
   110  C    0.045834
   111  N   -0.324359
   112  C    0.079126
   113  C   -0.161537
   114  C    0.001735
   115  C    0.096672
   116  C    0.236215
   117  C    0.042404
   118  O   -0.188169
   119  C    0.035427
   120  C    0.211216
   121  O   -0.251421
   122  O   -0.305611
   123  C    0.298238
 Electronic spatial extent (au):  <R**2>=         103498.7148
 Charge=             -0.0000 electrons
 Dipole moment (field-independent basis, Debye):
    X=              0.7998    Y=              6.6306    Z=             -2.7444  Tot=              7.2206
 Quadrupole moment (field-independent basis, Debye-Ang):
   XX=           -450.6578   YY=           -538.8222   ZZ=           -483.8112
   XY=            -22.0253   XZ=            -16.8436   YZ=              2.7856
 Traceless Quadrupole moment (field-independent basis, Debye-Ang):
   XX=             40.4393   YY=            -47.7252   ZZ=              7.2859
   XY=            -22.0253   XZ=            -16.8436   YZ=              2.7856
 Octapole moment (field-independent basis, Debye-Ang**2):
  XXX=           -226.8185  YYY=            320.6587  ZZZ=            110.4320  XYY=            -55.3697
  XXY=            358.8208  XXZ=            -67.2020  XZZ=             77.2238  YZZ=           -218.6328
  YYZ=           -175.6482  XYZ=            -50.5654
 Hexadecapole moment (field-independent basis, Debye-Ang**3):
 XXXX=         -78086.2629 YYYY=         -32885.6008 ZZZZ=         -24114.7546 XXXY=           -710.8674
 XXXZ=          -2113.9506 YYYX=           -388.6296 YYYZ=           -157.1257 ZZZX=           -649.5858
 ZZZY=            251.8959 XXYY=         -19748.4841 XXZZ=         -16945.4204 YYZZ=          -9649.0703
 XXYZ=           -412.2779 YYXZ=           -306.3451 ZZXY=           -311.1663
 N-N= 1.547089007370D+04 E-N=-4.042360716834D+04  KE= 4.028784409169D+03
 Leave Link  601 at Thu Sep  9 15:08:22 2021, MaxMem= 23488102400 cpu:              18.4 elap:               0.9
 (Enter /sw/apps/gaussian-16.0/g16/l9999.exe)
 1\1\GINC-BP1-COMPUTE00084\SP\RCAM-B3LYP TD-FC\def2SVP\C68H72Mg2N8O8\OF
 15641\09-Sep-2021\0\\#p cam-b3lyp/Def2SVP td=(nstates=5)\\TDDFT excite
 d states in gaussian\\0,1\Mg,0,0.,0.,0.\C,0,-0.217,-2.218,2.801\C,0,-1
 .255,2.442,2.026\C,0,-0.245,1.85,-2.564\C,0,0.146,-2.824,-2.037\N,0,-0
 .617,-0.009,2.126\C,0,-0.594,-0.908,3.105\C,0,-0.936,-0.309,4.502\C,0,
 -1.773,0.964,4.032\C,0,-1.155,1.168,2.66\C,0,-3.263,0.685,3.863\C,0,0.
 345,0.11,5.299\C,0,0.124,0.397,6.787\H,0,1.168,0.033,7.733\N,0,-0.185,
 1.961,-0.152\C,0,-0.703,2.8,0.777\C,0,-0.62,4.156,0.193\C,0,-0.187,4.0
 15,-1.225\C,0,-0.214,2.583,-1.38\C,0,-0.887,5.406,0.974\C,0,0.181,5.01
 3,-2.277\O,0,0.303,4.69,-3.508\C,0,0.31,6.414,-1.837\N,0,-0.265,-0.413
 ,-2.029\C,0,-0.279,0.569,-2.937\C,0,-0.196,0.024,-4.332\C,0,0.124,-1.5
 33,-4.18\C,0,0.086,-1.632,-2.635\C,0,-1.451,0.205,-5.197\C,0,1.373,-2.
 07,-4.923\C,0,2.626,-1.49,-4.306\N,0,0.15,-2.144,0.303\C,0,0.173,-3.13
 6,-0.688\C,0,0.173,-4.438,0.004\C,0,0.133,-4.111,1.358\C,0,0.083,-2.69
 5,1.502\C,0,0.149,-5.715,-0.623\C,0,0.096,-4.629,2.716\O,0,0.208,-5.74
 7,3.221\C,0,-0.255,-3.428,3.701\C,0,0.717,-3.482,4.848\O,0,1.931,-3.25
 5,4.669\O,0,0.038,-3.556,6.003\C,0,0.943,-3.583,7.183\H,0,-1.859,3.22,
 2.497\H,0,-0.218,2.453,-3.474\H,0,0.276,-3.747,-2.605\H,0,-1.554,-0.94
 9,5.132\H,0,-1.585,1.831,4.665\H,0,-3.484,-0.377,3.969\H,0,-3.511,1.02
 7,2.858\H,0,-3.852,1.301,4.543\H,0,0.669,1.096,4.966\H,0,1.13,-0.639,5
 .189\H,0,-0.844,0.026,7.125\H,0,0.062,1.477,6.921\H,0,-1.344,5.186,1.9
 38\H,0,-1.651,5.963,0.432\H,0,0.007,6.02,1.084\H,0,-0.635,6.744,-1.405
 \H,0,0.665,6.97,-2.704\H,0,1.048,6.466,-1.036\H,0,0.608,0.501,-4.891\H
 ,0,-0.692,-2.156,-4.547\H,0,-1.267,0.74,-6.129\H,0,-2.204,0.714,-4.596
 \H,0,-1.967,-0.72,-5.453\H,0,1.356,-1.759,-5.967\H,0,1.452,-3.157,-4.9
 02\H,0,2.714,-0.522,-4.798\H,0,3.487,-2.121,-4.529\H,0,2.495,-1.303,-3
 .24\H,0,0.867,-6.333,-0.084\H,0,0.404,-5.642,-1.68\H,0,-0.891,-5.999,-
 0.463\H,0,-1.283,-3.581,4.028\H,0,0.698,-4.478,7.755\H,0,0.833,-2.619,
 7.68\H,0,2.,-3.754,6.976\Mg,0,8.93331,0.80674,0.66839\C,0,11.03606,-1.
 70094,-0.80438\C,0,10.99411,3.1403,-0.72524\C,0,7.37257,3.0243,2.3158\
 C,0,7.7531,-1.65391,2.83589\N,0,10.74768,0.62,-0.58279\C,0,11.41791,-0
 .38279,-1.13011\C,0,12.51099,0.0512,-2.14321\C,0,12.77295,1.53683,-1.5
 9261\C,0,11.41118,1.80489,-0.95512\C,0,13.83057,1.59706,-0.50305\C,0,1
 1.9827,0.07098,-3.62056\C,0,13.07038,0.18439,-4.691\H,0,12.88069,-0.52
 398,-5.95382\N,0,8.83666,2.77147,0.40561\C,0,9.75054,3.55714,-0.2017\C
 ,0,9.22236,4.92759,-0.11758\C,0,8.0017,4.90843,0.7335\C,0,8.0355,3.541
 ,1.21213\C,0,9.82314,6.07883,-0.87066\C,0,6.98089,5.95223,1.07209\O,0,
 6.1354,5.78447,2.02068\C,0,7.06037,7.21445,0.32244\N,0,7.89379,0.7555,
 2.46815\C,0,7.26316,1.84801,2.93361\C,0,6.35902,1.50349,4.09302\C,0,6.
 32915,-0.09429,4.15452\C,0,7.3359,-0.40982,3.02656\C,0,6.78174,2.05709
 ,5.45361\C,0,4.93331,-0.77429,4.11098\C,0,4.29766,-0.56165,2.75595\N,0
 ,9.16462,-1.33222,0.86695\C,0,8.60249,-2.16228,1.86148\C,0,9.13821,-3.
 52228,1.64736\C,0,9.99949,-3.38321,0.54857\C,0,10.016,-2.0279,0.12153\
 C,0,8.85142,-4.66471,2.44656\C,0,10.90662,-4.07267,-0.34052\O,0,11.226
 21,-5.24786,-0.51518\C,0,11.71527,-2.98958,-1.17681\C,0,11.68775,-3.40
 372,-2.62258\O,0,10.61659,-3.42342,-3.25412\O,0,12.95028,-3.49748,-3.0
 7819\C,0,12.97483,-3.89492,-4.51111\H,0,11.70085,3.94623,-0.92494\H,0,
 6.73159,3.72745,2.85265\H,0,7.35853,-2.49613,3.40829\H,0,13.42566,-0.5
 2787,-2.1004\H,0,12.95655,2.23314,-2.40674\H,0,14.14812,0.61199,-0.194
 91\H,0,13.37127,2.12246,0.32402\H,0,14.66998,2.21924,-0.82647\H,0,11.4
 4688,1.01259,-3.79664\H,0,11.36989,-0.78708,-3.81757\H,0,14.07001,-0.0
 1385,-4.28555\H,0,13.11885,1.22277,-5.02781\H,0,10.80803,5.82179,-1.27
 971\H,0,10.03036,6.86666,-0.13836\H,0,9.1541,6.47584,-1.63709\H,0,8.03
 905,7.66351,0.47407\H,0,6.19501,7.7987,0.64131\H,0,6.97862,6.99176,-0.
 7473\H,0,5.35354,1.86739,3.92074\H,0,6.77227,-0.47452,5.08667\H,0,6.00
 336,2.68117,5.93186\H,0,7.6952,2.62205,5.3234\H,0,7.07621,1.30735,6.18
 599\H,0,4.26494,-0.31425,4.84297\H,0,4.96377,-1.83721,4.32606\H,0,3.85
 097,0.43303,2.84626\H,0,3.5398,-1.31883,2.56526\H,0,5.05814,-0.51118,1
 .96805\H,0,8.68294,-5.48746,1.76451\H,0,7.9885,-4.49528,3.08721\H,0,9.
 77953,-4.73992,3.01946\H,0,12.73031,-2.95939,-0.77886\H,0,13.59584,-4.
 79318,-4.58293\H,0,13.31779,-2.99995,-5.06353\H,0,12.04747,-4.24323,-4
 .95058\\Version=ES64L-G16RevA.03\State=1-A\HF=-4069.8152424\RMSD=5.398
 e-09\PG=C01 [X(C68H72Mg2N8O8)]\\@


 There was a great rattling of the words for the fewness of ideas.
                   -- Charles Baxter in Gryphon
 Job cpu time:       0 days 14 hours 38 minutes 40.1 seconds.
 Elapsed time:       0 days  0 hours 37 minutes 17.0 seconds.
 File lengths (MBytes):  RWF=  13225 Int=      0 D2E=      0 Chk=    574 Scr=      1
 Normal termination of Gaussian 16 at Thu Sep  9 15:08:23 2021.
