 Entering Gaussian System, Link 0=g16
 Initial command:
 /sw/apps/gaussian-16.0/g16/l1.exe "/tmp/Gau-77020.inp" -scrdir="/tmp/"
 Entering Link 1 = /sw/apps/gaussian-16.0/g16/l1.exe PID=     77021.
  
 Copyright (c) 1988,1990,1992,1993,1995,1998,2003,2009,2016,
            Gaussian, Inc.  All Rights Reserved.
  
 This is part of the Gaussian(R) 16 program.  It is based on
 the Gaussian(R) 09 system (copyright 2009, Gaussian, Inc.),
 the Gaussian(R) 03 system (copyright 2003, Gaussian, Inc.),
 the Gaussian(R) 98 system (copyright 1998, Gaussian, Inc.),
 the Gaussian(R) 94 system (copyright 1995, Gaussian, Inc.),
 the Gaussian 92(TM) system (copyright 1992, Gaussian, Inc.),
 the Gaussian 90(TM) system (copyright 1990, Gaussian, Inc.),
 the Gaussian 88(TM) system (copyright 1988, Gaussian, Inc.),
 the Gaussian 86(TM) system (copyright 1986, Carnegie Mellon
 University), and the Gaussian 82(TM) system (copyright 1983,
 Carnegie Mellon University). Gaussian is a federally registered
 trademark of Gaussian, Inc.
  
 This software contains proprietary and confidential information,
 including trade secrets, belonging to Gaussian, Inc.
  
 This software is provided under written license and may be
 used, copied, transmitted, or stored only in accord with that
 written license.
  
 The following legend is applicable only to US Government
 contracts under FAR:
  
                    RESTRICTED RIGHTS LEGEND
  
 Use, reproduction and disclosure by the US Government is
 subject to restrictions as set forth in subparagraphs (a)
 and (c) of the Commercial Computer Software - Restricted
 Rights clause in FAR 52.227-19.
  
 Gaussian, Inc.
 340 Quinnipiac St., Bldg. 40, Wallingford CT 06492
  
  
 ---------------------------------------------------------------
 Warning -- This program may not be used in any manner that
 competes with the business of Gaussian, Inc. or will provide
 assistance to any competitor of Gaussian, Inc.  The licensee
 of this program is prohibited from giving any competitor of
 Gaussian, Inc. access to this program.  By using this program,
 the user acknowledges that Gaussian, Inc. is engaged in the
 business of creating and licensing software in the field of
 computational chemistry and represents and warrants to the
 licensee that it is not a competitor of Gaussian, Inc. and that
 it will not use this program in any manner prohibited above.
 ---------------------------------------------------------------
  

 Cite this work as:
 Gaussian 16, Revision A.03,
 M. J. Frisch, G. W. Trucks, H. B. Schlegel, G. E. Scuseria, 
 M. A. Robb, J. R. Cheeseman, G. Scalmani, V. Barone, 
 G. A. Petersson, H. Nakatsuji, X. Li, M. Caricato, A. V. Marenich, 
 J. Bloino, B. G. Janesko, R. Gomperts, B. Mennucci, H. P. Hratchian, 
 J. V. Ortiz, A. F. Izmaylov, J. L. Sonnenberg, D. Williams-Young, 
 F. Ding, F. Lipparini, F. Egidi, J. Goings, B. Peng, A. Petrone, 
 T. Henderson, D. Ranasinghe, V. G. Zakrzewski, J. Gao, N. Rega, 
 G. Zheng, W. Liang, M. Hada, M. Ehara, K. Toyota, R. Fukuda, 
 J. Hasegawa, M. Ishida, T. Nakajima, Y. Honda, O. Kitao, H. Nakai, 
 T. Vreven, K. Throssell, J. A. Montgomery, Jr., J. E. Peralta, 
 F. Ogliaro, M. J. Bearpark, J. J. Heyd, E. N. Brothers, K. N. Kudin, 
 V. N. Staroverov, T. A. Keith, R. Kobayashi, J. Normand, 
 K. Raghavachari, A. P. Rendell, J. C. Burant, S. S. Iyengar, 
 J. Tomasi, M. Cossi, J. M. Millam, M. Klene, C. Adamo, R. Cammi, 
 J. W. Ochterski, R. L. Martin, K. Morokuma, O. Farkas, 
 J. B. Foresman, and D. J. Fox, Gaussian, Inc., Wallingford CT, 2016.
 
 ******************************************
 Gaussian 16:  ES64L-G16RevA.03 25-Dec-2016
                10-Sep-2021 
 ******************************************
 %nproc=24
 Will use up to   24 processors via shared memory.
 %mem=175gb
 -----------------------------------
 #p cam-b3lyp/Def2SVP td=(nstates=5)
 -----------------------------------
 1/38=1,172=1/1;
 2/12=2,17=6,18=5,40=1/2;
 3/5=43,7=101,11=9,25=1,30=1,74=-40/1,2,3,8;
 4//1;
 5/5=2,38=5/2;
 8/6=1,10=1,108=5/1;
 9/41=5,42=1,70=2/14;
 6/7=2,8=2,9=2,10=2/1;
 99/5=1,9=1/99;
 Leave Link    1 at Fri Sep 10 23:40:13 2021, MaxMem= 23488102400 cpu:               0.8 elap:               0.0
 (Enter /sw/apps/gaussian-16.0/g16/l101.exe)
 --------------------------------
 TDDFT excited states in gaussian
 --------------------------------
 Symbolic Z-matrix:
 Charge =  0 Multiplicity = 1
 Mg                    0.        0.        0. 
 C                    -0.217    -2.218     2.801 
 C                    -1.255     2.442     2.026 
 C                    -0.245     1.85     -2.564 
 C                     0.146    -2.824    -2.037 
 N                    -0.617    -0.009     2.126 
 C                    -0.594    -0.908     3.105 
 C                    -0.936    -0.309     4.502 
 C                    -1.773     0.964     4.032 
 C                    -1.155     1.168     2.66 
 C                    -3.263     0.685     3.863 
 C                     0.345     0.11      5.299 
 C                     0.124     0.397     6.787 
 H                     1.168     0.033     7.733 
 N                    -0.185     1.961    -0.152 
 C                    -0.703     2.8       0.777 
 C                    -0.62      4.156     0.193 
 C                    -0.187     4.015    -1.225 
 C                    -0.214     2.583    -1.38 
 C                    -0.887     5.406     0.974 
 C                     0.181     5.013    -2.277 
 O                     0.303     4.69     -3.508 
 C                     0.31      6.414    -1.837 
 N                    -0.265    -0.413    -2.029 
 C                    -0.279     0.569    -2.937 
 C                    -0.196     0.024    -4.332 
 C                     0.124    -1.533    -4.18 
 C                     0.086    -1.632    -2.635 
 C                    -1.451     0.205    -5.197 
 C                     1.373    -2.07     -4.923 
 C                     2.626    -1.49     -4.306 
 N                     0.15     -2.144     0.303 
 C                     0.173    -3.136    -0.688 
 C                     0.173    -4.438     0.004 
 C                     0.133    -4.111     1.358 
 C                     0.083    -2.695     1.502 
 C                     0.149    -5.715    -0.623 
 C                     0.096    -4.629     2.716 
 O                     0.208    -5.747     3.221 
 C                    -0.255    -3.428     3.701 
 C                     0.717    -3.482     4.848 
 O                     1.931    -3.255     4.669 
 O                     0.038    -3.556     6.003 
 C                     0.943    -3.583     7.183 
 H                    -1.859     3.22      2.497 
 H                    -0.218     2.453    -3.474 
 H                     0.276    -3.747    -2.605 
 H                    -1.554    -0.949     5.132 
 H                    -1.585     1.831     4.665 
 H                    -3.484    -0.377     3.969 
 H                    -3.511     1.027     2.858 
 H                    -3.852     1.301     4.543 
 H                     0.669     1.096     4.966 
 H                     1.13     -0.639     5.189 
 H                    -0.844     0.026     7.125 
 H                     0.062     1.477     6.921 
 H                    -1.344     5.186     1.938 
 H                    -1.651     5.963     0.432 
 H                     0.007     6.02      1.084 
 H                    -0.635     6.744    -1.405 
 H                     0.665     6.97     -2.704 
 H                     1.048     6.466    -1.036 
 H                     0.608     0.501    -4.891 
 H                    -0.692    -2.156    -4.547 
 H                    -1.267     0.74     -6.129 
 H                    -2.204     0.714    -4.596 
 H                    -1.967    -0.72     -5.453 
 H                     1.356    -1.759    -5.967 
 H                     1.452    -3.157    -4.902 
 H                     2.714    -0.522    -4.798 
 H                     3.487    -2.121    -4.529 
 H                     2.495    -1.303    -3.24 
 H                     0.867    -6.333    -0.084 
 H                     0.404    -5.642    -1.68 
 H                    -0.891    -5.999    -0.463 
 H                    -1.283    -3.581     4.028 
 H                     0.698    -4.478     7.755 
 H                     0.833    -2.619     7.68 
 H                     2.       -3.754     6.976 
 Mg                    10.52049   0.95057   0.7975 
 C                     12.426   -1.16816   2.97903 
 C                     11.42329   3.5653    2.79318 
 C                     8.49405   2.76666  -0.8343 
 C                     8.8743   -1.91188  -0.31702 
 N                     11.76751   1.05835   2.62112 
 C                     12.49021   0.19828   3.32278 
 C                     13.39155   0.849     4.40616 
 C                     12.56473   2.20866   4.62194 
 C                     11.90034   2.31096   3.25052 
 C                     11.47403   2.08934   5.67335 
 C                     14.84268   1.13606   3.88287 
 C                     15.86162   1.48307   4.97057 
 H                     17.23825   1.02432   4.80655 
 N                     10.40375   2.92573   0.64354 
 C                     10.84121   3.83875   1.5359 
 C                     10.50156   5.1522    0.967 
 C                     9.68113   4.93585  -0.25563 
 C                     9.47243   3.50363  -0.18301 
 C                     11.01511   6.44287   1.53607 
 C                     9.1587    5.86612  -1.30818 
 O                     8.26751   5.49599  -2.15175 
 C                     9.65248   7.2502   -1.26347 
 N                     8.77339   0.52638  -0.24655 
 C                     8.11352   1.49126  -0.911 
 C                     7.04973   0.90571  -1.80871 
 C                     7.29506  -0.67451  -1.79138 
 C                     8.4532   -0.73963  -0.77164 
 C                     5.60456   1.20053  -1.40752 
 C                     7.48065  -1.37302  -3.16627 
 C                     8.77587  -0.9232   -3.80303 
 N                     10.73234  -1.1794    1.09145 
 C                     9.92005  -2.20006   0.55059 
 C                     10.38523  -3.47816   1.1272 
 C                     11.42919  -3.10699   1.98795 
 C                     11.5891  -1.6951    1.96578 
 C                     9.82183  -4.76009   0.87155 
 C                     12.42526  -3.58752   2.91834 
 O                     12.81839  -4.69801   3.27329 
 C                     13.0316  -2.34188   3.69752 
 C                     14.53006  -2.47235   3.68753 
 O                     15.16358  -2.40129   2.61972 
 O                     14.98353  -2.44127   4.95393 
 C                     16.46571  -2.55632   4.99544 
 H                     11.45872   4.41431   3.47641 
 H                     7.83862   3.33558  -1.4978 
 H                     8.47711  -2.85893  -0.6885 
 H                     13.45178   0.29868   5.33745 
 H                     13.22901   3.05281   4.78774 
 H                     11.35696   1.07295   6.01887 
 H                     10.56605   2.43351   5.19568 
 H                     11.6648   2.78552   6.4951 
 H                     14.84046   2.07834   3.31999 
 H                     15.20572   0.31448   3.2965 
 H                     15.49234   1.23941   5.97416 
 H                     15.99327   2.56766   4.98943 
 H                     11.45665   6.29695   2.52963 
 H                     10.14385   7.08159   1.71717 
 H                     11.69767   6.96001   0.85832 
 H                     9.40878   7.6896   -0.29911 
 H                     9.23581   7.7378   -2.14694 
 H                     10.74577   7.23408  -1.33472 
 H                     7.15854   1.26712  -2.82392 
 H                     6.44873  -1.21332  -1.34055 
 H                     5.02304   1.69919  -2.2058 
 H                     5.61595   1.80571  -0.51076 
 H                     5.02632   0.33319  -1.09359 
 H                     6.68043  -1.08073  -3.85064 
 H                     7.47246  -2.45615  -3.10506 
 H                     8.5012    0.02272  -4.27936 
 H                     9.11476  -1.65113  -4.5374 
 H                     9.53253  -0.7013   -3.04154 
 H                     10.65009  -5.44159   0.73002 
 H                     9.1686   -4.74098   0.00166 
 H                     9.26533  -4.91712   1.79941 
 H                     12.62587  -2.35955   4.70977 
 H                     16.70218  -3.40622   5.64309 
 H                     16.83367  -1.56281   5.3137 
 H                     16.97219  -2.84034   4.08042 
 
 ITRead=  0  0  0  0  0  0  0  0  0  0  0  0  0  0  0  0  0  0  0  0
 ITRead=  0  0  0  0  0  0  0  0  0  0  0  0  0  0  0  0  0  0  0  0
 ITRead=  0  0  0  0  0  0  0  0  0  0  0  0  0  0  0  0  0  0  0  0
 ITRead=  0  0  0  0  0  0  0  0  0  0  0  0  0  0  0  0  0  0  0  0
 ITRead=  0  0  0  0  0  0  0  0  0  0  0  0  0  0  0  0  0  0  0  0
 ITRead=  0  0  0  0  0  0  0  0  0  0  0  0  0  0  0  0  0  0  0  0
 ITRead=  0  0  0  0  0  0  0  0  0  0  0  0  0  0  0  0  0  0  0  0
 ITRead=  0  0  0  0  0  0  0  0  0  0  0  0  0  0  0  0  0  0
 MicOpt= -1 -1 -1 -1 -1 -1 -1 -1 -1 -1 -1 -1 -1 -1 -1 -1 -1 -1 -1 -1
 MicOpt= -1 -1 -1 -1 -1 -1 -1 -1 -1 -1 -1 -1 -1 -1 -1 -1 -1 -1 -1 -1
 MicOpt= -1 -1 -1 -1 -1 -1 -1 -1 -1 -1 -1 -1 -1 -1 -1 -1 -1 -1 -1 -1
 MicOpt= -1 -1 -1 -1 -1 -1 -1 -1 -1 -1 -1 -1 -1 -1 -1 -1 -1 -1 -1 -1
 MicOpt= -1 -1 -1 -1 -1 -1 -1 -1 -1 -1 -1 -1 -1 -1 -1 -1 -1 -1 -1 -1
 MicOpt= -1 -1 -1 -1 -1 -1 -1 -1 -1 -1 -1 -1 -1 -1 -1 -1 -1 -1 -1 -1
 MicOpt= -1 -1 -1 -1 -1 -1 -1 -1 -1 -1 -1 -1 -1 -1 -1 -1 -1 -1 -1 -1
 MicOpt= -1 -1 -1 -1 -1 -1 -1 -1 -1 -1 -1 -1 -1 -1 -1 -1 -1 -1
 NAtoms=    158 NQM=      158 NQMF=       0 NMMI=      0 NMMIF=      0
                NMic=       0 NMicF=      0.
                    Isotopes and Nuclear Properties:
 (Nuclear quadrupole moments (NQMom) in fm**2, nuclear magnetic moments (NMagM)
  in nuclear magnetons)

  Atom         1           2           3           4           5           6           7           8           9          10
 IAtWgt=          24          12          12          12          12          14          12          12          12          12
 AtmWgt=  23.9850450  12.0000000  12.0000000  12.0000000  12.0000000  14.0030740  12.0000000  12.0000000  12.0000000  12.0000000
 NucSpn=           0           0           0           0           0           2           0           0           0           0
 AtZEff=  -0.0000000  -0.0000000  -0.0000000  -0.0000000  -0.0000000  -0.0000000  -0.0000000  -0.0000000  -0.0000000  -0.0000000
 NQMom=    0.0000000   0.0000000   0.0000000   0.0000000   0.0000000   2.0440000   0.0000000   0.0000000   0.0000000   0.0000000
 NMagM=    0.0000000   0.0000000   0.0000000   0.0000000   0.0000000   0.4037610   0.0000000   0.0000000   0.0000000   0.0000000
 AtZNuc=  12.0000000   6.0000000   6.0000000   6.0000000   6.0000000   7.0000000   6.0000000   6.0000000   6.0000000   6.0000000

  Atom        11          12          13          14          15          16          17          18          19          20
 IAtWgt=          12          12          12           1          14          12          12          12          12          12
 AtmWgt=  12.0000000  12.0000000  12.0000000   1.0078250  14.0030740  12.0000000  12.0000000  12.0000000  12.0000000  12.0000000
 NucSpn=           0           0           0           1           2           0           0           0           0           0
 AtZEff=  -0.0000000  -0.0000000  -0.0000000  -0.0000000  -0.0000000  -0.0000000  -0.0000000  -0.0000000  -0.0000000  -0.0000000
 NQMom=    0.0000000   0.0000000   0.0000000   0.0000000   2.0440000   0.0000000   0.0000000   0.0000000   0.0000000   0.0000000
 NMagM=    0.0000000   0.0000000   0.0000000   2.7928460   0.4037610   0.0000000   0.0000000   0.0000000   0.0000000   0.0000000
 AtZNuc=   6.0000000   6.0000000   6.0000000   1.0000000   7.0000000   6.0000000   6.0000000   6.0000000   6.0000000   6.0000000

  Atom        21          22          23          24          25          26          27          28          29          30
 IAtWgt=          12          16          12          14          12          12          12          12          12          12
 AtmWgt=  12.0000000  15.9949146  12.0000000  14.0030740  12.0000000  12.0000000  12.0000000  12.0000000  12.0000000  12.0000000
 NucSpn=           0           0           0           2           0           0           0           0           0           0
 AtZEff=  -0.0000000  -0.0000000  -0.0000000  -0.0000000  -0.0000000  -0.0000000  -0.0000000  -0.0000000  -0.0000000  -0.0000000
 NQMom=    0.0000000   0.0000000   0.0000000   2.0440000   0.0000000   0.0000000   0.0000000   0.0000000   0.0000000   0.0000000
 NMagM=    0.0000000   0.0000000   0.0000000   0.4037610   0.0000000   0.0000000   0.0000000   0.0000000   0.0000000   0.0000000
 AtZNuc=   6.0000000   8.0000000   6.0000000   7.0000000   6.0000000   6.0000000   6.0000000   6.0000000   6.0000000   6.0000000

  Atom        31          32          33          34          35          36          37          38          39          40
 IAtWgt=          12          14          12          12          12          12          12          12          16          12
 AtmWgt=  12.0000000  14.0030740  12.0000000  12.0000000  12.0000000  12.0000000  12.0000000  12.0000000  15.9949146  12.0000000
 NucSpn=           0           2           0           0           0           0           0           0           0           0
 AtZEff=  -0.0000000  -0.0000000  -0.0000000  -0.0000000  -0.0000000  -0.0000000  -0.0000000  -0.0000000  -0.0000000  -0.0000000
 NQMom=    0.0000000   2.0440000   0.0000000   0.0000000   0.0000000   0.0000000   0.0000000   0.0000000   0.0000000   0.0000000
 NMagM=    0.0000000   0.4037610   0.0000000   0.0000000   0.0000000   0.0000000   0.0000000   0.0000000   0.0000000   0.0000000
 AtZNuc=   6.0000000   7.0000000   6.0000000   6.0000000   6.0000000   6.0000000   6.0000000   6.0000000   8.0000000   6.0000000

  Atom        41          42          43          44          45          46          47          48          49          50
 IAtWgt=          12          16          16          12           1           1           1           1           1           1
 AtmWgt=  12.0000000  15.9949146  15.9949146  12.0000000   1.0078250   1.0078250   1.0078250   1.0078250   1.0078250   1.0078250
 NucSpn=           0           0           0           0           1           1           1           1           1           1
 AtZEff=  -0.0000000  -0.0000000  -0.0000000  -0.0000000  -0.0000000  -0.0000000  -0.0000000  -0.0000000  -0.0000000  -0.0000000
 NQMom=    0.0000000   0.0000000   0.0000000   0.0000000   0.0000000   0.0000000   0.0000000   0.0000000   0.0000000   0.0000000
 NMagM=    0.0000000   0.0000000   0.0000000   0.0000000   2.7928460   2.7928460   2.7928460   2.7928460   2.7928460   2.7928460
 AtZNuc=   6.0000000   8.0000000   8.0000000   6.0000000   1.0000000   1.0000000   1.0000000   1.0000000   1.0000000   1.0000000

  Atom        51          52          53          54          55          56          57          58          59          60
 IAtWgt=           1           1           1           1           1           1           1           1           1           1
 AtmWgt=   1.0078250   1.0078250   1.0078250   1.0078250   1.0078250   1.0078250   1.0078250   1.0078250   1.0078250   1.0078250
 NucSpn=           1           1           1           1           1           1           1           1           1           1
 AtZEff=  -0.0000000  -0.0000000  -0.0000000  -0.0000000  -0.0000000  -0.0000000  -0.0000000  -0.0000000  -0.0000000  -0.0000000
 NQMom=    0.0000000   0.0000000   0.0000000   0.0000000   0.0000000   0.0000000   0.0000000   0.0000000   0.0000000   0.0000000
 NMagM=    2.7928460   2.7928460   2.7928460   2.7928460   2.7928460   2.7928460   2.7928460   2.7928460   2.7928460   2.7928460
 AtZNuc=   1.0000000   1.0000000   1.0000000   1.0000000   1.0000000   1.0000000   1.0000000   1.0000000   1.0000000   1.0000000

  Atom        61          62          63          64          65          66          67          68          69          70
 IAtWgt=           1           1           1           1           1           1           1           1           1           1
 AtmWgt=   1.0078250   1.0078250   1.0078250   1.0078250   1.0078250   1.0078250   1.0078250   1.0078250   1.0078250   1.0078250
 NucSpn=           1           1           1           1           1           1           1           1           1           1
 AtZEff=  -0.0000000  -0.0000000  -0.0000000  -0.0000000  -0.0000000  -0.0000000  -0.0000000  -0.0000000  -0.0000000  -0.0000000
 NQMom=    0.0000000   0.0000000   0.0000000   0.0000000   0.0000000   0.0000000   0.0000000   0.0000000   0.0000000   0.0000000
 NMagM=    2.7928460   2.7928460   2.7928460   2.7928460   2.7928460   2.7928460   2.7928460   2.7928460   2.7928460   2.7928460
 AtZNuc=   1.0000000   1.0000000   1.0000000   1.0000000   1.0000000   1.0000000   1.0000000   1.0000000   1.0000000   1.0000000

  Atom        71          72          73          74          75          76          77          78          79          80
 IAtWgt=           1           1           1           1           1           1           1           1           1          24
 AtmWgt=   1.0078250   1.0078250   1.0078250   1.0078250   1.0078250   1.0078250   1.0078250   1.0078250   1.0078250  23.9850450
 NucSpn=           1           1           1           1           1           1           1           1           1           0
 AtZEff=  -0.0000000  -0.0000000  -0.0000000  -0.0000000  -0.0000000  -0.0000000  -0.0000000  -0.0000000  -0.0000000  -0.0000000
 NQMom=    0.0000000   0.0000000   0.0000000   0.0000000   0.0000000   0.0000000   0.0000000   0.0000000   0.0000000   0.0000000
 NMagM=    2.7928460   2.7928460   2.7928460   2.7928460   2.7928460   2.7928460   2.7928460   2.7928460   2.7928460   0.0000000
 AtZNuc=   1.0000000   1.0000000   1.0000000   1.0000000   1.0000000   1.0000000   1.0000000   1.0000000   1.0000000  12.0000000

  Atom        81          82          83          84          85          86          87          88          89          90
 IAtWgt=          12          12          12          12          14          12          12          12          12          12
 AtmWgt=  12.0000000  12.0000000  12.0000000  12.0000000  14.0030740  12.0000000  12.0000000  12.0000000  12.0000000  12.0000000
 NucSpn=           0           0           0           0           2           0           0           0           0           0
 AtZEff=  -0.0000000  -0.0000000  -0.0000000  -0.0000000  -0.0000000  -0.0000000  -0.0000000  -0.0000000  -0.0000000  -0.0000000
 NQMom=    0.0000000   0.0000000   0.0000000   0.0000000   2.0440000   0.0000000   0.0000000   0.0000000   0.0000000   0.0000000
 NMagM=    0.0000000   0.0000000   0.0000000   0.0000000   0.4037610   0.0000000   0.0000000   0.0000000   0.0000000   0.0000000
 AtZNuc=   6.0000000   6.0000000   6.0000000   6.0000000   7.0000000   6.0000000   6.0000000   6.0000000   6.0000000   6.0000000

  Atom        91          92          93          94          95          96          97          98          99         100
 IAtWgt=          12          12           1          14          12          12          12          12          12          12
 AtmWgt=  12.0000000  12.0000000   1.0078250  14.0030740  12.0000000  12.0000000  12.0000000  12.0000000  12.0000000  12.0000000
 NucSpn=           0           0           1           2           0           0           0           0           0           0
 AtZEff=  -0.0000000  -0.0000000  -0.0000000  -0.0000000  -0.0000000  -0.0000000  -0.0000000  -0.0000000  -0.0000000  -0.0000000
 NQMom=    0.0000000   0.0000000   0.0000000   2.0440000   0.0000000   0.0000000   0.0000000   0.0000000   0.0000000   0.0000000
 NMagM=    0.0000000   0.0000000   2.7928460   0.4037610   0.0000000   0.0000000   0.0000000   0.0000000   0.0000000   0.0000000
 AtZNuc=   6.0000000   6.0000000   1.0000000   7.0000000   6.0000000   6.0000000   6.0000000   6.0000000   6.0000000   6.0000000

  Atom       101         102         103         104         105         106         107         108         109         110
 IAtWgt=          16          12          14          12          12          12          12          12          12          12
 AtmWgt=  15.9949146  12.0000000  14.0030740  12.0000000  12.0000000  12.0000000  12.0000000  12.0000000  12.0000000  12.0000000
 NucSpn=           0           0           2           0           0           0           0           0           0           0
 AtZEff=  -0.0000000  -0.0000000  -0.0000000  -0.0000000  -0.0000000  -0.0000000  -0.0000000  -0.0000000  -0.0000000  -0.0000000
 NQMom=    0.0000000   0.0000000   2.0440000   0.0000000   0.0000000   0.0000000   0.0000000   0.0000000   0.0000000   0.0000000
 NMagM=    0.0000000   0.0000000   0.4037610   0.0000000   0.0000000   0.0000000   0.0000000   0.0000000   0.0000000   0.0000000
 AtZNuc=   8.0000000   6.0000000   7.0000000   6.0000000   6.0000000   6.0000000   6.0000000   6.0000000   6.0000000   6.0000000

  Atom       111         112         113         114         115         116         117         118         119         120
 IAtWgt=          14          12          12          12          12          12          12          16          12          12
 AtmWgt=  14.0030740  12.0000000  12.0000000  12.0000000  12.0000000  12.0000000  12.0000000  15.9949146  12.0000000  12.0000000
 NucSpn=           2           0           0           0           0           0           0           0           0           0
 AtZEff=  -0.0000000  -0.0000000  -0.0000000  -0.0000000  -0.0000000  -0.0000000  -0.0000000  -0.0000000  -0.0000000  -0.0000000
 NQMom=    2.0440000   0.0000000   0.0000000   0.0000000   0.0000000   0.0000000   0.0000000   0.0000000   0.0000000   0.0000000
 NMagM=    0.4037610   0.0000000   0.0000000   0.0000000   0.0000000   0.0000000   0.0000000   0.0000000   0.0000000   0.0000000
 AtZNuc=   7.0000000   6.0000000   6.0000000   6.0000000   6.0000000   6.0000000   6.0000000   8.0000000   6.0000000   6.0000000

  Atom       121         122         123         124         125         126         127         128         129         130
 IAtWgt=          16          16          12           1           1           1           1           1           1           1
 AtmWgt=  15.9949146  15.9949146  12.0000000   1.0078250   1.0078250   1.0078250   1.0078250   1.0078250   1.0078250   1.0078250
 NucSpn=           0           0           0           1           1           1           1           1           1           1
 AtZEff=  -0.0000000  -0.0000000  -0.0000000  -0.0000000  -0.0000000  -0.0000000  -0.0000000  -0.0000000  -0.0000000  -0.0000000
 NQMom=    0.0000000   0.0000000   0.0000000   0.0000000   0.0000000   0.0000000   0.0000000   0.0000000   0.0000000   0.0000000
 NMagM=    0.0000000   0.0000000   0.0000000   2.7928460   2.7928460   2.7928460   2.7928460   2.7928460   2.7928460   2.7928460
 AtZNuc=   8.0000000   8.0000000   6.0000000   1.0000000   1.0000000   1.0000000   1.0000000   1.0000000   1.0000000   1.0000000

  Atom       131         132         133         134         135         136         137         138         139         140
 IAtWgt=           1           1           1           1           1           1           1           1           1           1
 AtmWgt=   1.0078250   1.0078250   1.0078250   1.0078250   1.0078250   1.0078250   1.0078250   1.0078250   1.0078250   1.0078250
 NucSpn=           1           1           1           1           1           1           1           1           1           1
 AtZEff=  -0.0000000  -0.0000000  -0.0000000  -0.0000000  -0.0000000  -0.0000000  -0.0000000  -0.0000000  -0.0000000  -0.0000000
 NQMom=    0.0000000   0.0000000   0.0000000   0.0000000   0.0000000   0.0000000   0.0000000   0.0000000   0.0000000   0.0000000
 NMagM=    2.7928460   2.7928460   2.7928460   2.7928460   2.7928460   2.7928460   2.7928460   2.7928460   2.7928460   2.7928460
 AtZNuc=   1.0000000   1.0000000   1.0000000   1.0000000   1.0000000   1.0000000   1.0000000   1.0000000   1.0000000   1.0000000

  Atom       141         142         143         144         145         146         147         148         149         150
 IAtWgt=           1           1           1           1           1           1           1           1           1           1
 AtmWgt=   1.0078250   1.0078250   1.0078250   1.0078250   1.0078250   1.0078250   1.0078250   1.0078250   1.0078250   1.0078250
 NucSpn=           1           1           1           1           1           1           1           1           1           1
 AtZEff=  -0.0000000  -0.0000000  -0.0000000  -0.0000000  -0.0000000  -0.0000000  -0.0000000  -0.0000000  -0.0000000  -0.0000000
 NQMom=    0.0000000   0.0000000   0.0000000   0.0000000   0.0000000   0.0000000   0.0000000   0.0000000   0.0000000   0.0000000
 NMagM=    2.7928460   2.7928460   2.7928460   2.7928460   2.7928460   2.7928460   2.7928460   2.7928460   2.7928460   2.7928460
 AtZNuc=   1.0000000   1.0000000   1.0000000   1.0000000   1.0000000   1.0000000   1.0000000   1.0000000   1.0000000   1.0000000

  Atom       151         152         153         154         155         156         157         158
 IAtWgt=           1           1           1           1           1           1           1           1
 AtmWgt=   1.0078250   1.0078250   1.0078250   1.0078250   1.0078250   1.0078250   1.0078250   1.0078250
 NucSpn=           1           1           1           1           1           1           1           1
 AtZEff=  -0.0000000  -0.0000000  -0.0000000  -0.0000000  -0.0000000  -0.0000000  -0.0000000  -0.0000000
 NQMom=    0.0000000   0.0000000   0.0000000   0.0000000   0.0000000   0.0000000   0.0000000   0.0000000
 NMagM=    2.7928460   2.7928460   2.7928460   2.7928460   2.7928460   2.7928460   2.7928460   2.7928460
 AtZNuc=   1.0000000   1.0000000   1.0000000   1.0000000   1.0000000   1.0000000   1.0000000   1.0000000
 Leave Link  101 at Fri Sep 10 23:40:14 2021, MaxMem= 23488102400 cpu:               3.2 elap:               0.2
 (Enter /sw/apps/gaussian-16.0/g16/l202.exe)
 Stoichiometry    C68H72Mg2N8O8
 Framework group  C1[X(C68H72Mg2N8O8)]
 Deg. of freedom   468
 Full point group                 C1      NOp   1
 Largest Abelian subgroup         C1      NOp   1
 Largest concise Abelian subgroup C1      NOp   1
                         Standard orientation:                         
 ---------------------------------------------------------------------
 Center     Atomic      Atomic             Coordinates (Angstroms)
 Number     Number       Type             X           Y           Z
 ---------------------------------------------------------------------
      1         12           0        5.519997    0.121791    0.038526
      2          6           0        5.344025   -3.321056   -0.924832
      3          6           0        6.344896    0.830443   -3.195731
      4          6           0        6.124234    3.095866    0.958523
      5          6           0        5.802483   -0.968372    3.336617
      6          7           0        5.778394   -1.167418   -1.742434
      7          6           0        5.623431   -2.463980   -1.991602
      8          6           0        5.711214   -2.816768   -3.506597
      9          6           0        6.572761   -1.571460   -4.005537
     10          6           0        6.182919   -0.563407   -2.938871
     11          6           0        8.078448   -1.804534   -3.934227
     12          6           0        4.303626   -2.850884   -4.191625
     13          6           0        4.267184   -3.500756   -5.577876
     14          1           0        3.093908   -4.272517   -5.958870
     15          7           0        5.664265    1.785230   -1.017414
     16          6           0        5.994902    1.886892   -2.327234
     17          6           0        5.965599    3.330991   -2.644096
     18          6           0        5.776818    4.073346   -1.366847
     19          6           0        5.875072    3.002072   -0.408674
     20          6           0        6.059936    3.869462   -4.038692
     21          6           0        5.555161    5.520297   -1.058084
     22          8           0        5.648032    5.984323    0.129615
     23          6           0        5.310414    6.407707   -2.209451
     24          7           0        6.128704    0.950279    1.855313
     25          6           0        6.260430    2.273341    2.000708
     26          6           0        6.425906    2.650344    3.443076
     27          6           0        6.135544    1.323629    4.282881
     28          6           0        5.921738    0.340941    3.105221
     29          6           0        7.799742    3.211786    3.834698
     30          6           0        5.043916    1.409989    5.378923
     31          6           0        3.688393    1.609102    4.738605
     32          7           0        5.391256   -1.780266    1.076144
     33          6           0        5.563737   -2.004789    2.449648
     34          6           0        5.491691   -3.462179    2.661530
     35          6           0        5.297597   -3.988792    1.386049
     36          6           0        5.277578   -2.929524    0.434292
     37          6           0        5.659733   -4.132823    3.905086
     38          6           0        5.127095   -5.201805    0.602859
     39          8           0        4.969511   -6.393345    0.872846
     40          6           0        5.272221   -4.827777   -0.938202
     41          6           0        4.126838   -5.470665   -1.671756
     42          8           0        2.952226   -5.096576   -1.477569
     43          8           0        4.608369   -6.251382   -2.651119
     44          6           0        3.522731   -6.896372   -3.436952
     45          1           0        6.837708    1.143359   -4.118315
     46          1           0        6.228073    4.116083    1.333773
     47          1           0        5.797593   -1.375798    4.349254
     48          1           0        6.237299   -3.745745   -3.727186
     49          1           0        6.255259   -1.224709   -4.988734
     50          1           0        8.313052   -2.741936   -3.430085
     51          1           0        8.477438   -0.959830   -3.372288
     52          1           0        8.527268   -1.743467   -4.925998
     53          1           0        4.007316   -1.835521   -4.454876
     54          1           0        3.571992   -3.337742   -3.545865
     55          1           0        5.177735   -4.066630   -5.776853
     56          1           0        4.271460   -2.708607   -6.326663
     57          1           0        6.358773    3.097483   -4.746711
     58          1           0        6.884432    4.582059   -4.049765
     59          1           0        5.140728    4.365955   -4.349951
     60          1           0        6.160238    6.356386   -2.890416
     61          1           0        5.085336    7.388059   -1.791000
     62          1           0        4.449284    6.035593   -2.765270
     63          1           0        5.710013    3.419150    3.730931
     64          1           0        7.020475    0.975054    4.815859
     65          1           0        7.754621    4.200873    4.291181
     66          1           0        8.426692    3.220595    2.943549
     67          1           0        8.380371    2.575258    4.501872
     68          1           0        5.222603    2.268670    6.025208
     69          1           0        4.997578    0.523102    6.011011
     70          1           0        3.651502    2.685770    4.576567
     71          1           0        2.896647    1.288997    5.416752
     72          1           0        3.635948    1.130403    3.760554
     73          1           0        4.883044   -4.896329    3.947284
     74          1           0        5.580082   -3.440033    4.742522
     75          1           0        6.667778   -4.529677    3.785884
     76          1           0        6.236714   -5.214959   -1.265258
     77          1           0        3.698869   -7.971642   -3.405245
     78          1           0        3.518278   -6.412976   -4.414046
     79          1           0        2.520319   -6.839401   -3.011202
     80         12           0       -5.013251    1.172471    0.447240
     81          6           0       -7.182806   -1.678820    0.241733
     82          6           0       -6.316120    2.191540   -2.535818
     83          6           0       -2.805275    3.449947    0.374039
     84          6           0       -3.114682   -0.613068    2.760895
     85          7           0       -6.546400    0.286007   -0.877865
     86          6           0       -7.346718   -0.767930   -0.822625
     87          6           0       -8.434656   -0.808088   -1.929124
     88          6           0       -7.698879    0.108713   -3.023188
     89          6           0       -6.821338    0.943213   -2.092488
     90          6           0       -6.792967   -0.677542   -3.956169
     91          6           0       -9.788267   -0.168044   -1.459981
     92          6           0      -10.983070   -0.448331   -2.374110
     93          1           0      -12.298392   -0.626765   -1.765381
     94          7           0       -4.936409    2.853354   -0.605050
     95          6           0       -5.544031    3.103993   -1.783719
     96          6           0       -5.157795    4.474895   -2.151968
     97          6           0       -4.140671    4.953640   -1.176776
     98          6           0       -3.900775    3.736746   -0.427309
     99          6           0       -5.799343    5.225034   -3.282946
    100          6           0       -3.482254    6.282976   -0.963354
    101          8           0       -2.452852    6.411408   -0.210583
    102          6           0       -4.020961    7.412750   -1.734651
    103          7           0       -3.105319    1.313245    1.261065
    104          6           0       -2.376443    2.434837    1.124362
    105          6           0       -1.161036    2.408124    2.020171
    106          6           0       -1.354859    1.135749    2.969421
    107          6           0       -2.662425    0.571161    2.372001
    108          6           0        0.188073    2.310821    1.308253
    109          6           0       -1.288887    1.383995    4.501317
    110          6           0       -2.475352    2.210882    4.941721
    111          7           0       -5.201926   -0.708571    1.493252
    112          6           0       -4.279214   -1.277651    2.398151
    113          6           0       -4.791609   -2.615523    2.758651
    114          6           0       -5.974477   -2.742295    2.014835
    115          6           0       -6.173929   -1.574703    1.229696
    116          6           0       -4.152817   -3.544655    3.627432
    117          6           0       -7.094180   -3.602726    1.707242
    118          8           0       -7.504437   -4.680875    2.135041
    119          6           0       -7.860357   -3.004849    0.449504
    120          6           0       -9.331721   -2.998519    0.761840
    121          8           0       -9.782681   -2.274185    1.666600
    122          8           0       -9.988331   -3.678787   -0.195484
    123          6           0      -11.452624   -3.691118    0.064346
    124          1           0       -6.490910    2.483658   -3.571671
    125          1           0       -2.068183    4.250651    0.469217
    126          1           0       -2.631449   -1.191778    3.550985
    127          1           0       -8.629691   -1.791864   -2.338913
    128          1           0       -8.408226    0.742807   -3.548639
    129          1           0       -6.701736   -1.710145   -3.653603
    130          1           0       -5.830275   -0.184963   -3.915674
    131          1           0       -7.138787   -0.578855   -4.989128
    132          1           0       -9.723715    0.922686   -1.564253
    133          1           0      -10.023132   -0.466130   -0.456684
    134          1           0      -10.776468   -1.256312   -3.086438
    135          1           0      -11.150882    0.428314   -3.004471
    136          1           0       -6.393558    4.559491   -3.921204
    137          1           0       -4.990832    5.575066   -3.933823
    138          1           0       -6.377253    6.086903   -2.942551
    139          1           0       -3.953691    7.189657   -2.796798
    140          1           0       -3.480397    8.292631   -1.380409
    141          1           0       -5.086493    7.518653   -1.502175
    142          1           0       -1.112739    3.299773    2.633146
    143          1           0       -0.577431    0.376889    2.797444
    144          1           0        0.876763    3.138363    1.563124
    145          1           0        0.009666    2.279421    0.241606
    146          1           0        0.734337    1.384644    1.478495
    147          1           0       -0.396714    1.962580    4.753138
    148          1           0       -1.256019    0.470645    5.085865
    149          1           0       -2.156585    3.234849    4.724973
    150          1           0       -2.665050    2.073119    6.004295
    151          1           0       -3.353840    2.000687    4.320660
    152          1           0       -4.924078   -3.955423    4.265329
    153          1           0       -3.366199   -3.068828    4.209328
    154          1           0       -3.751967   -4.251642    2.896157
    155          1           0       -7.626525   -3.637450   -0.407653
    156          1           0      -11.765040   -4.739812    0.082655
    157          1           0      -11.899772   -3.045860   -0.715043
    158          1           0      -11.792077   -3.352315    1.036167
 ---------------------------------------------------------------------
 Rotational constants (GHZ):           0.0239911           0.0103649           0.0092305
 Leave Link  202 at Fri Sep 10 23:40:14 2021, MaxMem= 23488102400 cpu:               0.2 elap:               0.0
 (Enter /sw/apps/gaussian-16.0/g16/l301.exe)
 Standard basis: def2SVP (5D, 7F)
 Ernie: Thresh=  0.10000D-02 Tol=  0.10000D-05 Strict=F.
 There are  1658 symmetry adapted cartesian basis functions of A   symmetry.
 There are  1572 symmetry adapted basis functions of A   symmetry.
  1572 basis functions,  2678 primitive gaussians,  1658 cartesian basis functions
   312 alpha electrons      312 beta electrons
       nuclear repulsion energy     14982.2799860259 Hartrees.
 IExCor=20419 DFT=T Ex+Corr=CAM-B3LYP ExCW=0 ScaHFX=  1.000000
 ScaDFX=  1.000000  1.000000  1.000000  0.810000 ScalE2=  1.000000  1.000000
 IRadAn=      5 IRanWt=     -1 IRanGd=            0 ICorTp=0 IEmpDi=  4
 HFx  wShort=  0.000000 wLong=  0.330000 cFull=  0.190000 cShort=  0.000000 cLong=  0.460000
 DFx  wShort=  0.000000 wLong=  0.330000 cFull=  0.190000 cShort=  0.000000 cLong=  0.460000
 NAtoms=  158 NActive=  158 NUniq=  158 SFac= 1.00D+00 NAtFMM=   60 NAOKFM=T Big=T
 Integral buffers will be    131072 words long.
 Raffenetti 1 integral format.
 Two-electron integral symmetry is turned on.
 Leave Link  301 at Fri Sep 10 23:40:14 2021, MaxMem= 23488102400 cpu:               1.3 elap:               0.1
 (Enter /sw/apps/gaussian-16.0/g16/l302.exe)
 NPDir=0 NMtPBC=     1 NCelOv=     1 NCel=       1 NClECP=     1 NCelD=      1
         NCelK=      1 NCelE2=     1 NClLst=     1 CellRange=     0.0.
 One-electron integrals computed using PRISM.
 One-electron integral symmetry used in STVInt
   1 Symmetry operations used in ECPInt.
 ECPInt:  NShTT=  271216 NPrTT=  987664 LenC2=  138328 LenP2D=  293947.
 LDataN:  DoStor=T MaxTD1= 4 Len=   56
 NBasis=  1572 RedAO= T EigKep=  3.36D-04  NBF=  1572
 NBsUse=  1572 1.00D-06 EigRej= -1.00D+00 NBFU=  1572
 Precomputing XC quadrature grid using
 IXCGrd= 4 IRadAn=           5 IRanWt=          -1 IRanGd=           0 AccXCQ= 0.00D+00.
 Generated NRdTot=       0 NPtTot=           0 NUsed=           0 NTot=          32
 NSgBfM=  1349  1308  1323  1338  1349 MxSgAt=   158 MxSgA2=   158.
 Leave Link  302 at Fri Sep 10 23:40:19 2021, MaxMem= 23488102400 cpu:             128.2 elap:               5.4
 (Enter /sw/apps/gaussian-16.0/g16/l303.exe)
 DipDrv:  MaxL=1.
 Leave Link  303 at Fri Sep 10 23:40:19 2021, MaxMem= 23488102400 cpu:               8.4 elap:               0.4
 (Enter /sw/apps/gaussian-16.0/g16/l308.exe)
 Leave Link  308 at Fri Sep 10 23:40:20 2021, MaxMem= 23488102400 cpu:              14.6 elap:               0.7
 (Enter /sw/apps/gaussian-16.0/g16/l401.exe)
 ExpMin= 3.36D-02 ExpMax= 4.95D+03 ExpMxC= 7.45D+02 IAcc=3 IRadAn=         5 AccDes= 0.00D+00
 Harris functional with IExCor=20419 and IRadAn=       5 diagonalized for initial guess.
 HarFok:  IExCor=20419 AccDes= 0.00D+00 IRadAn=         5 IDoV= 1 UseB2=F ITyADJ=14
 ICtDFT=  3500011 ScaDFX=  1.000000  1.000000  1.000000  1.000000
 FoFCou: FMM=F IPFlag=           0 FMFlag=      100000 FMFlg1=        2001
         NFxFlg=           0 DoJE=T BraDBF=F KetDBF=T FulRan=T
         wScrn=  0.000000 ICntrl=       500 IOpCl=  0 I1Cent=   200000004 NGrid=           0
         NMat0=    1 NMatS0=      1 NMatT0=    0 NMatD0=    1 NMtDS0=    0 NMtDT0=    0
 Petite list used in FoFCou.
 Harris En= -3918.65813897091    
 JPrj=0 DoOrth=F DoCkMO=F.
 Leave Link  401 at Fri Sep 10 23:40:28 2021, MaxMem= 23488102400 cpu:             187.3 elap:               7.8
 (Enter /sw/apps/gaussian-16.0/g16/l502.exe)
 Integral symmetry usage will be decided dynamically.
 Closed shell SCF:
 Using DIIS extrapolation, IDIIS=  1040.
 NGot= 23488102400 LenX= 23482547354 LenY= 23479796732
 Requested convergence on RMS density matrix=1.00D-08 within 128 cycles.
 Requested convergence on MAX density matrix=1.00D-06.
 Requested convergence on             energy=1.00D-06.
 No special actions if energy rises.
 Fock matrices will be formed incrementally for  20 cycles.

 Cycle   1  Pass 1  IDiag  1:
 FoFJK:  IHMeth= 1 ICntrl=       0 DoSepK=T KAlg= 0 I1Cent=           0 FoldK=F
 IRaf=         1 NMat=       1 IRICut=       1 DoRegI=T DoRafI=F ISym2E= 0 IDoP0=0 IntGTp=1.
 FoFCou: FMM=T IPFlag=           0 FMFlag=      100000 FMFlg1=        2001
         NFxFlg=           0 DoJE=T BraDBF=F KetDBF=F FulRan=T
         wScrn=  0.000000 ICntrl=       500 IOpCl=  0 I1Cent=           0 NGrid=           0
         NMat0=    1 NMatS0=      1 NMatT0=    0 NMatD0=    1 NMtDS0=    0 NMtDT0=    0
 Symmetry not used in FoFCou.
 FMM levels:  10  Number of levels for PrismC:   9
 E= -4068.94902184971    
 DIIS: error= 2.04D-02 at cycle   1 NSaved=   1.
 NSaved= 1 IEnMin= 1 EnMin= -4068.94902184971     IErMin= 1 ErrMin= 2.04D-02
 ErrMax= 2.04D-02  0.00D+00 EMaxC= 1.00D-01 BMatC= 1.69D+00 BMatP= 1.69D+00
 IDIUse=3 WtCom= 7.96D-01 WtEn= 2.04D-01
 Coeff-Com:  0.100D+01
 Coeff-En:   0.100D+01
 Coeff:      0.100D+01
 Gap=     0.120 Goal=   None    Shift=    0.000
 GapD=    0.120 DampG=1.000 DampE=0.500 DampFc=0.5000 IDamp=-1.
 Damping current iteration by 5.00D-01
 RMSDP=1.57D-03 MaxDP=1.35D-01              OVMax= 2.01D-01

 Cycle   2  Pass 1  IDiag  1:
 RMSU=  7.70D-04    CP:  9.82D-01
 E= -4069.33745369383     Delta-E=       -0.388431844123 Rises=F Damp=T
 DIIS: error= 1.27D-02 at cycle   2 NSaved=   2.
 NSaved= 2 IEnMin= 2 EnMin= -4069.33745369383     IErMin= 2 ErrMin= 1.27D-02
 ErrMax= 1.27D-02  0.00D+00 EMaxC= 1.00D-01 BMatC= 3.07D-01 BMatP= 1.69D+00
 IDIUse=3 WtCom= 8.73D-01 WtEn= 1.27D-01
 Coeff-Com: -0.212D+00 0.121D+01
 Coeff-En:   0.000D+00 0.100D+01
 Coeff:     -0.185D+00 0.119D+01
 Gap=     0.134 Goal=   None    Shift=    0.000
 RMSDP=7.68D-04 MaxDP=9.42D-02 DE=-3.88D-01 OVMax= 1.92D-01

 Cycle   3  Pass 1  IDiag  1:
 RMSU=  7.36D-04    CP:  9.68D-01  1.23D+00
 E= -4069.62462221660     Delta-E=       -0.287168522769 Rises=F Damp=F
 DIIS: error= 1.58D-02 at cycle   3 NSaved=   3.
 NSaved= 3 IEnMin= 3 EnMin= -4069.62462221660     IErMin= 2 ErrMin= 1.27D-02
 ErrMax= 1.58D-02  0.00D+00 EMaxC= 1.00D-01 BMatC= 2.04D-01 BMatP= 3.07D-01
 IDIUse=3 WtCom= 8.42D-01 WtEn= 1.58D-01
 Coeff-Com: -0.267D+00 0.653D+00 0.614D+00
 Coeff-En:   0.000D+00 0.000D+00 0.100D+01
 Coeff:     -0.225D+00 0.550D+00 0.675D+00
 Gap=     0.122 Goal=   None    Shift=    0.000
 RMSDP=5.17D-04 MaxDP=4.76D-02 DE=-2.87D-01 OVMax= 1.49D-01

 Cycle   4  Pass 1  IDiag  1:
 RMSU=  2.70D-04    CP:  9.65D-01  1.55D+00  4.99D-01
 E= -4069.76285208332     Delta-E=       -0.138229866719 Rises=F Damp=F
 DIIS: error= 7.30D-03 at cycle   4 NSaved=   4.
 NSaved= 4 IEnMin= 4 EnMin= -4069.76285208332     IErMin= 4 ErrMin= 7.30D-03
 ErrMax= 7.30D-03  0.00D+00 EMaxC= 1.00D-01 BMatC= 5.18D-02 BMatP= 2.04D-01
 IDIUse=3 WtCom= 9.27D-01 WtEn= 7.30D-02
 Coeff-Com: -0.110D+00 0.228D+00 0.410D+00 0.472D+00
 Coeff-En:   0.000D+00 0.000D+00 0.227D+00 0.773D+00
 Coeff:     -0.102D+00 0.211D+00 0.397D+00 0.494D+00
 Gap=     0.121 Goal=   None    Shift=    0.000
 RMSDP=2.07D-04 MaxDP=1.90D-02 DE=-1.38D-01 OVMax= 6.78D-02

 Cycle   5  Pass 1  IDiag  1:
 RMSU=  7.91D-05    CP:  9.64D-01  1.49D+00  6.87D-01  5.40D-01
 E= -4069.81033826492     Delta-E=       -0.047486181600 Rises=F Damp=F
 DIIS: error= 7.18D-04 at cycle   5 NSaved=   5.
 NSaved= 5 IEnMin= 5 EnMin= -4069.81033826492     IErMin= 5 ErrMin= 7.18D-04
 ErrMax= 7.18D-04  0.00D+00 EMaxC= 1.00D-01 BMatC= 1.34D-03 BMatP= 5.18D-02
 IDIUse=3 WtCom= 9.93D-01 WtEn= 7.18D-03
 Coeff-Com: -0.381D-01 0.750D-01 0.173D+00 0.256D+00 0.533D+00
 Coeff-En:   0.000D+00 0.000D+00 0.000D+00 0.000D+00 0.100D+01
 Coeff:     -0.378D-01 0.745D-01 0.172D+00 0.255D+00 0.537D+00
 Gap=     0.120 Goal=   None    Shift=    0.000
 RMSDP=4.52D-05 MaxDP=4.20D-03 DE=-4.75D-02 OVMax= 1.91D-02

 Cycle   6  Pass 1  IDiag  1:
 RMSU=  3.25D-05    CP:  9.64D-01  1.49D+00  6.78D-01  6.17D-01  7.23D-01
 E= -4069.81155569056     Delta-E=       -0.001217425637 Rises=F Damp=F
 DIIS: error= 1.83D-04 at cycle   6 NSaved=   6.
 NSaved= 6 IEnMin= 6 EnMin= -4069.81155569056     IErMin= 6 ErrMin= 1.83D-04
 ErrMax= 1.83D-04  0.00D+00 EMaxC= 1.00D-01 BMatC= 2.01D-04 BMatP= 1.34D-03
 IDIUse=3 WtCom= 9.98D-01 WtEn= 1.83D-03
 Coeff-Com:  0.182D-02-0.587D-02 0.134D-01 0.432D-01 0.304D+00 0.644D+00
 Coeff-En:   0.000D+00 0.000D+00 0.000D+00 0.000D+00 0.118D+00 0.882D+00
 Coeff:      0.181D-02-0.586D-02 0.134D-01 0.431D-01 0.303D+00 0.644D+00
 Gap=     0.121 Goal=   None    Shift=    0.000
 RMSDP=1.76D-05 MaxDP=1.23D-03 DE=-1.22D-03 OVMax= 8.16D-03

 Cycle   7  Pass 1  IDiag  1:
 RMSU=  1.15D-05    CP:  9.64D-01  1.49D+00  6.84D-01  6.15D-01  8.36D-01
                    CP:  7.34D-01
 E= -4069.81178097391     Delta-E=       -0.000225283351 Rises=F Damp=F
 DIIS: error= 1.01D-04 at cycle   7 NSaved=   7.
 NSaved= 7 IEnMin= 7 EnMin= -4069.81178097391     IErMin= 7 ErrMin= 1.01D-04
 ErrMax= 1.01D-04  0.00D+00 EMaxC= 1.00D-01 BMatC= 2.65D-05 BMatP= 2.01D-04
 IDIUse=3 WtCom= 9.99D-01 WtEn= 1.01D-03
 Coeff-Com:  0.459D-02-0.101D-01-0.873D-02-0.272D-02 0.108D+00 0.343D+00
 Coeff-Com:  0.566D+00
 Coeff-En:   0.000D+00 0.000D+00 0.000D+00 0.000D+00 0.000D+00 0.000D+00
 Coeff-En:   0.100D+01
 Coeff:      0.458D-02-0.101D-01-0.872D-02-0.271D-02 0.108D+00 0.343D+00
 Coeff:      0.566D+00
 Gap=     0.121 Goal=   None    Shift=    0.000
 RMSDP=6.86D-06 MaxDP=1.04D-03 DE=-2.25D-04 OVMax= 3.36D-03

 Cycle   8  Pass 1  IDiag  1:
 RMSU=  4.86D-06    CP:  9.64D-01  1.49D+00  6.85D-01  6.20D-01  8.36D-01
                    CP:  8.57D-01  8.04D-01
 E= -4069.81181342598     Delta-E=       -0.000032452070 Rises=F Damp=F
 DIIS: error= 4.54D-05 at cycle   8 NSaved=   8.
 NSaved= 8 IEnMin= 8 EnMin= -4069.81181342598     IErMin= 8 ErrMin= 4.54D-05
 ErrMax= 4.54D-05  0.00D+00 EMaxC= 1.00D-01 BMatC= 4.95D-06 BMatP= 2.65D-05
 IDIUse=1 WtCom= 1.00D+00 WtEn= 0.00D+00
 Coeff-Com:  0.223D-02-0.444D-02-0.788D-02-0.120D-01-0.867D-02 0.349D-01
 Coeff-Com:  0.316D+00 0.680D+00
 Coeff:      0.223D-02-0.444D-02-0.788D-02-0.120D-01-0.867D-02 0.349D-01
 Coeff:      0.316D+00 0.680D+00
 Gap=     0.121 Goal=   None    Shift=    0.000
 RMSDP=3.39D-06 MaxDP=3.96D-04 DE=-3.25D-05 OVMax= 1.12D-03

 Cycle   9  Pass 1  IDiag  1:
 RMSU=  1.98D-06    CP:  9.64D-01  1.49D+00  6.85D-01  6.22D-01  8.53D-01
                    CP:  8.84D-01  9.92D-01  9.68D-01
 E= -4069.81182139698     Delta-E=       -0.000007970997 Rises=F Damp=F
 DIIS: error= 1.59D-05 at cycle   9 NSaved=   9.
 NSaved= 9 IEnMin= 9 EnMin= -4069.81182139698     IErMin= 9 ErrMin= 1.59D-05
 ErrMax= 1.59D-05  0.00D+00 EMaxC= 1.00D-01 BMatC= 7.74D-07 BMatP= 4.95D-06
 IDIUse=1 WtCom= 1.00D+00 WtEn= 0.00D+00
 Coeff-Com:  0.498D-03-0.834D-03-0.280D-02-0.613D-02-0.201D-01-0.396D-01
 Coeff-Com:  0.921D-01 0.343D+00 0.634D+00
 Coeff:      0.498D-03-0.834D-03-0.280D-02-0.613D-02-0.201D-01-0.396D-01
 Coeff:      0.921D-01 0.343D+00 0.634D+00
 Gap=     0.121 Goal=   None    Shift=    0.000
 RMSDP=1.45D-06 MaxDP=1.47D-04 DE=-7.97D-06 OVMax= 7.82D-04

 Cycle  10  Pass 1  IDiag  1:
 RMSU=  9.65D-07    CP:  9.64D-01  1.49D+00  6.85D-01  6.22D-01  8.57D-01
                    CP:  8.96D-01  1.04D+00  1.13D+00  1.05D+00
 E= -4069.81182310295     Delta-E=       -0.000001705972 Rises=F Damp=F
 DIIS: error= 8.24D-06 at cycle  10 NSaved=  10.
 NSaved=10 IEnMin=10 EnMin= -4069.81182310295     IErMin=10 ErrMin= 8.24D-06
 ErrMax= 8.24D-06  0.00D+00 EMaxC= 1.00D-01 BMatC= 1.70D-07 BMatP= 7.74D-07
 IDIUse=1 WtCom= 1.00D+00 WtEn= 0.00D+00
 Coeff-Com: -0.415D-03 0.875D-03 0.116D-02 0.956D-03-0.384D-02-0.311D-01
 Coeff-Com: -0.424D-01-0.645D-01 0.233D+00 0.906D+00
 Coeff:     -0.415D-03 0.875D-03 0.116D-02 0.956D-03-0.384D-02-0.311D-01
 Coeff:     -0.424D-01-0.645D-01 0.233D+00 0.906D+00
 Gap=     0.121 Goal=   None    Shift=    0.000
 RMSDP=1.23D-06 MaxDP=1.22D-04 DE=-1.71D-06 OVMax= 6.59D-04

 Cycle  11  Pass 1  IDiag  1:
 RMSU=  5.46D-07    CP:  9.64D-01  1.49D+00  6.85D-01  6.23D-01  8.59D-01
                    CP:  9.05D-01  1.08D+00  1.24D+00  1.38D+00  1.35D+00
 E= -4069.81182390312     Delta-E=       -0.000000800170 Rises=F Damp=F
 DIIS: error= 4.23D-06 at cycle  11 NSaved=  11.
 NSaved=11 IEnMin=11 EnMin= -4069.81182390312     IErMin=11 ErrMin= 4.23D-06
 ErrMax= 4.23D-06  0.00D+00 EMaxC= 1.00D-01 BMatC= 7.05D-08 BMatP= 1.70D-07
 IDIUse=1 WtCom= 1.00D+00 WtEn= 0.00D+00
 Coeff-Com: -0.342D-03 0.667D-03 0.136D-02 0.210D-02 0.416D-02-0.896D-02
 Coeff-Com: -0.409D-01-0.129D+00-0.390D-01 0.496D+00 0.714D+00
 Coeff:     -0.342D-03 0.667D-03 0.136D-02 0.210D-02 0.416D-02-0.896D-02
 Coeff:     -0.409D-01-0.129D+00-0.390D-01 0.496D+00 0.714D+00
 Gap=     0.121 Goal=   None    Shift=    0.000
 RMSDP=7.05D-07 MaxDP=6.98D-05 DE=-8.00D-07 OVMax= 4.09D-04

 Cycle  12  Pass 1  IDiag  1:
 RMSU=  2.75D-07    CP:  9.64D-01  1.49D+00  6.85D-01  6.23D-01  8.60D-01
                    CP:  9.07D-01  1.10D+00  1.31D+00  1.54D+00  1.74D+00
                    CP:  1.17D+00
 E= -4069.81182418186     Delta-E=       -0.000000278746 Rises=F Damp=F
 DIIS: error= 2.46D-06 at cycle  12 NSaved=  12.
 NSaved=12 IEnMin=12 EnMin= -4069.81182418186     IErMin=12 ErrMin= 2.46D-06
 ErrMax= 2.46D-06  0.00D+00 EMaxC= 1.00D-01 BMatC= 1.65D-08 BMatP= 7.05D-08
 IDIUse=1 WtCom= 1.00D+00 WtEn= 0.00D+00
 Coeff-Com: -0.217D-04 0.259D-04 0.262D-03 0.625D-03 0.350D-02 0.337D-02
 Coeff-Com:  0.315D-03-0.389D-01-0.746D-01-0.338D-01 0.261D+00 0.878D+00
 Coeff:     -0.217D-04 0.259D-04 0.262D-03 0.625D-03 0.350D-02 0.337D-02
 Coeff:      0.315D-03-0.389D-01-0.746D-01-0.338D-01 0.261D+00 0.878D+00
 Gap=     0.121 Goal=   None    Shift=    0.000
 RMSDP=4.32D-07 MaxDP=2.82D-05 DE=-2.79D-07 OVMax= 2.64D-04

 Cycle  13  Pass 1  IDiag  1:
 RMSU=  1.70D-07    CP:  9.64D-01  1.49D+00  6.85D-01  6.23D-01  8.60D-01
                    CP:  9.07D-01  1.11D+00  1.33D+00  1.65D+00  1.96D+00
                    CP:  1.57D+00  1.23D+00
 E= -4069.81182427696     Delta-E=       -0.000000095097 Rises=F Damp=F
 DIIS: error= 1.34D-06 at cycle  13 NSaved=  13.
 NSaved=13 IEnMin=13 EnMin= -4069.81182427696     IErMin=13 ErrMin= 1.34D-06
 ErrMax= 1.34D-06  0.00D+00 EMaxC= 1.00D-01 BMatC= 8.97D-09 BMatP= 1.65D-08
 IDIUse=1 WtCom= 1.00D+00 WtEn= 0.00D+00
 Coeff-Com:  0.118D-03-0.242D-03-0.355D-03-0.426D-03 0.746D-03 0.487D-02
 Coeff-Com:  0.180D-01 0.228D-01-0.325D-01-0.234D+00-0.166D+00 0.572D+00
 Coeff-Com:  0.815D+00
 Coeff:      0.118D-03-0.242D-03-0.355D-03-0.426D-03 0.746D-03 0.487D-02
 Coeff:      0.180D-01 0.228D-01-0.325D-01-0.234D+00-0.166D+00 0.572D+00
 Coeff:      0.815D+00
 Gap=     0.121 Goal=   None    Shift=    0.000
 RMSDP=3.60D-07 MaxDP=2.27D-05 DE=-9.51D-08 OVMax= 2.30D-04

 Cycle  14  Pass 1  IDiag  1:
 RMSU=  7.91D-08    CP:  9.64D-01  1.49D+00  6.85D-01  6.23D-01  8.61D-01
                    CP:  9.08D-01  1.11D+00  1.36D+00  1.72D+00  2.16D+00
                    CP:  1.83D+00  1.76D+00  1.13D+00
 E= -4069.81182431785     Delta-E=       -0.000000040891 Rises=F Damp=F
 DIIS: error= 6.88D-07 at cycle  14 NSaved=  14.
 NSaved=14 IEnMin=14 EnMin= -4069.81182431785     IErMin=14 ErrMin= 6.88D-07
 ErrMax= 6.88D-07  0.00D+00 EMaxC= 1.00D-01 BMatC= 1.37D-09 BMatP= 8.97D-09
 IDIUse=1 WtCom= 1.00D+00 WtEn= 0.00D+00
 Coeff-Com:  0.690D-04-0.136D-03-0.254D-03-0.391D-03-0.415D-03 0.125D-02
 Coeff-Com:  0.101D-01 0.201D-01 0.502D-02-0.103D+00-0.149D+00 0.798D-01
 Coeff-Com:  0.412D+00 0.724D+00
 Coeff:      0.690D-04-0.136D-03-0.254D-03-0.391D-03-0.415D-03 0.125D-02
 Coeff:      0.101D-01 0.201D-01 0.502D-02-0.103D+00-0.149D+00 0.798D-01
 Coeff:      0.412D+00 0.724D+00
 Gap=     0.121 Goal=   None    Shift=    0.000
 RMSDP=1.12D-07 MaxDP=7.00D-06 DE=-4.09D-08 OVMax= 6.53D-05

 Cycle  15  Pass 1  IDiag  1:
 RMSU=  3.92D-08    CP:  9.64D-01  1.49D+00  6.85D-01  6.23D-01  8.60D-01
                    CP:  9.08D-01  1.11D+00  1.36D+00  1.74D+00  2.20D+00
                    CP:  1.94D+00  1.90D+00  1.37D+00  1.04D+00
 E= -4069.81182432231     Delta-E=       -0.000000004453 Rises=F Damp=F
 DIIS: error= 3.00D-07 at cycle  15 NSaved=  15.
 NSaved=15 IEnMin=15 EnMin= -4069.81182432231     IErMin=15 ErrMin= 3.00D-07
 ErrMax= 3.00D-07  0.00D+00 EMaxC= 1.00D-01 BMatC= 2.33D-10 BMatP= 1.37D-09
 IDIUse=1 WtCom= 1.00D+00 WtEn= 0.00D+00
 Coeff-Com:  0.750D-05-0.132D-04-0.405D-04-0.923D-04-0.291D-03-0.495D-03
 Coeff-Com:  0.127D-02 0.323D-02 0.866D-02-0.117D-02-0.318D-01-0.707D-01
 Coeff-Com:  0.353D-01 0.301D+00 0.755D+00
 Coeff:      0.750D-05-0.132D-04-0.405D-04-0.923D-04-0.291D-03-0.495D-03
 Coeff:      0.127D-02 0.323D-02 0.866D-02-0.117D-02-0.318D-01-0.707D-01
 Coeff:      0.353D-01 0.301D+00 0.755D+00
 Gap=     0.121 Goal=   None    Shift=    0.000
 RMSDP=3.92D-08 MaxDP=2.17D-06 DE=-4.45D-09 OVMax= 3.01D-05

 Cycle  16  Pass 1  IDiag  1:
 RMSU=  1.90D-08    CP:  9.64D-01  1.49D+00  6.85D-01  6.23D-01  8.60D-01
                    CP:  9.08D-01  1.12D+00  1.36D+00  1.74D+00  2.22D+00
                    CP:  1.96D+00  1.96D+00  1.45D+00  1.24D+00  1.14D+00
 E= -4069.81182432308     Delta-E=       -0.000000000771 Rises=F Damp=F
 DIIS: error= 1.95D-07 at cycle  16 NSaved=  16.
 NSaved=16 IEnMin=16 EnMin= -4069.81182432308     IErMin=16 ErrMin= 1.95D-07
 ErrMax= 1.95D-07  0.00D+00 EMaxC= 1.00D-01 BMatC= 8.90D-11 BMatP= 2.33D-10
 IDIUse=1 WtCom= 1.00D+00 WtEn= 0.00D+00
 Coeff-Com: -0.135D-04 0.275D-04 0.437D-04 0.475D-04-0.399D-04-0.620D-03
 Coeff-Com: -0.171D-02-0.400D-02 0.393D-02 0.244D-01 0.210D-01-0.612D-01
 Coeff-Com: -0.801D-01-0.372D-01 0.399D+00 0.737D+00
 Coeff:     -0.135D-04 0.275D-04 0.437D-04 0.475D-04-0.399D-04-0.620D-03
 Coeff:     -0.171D-02-0.400D-02 0.393D-02 0.244D-01 0.210D-01-0.612D-01
 Coeff:     -0.801D-01-0.372D-01 0.399D+00 0.737D+00
 Gap=     0.121 Goal=   None    Shift=    0.000
 RMSDP=2.34D-08 MaxDP=1.28D-06 DE=-7.71D-10 OVMax= 1.38D-05

 Cycle  17  Pass 1  IDiag  1:
 RMSU=  1.06D-08    CP:  9.64D-01  1.49D+00  6.85D-01  6.23D-01  8.60D-01
                    CP:  9.08D-01  1.12D+00  1.36D+00  1.75D+00  2.22D+00
                    CP:  1.97D+00  1.98D+00  1.50D+00  1.34D+00  1.42D+00
                    CP:  1.23D+00
 E= -4069.81182432367     Delta-E=       -0.000000000593 Rises=F Damp=F
 DIIS: error= 8.70D-08 at cycle  17 NSaved=  17.
 NSaved=17 IEnMin=17 EnMin= -4069.81182432367     IErMin=17 ErrMin= 8.70D-08
 ErrMax= 8.70D-08  0.00D+00 EMaxC= 1.00D-01 BMatC= 1.78D-11 BMatP= 8.90D-11
 IDIUse=1 WtCom= 1.00D+00 WtEn= 0.00D+00
 Coeff-Com: -0.737D-05 0.144D-04 0.287D-04 0.415D-04 0.753D-04-0.135D-03
 Coeff-Com: -0.865D-03-0.278D-02-0.115D-03 0.960D-02 0.175D-01-0.720D-02
 Coeff-Com: -0.355D-01-0.984D-01-0.199D-01 0.278D+00 0.860D+00
 Coeff:     -0.737D-05 0.144D-04 0.287D-04 0.415D-04 0.753D-04-0.135D-03
 Coeff:     -0.865D-03-0.278D-02-0.115D-03 0.960D-02 0.175D-01-0.720D-02
 Coeff:     -0.355D-01-0.984D-01-0.199D-01 0.278D+00 0.860D+00
 Gap=     0.121 Goal=   None    Shift=    0.000
 RMSDP=1.35D-08 MaxDP=7.58D-07 DE=-5.93D-10 OVMax= 1.02D-05

 Cycle  18  Pass 1  IDiag  1:
 RMSU=  5.13D-09    CP:  9.64D-01  1.49D+00  6.85D-01  6.23D-01  8.60D-01
                    CP:  9.08D-01  1.12D+00  1.36D+00  1.75D+00  2.22D+00
                    CP:  1.98D+00  1.99D+00  1.51D+00  1.40D+00  1.59D+00
                    CP:  1.62D+00  1.38D+00
 E= -4069.81182432345     Delta-E=        0.000000000215 Rises=F Damp=F
 DIIS: error= 6.82D-08 at cycle  18 NSaved=  18.
 NSaved=18 IEnMin=17 EnMin= -4069.81182432367     IErMin=18 ErrMin= 6.82D-08
 ErrMax= 6.82D-08  0.00D+00 EMaxC= 1.00D-01 BMatC= 7.93D-12 BMatP= 1.78D-11
 IDIUse=1 WtCom= 1.00D+00 WtEn= 0.00D+00
 Coeff-Com:  0.126D-05-0.284D-05-0.164D-05 0.228D-05 0.623D-04 0.157D-03
 Coeff-Com:  0.285D-03 0.594D-05-0.118D-02-0.480D-02 0.723D-03 0.172D-01
 Coeff-Com:  0.153D-01-0.358D-01-0.151D+00-0.176D+00 0.399D+00 0.937D+00
 Coeff:      0.126D-05-0.284D-05-0.164D-05 0.228D-05 0.623D-04 0.157D-03
 Coeff:      0.285D-03 0.594D-05-0.118D-02-0.480D-02 0.723D-03 0.172D-01
 Coeff:      0.153D-01-0.358D-01-0.151D+00-0.176D+00 0.399D+00 0.937D+00
 Gap=     0.121 Goal=   None    Shift=    0.000
 RMSDP=1.12D-08 MaxDP=5.95D-07 DE= 2.15D-10 OVMax= 6.58D-06

 Cycle  19  Pass 1  IDiag  1:
 RMSU=  2.99D-09    CP:  9.64D-01  1.49D+00  6.85D-01  6.23D-01  8.60D-01
                    CP:  9.08D-01  1.12D+00  1.36D+00  1.75D+00  2.22D+00
                    CP:  1.98D+00  1.99D+00  1.53D+00  1.44D+00  1.73D+00
                    CP:  1.91D+00  1.92D+00  1.29D+00
 E= -4069.81182432369     Delta-E=       -0.000000000240 Rises=F Damp=F
 DIIS: error= 2.65D-08 at cycle  19 NSaved=  19.
 NSaved=19 IEnMin=19 EnMin= -4069.81182432369     IErMin=19 ErrMin= 2.65D-08
 ErrMax= 2.65D-08  0.00D+00 EMaxC= 1.00D-01 BMatC= 1.84D-12 BMatP= 7.93D-12
 IDIUse=1 WtCom= 1.00D+00 WtEn= 0.00D+00
 Coeff-Com:  0.294D-05-0.595D-05-0.972D-05-0.116D-04 0.172D-04 0.125D-03
 Coeff-Com:  0.452D-03 0.801D-03-0.565D-03-0.605D-02-0.505D-02 0.121D-01
 Coeff-Com:  0.213D-01 0.106D-01-0.756D-01-0.194D+00-0.137D-01 0.507D+00
 Coeff-Com:  0.742D+00
 Coeff:      0.294D-05-0.595D-05-0.972D-05-0.116D-04 0.172D-04 0.125D-03
 Coeff:      0.452D-03 0.801D-03-0.565D-03-0.605D-02-0.505D-02 0.121D-01
 Coeff:      0.213D-01 0.106D-01-0.756D-01-0.194D+00-0.137D-01 0.507D+00
 Coeff:      0.742D+00
 Gap=     0.121 Goal=   None    Shift=    0.000
 RMSDP=5.14D-09 MaxDP=3.97D-07 DE=-2.40D-10 OVMax= 3.97D-06

 SCF Done:  E(RCAM-B3LYP) =  -4069.81182432     A.U. after   19 cycles
            NFock= 19  Conv=0.51D-08     -V/T= 2.0102
 KE= 4.028798184803D+03 PE=-3.944570113917D+04 EE= 1.636481114402D+04
 Leave Link  502 at Fri Sep 10 23:51:11 2021, MaxMem= 23488102400 cpu:           14843.9 elap:             643.4
 (Enter /sw/apps/gaussian-16.0/g16/l801.exe)
 DoSCS=F DFT=T ScalE2(SS,OS)=  1.000000  1.000000
 ExpMin= 3.36D-02 ExpMax= 4.95D+03 ExpMxC= 7.45D+02 IAcc=3 IRadAn=         5 AccDes= 0.00D+00
 HarFok:  IExCor=  205 AccDes= 0.00D+00 IRadAn=         5 IDoV=-2 UseB2=F ITyADJ=14
 ICtDFT= 12500011 ScaDFX=  1.000000  1.000000  1.000000  1.000000
 GSVD:  LWork=       -9588 too small for GESVD, short by       45590 words or       45590 for optimal perf.
 Largest valence mixing into a core orbital is  2.02D-04
 Largest core mixing into a valence orbital is  5.24D-05
 Range of M.O.s used for correlation:    95  1572
 NBasis=  1572 NAE=   312 NBE=   312 NFC=    94 NFV=     0
 NROrb=   1478 NOA=   218 NOB=   218 NVA=  1260 NVB=  1260
 Leave Link  801 at Fri Sep 10 23:51:12 2021, MaxMem= 23488102400 cpu:               9.0 elap:               0.4
 (Enter /sw/apps/gaussian-16.0/g16/l914.exe)
 RHF ground state
 Two-electron integrals replicated using symmetry.
 MDV= 23488102400 DFT=T DoStab=F Mixed=T DoRPA=T DoScal=F NonHer=T
 Making orbital integer symmetry assigments:
 Orbital symmetries:
       Occupied  (A) (A) (A) (A) (A) (A) (A) (A) (A) (A) (A) (A)
                 (A) (A) (A) (A) (A) (A) (A) (A) (A) (A) (A) (A)
                 (A) (A) (A) (A) (A) (A) (A) (A) (A) (A) (A) (A)
                 (A) (A) (A) (A) (A) (A) (A) (A) (A) (A) (A) (A)
                 (A) (A) (A) (A) (A) (A) (A) (A) (A) (A) (A) (A)
                 (A) (A) (A) (A) (A) (A) (A) (A) (A) (A) (A) (A)
                 (A) (A) (A) (A) (A) (A) (A) (A) (A) (A) (A) (A)
                 (A) (A) (A) (A) (A) (A) (A) (A) (A) (A) (A) (A)
                 (A) (A) (A) (A) (A) (A) (A) (A) (A) (A) (A) (A)
                 (A) (A) (A) (A) (A) (A) (A) (A) (A) (A) (A) (A)
                 (A) (A) (A) (A) (A) (A) (A) (A) (A) (A) (A) (A)
                 (A) (A) (A) (A) (A) (A) (A) (A) (A) (A) (A) (A)
                 (A) (A) (A) (A) (A) (A) (A) (A) (A) (A) (A) (A)
                 (A) (A) (A) (A) (A) (A) (A) (A) (A) (A) (A) (A)
                 (A) (A) (A) (A) (A) (A) (A) (A) (A) (A) (A) (A)
                 (A) (A) (A) (A) (A) (A) (A) (A) (A) (A) (A) (A)
                 (A) (A) (A) (A) (A) (A) (A) (A) (A) (A) (A) (A)
                 (A) (A) (A) (A) (A) (A) (A) (A) (A) (A) (A) (A)
                 (A) (A) (A) (A) (A) (A) (A) (A) (A) (A) (A) (A)
                 (A) (A) (A) (A) (A) (A) (A) (A) (A) (A) (A) (A)
                 (A) (A) (A) (A) (A) (A) (A) (A) (A) (A) (A) (A)
                 (A) (A) (A) (A) (A) (A) (A) (A) (A) (A) (A) (A)
                 (A) (A) (A) (A) (A) (A) (A) (A) (A) (A) (A) (A)
                 (A) (A) (A) (A) (A) (A) (A) (A) (A) (A) (A) (A)
                 (A) (A) (A) (A) (A) (A) (A) (A) (A) (A) (A) (A)
                 (A) (A) (A) (A) (A) (A) (A) (A) (A) (A) (A) (A)
       Virtual   (A) (A) (A) (A) (A) (A) (A) (A) (A) (A) (A) (A)
                 (A) (A) (A) (A) (A) (A) (A) (A) (A) (A) (A) (A)
                 (A) (A) (A) (A) (A) (A) (A) (A) (A) (A) (A) (A)
                 (A) (A) (A) (A) (A) (A) (A) (A) (A) (A) (A) (A)
                 (A) (A) (A) (A) (A) (A) (A) (A) (A) (A) (A) (A)
                 (A) (A) (A) (A) (A) (A) (A) (A) (A) (A) (A) (A)
                 (A) (A) (A) (A) (A) (A) (A) (A) (A) (A) (A) (A)
                 (A) (A) (A) (A) (A) (A) (A) (A) (A) (A) (A) (A)
                 (A) (A) (A) (A) (A) (A) (A) (A) (A) (A) (A) (A)
                 (A) (A) (A) (A) (A) (A) (A) (A) (A) (A) (A) (A)
                 (A) (A) (A) (A) (A) (A) (A) (A) (A) (A) (A) (A)
                 (A) (A) (A) (A) (A) (A) (A) (A) (A) (A) (A) (A)
                 (A) (A) (A) (A) (A) (A) (A) (A) (A) (A) (A) (A)
                 (A) (A) (A) (A) (A) (A) (A) (A) (A) (A) (A) (A)
                 (A) (A) (A) (A) (A) (A) (A) (A) (A) (A) (A) (A)
                 (A) (A) (A) (A) (A) (A) (A) (A) (A) (A) (A) (A)
                 (A) (A) (A) (A) (A) (A) (A) (A) (A) (A) (A) (A)
                 (A) (A) (A) (A) (A) (A) (A) (A) (A) (A) (A) (A)
                 (A) (A) (A) (A) (A) (A) (A) (A) (A) (A) (A) (A)
                 (A) (A) (A) (A) (A) (A) (A) (A) (A) (A) (A) (A)
                 (A) (A) (A) (A) (A) (A) (A) (A) (A) (A) (A) (A)
                 (A) (A) (A) (A) (A) (A) (A) (A) (A) (A) (A) (A)
                 (A) (A) (A) (A) (A) (A) (A) (A) (A) (A) (A) (A)
                 (A) (A) (A) (A) (A) (A) (A) (A) (A) (A) (A) (A)
                 (A) (A) (A) (A) (A) (A) (A) (A) (A) (A) (A) (A)
                 (A) (A) (A) (A) (A) (A) (A) (A) (A) (A) (A) (A)
                 (A) (A) (A) (A) (A) (A) (A) (A) (A) (A) (A) (A)
                 (A) (A) (A) (A) (A) (A) (A) (A) (A) (A) (A) (A)
                 (A) (A) (A) (A) (A) (A) (A) (A) (A) (A) (A) (A)
                 (A) (A) (A) (A) (A) (A) (A) (A) (A) (A) (A) (A)
                 (A) (A) (A) (A) (A) (A) (A) (A) (A) (A) (A) (A)
                 (A) (A) (A) (A) (A) (A) (A) (A) (A) (A) (A) (A)
                 (A) (A) (A) (A) (A) (A) (A) (A) (A) (A) (A) (A)
                 (A) (A) (A) (A) (A) (A) (A) (A) (A) (A) (A) (A)
                 (A) (A) (A) (A) (A) (A) (A) (A) (A) (A) (A) (A)
                 (A) (A) (A) (A) (A) (A) (A) (A) (A) (A) (A) (A)
                 (A) (A) (A) (A) (A) (A) (A) (A) (A) (A) (A) (A)
                 (A) (A) (A) (A) (A) (A) (A) (A) (A) (A) (A) (A)
                 (A) (A) (A) (A) (A) (A) (A) (A) (A) (A) (A) (A)
                 (A) (A) (A) (A) (A) (A) (A) (A) (A) (A) (A) (A)
                 (A) (A) (A) (A) (A) (A) (A) (A) (A) (A) (A) (A)
                 (A) (A) (A) (A) (A) (A) (A) (A) (A) (A) (A) (A)
                 (A) (A) (A) (A) (A) (A) (A) (A) (A) (A) (A) (A)
                 (A) (A) (A) (A) (A) (A) (A) (A) (A) (A) (A) (A)
                 (A) (A) (A) (A) (A) (A) (A) (A) (A) (A) (A) (A)
                 (A) (A) (A) (A) (A) (A) (A) (A) (A) (A) (A) (A)
                 (A) (A) (A) (A) (A) (A) (A) (A) (A) (A) (A) (A)
                 (A) (A) (A) (A) (A) (A) (A) (A) (A) (A) (A) (A)
                 (A) (A) (A) (A) (A) (A) (A) (A) (A) (A) (A) (A)
                 (A) (A) (A) (A) (A) (A) (A) (A) (A) (A) (A) (A)
                 (A) (A) (A) (A) (A) (A) (A) (A) (A) (A) (A) (A)
                 (A) (A) (A) (A) (A) (A) (A) (A) (A) (A) (A) (A)
                 (A) (A) (A) (A) (A) (A) (A) (A) (A) (A) (A) (A)
                 (A) (A) (A) (A) (A) (A) (A) (A) (A) (A) (A) (A)
                 (A) (A) (A) (A) (A) (A) (A) (A) (A) (A) (A) (A)
                 (A) (A) (A) (A) (A) (A) (A) (A) (A) (A) (A) (A)
                 (A) (A) (A) (A) (A) (A) (A) (A) (A) (A) (A) (A)
                 (A) (A) (A) (A) (A) (A) (A) (A) (A) (A) (A) (A)
                 (A) (A) (A) (A) (A) (A) (A) (A) (A) (A) (A) (A)
                 (A) (A) (A) (A) (A) (A) (A) (A) (A) (A) (A) (A)
                 (A) (A) (A) (A) (A) (A) (A) (A) (A) (A) (A) (A)
                 (A) (A) (A) (A) (A) (A) (A) (A) (A) (A) (A) (A)
                 (A) (A) (A) (A) (A) (A) (A) (A) (A) (A) (A) (A)
                 (A) (A) (A) (A) (A) (A) (A) (A) (A) (A) (A) (A)
                 (A) (A) (A) (A) (A) (A) (A) (A) (A) (A) (A) (A)
                 (A) (A) (A) (A) (A) (A) (A) (A) (A) (A) (A) (A)
                 (A) (A) (A) (A) (A) (A) (A) (A) (A) (A) (A) (A)
                 (A) (A) (A) (A) (A) (A) (A) (A) (A) (A) (A) (A)
                 (A) (A) (A) (A) (A) (A) (A) (A) (A) (A) (A) (A)
                 (A) (A) (A) (A) (A) (A) (A) (A) (A) (A) (A) (A)
                 (A) (A) (A) (A) (A) (A) (A) (A) (A) (A) (A) (A)
                 (A) (A) (A) (A) (A) (A) (A) (A) (A) (A) (A) (A)
                 (A) (A) (A) (A) (A) (A) (A) (A) (A) (A) (A) (A)
                 (A) (A) (A) (A) (A) (A) (A) (A) (A) (A) (A) (A)
                 (A) (A) (A) (A) (A) (A) (A) (A) (A) (A) (A) (A)
                 (A) (A) (A) (A) (A) (A) (A) (A) (A) (A) (A) (A)
                 (A) (A) (A) (A) (A) (A) (A) (A) (A) (A) (A) (A)
                 (A) (A) (A) (A) (A) (A) (A) (A) (A) (A) (A) (A)
                 (A) (A) (A) (A) (A) (A) (A) (A) (A) (A) (A) (A)
                 (A) (A) (A) (A) (A) (A) (A) (A) (A) (A) (A) (A)
                 (A) (A) (A) (A) (A) (A) (A) (A) (A) (A) (A) (A)
                 (A) (A) (A) (A) (A) (A) (A) (A) (A) (A) (A) (A)
                 (A) (A) (A) (A) (A) (A) (A) (A) (A) (A) (A) (A)
                 (A) (A) (A) (A) (A) (A) (A) (A) (A) (A) (A) (A)
                 (A) (A) (A) (A) (A) (A) (A) (A) (A) (A) (A) (A)
                 (A) (A) (A) (A) (A) (A) (A) (A) (A) (A) (A) (A)
                 (A) (A) (A) (A) (A) (A) (A) (A) (A) (A) (A) (A)
                 (A) (A) (A) (A) (A) (A) (A) (A) (A) (A) (A) (A)
                 (A) (A) (A) (A) (A) (A) (A) (A) (A) (A) (A) (A)
                 (A) (A) (A) (A) (A) (A) (A) (A) (A) (A) (A) (A)
                 (A) (A) (A) (A) (A) (A) (A) (A) (A) (A) (A) (A)
                 (A) (A) (A) (A) (A) (A) (A) (A) (A) (A) (A) (A)
                 (A) (A) (A) (A) (A) (A) (A) (A) (A) (A) (A) (A)
                 (A) (A) (A) (A) (A) (A) (A) (A) (A) (A) (A) (A)
                 (A) (A) (A) (A) (A) (A) (A) (A) (A) (A) (A) (A)
                 (A) (A) (A) (A) (A) (A) (A) (A) (A) (A) (A) (A)
                 (A) (A) (A) (A) (A) (A) (A) (A) (A) (A) (A) (A)
                 (A) (A) (A) (A) (A) (A) (A) (A) (A) (A) (A) (A)
                 (A) (A) (A) (A) (A) (A) (A) (A) (A) (A) (A) (A)
                 (A) (A) (A) (A) (A) (A) (A) (A) (A) (A) (A) (A)
                 (A) (A) (A) (A) (A) (A) (A) (A) (A) (A) (A) (A)
                 (A) (A) (A) (A) (A) (A) (A) (A) (A) (A) (A) (A)
                 (A) (A) (A) (A) (A) (A) (A) (A) (A) (A) (A) (A)
                 (A) (A) (A) (A) (A) (A) (A) (A) (A) (A) (A) (A)
                 (A) (A) (A) (A) (A) (A) (A) (A) (A) (A) (A) (A)
    20 initial guesses have been made.
 Convergence on wavefunction:    0.001000000000000
 Davidson Disk Diagonalization:  ConvIn= 1.00D-03 SkipCon=T Conv= 1.00D-03.
 Max sub-space:  2000 roots to seek:    20 dimension of matrix:       549360
 Iteration     1 Dimension    20 NMult     0 NNew     20
 CISAX will form    20 AO SS matrices at one time.
 NMat=    20 NSing=    20 JSym2X= 0.
 FoFJK:  IHMeth= 1 ICntrl=       0 DoSepK=T KAlg= 0 I1Cent=           0 FoldK=F
 IRaf=         1 NMat=      40 IRICut=       1 DoRegI=T DoRafI=F ISym2E= 0 IDoP0=3 IntGTp=3.
 FoFCou: FMM=T IPFlag=           0 FMFlag=      100000 FMFlg1=        2001
         NFxFlg=           0 DoJE=F BraDBF=F KetDBF=F FulRan=T
         wScrn=  0.000000 ICntrl=       500 IOpCl=  0 I1Cent=           0 NGrid=           0
         NMat0=   20 NMatS0=     20 NMatT0=    0 NMatD0=   20 NMtDS0=    0 NMtDT0=    0
 Symmetry not used in FoFCou.
 FMM levels:  10  Number of levels for PrismC:   9
 New state      2 was old state      7
 New state      3 was old state      4
 New state      4 was old state      6
 New state      5 was old state      2
 Excitation Energies [eV] at current iteration:
 Root      1 :     2.483354129297143
 Root      2 :     2.610136240078107
 Root      3 :     2.616617576077194
 Root      4 :     2.620222847624183
 Root      5 :     2.638481822115433
 Root      6 :     2.736049514366075
 Root      7 :     3.276423989520308
 Root      8 :     3.415754953111582
 Root      9 :     3.622498835034222
 Root     10 :     3.672063773309956
 Root     11 :     3.741818225118333
 Root     12 :     3.754096800902072
 Root     13 :     4.273590095037437
 Root     14 :     4.336607172274716
 Root     15 :     4.383647191576882
 Root     16 :     4.504895716102343
 Root     17 :     4.719181512309898
 Root     18 :     4.747382986225947
 Root     19 :     4.838451361976968
 Root     20 :     4.874506751951064
 Iteration     2 Dimension    30 NMult    20 NNew     10
 CISAX will form    10 AO SS matrices at one time.
 NMat=    10 NSing=    10 JSym2X= 0.
 New state      1 was old state      5
 Root      1 not converged, maximum delta is    0.216703001707157
 New state      2 was old state      4
 Root      2 not converged, maximum delta is    0.472354447020585
 New state      3 was old state      2
 Root      3 not converged, maximum delta is    0.426704751173816
 New state      4 was old state      1
 Root      4 not converged, maximum delta is    0.019012188346028
 New state      5 was old state      3
 Root      5 not converged, maximum delta is    0.016210339209576
 Excitation Energies [eV] at current iteration:
 Root      1 :     1.779847490206123   Change is   -0.858634331909309
 Root      2 :     2.232722683280543   Change is   -0.387500164343640
 Root      3 :     2.238353209667118   Change is   -0.371783030410990
 Root      4 :     2.480107283094362   Change is   -0.003246846202780
 Root      5 :     2.615147599826353   Change is   -0.001469976250841
 Iteration     3 Dimension    40 NMult    30 NNew     10
 CISAX will form    10 AO SS matrices at one time.
 NMat=    10 NSing=    10 JSym2X= 0.
 Root      1 not converged, maximum delta is    0.054640838991114
 New state      2 was old state      3
 Root      2 not converged, maximum delta is    0.565104159051173
 New state      3 was old state      2
 Root      3 not converged, maximum delta is    0.040877930251920
 No map to state      4
 New state      5 was old state      4
 Root      5 not converged, maximum delta is    0.002187781123682
 Excitation Energies [eV] at current iteration:
 Root      1 :     1.674495714674292   Change is   -0.105351775531831
 Root      2 :     1.811432434041936   Change is   -0.426920775625182
 Root      3 :     2.191971578583936   Change is   -0.040751104696607
 Root      4 :     2.204764385518876
 Root      5 :     2.480099542096253   Change is   -0.000007740998109
 Iteration     4 Dimension    50 NMult    40 NNew     10
 CISAX will form    10 AO SS matrices at one time.
 NMat=    10 NSing=    10 JSym2X= 0.
 Root      1 not converged, maximum delta is    0.011007102221081
 Root      2 not converged, maximum delta is    0.035274896254159
 Root      3 not converged, maximum delta is    0.038757763052064
 Root      4 not converged, maximum delta is    0.038195092252404
 Root      5 has converged.
 Excitation Energies [eV] at current iteration:
 Root      1 :     1.657871933745357   Change is   -0.016623780928935
 Root      2 :     1.715153544149424   Change is   -0.096278889892512
 Root      3 :     2.184567883687490   Change is   -0.007403694896446
 Root      4 :     2.196453785159902   Change is   -0.008310600358974
 Root      5 :     2.480098677347887   Change is   -0.000000864748366
 Iteration     5 Dimension    58 NMult    50 NNew      8
 CISAX will form     8 AO SS matrices at one time.
 NMat=     8 NSing=     8 JSym2X= 0.
 Root      1 not converged, maximum delta is    0.001569604695850
 Root      2 not converged, maximum delta is    0.012081446816625
 Root      3 not converged, maximum delta is    0.004389717556333
 Root      4 not converged, maximum delta is    0.004385909992816
 Root      5 has converged.
 Excitation Energies [eV] at current iteration:
 Root      1 :     1.656134230808165   Change is   -0.001737702937193
 Root      2 :     1.699459793239339   Change is   -0.015693750910085
 Root      3 :     2.183719170152883   Change is   -0.000848713534607
 Root      4 :     2.195584722943759   Change is   -0.000869062216144
 Root      5 :     2.480098658419697   Change is   -0.000000018928190
 Iteration     6 Dimension    66 NMult    58 NNew      8
 CISAX will form     8 AO SS matrices at one time.
 NMat=     8 NSing=     8 JSym2X= 0.
 Root      1 has converged.
 Root      2 not converged, maximum delta is    0.001796038940715
 Root      3 not converged, maximum delta is    0.001030086849680
 Root      4 has converged.
 Root      5 has converged.
 Excitation Energies [eV] at current iteration:
 Root      1 :     1.655888231014738   Change is   -0.000245999793426
 Root      2 :     1.697878936950030   Change is   -0.001580856289310
 Root      3 :     2.183588213750894   Change is   -0.000130956401989
 Root      4 :     2.195457542078340   Change is   -0.000127180865418
 Root      5 :     2.480098644100944   Change is   -0.000000014318754
 Iteration     7 Dimension    70 NMult    66 NNew      4
 CISAX will form     4 AO SS matrices at one time.
 NMat=     4 NSing=     4 JSym2X= 0.
 Root      1 has converged.
 Root      2 has converged.
 Root      3 has converged.
 Root      4 has converged.
 Root      5 has converged.
 Excitation Energies [eV] at current iteration:
[...]
 Alpha virt. eigenvalues --    1.85228   1.85284   1.85424   1.85567   1.85602
 Alpha virt. eigenvalues --    1.85831   1.86033   1.86303   1.86499   1.86605
 Alpha virt. eigenvalues --    1.86753   1.86829   1.86936   1.87034   1.87171
 Alpha virt. eigenvalues --    1.87413   1.87595   1.87679   1.87841   1.87894
 Alpha virt. eigenvalues --    1.88007   1.88172   1.88300   1.88525   1.88682
 Alpha virt. eigenvalues --    1.88824   1.89020   1.89110   1.89255   1.89640
 Alpha virt. eigenvalues --    1.89750   1.89776   1.89991   1.90134   1.90311
 Alpha virt. eigenvalues --    1.90724   1.91042   1.91311   1.91408   1.91687
 Alpha virt. eigenvalues --    1.91732   1.92144   1.92316   1.92605   1.92801
 Alpha virt. eigenvalues --    1.92967   1.93263   1.93354   1.93729   1.94206
 Alpha virt. eigenvalues --    1.94590   1.94663   1.95037   1.95461   1.95623
 Alpha virt. eigenvalues --    1.95853   1.95942   1.96032   1.96096   1.96244
 Alpha virt. eigenvalues --    1.96385   1.96574   1.96610   1.96913   1.97074
 Alpha virt. eigenvalues --    1.97445   1.97670   1.97784   1.97955   1.98193
 Alpha virt. eigenvalues --    1.98291   1.98465   1.98715   1.99124   1.99229
 Alpha virt. eigenvalues --    1.99811   2.00038   2.00620   2.00858   2.01037
 Alpha virt. eigenvalues --    2.01223   2.01484   2.01687   2.01702   2.01741
 Alpha virt. eigenvalues --    2.01781   2.01963   2.02765   2.02870   2.03241
 Alpha virt. eigenvalues --    2.03388   2.03444   2.03488   2.03513   2.03717
 Alpha virt. eigenvalues --    2.04010   2.04259   2.04949   2.05101   2.05540
 Alpha virt. eigenvalues --    2.05777   2.06084   2.06418   2.06915   2.07142
 Alpha virt. eigenvalues --    2.07182   2.07503   2.08611   2.08660   2.08979
 Alpha virt. eigenvalues --    2.09123   2.09594   2.09727   2.10742   2.11171
 Alpha virt. eigenvalues --    2.11263   2.11524   2.11537   2.11633   2.11740
 Alpha virt. eigenvalues --    2.11971   2.12457   2.12572   2.12799   2.12809
 Alpha virt. eigenvalues --    2.12935   2.13016   2.13719   2.13758   2.14100
 Alpha virt. eigenvalues --    2.14578   2.15349   2.15514   2.15906   2.16231
 Alpha virt. eigenvalues --    2.16522   2.16712   2.16750   2.17292   2.17425
 Alpha virt. eigenvalues --    2.17686   2.17853   2.18006   2.18073   2.18220
 Alpha virt. eigenvalues --    2.18371   2.18780   2.18860   2.19351   2.19633
 Alpha virt. eigenvalues --    2.19927   2.20033   2.20191   2.20386   2.20538
 Alpha virt. eigenvalues --    2.21135   2.21498   2.21686   2.21731   2.21895
 Alpha virt. eigenvalues --    2.21998   2.22663   2.22858   2.23292   2.23541
 Alpha virt. eigenvalues --    2.24397   2.24597   2.24915   2.25178   2.26284
 Alpha virt. eigenvalues --    2.26550   2.26771   2.27091   2.27132   2.27321
 Alpha virt. eigenvalues --    2.28123   2.28411   2.29255   2.29564   2.29723
 Alpha virt. eigenvalues --    2.29990   2.30437   2.30723   2.30912   2.31060
 Alpha virt. eigenvalues --    2.31171   2.31360   2.32132   2.32375   2.33120
 Alpha virt. eigenvalues --    2.33335   2.33431   2.33629   2.34089   2.34329
 Alpha virt. eigenvalues --    2.35363   2.35421   2.35785   2.36007   2.36368
 Alpha virt. eigenvalues --    2.36445   2.36600   2.36629   2.37674   2.37823
 Alpha virt. eigenvalues --    2.38280   2.38482   2.38846   2.38866   2.39601
 Alpha virt. eigenvalues --    2.39781   2.40094   2.40465   2.40536   2.40924
 Alpha virt. eigenvalues --    2.41256   2.41311   2.41610   2.41960   2.42027
 Alpha virt. eigenvalues --    2.42237   2.42898   2.42997   2.43141   2.43542
 Alpha virt. eigenvalues --    2.44065   2.44183   2.44725   2.44876   2.44928
 Alpha virt. eigenvalues --    2.45116   2.45556   2.45704   2.46321   2.46376
 Alpha virt. eigenvalues --    2.46463   2.46613   2.46803   2.46911   2.47228
 Alpha virt. eigenvalues --    2.47514   2.47715   2.48003   2.49293   2.49522
 Alpha virt. eigenvalues --    2.50001   2.50113   2.50515   2.50595   2.51102
 Alpha virt. eigenvalues --    2.51376   2.51703   2.51892   2.52423   2.52485
 Alpha virt. eigenvalues --    2.52790   2.53259   2.53897   2.54078   2.54183
 Alpha virt. eigenvalues --    2.54373   2.54790   2.54966   2.55528   2.55794
 Alpha virt. eigenvalues --    2.57861   2.58200   2.58614   2.59055   2.60191
 Alpha virt. eigenvalues --    2.60390   2.60598   2.61011   2.61698   2.61925
 Alpha virt. eigenvalues --    2.62508   2.62546   2.62931   2.63253   2.63918
 Alpha virt. eigenvalues --    2.64180   2.64308   2.64603   2.65041   2.65273
 Alpha virt. eigenvalues --    2.65774   2.65944   2.66737   2.66877   2.66925
 Alpha virt. eigenvalues --    2.67153   2.67872   2.68095   2.68834   2.68908
 Alpha virt. eigenvalues --    2.69005   2.69114   2.69346   2.69699   2.69952
 Alpha virt. eigenvalues --    2.70259   2.70943   2.71151   2.71988   2.72039
 Alpha virt. eigenvalues --    2.72581   2.72639   2.72818   2.72823   2.73219
 Alpha virt. eigenvalues --    2.73405   2.73521   2.73549   2.74494   2.74623
 Alpha virt. eigenvalues --    2.74967   2.75174   2.76555   2.76640   2.77168
 Alpha virt. eigenvalues --    2.77210   2.77455   2.77685   2.78225   2.78370
 Alpha virt. eigenvalues --    2.78701   2.78820   2.79116   2.79244   2.80327
 Alpha virt. eigenvalues --    2.80356   2.80577   2.80773   2.81102   2.81249
 Alpha virt. eigenvalues --    2.81916   2.82074   2.82299   2.82471   2.83737
 Alpha virt. eigenvalues --    2.83780   2.83932   2.83998   2.84525   2.84639
 Alpha virt. eigenvalues --    2.84837   2.85037   2.85665   2.85776   2.86791
 Alpha virt. eigenvalues --    2.86963   2.87258   2.87589   2.88183   2.88308
 Alpha virt. eigenvalues --    2.88462   2.88762   2.88910   2.88976   2.90452
 Alpha virt. eigenvalues --    2.90758   2.91142   2.91216   2.93133   2.93404
 Alpha virt. eigenvalues --    2.93863   2.94191   2.94576   2.94666   2.95350
 Alpha virt. eigenvalues --    2.95535   2.95895   2.96192   2.96364   2.96531
 Alpha virt. eigenvalues --    2.96956   2.97185   2.97804   2.98114   2.98227
 Alpha virt. eigenvalues --    2.98338   2.98428   2.98581   2.98671   2.98872
 Alpha virt. eigenvalues --    2.98915   2.99079   2.99596   2.99911   3.00046
 Alpha virt. eigenvalues --    3.00089   3.00236   3.00431   3.00457   3.01066
 Alpha virt. eigenvalues --    3.01891   3.02027   3.02053   3.02182   3.02746
 Alpha virt. eigenvalues --    3.02871   3.02955   3.03335   3.03377   3.03785
 Alpha virt. eigenvalues --    3.04090   3.04157   3.04432   3.04442   3.04654
 Alpha virt. eigenvalues --    3.04872   3.05283   3.05447   3.06103   3.06284
 Alpha virt. eigenvalues --    3.06788   3.07031   3.08028   3.08141   3.09390
 Alpha virt. eigenvalues --    3.09528   3.09683   3.10441   3.10482   3.10815
 Alpha virt. eigenvalues --    3.11311   3.11624   3.11927   3.12051   3.12225
 Alpha virt. eigenvalues --    3.12421   3.13281   3.13595   3.13718   3.13846
 Alpha virt. eigenvalues --    3.14089   3.14534   3.15822   3.16405   3.17258
 Alpha virt. eigenvalues --    3.17638   3.17969   3.18120   3.19112   3.19147
 Alpha virt. eigenvalues --    3.22297   3.22664   3.23929   3.24529   3.24662
 Alpha virt. eigenvalues --    3.25281   3.26478   3.26752   3.27485   3.27598
 Alpha virt. eigenvalues --    3.29093   3.29284   3.31470   3.31507   3.33277
 Alpha virt. eigenvalues --    3.33395   3.40313   3.40629   3.42841   3.42886
 Alpha virt. eigenvalues --    3.48643   3.48791   3.49996   3.50373   3.50922
 Alpha virt. eigenvalues --    3.51462   3.56543   3.57094   3.59073   3.59439
 Alpha virt. eigenvalues --    3.62607   3.62829   3.66177   3.66238   3.67182
 Alpha virt. eigenvalues --    3.67601   3.73265   3.74092   3.76049   3.76757
          Condensed to atoms (all electrons):
 Mulliken charges:
               1
     1  Mg   0.835968
     2  C   -0.002803
     3  C   -0.093900
     4  C   -0.046082
     5  C   -0.064456
     6  N   -0.256663
     7  C   -0.052657
     8  C   -0.013931
     9  C   -0.087065
    10  C    0.046496
    11  C    0.104768
    12  C    0.053426
    13  C   -0.071782
    14  H    0.036091
    15  N   -0.433515
    16  C    0.168821
    17  C   -0.176786
    18  C   -0.003253
    19  C    0.149012
    20  C    0.110209
    21  C    0.013616
    22  O   -0.248976
    23  C    0.062029
    24  N   -0.340898
    25  C    0.041047
    26  C   -0.028409
    27  C   -0.023876
    28  C    0.074096
    29  C    0.076056
    30  C    0.035593
    31  C   -0.007687
    32  N   -0.310334
    33  C    0.079374
    34  C   -0.170443
    35  C    0.008424
    36  C    0.082308
    37  C    0.127418
    38  C    0.045957
    39  O   -0.188162
    40  C   -0.005293
    41  C    0.212990
    42  O   -0.257281
    43  O   -0.304771
    44  C    0.157545
    45  H   -0.017372
    46  H   -0.016477
    47  H   -0.042006
    48  H    0.001067
    49  H   -0.003975
    50  H    0.025614
    51  H    0.016515
    52  H    0.016790
    53  H    0.011174
    54  H    0.044131
    55  H    0.017996
    56  H    0.017842
    57  H    0.005672
    58  H    0.027066
    59  H    0.040277
    60  H    0.036619
    61  H    0.037025
    62  H    0.032832
    63  H    0.016480
    64  H    0.009916
    65  H    0.023668
    66  H    0.012923
    67  H    0.004901
    68  H    0.007047
    69  H    0.004709
    70  H    0.009462
    71  H    0.017928
    72  H    0.028008
    73  H    0.047367
    74  H    0.008617
    75  H    0.046322
    76  H    0.035339
    77  H    0.043245
    78  H    0.046293
    79  H    0.053937
    80  Mg   0.838077
    81  C   -0.016962
    82  C   -0.088200
    83  C   -0.046023
    84  C   -0.062722
    85  N   -0.254520
    86  C   -0.049561
    87  C   -0.015129
    88  C   -0.090531
    89  C    0.045791
    90  C    0.114528
    91  C    0.062623
    92  C   -0.077647
    93  H    0.034531
    94  N   -0.423294
    95  C    0.162735
    96  C   -0.175458
    97  C   -0.008273
    98  C    0.151928
    99  C    0.099768
   100  C    0.014826
   101  O   -0.253013
   102  C    0.061314
   103  N   -0.349834
   104  C    0.037382
   105  C   -0.020532
   106  C   -0.035499
   107  C    0.089051
   108  C    0.071503
   109  C    0.032587
   110  C   -0.007588
   111  N   -0.324351
   112  C    0.078494
   113  C   -0.161945
   114  C    0.002423
   115  C    0.096498
   116  C    0.131609
   117  C    0.042841
   118  O   -0.187645
   119  C    0.000771
   120  C    0.211157
   121  O   -0.251243
   122  O   -0.305576
   123  C    0.152142
   124  H   -0.020545
   125  H   -0.015414
   126  H   -0.039304
   127  H   -0.000740
   128  H   -0.004854
   129  H    0.022812
   130  H    0.014444
   131  H    0.015446
   132  H    0.013800
   133  H    0.037656
   134  H    0.020658
   135  H    0.019294
   136  H    0.008324
   137  H    0.024923
   138  H    0.039305
   139  H    0.037344
   140  H    0.036080
   141  H    0.033840
   142  H    0.014487
   143  H    0.015100
   144  H    0.028850
   145  H    0.010952
   146  H    0.006177
   147  H    0.007749
   148  H    0.003471
   149  H    0.010797
   150  H    0.017149
   151  H    0.030171
   152  H    0.045372
   153  H    0.008655
   154  H    0.050025
   155  H    0.035324
   156  H    0.043787
   157  H    0.049228
   158  H    0.053424
 Sum of Mulliken charges =  -0.00000
 Mulliken charges with hydrogens summed into heavy atoms:
               1
     1  Mg   0.835968
     2  C   -0.002803
     3  C   -0.111272
     4  C   -0.062559
     5  C   -0.106461
     6  N   -0.256663
     7  C   -0.052657
     8  C   -0.012864
     9  C   -0.091041
    10  C    0.046496
    11  C    0.163688
    12  C    0.108732
    13  C    0.000148
    15  N   -0.433515
    16  C    0.168821
    17  C   -0.176786
    18  C   -0.003253
    19  C    0.149012
    20  C    0.183225
    21  C    0.013616
    22  O   -0.248976
    23  C    0.168506
    24  N   -0.340898
    25  C    0.041047
    26  C   -0.011929
    27  C   -0.013959
    28  C    0.074096
    29  C    0.117548
    30  C    0.047348
    31  C    0.047711
    32  N   -0.310334
    33  C    0.079374
    34  C   -0.170443
    35  C    0.008424
    36  C    0.082308
    37  C    0.229723
    38  C    0.045957
    39  O   -0.188162
    40  C    0.030047
    41  C    0.212990
    42  O   -0.257281
    43  O   -0.304771
    44  C    0.301020
    80  Mg   0.838077
    81  C   -0.016962
    82  C   -0.108745
    83  C   -0.061437
    84  C   -0.102026
    85  N   -0.254520
    86  C   -0.049561
    87  C   -0.015869
    88  C   -0.095385
    89  C    0.045791
    90  C    0.167229
    91  C    0.114079
    92  C   -0.003163
    94  N   -0.423294
    95  C    0.162735
    96  C   -0.175458
    97  C   -0.008273
    98  C    0.151928
    99  C    0.172320
   100  C    0.014826
   101  O   -0.253013
   102  C    0.168578
   103  N   -0.349834
   104  C    0.037382
   105  C   -0.006044
   106  C   -0.020399
   107  C    0.089051
   108  C    0.117482
   109  C    0.043807
   110  C    0.050529
   111  N   -0.324351
   112  C    0.078494
   113  C   -0.161945
   114  C    0.002423
   115  C    0.096498
   116  C    0.235662
   117  C    0.042841
   118  O   -0.187645
   119  C    0.036095
   120  C    0.211157
   121  O   -0.251243
   122  O   -0.305576
   123  C    0.298582
 Electronic spatial extent (au):  <R**2>=         121050.3634
 Charge=             -0.0000 electrons
 Dipole moment (field-independent basis, Debye):
    X=              2.3190    Y=              4.0901    Z=             -7.3988  Tot=              8.7663
 Quadrupole moment (field-independent basis, Debye-Ang):
   XX=           -481.3976   YY=           -560.0090   ZZ=           -453.5343
   XY=            -19.1273   XZ=             28.3049   YZ=              3.0466
 Traceless Quadrupole moment (field-independent basis, Debye-Ang):
   XX=             16.9160   YY=            -61.6954   ZZ=             44.7793
   XY=            -19.1273   XZ=             28.3049   YZ=              3.0466
 Octapole moment (field-independent basis, Debye-Ang**2):
  XXX=           -135.2272  YYY=             42.5055  ZZZ=            -21.7211  XYY=           -171.0088
  XXY=            137.7866  XXZ=           -497.1896  XZZ=            211.8218  YZZ=             31.4680
  YYZ=           -298.3516  XYZ=            -19.5307
 Hexadecapole moment (field-independent basis, Debye-Ang**3):
 XXXX=        -102906.1688 YYYY=         -37101.7229 ZZZZ=         -20650.2446 XXXY=            189.4312
 XXXZ=           2338.4229 YYYX=           -534.5850 YYYZ=            232.8055 ZZZX=            128.3228
 ZZZY=             57.1439 XXYY=         -24629.1020 XXZZ=         -20294.4716 YYZZ=          -8746.4955
 XXYZ=            267.3046 YYXZ=           -107.6470 ZZXY=           -234.7221
 N-N= 1.498227998603D+04 E-N=-3.944570113255D+04  KE= 4.028798184803D+03
 Leave Link  601 at Sat Sep 11 00:14:59 2021, MaxMem= 23488102400 cpu:              17.4 elap:               0.9
 (Enter /sw/apps/gaussian-16.0/g16/l9999.exe)
 1\1\GINC-BP1-COMPUTE00089\SP\RCAM-B3LYP TD-FC\def2SVP\C68H72Mg2N8O8\OF
 15641\11-Sep-2021\0\\#p cam-b3lyp/Def2SVP td=(nstates=5)\\TDDFT excite
 d states in gaussian\\0,1\Mg,0,0.,0.,0.\C,0,-0.217,-2.218,2.801\C,0,-1
 .255,2.442,2.026\C,0,-0.245,1.85,-2.564\C,0,0.146,-2.824,-2.037\N,0,-0
 .617,-0.009,2.126\C,0,-0.594,-0.908,3.105\C,0,-0.936,-0.309,4.502\C,0,
 -1.773,0.964,4.032\C,0,-1.155,1.168,2.66\C,0,-3.263,0.685,3.863\C,0,0.
 345,0.11,5.299\C,0,0.124,0.397,6.787\H,0,1.168,0.033,7.733\N,0,-0.185,
 1.961,-0.152\C,0,-0.703,2.8,0.777\C,0,-0.62,4.156,0.193\C,0,-0.187,4.0
 15,-1.225\C,0,-0.214,2.583,-1.38\C,0,-0.887,5.406,0.974\C,0,0.181,5.01
 3,-2.277\O,0,0.303,4.69,-3.508\C,0,0.31,6.414,-1.837\N,0,-0.265,-0.413
 ,-2.029\C,0,-0.279,0.569,-2.937\C,0,-0.196,0.024,-4.332\C,0,0.124,-1.5
 33,-4.18\C,0,0.086,-1.632,-2.635\C,0,-1.451,0.205,-5.197\C,0,1.373,-2.
 07,-4.923\C,0,2.626,-1.49,-4.306\N,0,0.15,-2.144,0.303\C,0,0.173,-3.13
 6,-0.688\C,0,0.173,-4.438,0.004\C,0,0.133,-4.111,1.358\C,0,0.083,-2.69
 5,1.502\C,0,0.149,-5.715,-0.623\C,0,0.096,-4.629,2.716\O,0,0.208,-5.74
 7,3.221\C,0,-0.255,-3.428,3.701\C,0,0.717,-3.482,4.848\O,0,1.931,-3.25
 5,4.669\O,0,0.038,-3.556,6.003\C,0,0.943,-3.583,7.183\H,0,-1.859,3.22,
 2.497\H,0,-0.218,2.453,-3.474\H,0,0.276,-3.747,-2.605\H,0,-1.554,-0.94
 9,5.132\H,0,-1.585,1.831,4.665\H,0,-3.484,-0.377,3.969\H,0,-3.511,1.02
 7,2.858\H,0,-3.852,1.301,4.543\H,0,0.669,1.096,4.966\H,0,1.13,-0.639,5
 .189\H,0,-0.844,0.026,7.125\H,0,0.062,1.477,6.921\H,0,-1.344,5.186,1.9
 38\H,0,-1.651,5.963,0.432\H,0,0.007,6.02,1.084\H,0,-0.635,6.744,-1.405
 \H,0,0.665,6.97,-2.704\H,0,1.048,6.466,-1.036\H,0,0.608,0.501,-4.891\H
 ,0,-0.692,-2.156,-4.547\H,0,-1.267,0.74,-6.129\H,0,-2.204,0.714,-4.596
 \H,0,-1.967,-0.72,-5.453\H,0,1.356,-1.759,-5.967\H,0,1.452,-3.157,-4.9
 02\H,0,2.714,-0.522,-4.798\H,0,3.487,-2.121,-4.529\H,0,2.495,-1.303,-3
 .24\H,0,0.867,-6.333,-0.084\H,0,0.404,-5.642,-1.68\H,0,-0.891,-5.999,-
 0.463\H,0,-1.283,-3.581,4.028\H,0,0.698,-4.478,7.755\H,0,0.833,-2.619,
 7.68\H,0,2.,-3.754,6.976\Mg,0,10.52049,0.95057,0.7975\C,0,12.426,-1.16
 816,2.97903\C,0,11.42329,3.5653,2.79318\C,0,8.49405,2.76666,-0.8343\C,
 0,8.8743,-1.91188,-0.31702\N,0,11.76751,1.05835,2.62112\C,0,12.49021,0
 .19828,3.32278\C,0,13.39155,0.849,4.40616\C,0,12.56473,2.20866,4.62194
 \C,0,11.90034,2.31096,3.25052\C,0,11.47403,2.08934,5.67335\C,0,14.8426
 8,1.13606,3.88287\C,0,15.86162,1.48307,4.97057\H,0,17.23825,1.02432,4.
 80655\N,0,10.40375,2.92573,0.64354\C,0,10.84121,3.83875,1.5359\C,0,10.
 50156,5.1522,0.967\C,0,9.68113,4.93585,-0.25563\C,0,9.47243,3.50363,-0
 .18301\C,0,11.01511,6.44287,1.53607\C,0,9.1587,5.86612,-1.30818\O,0,8.
 26751,5.49599,-2.15175\C,0,9.65248,7.2502,-1.26347\N,0,8.77339,0.52638
 ,-0.24655\C,0,8.11352,1.49126,-0.911\C,0,7.04973,0.90571,-1.80871\C,0,
 7.29506,-0.67451,-1.79138\C,0,8.4532,-0.73963,-0.77164\C,0,5.60456,1.2
 0053,-1.40752\C,0,7.48065,-1.37302,-3.16627\C,0,8.77587,-0.9232,-3.803
 03\N,0,10.73234,-1.1794,1.09145\C,0,9.92005,-2.20006,0.55059\C,0,10.38
 523,-3.47816,1.1272\C,0,11.42919,-3.10699,1.98795\C,0,11.5891,-1.6951,
 1.96578\C,0,9.82183,-4.76009,0.87155\C,0,12.42526,-3.58752,2.91834\O,0
 ,12.81839,-4.69801,3.27329\C,0,13.0316,-2.34188,3.69752\C,0,14.53006,-
 2.47235,3.68753\O,0,15.16358,-2.40129,2.61972\O,0,14.98353,-2.44127,4.
 95393\C,0,16.46571,-2.55632,4.99544\H,0,11.45872,4.41431,3.47641\H,0,7
 .83862,3.33558,-1.4978\H,0,8.47711,-2.85893,-0.6885\H,0,13.45178,0.298
 68,5.33745\H,0,13.22901,3.05281,4.78774\H,0,11.35696,1.07295,6.01887\H
 ,0,10.56605,2.43351,5.19568\H,0,11.6648,2.78552,6.4951\H,0,14.84046,2.
 07834,3.31999\H,0,15.20572,0.31448,3.2965\H,0,15.49234,1.23941,5.97416
 \H,0,15.99327,2.56766,4.98943\H,0,11.45665,6.29695,2.52963\H,0,10.1438
 5,7.08159,1.71717\H,0,11.69767,6.96001,0.85832\H,0,9.40878,7.6896,-0.2
 9911\H,0,9.23581,7.7378,-2.14694\H,0,10.74577,7.23408,-1.33472\H,0,7.1
 5854,1.26712,-2.82392\H,0,6.44873,-1.21332,-1.34055\H,0,5.02304,1.6991
 9,-2.2058\H,0,5.61595,1.80571,-0.51076\H,0,5.02632,0.33319,-1.09359\H,
 0,6.68043,-1.08073,-3.85064\H,0,7.47246,-2.45615,-3.10506\H,0,8.5012,0
 .02272,-4.27936\H,0,9.11476,-1.65113,-4.5374\H,0,9.53253,-0.7013,-3.04
 154\H,0,10.65009,-5.44159,0.73002\H,0,9.1686,-4.74098,0.00166\H,0,9.26
 533,-4.91712,1.79941\H,0,12.62587,-2.35955,4.70977\H,0,16.70218,-3.406
 22,5.64309\H,0,16.83367,-1.56281,5.3137\H,0,16.97219,-2.84034,4.08042\
 \Version=ES64L-G16RevA.03\State=1-A\HF=-4069.8118243\RMSD=5.141e-09\PG
 =C01 [X(C68H72Mg2N8O8)]\\@


 KNIGHT- SIRE, I'VE JUST RETURNED FROM THE FRONT
 KING-   HOW GOES THE BATTLE                    
 KNIGHT- THE SITUATION IS QUITE FLUID           
 KING-   WHAT DOES *THAT* MEAN                  
 KNIGHT- WE'RE UP THE CREEK                     
                THE WIZARD OF ID                
 Job cpu time:       0 days 13 hours 39 minutes  6.4 seconds.
 Elapsed time:       0 days  0 hours 34 minutes 45.6 seconds.
 File lengths (MBytes):  RWF=  13225 Int=      0 D2E=      0 Chk=    574 Scr=      1
 Normal termination of Gaussian 16 at Sat Sep 11 00:15:00 2021.
