 Entering Gaussian System, Link 0=g16
 Initial command:
 /sw/apps/gaussian-16.0/g16/l1.exe "/tmp/Gau-48492.inp" -scrdir="/tmp/"
 Entering Link 1 = /sw/apps/gaussian-16.0/g16/l1.exe PID=     48493.
  
 Copyright (c) 1988,1990,1992,1993,1995,1998,2003,2009,2016,
            Gaussian, Inc.  All Rights Reserved.
  
 This is part of the Gaussian(R) 16 program.  It is based on
 the Gaussian(R) 09 system (copyright 2009, Gaussian, Inc.),
 the Gaussian(R) 03 system (copyright 2003, Gaussian, Inc.),
 the Gaussian(R) 98 system (copyright 1998, Gaussian, Inc.),
 the Gaussian(R) 94 system (copyright 1995, Gaussian, Inc.),
 the Gaussian 92(TM) system (copyright 1992, Gaussian, Inc.),
 the Gaussian 90(TM) system (copyright 1990, Gaussian, Inc.),
 the Gaussian 88(TM) system (copyright 1988, Gaussian, Inc.),
 the Gaussian 86(TM) system (copyright 1986, Carnegie Mellon
 University), and the Gaussian 82(TM) system (copyright 1983,
 Carnegie Mellon University). Gaussian is a federally registered
 trademark of Gaussian, Inc.
  
 This software contains proprietary and confidential information,
 including trade secrets, belonging to Gaussian, Inc.
  
 This software is provided under written license and may be
 used, copied, transmitted, or stored only in accord with that
 written license.
  
 The following legend is applicable only to US Government
 contracts under FAR:
  
                    RESTRICTED RIGHTS LEGEND
  
 Use, reproduction and disclosure by the US Government is
 subject to restrictions as set forth in subparagraphs (a)
 and (c) of the Commercial Computer Software - Restricted
 Rights clause in FAR 52.227-19.
  
 Gaussian, Inc.
 340 Quinnipiac St., Bldg. 40, Wallingford CT 06492
  
  
 ---------------------------------------------------------------
 Warning -- This program may not be used in any manner that
 competes with the business of Gaussian, Inc. or will provide
 assistance to any competitor of Gaussian, Inc.  The licensee
 of this program is prohibited from giving any competitor of
 Gaussian, Inc. access to this program.  By using this program,
 the user acknowledges that Gaussian, Inc. is engaged in the
 business of creating and licensing software in the field of
 computational chemistry and represents and warrants to the
 licensee that it is not a competitor of Gaussian, Inc. and that
 it will not use this program in any manner prohibited above.
 ---------------------------------------------------------------
  

 Cite this work as:
 Gaussian 16, Revision A.03,
 M. J. Frisch, G. W. Trucks, H. B. Schlegel, G. E. Scuseria, 
 M. A. Robb, J. R. Cheeseman, G. Scalmani, V. Barone, 
 G. A. Petersson, H. Nakatsuji, X. Li, M. Caricato, A. V. Marenich, 
 J. Bloino, B. G. Janesko, R. Gomperts, B. Mennucci, H. P. Hratchian, 
 J. V. Ortiz, A. F. Izmaylov, J. L. Sonnenberg, D. Williams-Young, 
 F. Ding, F. Lipparini, F. Egidi, J. Goings, B. Peng, A. Petrone, 
 T. Henderson, D. Ranasinghe, V. G. Zakrzewski, J. Gao, N. Rega, 
 G. Zheng, W. Liang, M. Hada, M. Ehara, K. Toyota, R. Fukuda, 
 J. Hasegawa, M. Ishida, T. Nakajima, Y. Honda, O. Kitao, H. Nakai, 
 T. Vreven, K. Throssell, J. A. Montgomery, Jr., J. E. Peralta, 
 F. Ogliaro, M. J. Bearpark, J. J. Heyd, E. N. Brothers, K. N. Kudin, 
 V. N. Staroverov, T. A. Keith, R. Kobayashi, J. Normand, 
 K. Raghavachari, A. P. Rendell, J. C. Burant, S. S. Iyengar, 
 J. Tomasi, M. Cossi, J. M. Millam, M. Klene, C. Adamo, R. Cammi, 
 J. W. Ochterski, R. L. Martin, K. Morokuma, O. Farkas, 
 J. B. Foresman, and D. J. Fox, Gaussian, Inc., Wallingford CT, 2016.
 
 ******************************************
 Gaussian 16:  ES64L-G16RevA.03 25-Dec-2016
                10-Sep-2021 
 ******************************************
 %nproc=24
 Will use up to   24 processors via shared memory.
 %mem=175gb
 -----------------------------------
 #p cam-b3lyp/Def2SVP td=(nstates=5)
 -----------------------------------
 1/38=1,172=1/1;
 2/12=2,17=6,18=5,40=1/2;
 3/5=43,7=101,11=9,25=1,30=1,74=-40/1,2,3,8;
 4//1;
 5/5=2,38=5/2;
 8/6=1,10=1,108=5/1;
 9/41=5,42=1,70=2/14;
 6/7=2,8=2,9=2,10=2/1;
 99/5=1,9=1/99;
 Leave Link    1 at Fri Sep 10 11:52:21 2021, MaxMem= 23488102400 cpu:               0.5 elap:               0.0
 (Enter /sw/apps/gaussian-16.0/g16/l101.exe)
 --------------------------------
 TDDFT excited states in gaussian
 --------------------------------
 Symbolic Z-matrix:
 Charge =  0 Multiplicity = 1
 Mg                    0.        0.        0. 
 C                    -0.217    -2.218     2.801 
 C                    -1.255     2.442     2.026 
 C                    -0.245     1.85     -2.564 
 C                     0.146    -2.824    -2.037 
 N                    -0.617    -0.009     2.126 
 C                    -0.594    -0.908     3.105 
 C                    -0.936    -0.309     4.502 
 C                    -1.773     0.964     4.032 
 C                    -1.155     1.168     2.66 
 C                    -3.263     0.685     3.863 
 C                     0.345     0.11      5.299 
 C                     0.124     0.397     6.787 
 H                     1.168     0.033     7.733 
 N                    -0.185     1.961    -0.152 
 C                    -0.703     2.8       0.777 
 C                    -0.62      4.156     0.193 
 C                    -0.187     4.015    -1.225 
 C                    -0.214     2.583    -1.38 
 C                    -0.887     5.406     0.974 
 C                     0.181     5.013    -2.277 
 O                     0.303     4.69     -3.508 
 C                     0.31      6.414    -1.837 
 N                    -0.265    -0.413    -2.029 
 C                    -0.279     0.569    -2.937 
 C                    -0.196     0.024    -4.332 
 C                     0.124    -1.533    -4.18 
 C                     0.086    -1.632    -2.635 
 C                    -1.451     0.205    -5.197 
 C                     1.373    -2.07     -4.923 
 C                     2.626    -1.49     -4.306 
 N                     0.15     -2.144     0.303 
 C                     0.173    -3.136    -0.688 
 C                     0.173    -4.438     0.004 
 C                     0.133    -4.111     1.358 
 C                     0.083    -2.695     1.502 
 C                     0.149    -5.715    -0.623 
 C                     0.096    -4.629     2.716 
 O                     0.208    -5.747     3.221 
 C                    -0.255    -3.428     3.701 
 C                     0.717    -3.482     4.848 
 O                     1.931    -3.255     4.669 
 O                     0.038    -3.556     6.003 
 C                     0.943    -3.583     7.183 
 H                    -1.859     3.22      2.497 
 H                    -0.218     2.453    -3.474 
 H                     0.276    -3.747    -2.605 
 H                    -1.554    -0.949     5.132 
 H                    -1.585     1.831     4.665 
 H                    -3.484    -0.377     3.969 
 H                    -3.511     1.027     2.858 
 H                    -3.852     1.301     4.543 
 H                     0.669     1.096     4.966 
 H                     1.13     -0.639     5.189 
 H                    -0.844     0.026     7.125 
 H                     0.062     1.477     6.921 
 H                    -1.344     5.186     1.938 
 H                    -1.651     5.963     0.432 
 H                     0.007     6.02      1.084 
 H                    -0.635     6.744    -1.405 
 H                     0.665     6.97     -2.704 
 H                     1.048     6.466    -1.036 
 H                     0.608     0.501    -4.891 
 H                    -0.692    -2.156    -4.547 
 H                    -1.267     0.74     -6.129 
 H                    -2.204     0.714    -4.596 
 H                    -1.967    -0.72     -5.453 
 H                     1.356    -1.759    -5.967 
 H                     1.452    -3.157    -4.902 
 H                     2.714    -0.522    -4.798 
 H                     3.487    -2.121    -4.529 
 H                     2.495    -1.303    -3.24 
 H                     0.867    -6.333    -0.084 
 H                     0.404    -5.642    -1.68 
 H                    -0.891    -5.999    -0.463 
 H                    -1.283    -3.581     4.028 
 H                     0.698    -4.478     7.755 
 H                     0.833    -2.619     7.68 
 H                     2.       -3.754     6.976 
 Mg                    10.50247   0.94478   0.80476 
 C                     10.98533   3.57166   3.20172 
 C                     10.69447  -1.25749   3.4024 
 C                     10.53074  -1.409    -1.32277 
 C                     11.4809   3.20439  -1.66153 
 N                     10.80238   1.24042   2.97614 
 C                     10.91214   2.2873    3.78009 
 C                     10.86457   1.94408   5.29319 
 C                     11.34881   0.41529   5.20832 
 C                     10.89196   0.09273   3.78708 
 C                     12.85895   0.25793   5.27189 
 C                     9.41615   2.05575   5.88618 
 C                     9.34379   2.03692   7.41463 
 H                     8.32905   2.8546    8.07353 
 N                     10.11284  -0.98884   1.02354 
 C                     10.22246  -1.71823   2.15369 
 C                     9.84042  -3.09036   1.78562 
 C                     9.65515  -3.14586   0.31005 
 C                     10.12287  -1.82628  -0.06417 
 C                     9.60839  -4.17072   2.80169 
 C                     9.15361  -4.21484  -0.61297 
 O                     9.30139  -4.13124  -1.8834 
 C                     8.56802  -5.40567   0.01987 
 N                     11.14282   0.83698  -1.17025 
 C                     10.993   -0.29204  -1.88494 
 C                     11.26934  -0.05104  -3.34985 
 C                     11.40096   1.53501  -3.50696 
 C                     11.26036   1.94859  -2.02555 
 C                     12.52264  -0.72341  -3.90979 
 C                     10.48008   2.2172   -4.55543 
 C                     9.03758   2.126    -4.1124 
 N                     10.9462   3.05754   0.71862 
 C                     11.3615   3.79655  -0.41074 
 C                     11.65166   5.16979   0.05019 
 C                     11.40516   5.12808   1.43076 
 C                     11.0101   3.81596   1.80728 
 C                     12.1273   6.23706  -0.76272 
 C                     11.39958   5.89301   2.65696 
 O                     11.5621   7.07883   2.94182 
 C                     11.24954   4.88776   3.87899 
 C                     10.18831   5.42848   4.79764 
 O                     9.0055    5.50487   4.42116 
 O                     10.70185   5.56137   6.03416 
 C                     9.68385   6.08427   6.98393 
 H                     10.96593  -2.04305   4.10816 
 H                     10.45269  -2.15652  -2.11561 
 H                     11.6966   3.99282  -2.38576 
 H                     11.5466   2.51641   5.91048 
 H                     10.8227  -0.20622   5.92825 
 H                     13.36489   1.21157   5.24467 
 H                     13.1291  -0.33841   4.41023 
 H                     13.13976  -0.33373   6.14791 
 H                     8.86483   1.13384   5.66061 
 H                     8.9173    2.92834   5.51153 
 H                     10.32585   2.19771   7.87579 
 H                     9.05795   1.03246   7.73615 
 H                     9.9815   -3.87913   3.79122 
 H                     10.23684  -5.02053   2.51403 
 H                     8.56706  -4.49773   2.83849 
 H                     9.30518  -5.86712   0.67265 
 H                     8.18639  -6.01527  -0.80148 
 H                     7.73617  -5.08895   0.65888 
 H                     10.44499  -0.39751  -3.961 
 H                     12.41272   1.83077  -3.82113 
 H                     12.31454  -1.38688  -4.77036 
 H                     12.99983  -1.27525  -3.11086 
 H                     13.3116  -0.04177  -4.22304 
 H                     10.5443   1.69454  -5.51296 
 H                     10.73024   3.25684  -4.7386 
 H                     8.73958   1.12755  -4.44612 
 H                     8.43968   2.89765  -4.59314 
 H                     8.95969   2.14505  -3.01913 
 H                     11.56428   7.11717  -0.4818 
 H                     12.01305   6.01212  -1.82107 
 H                     13.17731   6.26052  -0.45907 
 H                     12.22119   4.82168   4.37003 
 H                     10.10576   6.98492   7.44056 
 H                     9.44492   5.24157   7.65958 
 H                     8.76125   6.47085   6.56702 
 
 ITRead=  0  0  0  0  0  0  0  0  0  0  0  0  0  0  0  0  0  0  0  0
 ITRead=  0  0  0  0  0  0  0  0  0  0  0  0  0  0  0  0  0  0  0  0
 ITRead=  0  0  0  0  0  0  0  0  0  0  0  0  0  0  0  0  0  0  0  0
 ITRead=  0  0  0  0  0  0  0  0  0  0  0  0  0  0  0  0  0  0  0  0
 ITRead=  0  0  0  0  0  0  0  0  0  0  0  0  0  0  0  0  0  0  0  0
 ITRead=  0  0  0  0  0  0  0  0  0  0  0  0  0  0  0  0  0  0  0  0
 ITRead=  0  0  0  0  0  0  0  0  0  0  0  0  0  0  0  0  0  0  0  0
 ITRead=  0  0  0  0  0  0  0  0  0  0  0  0  0  0  0  0  0  0
 MicOpt= -1 -1 -1 -1 -1 -1 -1 -1 -1 -1 -1 -1 -1 -1 -1 -1 -1 -1 -1 -1
 MicOpt= -1 -1 -1 -1 -1 -1 -1 -1 -1 -1 -1 -1 -1 -1 -1 -1 -1 -1 -1 -1
 MicOpt= -1 -1 -1 -1 -1 -1 -1 -1 -1 -1 -1 -1 -1 -1 -1 -1 -1 -1 -1 -1
 MicOpt= -1 -1 -1 -1 -1 -1 -1 -1 -1 -1 -1 -1 -1 -1 -1 -1 -1 -1 -1 -1
 MicOpt= -1 -1 -1 -1 -1 -1 -1 -1 -1 -1 -1 -1 -1 -1 -1 -1 -1 -1 -1 -1
 MicOpt= -1 -1 -1 -1 -1 -1 -1 -1 -1 -1 -1 -1 -1 -1 -1 -1 -1 -1 -1 -1
 MicOpt= -1 -1 -1 -1 -1 -1 -1 -1 -1 -1 -1 -1 -1 -1 -1 -1 -1 -1 -1 -1
 MicOpt= -1 -1 -1 -1 -1 -1 -1 -1 -1 -1 -1 -1 -1 -1 -1 -1 -1 -1
 NAtoms=    158 NQM=      158 NQMF=       0 NMMI=      0 NMMIF=      0
                NMic=       0 NMicF=      0.
                    Isotopes and Nuclear Properties:
 (Nuclear quadrupole moments (NQMom) in fm**2, nuclear magnetic moments (NMagM)
  in nuclear magnetons)

  Atom         1           2           3           4           5           6           7           8           9          10
 IAtWgt=          24          12          12          12          12          14          12          12          12          12
 AtmWgt=  23.9850450  12.0000000  12.0000000  12.0000000  12.0000000  14.0030740  12.0000000  12.0000000  12.0000000  12.0000000
 NucSpn=           0           0           0           0           0           2           0           0           0           0
 AtZEff=  -0.0000000  -0.0000000  -0.0000000  -0.0000000  -0.0000000  -0.0000000  -0.0000000  -0.0000000  -0.0000000  -0.0000000
 NQMom=    0.0000000   0.0000000   0.0000000   0.0000000   0.0000000   2.0440000   0.0000000   0.0000000   0.0000000   0.0000000
 NMagM=    0.0000000   0.0000000   0.0000000   0.0000000   0.0000000   0.4037610   0.0000000   0.0000000   0.0000000   0.0000000
 AtZNuc=  12.0000000   6.0000000   6.0000000   6.0000000   6.0000000   7.0000000   6.0000000   6.0000000   6.0000000   6.0000000

  Atom        11          12          13          14          15          16          17          18          19          20
 IAtWgt=          12          12          12           1          14          12          12          12          12          12
 AtmWgt=  12.0000000  12.0000000  12.0000000   1.0078250  14.0030740  12.0000000  12.0000000  12.0000000  12.0000000  12.0000000
 NucSpn=           0           0           0           1           2           0           0           0           0           0
 AtZEff=  -0.0000000  -0.0000000  -0.0000000  -0.0000000  -0.0000000  -0.0000000  -0.0000000  -0.0000000  -0.0000000  -0.0000000
 NQMom=    0.0000000   0.0000000   0.0000000   0.0000000   2.0440000   0.0000000   0.0000000   0.0000000   0.0000000   0.0000000
 NMagM=    0.0000000   0.0000000   0.0000000   2.7928460   0.4037610   0.0000000   0.0000000   0.0000000   0.0000000   0.0000000
 AtZNuc=   6.0000000   6.0000000   6.0000000   1.0000000   7.0000000   6.0000000   6.0000000   6.0000000   6.0000000   6.0000000

  Atom        21          22          23          24          25          26          27          28          29          30
 IAtWgt=          12          16          12          14          12          12          12          12          12          12
 AtmWgt=  12.0000000  15.9949146  12.0000000  14.0030740  12.0000000  12.0000000  12.0000000  12.0000000  12.0000000  12.0000000
 NucSpn=           0           0           0           2           0           0           0           0           0           0
 AtZEff=  -0.0000000  -0.0000000  -0.0000000  -0.0000000  -0.0000000  -0.0000000  -0.0000000  -0.0000000  -0.0000000  -0.0000000
 NQMom=    0.0000000   0.0000000   0.0000000   2.0440000   0.0000000   0.0000000   0.0000000   0.0000000   0.0000000   0.0000000
 NMagM=    0.0000000   0.0000000   0.0000000   0.4037610   0.0000000   0.0000000   0.0000000   0.0000000   0.0000000   0.0000000
 AtZNuc=   6.0000000   8.0000000   6.0000000   7.0000000   6.0000000   6.0000000   6.0000000   6.0000000   6.0000000   6.0000000

  Atom        31          32          33          34          35          36          37          38          39          40
 IAtWgt=          12          14          12          12          12          12          12          12          16          12
 AtmWgt=  12.0000000  14.0030740  12.0000000  12.0000000  12.0000000  12.0000000  12.0000000  12.0000000  15.9949146  12.0000000
 NucSpn=           0           2           0           0           0           0           0           0           0           0
 AtZEff=  -0.0000000  -0.0000000  -0.0000000  -0.0000000  -0.0000000  -0.0000000  -0.0000000  -0.0000000  -0.0000000  -0.0000000
 NQMom=    0.0000000   2.0440000   0.0000000   0.0000000   0.0000000   0.0000000   0.0000000   0.0000000   0.0000000   0.0000000
 NMagM=    0.0000000   0.4037610   0.0000000   0.0000000   0.0000000   0.0000000   0.0000000   0.0000000   0.0000000   0.0000000
 AtZNuc=   6.0000000   7.0000000   6.0000000   6.0000000   6.0000000   6.0000000   6.0000000   6.0000000   8.0000000   6.0000000

  Atom        41          42          43          44          45          46          47          48          49          50
 IAtWgt=          12          16          16          12           1           1           1           1           1           1
 AtmWgt=  12.0000000  15.9949146  15.9949146  12.0000000   1.0078250   1.0078250   1.0078250   1.0078250   1.0078250   1.0078250
 NucSpn=           0           0           0           0           1           1           1           1           1           1
 AtZEff=  -0.0000000  -0.0000000  -0.0000000  -0.0000000  -0.0000000  -0.0000000  -0.0000000  -0.0000000  -0.0000000  -0.0000000
 NQMom=    0.0000000   0.0000000   0.0000000   0.0000000   0.0000000   0.0000000   0.0000000   0.0000000   0.0000000   0.0000000
 NMagM=    0.0000000   0.0000000   0.0000000   0.0000000   2.7928460   2.7928460   2.7928460   2.7928460   2.7928460   2.7928460
 AtZNuc=   6.0000000   8.0000000   8.0000000   6.0000000   1.0000000   1.0000000   1.0000000   1.0000000   1.0000000   1.0000000

  Atom        51          52          53          54          55          56          57          58          59          60
 IAtWgt=           1           1           1           1           1           1           1           1           1           1
 AtmWgt=   1.0078250   1.0078250   1.0078250   1.0078250   1.0078250   1.0078250   1.0078250   1.0078250   1.0078250   1.0078250
 NucSpn=           1           1           1           1           1           1           1           1           1           1
 AtZEff=  -0.0000000  -0.0000000  -0.0000000  -0.0000000  -0.0000000  -0.0000000  -0.0000000  -0.0000000  -0.0000000  -0.0000000
 NQMom=    0.0000000   0.0000000   0.0000000   0.0000000   0.0000000   0.0000000   0.0000000   0.0000000   0.0000000   0.0000000
 NMagM=    2.7928460   2.7928460   2.7928460   2.7928460   2.7928460   2.7928460   2.7928460   2.7928460   2.7928460   2.7928460
 AtZNuc=   1.0000000   1.0000000   1.0000000   1.0000000   1.0000000   1.0000000   1.0000000   1.0000000   1.0000000   1.0000000

  Atom        61          62          63          64          65          66          67          68          69          70
 IAtWgt=           1           1           1           1           1           1           1           1           1           1
 AtmWgt=   1.0078250   1.0078250   1.0078250   1.0078250   1.0078250   1.0078250   1.0078250   1.0078250   1.0078250   1.0078250
 NucSpn=           1           1           1           1           1           1           1           1           1           1
 AtZEff=  -0.0000000  -0.0000000  -0.0000000  -0.0000000  -0.0000000  -0.0000000  -0.0000000  -0.0000000  -0.0000000  -0.0000000
 NQMom=    0.0000000   0.0000000   0.0000000   0.0000000   0.0000000   0.0000000   0.0000000   0.0000000   0.0000000   0.0000000
 NMagM=    2.7928460   2.7928460   2.7928460   2.7928460   2.7928460   2.7928460   2.7928460   2.7928460   2.7928460   2.7928460
 AtZNuc=   1.0000000   1.0000000   1.0000000   1.0000000   1.0000000   1.0000000   1.0000000   1.0000000   1.0000000   1.0000000

  Atom        71          72          73          74          75          76          77          78          79          80
 IAtWgt=           1           1           1           1           1           1           1           1           1          24
 AtmWgt=   1.0078250   1.0078250   1.0078250   1.0078250   1.0078250   1.0078250   1.0078250   1.0078250   1.0078250  23.9850450
 NucSpn=           1           1           1           1           1           1           1           1           1           0
 AtZEff=  -0.0000000  -0.0000000  -0.0000000  -0.0000000  -0.0000000  -0.0000000  -0.0000000  -0.0000000  -0.0000000  -0.0000000
 NQMom=    0.0000000   0.0000000   0.0000000   0.0000000   0.0000000   0.0000000   0.0000000   0.0000000   0.0000000   0.0000000
 NMagM=    2.7928460   2.7928460   2.7928460   2.7928460   2.7928460   2.7928460   2.7928460   2.7928460   2.7928460   0.0000000
 AtZNuc=   1.0000000   1.0000000   1.0000000   1.0000000   1.0000000   1.0000000   1.0000000   1.0000000   1.0000000  12.0000000

  Atom        81          82          83          84          85          86          87          88          89          90
 IAtWgt=          12          12          12          12          14          12          12          12          12          12
 AtmWgt=  12.0000000  12.0000000  12.0000000  12.0000000  14.0030740  12.0000000  12.0000000  12.0000000  12.0000000  12.0000000
 NucSpn=           0           0           0           0           2           0           0           0           0           0
 AtZEff=  -0.0000000  -0.0000000  -0.0000000  -0.0000000  -0.0000000  -0.0000000  -0.0000000  -0.0000000  -0.0000000  -0.0000000
 NQMom=    0.0000000   0.0000000   0.0000000   0.0000000   2.0440000   0.0000000   0.0000000   0.0000000   0.0000000   0.0000000
 NMagM=    0.0000000   0.0000000   0.0000000   0.0000000   0.4037610   0.0000000   0.0000000   0.0000000   0.0000000   0.0000000
 AtZNuc=   6.0000000   6.0000000   6.0000000   6.0000000   7.0000000   6.0000000   6.0000000   6.0000000   6.0000000   6.0000000

  Atom        91          92          93          94          95          96          97          98          99         100
 IAtWgt=          12          12           1          14          12          12          12          12          12          12
 AtmWgt=  12.0000000  12.0000000   1.0078250  14.0030740  12.0000000  12.0000000  12.0000000  12.0000000  12.0000000  12.0000000
 NucSpn=           0           0           1           2           0           0           0           0           0           0
 AtZEff=  -0.0000000  -0.0000000  -0.0000000  -0.0000000  -0.0000000  -0.0000000  -0.0000000  -0.0000000  -0.0000000  -0.0000000
 NQMom=    0.0000000   0.0000000   0.0000000   2.0440000   0.0000000   0.0000000   0.0000000   0.0000000   0.0000000   0.0000000
 NMagM=    0.0000000   0.0000000   2.7928460   0.4037610   0.0000000   0.0000000   0.0000000   0.0000000   0.0000000   0.0000000
 AtZNuc=   6.0000000   6.0000000   1.0000000   7.0000000   6.0000000   6.0000000   6.0000000   6.0000000   6.0000000   6.0000000

  Atom       101         102         103         104         105         106         107         108         109         110
 IAtWgt=          16          12          14          12          12          12          12          12          12          12
 AtmWgt=  15.9949146  12.0000000  14.0030740  12.0000000  12.0000000  12.0000000  12.0000000  12.0000000  12.0000000  12.0000000
 NucSpn=           0           0           2           0           0           0           0           0           0           0
 AtZEff=  -0.0000000  -0.0000000  -0.0000000  -0.0000000  -0.0000000  -0.0000000  -0.0000000  -0.0000000  -0.0000000  -0.0000000
 NQMom=    0.0000000   0.0000000   2.0440000   0.0000000   0.0000000   0.0000000   0.0000000   0.0000000   0.0000000   0.0000000
 NMagM=    0.0000000   0.0000000   0.4037610   0.0000000   0.0000000   0.0000000   0.0000000   0.0000000   0.0000000   0.0000000
 AtZNuc=   8.0000000   6.0000000   7.0000000   6.0000000   6.0000000   6.0000000   6.0000000   6.0000000   6.0000000   6.0000000

  Atom       111         112         113         114         115         116         117         118         119         120
 IAtWgt=          14          12          12          12          12          12          12          16          12          12
 AtmWgt=  14.0030740  12.0000000  12.0000000  12.0000000  12.0000000  12.0000000  12.0000000  15.9949146  12.0000000  12.0000000
 NucSpn=           2           0           0           0           0           0           0           0           0           0
 AtZEff=  -0.0000000  -0.0000000  -0.0000000  -0.0000000  -0.0000000  -0.0000000  -0.0000000  -0.0000000  -0.0000000  -0.0000000
 NQMom=    2.0440000   0.0000000   0.0000000   0.0000000   0.0000000   0.0000000   0.0000000   0.0000000   0.0000000   0.0000000
 NMagM=    0.4037610   0.0000000   0.0000000   0.0000000   0.0000000   0.0000000   0.0000000   0.0000000   0.0000000   0.0000000
 AtZNuc=   7.0000000   6.0000000   6.0000000   6.0000000   6.0000000   6.0000000   6.0000000   8.0000000   6.0000000   6.0000000

  Atom       121         122         123         124         125         126         127         128         129         130
 IAtWgt=          16          16          12           1           1           1           1           1           1           1
 AtmWgt=  15.9949146  15.9949146  12.0000000   1.0078250   1.0078250   1.0078250   1.0078250   1.0078250   1.0078250   1.0078250
 NucSpn=           0           0           0           1           1           1           1           1           1           1
 AtZEff=  -0.0000000  -0.0000000  -0.0000000  -0.0000000  -0.0000000  -0.0000000  -0.0000000  -0.0000000  -0.0000000  -0.0000000
 NQMom=    0.0000000   0.0000000   0.0000000   0.0000000   0.0000000   0.0000000   0.0000000   0.0000000   0.0000000   0.0000000
 NMagM=    0.0000000   0.0000000   0.0000000   2.7928460   2.7928460   2.7928460   2.7928460   2.7928460   2.7928460   2.7928460
 AtZNuc=   8.0000000   8.0000000   6.0000000   1.0000000   1.0000000   1.0000000   1.0000000   1.0000000   1.0000000   1.0000000

  Atom       131         132         133         134         135         136         137         138         139         140
 IAtWgt=           1           1           1           1           1           1           1           1           1           1
 AtmWgt=   1.0078250   1.0078250   1.0078250   1.0078250   1.0078250   1.0078250   1.0078250   1.0078250   1.0078250   1.0078250
 NucSpn=           1           1           1           1           1           1           1           1           1           1
 AtZEff=  -0.0000000  -0.0000000  -0.0000000  -0.0000000  -0.0000000  -0.0000000  -0.0000000  -0.0000000  -0.0000000  -0.0000000
 NQMom=    0.0000000   0.0000000   0.0000000   0.0000000   0.0000000   0.0000000   0.0000000   0.0000000   0.0000000   0.0000000
 NMagM=    2.7928460   2.7928460   2.7928460   2.7928460   2.7928460   2.7928460   2.7928460   2.7928460   2.7928460   2.7928460
 AtZNuc=   1.0000000   1.0000000   1.0000000   1.0000000   1.0000000   1.0000000   1.0000000   1.0000000   1.0000000   1.0000000

  Atom       141         142         143         144         145         146         147         148         149         150
 IAtWgt=           1           1           1           1           1           1           1           1           1           1
 AtmWgt=   1.0078250   1.0078250   1.0078250   1.0078250   1.0078250   1.0078250   1.0078250   1.0078250   1.0078250   1.0078250
 NucSpn=           1           1           1           1           1           1           1           1           1           1
 AtZEff=  -0.0000000  -0.0000000  -0.0000000  -0.0000000  -0.0000000  -0.0000000  -0.0000000  -0.0000000  -0.0000000  -0.0000000
 NQMom=    0.0000000   0.0000000   0.0000000   0.0000000   0.0000000   0.0000000   0.0000000   0.0000000   0.0000000   0.0000000
 NMagM=    2.7928460   2.7928460   2.7928460   2.7928460   2.7928460   2.7928460   2.7928460   2.7928460   2.7928460   2.7928460
 AtZNuc=   1.0000000   1.0000000   1.0000000   1.0000000   1.0000000   1.0000000   1.0000000   1.0000000   1.0000000   1.0000000

  Atom       151         152         153         154         155         156         157         158
 IAtWgt=           1           1           1           1           1           1           1           1
 AtmWgt=   1.0078250   1.0078250   1.0078250   1.0078250   1.0078250   1.0078250   1.0078250   1.0078250
 NucSpn=           1           1           1           1           1           1           1           1
 AtZEff=  -0.0000000  -0.0000000  -0.0000000  -0.0000000  -0.0000000  -0.0000000  -0.0000000  -0.0000000
 NQMom=    0.0000000   0.0000000   0.0000000   0.0000000   0.0000000   0.0000000   0.0000000   0.0000000
 NMagM=    2.7928460   2.7928460   2.7928460   2.7928460   2.7928460   2.7928460   2.7928460   2.7928460
 AtZNuc=   1.0000000   1.0000000   1.0000000   1.0000000   1.0000000   1.0000000   1.0000000   1.0000000
 Leave Link  101 at Fri Sep 10 11:52:21 2021, MaxMem= 23488102400 cpu:               3.2 elap:               0.2
 (Enter /sw/apps/gaussian-16.0/g16/l202.exe)
 Stoichiometry    C68H72Mg2N8O8
 Framework group  C1[X(C68H72Mg2N8O8)]
 Deg. of freedom   468
 Full point group                 C1      NOp   1
 Largest Abelian subgroup         C1      NOp   1
 Largest concise Abelian subgroup C1      NOp   1
                         Standard orientation:                         
 ---------------------------------------------------------------------
 Center     Atomic      Atomic             Coordinates (Angstroms)
 Number     Number       Type             X           Y           Z
 ---------------------------------------------------------------------
      1         12           0        5.294021   -0.593383    0.799365
      2          6           0        5.816724    2.172636   -1.411547
      3          6           0        5.754328    1.581001    3.388426
      4          6           0        5.288177   -3.090142    2.754558
      5          6           0        5.999419   -2.689357   -1.894139
      6          7           0        5.722748    1.577759    0.853976
      7          6           0        5.839825    2.533528   -0.062522
      8          6           0        5.913769    3.966308    0.544973
      9          6           0        6.452539    3.595700    1.999062
     10          6           0        5.915326    2.179212    2.103415
     11          6           0        7.974359    3.551954    2.092089
     12          6           0        4.509918    4.656468    0.612872
     13          6           0        4.535110    6.163322    0.885102
     14          1           0        3.538055    7.007478    0.244298
     15          7           0        5.010349   -0.690878    2.752024
     16          6           0        5.233815    0.295744    3.653094
     17          6           0        4.872014   -0.267049    4.971823
     18          6           0        4.600884   -1.719861    4.787652
     19          6           0        4.986048   -1.899463    3.411145
     20          6           0        4.765118    0.558188    6.217338
     21          6           0        4.087602   -2.780534    5.709415
     22          8           0        4.146294   -4.023474    5.415768
     23          6           0        3.588516   -2.326564    7.020089
     24          7           0        5.812545   -2.599114    0.542834
     25          6           0        5.660993   -3.483354    1.534871
     26          6           0        5.824257   -4.890513    1.041729
     27          6           0        5.879590   -4.797012   -0.551365
     28          6           0        5.816713   -3.256779   -0.699687
     29          6           0        7.063161   -5.639114    1.552342
     30          6           0        4.861296   -5.656316   -1.341992
     31          6           0        3.459942   -5.139894   -1.104053
     32          7           0        5.643757   -0.345963   -1.328430
     33          6           0        5.940931   -1.354111   -2.256869
     34          6           0        6.200764   -0.689949   -3.547390
     35          6           0        6.051974    0.668425   -3.274395
     36          6           0        5.746019    0.843478   -1.894525
     37          6           0        6.583260   -1.336941   -4.755501
     38          6           0        6.104519    2.014249   -3.821983
     39          8           0        6.226469    2.485934   -4.953414
     40          6           0        6.074391    3.049053   -2.611983
     41          6           0        5.055834    4.105655   -2.942804
     42          8           0        3.841319    3.825862   -3.006326
     43          8           0        5.637919    5.313833   -2.897812
     44          6           0        4.674972    6.409667   -3.187701
     45          1           0        6.112354    2.117779    4.269124
     46          1           0        5.188888   -3.987248    3.369197
     47          1           0        6.142589   -3.284199   -2.798085
     48          1           0        6.615882    4.635365    0.047154
     49          1           0        6.010235    4.226469    2.769918
     50          1           0        8.436664    3.656354    1.110613
     51          1           0        8.211764    2.579186    2.523198
     52          1           0        8.340379    4.292469    2.803738
     53          1           0        3.984572    4.315528    1.504967
     54          1           0        3.940975    4.464019   -0.297399
     55          1           0        5.533895    6.577252    0.743683
     56          1           0        4.322897    6.322991    1.942302
     57          1           0        5.183162    1.553956    6.075104
     58          1           0        5.412388    0.095713    6.962232
     59          1           0        3.743226    0.601601    6.594411
     60          1           0        4.387845   -1.807517    7.549440
     61          1           0        3.180004   -3.210354    7.508847
     62          1           0        2.798243   -1.592129    6.861902
     63          1           0        4.976070   -5.508214    1.334046
     64          1           0        6.848797   -5.103374   -0.945644
     65          1           0        6.830281   -6.573135    2.064278
     66          1           0        7.619984   -4.965041    2.202622
     67          1           0        7.806509   -5.866900    0.788822
     68          1           0        4.885958   -6.688672   -0.994748
     69          1           0        5.046366   -5.663222   -2.416214
     70          1           0        3.179874   -5.618962   -0.166563
     71          1           0        2.797985   -5.449247   -1.913574
     72          1           0        3.456073   -4.063129   -0.933623
     73          1           0        5.995477   -0.874617   -5.548430
     74          1           0        6.403566   -2.410551   -4.703778
     75          1           0        7.644844   -1.092345   -4.788203
     76          1           0        7.079300    3.461457   -2.527117
     77          1           0        5.082781    6.983514   -4.019943
     78          1           0        4.508217    6.932838   -2.245953
     79          1           0        3.710856    6.108014   -3.598584
     80         12           0       -5.154465   -0.689627   -0.832199
     81          6           0       -6.449017    1.706226    1.505127
     82          6           0       -5.014787    1.838477   -3.117757
     83          6           0       -4.441816   -2.856446   -3.037758
     84          6           0       -6.450283   -3.187881    1.223362
     85          7           0       -5.689725    1.452611   -0.703536
     86          6           0       -6.113594    2.263935    0.253767
     87          6           0       -6.105545    3.768527   -0.127903
     88          6           0       -6.196906    3.612323   -1.723567
     89          6           0       -5.563381    2.230396   -1.870552
     90          6           0       -7.624133    3.540901   -2.240528
     91          6           0       -4.779458    4.487622    0.303862
     92          6           0       -4.827194    6.015912    0.242200
     93          1           0       -4.096637    6.776426    1.252325
     94          7           0       -4.327123   -0.474975   -2.623286
     95          6           0       -4.346953    0.627052   -3.402009
     96          6           0       -3.615932    0.267350   -4.626914
     97          6           0       -3.305316   -1.187233   -4.577738
     98          6           0       -4.047087   -1.575339   -3.394842
     99          6           0       -3.211315    1.278791   -5.659719
    100          6           0       -2.487739   -2.083407   -5.457889
    101          8           0       -2.549249   -3.360038   -5.361717
    102          6           0       -1.683847   -1.424955   -6.497927
    103          7           0       -5.589574   -2.714668   -1.011707
    104          6           0       -5.114223   -3.435176   -2.042641
    105          6           0       -5.322592   -4.913692   -1.816852
    106          6           0       -5.821244   -5.051111   -0.303569
    107          6           0       -5.903910   -3.555395    0.072452
    108          6           0       -6.326918   -5.593649   -2.747101
    109          6           0       -5.012071   -6.001938    0.620475
    110          6           0       -3.630601   -5.436626    0.859983
    111          7           0       -6.088096   -0.773438    1.114434
    112          6           0       -6.578231   -1.920273    1.776702
    113          6           0       -7.228105   -1.460048    3.021006
    114          6           0       -7.090088   -0.064300    2.984744
    115          6           0       -6.420565    0.319903    1.791586
    116          6           0       -7.881364   -2.290640    3.974678
    117          6           0       -7.367951    1.172216    3.679392
    118          8           0       -7.834949    1.464598    4.779461
    119          6           0       -7.077272    2.383090    2.691623
    120          6           0       -6.255493    3.401037    3.433895
    121          8           0       -5.100148    3.130692    3.806324
    122          8           0       -6.883143    4.590385    3.390647
    123          6           0       -6.101341    5.635214    4.104039
    124          1           0       -5.143563    2.502613   -3.972877
    125          1           0       -4.121966   -3.653705   -3.712700
    126          1           0       -6.791785   -3.912846    1.965291
    127          1           0       -6.952964    4.334887    0.239373
    128          1           0       -5.595316    4.363292   -2.229037
    129          1           0       -8.342032    3.488028   -1.435562
    130          1           0       -7.672069    2.647639   -2.849500
    131          1           0       -7.822509    4.377535   -2.916558
    132          1           0       -4.005138    4.293285   -0.449408
    133          1           0       -4.478360    4.174781    1.284728
    134          1           0       -5.852613    6.392674    0.144580
    135          1           0       -4.333360    6.341734   -0.676488
    136          1           0       -3.721836    2.237441   -5.505561
    137          1           0       -3.590265    0.921106   -6.623219
    138          1           0       -2.128178    1.399967   -5.728930
    139          1           0       -2.337157   -0.847962   -7.148103
    140          1           0       -1.101557   -2.221477   -6.965216
    141          1           0       -1.007274   -0.709850   -6.016791
    142          1           0       -4.392724   -5.457175   -1.931177
    143          1           0       -6.846035   -5.446571   -0.246568
    144          1           0       -5.896244   -6.445406   -3.306662
    145          1           0       -6.718657   -4.850157   -3.428487
    146          1           0       -7.229759   -5.961330   -2.262431
    147          1           0       -4.871049   -6.971307    0.136122
    148          1           0       -5.490987   -6.186174    1.576341
    149          1           0       -3.074051   -5.762249   -0.023927
    150          1           0       -3.200805   -5.848439    1.770875
    151          1           0       -3.647349   -4.340566    0.853684
    152          1           0       -7.572477   -1.944790    4.952164
    153          1           0       -7.631777   -3.339127    3.825895
    154          1           0       -8.926644   -2.079329    3.733819
    155          1           0       -8.040095    2.786152    2.375231
    156          1           0       -6.763864    6.070566    4.858508
    157          1           0       -5.720354    6.312775    3.316960
    158          1           0       -5.269464    5.307880    4.716641
 ---------------------------------------------------------------------
 Rotational constants (GHZ):           0.0208690           0.0105096           0.0102127
 Leave Link  202 at Fri Sep 10 11:52:21 2021, MaxMem= 23488102400 cpu:               0.3 elap:               0.0
 (Enter /sw/apps/gaussian-16.0/g16/l301.exe)
 Standard basis: def2SVP (5D, 7F)
 Ernie: Thresh=  0.10000D-02 Tol=  0.10000D-05 Strict=F.
 There are  1658 symmetry adapted cartesian basis functions of A   symmetry.
 There are  1572 symmetry adapted basis functions of A   symmetry.
  1572 basis functions,  2678 primitive gaussians,  1658 cartesian basis functions
   312 alpha electrons      312 beta electrons
       nuclear repulsion energy     14855.7127277329 Hartrees.
 IExCor=20419 DFT=T Ex+Corr=CAM-B3LYP ExCW=0 ScaHFX=  1.000000
 ScaDFX=  1.000000  1.000000  1.000000  0.810000 ScalE2=  1.000000  1.000000
 IRadAn=      5 IRanWt=     -1 IRanGd=            0 ICorTp=0 IEmpDi=  4
 HFx  wShort=  0.000000 wLong=  0.330000 cFull=  0.190000 cShort=  0.000000 cLong=  0.460000
 DFx  wShort=  0.000000 wLong=  0.330000 cFull=  0.190000 cShort=  0.000000 cLong=  0.460000
 NAtoms=  158 NActive=  158 NUniq=  158 SFac= 1.00D+00 NAtFMM=   60 NAOKFM=T Big=T
 Integral buffers will be    131072 words long.
 Raffenetti 1 integral format.
 Two-electron integral symmetry is turned on.
 Leave Link  301 at Fri Sep 10 11:52:21 2021, MaxMem= 23488102400 cpu:               1.3 elap:               0.1
 (Enter /sw/apps/gaussian-16.0/g16/l302.exe)
 NPDir=0 NMtPBC=     1 NCelOv=     1 NCel=       1 NClECP=     1 NCelD=      1
         NCelK=      1 NCelE2=     1 NClLst=     1 CellRange=     0.0.
 One-electron integrals computed using PRISM.
 One-electron integral symmetry used in STVInt
   1 Symmetry operations used in ECPInt.
 ECPInt:  NShTT=  271216 NPrTT=  987664 LenC2=  133797 LenP2D=  281159.
 LDataN:  DoStor=T MaxTD1= 4 Len=   56
 NBasis=  1572 RedAO= T EigKep=  3.36D-04  NBF=  1572
 NBsUse=  1572 1.00D-06 EigRej= -1.00D+00 NBFU=  1572
 Precomputing XC quadrature grid using
 IXCGrd= 4 IRadAn=           5 IRanWt=          -1 IRanGd=           0 AccXCQ= 0.00D+00.
 Generated NRdTot=       0 NPtTot=           0 NUsed=           0 NTot=          32
 NSgBfM=  1025  1025  1025  1025  1025 MxSgAt=   158 MxSgA2=   154.
 Leave Link  302 at Fri Sep 10 11:52:26 2021, MaxMem= 23488102400 cpu:             120.6 elap:               5.0
 (Enter /sw/apps/gaussian-16.0/g16/l303.exe)
 DipDrv:  MaxL=1.
 Leave Link  303 at Fri Sep 10 11:52:27 2021, MaxMem= 23488102400 cpu:               8.9 elap:               0.4
 (Enter /sw/apps/gaussian-16.0/g16/l308.exe)
 Leave Link  308 at Fri Sep 10 11:52:27 2021, MaxMem= 23488102400 cpu:              12.7 elap:               0.6
 (Enter /sw/apps/gaussian-16.0/g16/l401.exe)
 ExpMin= 3.36D-02 ExpMax= 4.95D+03 ExpMxC= 7.45D+02 IAcc=3 IRadAn=         5 AccDes= 0.00D+00
 Harris functional with IExCor=20419 and IRadAn=       5 diagonalized for initial guess.
 HarFok:  IExCor=20419 AccDes= 0.00D+00 IRadAn=         5 IDoV= 1 UseB2=F ITyADJ=14
 ICtDFT=  3500011 ScaDFX=  1.000000  1.000000  1.000000  1.000000
 FoFCou: FMM=F IPFlag=           0 FMFlag=      100000 FMFlg1=        2001
         NFxFlg=           0 DoJE=T BraDBF=F KetDBF=T FulRan=T
         wScrn=  0.000000 ICntrl=       500 IOpCl=  0 I1Cent=   200000004 NGrid=           0
         NMat0=    1 NMatS0=      1 NMatT0=    0 NMatD0=    1 NMtDS0=    0 NMtDT0=    0
 Petite list used in FoFCou.
 Harris En= -3918.65801482538    
 JPrj=0 DoOrth=F DoCkMO=F.
 Leave Link  401 at Fri Sep 10 11:52:35 2021, MaxMem= 23488102400 cpu:             177.7 elap:               7.4
 (Enter /sw/apps/gaussian-16.0/g16/l502.exe)
 Integral symmetry usage will be decided dynamically.
 Closed shell SCF:
 Using DIIS extrapolation, IDIIS=  1040.
 NGot= 23488102400 LenX= 23482547354 LenY= 23479796732
 Requested convergence on RMS density matrix=1.00D-08 within 128 cycles.
 Requested convergence on MAX density matrix=1.00D-06.
 Requested convergence on             energy=1.00D-06.
 No special actions if energy rises.
 Fock matrices will be formed incrementally for  20 cycles.

 Cycle   1  Pass 1  IDiag  1:
 FoFJK:  IHMeth= 1 ICntrl=       0 DoSepK=T KAlg= 0 I1Cent=           0 FoldK=F
 IRaf=         1 NMat=       1 IRICut=       1 DoRegI=T DoRafI=F ISym2E= 0 IDoP0=0 IntGTp=1.
 FoFCou: FMM=T IPFlag=           0 FMFlag=      100000 FMFlg1=        2001
         NFxFlg=           0 DoJE=T BraDBF=F KetDBF=F FulRan=T
         wScrn=  0.000000 ICntrl=       500 IOpCl=  0 I1Cent=           0 NGrid=           0
         NMat0=    1 NMatS0=      1 NMatT0=    0 NMatD0=    1 NMtDS0=    0 NMtDT0=    0
 Symmetry not used in FoFCou.
 FMM levels:  10  Number of levels for PrismC:   9
 E= -4068.95069901604    
 DIIS: error= 2.04D-02 at cycle   1 NSaved=   1.
 NSaved= 1 IEnMin= 1 EnMin= -4068.95069901604     IErMin= 1 ErrMin= 2.04D-02
 ErrMax= 2.04D-02  0.00D+00 EMaxC= 1.00D-01 BMatC= 1.69D+00 BMatP= 1.69D+00
 IDIUse=3 WtCom= 7.96D-01 WtEn= 2.04D-01
 Coeff-Com:  0.100D+01
 Coeff-En:   0.100D+01
 Coeff:      0.100D+01
 Gap=     0.121 Goal=   None    Shift=    0.000
 GapD=    0.121 DampG=1.000 DampE=0.500 DampFc=0.5000 IDamp=-1.
 Damping current iteration by 5.00D-01
 RMSDP=1.57D-03 MaxDP=1.36D-01              OVMax= 1.98D-01

 Cycle   2  Pass 1  IDiag  1:
 RMSU=  7.69D-04    CP:  9.82D-01
 E= -4069.33940116816     Delta-E=       -0.388702152122 Rises=F Damp=T
 DIIS: error= 1.27D-02 at cycle   2 NSaved=   2.
 NSaved= 2 IEnMin= 2 EnMin= -4069.33940116816     IErMin= 2 ErrMin= 1.27D-02
 ErrMax= 1.27D-02  0.00D+00 EMaxC= 1.00D-01 BMatC= 3.06D-01 BMatP= 1.69D+00
 IDIUse=3 WtCom= 8.73D-01 WtEn= 1.27D-01
 Coeff-Com: -0.213D+00 0.121D+01
 Coeff-En:   0.000D+00 0.100D+01
 Coeff:     -0.186D+00 0.119D+01
 Gap=     0.136 Goal=   None    Shift=    0.000
 RMSDP=7.63D-04 MaxDP=9.39D-02 DE=-3.89D-01 OVMax= 1.88D-01

 Cycle   3  Pass 1  IDiag  1:
 RMSU=  7.30D-04    CP:  9.68D-01  1.24D+00
 E= -4069.62975260077     Delta-E=       -0.290351432610 Rises=F Damp=F
 DIIS: error= 1.56D-02 at cycle   3 NSaved=   3.
 NSaved= 3 IEnMin= 3 EnMin= -4069.62975260077     IErMin= 2 ErrMin= 1.27D-02
 ErrMax= 1.56D-02  0.00D+00 EMaxC= 1.00D-01 BMatC= 2.01D-01 BMatP= 3.06D-01
 IDIUse=3 WtCom= 8.44D-01 WtEn= 1.56D-01
 Coeff-Com: -0.267D+00 0.651D+00 0.616D+00
 Coeff-En:   0.000D+00 0.000D+00 0.100D+01
 Coeff:     -0.226D+00 0.549D+00 0.676D+00
 Gap=     0.124 Goal=   None    Shift=    0.000
 RMSDP=5.04D-04 MaxDP=4.92D-02 DE=-2.90D-01 OVMax= 1.37D-01

 Cycle   4  Pass 1  IDiag  1:
 RMSU=  2.63D-04    CP:  9.65D-01  1.55D+00  5.09D-01
 E= -4069.76695943762     Delta-E=       -0.137206836847 Rises=F Damp=F
 DIIS: error= 7.14D-03 at cycle   4 NSaved=   4.
 NSaved= 4 IEnMin= 4 EnMin= -4069.76695943762     IErMin= 4 ErrMin= 7.14D-03
 ErrMax= 7.14D-03  0.00D+00 EMaxC= 1.00D-01 BMatC= 4.92D-02 BMatP= 2.01D-01
 IDIUse=3 WtCom= 9.29D-01 WtEn= 7.14D-02
 Coeff-Com: -0.109D+00 0.225D+00 0.407D+00 0.476D+00
 Coeff-En:   0.000D+00 0.000D+00 0.216D+00 0.784D+00
 Coeff:     -0.101D+00 0.209D+00 0.394D+00 0.498D+00
 Gap=     0.122 Goal=   None    Shift=    0.000
 RMSDP=1.96D-04 MaxDP=2.05D-02 DE=-1.37D-01 OVMax= 5.80D-02

 Cycle   5  Pass 1  IDiag  1:
 RMSU=  7.43D-05    CP:  9.64D-01  1.49D+00  6.89D-01  5.55D-01
 E= -4069.81129939578     Delta-E=       -0.044339958160 Rises=F Damp=F
 DIIS: error= 7.79D-04 at cycle   5 NSaved=   5.
 NSaved= 5 IEnMin= 5 EnMin= -4069.81129939578     IErMin= 5 ErrMin= 7.79D-04
 ErrMax= 7.79D-04  0.00D+00 EMaxC= 1.00D-01 BMatC= 1.07D-03 BMatP= 4.92D-02
 IDIUse=3 WtCom= 9.92D-01 WtEn= 7.79D-03
 Coeff-Com: -0.347D-01 0.679D-01 0.160D+00 0.245D+00 0.562D+00
 Coeff-En:   0.000D+00 0.000D+00 0.000D+00 0.000D+00 0.100D+01
 Coeff:     -0.344D-01 0.674D-01 0.159D+00 0.243D+00 0.565D+00
 Gap=     0.122 Goal=   None    Shift=    0.000
 RMSDP=3.85D-05 MaxDP=4.09D-03 DE=-4.43D-02 OVMax= 1.44D-02

 Cycle   6  Pass 1  IDiag  1:
 RMSU=  2.90D-05    CP:  9.64D-01  1.49D+00  6.82D-01  6.23D-01  7.75D-01
 E= -4069.81221080924     Delta-E=       -0.000911413459 Rises=F Damp=F
 DIIS: error= 2.38D-04 at cycle   6 NSaved=   6.
 NSaved= 6 IEnMin= 6 EnMin= -4069.81221080924     IErMin= 6 ErrMin= 2.38D-04
 ErrMax= 2.38D-04  0.00D+00 EMaxC= 1.00D-01 BMatC= 1.63D-04 BMatP= 1.07D-03
 IDIUse=3 WtCom= 9.98D-01 WtEn= 2.38D-03
 Coeff-Com:  0.255D-02-0.722D-02 0.925D-02 0.373D-01 0.307D+00 0.651D+00
 Coeff-En:   0.000D+00 0.000D+00 0.000D+00 0.000D+00 0.955D-01 0.904D+00
 Coeff:      0.255D-02-0.720D-02 0.923D-02 0.372D-01 0.307D+00 0.651D+00
 Gap=     0.122 Goal=   None    Shift=    0.000
 RMSDP=1.49D-05 MaxDP=1.24D-03 DE=-9.11D-04 OVMax= 6.91D-03

 Cycle   7  Pass 1  IDiag  1:
 RMSU=  1.02D-05    CP:  9.64D-01  1.50D+00  6.87D-01  6.24D-01  8.70D-01
                    CP:  7.62D-01
 E= -4069.81238351819     Delta-E=       -0.000172708948 Rises=F Damp=F
 DIIS: error= 7.66D-05 at cycle   7 NSaved=   7.
 NSaved= 7 IEnMin= 7 EnMin= -4069.81238351819     IErMin= 7 ErrMin= 7.66D-05
 ErrMax= 7.66D-05  0.00D+00 EMaxC= 1.00D-01 BMatC= 1.75D-05 BMatP= 1.63D-04
 IDIUse=1 WtCom= 1.00D+00 WtEn= 0.00D+00
 Coeff-Com:  0.437D-02-0.951D-02-0.923D-02-0.486D-02 0.963D-01 0.318D+00
 Coeff-Com:  0.605D+00
 Coeff:      0.437D-02-0.951D-02-0.923D-02-0.486D-02 0.963D-01 0.318D+00
 Coeff:      0.605D+00
 Gap=     0.123 Goal=   None    Shift=    0.000
 RMSDP=6.08D-06 MaxDP=1.09D-03 DE=-1.73D-04 OVMax= 3.23D-03

 Cycle   8  Pass 1  IDiag  1:
 RMSU=  4.44D-06    CP:  9.64D-01  1.50D+00  6.88D-01  6.28D-01  8.77D-01
                    CP:  8.84D-01  8.41D-01
 E= -4069.81240516271     Delta-E=       -0.000021644522 Rises=F Damp=F
 DIIS: error= 4.92D-05 at cycle   8 NSaved=   8.
 NSaved= 8 IEnMin= 8 EnMin= -4069.81240516271     IErMin= 8 ErrMin= 4.92D-05
 ErrMax= 4.92D-05  0.00D+00 EMaxC= 1.00D-01 BMatC= 4.37D-06 BMatP= 1.75D-05
 IDIUse=1 WtCom= 1.00D+00 WtEn= 0.00D+00
 Coeff-Com:  0.207D-02-0.410D-02-0.757D-02-0.120D-01-0.139D-01 0.328D-01
 Coeff-Com:  0.356D+00 0.647D+00
 Coeff:      0.207D-02-0.410D-02-0.757D-02-0.120D-01-0.139D-01 0.328D-01
 Coeff:      0.356D+00 0.647D+00
 Gap=     0.123 Goal=   None    Shift=    0.000
 RMSDP=3.16D-06 MaxDP=4.05D-04 DE=-2.16D-05 OVMax= 1.35D-03

 Cycle   9  Pass 1  IDiag  1:
 RMSU=  1.85D-06    CP:  9.64D-01  1.50D+00  6.89D-01  6.29D-01  8.94D-01
                    CP:  9.09D-01  1.04D+00  9.18D-01
 E= -4069.81241206637     Delta-E=       -0.000006903665 Rises=F Damp=F
 DIIS: error= 2.14D-05 at cycle   9 NSaved=   9.
 NSaved= 9 IEnMin= 9 EnMin= -4069.81241206637     IErMin= 9 ErrMin= 2.14D-05
 ErrMax= 2.14D-05  0.00D+00 EMaxC= 1.00D-01 BMatC= 6.31D-07 BMatP= 4.37D-06
 IDIUse=1 WtCom= 1.00D+00 WtEn= 0.00D+00
 Coeff-Com:  0.456D-03-0.758D-03-0.260D-02-0.584D-02-0.218D-01-0.356D-01
 Coeff-Com:  0.110D+00 0.328D+00 0.628D+00
 Coeff:      0.456D-03-0.758D-03-0.260D-02-0.584D-02-0.218D-01-0.356D-01
 Coeff:      0.110D+00 0.328D+00 0.628D+00
 Gap=     0.123 Goal=   None    Shift=    0.000
 RMSDP=1.32D-06 MaxDP=1.47D-04 DE=-6.90D-06 OVMax= 7.52D-04

 Cycle  10  Pass 1  IDiag  1:
 RMSU=  9.02D-07    CP:  9.64D-01  1.50D+00  6.89D-01  6.30D-01  8.96D-01
                    CP:  9.22D-01  1.08D+00  1.08D+00  1.02D+00
 E= -4069.81241346463     Delta-E=       -0.000001398257 Rises=F Damp=F
 DIIS: error= 1.17D-05 at cycle  10 NSaved=  10.
 NSaved=10 IEnMin=10 EnMin= -4069.81241346463     IErMin=10 ErrMin= 1.17D-05
 ErrMax= 1.17D-05  0.00D+00 EMaxC= 1.00D-01 BMatC= 1.56D-07 BMatP= 6.31D-07
 IDIUse=1 WtCom= 1.00D+00 WtEn= 0.00D+00
 Coeff-Com: -0.404D-03 0.848D-03 0.115D-02 0.105D-02-0.419D-02-0.297D-01
 Coeff-Com: -0.475D-01-0.682D-01 0.269D+00 0.878D+00
 Coeff:     -0.404D-03 0.848D-03 0.115D-02 0.105D-02-0.419D-02-0.297D-01
 Coeff:     -0.475D-01-0.682D-01 0.269D+00 0.878D+00
 Gap=     0.123 Goal=   None    Shift=    0.000
 RMSDP=1.14D-06 MaxDP=1.39D-04 DE=-1.40D-06 OVMax= 5.65D-04

 Cycle  11  Pass 1  IDiag  1:
 RMSU=  4.89D-07    CP:  9.64D-01  1.50D+00  6.89D-01  6.30D-01  8.99D-01
                    CP:  9.32D-01  1.13D+00  1.18D+00  1.34D+00  1.33D+00
 E= -4069.81241413849     Delta-E=       -0.000000673859 Rises=F Damp=F
 DIIS: error= 3.82D-06 at cycle  11 NSaved=  11.
 NSaved=11 IEnMin=11 EnMin= -4069.81241413849     IErMin=11 ErrMin= 3.82D-06
 ErrMax= 3.82D-06  0.00D+00 EMaxC= 1.00D-01 BMatC= 5.25D-08 BMatP= 1.56D-07
 IDIUse=1 WtCom= 1.00D+00 WtEn= 0.00D+00
 Coeff-Com: -0.314D-03 0.612D-03 0.126D-02 0.202D-02 0.398D-02-0.851D-02
 Coeff-Com: -0.459D-01-0.127D+00-0.557D-02 0.459D+00 0.721D+00
 Coeff:     -0.314D-03 0.612D-03 0.126D-02 0.202D-02 0.398D-02-0.851D-02
 Coeff:     -0.459D-01-0.127D+00-0.557D-02 0.459D+00 0.721D+00
 Gap=     0.123 Goal=   None    Shift=    0.000
 RMSDP=6.17D-07 MaxDP=5.24D-05 DE=-6.74D-07 OVMax= 3.36D-04

 Cycle  12  Pass 1  IDiag  1:
 RMSU=  2.54D-07    CP:  9.64D-01  1.50D+00  6.89D-01  6.30D-01  9.00D-01
                    CP:  9.34D-01  1.15D+00  1.24D+00  1.49D+00  1.70D+00
                    CP:  1.16D+00
 E= -4069.81241435562     Delta-E=       -0.000000217129 Rises=F Damp=F
 DIIS: error= 2.61D-06 at cycle  12 NSaved=  12.
 NSaved=12 IEnMin=12 EnMin= -4069.81241435562     IErMin=12 ErrMin= 2.61D-06
 ErrMax= 2.61D-06  0.00D+00 EMaxC= 1.00D-01 BMatC= 1.23D-08 BMatP= 5.25D-08
 IDIUse=1 WtCom= 1.00D+00 WtEn= 0.00D+00
 Coeff-Com: -0.106D-04 0.571D-05 0.203D-03 0.540D-03 0.312D-02 0.350D-02
 Coeff-Com:  0.276D-03-0.374D-01-0.627D-01-0.559D-01 0.262D+00 0.887D+00
 Coeff:     -0.106D-04 0.571D-05 0.203D-03 0.540D-03 0.312D-02 0.350D-02
 Coeff:      0.276D-03-0.374D-01-0.627D-01-0.559D-01 0.262D+00 0.887D+00
 Gap=     0.123 Goal=   None    Shift=    0.000
 RMSDP=3.93D-07 MaxDP=2.99D-05 DE=-2.17D-07 OVMax= 2.43D-04

 Cycle  13  Pass 1  IDiag  1:
 RMSU=  1.62D-07    CP:  9.64D-01  1.50D+00  6.89D-01  6.30D-01  9.00D-01
                    CP:  9.34D-01  1.16D+00  1.27D+00  1.59D+00  1.90D+00
                    CP:  1.56D+00  1.22D+00
 E= -4069.81241443086     Delta-E=       -0.000000075237 Rises=F Damp=F
 DIIS: error= 1.53D-06 at cycle  13 NSaved=  13.
 NSaved=13 IEnMin=13 EnMin= -4069.81241443086     IErMin=13 ErrMin= 1.53D-06
 ErrMax= 1.53D-06  0.00D+00 EMaxC= 1.00D-01 BMatC= 7.88D-09 BMatP= 1.23D-08
 IDIUse=1 WtCom= 1.00D+00 WtEn= 0.00D+00
 Coeff-Com:  0.113D-03-0.231D-03-0.340D-03-0.406D-03 0.637D-03 0.514D-02
 Coeff-Com:  0.194D-01 0.202D-01-0.402D-01-0.233D+00-0.142D+00 0.626D+00
 Coeff-Com:  0.744D+00
 Coeff:      0.113D-03-0.231D-03-0.340D-03-0.406D-03 0.637D-03 0.514D-02
 Coeff:      0.194D-01 0.202D-01-0.402D-01-0.233D+00-0.142D+00 0.626D+00
 Coeff:      0.744D+00
 Gap=     0.123 Goal=   None    Shift=    0.000
 RMSDP=3.03D-07 MaxDP=1.72D-05 DE=-7.52D-08 OVMax= 1.67D-04

 Cycle  14  Pass 1  IDiag  1:
 RMSU=  7.72D-08    CP:  9.64D-01  1.50D+00  6.89D-01  6.30D-01  9.00D-01
                    CP:  9.35D-01  1.17D+00  1.29D+00  1.66D+00  2.08D+00
                    CP:  1.80D+00  1.73D+00  1.04D+00
 E= -4069.81241446291     Delta-E=       -0.000000032051 Rises=F Damp=F
 DIIS: error= 1.10D-06 at cycle  14 NSaved=  14.
 NSaved=14 IEnMin=14 EnMin= -4069.81241446291     IErMin=14 ErrMin= 1.10D-06
 ErrMax= 1.10D-06  0.00D+00 EMaxC= 1.00D-01 BMatC= 1.10D-09 BMatP= 7.88D-09
 IDIUse=1 WtCom= 1.00D+00 WtEn= 0.00D+00
 Coeff-Com:  0.675D-04-0.134D-03-0.246D-03-0.380D-03-0.458D-03 0.159D-02
 Coeff-Com:  0.115D-01 0.195D-01-0.168D-02-0.105D+00-0.148D+00 0.124D+00
 Coeff-Com:  0.380D+00 0.719D+00
 Coeff:      0.675D-04-0.134D-03-0.246D-03-0.380D-03-0.458D-03 0.159D-02
 Coeff:      0.115D-01 0.195D-01-0.168D-02-0.105D+00-0.148D+00 0.124D+00
 Coeff:      0.380D+00 0.719D+00
 Gap=     0.123 Goal=   None    Shift=    0.000
 RMSDP=1.05D-07 MaxDP=6.26D-06 DE=-3.21D-08 OVMax= 7.11D-05

 Cycle  15  Pass 1  IDiag  1:
 RMSU=  3.76D-08    CP:  9.64D-01  1.50D+00  6.89D-01  6.30D-01  9.00D-01
                    CP:  9.35D-01  1.17D+00  1.29D+00  1.68D+00  2.13D+00
                    CP:  1.91D+00  1.88D+00  1.28D+00  1.00D+00
 E= -4069.81241446693     Delta-E=       -0.000000004027 Rises=F Damp=F
 DIIS: error= 4.98D-07 at cycle  15 NSaved=  15.
 NSaved=15 IEnMin=15 EnMin= -4069.81241446693     IErMin=15 ErrMin= 4.98D-07
 ErrMax= 4.98D-07  0.00D+00 EMaxC= 1.00D-01 BMatC= 2.72D-10 BMatP= 1.10D-09
 IDIUse=1 WtCom= 1.00D+00 WtEn= 0.00D+00
 Coeff-Com:  0.112D-04-0.205D-04-0.532D-04-0.112D-03-0.351D-03-0.329D-03
 Coeff-Com:  0.210D-02 0.471D-02 0.796D-02-0.547D-02-0.453D-01-0.568D-01
 Coeff-Com:  0.311D-01 0.366D+00 0.696D+00
 Coeff:      0.112D-04-0.205D-04-0.532D-04-0.112D-03-0.351D-03-0.329D-03
 Coeff:      0.210D-02 0.471D-02 0.796D-02-0.547D-02-0.453D-01-0.568D-01
 Coeff:      0.311D-01 0.366D+00 0.696D+00
 Gap=     0.123 Goal=   None    Shift=    0.000
 RMSDP=3.83D-08 MaxDP=2.79D-06 DE=-4.03D-09 OVMax= 2.10D-05

 Cycle  16  Pass 1  IDiag  1:
 RMSU=  1.84D-08    CP:  9.64D-01  1.50D+00  6.89D-01  6.30D-01  9.00D-01
                    CP:  9.35D-01  1.17D+00  1.29D+00  1.68D+00  2.15D+00
                    CP:  1.93D+00  1.94D+00  1.35D+00  1.22D+00  1.12D+00
 E= -4069.81241446780     Delta-E=       -0.000000000862 Rises=F Damp=F
 DIIS: error= 1.88D-07 at cycle  16 NSaved=  16.
 NSaved=16 IEnMin=16 EnMin= -4069.81241446780     IErMin=16 ErrMin= 1.88D-07
 ErrMax= 1.88D-07  0.00D+00 EMaxC= 1.00D-01 BMatC= 6.76D-11 BMatP= 2.72D-10
 IDIUse=1 WtCom= 1.00D+00 WtEn= 0.00D+00
 Coeff-Com: -0.124D-04 0.254D-04 0.403D-04 0.434D-04-0.520D-04-0.611D-03
 Coeff-Com: -0.188D-02-0.353D-02 0.499D-02 0.242D-01 0.153D-01-0.605D-01
 Coeff-Com: -0.895D-01 0.855D-02 0.337D+00 0.766D+00
 Coeff:     -0.124D-04 0.254D-04 0.403D-04 0.434D-04-0.520D-04-0.611D-03
 Coeff:     -0.188D-02-0.353D-02 0.499D-02 0.242D-01 0.153D-01-0.605D-01
 Coeff:     -0.895D-01 0.855D-02 0.337D+00 0.766D+00
 Gap=     0.123 Goal=   None    Shift=    0.000
 RMSDP=2.38D-08 MaxDP=2.01D-06 DE=-8.62D-10 OVMax= 1.77D-05

 Cycle  17  Pass 1  IDiag  1:
 RMSU=  1.16D-08    CP:  9.64D-01  1.50D+00  6.89D-01  6.30D-01  9.00D-01
                    CP:  9.35D-01  1.17D+00  1.30D+00  1.69D+00  2.15D+00
                    CP:  1.95D+00  1.97D+00  1.39D+00  1.31D+00  1.41D+00
                    CP:  1.18D+00
 E= -4069.81241446801     Delta-E=       -0.000000000211 Rises=F Damp=F
 DIIS: error= 1.05D-07 at cycle  17 NSaved=  17.
 NSaved=17 IEnMin=17 EnMin= -4069.81241446801     IErMin=17 ErrMin= 1.05D-07
 ErrMax= 1.05D-07  0.00D+00 EMaxC= 1.00D-01 BMatC= 2.34D-11 BMatP= 6.76D-11
 IDIUse=1 WtCom= 1.00D+00 WtEn= 0.00D+00
 Coeff-Com: -0.910D-05 0.179D-04 0.345D-04 0.492D-04 0.706D-04-0.228D-03
 Coeff-Com: -0.139D-02-0.325D-02 0.112D-02 0.136D-01 0.197D-01-0.150D-01
 Coeff-Com: -0.547D-01-0.870D-01-0.378D-01 0.408D+00 0.757D+00
 Coeff:     -0.910D-05 0.179D-04 0.345D-04 0.492D-04 0.706D-04-0.228D-03
 Coeff:     -0.139D-02-0.325D-02 0.112D-02 0.136D-01 0.197D-01-0.150D-01
 Coeff:     -0.547D-01-0.870D-01-0.378D-01 0.408D+00 0.757D+00
 Gap=     0.123 Goal=   None    Shift=    0.000
 RMSDP=1.35D-08 MaxDP=8.42D-07 DE=-2.11D-10 OVMax= 7.16D-06

 Cycle  18  Pass 1  IDiag  1:
 RMSU=  5.44D-09    CP:  9.64D-01  1.50D+00  6.89D-01  6.30D-01  9.00D-01
                    CP:  9.35D-01  1.17D+00  1.30D+00  1.69D+00  2.15D+00
                    CP:  1.95D+00  1.98D+00  1.41D+00  1.38D+00  1.58D+00
                    CP:  1.57D+00  1.29D+00
 E= -4069.81241446812     Delta-E=       -0.000000000109 Rises=F Damp=F
 DIIS: error= 7.75D-08 at cycle  18 NSaved=  18.
 NSaved=18 IEnMin=18 EnMin= -4069.81241446812     IErMin=18 ErrMin= 7.75D-08
 ErrMax= 7.75D-08  0.00D+00 EMaxC= 1.00D-01 BMatC= 6.18D-12 BMatP= 2.34D-11
 IDIUse=1 WtCom= 1.00D+00 WtEn= 0.00D+00
 Coeff-Com: -0.703D-07-0.204D-06 0.319D-05 0.871D-05 0.669D-04 0.119D-03
 Coeff-Com:  0.717D-04-0.512D-03-0.104D-02-0.274D-02 0.399D-02 0.162D-01
 Coeff-Com:  0.573D-02-0.408D-01-0.151D+00-0.506D-01 0.323D+00 0.897D+00
 Coeff:     -0.703D-07-0.204D-06 0.319D-05 0.871D-05 0.669D-04 0.119D-03
 Coeff:      0.717D-04-0.512D-03-0.104D-02-0.274D-02 0.399D-02 0.162D-01
 Coeff:      0.573D-02-0.408D-01-0.151D+00-0.506D-01 0.323D+00 0.897D+00
 Gap=     0.123 Goal=   None    Shift=    0.000
 RMSDP=1.02D-08 MaxDP=7.74D-07 DE=-1.09D-10 OVMax= 7.03D-06

 Cycle  19  Pass 1  IDiag  1:
 RMSU=  3.22D-09    CP:  9.64D-01  1.50D+00  6.89D-01  6.30D-01  9.00D-01
                    CP:  9.35D-01  1.17D+00  1.30D+00  1.69D+00  2.15D+00
                    CP:  1.95D+00  1.99D+00  1.42D+00  1.41D+00  1.71D+00
                    CP:  1.83D+00  1.80D+00  1.20D+00
 E= -4069.81241446810     Delta-E=        0.000000000018 Rises=F Damp=F
 DIIS: error= 3.55D-08 at cycle  19 NSaved=  19.
 NSaved=19 IEnMin=18 EnMin= -4069.81241446812     IErMin=19 ErrMin= 3.55D-08
 ErrMax= 3.55D-08  0.00D+00 EMaxC= 1.00D-01 BMatC= 3.26D-12 BMatP= 6.18D-12
 IDIUse=1 WtCom= 1.00D+00 WtEn= 0.00D+00
 Coeff-Com:  0.337D-05-0.685D-05-0.110D-04-0.131D-04 0.209D-04 0.161D-03
 Coeff-Com:  0.594D-03 0.879D-03-0.100D-02-0.729D-02-0.511D-02 0.166D-01
 Coeff-Com:  0.248D-01 0.811D-02-0.933D-01-0.199D+00-0.130D+00 0.601D+00
 Coeff-Com:  0.784D+00
 Coeff:      0.337D-05-0.685D-05-0.110D-04-0.131D-04 0.209D-04 0.161D-03
 Coeff:      0.594D-03 0.879D-03-0.100D-02-0.729D-02-0.511D-02 0.166D-01
 Coeff:      0.248D-01 0.811D-02-0.933D-01-0.199D+00-0.130D+00 0.601D+00
 Coeff:      0.784D+00
 Gap=     0.123 Goal=   None    Shift=    0.000
 RMSDP=7.59D-09 MaxDP=4.83D-07 DE= 1.82D-11 OVMax= 4.27D-06

 SCF Done:  E(RCAM-B3LYP) =  -4069.81241447     A.U. after   19 cycles
            NFock= 19  Conv=0.76D-08     -V/T= 2.0102
 KE= 4.028801432407D+03 PE=-3.919294535032D+04 EE= 1.623861877571D+04
 Leave Link  502 at Fri Sep 10 12:02:22 2021, MaxMem= 23488102400 cpu:           13496.7 elap:             587.2
 (Enter /sw/apps/gaussian-16.0/g16/l801.exe)
 DoSCS=F DFT=T ScalE2(SS,OS)=  1.000000  1.000000
 ExpMin= 3.36D-02 ExpMax= 4.95D+03 ExpMxC= 7.45D+02 IAcc=3 IRadAn=         5 AccDes= 0.00D+00
 HarFok:  IExCor=  205 AccDes= 0.00D+00 IRadAn=         5 IDoV=-2 UseB2=F ITyADJ=14
 ICtDFT= 12500011 ScaDFX=  1.000000  1.000000  1.000000  1.000000
 GSVD:  LWork=       -9588 too small for GESVD, short by       45590 words or       45590 for optimal perf.
 Largest valence mixing into a core orbital is  2.03D-04
 Largest core mixing into a valence orbital is  5.23D-05
 Range of M.O.s used for correlation:    95  1572
 NBasis=  1572 NAE=   312 NBE=   312 NFC=    94 NFV=     0
 NROrb=   1478 NOA=   218 NOB=   218 NVA=  1260 NVB=  1260
 Leave Link  801 at Fri Sep 10 12:02:22 2021, MaxMem= 23488102400 cpu:               7.8 elap:               0.4
 (Enter /sw/apps/gaussian-16.0/g16/l914.exe)
 RHF ground state
 Two-electron integrals replicated using symmetry.
 MDV= 23488102400 DFT=T DoStab=F Mixed=T DoRPA=T DoScal=F NonHer=T
 Making orbital integer symmetry assigments:
 Orbital symmetries:
       Occupied  (A) (A) (A) (A) (A) (A) (A) (A) (A) (A) (A) (A)
                 (A) (A) (A) (A) (A) (A) (A) (A) (A) (A) (A) (A)
                 (A) (A) (A) (A) (A) (A) (A) (A) (A) (A) (A) (A)
                 (A) (A) (A) (A) (A) (A) (A) (A) (A) (A) (A) (A)
                 (A) (A) (A) (A) (A) (A) (A) (A) (A) (A) (A) (A)
                 (A) (A) (A) (A) (A) (A) (A) (A) (A) (A) (A) (A)
                 (A) (A) (A) (A) (A) (A) (A) (A) (A) (A) (A) (A)
                 (A) (A) (A) (A) (A) (A) (A) (A) (A) (A) (A) (A)
                 (A) (A) (A) (A) (A) (A) (A) (A) (A) (A) (A) (A)
                 (A) (A) (A) (A) (A) (A) (A) (A) (A) (A) (A) (A)
                 (A) (A) (A) (A) (A) (A) (A) (A) (A) (A) (A) (A)
                 (A) (A) (A) (A) (A) (A) (A) (A) (A) (A) (A) (A)
                 (A) (A) (A) (A) (A) (A) (A) (A) (A) (A) (A) (A)
                 (A) (A) (A) (A) (A) (A) (A) (A) (A) (A) (A) (A)
                 (A) (A) (A) (A) (A) (A) (A) (A) (A) (A) (A) (A)
                 (A) (A) (A) (A) (A) (A) (A) (A) (A) (A) (A) (A)
                 (A) (A) (A) (A) (A) (A) (A) (A) (A) (A) (A) (A)
                 (A) (A) (A) (A) (A) (A) (A) (A) (A) (A) (A) (A)
                 (A) (A) (A) (A) (A) (A) (A) (A) (A) (A) (A) (A)
                 (A) (A) (A) (A) (A) (A) (A) (A) (A) (A) (A) (A)
                 (A) (A) (A) (A) (A) (A) (A) (A) (A) (A) (A) (A)
                 (A) (A) (A) (A) (A) (A) (A) (A) (A) (A) (A) (A)
                 (A) (A) (A) (A) (A) (A) (A) (A) (A) (A) (A) (A)
                 (A) (A) (A) (A) (A) (A) (A) (A) (A) (A) (A) (A)
                 (A) (A) (A) (A) (A) (A) (A) (A) (A) (A) (A) (A)
                 (A) (A) (A) (A) (A) (A) (A) (A) (A) (A) (A) (A)
       Virtual   (A) (A) (A) (A) (A) (A) (A) (A) (A) (A) (A) (A)
                 (A) (A) (A) (A) (A) (A) (A) (A) (A) (A) (A) (A)
                 (A) (A) (A) (A) (A) (A) (A) (A) (A) (A) (A) (A)
                 (A) (A) (A) (A) (A) (A) (A) (A) (A) (A) (A) (A)
                 (A) (A) (A) (A) (A) (A) (A) (A) (A) (A) (A) (A)
                 (A) (A) (A) (A) (A) (A) (A) (A) (A) (A) (A) (A)
                 (A) (A) (A) (A) (A) (A) (A) (A) (A) (A) (A) (A)
                 (A) (A) (A) (A) (A) (A) (A) (A) (A) (A) (A) (A)
                 (A) (A) (A) (A) (A) (A) (A) (A) (A) (A) (A) (A)
                 (A) (A) (A) (A) (A) (A) (A) (A) (A) (A) (A) (A)
                 (A) (A) (A) (A) (A) (A) (A) (A) (A) (A) (A) (A)
                 (A) (A) (A) (A) (A) (A) (A) (A) (A) (A) (A) (A)
                 (A) (A) (A) (A) (A) (A) (A) (A) (A) (A) (A) (A)
                 (A) (A) (A) (A) (A) (A) (A) (A) (A) (A) (A) (A)
                 (A) (A) (A) (A) (A) (A) (A) (A) (A) (A) (A) (A)
                 (A) (A) (A) (A) (A) (A) (A) (A) (A) (A) (A) (A)
                 (A) (A) (A) (A) (A) (A) (A) (A) (A) (A) (A) (A)
                 (A) (A) (A) (A) (A) (A) (A) (A) (A) (A) (A) (A)
                 (A) (A) (A) (A) (A) (A) (A) (A) (A) (A) (A) (A)
                 (A) (A) (A) (A) (A) (A) (A) (A) (A) (A) (A) (A)
                 (A) (A) (A) (A) (A) (A) (A) (A) (A) (A) (A) (A)
                 (A) (A) (A) (A) (A) (A) (A) (A) (A) (A) (A) (A)
                 (A) (A) (A) (A) (A) (A) (A) (A) (A) (A) (A) (A)
                 (A) (A) (A) (A) (A) (A) (A) (A) (A) (A) (A) (A)
                 (A) (A) (A) (A) (A) (A) (A) (A) (A) (A) (A) (A)
                 (A) (A) (A) (A) (A) (A) (A) (A) (A) (A) (A) (A)
                 (A) (A) (A) (A) (A) (A) (A) (A) (A) (A) (A) (A)
                 (A) (A) (A) (A) (A) (A) (A) (A) (A) (A) (A) (A)
                 (A) (A) (A) (A) (A) (A) (A) (A) (A) (A) (A) (A)
                 (A) (A) (A) (A) (A) (A) (A) (A) (A) (A) (A) (A)
                 (A) (A) (A) (A) (A) (A) (A) (A) (A) (A) (A) (A)
                 (A) (A) (A) (A) (A) (A) (A) (A) (A) (A) (A) (A)
                 (A) (A) (A) (A) (A) (A) (A) (A) (A) (A) (A) (A)
                 (A) (A) (A) (A) (A) (A) (A) (A) (A) (A) (A) (A)
                 (A) (A) (A) (A) (A) (A) (A) (A) (A) (A) (A) (A)
                 (A) (A) (A) (A) (A) (A) (A) (A) (A) (A) (A) (A)
                 (A) (A) (A) (A) (A) (A) (A) (A) (A) (A) (A) (A)
                 (A) (A) (A) (A) (A) (A) (A) (A) (A) (A) (A) (A)
                 (A) (A) (A) (A) (A) (A) (A) (A) (A) (A) (A) (A)
                 (A) (A) (A) (A) (A) (A) (A) (A) (A) (A) (A) (A)
                 (A) (A) (A) (A) (A) (A) (A) (A) (A) (A) (A) (A)
                 (A) (A) (A) (A) (A) (A) (A) (A) (A) (A) (A) (A)
                 (A) (A) (A) (A) (A) (A) (A) (A) (A) (A) (A) (A)
                 (A) (A) (A) (A) (A) (A) (A) (A) (A) (A) (A) (A)
                 (A) (A) (A) (A) (A) (A) (A) (A) (A) (A) (A) (A)
                 (A) (A) (A) (A) (A) (A) (A) (A) (A) (A) (A) (A)
                 (A) (A) (A) (A) (A) (A) (A) (A) (A) (A) (A) (A)
                 (A) (A) (A) (A) (A) (A) (A) (A) (A) (A) (A) (A)
                 (A) (A) (A) (A) (A) (A) (A) (A) (A) (A) (A) (A)
                 (A) (A) (A) (A) (A) (A) (A) (A) (A) (A) (A) (A)
                 (A) (A) (A) (A) (A) (A) (A) (A) (A) (A) (A) (A)
                 (A) (A) (A) (A) (A) (A) (A) (A) (A) (A) (A) (A)
                 (A) (A) (A) (A) (A) (A) (A) (A) (A) (A) (A) (A)
                 (A) (A) (A) (A) (A) (A) (A) (A) (A) (A) (A) (A)
                 (A) (A) (A) (A) (A) (A) (A) (A) (A) (A) (A) (A)
                 (A) (A) (A) (A) (A) (A) (A) (A) (A) (A) (A) (A)
                 (A) (A) (A) (A) (A) (A) (A) (A) (A) (A) (A) (A)
                 (A) (A) (A) (A) (A) (A) (A) (A) (A) (A) (A) (A)
                 (A) (A) (A) (A) (A) (A) (A) (A) (A) (A) (A) (A)
                 (A) (A) (A) (A) (A) (A) (A) (A) (A) (A) (A) (A)
                 (A) (A) (A) (A) (A) (A) (A) (A) (A) (A) (A) (A)
                 (A) (A) (A) (A) (A) (A) (A) (A) (A) (A) (A) (A)
                 (A) (A) (A) (A) (A) (A) (A) (A) (A) (A) (A) (A)
                 (A) (A) (A) (A) (A) (A) (A) (A) (A) (A) (A) (A)
                 (A) (A) (A) (A) (A) (A) (A) (A) (A) (A) (A) (A)
                 (A) (A) (A) (A) (A) (A) (A) (A) (A) (A) (A) (A)
                 (A) (A) (A) (A) (A) (A) (A) (A) (A) (A) (A) (A)
                 (A) (A) (A) (A) (A) (A) (A) (A) (A) (A) (A) (A)
                 (A) (A) (A) (A) (A) (A) (A) (A) (A) (A) (A) (A)
                 (A) (A) (A) (A) (A) (A) (A) (A) (A) (A) (A) (A)
                 (A) (A) (A) (A) (A) (A) (A) (A) (A) (A) (A) (A)
                 (A) (A) (A) (A) (A) (A) (A) (A) (A) (A) (A) (A)
                 (A) (A) (A) (A) (A) (A) (A) (A) (A) (A) (A) (A)
                 (A) (A) (A) (A) (A) (A) (A) (A) (A) (A) (A) (A)
                 (A) (A) (A) (A) (A) (A) (A) (A) (A) (A) (A) (A)
                 (A) (A) (A) (A) (A) (A) (A) (A) (A) (A) (A) (A)
                 (A) (A) (A) (A) (A) (A) (A) (A) (A) (A) (A) (A)
                 (A) (A) (A) (A) (A) (A) (A) (A) (A) (A) (A) (A)
                 (A) (A) (A) (A) (A) (A) (A) (A) (A) (A) (A) (A)
                 (A) (A) (A) (A) (A) (A) (A) (A) (A) (A) (A) (A)
                 (A) (A) (A) (A) (A) (A) (A) (A) (A) (A) (A) (A)
                 (A) (A) (A) (A) (A) (A) (A) (A) (A) (A) (A) (A)
                 (A) (A) (A) (A) (A) (A) (A) (A) (A) (A) (A) (A)
                 (A) (A) (A) (A) (A) (A) (A) (A) (A) (A) (A) (A)
                 (A) (A) (A) (A) (A) (A) (A) (A) (A) (A) (A) (A)
                 (A) (A) (A) (A) (A) (A) (A) (A) (A) (A) (A) (A)
                 (A) (A) (A) (A) (A) (A) (A) (A) (A) (A) (A) (A)
                 (A) (A) (A) (A) (A) (A) (A) (A) (A) (A) (A) (A)
                 (A) (A) (A) (A) (A) (A) (A) (A) (A) (A) (A) (A)
                 (A) (A) (A) (A) (A) (A) (A) (A) (A) (A) (A) (A)
                 (A) (A) (A) (A) (A) (A) (A) (A) (A) (A) (A) (A)
                 (A) (A) (A) (A) (A) (A) (A) (A) (A) (A) (A) (A)
                 (A) (A) (A) (A) (A) (A) (A) (A) (A) (A) (A) (A)
                 (A) (A) (A) (A) (A) (A) (A) (A) (A) (A) (A) (A)
                 (A) (A) (A) (A) (A) (A) (A) (A) (A) (A) (A) (A)
                 (A) (A) (A) (A) (A) (A) (A) (A) (A) (A) (A) (A)
                 (A) (A) (A) (A) (A) (A) (A) (A) (A) (A) (A) (A)
                 (A) (A) (A) (A) (A) (A) (A) (A) (A) (A) (A) (A)
                 (A) (A) (A) (A) (A) (A) (A) (A) (A) (A) (A) (A)
                 (A) (A) (A) (A) (A) (A) (A) (A) (A) (A) (A) (A)
                 (A) (A) (A) (A) (A) (A) (A) (A) (A) (A) (A) (A)
                 (A) (A) (A) (A) (A) (A) (A) (A) (A) (A) (A) (A)
                 (A) (A) (A) (A) (A) (A) (A) (A) (A) (A) (A) (A)
                 (A) (A) (A) (A) (A) (A) (A) (A) (A) (A) (A) (A)
                 (A) (A) (A) (A) (A) (A) (A) (A) (A) (A) (A) (A)
    20 initial guesses have been made.
 Convergence on wavefunction:    0.001000000000000
 Davidson Disk Diagonalization:  ConvIn= 1.00D-03 SkipCon=T Conv= 1.00D-03.
 Max sub-space:  2000 roots to seek:    20 dimension of matrix:       549360
 Iteration     1 Dimension    20 NMult     0 NNew     20
 CISAX will form    20 AO SS matrices at one time.
 NMat=    20 NSing=    20 JSym2X= 0.
 FoFJK:  IHMeth= 1 ICntrl=       0 DoSepK=T KAlg= 0 I1Cent=           0 FoldK=F
 IRaf=         1 NMat=      40 IRICut=       1 DoRegI=T DoRafI=F ISym2E= 0 IDoP0=3 IntGTp=3.
 FoFCou: FMM=T IPFlag=           0 FMFlag=      100000 FMFlg1=        2001
         NFxFlg=           0 DoJE=F BraDBF=F KetDBF=F FulRan=T
         wScrn=  0.000000 ICntrl=       500 IOpCl=  0 I1Cent=           0 NGrid=           0
         NMat0=   20 NMatS0=     20 NMatT0=    0 NMatD0=   20 NMtDS0=    0 NMtDT0=    0
 Symmetry not used in FoFCou.
 FMM levels:  10  Number of levels for PrismC:   9
 New state      2 was old state      4
 New state      3 was old state      7
 New state      4 was old state      6
 New state      5 was old state      2
 Excitation Energies [eV] at current iteration:
 Root      1 :     2.566333547941041
 Root      2 :     2.606221307823120
 Root      3 :     2.611452143117779
 Root      4 :     2.617858210425429
 Root      5 :     2.644824516166048
 Root      6 :     2.730021853538969
 Root      7 :     3.363762099699922
 Root      8 :     3.406378212746060
 Root      9 :     3.636919987755145
 Root     10 :     3.675372625247512
 Root     11 :     3.726408397540458
 Root     12 :     3.756064660868395
 Root     13 :     4.276314443560537
 Root     14 :     4.339774862070520
 Root     15 :     4.473557452343642
 Root     16 :     4.525678620294911
 Root     17 :     4.709296355677072
 Root     18 :     4.829685904044615
 Root     19 :     4.834022647306970
 Root     20 :     4.867717959956436
 Iteration     2 Dimension    30 NMult    20 NNew     10
 CISAX will form    10 AO SS matrices at one time.
 NMat=    10 NSing=    10 JSym2X= 0.
 New state      1 was old state      5
 Root      1 not converged, maximum delta is    0.181670683854018
 New state      2 was old state      3
 Root      2 not converged, maximum delta is    0.391642433515172
 New state      3 was old state      4
 Root      3 not converged, maximum delta is    0.460219812766783
 New state      4 was old state      1
 Root      4 not converged, maximum delta is    0.004559335959826
 New state      5 was old state      2
 Root      5 not converged, maximum delta is    0.009653867421471
 Excitation Energies [eV] at current iteration:
 Root      1 :     1.780795616063992   Change is   -0.864028900102057
 Root      2 :     2.232217579528282   Change is   -0.379234563589497
 Root      3 :     2.241174887059608   Change is   -0.376683323365821
 Root      4 :     2.565804444076490   Change is   -0.000529103864551
 Root      5 :     2.605271940911403   Change is   -0.000949366911717
 Iteration     3 Dimension    40 NMult    30 NNew     10
 CISAX will form    10 AO SS matrices at one time.
 NMat=    10 NSing=    10 JSym2X= 0.
 Root      1 not converged, maximum delta is    0.053718023774422
 Root      2 not converged, maximum delta is    0.140314915077137
 Root      3 not converged, maximum delta is    0.139271590123071
 Root      4 has converged.
 Root      5 not converged, maximum delta is    0.001694505859938
 Excitation Energies [eV] at current iteration:
 Root      1 :     1.675732951004217   Change is   -0.105062665059775
 Root      2 :     2.181679119967197   Change is   -0.050538459561085
 Root      3 :     2.199023880929977   Change is   -0.042151006129631
 Root      4 :     2.565801039259104   Change is   -0.000003404817386
 Root      5 :     2.605262359059548   Change is   -0.000009581851856
 Iteration     4 Dimension    48 NMult    40 NNew      8
 CISAX will form     8 AO SS matrices at one time.
 NMat=     8 NSing=     8 JSym2X= 0.
 Root      1 not converged, maximum delta is    0.010291333581529
 Root      2 not converged, maximum delta is    0.528146204086498
 Root      3 not converged, maximum delta is    0.465712083293540
 No map to state      4
 New state      5 was old state      4
 Root      5 has converged.
 Excitation Energies [eV] at current iteration:
 Root      1 :     1.659107854562173   Change is   -0.016625096442044
 Root      2 :     1.807831621545212   Change is   -0.373847498421985
 Root      3 :     2.188194798991256   Change is   -0.010829081938720
 Root      4 :     2.198518810436092
 Root      5 :     2.565801039900603   Change is    0.000000000641499
 Iteration     5 Dimension    56 NMult    48 NNew      8
 CISAX will form     8 AO SS matrices at one time.
 NMat=     8 NSing=     8 JSym2X= 0.
 Root      1 not converged, maximum delta is    0.001588692327151
 Root      2 not converged, maximum delta is    0.036589722744132
 Root      3 not converged, maximum delta is    0.088407054906823
 Root      4 not converged, maximum delta is    0.087941664374387
 Root      5 has converged.
 Excitation Energies [eV] at current iteration:
 Root      1 :     1.657398402077463   Change is   -0.001709452484709
 Root      2 :     1.712678158579546   Change is   -0.095153462965666
 Root      3 :     2.186295002767001   Change is   -0.001899796224256
 Root      4 :     2.195658117094316   Change is   -0.002860693341776
 Root      5 :     2.565801039369641   Change is   -0.000000000530962
 Iteration     6 Dimension    64 NMult    56 NNew      8
 CISAX will form     8 AO SS matrices at one time.
 NMat=     8 NSing=     8 JSym2X= 0.
 Root      1 not converged, maximum delta is    0.001069373829013
 Root      2 not converged, maximum delta is    0.007984621304967
 Root      3 not converged, maximum delta is    0.011043110387221
 Root      4 not converged, maximum delta is    0.011187532589387
 Root      5 has converged.
 Excitation Energies [eV] at current iteration:
 Root      1 :     1.657153812378046   Change is   -0.000244589699418
 Root      2 :     1.698761099805543   Change is   -0.013917058774004
 Root      3 :     2.186020392361465   Change is   -0.000274610405536
 Root      4 :     2.195303111630943   Change is   -0.000355005463373
 Root      5 :     2.565801039259905   Change is   -0.000000000109736
 Iteration     7 Dimension    72 NMult    64 NNew      8
 CISAX will form     8 AO SS matrices at one time.
 NMat=     8 NSing=     8 JSym2X= 0.
 Root      1 has converged.
 Root      2 not converged, maximum delta is    0.001946336143817
 Root      3 has converged.
 Root      4 has converged.
 Root      5 has converged.
 Excitation Energies [eV] at current iteration:
 Root      1 :     1.657129633129170   Change is   -0.000024179248875
[...]
 Alpha virt. eigenvalues --    1.82913   1.82940   1.83135   1.83319   1.83476
 Alpha virt. eigenvalues --    1.83600   1.83888   1.84022   1.84163   1.84318
 Alpha virt. eigenvalues --    1.84567   1.84643   1.84927   1.84942   1.85227
 Alpha virt. eigenvalues --    1.85229   1.85402   1.85504   1.85676   1.85680
 Alpha virt. eigenvalues --    1.85996   1.86022   1.86501   1.86512   1.86695
 Alpha virt. eigenvalues --    1.86775   1.86908   1.86949   1.87124   1.87139
 Alpha virt. eigenvalues --    1.87566   1.87593   1.87776   1.87855   1.87997
 Alpha virt. eigenvalues --    1.88127   1.88169   1.88298   1.88667   1.88707
 Alpha virt. eigenvalues --    1.88932   1.89054   1.89155   1.89259   1.89769
 Alpha virt. eigenvalues --    1.89811   1.89895   1.90033   1.90241   1.90321
 Alpha virt. eigenvalues --    1.90849   1.90982   1.91449   1.91516   1.91554
 Alpha virt. eigenvalues --    1.91686   1.92264   1.92279   1.92721   1.92751
 Alpha virt. eigenvalues --    1.93106   1.93263   1.93475   1.93613   1.94410
 Alpha virt. eigenvalues --    1.94414   1.94825   1.94940   1.95615   1.95685
 Alpha virt. eigenvalues --    1.95825   1.95894   1.96087   1.96155   1.96258
 Alpha virt. eigenvalues --    1.96295   1.96576   1.96712   1.97031   1.97067
 Alpha virt. eigenvalues --    1.97567   1.97616   1.97881   1.97956   1.98258
 Alpha virt. eigenvalues --    1.98273   1.98410   1.98712   1.99180   1.99237
 Alpha virt. eigenvalues --    1.99916   2.00037   2.00785   2.00823   2.01092
 Alpha virt. eigenvalues --    2.01194   2.01556   2.01616   2.01708   2.01790
 Alpha virt. eigenvalues --    2.01820   2.01913   2.02809   2.02897   2.03225
 Alpha virt. eigenvalues --    2.03356   2.03481   2.03501   2.03566   2.03613
 Alpha virt. eigenvalues --    2.04119   2.04140   2.05094   2.05108   2.05647
 Alpha virt. eigenvalues --    2.05763   2.06205   2.06417   2.06963   2.07097
 Alpha virt. eigenvalues --    2.07283   2.07441   2.08729   2.08743   2.09102
 Alpha virt. eigenvalues --    2.09108   2.09691   2.09725   2.10931   2.11136
 Alpha virt. eigenvalues --    2.11294   2.11521   2.11615   2.11631   2.11854
 Alpha virt. eigenvalues --    2.12007   2.12561   2.12570   2.12924   2.12929
 Alpha virt. eigenvalues --    2.12956   2.12966   2.13718   2.13854   2.14266
 Alpha virt. eigenvalues --    2.14340   2.15460   2.15535   2.16018   2.16165
 Alpha virt. eigenvalues --    2.16656   2.16707   2.16850   2.17271   2.17528
 Alpha virt. eigenvalues --    2.17753   2.17823   2.18020   2.18105   2.18191
 Alpha virt. eigenvalues --    2.18405   2.18751   2.18952   2.19310   2.19742
 Alpha virt. eigenvalues --    2.19923   2.20152   2.20300   2.20324   2.20553
 Alpha virt. eigenvalues --    2.21284   2.21305   2.21791   2.21822   2.21868
 Alpha virt. eigenvalues --    2.21972   2.22806   2.22815   2.23431   2.23433
 Alpha virt. eigenvalues --    2.24525   2.24530   2.25121   2.25143   2.26382
 Alpha virt. eigenvalues --    2.26532   2.26901   2.27106   2.27189   2.27294
 Alpha virt. eigenvalues --    2.28248   2.28415   2.29394   2.29552   2.29836
 Alpha virt. eigenvalues --    2.29978   2.30550   2.30689   2.30879   2.31157
 Alpha virt. eigenvalues --    2.31251   2.31296   2.32256   2.32356   2.33235
 Alpha virt. eigenvalues --    2.33340   2.33568   2.33570   2.34223   2.34264
 Alpha virt. eigenvalues --    2.35353   2.35424   2.35905   2.36021   2.36463
 Alpha virt. eigenvalues --    2.36499   2.36554   2.36744   2.37771   2.37793
 Alpha virt. eigenvalues --    2.38411   2.38537   2.38878   2.38951   2.39725
 Alpha virt. eigenvalues --    2.39773   2.40309   2.40353   2.40583   2.40915
 Alpha virt. eigenvalues --    2.41291   2.41358   2.41794   2.41831   2.42103
 Alpha virt. eigenvalues --    2.42201   2.42939   2.43051   2.43098   2.43518
 Alpha virt. eigenvalues --    2.44101   2.44263   2.44846   2.44919   2.45011
 Alpha virt. eigenvalues --    2.45073   2.45656   2.45678   2.46421   2.46441
 Alpha virt. eigenvalues --    2.46579   2.46615   2.46893   2.46897   2.47353
 Alpha virt. eigenvalues --    2.47456   2.47830   2.47984   2.49452   2.49523
 Alpha virt. eigenvalues --    2.49991   2.50224   2.50604   2.50709   2.51207
 Alpha virt. eigenvalues --    2.51339   2.51739   2.51991   2.52462   2.52528
 Alpha virt. eigenvalues --    2.52914   2.53258   2.54042   2.54085   2.54306
 Alpha virt. eigenvalues --    2.54443   2.54889   2.54897   2.55648   2.55773
 Alpha virt. eigenvalues --    2.57996   2.58199   2.58764   2.58998   2.60280
 Alpha virt. eigenvalues --    2.60368   2.60712   2.61013   2.61843   2.61936
 Alpha virt. eigenvalues --    2.62524   2.62637   2.63056   2.63205   2.64049
 Alpha virt. eigenvalues --    2.64322   2.64386   2.64497   2.65178   2.65192
 Alpha virt. eigenvalues --    2.65887   2.65941   2.66915   2.66917   2.67036
 Alpha virt. eigenvalues --    2.67152   2.68030   2.68062   2.68920   2.68966
 Alpha virt. eigenvalues --    2.69090   2.69112   2.69525   2.69672   2.70113
 Alpha virt. eigenvalues --    2.70223   2.71081   2.71132   2.71952   2.72128
 Alpha virt. eigenvalues --    2.72536   2.72724   2.72783   2.72855   2.73375
 Alpha virt. eigenvalues --    2.73422   2.73472   2.73529   2.74578   2.74608
 Alpha virt. eigenvalues --    2.75068   2.75132   2.76596   2.76712   2.77136
 Alpha virt. eigenvalues --    2.77312   2.77580   2.77716   2.78337   2.78425
 Alpha virt. eigenvalues --    2.78764   2.78808   2.79227   2.79240   2.80402
 Alpha virt. eigenvalues --    2.80452   2.80662   2.80740   2.81188   2.81232
 Alpha virt. eigenvalues --    2.82031   2.82056   2.82405   2.82456   2.83808
 Alpha virt. eigenvalues --    2.83914   2.83946   2.83983   2.84619   2.84656
 Alpha virt. eigenvalues --    2.84955   2.85010   2.85807   2.85811   2.86710
 Alpha virt. eigenvalues --    2.87080   2.87187   2.87637   2.88300   2.88378
 Alpha virt. eigenvalues --    2.88606   2.88674   2.88958   2.89045   2.90601
 Alpha virt. eigenvalues --    2.90717   2.91130   2.91314   2.93254   2.93397
 Alpha virt. eigenvalues --    2.93847   2.94315   2.94673   2.94706   2.95455
 Alpha virt. eigenvalues --    2.95527   2.95822   2.96213   2.96445   2.96566
 Alpha virt. eigenvalues --    2.96874   2.97211   2.97878   2.98167   2.98339
 Alpha virt. eigenvalues --    2.98396   2.98465   2.98651   2.98681   2.98834
 Alpha virt. eigenvalues --    2.99002   2.99004   2.99754   2.99922   3.00033
 Alpha virt. eigenvalues --    3.00080   3.00339   3.00485   3.00547   3.01055
 Alpha virt. eigenvalues --    3.01961   3.02123   3.02147   3.02187   3.02767
 Alpha virt. eigenvalues --    3.02884   3.03058   3.03458   3.03475   3.03759
 Alpha virt. eigenvalues --    3.04112   3.04305   3.04496   3.04535   3.04681
 Alpha virt. eigenvalues --    3.04777   3.05433   3.05463   3.06220   3.06229
 Alpha virt. eigenvalues --    3.06896   3.07002   3.08054   3.08301   3.09455
 Alpha virt. eigenvalues --    3.09502   3.09803   3.10478   3.10549   3.10810
 Alpha virt. eigenvalues --    3.11463   3.11541   3.11957   3.12017   3.12344
 Alpha virt. eigenvalues --    3.12355   3.13380   3.13713   3.13781   3.13784
 Alpha virt. eigenvalues --    3.14101   3.14469   3.16061   3.16090   3.17357
 Alpha virt. eigenvalues --    3.17584   3.18003   3.18233   3.19137   3.19263
 Alpha virt. eigenvalues --    3.22305   3.22601   3.24047   3.24504   3.24723
 Alpha virt. eigenvalues --    3.25233   3.26610   3.26732   3.27462   3.27723
 Alpha virt. eigenvalues --    3.29089   3.29210   3.31451   3.31626   3.33267
 Alpha virt. eigenvalues --    3.33535   3.40226   3.40595   3.42937   3.42960
 Alpha virt. eigenvalues --    3.48737   3.48756   3.50138   3.50362   3.50919
 Alpha virt. eigenvalues --    3.51593   3.56670   3.57090   3.59224   3.59416
 Alpha virt. eigenvalues --    3.62583   3.62929   3.66243   3.66339   3.67171
 Alpha virt. eigenvalues --    3.67523   3.73268   3.74018   3.76070   3.76687
          Condensed to atoms (all electrons):
 Mulliken charges:
               1
     1  Mg   0.839295
     2  C   -0.003340
     3  C   -0.093645
     4  C   -0.045697
     5  C   -0.063625
     6  N   -0.256846
     7  C   -0.052628
     8  C   -0.014111
     9  C   -0.087141
    10  C    0.046573
    11  C    0.104810
    12  C    0.053311
    13  C   -0.071429
    14  H    0.034649
    15  N   -0.433264
    16  C    0.168974
    17  C   -0.176403
    18  C   -0.003467
    19  C    0.148976
    20  C    0.110018
    21  C    0.012848
    22  O   -0.249701
    23  C    0.062017
    24  N   -0.341210
    25  C    0.041501
    26  C   -0.028170
    27  C   -0.023933
    28  C    0.074813
    29  C    0.076242
    30  C    0.035079
    31  C   -0.004842
    32  N   -0.310201
    33  C    0.080069
    34  C   -0.170314
    35  C    0.007632
    36  C    0.082616
    37  C    0.127559
    38  C    0.045124
    39  O   -0.189954
    40  C   -0.005052
    41  C    0.212762
    42  O   -0.258455
    43  O   -0.304379
    44  C    0.158253
    45  H   -0.017485
    46  H   -0.016698
    47  H   -0.041459
    48  H    0.000474
    49  H   -0.003734
    50  H    0.025249
    51  H    0.016574
    52  H    0.016633
    53  H    0.012407
    54  H    0.043320
    55  H    0.017693
    56  H    0.018607
    57  H    0.005869
    58  H    0.026726
    59  H    0.041521
    60  H    0.037084
    61  H    0.035845
    62  H    0.033382
    63  H    0.016770
    64  H    0.009160
    65  H    0.023156
    66  H    0.012392
    67  H    0.004641
    68  H    0.006084
    69  H    0.004872
    70  H    0.008347
    71  H    0.020441
    72  H    0.028793
    73  H    0.046269
    74  H    0.009529
    75  H    0.045784
    76  H    0.035064
    77  H    0.042606
    78  H    0.046733
    79  H    0.052039
    80  Mg   0.838113
    81  C   -0.017019
    82  C   -0.086579
    83  C   -0.045611
    84  C   -0.064919
    85  N   -0.254554
    86  C   -0.050184
    87  C   -0.015191
    88  C   -0.090703
    89  C    0.045953
    90  C    0.114400
    91  C    0.062163
    92  C   -0.077392
    93  H    0.033167
    94  N   -0.423696
    95  C    0.163714
    96  C   -0.173121
    97  C   -0.007102
    98  C    0.152276
    99  C    0.098850
   100  C    0.016059
   101  O   -0.254271
   102  C    0.060261
   103  N   -0.350043
   104  C    0.037741
   105  C   -0.019788
   106  C   -0.034573
   107  C    0.088580
   108  C    0.073829
   109  C    0.034822
   110  C   -0.007595
   111  N   -0.323863
   112  C    0.077885
   113  C   -0.163717
   114  C    0.001780
   115  C    0.095803
   116  C    0.131643
   117  C    0.041761
   118  O   -0.189155
   119  C    0.001061
   120  C    0.211180
   121  O   -0.251682
   122  O   -0.305449
   123  C    0.152425
   124  H   -0.019401
   125  H   -0.015851
   126  H   -0.040962
   127  H   -0.001228
   128  H   -0.003805
   129  H    0.022132
   130  H    0.014465
   131  H    0.016134
   132  H    0.015641
   133  H    0.037036
   134  H    0.020418
   135  H    0.020193
   136  H    0.008683
   137  H    0.025603
   138  H    0.044920
   139  H    0.038013
   140  H    0.035764
   141  H    0.038444
   142  H    0.014134
   143  H    0.011979
   144  H    0.024756
   145  H    0.011639
   146  H    0.005409
   147  H    0.005733
   148  H    0.003411
   149  H    0.010558
   150  H    0.018371
   151  H    0.030334
   152  H    0.045208
   153  H    0.008284
   154  H    0.046461
   155  H    0.034698
   156  H    0.043446
   157  H    0.049516
   158  H    0.052608
 Sum of Mulliken charges =  -0.00000
 Mulliken charges with hydrogens summed into heavy atoms:
               1
     1  Mg   0.839295
     2  C   -0.003340
     3  C   -0.111130
     4  C   -0.062395
     5  C   -0.105084
     6  N   -0.256846
     7  C   -0.052628
     8  C   -0.013637
     9  C   -0.090875
    10  C    0.046573
    11  C    0.163266
    12  C    0.109037
    13  C   -0.000480
    15  N   -0.433264
    16  C    0.168974
    17  C   -0.176403
    18  C   -0.003467
    19  C    0.148976
    20  C    0.184134
    21  C    0.012848
    22  O   -0.249701
    23  C    0.168329
    24  N   -0.341210
    25  C    0.041501
    26  C   -0.011400
    27  C   -0.014774
    28  C    0.074813
    29  C    0.116430
    30  C    0.046035
    31  C    0.052739
    32  N   -0.310201
    33  C    0.080069
    34  C   -0.170314
    35  C    0.007632
    36  C    0.082616
    37  C    0.229141
    38  C    0.045124
    39  O   -0.189954
    40  C    0.030012
    41  C    0.212762
    42  O   -0.258455
    43  O   -0.304379
    44  C    0.299631
    80  Mg   0.838113
    81  C   -0.017019
    82  C   -0.105980
    83  C   -0.061462
    84  C   -0.105882
    85  N   -0.254554
    86  C   -0.050184
    87  C   -0.016420
    88  C   -0.094509
    89  C    0.045953
    90  C    0.167132
    91  C    0.114841
    92  C   -0.003615
    94  N   -0.423696
    95  C    0.163714
    96  C   -0.173121
    97  C   -0.007102
    98  C    0.152276
    99  C    0.178056
   100  C    0.016059
   101  O   -0.254271
   102  C    0.172482
   103  N   -0.350043
   104  C    0.037741
   105  C   -0.005654
   106  C   -0.022594
   107  C    0.088580
   108  C    0.115634
   109  C    0.043966
   110  C    0.051667
   111  N   -0.323863
   112  C    0.077885
   113  C   -0.163717
   114  C    0.001780
   115  C    0.095803
   116  C    0.231596
   117  C    0.041761
   118  O   -0.189155
   119  C    0.035759
   120  C    0.211180
   121  O   -0.251682
   122  O   -0.305449
   123  C    0.297994
 Electronic spatial extent (au):  <R**2>=         118315.6640
 Charge=             -0.0000 electrons
 Dipole moment (field-independent basis, Debye):
    X=              1.2942    Y=              3.0767    Z=              0.1273  Tot=              3.3403
 Quadrupole moment (field-independent basis, Debye-Ang):
   XX=           -503.3529   YY=           -461.5191   ZZ=           -530.4468
   XY=              3.1310   XZ=             51.0103   YZ=              7.8706
 Traceless Quadrupole moment (field-independent basis, Debye-Ang):
   XX=             -4.9133   YY=             36.9205   ZZ=            -32.0072
   XY=              3.1310   XZ=             51.0103   YZ=              7.8706
 Octapole moment (field-independent basis, Debye-Ang**2):
  XXX=            146.1201  YYY=            227.4596  ZZZ=             74.1254  XYY=            -84.6203
  XXY=            -26.0882  XXZ=            -69.0417  XZZ=             76.0096  YZZ=            145.4281
  YYZ=             -1.0499  XYZ=            293.0263
 Hexadecapole moment (field-independent basis, Debye-Ang**3):
 XXXX=         -96868.7147 YYYY=         -32953.9055 ZZZZ=         -30040.1508 XXXY=            413.3295
 XXXZ=           2141.4275 YYYX=            174.0547 YYYZ=            195.4324 ZZZX=           1649.5844
 ZZZY=            146.8128 XXYY=         -19959.7645 XXZZ=         -22575.3342 YYZZ=         -11177.5831
 XXYZ=            428.9565 YYXZ=           -882.3680 ZZXY=           -139.5143
 N-N= 1.485571272773D+04 E-N=-3.919294535168D+04  KE= 4.028801432407D+03
 Leave Link  601 at Fri Sep 10 12:27:43 2021, MaxMem= 23488102400 cpu:              14.1 elap:               0.7
 (Enter /sw/apps/gaussian-16.0/g16/l9999.exe)
 1\1\GINC-BP1-COMPUTE00082\SP\RCAM-B3LYP TD-FC\def2SVP\C68H72Mg2N8O8\OF
 15641\10-Sep-2021\0\\#p cam-b3lyp/Def2SVP td=(nstates=5)\\TDDFT excite
 d states in gaussian\\0,1\Mg,0,0.,0.,0.\C,0,-0.217,-2.218,2.801\C,0,-1
 .255,2.442,2.026\C,0,-0.245,1.85,-2.564\C,0,0.146,-2.824,-2.037\N,0,-0
 .617,-0.009,2.126\C,0,-0.594,-0.908,3.105\C,0,-0.936,-0.309,4.502\C,0,
 -1.773,0.964,4.032\C,0,-1.155,1.168,2.66\C,0,-3.263,0.685,3.863\C,0,0.
 345,0.11,5.299\C,0,0.124,0.397,6.787\H,0,1.168,0.033,7.733\N,0,-0.185,
 1.961,-0.152\C,0,-0.703,2.8,0.777\C,0,-0.62,4.156,0.193\C,0,-0.187,4.0
 15,-1.225\C,0,-0.214,2.583,-1.38\C,0,-0.887,5.406,0.974\C,0,0.181,5.01
 3,-2.277\O,0,0.303,4.69,-3.508\C,0,0.31,6.414,-1.837\N,0,-0.265,-0.413
 ,-2.029\C,0,-0.279,0.569,-2.937\C,0,-0.196,0.024,-4.332\C,0,0.124,-1.5
 33,-4.18\C,0,0.086,-1.632,-2.635\C,0,-1.451,0.205,-5.197\C,0,1.373,-2.
 07,-4.923\C,0,2.626,-1.49,-4.306\N,0,0.15,-2.144,0.303\C,0,0.173,-3.13
 6,-0.688\C,0,0.173,-4.438,0.004\C,0,0.133,-4.111,1.358\C,0,0.083,-2.69
 5,1.502\C,0,0.149,-5.715,-0.623\C,0,0.096,-4.629,2.716\O,0,0.208,-5.74
 7,3.221\C,0,-0.255,-3.428,3.701\C,0,0.717,-3.482,4.848\O,0,1.931,-3.25
 5,4.669\O,0,0.038,-3.556,6.003\C,0,0.943,-3.583,7.183\H,0,-1.859,3.22,
 2.497\H,0,-0.218,2.453,-3.474\H,0,0.276,-3.747,-2.605\H,0,-1.554,-0.94
 9,5.132\H,0,-1.585,1.831,4.665\H,0,-3.484,-0.377,3.969\H,0,-3.511,1.02
 7,2.858\H,0,-3.852,1.301,4.543\H,0,0.669,1.096,4.966\H,0,1.13,-0.639,5
 .189\H,0,-0.844,0.026,7.125\H,0,0.062,1.477,6.921\H,0,-1.344,5.186,1.9
 38\H,0,-1.651,5.963,0.432\H,0,0.007,6.02,1.084\H,0,-0.635,6.744,-1.405
 \H,0,0.665,6.97,-2.704\H,0,1.048,6.466,-1.036\H,0,0.608,0.501,-4.891\H
 ,0,-0.692,-2.156,-4.547\H,0,-1.267,0.74,-6.129\H,0,-2.204,0.714,-4.596
 \H,0,-1.967,-0.72,-5.453\H,0,1.356,-1.759,-5.967\H,0,1.452,-3.157,-4.9
 02\H,0,2.714,-0.522,-4.798\H,0,3.487,-2.121,-4.529\H,0,2.495,-1.303,-3
 .24\H,0,0.867,-6.333,-0.084\H,0,0.404,-5.642,-1.68\H,0,-0.891,-5.999,-
 0.463\H,0,-1.283,-3.581,4.028\H,0,0.698,-4.478,7.755\H,0,0.833,-2.619,
 7.68\H,0,2.,-3.754,6.976\Mg,0,10.50247,0.94478,0.80476\C,0,10.98533,3.
 57166,3.20172\C,0,10.69447,-1.25749,3.4024\C,0,10.53074,-1.409,-1.3227
 7\C,0,11.4809,3.20439,-1.66153\N,0,10.80238,1.24042,2.97614\C,0,10.912
 14,2.2873,3.78009\C,0,10.86457,1.94408,5.29319\C,0,11.34881,0.41529,5.
 20832\C,0,10.89196,0.09273,3.78708\C,0,12.85895,0.25793,5.27189\C,0,9.
 41615,2.05575,5.88618\C,0,9.34379,2.03692,7.41463\H,0,8.32905,2.8546,8
 .07353\N,0,10.11284,-0.98884,1.02354\C,0,10.22246,-1.71823,2.15369\C,0
 ,9.84042,-3.09036,1.78562\C,0,9.65515,-3.14586,0.31005\C,0,10.12287,-1
 .82628,-0.06417\C,0,9.60839,-4.17072,2.80169\C,0,9.15361,-4.21484,-0.6
 1297\O,0,9.30139,-4.13124,-1.8834\C,0,8.56802,-5.40567,0.01987\N,0,11.
 14282,0.83698,-1.17025\C,0,10.993,-0.29204,-1.88494\C,0,11.26934,-0.05
 104,-3.34985\C,0,11.40096,1.53501,-3.50696\C,0,11.26036,1.94859,-2.025
 55\C,0,12.52264,-0.72341,-3.90979\C,0,10.48008,2.2172,-4.55543\C,0,9.0
 3758,2.126,-4.1124\N,0,10.9462,3.05754,0.71862\C,0,11.3615,3.79655,-0.
 41074\C,0,11.65166,5.16979,0.05019\C,0,11.40516,5.12808,1.43076\C,0,11
 .0101,3.81596,1.80728\C,0,12.1273,6.23706,-0.76272\C,0,11.39958,5.8930
 1,2.65696\O,0,11.5621,7.07883,2.94182\C,0,11.24954,4.88776,3.87899\C,0
 ,10.18831,5.42848,4.79764\O,0,9.0055,5.50487,4.42116\O,0,10.70185,5.56
 137,6.03416\C,0,9.68385,6.08427,6.98393\H,0,10.96593,-2.04305,4.10816\
 H,0,10.45269,-2.15652,-2.11561\H,0,11.6966,3.99282,-2.38576\H,0,11.546
 6,2.51641,5.91048\H,0,10.8227,-0.20622,5.92825\H,0,13.36489,1.21157,5.
 24467\H,0,13.1291,-0.33841,4.41023\H,0,13.13976,-0.33373,6.14791\H,0,8
 .86483,1.13384,5.66061\H,0,8.9173,2.92834,5.51153\H,0,10.32585,2.19771
 ,7.87579\H,0,9.05795,1.03246,7.73615\H,0,9.9815,-3.87913,3.79122\H,0,1
 0.23684,-5.02053,2.51403\H,0,8.56706,-4.49773,2.83849\H,0,9.30518,-5.8
 6712,0.67265\H,0,8.18639,-6.01527,-0.80148\H,0,7.73617,-5.08895,0.6588
 8\H,0,10.44499,-0.39751,-3.961\H,0,12.41272,1.83077,-3.82113\H,0,12.31
 454,-1.38688,-4.77036\H,0,12.99983,-1.27525,-3.11086\H,0,13.3116,-0.04
 177,-4.22304\H,0,10.5443,1.69454,-5.51296\H,0,10.73024,3.25684,-4.7386
 \H,0,8.73958,1.12755,-4.44612\H,0,8.43968,2.89765,-4.59314\H,0,8.95969
 ,2.14505,-3.01913\H,0,11.56428,7.11717,-0.4818\H,0,12.01305,6.01212,-1
 .82107\H,0,13.17731,6.26052,-0.45907\H,0,12.22119,4.82168,4.37003\H,0,
 10.10576,6.98492,7.44056\H,0,9.44492,5.24157,7.65958\H,0,8.76125,6.470
 85,6.56702\\Version=ES64L-G16RevA.03\State=1-A\HF=-4069.8124145\RMSD=7
 .591e-09\PG=C01 [X(C68H72Mg2N8O8)]\\@


 SACRED COWS MAKE GREAT HAMBURGERS -- ROBERT REISNER
 Job cpu time:       0 days 13 hours 53 minutes  1.3 seconds.
 Elapsed time:       0 days  0 hours 35 minutes 21.6 seconds.
 File lengths (MBytes):  RWF=  13225 Int=      0 D2E=      0 Chk=    574 Scr=      1
 Normal termination of Gaussian 16 at Fri Sep 10 12:27:44 2021.
