 Entering Gaussian System, Link 0=g16
 Initial command:
 /sw/apps/gaussian-16.0/g16/l1.exe "/tmp/Gau-275994.inp" -scrdir="/tmp/"
 Entering Link 1 = /sw/apps/gaussian-16.0/g16/l1.exe PID=    275995.
  
 Copyright (c) 1988,1990,1992,1993,1995,1998,2003,2009,2016,
            Gaussian, Inc.  All Rights Reserved.
  
 This is part of the Gaussian(R) 16 program.  It is based on
 the Gaussian(R) 09 system (copyright 2009, Gaussian, Inc.),
 the Gaussian(R) 03 system (copyright 2003, Gaussian, Inc.),
 the Gaussian(R) 98 system (copyright 1998, Gaussian, Inc.),
 the Gaussian(R) 94 system (copyright 1995, Gaussian, Inc.),
 the Gaussian 92(TM) system (copyright 1992, Gaussian, Inc.),
 the Gaussian 90(TM) system (copyright 1990, Gaussian, Inc.),
 the Gaussian 88(TM) system (copyright 1988, Gaussian, Inc.),
 the Gaussian 86(TM) system (copyright 1986, Carnegie Mellon
 University), and the Gaussian 82(TM) system (copyright 1983,
 Carnegie Mellon University). Gaussian is a federally registered
 trademark of Gaussian, Inc.
  
 This software contains proprietary and confidential information,
 including trade secrets, belonging to Gaussian, Inc.
  
 This software is provided under written license and may be
 used, copied, transmitted, or stored only in accord with that
 written license.
  
 The following legend is applicable only to US Government
 contracts under FAR:
  
                    RESTRICTED RIGHTS LEGEND
  
 Use, reproduction and disclosure by the US Government is
 subject to restrictions as set forth in subparagraphs (a)
 and (c) of the Commercial Computer Software - Restricted
 Rights clause in FAR 52.227-19.
  
 Gaussian, Inc.
 340 Quinnipiac St., Bldg. 40, Wallingford CT 06492
  
  
 ---------------------------------------------------------------
 Warning -- This program may not be used in any manner that
 competes with the business of Gaussian, Inc. or will provide
 assistance to any competitor of Gaussian, Inc.  The licensee
 of this program is prohibited from giving any competitor of
 Gaussian, Inc. access to this program.  By using this program,
 the user acknowledges that Gaussian, Inc. is engaged in the
 business of creating and licensing software in the field of
 computational chemistry and represents and warrants to the
 licensee that it is not a competitor of Gaussian, Inc. and that
 it will not use this program in any manner prohibited above.
 ---------------------------------------------------------------
  

 Cite this work as:
 Gaussian 16, Revision A.03,
 M. J. Frisch, G. W. Trucks, H. B. Schlegel, G. E. Scuseria, 
 M. A. Robb, J. R. Cheeseman, G. Scalmani, V. Barone, 
 G. A. Petersson, H. Nakatsuji, X. Li, M. Caricato, A. V. Marenich, 
 J. Bloino, B. G. Janesko, R. Gomperts, B. Mennucci, H. P. Hratchian, 
 J. V. Ortiz, A. F. Izmaylov, J. L. Sonnenberg, D. Williams-Young, 
 F. Ding, F. Lipparini, F. Egidi, J. Goings, B. Peng, A. Petrone, 
 T. Henderson, D. Ranasinghe, V. G. Zakrzewski, J. Gao, N. Rega, 
 G. Zheng, W. Liang, M. Hada, M. Ehara, K. Toyota, R. Fukuda, 
 J. Hasegawa, M. Ishida, T. Nakajima, Y. Honda, O. Kitao, H. Nakai, 
 T. Vreven, K. Throssell, J. A. Montgomery, Jr., J. E. Peralta, 
 F. Ogliaro, M. J. Bearpark, J. J. Heyd, E. N. Brothers, K. N. Kudin, 
 V. N. Staroverov, T. A. Keith, R. Kobayashi, J. Normand, 
 K. Raghavachari, A. P. Rendell, J. C. Burant, S. S. Iyengar, 
 J. Tomasi, M. Cossi, J. M. Millam, M. Klene, C. Adamo, R. Cammi, 
 J. W. Ochterski, R. L. Martin, K. Morokuma, O. Farkas, 
 J. B. Foresman, and D. J. Fox, Gaussian, Inc., Wallingford CT, 2016.
 
 ******************************************
 Gaussian 16:  ES64L-G16RevA.03 25-Dec-2016
                 9-Sep-2021 
 ******************************************
 %nproc=24
 Will use up to   24 processors via shared memory.
 %mem=175gb
 -----------------------------------
 #p cam-b3lyp/Def2SVP td=(nstates=5)
 -----------------------------------
 1/38=1,172=1/1;
 2/12=2,17=6,18=5,40=1/2;
 3/5=43,7=101,11=9,25=1,30=1,74=-40/1,2,3,8;
 4//1;
 5/5=2,38=5/2;
 8/6=1,10=1,108=5/1;
 9/41=5,42=1,70=2/14;
 6/7=2,8=2,9=2,10=2/1;
 99/5=1,9=1/99;
 Leave Link    1 at Thu Sep  9 13:44:17 2021, MaxMem= 23488102400 cpu:               0.5 elap:               0.0
 (Enter /sw/apps/gaussian-16.0/g16/l101.exe)
 --------------------------------
 TDDFT excited states in gaussian
 --------------------------------
 Symbolic Z-matrix:
 Charge =  0 Multiplicity = 1
 Mg                    0.        0.        0. 
 C                    -0.217    -2.218     2.801 
 C                    -1.255     2.442     2.026 
 C                    -0.245     1.85     -2.564 
 C                     0.146    -2.824    -2.037 
 N                    -0.617    -0.009     2.126 
 C                    -0.594    -0.908     3.105 
 C                    -0.936    -0.309     4.502 
 C                    -1.773     0.964     4.032 
 C                    -1.155     1.168     2.66 
 C                    -3.263     0.685     3.863 
 C                     0.345     0.11      5.299 
 C                     0.124     0.397     6.787 
 H                     1.168     0.033     7.733 
 N                    -0.185     1.961    -0.152 
 C                    -0.703     2.8       0.777 
 C                    -0.62      4.156     0.193 
 C                    -0.187     4.015    -1.225 
 C                    -0.214     2.583    -1.38 
 C                    -0.887     5.406     0.974 
 C                     0.181     5.013    -2.277 
 O                     0.303     4.69     -3.508 
 C                     0.31      6.414    -1.837 
 N                    -0.265    -0.413    -2.029 
 C                    -0.279     0.569    -2.937 
 C                    -0.196     0.024    -4.332 
 C                     0.124    -1.533    -4.18 
 C                     0.086    -1.632    -2.635 
 C                    -1.451     0.205    -5.197 
 C                     1.373    -2.07     -4.923 
 C                     2.626    -1.49     -4.306 
 N                     0.15     -2.144     0.303 
 C                     0.173    -3.136    -0.688 
 C                     0.173    -4.438     0.004 
 C                     0.133    -4.111     1.358 
 C                     0.083    -2.695     1.502 
 C                     0.149    -5.715    -0.623 
 C                     0.096    -4.629     2.716 
 O                     0.208    -5.747     3.221 
 C                    -0.255    -3.428     3.701 
 C                     0.717    -3.482     4.848 
 O                     1.931    -3.255     4.669 
 O                     0.038    -3.556     6.003 
 C                     0.943    -3.583     7.183 
 H                    -1.859     3.22      2.497 
 H                    -0.218     2.453    -3.474 
 H                     0.276    -3.747    -2.605 
 H                    -1.554    -0.949     5.132 
 H                    -1.585     1.831     4.665 
 H                    -3.484    -0.377     3.969 
 H                    -3.511     1.027     2.858 
 H                    -3.852     1.301     4.543 
 H                     0.669     1.096     4.966 
 H                     1.13     -0.639     5.189 
 H                    -0.844     0.026     7.125 
 H                     0.062     1.477     6.921 
 H                    -1.344     5.186     1.938 
 H                    -1.651     5.963     0.432 
 H                     0.007     6.02      1.084 
 H                    -0.635     6.744    -1.405 
 H                     0.665     6.97     -2.704 
 H                     1.048     6.466    -1.036 
 H                     0.608     0.501    -4.891 
 H                    -0.692    -2.156    -4.547 
 H                    -1.267     0.74     -6.129 
 H                    -2.204     0.714    -4.596 
 H                    -1.967    -0.72     -5.453 
 H                     1.356    -1.759    -5.967 
 H                     1.452    -3.157    -4.902 
 H                     2.714    -0.522    -4.798 
 H                     3.487    -2.121    -4.529 
 H                     2.495    -1.303    -3.24 
 H                     0.867    -6.333    -0.084 
 H                     0.404    -5.642    -1.68 
 H                    -0.891    -5.999    -0.463 
 H                    -1.283    -3.581     4.028 
 H                     0.698    -4.478     7.755 
 H                     0.833    -2.619     7.68 
 H                     2.       -3.754     6.976 
 Mg                    8.93582   0.80696   0.66853 
 C                     11.41322  -1.6116   -0.27602 
 C                     11.207    3.22382  -0.12841 
 C                     6.94852   2.94497   1.91231 
 C                     7.32871  -1.7333    2.43204 
 N                     11.00899   0.69548  -0.09424 
 C                     11.82412  -0.27693  -0.47414 
 C                     13.12109   0.20824  -1.1756 
 C                     13.1931   1.68643  -0.5522 
 C                     11.70818   1.90511  -0.26958 
 C                     13.94444   1.74716   0.76732 
 C                     12.97618   0.24994  -2.73742 
 C                     14.29182   0.41596  -3.50114 
 H                     14.44336  -0.26669  -4.78313 
 N                     8.84833   2.77435   0.42304 
 C                     9.86035   3.59686   0.07581 
 C                     9.28678   4.95128   0.04875 
 C                     7.89406   4.88136   0.56851 
 C                     7.84905   3.5042    1.0174 
 C                     10.02088   6.13478  -0.51147 
 C                     6.79014   5.89095   0.65966 
 O                     5.74088   5.67957   1.36479 
 C                     7.01534   7.17224  -0.02523 
 N                     7.48367   0.68693   2.1515 
 C                     6.72452   1.75194   2.46352 
 C                     5.57142   1.35744   3.35521 
 C                     5.57538  -0.2416    3.38046 
 C                     6.8399   -0.50493   2.53367 
 C                     5.62586   1.88891   4.78733 
 C                     4.2553   -0.95507   2.97918 
 C                     3.97024  -0.72622   1.51229 
 N                     9.1749   -1.32966   0.88245 
 C                     8.40853  -2.19695   1.6915 
 C                     9.0214   -3.53764   1.59473 
 C                     10.12414  -3.35098   0.74761 
 C                     10.20539  -1.9859    0.361 
 C                     8.57957  -4.70558   2.27798 
 C                     11.24411  -3.99618   0.10103 
 O                     11.63236  -5.15853  -0.00826 
 C                     12.2022  -2.87362  -0.48914 
 C                     12.54734  -3.2538   -1.90295 
 O                     11.66783  -3.28526  -2.78163 
 O                     13.88573  -3.3051   -2.03123 
 C                     14.27758  -3.66759  -3.41935 
 H                     11.91657   4.0517   -0.13219 
 H                     6.17334   3.6189    2.28432 
 H                     6.82983  -2.59851   2.87387 
 H                     14.01345  -0.34863  -0.91605 
 H                     13.55218   2.40629  -1.2831 
 H                     14.205    0.76329   1.12823 
 H                     13.27839   2.24108   1.46263 
 H                     14.81875   2.39766   0.67368 
 H                     12.47279   1.18178  -3.02556 
 H                     12.4577  -0.61825  -3.09527 
 H                     15.16483   0.23319  -2.86286 
 H                     14.39116   1.46294  -3.79774 
 H                     11.08381   5.91226  -0.66658 
 H                     10.01576   6.9099    0.26249 
 H                     9.55164   6.53306  -1.41362 
 H                     7.91163   7.64191   0.37293 
 H                     6.08068   7.72691   0.07782 
 H                     7.20875   6.97309  -1.08521 
 H                     4.6298    1.70008   2.94405 
 H                     5.7842   -0.6327    4.38707 
 H                     4.7346    2.48178   5.06704 
 H                     6.52556   2.47948   4.89827 
 H                     5.75155   1.12956   5.55725 
 H                     3.41243  -0.52943   3.52923 
 H                     4.26338  -2.02172   3.17715 
 H                     3.48534   0.25455   1.50521 
 H                     3.30672  -1.49737   1.12614 
 H                     4.90079  -0.63802   0.93962 
 H                     8.61075  -5.51583   1.56173 
 H                     7.5798   -4.57308   2.68625 
 H                     9.33802  -4.77117   3.06265 
 H                     13.08511  -2.82753   0.14955 
 H                     14.92374  -4.54808  -3.34931 
 H                     14.71993  -2.75144  -3.85379 
 H                     13.49946  -4.02844  -4.08175 
 
 ITRead=  0  0  0  0  0  0  0  0  0  0  0  0  0  0  0  0  0  0  0  0
 ITRead=  0  0  0  0  0  0  0  0  0  0  0  0  0  0  0  0  0  0  0  0
 ITRead=  0  0  0  0  0  0  0  0  0  0  0  0  0  0  0  0  0  0  0  0
 ITRead=  0  0  0  0  0  0  0  0  0  0  0  0  0  0  0  0  0  0  0  0
 ITRead=  0  0  0  0  0  0  0  0  0  0  0  0  0  0  0  0  0  0  0  0
 ITRead=  0  0  0  0  0  0  0  0  0  0  0  0  0  0  0  0  0  0  0  0
 ITRead=  0  0  0  0  0  0  0  0  0  0  0  0  0  0  0  0  0  0  0  0
 ITRead=  0  0  0  0  0  0  0  0  0  0  0  0  0  0  0  0  0  0
 MicOpt= -1 -1 -1 -1 -1 -1 -1 -1 -1 -1 -1 -1 -1 -1 -1 -1 -1 -1 -1 -1
 MicOpt= -1 -1 -1 -1 -1 -1 -1 -1 -1 -1 -1 -1 -1 -1 -1 -1 -1 -1 -1 -1
 MicOpt= -1 -1 -1 -1 -1 -1 -1 -1 -1 -1 -1 -1 -1 -1 -1 -1 -1 -1 -1 -1
 MicOpt= -1 -1 -1 -1 -1 -1 -1 -1 -1 -1 -1 -1 -1 -1 -1 -1 -1 -1 -1 -1
 MicOpt= -1 -1 -1 -1 -1 -1 -1 -1 -1 -1 -1 -1 -1 -1 -1 -1 -1 -1 -1 -1
 MicOpt= -1 -1 -1 -1 -1 -1 -1 -1 -1 -1 -1 -1 -1 -1 -1 -1 -1 -1 -1 -1
 MicOpt= -1 -1 -1 -1 -1 -1 -1 -1 -1 -1 -1 -1 -1 -1 -1 -1 -1 -1 -1 -1
 MicOpt= -1 -1 -1 -1 -1 -1 -1 -1 -1 -1 -1 -1 -1 -1 -1 -1 -1 -1
 NAtoms=    158 NQM=      158 NQMF=       0 NMMI=      0 NMMIF=      0
                NMic=       0 NMicF=      0.
                    Isotopes and Nuclear Properties:
 (Nuclear quadrupole moments (NQMom) in fm**2, nuclear magnetic moments (NMagM)
  in nuclear magnetons)

  Atom         1           2           3           4           5           6           7           8           9          10
 IAtWgt=          24          12          12          12          12          14          12          12          12          12
 AtmWgt=  23.9850450  12.0000000  12.0000000  12.0000000  12.0000000  14.0030740  12.0000000  12.0000000  12.0000000  12.0000000
 NucSpn=           0           0           0           0           0           2           0           0           0           0
 AtZEff=  -0.0000000  -0.0000000  -0.0000000  -0.0000000  -0.0000000  -0.0000000  -0.0000000  -0.0000000  -0.0000000  -0.0000000
 NQMom=    0.0000000   0.0000000   0.0000000   0.0000000   0.0000000   2.0440000   0.0000000   0.0000000   0.0000000   0.0000000
 NMagM=    0.0000000   0.0000000   0.0000000   0.0000000   0.0000000   0.4037610   0.0000000   0.0000000   0.0000000   0.0000000
 AtZNuc=  12.0000000   6.0000000   6.0000000   6.0000000   6.0000000   7.0000000   6.0000000   6.0000000   6.0000000   6.0000000

  Atom        11          12          13          14          15          16          17          18          19          20
 IAtWgt=          12          12          12           1          14          12          12          12          12          12
 AtmWgt=  12.0000000  12.0000000  12.0000000   1.0078250  14.0030740  12.0000000  12.0000000  12.0000000  12.0000000  12.0000000
 NucSpn=           0           0           0           1           2           0           0           0           0           0
 AtZEff=  -0.0000000  -0.0000000  -0.0000000  -0.0000000  -0.0000000  -0.0000000  -0.0000000  -0.0000000  -0.0000000  -0.0000000
 NQMom=    0.0000000   0.0000000   0.0000000   0.0000000   2.0440000   0.0000000   0.0000000   0.0000000   0.0000000   0.0000000
 NMagM=    0.0000000   0.0000000   0.0000000   2.7928460   0.4037610   0.0000000   0.0000000   0.0000000   0.0000000   0.0000000
 AtZNuc=   6.0000000   6.0000000   6.0000000   1.0000000   7.0000000   6.0000000   6.0000000   6.0000000   6.0000000   6.0000000

  Atom        21          22          23          24          25          26          27          28          29          30
 IAtWgt=          12          16          12          14          12          12          12          12          12          12
 AtmWgt=  12.0000000  15.9949146  12.0000000  14.0030740  12.0000000  12.0000000  12.0000000  12.0000000  12.0000000  12.0000000
 NucSpn=           0           0           0           2           0           0           0           0           0           0
 AtZEff=  -0.0000000  -0.0000000  -0.0000000  -0.0000000  -0.0000000  -0.0000000  -0.0000000  -0.0000000  -0.0000000  -0.0000000
 NQMom=    0.0000000   0.0000000   0.0000000   2.0440000   0.0000000   0.0000000   0.0000000   0.0000000   0.0000000   0.0000000
 NMagM=    0.0000000   0.0000000   0.0000000   0.4037610   0.0000000   0.0000000   0.0000000   0.0000000   0.0000000   0.0000000
 AtZNuc=   6.0000000   8.0000000   6.0000000   7.0000000   6.0000000   6.0000000   6.0000000   6.0000000   6.0000000   6.0000000

  Atom        31          32          33          34          35          36          37          38          39          40
 IAtWgt=          12          14          12          12          12          12          12          12          16          12
 AtmWgt=  12.0000000  14.0030740  12.0000000  12.0000000  12.0000000  12.0000000  12.0000000  12.0000000  15.9949146  12.0000000
 NucSpn=           0           2           0           0           0           0           0           0           0           0
 AtZEff=  -0.0000000  -0.0000000  -0.0000000  -0.0000000  -0.0000000  -0.0000000  -0.0000000  -0.0000000  -0.0000000  -0.0000000
 NQMom=    0.0000000   2.0440000   0.0000000   0.0000000   0.0000000   0.0000000   0.0000000   0.0000000   0.0000000   0.0000000
 NMagM=    0.0000000   0.4037610   0.0000000   0.0000000   0.0000000   0.0000000   0.0000000   0.0000000   0.0000000   0.0000000
 AtZNuc=   6.0000000   7.0000000   6.0000000   6.0000000   6.0000000   6.0000000   6.0000000   6.0000000   8.0000000   6.0000000

  Atom        41          42          43          44          45          46          47          48          49          50
 IAtWgt=          12          16          16          12           1           1           1           1           1           1
 AtmWgt=  12.0000000  15.9949146  15.9949146  12.0000000   1.0078250   1.0078250   1.0078250   1.0078250   1.0078250   1.0078250
 NucSpn=           0           0           0           0           1           1           1           1           1           1
 AtZEff=  -0.0000000  -0.0000000  -0.0000000  -0.0000000  -0.0000000  -0.0000000  -0.0000000  -0.0000000  -0.0000000  -0.0000000
 NQMom=    0.0000000   0.0000000   0.0000000   0.0000000   0.0000000   0.0000000   0.0000000   0.0000000   0.0000000   0.0000000
 NMagM=    0.0000000   0.0000000   0.0000000   0.0000000   2.7928460   2.7928460   2.7928460   2.7928460   2.7928460   2.7928460
 AtZNuc=   6.0000000   8.0000000   8.0000000   6.0000000   1.0000000   1.0000000   1.0000000   1.0000000   1.0000000   1.0000000

  Atom        51          52          53          54          55          56          57          58          59          60
 IAtWgt=           1           1           1           1           1           1           1           1           1           1
 AtmWgt=   1.0078250   1.0078250   1.0078250   1.0078250   1.0078250   1.0078250   1.0078250   1.0078250   1.0078250   1.0078250
 NucSpn=           1           1           1           1           1           1           1           1           1           1
 AtZEff=  -0.0000000  -0.0000000  -0.0000000  -0.0000000  -0.0000000  -0.0000000  -0.0000000  -0.0000000  -0.0000000  -0.0000000
 NQMom=    0.0000000   0.0000000   0.0000000   0.0000000   0.0000000   0.0000000   0.0000000   0.0000000   0.0000000   0.0000000
 NMagM=    2.7928460   2.7928460   2.7928460   2.7928460   2.7928460   2.7928460   2.7928460   2.7928460   2.7928460   2.7928460
 AtZNuc=   1.0000000   1.0000000   1.0000000   1.0000000   1.0000000   1.0000000   1.0000000   1.0000000   1.0000000   1.0000000

  Atom        61          62          63          64          65          66          67          68          69          70
 IAtWgt=           1           1           1           1           1           1           1           1           1           1
 AtmWgt=   1.0078250   1.0078250   1.0078250   1.0078250   1.0078250   1.0078250   1.0078250   1.0078250   1.0078250   1.0078250
 NucSpn=           1           1           1           1           1           1           1           1           1           1
 AtZEff=  -0.0000000  -0.0000000  -0.0000000  -0.0000000  -0.0000000  -0.0000000  -0.0000000  -0.0000000  -0.0000000  -0.0000000
 NQMom=    0.0000000   0.0000000   0.0000000   0.0000000   0.0000000   0.0000000   0.0000000   0.0000000   0.0000000   0.0000000
 NMagM=    2.7928460   2.7928460   2.7928460   2.7928460   2.7928460   2.7928460   2.7928460   2.7928460   2.7928460   2.7928460
 AtZNuc=   1.0000000   1.0000000   1.0000000   1.0000000   1.0000000   1.0000000   1.0000000   1.0000000   1.0000000   1.0000000

  Atom        71          72          73          74          75          76          77          78          79          80
 IAtWgt=           1           1           1           1           1           1           1           1           1          24
 AtmWgt=   1.0078250   1.0078250   1.0078250   1.0078250   1.0078250   1.0078250   1.0078250   1.0078250   1.0078250  23.9850450
 NucSpn=           1           1           1           1           1           1           1           1           1           0
 AtZEff=  -0.0000000  -0.0000000  -0.0000000  -0.0000000  -0.0000000  -0.0000000  -0.0000000  -0.0000000  -0.0000000  -0.0000000
 NQMom=    0.0000000   0.0000000   0.0000000   0.0000000   0.0000000   0.0000000   0.0000000   0.0000000   0.0000000   0.0000000
 NMagM=    2.7928460   2.7928460   2.7928460   2.7928460   2.7928460   2.7928460   2.7928460   2.7928460   2.7928460   0.0000000
 AtZNuc=   1.0000000   1.0000000   1.0000000   1.0000000   1.0000000   1.0000000   1.0000000   1.0000000   1.0000000  12.0000000

  Atom        81          82          83          84          85          86          87          88          89          90
 IAtWgt=          12          12          12          12          14          12          12          12          12          12
 AtmWgt=  12.0000000  12.0000000  12.0000000  12.0000000  14.0030740  12.0000000  12.0000000  12.0000000  12.0000000  12.0000000
 NucSpn=           0           0           0           0           2           0           0           0           0           0
 AtZEff=  -0.0000000  -0.0000000  -0.0000000  -0.0000000  -0.0000000  -0.0000000  -0.0000000  -0.0000000  -0.0000000  -0.0000000
 NQMom=    0.0000000   0.0000000   0.0000000   0.0000000   2.0440000   0.0000000   0.0000000   0.0000000   0.0000000   0.0000000
 NMagM=    0.0000000   0.0000000   0.0000000   0.0000000   0.4037610   0.0000000   0.0000000   0.0000000   0.0000000   0.0000000
 AtZNuc=   6.0000000   6.0000000   6.0000000   6.0000000   7.0000000   6.0000000   6.0000000   6.0000000   6.0000000   6.0000000

  Atom        91          92          93          94          95          96          97          98          99         100
 IAtWgt=          12          12           1          14          12          12          12          12          12          12
 AtmWgt=  12.0000000  12.0000000   1.0078250  14.0030740  12.0000000  12.0000000  12.0000000  12.0000000  12.0000000  12.0000000
 NucSpn=           0           0           1           2           0           0           0           0           0           0
 AtZEff=  -0.0000000  -0.0000000  -0.0000000  -0.0000000  -0.0000000  -0.0000000  -0.0000000  -0.0000000  -0.0000000  -0.0000000
 NQMom=    0.0000000   0.0000000   0.0000000   2.0440000   0.0000000   0.0000000   0.0000000   0.0000000   0.0000000   0.0000000
 NMagM=    0.0000000   0.0000000   2.7928460   0.4037610   0.0000000   0.0000000   0.0000000   0.0000000   0.0000000   0.0000000
 AtZNuc=   6.0000000   6.0000000   1.0000000   7.0000000   6.0000000   6.0000000   6.0000000   6.0000000   6.0000000   6.0000000

  Atom       101         102         103         104         105         106         107         108         109         110
 IAtWgt=          16          12          14          12          12          12          12          12          12          12
 AtmWgt=  15.9949146  12.0000000  14.0030740  12.0000000  12.0000000  12.0000000  12.0000000  12.0000000  12.0000000  12.0000000
 NucSpn=           0           0           2           0           0           0           0           0           0           0
 AtZEff=  -0.0000000  -0.0000000  -0.0000000  -0.0000000  -0.0000000  -0.0000000  -0.0000000  -0.0000000  -0.0000000  -0.0000000
 NQMom=    0.0000000   0.0000000   2.0440000   0.0000000   0.0000000   0.0000000   0.0000000   0.0000000   0.0000000   0.0000000
 NMagM=    0.0000000   0.0000000   0.4037610   0.0000000   0.0000000   0.0000000   0.0000000   0.0000000   0.0000000   0.0000000
 AtZNuc=   8.0000000   6.0000000   7.0000000   6.0000000   6.0000000   6.0000000   6.0000000   6.0000000   6.0000000   6.0000000

  Atom       111         112         113         114         115         116         117         118         119         120
 IAtWgt=          14          12          12          12          12          12          12          16          12          12
 AtmWgt=  14.0030740  12.0000000  12.0000000  12.0000000  12.0000000  12.0000000  12.0000000  15.9949146  12.0000000  12.0000000
 NucSpn=           2           0           0           0           0           0           0           0           0           0
 AtZEff=  -0.0000000  -0.0000000  -0.0000000  -0.0000000  -0.0000000  -0.0000000  -0.0000000  -0.0000000  -0.0000000  -0.0000000
 NQMom=    2.0440000   0.0000000   0.0000000   0.0000000   0.0000000   0.0000000   0.0000000   0.0000000   0.0000000   0.0000000
 NMagM=    0.4037610   0.0000000   0.0000000   0.0000000   0.0000000   0.0000000   0.0000000   0.0000000   0.0000000   0.0000000
 AtZNuc=   7.0000000   6.0000000   6.0000000   6.0000000   6.0000000   6.0000000   6.0000000   8.0000000   6.0000000   6.0000000

  Atom       121         122         123         124         125         126         127         128         129         130
 IAtWgt=          16          16          12           1           1           1           1           1           1           1
 AtmWgt=  15.9949146  15.9949146  12.0000000   1.0078250   1.0078250   1.0078250   1.0078250   1.0078250   1.0078250   1.0078250
 NucSpn=           0           0           0           1           1           1           1           1           1           1
 AtZEff=  -0.0000000  -0.0000000  -0.0000000  -0.0000000  -0.0000000  -0.0000000  -0.0000000  -0.0000000  -0.0000000  -0.0000000
 NQMom=    0.0000000   0.0000000   0.0000000   0.0000000   0.0000000   0.0000000   0.0000000   0.0000000   0.0000000   0.0000000
 NMagM=    0.0000000   0.0000000   0.0000000   2.7928460   2.7928460   2.7928460   2.7928460   2.7928460   2.7928460   2.7928460
 AtZNuc=   8.0000000   8.0000000   6.0000000   1.0000000   1.0000000   1.0000000   1.0000000   1.0000000   1.0000000   1.0000000

  Atom       131         132         133         134         135         136         137         138         139         140
 IAtWgt=           1           1           1           1           1           1           1           1           1           1
 AtmWgt=   1.0078250   1.0078250   1.0078250   1.0078250   1.0078250   1.0078250   1.0078250   1.0078250   1.0078250   1.0078250
 NucSpn=           1           1           1           1           1           1           1           1           1           1
 AtZEff=  -0.0000000  -0.0000000  -0.0000000  -0.0000000  -0.0000000  -0.0000000  -0.0000000  -0.0000000  -0.0000000  -0.0000000
 NQMom=    0.0000000   0.0000000   0.0000000   0.0000000   0.0000000   0.0000000   0.0000000   0.0000000   0.0000000   0.0000000
 NMagM=    2.7928460   2.7928460   2.7928460   2.7928460   2.7928460   2.7928460   2.7928460   2.7928460   2.7928460   2.7928460
 AtZNuc=   1.0000000   1.0000000   1.0000000   1.0000000   1.0000000   1.0000000   1.0000000   1.0000000   1.0000000   1.0000000

  Atom       141         142         143         144         145         146         147         148         149         150
 IAtWgt=           1           1           1           1           1           1           1           1           1           1
 AtmWgt=   1.0078250   1.0078250   1.0078250   1.0078250   1.0078250   1.0078250   1.0078250   1.0078250   1.0078250   1.0078250
 NucSpn=           1           1           1           1           1           1           1           1           1           1
 AtZEff=  -0.0000000  -0.0000000  -0.0000000  -0.0000000  -0.0000000  -0.0000000  -0.0000000  -0.0000000  -0.0000000  -0.0000000
 NQMom=    0.0000000   0.0000000   0.0000000   0.0000000   0.0000000   0.0000000   0.0000000   0.0000000   0.0000000   0.0000000
 NMagM=    2.7928460   2.7928460   2.7928460   2.7928460   2.7928460   2.7928460   2.7928460   2.7928460   2.7928460   2.7928460
 AtZNuc=   1.0000000   1.0000000   1.0000000   1.0000000   1.0000000   1.0000000   1.0000000   1.0000000   1.0000000   1.0000000

  Atom       151         152         153         154         155         156         157         158
 IAtWgt=           1           1           1           1           1           1           1           1
 AtmWgt=   1.0078250   1.0078250   1.0078250   1.0078250   1.0078250   1.0078250   1.0078250   1.0078250
 NucSpn=           1           1           1           1           1           1           1           1
 AtZEff=  -0.0000000  -0.0000000  -0.0000000  -0.0000000  -0.0000000  -0.0000000  -0.0000000  -0.0000000
 NQMom=    0.0000000   0.0000000   0.0000000   0.0000000   0.0000000   0.0000000   0.0000000   0.0000000
 NMagM=    2.7928460   2.7928460   2.7928460   2.7928460   2.7928460   2.7928460   2.7928460   2.7928460
 AtZNuc=   1.0000000   1.0000000   1.0000000   1.0000000   1.0000000   1.0000000   1.0000000   1.0000000
 Leave Link  101 at Thu Sep  9 13:44:18 2021, MaxMem= 23488102400 cpu:               3.7 elap:               0.2
 (Enter /sw/apps/gaussian-16.0/g16/l202.exe)
 Stoichiometry    C68H72Mg2N8O8
 Framework group  C1[X(C68H72Mg2N8O8)]
 Deg. of freedom   468
 Full point group                 C1      NOp   1
 Largest Abelian subgroup         C1      NOp   1
 Largest concise Abelian subgroup C1      NOp   1
                         Standard orientation:                         
 ---------------------------------------------------------------------
 Center     Atomic      Atomic             Coordinates (Angstroms)
 Number     Number       Type             X           Y           Z
 ---------------------------------------------------------------------
      1         12           0        4.591006    0.413258    1.184831
      2          6           0        5.228169   -2.551266   -0.717230
      3          6           0        6.125243    2.164447   -1.309667
      4          6           0        4.447037    2.977757    3.044734
      5          6           0        4.153030   -1.642161    3.964955
      6          7           0        5.516729   -0.224892   -0.722116
      7          6           0        5.642062   -1.383436   -1.361833
      8          6           0        6.185757   -1.231685   -2.813983
      9          6           0        6.939794    0.164176   -2.655873
     10          6           0        6.124384    0.753243   -1.518317
     11          6           0        8.389065    0.025671   -2.200976
     12          6           0        5.035942   -1.144936   -3.873290
     13          6           0        5.474449   -1.323613   -5.329704
     14          1           0        4.583542   -2.014663   -6.249532
     15          7           0        4.745336    2.331147    0.736796
     16          6           0        5.392882    2.864777   -0.326787
     17          6           0        5.219936    4.329223   -0.216473
     18          6           0        4.581716    4.614247    1.098643
     19          6           0        4.589838    3.304364    1.698242
     20          6           0        5.596026    5.286519   -1.305459
     21          6           0        4.058576    5.870056    1.721058
     22          8           0        3.756226    5.939659    2.961346
     23          6           0        3.991977    7.056953    0.849346
     24          7           0        4.553212    0.664417    3.256817
     25          6           0        4.429260    1.879257    3.802513
     26          6           0        4.141825    1.790983    5.272046
     27          6           0        3.852742    0.249907    5.574153
     28          6           0        4.119929   -0.321959    4.159992
     29          6           0        5.253981    2.293623    6.202891
     30          6           0        2.508968   -0.091039    6.265850
     31          6           0        1.359630    0.205826    5.328838
     32          7           0        4.494265   -1.723502    1.553532
     33          6           0        4.327506   -2.358580    2.792702
     34          6           0        4.434234   -3.809417    2.552393
     35          6           0        4.673735   -3.917484    1.183888
     36          6           0        4.740176   -2.615557    0.610422
     37          6           0        4.368858   -4.825740    3.545996
     38          6           0        4.913474   -4.829075    0.076917
     39          8           0        4.881120   -6.052729   -0.061348
     40          6           0        5.403062   -3.977477   -1.176444
     41          6           0        4.612231   -4.433101   -2.372396
     42          8           0        3.384414   -4.222211   -2.445583
     43          8           0        5.455356   -4.828354   -3.338552
     44          6           0        4.735597   -5.265274   -4.564603
     45          1           0        6.790050    2.786659   -1.912017
     46          1           0        4.283414    3.831412    3.705747
     47          1           0        3.943023   -2.348398    4.770299
     48          1           0        6.892390   -2.004218   -3.117771
     49          1           0        6.845144    0.781307   -3.549133
     50          1           0        8.626631   -1.004414   -1.935632
     51          1           0        8.484103    0.674700   -1.330217
     52          1           0        9.070558    0.428456   -2.950715
     53          1           0        4.663062   -0.121610   -3.916018
     54          1           0        4.245629   -1.860693   -3.644331
     55          1           0        6.483035   -1.732767   -5.394944
     56          1           0        5.552312   -0.336940   -5.786447
     57          1           0        6.191716    4.800981   -2.077438
     58          1           0        6.269399    6.021443   -0.864817
     59          1           0        4.726360    5.790896   -1.726904
     60          1           0        4.989603    7.282907    0.472202
     61          1           0        3.510516    7.836381    1.438869
     62          1           0        3.380874    6.820995   -0.022334
     63          1           0        3.262294    2.377517    5.534401
     64          1           0        4.607158   -0.187072    6.228813
     65          1           0        4.932043    3.081778    6.883974
     66          1           0        6.086262    2.627499    5.583919
     67          1           0        5.729128    1.520624    6.806318
     68          1           0        2.369872    0.529223    7.150652
     69          1           0        2.437319   -1.133332    6.576885
     70          1           0        1.196593    1.273139    5.474079
     71          1           0        0.477023   -0.366595    5.616154
     72          1           0        1.646812    0.058806    4.287493
     73          1           0        3.740720   -5.615358    3.133788
     74          1           0        3.959583   -4.440851    4.479782
     75          1           0        5.421960   -5.093464    3.630598
     76          1           0        6.468677   -4.173300   -1.291511
     77          1           0        5.065543   -6.280350   -4.785943
     78          1           0        4.915161   -4.499060   -5.318976
     79          1           0        3.660115   -5.415716   -4.464381
     80         12           0       -4.149081    0.528722   -0.946961
     81          6           0       -6.731743   -1.596636    0.353742
     82          6           0       -6.520845    2.957864   -1.276487
     83          6           0       -2.005812    2.270548   -2.508971
     84          6           0       -2.290194   -2.350630   -1.579069
     85          7           0       -6.312143    0.556993   -0.485829
     86          6           0       -7.171619   -0.288521    0.062576
     87          6           0       -8.559826    0.325570    0.387139
     88          6           0       -8.543085    1.531615   -0.673066
     89          6           0       -7.033348    1.725047   -0.799403
     90          6           0       -9.090451    1.142265   -2.036198
     91          6           0       -8.648449    0.857333    1.860704
     92          6           0      -10.063373    1.186873    2.341467
     93          1           0      -10.401391    0.929442    3.738587
     94          7           0       -4.105076    2.476875   -1.322870
     95          6           0       -5.159959    3.315318   -1.397100
     96          6           0       -4.600947    4.637863   -1.717332
     97          6           0       -3.146301    4.479126   -1.988472
     98          6           0       -3.030911    3.034666   -1.970593
     99          6           0       -5.413716    5.898899   -1.666209
    100          6           0       -2.044205    5.463916   -2.237051
    101          8           0       -0.901265    5.096307   -2.685813
    102          6           0       -2.372518    6.881723   -2.028416
    103          7           0       -2.492554    0.026256   -2.098391
    104          6           0       -1.698798    0.977977   -2.620014
    105          6           0       -0.424914    0.383752   -3.171827
    106          6           0       -0.420141   -1.142205   -2.693272
    107          6           0       -1.795513   -1.191904   -1.992352
    108          6           0       -0.267845    0.440841   -4.691189
    109          6           0        0.827962   -1.629432   -1.907444
    110          6           0        0.891447   -0.942544   -0.562248
    111          7           0       -4.347159   -1.577786   -0.509407
    112          6           0       -3.466524   -2.614324   -0.889074
    113          6           0       -4.082822   -3.887331   -0.462394
    114          6           0       -5.299647   -3.501746    0.119973
    115          6           0       -5.441595   -2.089890    0.042346
    116          6           0       -3.540873   -5.186290   -0.674820
    117          6           0       -6.501176   -3.968948    0.773220
    118          8           0       -6.897752   -5.057640    1.187006
    119          6           0       -7.539711   -2.767563    0.840283
    120          6           0       -8.089683   -2.706531    2.238969
    121          8           0       -7.350230   -2.419939    3.196926
    122          8           0       -9.432124   -2.781739    2.188267
    123          6           0      -10.024530   -2.714208    3.550734
    124          1           0       -7.225673    3.709745   -1.632552
    125          1           0       -1.186092    2.833195   -2.961701
    126          1           0       -1.728593   -3.284420   -1.652035
    127          1           0       -9.402057   -0.327884    0.193689
    128          1           0       -9.008888    2.424124   -0.263424
    129          1           0       -9.291518    0.083317   -2.102141
    130          1           0       -8.330112    1.428229   -2.751143
    131          1           0       -9.970982    1.745503   -2.275167
    132          1           0       -8.196281    1.856331    1.908661
    133          1           0       -8.186141    0.170013    2.542241
    134          1           0      -10.831415    0.771893    1.677497
    135          1           0      -10.208868    2.267919    2.276824
    136          1           0       -6.487202    5.683144   -1.599336
    137          1           0       -5.296181    6.394611   -2.635903
    138          1           0       -5.084799    6.580382   -0.878756
    139          1           0       -3.201236    7.159494   -2.675352
    140          1           0       -1.434634    7.422586   -2.168802
    141          1           0       -2.720487    7.012246   -0.997636
    142          1           0        0.444191    0.883365   -2.761772
    143          1           0       -0.476042   -1.836401   -3.544621
    144          1           0        0.653221    0.960956   -5.015527
    145          1           0       -1.142937    0.922402   -5.106947
    146          1           0       -0.275527   -0.525302   -5.192881
    147          1           0        1.741814   -1.354412   -2.439791
    148          1           0        0.852650   -2.703847   -1.759043
    149          1           0        1.366893    0.014706   -0.796152
    150          1           0        1.492689   -1.521770    0.135641
    151          1           0       -0.114058   -0.727114   -0.182508
    152          1           0       -3.675506   -5.734562    0.248090
    153          1           0       -2.491996   -5.137733   -0.959917
    154          1           0       -4.174259   -5.529815   -1.497053
    155          1           0       -8.318189   -2.965912    0.102579
    156          1           0      -10.650415   -3.603811    3.671428
    157          1           0      -10.529289   -1.731555    3.608653
    158          1           0       -9.352227   -2.812483    4.395013
 ---------------------------------------------------------------------
 Rotational constants (GHZ):           0.0250952           0.0122576           0.0110751
 Leave Link  202 at Thu Sep  9 13:44:18 2021, MaxMem= 23488102400 cpu:               0.2 elap:               0.0
 (Enter /sw/apps/gaussian-16.0/g16/l301.exe)
 Standard basis: def2SVP (5D, 7F)
 Ernie: Thresh=  0.10000D-02 Tol=  0.10000D-05 Strict=F.
 There are  1658 symmetry adapted cartesian basis functions of A   symmetry.
 There are  1572 symmetry adapted basis functions of A   symmetry.
  1572 basis functions,  2678 primitive gaussians,  1658 cartesian basis functions
   312 alpha electrons      312 beta electrons
       nuclear repulsion energy     15556.1833406019 Hartrees.
 IExCor=20419 DFT=T Ex+Corr=CAM-B3LYP ExCW=0 ScaHFX=  1.000000
 ScaDFX=  1.000000  1.000000  1.000000  0.810000 ScalE2=  1.000000  1.000000
 IRadAn=      5 IRanWt=     -1 IRanGd=            0 ICorTp=0 IEmpDi=  4
 HFx  wShort=  0.000000 wLong=  0.330000 cFull=  0.190000 cShort=  0.000000 cLong=  0.460000
 DFx  wShort=  0.000000 wLong=  0.330000 cFull=  0.190000 cShort=  0.000000 cLong=  0.460000
 NAtoms=  158 NActive=  158 NUniq=  158 SFac= 1.00D+00 NAtFMM=   60 NAOKFM=T Big=T
 Integral buffers will be    131072 words long.
 Raffenetti 1 integral format.
 Two-electron integral symmetry is turned on.
 Leave Link  301 at Thu Sep  9 13:44:18 2021, MaxMem= 23488102400 cpu:               1.6 elap:               0.1
 (Enter /sw/apps/gaussian-16.0/g16/l302.exe)
 NPDir=0 NMtPBC=     1 NCelOv=     1 NCel=       1 NClECP=     1 NCelD=      1
         NCelK=      1 NCelE2=     1 NClLst=     1 CellRange=     0.0.
 One-electron integrals computed using PRISM.
 One-electron integral symmetry used in STVInt
   1 Symmetry operations used in ECPInt.
 ECPInt:  NShTT=  271216 NPrTT=  987664 LenC2=  150768 LenP2D=  320115.
 LDataN:  DoStor=T MaxTD1= 4 Len=   56
 NBasis=  1572 RedAO= T EigKep=  3.29D-04  NBF=  1572
 NBsUse=  1572 1.00D-06 EigRej= -1.00D+00 NBFU=  1572
 Precomputing XC quadrature grid using
 IXCGrd= 4 IRadAn=           5 IRanWt=          -1 IRanGd=           0 AccXCQ= 0.00D+00.
 Generated NRdTot=       0 NPtTot=           0 NUsed=           0 NTot=          32
 NSgBfM=  1327  1318  1321  1327  1327 MxSgAt=   158 MxSgA2=   158.
 Leave Link  302 at Thu Sep  9 13:44:24 2021, MaxMem= 23488102400 cpu:             133.4 elap:               5.6
 (Enter /sw/apps/gaussian-16.0/g16/l303.exe)
 DipDrv:  MaxL=1.
 Leave Link  303 at Thu Sep  9 13:44:24 2021, MaxMem= 23488102400 cpu:              10.5 elap:               0.5
 (Enter /sw/apps/gaussian-16.0/g16/l308.exe)
 Leave Link  308 at Thu Sep  9 13:44:25 2021, MaxMem= 23488102400 cpu:              15.3 elap:               0.7
 (Enter /sw/apps/gaussian-16.0/g16/l401.exe)
 ExpMin= 3.36D-02 ExpMax= 4.95D+03 ExpMxC= 7.45D+02 IAcc=3 IRadAn=         5 AccDes= 0.00D+00
 Harris functional with IExCor=20419 and IRadAn=       5 diagonalized for initial guess.
 HarFok:  IExCor=20419 AccDes= 0.00D+00 IRadAn=         5 IDoV= 1 UseB2=F ITyADJ=14
 ICtDFT=  3500011 ScaDFX=  1.000000  1.000000  1.000000  1.000000
 FoFCou: FMM=F IPFlag=           0 FMFlag=      100000 FMFlg1=        2001
         NFxFlg=           0 DoJE=T BraDBF=F KetDBF=T FulRan=T
         wScrn=  0.000000 ICntrl=       500 IOpCl=  0 I1Cent=   200000004 NGrid=           0
         NMat0=    1 NMatS0=      1 NMatT0=    0 NMatD0=    1 NMtDS0=    0 NMtDT0=    0
 Petite list used in FoFCou.
 Harris En= -3918.66219502005    
 JPrj=0 DoOrth=F DoCkMO=F.
 Leave Link  401 at Thu Sep  9 13:44:34 2021, MaxMem= 23488102400 cpu:             211.5 elap:               8.8
 (Enter /sw/apps/gaussian-16.0/g16/l502.exe)
 Integral symmetry usage will be decided dynamically.
 Closed shell SCF:
 Using DIIS extrapolation, IDIIS=  1040.
 NGot= 23488102400 LenX= 23482547354 LenY= 23479796732
 Requested convergence on RMS density matrix=1.00D-08 within 128 cycles.
 Requested convergence on MAX density matrix=1.00D-06.
 Requested convergence on             energy=1.00D-06.
 No special actions if energy rises.
 Fock matrices will be formed incrementally for  20 cycles.

 Cycle   1  Pass 1  IDiag  1:
 FoFJK:  IHMeth= 1 ICntrl=       0 DoSepK=T KAlg= 0 I1Cent=           0 FoldK=F
 IRaf=         1 NMat=       1 IRICut=       1 DoRegI=T DoRafI=F ISym2E= 0 IDoP0=0 IntGTp=1.
 FoFCou: FMM=T IPFlag=           0 FMFlag=      100000 FMFlg1=        2001
         NFxFlg=           0 DoJE=T BraDBF=F KetDBF=F FulRan=T
         wScrn=  0.000000 ICntrl=       500 IOpCl=  0 I1Cent=           0 NGrid=           0
         NMat0=    1 NMatS0=      1 NMatT0=    0 NMatD0=    1 NMtDS0=    0 NMtDT0=    0
 Symmetry not used in FoFCou.
 FMM levels:  10  Number of levels for PrismC:   9
 E= -4068.95104523584    
 DIIS: error= 1.86D-02 at cycle   1 NSaved=   1.
 NSaved= 1 IEnMin= 1 EnMin= -4068.95104523584     IErMin= 1 ErrMin= 1.86D-02
 ErrMax= 1.86D-02  0.00D+00 EMaxC= 1.00D-01 BMatC= 1.69D+00 BMatP= 1.69D+00
 IDIUse=3 WtCom= 8.14D-01 WtEn= 1.86D-01
 Coeff-Com:  0.100D+01
 Coeff-En:   0.100D+01
 Coeff:      0.100D+01
 Gap=     0.120 Goal=   None    Shift=    0.000
 GapD=    0.120 DampG=1.000 DampE=0.500 DampFc=0.5000 IDamp=-1.
 Damping current iteration by 5.00D-01
 RMSDP=1.59D-03 MaxDP=1.42D-01              OVMax= 2.07D-01

 Cycle   2  Pass 1  IDiag  1:
 RMSU=  7.79D-04    CP:  9.82D-01
 E= -4069.34048537374     Delta-E=       -0.389440137897 Rises=F Damp=T
 DIIS: error= 1.16D-02 at cycle   2 NSaved=   2.
 NSaved= 2 IEnMin= 2 EnMin= -4069.34048537374     IErMin= 2 ErrMin= 1.16D-02
 ErrMax= 1.16D-02  0.00D+00 EMaxC= 1.00D-01 BMatC= 3.07D-01 BMatP= 1.69D+00
 IDIUse=3 WtCom= 8.84D-01 WtEn= 1.16D-01
 Coeff-Com: -0.212D+00 0.121D+01
 Coeff-En:   0.000D+00 0.100D+01
 Coeff:     -0.187D+00 0.119D+01
 Gap=     0.135 Goal=   None    Shift=    0.000
 RMSDP=7.78D-04 MaxDP=9.39D-02 DE=-3.89D-01 OVMax= 1.92D-01

 Cycle   3  Pass 1  IDiag  1:
 RMSU=  7.45D-04    CP:  9.68D-01  1.24D+00
 E= -4069.62453123542     Delta-E=       -0.284045861681 Rises=F Damp=F
 DIIS: error= 1.46D-02 at cycle   3 NSaved=   3.
 NSaved= 3 IEnMin= 3 EnMin= -4069.62453123542     IErMin= 2 ErrMin= 1.16D-02
 ErrMax= 1.46D-02  0.00D+00 EMaxC= 1.00D-01 BMatC= 2.09D-01 BMatP= 3.07D-01
 IDIUse=3 WtCom= 8.54D-01 WtEn= 1.46D-01
 Coeff-Com: -0.269D+00 0.657D+00 0.611D+00
 Coeff-En:   0.000D+00 0.000D+00 0.100D+01
 Coeff:     -0.229D+00 0.561D+00 0.668D+00
 Gap=     0.122 Goal=   None    Shift=    0.000
 RMSDP=5.23D-04 MaxDP=4.74D-02 DE=-2.84D-01 OVMax= 1.54D-01

 Cycle   4  Pass 1  IDiag  1:
 RMSU=  2.74D-04    CP:  9.64D-01  1.54D+00  4.95D-01
 E= -4069.76799673792     Delta-E=       -0.143465502497 Rises=F Damp=F
 DIIS: error= 6.59D-03 at cycle   4 NSaved=   4.
 NSaved= 4 IEnMin= 4 EnMin= -4069.76799673792     IErMin= 4 ErrMin= 6.59D-03
 ErrMax= 6.59D-03  0.00D+00 EMaxC= 1.00D-01 BMatC= 5.07D-02 BMatP= 2.09D-01
 IDIUse=3 WtCom= 9.34D-01 WtEn= 6.59D-02
 Coeff-Com: -0.112D+00 0.234D+00 0.406D+00 0.472D+00
 Coeff-En:   0.000D+00 0.000D+00 0.219D+00 0.781D+00
 Coeff:     -0.105D+00 0.218D+00 0.394D+00 0.493D+00
 Gap=     0.120 Goal=   None    Shift=    0.000
 RMSDP=2.10D-04 MaxDP=1.99D-02 DE=-1.43D-01 OVMax= 7.22D-02

 Cycle   5  Pass 1  IDiag  1:
 RMSU=  8.19D-05    CP:  9.64D-01  1.49D+00  6.83D-01  5.38D-01
 E= -4069.81468674739     Delta-E=       -0.046690009469 Rises=F Damp=F
 DIIS: error= 6.90D-04 at cycle   5 NSaved=   5.
 NSaved= 5 IEnMin= 5 EnMin= -4069.81468674739     IErMin= 5 ErrMin= 6.90D-04
 ErrMax= 6.90D-04  0.00D+00 EMaxC= 1.00D-01 BMatC= 1.46D-03 BMatP= 5.07D-02
 IDIUse=3 WtCom= 9.93D-01 WtEn= 6.90D-03
 Coeff-Com: -0.411D-01 0.811D-01 0.177D+00 0.262D+00 0.520D+00
 Coeff-En:   0.000D+00 0.000D+00 0.000D+00 0.000D+00 0.100D+01
 Coeff:     -0.408D-01 0.806D-01 0.176D+00 0.260D+00 0.524D+00
 Gap=     0.120 Goal=   None    Shift=    0.000
 RMSDP=4.81D-05 MaxDP=4.46D-03 DE=-4.67D-02 OVMax= 2.14D-02

 Cycle   6  Pass 1  IDiag  1:
 RMSU=  3.40D-05    CP:  9.63D-01  1.49D+00  6.73D-01  6.18D-01  7.02D-01
 E= -4069.81605293588     Delta-E=       -0.001366188491 Rises=F Damp=F
 DIIS: error= 1.98D-04 at cycle   6 NSaved=   6.
 NSaved= 6 IEnMin= 6 EnMin= -4069.81605293588     IErMin= 6 ErrMin= 1.98D-04
 ErrMax= 1.98D-04  0.00D+00 EMaxC= 1.00D-01 BMatC= 2.11D-04 BMatP= 1.46D-03
 IDIUse=3 WtCom= 9.98D-01 WtEn= 1.98D-03
 Coeff-Com:  0.113D-02-0.454D-02 0.151D-01 0.450D-01 0.297D+00 0.646D+00
 Coeff-En:   0.000D+00 0.000D+00 0.000D+00 0.000D+00 0.117D+00 0.883D+00
 Coeff:      0.113D-02-0.453D-02 0.151D-01 0.449D-01 0.297D+00 0.647D+00
 Gap=     0.120 Goal=   None    Shift=    0.000
 RMSDP=1.83D-05 MaxDP=1.35D-03 DE=-1.37D-03 OVMax= 9.12D-03

 Cycle   7  Pass 1  IDiag  1:
 RMSU=  1.19D-05    CP:  9.63D-01  1.50D+00  6.79D-01  6.15D-01  8.19D-01
                    CP:  7.36D-01
 E= -4069.81629320707     Delta-E=       -0.000240271194 Rises=F Damp=F
 DIIS: error= 1.17D-04 at cycle   7 NSaved=   7.
 NSaved= 7 IEnMin= 7 EnMin= -4069.81629320707     IErMin= 7 ErrMin= 1.17D-04
 ErrMax= 1.17D-04  0.00D+00 EMaxC= 1.00D-01 BMatC= 2.97D-05 BMatP= 2.11D-04
 IDIUse=3 WtCom= 9.99D-01 WtEn= 1.17D-03
 Coeff-Com:  0.458D-02-0.101D-01-0.835D-02-0.235D-02 0.107D+00 0.351D+00
 Coeff-Com:  0.559D+00
 Coeff-En:   0.000D+00 0.000D+00 0.000D+00 0.000D+00 0.000D+00 0.000D+00
 Coeff-En:   0.100D+01
 Coeff:      0.457D-02-0.101D-01-0.834D-02-0.235D-02 0.106D+00 0.350D+00
 Coeff:      0.559D+00
 Gap=     0.121 Goal=   None    Shift=    0.000
 RMSDP=7.07D-06 MaxDP=1.13D-03 DE=-2.40D-04 OVMax= 3.45D-03

 Cycle   8  Pass 1  IDiag  1:
 RMSU=  4.96D-06    CP:  9.63D-01  1.50D+00  6.80D-01  6.21D-01  8.17D-01
                    CP:  8.56D-01  8.04D-01
 E= -4069.81632942945     Delta-E=       -0.000036222376 Rises=F Damp=F
 DIIS: error= 6.27D-05 at cycle   8 NSaved=   8.
 NSaved= 8 IEnMin= 8 EnMin= -4069.81632942945     IErMin= 8 ErrMin= 6.27D-05
 ErrMax= 6.27D-05  0.00D+00 EMaxC= 1.00D-01 BMatC= 4.78D-06 BMatP= 2.97D-05
 IDIUse=1 WtCom= 1.00D+00 WtEn= 0.00D+00
 Coeff-Com:  0.232D-02-0.461D-02-0.785D-02-0.121D-01-0.897D-02 0.349D-01
 Coeff-Com:  0.298D+00 0.698D+00
 Coeff:      0.232D-02-0.461D-02-0.785D-02-0.121D-01-0.897D-02 0.349D-01
 Coeff:      0.298D+00 0.698D+00
 Gap=     0.121 Goal=   None    Shift=    0.000
 RMSDP=3.46D-06 MaxDP=4.20D-04 DE=-3.62D-05 OVMax= 1.24D-03

 Cycle   9  Pass 1  IDiag  1:
 RMSU=  2.03D-06    CP:  9.63D-01  1.50D+00  6.80D-01  6.22D-01  8.33D-01
                    CP:  8.85D-01  9.89D-01  9.85D-01
 E= -4069.81633742965     Delta-E=       -0.000008000206 Rises=F Damp=F
 DIIS: error= 2.26D-05 at cycle   9 NSaved=   9.
 NSaved= 9 IEnMin= 9 EnMin= -4069.81633742965     IErMin= 9 ErrMin= 2.26D-05
 ErrMax= 2.26D-05  0.00D+00 EMaxC= 1.00D-01 BMatC= 8.20D-07 BMatP= 4.78D-06
 IDIUse=1 WtCom= 1.00D+00 WtEn= 0.00D+00
 Coeff-Com:  0.542D-03-0.919D-03-0.283D-02-0.618D-02-0.201D-01-0.401D-01
 Coeff-Com:  0.806D-01 0.359D+00 0.630D+00
 Coeff:      0.542D-03-0.919D-03-0.283D-02-0.618D-02-0.201D-01-0.401D-01
 Coeff:      0.806D-01 0.359D+00 0.630D+00
 Gap=     0.121 Goal=   None    Shift=    0.000
 RMSDP=1.49D-06 MaxDP=1.58D-04 DE=-8.00D-06 OVMax= 8.07D-04

 Cycle  10  Pass 1  IDiag  1:
 RMSU=  9.87D-07    CP:  9.63D-01  1.50D+00  6.80D-01  6.23D-01  8.37D-01
                    CP:  8.97D-01  1.03D+00  1.15D+00  1.05D+00
 E= -4069.81633922949     Delta-E=       -0.000001799839 Rises=F Damp=F
 DIIS: error= 1.03D-05 at cycle  10 NSaved=  10.
 NSaved=10 IEnMin=10 EnMin= -4069.81633922949     IErMin=10 ErrMin= 1.03D-05
 ErrMax= 1.03D-05  0.00D+00 EMaxC= 1.00D-01 BMatC= 1.58D-07 BMatP= 8.20D-07
 IDIUse=1 WtCom= 1.00D+00 WtEn= 0.00D+00
 Coeff-Com: -0.419D-03 0.885D-03 0.114D-02 0.982D-03-0.361D-02-0.300D-01
 Coeff-Com: -0.449D-01-0.577D-01 0.216D+00 0.918D+00
 Coeff:     -0.419D-03 0.885D-03 0.114D-02 0.982D-03-0.361D-02-0.300D-01
 Coeff:     -0.449D-01-0.577D-01 0.216D+00 0.918D+00
 Gap=     0.121 Goal=   None    Shift=    0.000
 RMSDP=1.25D-06 MaxDP=1.25D-04 DE=-1.80D-06 OVMax= 6.93D-04

 Cycle  11  Pass 1  IDiag  1:
 RMSU=  5.60D-07    CP:  9.63D-01  1.50D+00  6.80D-01  6.23D-01  8.39D-01
                    CP:  9.06D-01  1.07D+00  1.26D+00  1.38D+00  1.36D+00
 E= -4069.81634004834     Delta-E=       -0.000000818847 Rises=F Damp=F
 DIIS: error= 3.97D-06 at cycle  11 NSaved=  11.
 NSaved=11 IEnMin=11 EnMin= -4069.81634004834     IErMin=11 ErrMin= 3.97D-06
 ErrMax= 3.97D-06  0.00D+00 EMaxC= 1.00D-01 BMatC= 7.10D-08 BMatP= 1.58D-07
 IDIUse=1 WtCom= 1.00D+00 WtEn= 0.00D+00
 Coeff-Com: -0.361D-03 0.704D-03 0.137D-02 0.215D-02 0.422D-02-0.815D-02
 Coeff-Com: -0.414D-01-0.127D+00-0.528D-01 0.510D+00 0.712D+00
 Coeff:     -0.361D-03 0.704D-03 0.137D-02 0.215D-02 0.422D-02-0.815D-02
 Coeff:     -0.414D-01-0.127D+00-0.528D-01 0.510D+00 0.712D+00
 Gap=     0.121 Goal=   None    Shift=    0.000
 RMSDP=7.21D-07 MaxDP=7.47D-05 DE=-8.19D-07 OVMax= 4.33D-04

 Cycle  12  Pass 1  IDiag  1:
 RMSU=  2.81D-07    CP:  9.63D-01  1.50D+00  6.80D-01  6.23D-01  8.40D-01
                    CP:  9.09D-01  1.09D+00  1.33D+00  1.54D+00  1.75D+00
                    CP:  1.17D+00
 E= -4069.81634033679     Delta-E=       -0.000000288444 Rises=F Damp=F
 DIIS: error= 2.70D-06 at cycle  12 NSaved=  12.
 NSaved=12 IEnMin=12 EnMin= -4069.81634033679     IErMin=12 ErrMin= 2.70D-06
 ErrMax= 2.70D-06  0.00D+00 EMaxC= 1.00D-01 BMatC= 1.54D-08 BMatP= 7.10D-08
 IDIUse=1 WtCom= 1.00D+00 WtEn= 0.00D+00
 Coeff-Com: -0.248D-04 0.319D-04 0.259D-03 0.615D-03 0.340D-02 0.363D-02
 Coeff-Com:  0.645D-04-0.362D-01-0.781D-01-0.286D-01 0.248D+00 0.887D+00
 Coeff:     -0.248D-04 0.319D-04 0.259D-03 0.615D-03 0.340D-02 0.363D-02
 Coeff:      0.645D-04-0.362D-01-0.781D-01-0.286D-01 0.248D+00 0.887D+00
 Gap=     0.121 Goal=   None    Shift=    0.000
 RMSDP=4.39D-07 MaxDP=3.00D-05 DE=-2.88D-07 OVMax= 2.77D-04

 Cycle  13  Pass 1  IDiag  1:
 RMSU=  1.72D-07    CP:  9.63D-01  1.50D+00  6.80D-01  6.23D-01  8.40D-01
                    CP:  9.09D-01  1.10D+00  1.35D+00  1.64D+00  1.96D+00
                    CP:  1.57D+00  1.25D+00
 E= -4069.81634043325     Delta-E=       -0.000000096468 Rises=F Damp=F
 DIIS: error= 1.45D-06 at cycle  13 NSaved=  13.
 NSaved=13 IEnMin=13 EnMin= -4069.81634043325     IErMin=13 ErrMin= 1.45D-06
 ErrMax= 1.45D-06  0.00D+00 EMaxC= 1.00D-01 BMatC= 9.01D-09 BMatP= 1.54D-08
 IDIUse=1 WtCom= 1.00D+00 WtEn= 0.00D+00
 Coeff-Com:  0.123D-03-0.252D-03-0.364D-03-0.454D-03 0.640D-03 0.472D-02
 Coeff-Com:  0.177D-01 0.249D-01-0.304D-01-0.236D+00-0.180D+00 0.579D+00
 Coeff-Com:  0.820D+00
 Coeff:      0.123D-03-0.252D-03-0.364D-03-0.454D-03 0.640D-03 0.472D-02
 Coeff:      0.177D-01 0.249D-01-0.304D-01-0.236D+00-0.180D+00 0.579D+00
 Coeff:      0.820D+00
 Gap=     0.121 Goal=   None    Shift=    0.000
 RMSDP=3.68D-07 MaxDP=2.52D-05 DE=-9.65D-08 OVMax= 2.47D-04

 Cycle  14  Pass 1  IDiag  1:
 RMSU=  8.03D-08    CP:  9.63D-01  1.50D+00  6.80D-01  6.23D-01  8.40D-01
                    CP:  9.09D-01  1.11D+00  1.38D+00  1.72D+00  2.17D+00
                    CP:  1.83D+00  1.78D+00  1.15D+00
 E= -4069.81634047527     Delta-E=       -0.000000042015 Rises=F Damp=F
 DIIS: error= 7.78D-07 at cycle  14 NSaved=  14.
 NSaved=14 IEnMin=14 EnMin= -4069.81634047527     IErMin=14 ErrMin= 7.78D-07
 ErrMax= 7.78D-07  0.00D+00 EMaxC= 1.00D-01 BMatC= 1.27D-09 BMatP= 9.01D-09
 IDIUse=1 WtCom= 1.00D+00 WtEn= 0.00D+00
 Coeff-Com:  0.707D-04-0.140D-03-0.251D-03-0.394D-03-0.435D-03 0.108D-02
 Coeff-Com:  0.952D-02 0.204D-01 0.632D-02-0.100D+00-0.149D+00 0.801D-01
 Coeff-Com:  0.397D+00 0.736D+00
 Coeff:      0.707D-04-0.140D-03-0.251D-03-0.394D-03-0.435D-03 0.108D-02
 Coeff:      0.952D-02 0.204D-01 0.632D-02-0.100D+00-0.149D+00 0.801D-01
 Coeff:      0.397D+00 0.736D+00
 Gap=     0.121 Goal=   None    Shift=    0.000
 RMSDP=1.11D-07 MaxDP=8.08D-06 DE=-4.20D-08 OVMax= 7.20D-05

 Cycle  15  Pass 1  IDiag  1:
 RMSU=  3.93D-08    CP:  9.63D-01  1.50D+00  6.80D-01  6.23D-01  8.40D-01
                    CP:  9.09D-01  1.11D+00  1.38D+00  1.74D+00  2.21D+00
                    CP:  1.94D+00  1.92D+00  1.38D+00  1.06D+00
 E= -4069.81634047987     Delta-E=       -0.000000004598 Rises=F Damp=F
 DIIS: error= 3.62D-07 at cycle  15 NSaved=  15.
 NSaved=15 IEnMin=15 EnMin= -4069.81634047987     IErMin=15 ErrMin= 3.62D-07
 ErrMax= 3.62D-07  0.00D+00 EMaxC= 1.00D-01 BMatC= 2.37D-10 BMatP= 1.27D-09
 IDIUse=1 WtCom= 1.00D+00 WtEn= 0.00D+00
 Coeff-Com:  0.683D-05-0.118D-04-0.368D-04-0.876D-04-0.284D-03-0.544D-03
 Coeff-Com:  0.972D-03 0.313D-02 0.854D-02 0.101D-02-0.303D-01-0.725D-01
 Coeff-Com:  0.231D-01 0.313D+00 0.754D+00
 Coeff:      0.683D-05-0.118D-04-0.368D-04-0.876D-04-0.284D-03-0.544D-03
 Coeff:      0.972D-03 0.313D-02 0.854D-02 0.101D-02-0.303D-01-0.725D-01
 Coeff:      0.231D-01 0.313D+00 0.754D+00
 Gap=     0.121 Goal=   None    Shift=    0.000
 RMSDP=4.06D-08 MaxDP=3.29D-06 DE=-4.60D-09 OVMax= 3.21D-05

 Cycle  16  Pass 1  IDiag  1:
 RMSU=  1.93D-08    CP:  9.63D-01  1.50D+00  6.80D-01  6.23D-01  8.40D-01
                    CP:  9.09D-01  1.11D+00  1.38D+00  1.74D+00  2.22D+00
                    CP:  1.96D+00  1.98D+00  1.46D+00  1.27D+00  1.15D+00
 E= -4069.81634048084     Delta-E=       -0.000000000975 Rises=F Damp=F
 DIIS: error= 1.95D-07 at cycle  16 NSaved=  16.
 NSaved=16 IEnMin=16 EnMin= -4069.81634048084     IErMin=16 ErrMin= 1.95D-07
 ErrMax= 1.95D-07  0.00D+00 EMaxC= 1.00D-01 BMatC= 7.92D-11 BMatP= 2.37D-10
 IDIUse=1 WtCom= 1.00D+00 WtEn= 0.00D+00
 Coeff-Com: -0.140D-04 0.284D-04 0.438D-04 0.491D-04-0.290D-04-0.589D-03
 Coeff-Com: -0.171D-02-0.395D-02 0.326D-02 0.247D-01 0.211D-01-0.592D-01
 Coeff-Com: -0.820D-01-0.289D-01 0.380D+00 0.748D+00
 Coeff:     -0.140D-04 0.284D-04 0.438D-04 0.491D-04-0.290D-04-0.589D-03
 Coeff:     -0.171D-02-0.395D-02 0.326D-02 0.247D-01 0.211D-01-0.592D-01
 Coeff:     -0.820D-01-0.289D-01 0.380D+00 0.748D+00
 Gap=     0.121 Goal=   None    Shift=    0.000
 RMSDP=2.33D-08 MaxDP=1.70D-06 DE=-9.75D-10 OVMax= 1.63D-05

 Cycle  17  Pass 1  IDiag  1:
 RMSU=  1.09D-08    CP:  9.63D-01  1.50D+00  6.80D-01  6.23D-01  8.40D-01
                    CP:  9.09D-01  1.11D+00  1.38D+00  1.74D+00  2.23D+00
                    CP:  1.97D+00  2.00D+00  1.50D+00  1.37D+00  1.43D+00
                    CP:  1.24D+00
 E= -4069.81634048096     Delta-E=       -0.000000000120 Rises=F Damp=F
 DIIS: error= 8.83D-08 at cycle  17 NSaved=  17.
 NSaved=17 IEnMin=17 EnMin= -4069.81634048096     IErMin=17 ErrMin= 8.83D-08
 ErrMax= 8.83D-08  0.00D+00 EMaxC= 1.00D-01 BMatC= 1.88D-11 BMatP= 7.92D-11
 IDIUse=1 WtCom= 1.00D+00 WtEn= 0.00D+00
 Coeff-Com: -0.764D-05 0.149D-04 0.286D-04 0.420D-04 0.778D-04-0.112D-03
 Coeff-Com: -0.841D-03-0.272D-02-0.472D-03 0.975D-02 0.173D-01-0.657D-02
 Coeff-Com: -0.358D-01-0.985D-01-0.394D-01 0.311D+00 0.846D+00
 Coeff:     -0.764D-05 0.149D-04 0.286D-04 0.420D-04 0.778D-04-0.112D-03
 Coeff:     -0.841D-03-0.272D-02-0.472D-03 0.975D-02 0.173D-01-0.657D-02
 Coeff:     -0.358D-01-0.985D-01-0.394D-01 0.311D+00 0.846D+00
 Gap=     0.121 Goal=   None    Shift=    0.000
 RMSDP=1.40D-08 MaxDP=1.08D-06 DE=-1.20D-10 OVMax= 1.08D-05

 Cycle  18  Pass 1  IDiag  1:
 RMSU=  5.07D-09    CP:  9.63D-01  1.50D+00  6.80D-01  6.23D-01  8.40D-01
                    CP:  9.09D-01  1.11D+00  1.38D+00  1.74D+00  2.23D+00
                    CP:  1.98D+00  2.01D+00  1.52D+00  1.43D+00  1.60D+00
                    CP:  1.64D+00  1.39D+00
 E= -4069.81634048095     Delta-E=        0.000000000015 Rises=F Damp=F
 DIIS: error= 6.23D-08 at cycle  18 NSaved=  18.
 NSaved=18 IEnMin=17 EnMin= -4069.81634048096     IErMin=18 ErrMin= 6.23D-08
 ErrMax= 6.23D-08  0.00D+00 EMaxC= 1.00D-01 BMatC= 6.81D-12 BMatP= 1.88D-11
 IDIUse=1 WtCom= 1.00D+00 WtEn= 0.00D+00
 Coeff-Com:  0.172D-05-0.377D-05-0.332D-05-0.246D-06 0.578D-04 0.168D-03
 Coeff-Com:  0.337D-03 0.182D-03-0.121D-02-0.544D-02-0.380D-03 0.182D-01
 Coeff-Com:  0.182D-01-0.334D-01-0.162D+00-0.164D+00 0.345D+00 0.984D+00
 Coeff:      0.172D-05-0.377D-05-0.332D-05-0.246D-06 0.578D-04 0.168D-03
 Coeff:      0.337D-03 0.182D-03-0.121D-02-0.544D-02-0.380D-03 0.182D-01
 Coeff:      0.182D-01-0.334D-01-0.162D+00-0.164D+00 0.345D+00 0.984D+00
 Gap=     0.121 Goal=   None    Shift=    0.000
 RMSDP=1.17D-08 MaxDP=8.65D-07 DE= 1.46D-11 OVMax= 8.05D-06

 Cycle  19  Pass 1  IDiag  1:
 RMSU=  3.10D-09    CP:  9.63D-01  1.50D+00  6.80D-01  6.23D-01  8.40D-01
                    CP:  9.09D-01  1.11D+00  1.38D+00  1.75D+00  2.23D+00
                    CP:  1.98D+00  2.01D+00  1.53D+00  1.48D+00  1.74D+00
                    CP:  1.95D+00  1.92D+00  1.32D+00
 E= -4069.81634048114     Delta-E=       -0.000000000196 Rises=F Damp=F
 DIIS: error= 2.61D-08 at cycle  19 NSaved=  19.
 NSaved=19 IEnMin=19 EnMin= -4069.81634048114     IErMin=19 ErrMin= 2.61D-08
 ErrMax= 2.61D-08  0.00D+00 EMaxC= 1.00D-01 BMatC= 1.83D-12 BMatP= 6.81D-12
 IDIUse=1 WtCom= 1.00D+00 WtEn= 0.00D+00
 Coeff-Com:  0.309D-05-0.625D-05-0.100D-04-0.124D-04 0.137D-04 0.119D-03
 Coeff-Com:  0.442D-03 0.848D-03-0.484D-03-0.607D-02-0.530D-02 0.119D-01
 Coeff-Com:  0.215D-01 0.107D-01-0.773D-01-0.184D+00-0.428D-01 0.537D+00
 Coeff-Com:  0.733D+00
 Coeff:      0.309D-05-0.625D-05-0.100D-04-0.124D-04 0.137D-04 0.119D-03
 Coeff:      0.442D-03 0.848D-03-0.484D-03-0.607D-02-0.530D-02 0.119D-01
 Coeff:      0.215D-01 0.107D-01-0.773D-01-0.184D+00-0.428D-01 0.537D+00
 Coeff:      0.733D+00
 Gap=     0.121 Goal=   None    Shift=    0.000
 RMSDP=5.18D-09 MaxDP=3.83D-07 DE=-1.96D-10 OVMax= 3.89D-06

 SCF Done:  E(RCAM-B3LYP) =  -4069.81634048     A.U. after   19 cycles
            NFock= 19  Conv=0.52D-08     -V/T= 2.0102
 KE= 4.028775211718D+03 PE=-4.059408307990D+04 EE= 1.693930818710D+04
 Leave Link  502 at Thu Sep  9 13:56:58 2021, MaxMem= 23488102400 cpu:           17208.3 elap:             743.7
 (Enter /sw/apps/gaussian-16.0/g16/l801.exe)
 DoSCS=F DFT=T ScalE2(SS,OS)=  1.000000  1.000000
 ExpMin= 3.36D-02 ExpMax= 4.95D+03 ExpMxC= 7.45D+02 IAcc=3 IRadAn=         5 AccDes= 0.00D+00
 HarFok:  IExCor=  205 AccDes= 0.00D+00 IRadAn=         5 IDoV=-2 UseB2=F ITyADJ=14
 ICtDFT= 12500011 ScaDFX=  1.000000  1.000000  1.000000  1.000000
 GSVD:  LWork=       -9588 too small for GESVD, short by       45590 words or       45590 for optimal perf.
 Largest valence mixing into a core orbital is  2.03D-04
 Largest core mixing into a valence orbital is  5.24D-05
 Range of M.O.s used for correlation:    95  1572
 NBasis=  1572 NAE=   312 NBE=   312 NFC=    94 NFV=     0
 NROrb=   1478 NOA=   218 NOB=   218 NVA=  1260 NVB=  1260
 Leave Link  801 at Thu Sep  9 13:56:58 2021, MaxMem= 23488102400 cpu:               7.8 elap:               0.4
 (Enter /sw/apps/gaussian-16.0/g16/l914.exe)
 RHF ground state
 Two-electron integrals replicated using symmetry.
 MDV= 23488102400 DFT=T DoStab=F Mixed=T DoRPA=T DoScal=F NonHer=T
 Making orbital integer symmetry assigments:
 Orbital symmetries:
       Occupied  (A) (A) (A) (A) (A) (A) (A) (A) (A) (A) (A) (A)
                 (A) (A) (A) (A) (A) (A) (A) (A) (A) (A) (A) (A)
                 (A) (A) (A) (A) (A) (A) (A) (A) (A) (A) (A) (A)
                 (A) (A) (A) (A) (A) (A) (A) (A) (A) (A) (A) (A)
                 (A) (A) (A) (A) (A) (A) (A) (A) (A) (A) (A) (A)
                 (A) (A) (A) (A) (A) (A) (A) (A) (A) (A) (A) (A)
                 (A) (A) (A) (A) (A) (A) (A) (A) (A) (A) (A) (A)
                 (A) (A) (A) (A) (A) (A) (A) (A) (A) (A) (A) (A)
                 (A) (A) (A) (A) (A) (A) (A) (A) (A) (A) (A) (A)
                 (A) (A) (A) (A) (A) (A) (A) (A) (A) (A) (A) (A)
                 (A) (A) (A) (A) (A) (A) (A) (A) (A) (A) (A) (A)
                 (A) (A) (A) (A) (A) (A) (A) (A) (A) (A) (A) (A)
                 (A) (A) (A) (A) (A) (A) (A) (A) (A) (A) (A) (A)
                 (A) (A) (A) (A) (A) (A) (A) (A) (A) (A) (A) (A)
                 (A) (A) (A) (A) (A) (A) (A) (A) (A) (A) (A) (A)
                 (A) (A) (A) (A) (A) (A) (A) (A) (A) (A) (A) (A)
                 (A) (A) (A) (A) (A) (A) (A) (A) (A) (A) (A) (A)
                 (A) (A) (A) (A) (A) (A) (A) (A) (A) (A) (A) (A)
                 (A) (A) (A) (A) (A) (A) (A) (A) (A) (A) (A) (A)
                 (A) (A) (A) (A) (A) (A) (A) (A) (A) (A) (A) (A)
                 (A) (A) (A) (A) (A) (A) (A) (A) (A) (A) (A) (A)
                 (A) (A) (A) (A) (A) (A) (A) (A) (A) (A) (A) (A)
                 (A) (A) (A) (A) (A) (A) (A) (A) (A) (A) (A) (A)
                 (A) (A) (A) (A) (A) (A) (A) (A) (A) (A) (A) (A)
                 (A) (A) (A) (A) (A) (A) (A) (A) (A) (A) (A) (A)
                 (A) (A) (A) (A) (A) (A) (A) (A) (A) (A) (A) (A)
       Virtual   (A) (A) (A) (A) (A) (A) (A) (A) (A) (A) (A) (A)
                 (A) (A) (A) (A) (A) (A) (A) (A) (A) (A) (A) (A)
                 (A) (A) (A) (A) (A) (A) (A) (A) (A) (A) (A) (A)
                 (A) (A) (A) (A) (A) (A) (A) (A) (A) (A) (A) (A)
                 (A) (A) (A) (A) (A) (A) (A) (A) (A) (A) (A) (A)
                 (A) (A) (A) (A) (A) (A) (A) (A) (A) (A) (A) (A)
                 (A) (A) (A) (A) (A) (A) (A) (A) (A) (A) (A) (A)
                 (A) (A) (A) (A) (A) (A) (A) (A) (A) (A) (A) (A)
                 (A) (A) (A) (A) (A) (A) (A) (A) (A) (A) (A) (A)
                 (A) (A) (A) (A) (A) (A) (A) (A) (A) (A) (A) (A)
                 (A) (A) (A) (A) (A) (A) (A) (A) (A) (A) (A) (A)
                 (A) (A) (A) (A) (A) (A) (A) (A) (A) (A) (A) (A)
                 (A) (A) (A) (A) (A) (A) (A) (A) (A) (A) (A) (A)
                 (A) (A) (A) (A) (A) (A) (A) (A) (A) (A) (A) (A)
                 (A) (A) (A) (A) (A) (A) (A) (A) (A) (A) (A) (A)
                 (A) (A) (A) (A) (A) (A) (A) (A) (A) (A) (A) (A)
                 (A) (A) (A) (A) (A) (A) (A) (A) (A) (A) (A) (A)
                 (A) (A) (A) (A) (A) (A) (A) (A) (A) (A) (A) (A)
                 (A) (A) (A) (A) (A) (A) (A) (A) (A) (A) (A) (A)
                 (A) (A) (A) (A) (A) (A) (A) (A) (A) (A) (A) (A)
                 (A) (A) (A) (A) (A) (A) (A) (A) (A) (A) (A) (A)
                 (A) (A) (A) (A) (A) (A) (A) (A) (A) (A) (A) (A)
                 (A) (A) (A) (A) (A) (A) (A) (A) (A) (A) (A) (A)
                 (A) (A) (A) (A) (A) (A) (A) (A) (A) (A) (A) (A)
                 (A) (A) (A) (A) (A) (A) (A) (A) (A) (A) (A) (A)
                 (A) (A) (A) (A) (A) (A) (A) (A) (A) (A) (A) (A)
                 (A) (A) (A) (A) (A) (A) (A) (A) (A) (A) (A) (A)
                 (A) (A) (A) (A) (A) (A) (A) (A) (A) (A) (A) (A)
                 (A) (A) (A) (A) (A) (A) (A) (A) (A) (A) (A) (A)
                 (A) (A) (A) (A) (A) (A) (A) (A) (A) (A) (A) (A)
                 (A) (A) (A) (A) (A) (A) (A) (A) (A) (A) (A) (A)
                 (A) (A) (A) (A) (A) (A) (A) (A) (A) (A) (A) (A)
                 (A) (A) (A) (A) (A) (A) (A) (A) (A) (A) (A) (A)
                 (A) (A) (A) (A) (A) (A) (A) (A) (A) (A) (A) (A)
                 (A) (A) (A) (A) (A) (A) (A) (A) (A) (A) (A) (A)
                 (A) (A) (A) (A) (A) (A) (A) (A) (A) (A) (A) (A)
                 (A) (A) (A) (A) (A) (A) (A) (A) (A) (A) (A) (A)
                 (A) (A) (A) (A) (A) (A) (A) (A) (A) (A) (A) (A)
                 (A) (A) (A) (A) (A) (A) (A) (A) (A) (A) (A) (A)
                 (A) (A) (A) (A) (A) (A) (A) (A) (A) (A) (A) (A)
                 (A) (A) (A) (A) (A) (A) (A) (A) (A) (A) (A) (A)
                 (A) (A) (A) (A) (A) (A) (A) (A) (A) (A) (A) (A)
                 (A) (A) (A) (A) (A) (A) (A) (A) (A) (A) (A) (A)
                 (A) (A) (A) (A) (A) (A) (A) (A) (A) (A) (A) (A)
                 (A) (A) (A) (A) (A) (A) (A) (A) (A) (A) (A) (A)
                 (A) (A) (A) (A) (A) (A) (A) (A) (A) (A) (A) (A)
                 (A) (A) (A) (A) (A) (A) (A) (A) (A) (A) (A) (A)
                 (A) (A) (A) (A) (A) (A) (A) (A) (A) (A) (A) (A)
                 (A) (A) (A) (A) (A) (A) (A) (A) (A) (A) (A) (A)
                 (A) (A) (A) (A) (A) (A) (A) (A) (A) (A) (A) (A)
                 (A) (A) (A) (A) (A) (A) (A) (A) (A) (A) (A) (A)
                 (A) (A) (A) (A) (A) (A) (A) (A) (A) (A) (A) (A)
                 (A) (A) (A) (A) (A) (A) (A) (A) (A) (A) (A) (A)
                 (A) (A) (A) (A) (A) (A) (A) (A) (A) (A) (A) (A)
                 (A) (A) (A) (A) (A) (A) (A) (A) (A) (A) (A) (A)
                 (A) (A) (A) (A) (A) (A) (A) (A) (A) (A) (A) (A)
                 (A) (A) (A) (A) (A) (A) (A) (A) (A) (A) (A) (A)
                 (A) (A) (A) (A) (A) (A) (A) (A) (A) (A) (A) (A)
                 (A) (A) (A) (A) (A) (A) (A) (A) (A) (A) (A) (A)
                 (A) (A) (A) (A) (A) (A) (A) (A) (A) (A) (A) (A)
                 (A) (A) (A) (A) (A) (A) (A) (A) (A) (A) (A) (A)
                 (A) (A) (A) (A) (A) (A) (A) (A) (A) (A) (A) (A)
                 (A) (A) (A) (A) (A) (A) (A) (A) (A) (A) (A) (A)
                 (A) (A) (A) (A) (A) (A) (A) (A) (A) (A) (A) (A)
                 (A) (A) (A) (A) (A) (A) (A) (A) (A) (A) (A) (A)
                 (A) (A) (A) (A) (A) (A) (A) (A) (A) (A) (A) (A)
                 (A) (A) (A) (A) (A) (A) (A) (A) (A) (A) (A) (A)
                 (A) (A) (A) (A) (A) (A) (A) (A) (A) (A) (A) (A)
                 (A) (A) (A) (A) (A) (A) (A) (A) (A) (A) (A) (A)
                 (A) (A) (A) (A) (A) (A) (A) (A) (A) (A) (A) (A)
                 (A) (A) (A) (A) (A) (A) (A) (A) (A) (A) (A) (A)
                 (A) (A) (A) (A) (A) (A) (A) (A) (A) (A) (A) (A)
                 (A) (A) (A) (A) (A) (A) (A) (A) (A) (A) (A) (A)
                 (A) (A) (A) (A) (A) (A) (A) (A) (A) (A) (A) (A)
                 (A) (A) (A) (A) (A) (A) (A) (A) (A) (A) (A) (A)
                 (A) (A) (A) (A) (A) (A) (A) (A) (A) (A) (A) (A)
                 (A) (A) (A) (A) (A) (A) (A) (A) (A) (A) (A) (A)
                 (A) (A) (A) (A) (A) (A) (A) (A) (A) (A) (A) (A)
                 (A) (A) (A) (A) (A) (A) (A) (A) (A) (A) (A) (A)
                 (A) (A) (A) (A) (A) (A) (A) (A) (A) (A) (A) (A)
                 (A) (A) (A) (A) (A) (A) (A) (A) (A) (A) (A) (A)
                 (A) (A) (A) (A) (A) (A) (A) (A) (A) (A) (A) (A)
                 (A) (A) (A) (A) (A) (A) (A) (A) (A) (A) (A) (A)
                 (A) (A) (A) (A) (A) (A) (A) (A) (A) (A) (A) (A)
                 (A) (A) (A) (A) (A) (A) (A) (A) (A) (A) (A) (A)
                 (A) (A) (A) (A) (A) (A) (A) (A) (A) (A) (A) (A)
                 (A) (A) (A) (A) (A) (A) (A) (A) (A) (A) (A) (A)
                 (A) (A) (A) (A) (A) (A) (A) (A) (A) (A) (A) (A)
                 (A) (A) (A) (A) (A) (A) (A) (A) (A) (A) (A) (A)
                 (A) (A) (A) (A) (A) (A) (A) (A) (A) (A) (A) (A)
                 (A) (A) (A) (A) (A) (A) (A) (A) (A) (A) (A) (A)
                 (A) (A) (A) (A) (A) (A) (A) (A) (A) (A) (A) (A)
                 (A) (A) (A) (A) (A) (A) (A) (A) (A) (A) (A) (A)
                 (A) (A) (A) (A) (A) (A) (A) (A) (A) (A) (A) (A)
                 (A) (A) (A) (A) (A) (A) (A) (A) (A) (A) (A) (A)
                 (A) (A) (A) (A) (A) (A) (A) (A) (A) (A) (A) (A)
                 (A) (A) (A) (A) (A) (A) (A) (A) (A) (A) (A) (A)
                 (A) (A) (A) (A) (A) (A) (A) (A) (A) (A) (A) (A)
                 (A) (A) (A) (A) (A) (A) (A) (A) (A) (A) (A) (A)
                 (A) (A) (A) (A) (A) (A) (A) (A) (A) (A) (A) (A)
                 (A) (A) (A) (A) (A) (A) (A) (A) (A) (A) (A) (A)
                 (A) (A) (A) (A) (A) (A) (A) (A) (A) (A) (A) (A)
                 (A) (A) (A) (A) (A) (A) (A) (A) (A) (A) (A) (A)
                 (A) (A) (A) (A) (A) (A) (A) (A) (A) (A) (A) (A)
                 (A) (A) (A) (A) (A) (A) (A) (A) (A) (A) (A) (A)
    20 initial guesses have been made.
 Convergence on wavefunction:    0.001000000000000
 Davidson Disk Diagonalization:  ConvIn= 1.00D-03 SkipCon=T Conv= 1.00D-03.
 Max sub-space:  2000 roots to seek:    20 dimension of matrix:       549360
 Iteration     1 Dimension    20 NMult     0 NNew     20
 CISAX will form    20 AO SS matrices at one time.
 NMat=    20 NSing=    20 JSym2X= 0.
 FoFJK:  IHMeth= 1 ICntrl=       0 DoSepK=T KAlg= 0 I1Cent=           0 FoldK=F
 IRaf=         1 NMat=      40 IRICut=       1 DoRegI=T DoRafI=F ISym2E= 0 IDoP0=3 IntGTp=3.
 FoFCou: FMM=T IPFlag=           0 FMFlag=      100000 FMFlg1=        2001
         NFxFlg=           0 DoJE=F BraDBF=F KetDBF=F FulRan=T
         wScrn=  0.000000 ICntrl=       500 IOpCl=  0 I1Cent=           0 NGrid=           0
         NMat0=   20 NMatS0=     20 NMatT0=    0 NMatD0=   20 NMtDS0=    0 NMtDT0=    0
 Symmetry not used in FoFCou.
 FMM levels:  10  Number of levels for PrismC:   9
 New state      2 was old state      4
 New state      3 was old state      2
 New state      4 was old state      6
 New state      5 was old state      7
 Excitation Energies [eV] at current iteration:
 Root      1 :     2.377096772558936
 Root      2 :     2.532258199497045
 Root      3 :     2.597142621095730
 Root      4 :     2.614678857431065
 Root      5 :     2.627948122755245
 Root      6 :     2.754160196218626
 Root      7 :     3.175253251963759
 Root      8 :     3.333600443986560
 Root      9 :     3.623674336094783
 Root     10 :     3.679720360391380
 Root     11 :     3.748823680204828
 Root     12 :     3.751133755310432
 Root     13 :     4.270338916865369
 Root     14 :     4.281528672285869
 Root     15 :     4.339491931860358
 Root     16 :     4.416353789630771
 Root     17 :     4.605438974974819
 Root     18 :     4.646952134170063
 Root     19 :     4.747246681537264
 Root     20 :     4.766972336493144
 Iteration     2 Dimension    30 NMult    20 NNew     10
 CISAX will form    10 AO SS matrices at one time.
 NMat=    10 NSing=    10 JSym2X= 0.
 New state      1 was old state      3
 Root      1 not converged, maximum delta is    0.316301535530055
 New state      2 was old state      4
 Root      2 not converged, maximum delta is    0.117678867245484
 New state      3 was old state      5
 Root      3 not converged, maximum delta is    0.229656310866753
 New state      4 was old state      1
 Root      4 not converged, maximum delta is    0.024867109682483
 New state      5 was old state      2
 Root      5 not converged, maximum delta is    0.027263663486868
 Excitation Energies [eV] at current iteration:
 Root      1 :     1.764695658205332   Change is   -0.832446962890398
 Root      2 :     2.229842442017881   Change is   -0.384836415413185
 Root      3 :     2.241105140823149   Change is   -0.386842981932096
 Root      4 :     2.371833662622663   Change is   -0.005263109936273
 Root      5 :     2.529758118650476   Change is   -0.002500080846569
 Iteration     3 Dimension    40 NMult    30 NNew     10
 CISAX will form    10 AO SS matrices at one time.
 NMat=    10 NSing=    10 JSym2X= 0.
 Root      1 not converged, maximum delta is    0.054448462322602
 No map to state      2
 New state      3 was old state      2
 Root      3 not converged, maximum delta is    0.124635361213919
 New state      4 was old state      3
 Root      4 not converged, maximum delta is    0.129251128969929
 New state      5 was old state      4
 Root      5 not converged, maximum delta is    0.001907218581807
 Excitation Energies [eV] at current iteration:
 Root      1 :     1.660891495411364   Change is   -0.103804162793967
 Root      2 :     1.796668401598128
 Root      3 :     2.189912467670941   Change is   -0.039929974346940
 Root      4 :     2.204008598406896   Change is   -0.037096542416252
 Root      5 :     2.371805457491523   Change is   -0.000028205131140
 Iteration     4 Dimension    50 NMult    40 NNew     10
 CISAX will form    10 AO SS matrices at one time.
 NMat=    10 NSing=    10 JSym2X= 0.
 Root      1 not converged, maximum delta is    0.010614493842042
 Root      2 not converged, maximum delta is    0.035447413125685
 Root      3 not converged, maximum delta is    0.010291074731244
 Root      4 not converged, maximum delta is    0.008005909873764
 Root      5 has converged.
 Excitation Energies [eV] at current iteration:
 Root      1 :     1.644263803712393   Change is   -0.016627691698972
 Root      2 :     1.717834713585448   Change is   -0.078833688012680
 Root      3 :     2.182019870549346   Change is   -0.007892597121595
 Root      4 :     2.197604036208273   Change is   -0.006404562198624
 Root      5 :     2.371803501017274   Change is   -0.000001956474249
 Iteration     5 Dimension    58 NMult    50 NNew      8
 CISAX will form     8 AO SS matrices at one time.
 NMat=     8 NSing=     8 JSym2X= 0.
 Root      1 not converged, maximum delta is    0.001674712418513
 Root      2 not converged, maximum delta is    0.014014577701669
 Root      3 not converged, maximum delta is    0.002500737786975
 Root      4 not converged, maximum delta is    0.002403812523767
 Root      5 has converged.
 Excitation Energies [eV] at current iteration:
 Root      1 :     1.642511458621524   Change is   -0.001752345090868
 Root      2 :     1.704724843606783   Change is   -0.013109869978665
 Root      3 :     2.181098015616933   Change is   -0.000921854932413
 Root      4 :     2.196829488836816   Change is   -0.000774547371457
 Root      5 :     2.371803478944426   Change is   -0.000000022072848
 Iteration     6 Dimension    66 NMult    58 NNew      8
 CISAX will form     8 AO SS matrices at one time.
 NMat=     8 NSing=     8 JSym2X= 0.
 Root      1 has converged.
 Root      2 not converged, maximum delta is    0.001302831791435
 Root      3 has converged.
 Root      4 has converged.
 Root      5 has converged.
 Excitation Energies [eV] at current iteration:
 Root      1 :     1.642273135174123   Change is   -0.000238323447401
 Root      2 :     1.703496110423774   Change is   -0.001228733183010
 Root      3 :     2.180960514929767   Change is   -0.000137500687166
 Root      4 :     2.196718255270454   Change is   -0.000111233566362
 Root      5 :     2.371803455598225   Change is   -0.000000023346200
 Iteration     7 Dimension    68 NMult    66 NNew      2
 CISAX will form     2 AO SS matrices at one time.
 NMat=     2 NSing=     2 JSym2X= 0.
 Root      1 has converged.
 Root      2 has converged.
 Root      3 has converged.
 Root      4 has converged.
 Root      5 has converged.
 Excitation Energies [eV] at current iteration:
[...]
 Alpha virt. eigenvalues --    1.84674   1.84978   1.84997   1.85144   1.85181
 Alpha virt. eigenvalues --    1.85455   1.85478   1.85725   1.85785   1.86058
 Alpha virt. eigenvalues --    1.86201   1.86327   1.86509   1.86635   1.86817
 Alpha virt. eigenvalues --    1.86953   1.87073   1.87203   1.87407   1.87558
 Alpha virt. eigenvalues --    1.87710   1.87853   1.88064   1.88103   1.88253
 Alpha virt. eigenvalues --    1.88356   1.88440   1.88685   1.88902   1.88976
 Alpha virt. eigenvalues --    1.89140   1.89315   1.89576   1.89794   1.89841
 Alpha virt. eigenvalues --    1.89954   1.89992   1.90344   1.90430   1.90726
 Alpha virt. eigenvalues --    1.91020   1.91364   1.91426   1.91625   1.91897
 Alpha virt. eigenvalues --    1.92200   1.92267   1.92616   1.92667   1.93226
 Alpha virt. eigenvalues --    1.93302   1.93509   1.93674   1.93926   1.94439
 Alpha virt. eigenvalues --    1.94852   1.94940   1.95291   1.95631   1.95719
 Alpha virt. eigenvalues --    1.95966   1.96064   1.96318   1.96411   1.96452
 Alpha virt. eigenvalues --    1.96827   1.96965   1.97027   1.97239   1.97573
 Alpha virt. eigenvalues --    1.97902   1.98058   1.98156   1.98304   1.98457
 Alpha virt. eigenvalues --    1.98596   1.98819   1.99012   1.99372   1.99524
 Alpha virt. eigenvalues --    1.99972   2.00178   2.00776   2.01090   2.01188
 Alpha virt. eigenvalues --    2.01336   2.01583   2.01738   2.01818   2.01849
 Alpha virt. eigenvalues --    2.02083   2.02539   2.02949   2.03026   2.03366
 Alpha virt. eigenvalues --    2.03484   2.03551   2.03677   2.03802   2.03966
 Alpha virt. eigenvalues --    2.04302   2.04423   2.05197   2.05479   2.05683
 Alpha virt. eigenvalues --    2.06041   2.06239   2.06551   2.07007   2.07227
 Alpha virt. eigenvalues --    2.07463   2.07738   2.08732   2.08895   2.09096
 Alpha virt. eigenvalues --    2.09326   2.09722   2.09921   2.10950   2.11201
 Alpha virt. eigenvalues --    2.11619   2.11698   2.11808   2.11884   2.11994
 Alpha virt. eigenvalues --    2.12118   2.12670   2.12749   2.12868   2.12968
 Alpha virt. eigenvalues --    2.13188   2.13519   2.13829   2.13964   2.14293
 Alpha virt. eigenvalues --    2.14665   2.15444   2.15813   2.15994   2.16420
 Alpha virt. eigenvalues --    2.16649   2.16848   2.16986   2.17435   2.17529
 Alpha virt. eigenvalues --    2.17801   2.18125   2.18158   2.18242   2.18384
 Alpha virt. eigenvalues --    2.18542   2.18876   2.19088   2.19529   2.19751
 Alpha virt. eigenvalues --    2.20102   2.20131   2.20324   2.20571   2.20697
 Alpha virt. eigenvalues --    2.21341   2.21742   2.21771   2.21873   2.22024
 Alpha virt. eigenvalues --    2.22138   2.22783   2.23030   2.23479   2.23807
 Alpha virt. eigenvalues --    2.24572   2.24912   2.25154   2.25845   2.26448
 Alpha virt. eigenvalues --    2.26711   2.26900   2.27160   2.27322   2.27638
 Alpha virt. eigenvalues --    2.28192   2.28681   2.29398   2.29762   2.29995
 Alpha virt. eigenvalues --    2.30109   2.30548   2.30837   2.31000   2.31072
 Alpha virt. eigenvalues --    2.31326   2.31673   2.32290   2.32613   2.33285
 Alpha virt. eigenvalues --    2.33444   2.33552   2.33890   2.34224   2.34864
 Alpha virt. eigenvalues --    2.35329   2.35602   2.35840   2.36118   2.36547
 Alpha virt. eigenvalues --    2.36586   2.36702   2.37172   2.37891   2.38394
 Alpha virt. eigenvalues --    2.38444   2.38790   2.38899   2.39009   2.39739
 Alpha virt. eigenvalues --    2.39983   2.40281   2.40555   2.40908   2.41052
 Alpha virt. eigenvalues --    2.41347   2.41503   2.41834   2.42047   2.42345
 Alpha virt. eigenvalues --    2.42592   2.43092   2.43184   2.43358   2.43760
 Alpha virt. eigenvalues --    2.44204   2.44490   2.44856   2.44963   2.45053
 Alpha virt. eigenvalues --    2.45292   2.45682   2.45919   2.46450   2.46475
 Alpha virt. eigenvalues --    2.46530   2.46747   2.46869   2.47025   2.47366
 Alpha virt. eigenvalues --    2.47769   2.47881   2.48355   2.49514   2.49871
 Alpha virt. eigenvalues --    2.50222   2.50470   2.50733   2.51242   2.51413
 Alpha virt. eigenvalues --    2.51543   2.51892   2.52108   2.52538   2.52666
 Alpha virt. eigenvalues --    2.52966   2.53426   2.54068   2.54295   2.54329
 Alpha virt. eigenvalues --    2.54591   2.54880   2.55335   2.55636   2.56064
 Alpha virt. eigenvalues --    2.58002   2.58354   2.58715   2.59250   2.60184
 Alpha virt. eigenvalues --    2.60482   2.60640   2.61110   2.61822   2.62096
 Alpha virt. eigenvalues --    2.62558   2.62707   2.63022   2.63419   2.64003
 Alpha virt. eigenvalues --    2.64374   2.64416   2.64930   2.65168   2.65557
 Alpha virt. eigenvalues --    2.65807   2.66060   2.66910   2.66995   2.67331
 Alpha virt. eigenvalues --    2.67410   2.68010   2.68438   2.68866   2.69058
 Alpha virt. eigenvalues --    2.69096   2.69312   2.69504   2.70066   2.70182
 Alpha virt. eigenvalues --    2.70498   2.71050   2.71357   2.72080   2.72186
 Alpha virt. eigenvalues --    2.72649   2.72698   2.72750   2.73031   2.73252
 Alpha virt. eigenvalues --    2.73436   2.73620   2.73797   2.74539   2.74853
 Alpha virt. eigenvalues --    2.75017   2.75320   2.76691   2.76955   2.77310
 Alpha virt. eigenvalues --    2.77381   2.77576   2.77776   2.78332   2.78440
 Alpha virt. eigenvalues --    2.78648   2.78972   2.79175   2.79401   2.80330
 Alpha virt. eigenvalues --    2.80416   2.80619   2.80867   2.81153   2.81379
 Alpha virt. eigenvalues --    2.81978   2.82167   2.82417   2.82653   2.83729
 Alpha virt. eigenvalues --    2.83913   2.84056   2.84095   2.84641   2.84827
 Alpha virt. eigenvalues --    2.84989   2.85280   2.85800   2.85984   2.86990
 Alpha virt. eigenvalues --    2.87022   2.87475   2.87596   2.88347   2.88388
 Alpha virt. eigenvalues --    2.88600   2.89014   2.89090   2.89276   2.90518
 Alpha virt. eigenvalues --    2.91112   2.91350   2.91682   2.93239   2.93551
 Alpha virt. eigenvalues --    2.94011   2.94442   2.94725   2.95054   2.95374
 Alpha virt. eigenvalues --    2.95673   2.95982   2.96065   2.96588   2.96806
 Alpha virt. eigenvalues --    2.97153   2.97445   2.98073   2.98328   2.98407
 Alpha virt. eigenvalues --    2.98515   2.98571   2.98669   2.98888   2.99007
 Alpha virt. eigenvalues --    2.99103   2.99399   2.99793   2.99998   3.00147
 Alpha virt. eigenvalues --    3.00271   3.00376   3.00667   3.01110   3.01308
 Alpha virt. eigenvalues --    3.02090   3.02146   3.02292   3.02616   3.02754
 Alpha virt. eigenvalues --    3.02998   3.03199   3.03456   3.03593   3.03961
 Alpha virt. eigenvalues --    3.04303   3.04499   3.04595   3.04802   3.04986
 Alpha virt. eigenvalues --    3.05443   3.05601   3.06192   3.06327   3.06434
 Alpha virt. eigenvalues --    3.06924   3.07454   3.08342   3.08442   3.09640
 Alpha virt. eigenvalues --    3.09920   3.09965   3.10525   3.10604   3.10976
 Alpha virt. eigenvalues --    3.11461   3.11813   3.11997   3.12356   3.12483
 Alpha virt. eigenvalues --    3.13380   3.13562   3.13788   3.13824   3.14061
 Alpha virt. eigenvalues --    3.14216   3.14606   3.16117   3.17353   3.17490
 Alpha virt. eigenvalues --    3.17812   3.18250   3.18717   3.19270   3.19816
 Alpha virt. eigenvalues --    3.22097   3.22742   3.24028   3.24625   3.24656
 Alpha virt. eigenvalues --    3.25375   3.26618   3.26895   3.27616   3.27699
 Alpha virt. eigenvalues --    3.28873   3.29347   3.31558   3.31591   3.33414
 Alpha virt. eigenvalues --    3.33483   3.40363   3.40658   3.42935   3.42951
 Alpha virt. eigenvalues --    3.48703   3.48894   3.50197   3.50517   3.51039
 Alpha virt. eigenvalues --    3.51619   3.56647   3.57207   3.59340   3.59616
 Alpha virt. eigenvalues --    3.62712   3.62985   3.66186   3.66341   3.67233
 Alpha virt. eigenvalues --    3.67660   3.73473   3.74154   3.76370   3.76821
          Condensed to atoms (all electrons):
 Mulliken charges:
               1
     1  Mg   0.824986
     2  C   -0.004734
     3  C   -0.092555
     4  C   -0.044861
     5  C   -0.062775
     6  N   -0.255112
     7  C   -0.057598
     8  C   -0.011732
     9  C   -0.087221
    10  C    0.045275
    11  C    0.104729
    12  C    0.038141
    13  C   -0.071107
    14  H    0.034992
    15  N   -0.431685
    16  C    0.168296
    17  C   -0.174333
    18  C   -0.002118
    19  C    0.149476
    20  C    0.109361
    21  C    0.014262
    22  O   -0.249909
    23  C    0.060171
    24  N   -0.339638
    25  C    0.042195
    26  C   -0.028284
    27  C   -0.023686
    28  C    0.074202
    29  C    0.076198
    30  C    0.034945
    31  C   -0.005516
    32  N   -0.310410
    33  C    0.080521
    34  C   -0.170529
    35  C    0.008345
    36  C    0.076932
    37  C    0.127484
    38  C    0.043873
    39  O   -0.189111
    40  C   -0.005833
    41  C    0.216547
    42  O   -0.259946
    43  O   -0.303380
    44  C    0.157188
    45  H   -0.017711
    46  H   -0.016520
    47  H   -0.041276
    48  H    0.000310
    49  H   -0.003463
    50  H    0.025476
    51  H    0.017198
    52  H    0.016989
    53  H    0.012466
    54  H    0.053658
    55  H    0.018949
    56  H    0.019532
    57  H    0.005455
    58  H    0.026232
    59  H    0.045325
    60  H    0.036507
    61  H    0.034633
    62  H    0.037817
    63  H    0.017134
    64  H    0.009329
    65  H    0.023320
    66  H    0.012288
    67  H    0.004880
    68  H    0.006351
    69  H    0.005246
    70  H    0.008443
    71  H    0.020593
    72  H    0.029819
    73  H    0.047071
    74  H    0.010175
    75  H    0.045879
    76  H    0.035990
    77  H    0.044540
    78  H    0.047340
    79  H    0.052252
    80  Mg   0.837162
    81  C   -0.017711
    82  C   -0.088499
    83  C   -0.046127
    84  C   -0.065328
    85  N   -0.254656
    86  C   -0.049812
    87  C   -0.015071
    88  C   -0.090383
    89  C    0.045460
    90  C    0.114626
    91  C    0.062618
    92  C   -0.077501
    93  H    0.034142
    94  N   -0.423179
    95  C    0.162463
    96  C   -0.175327
    97  C   -0.008773
    98  C    0.152130
    99  C    0.099531
   100  C    0.015167
   101  O   -0.256589
   102  C    0.061823
   103  N   -0.350101
   104  C    0.037499
   105  C   -0.019623
   106  C   -0.040131
   107  C    0.087585
   108  C    0.075452
   109  C    0.040335
   110  C   -0.040838
   111  N   -0.324284
   112  C    0.078985
   113  C   -0.161889
   114  C    0.001813
   115  C    0.096613
   116  C    0.130207
   117  C    0.042382
   118  O   -0.188194
   119  C    0.000980
   120  C    0.211189
   121  O   -0.251364
   122  O   -0.305645
   123  C    0.152228
   124  H   -0.020775
   125  H   -0.017561
   126  H   -0.033544
   127  H   -0.001087
   128  H   -0.004950
   129  H    0.022128
   130  H    0.014301
   131  H    0.015475
   132  H    0.013946
   133  H    0.037487
   134  H    0.020559
   135  H    0.019326
   136  H    0.008342
   137  H    0.024825
   138  H    0.039036
   139  H    0.038149
   140  H    0.032828
   141  H    0.034842
   142  H    0.013002
   143  H    0.014538
   144  H    0.020742
   145  H    0.009836
   146  H    0.005729
   147  H    0.009084
   148  H    0.022721
   149  H    0.014002
   150  H    0.047856
   151  H    0.024632
   152  H    0.045826
   153  H    0.014433
   154  H    0.046099
   155  H    0.034484
   156  H    0.043563
   157  H    0.049254
   158  H    0.053235
 Sum of Mulliken charges =  -0.00000
 Mulliken charges with hydrogens summed into heavy atoms:
               1
     1  Mg   0.824986
     2  C   -0.004734
     3  C   -0.110266
     4  C   -0.061381
     5  C   -0.104051
     6  N   -0.255112
     7  C   -0.057598
     8  C   -0.011422
     9  C   -0.090684
    10  C    0.045275
    11  C    0.164391
    12  C    0.104264
    13  C    0.002365
    15  N   -0.431685
    16  C    0.168296
    17  C   -0.174333
    18  C   -0.002118
    19  C    0.149476
    20  C    0.186372
    21  C    0.014262
    22  O   -0.249909
    23  C    0.169128
    24  N   -0.339638
    25  C    0.042195
    26  C   -0.011150
    27  C   -0.014358
    28  C    0.074202
    29  C    0.116686
    30  C    0.046542
    31  C    0.053339
    32  N   -0.310410
    33  C    0.080521
    34  C   -0.170529
    35  C    0.008345
    36  C    0.076932
    37  C    0.230610
    38  C    0.043873
    39  O   -0.189111
    40  C    0.030157
    41  C    0.216547
    42  O   -0.259946
    43  O   -0.303380
    44  C    0.301321
    80  Mg   0.837162
    81  C   -0.017711
    82  C   -0.109273
    83  C   -0.063688
    84  C   -0.098872
    85  N   -0.254656
    86  C   -0.049812
    87  C   -0.016159
    88  C   -0.095334
    89  C    0.045460
    90  C    0.166530
    91  C    0.114052
    92  C   -0.003474
    94  N   -0.423179
    95  C    0.162463
    96  C   -0.175327
    97  C   -0.008773
    98  C    0.152130
    99  C    0.171734
   100  C    0.015167
   101  O   -0.256589
   102  C    0.167642
   103  N   -0.350101
   104  C    0.037499
   105  C   -0.006621
   106  C   -0.025594
   107  C    0.087585
   108  C    0.111759
   109  C    0.072140
   110  C    0.045652
   111  N   -0.324284
   112  C    0.078985
   113  C   -0.161889
   114  C    0.001813
   115  C    0.096613
   116  C    0.236565
   117  C    0.042382
   118  O   -0.188194
   119  C    0.035465
   120  C    0.211189
   121  O   -0.251364
   122  O   -0.305645
   123  C    0.298280
 Electronic spatial extent (au):  <R**2>=         104427.4332
 Charge=             -0.0000 electrons
 Dipole moment (field-independent basis, Debye):
    X=              1.0076    Y=              6.5972    Z=             -3.5137  Tot=              7.5422
 Quadrupole moment (field-independent basis, Debye-Ang):
   XX=           -449.8848   YY=           -539.4774   ZZ=           -484.0737
   XY=            -26.0337   XZ=            -10.5164   YZ=             -1.9969
 Traceless Quadrupole moment (field-independent basis, Debye-Ang):
   XX=             41.2605   YY=            -48.3321   ZZ=              7.0716
   XY=            -26.0337   XZ=            -10.5164   YZ=             -1.9969
 Octapole moment (field-independent basis, Debye-Ang**2):
  XXX=           -310.2029  YYY=            320.5229  ZZZ=             71.1488  XYY=            -67.4367
  XXY=            363.2663  XXZ=           -112.9810  XZZ=            109.9216  YZZ=           -175.7104
  YYZ=           -179.0160  XYZ=            -48.0748
 Hexadecapole moment (field-independent basis, Debye-Ang**3):
 XXXX=         -81276.3999 YYYY=         -33006.7317 ZZZZ=         -20949.6079 XXXY=           -704.2204
 XXXZ=          -1967.8809 YYYX=           -451.8888 YYYZ=           -203.5821 ZZZX=           -396.8176
 ZZZY=            277.9678 XXYY=         -20595.0445 XXZZ=         -17187.0805 YYZZ=          -8977.7817
 XXYZ=           -549.2398 YYXZ=           -304.0993 ZZXY=           -398.7221
 N-N= 1.555618334060D+04 E-N=-4.059408307891D+04  KE= 4.028775211718D+03
 Leave Link  601 at Thu Sep  9 14:23:50 2021, MaxMem= 23488102400 cpu:              19.0 elap:               0.9
 (Enter /sw/apps/gaussian-16.0/g16/l9999.exe)
 1\1\GINC-BP1-COMPUTE00083\SP\RCAM-B3LYP TD-FC\def2SVP\C68H72Mg2N8O8\OF
 15641\09-Sep-2021\0\\#p cam-b3lyp/Def2SVP td=(nstates=5)\\TDDFT excite
 d states in gaussian\\0,1\Mg,0,0.,0.,0.\C,0,-0.217,-2.218,2.801\C,0,-1
 .255,2.442,2.026\C,0,-0.245,1.85,-2.564\C,0,0.146,-2.824,-2.037\N,0,-0
 .617,-0.009,2.126\C,0,-0.594,-0.908,3.105\C,0,-0.936,-0.309,4.502\C,0,
 -1.773,0.964,4.032\C,0,-1.155,1.168,2.66\C,0,-3.263,0.685,3.863\C,0,0.
 345,0.11,5.299\C,0,0.124,0.397,6.787\H,0,1.168,0.033,7.733\N,0,-0.185,
 1.961,-0.152\C,0,-0.703,2.8,0.777\C,0,-0.62,4.156,0.193\C,0,-0.187,4.0
 15,-1.225\C,0,-0.214,2.583,-1.38\C,0,-0.887,5.406,0.974\C,0,0.181,5.01
 3,-2.277\O,0,0.303,4.69,-3.508\C,0,0.31,6.414,-1.837\N,0,-0.265,-0.413
 ,-2.029\C,0,-0.279,0.569,-2.937\C,0,-0.196,0.024,-4.332\C,0,0.124,-1.5
 33,-4.18\C,0,0.086,-1.632,-2.635\C,0,-1.451,0.205,-5.197\C,0,1.373,-2.
 07,-4.923\C,0,2.626,-1.49,-4.306\N,0,0.15,-2.144,0.303\C,0,0.173,-3.13
 6,-0.688\C,0,0.173,-4.438,0.004\C,0,0.133,-4.111,1.358\C,0,0.083,-2.69
 5,1.502\C,0,0.149,-5.715,-0.623\C,0,0.096,-4.629,2.716\O,0,0.208,-5.74
 7,3.221\C,0,-0.255,-3.428,3.701\C,0,0.717,-3.482,4.848\O,0,1.931,-3.25
 5,4.669\O,0,0.038,-3.556,6.003\C,0,0.943,-3.583,7.183\H,0,-1.859,3.22,
 2.497\H,0,-0.218,2.453,-3.474\H,0,0.276,-3.747,-2.605\H,0,-1.554,-0.94
 9,5.132\H,0,-1.585,1.831,4.665\H,0,-3.484,-0.377,3.969\H,0,-3.511,1.02
 7,2.858\H,0,-3.852,1.301,4.543\H,0,0.669,1.096,4.966\H,0,1.13,-0.639,5
 .189\H,0,-0.844,0.026,7.125\H,0,0.062,1.477,6.921\H,0,-1.344,5.186,1.9
 38\H,0,-1.651,5.963,0.432\H,0,0.007,6.02,1.084\H,0,-0.635,6.744,-1.405
 \H,0,0.665,6.97,-2.704\H,0,1.048,6.466,-1.036\H,0,0.608,0.501,-4.891\H
 ,0,-0.692,-2.156,-4.547\H,0,-1.267,0.74,-6.129\H,0,-2.204,0.714,-4.596
 \H,0,-1.967,-0.72,-5.453\H,0,1.356,-1.759,-5.967\H,0,1.452,-3.157,-4.9
 02\H,0,2.714,-0.522,-4.798\H,0,3.487,-2.121,-4.529\H,0,2.495,-1.303,-3
 .24\H,0,0.867,-6.333,-0.084\H,0,0.404,-5.642,-1.68\H,0,-0.891,-5.999,-
 0.463\H,0,-1.283,-3.581,4.028\H,0,0.698,-4.478,7.755\H,0,0.833,-2.619,
 7.68\H,0,2.,-3.754,6.976\Mg,0,8.93582,0.80696,0.66853\C,0,11.41322,-1.
 6116,-0.27602\C,0,11.207,3.22382,-0.12841\C,0,6.94852,2.94497,1.91231\
 C,0,7.32871,-1.7333,2.43204\N,0,11.00899,0.69548,-0.09424\C,0,11.82412
 ,-0.27693,-0.47414\C,0,13.12109,0.20824,-1.1756\C,0,13.1931,1.68643,-0
 .5522\C,0,11.70818,1.90511,-0.26958\C,0,13.94444,1.74716,0.76732\C,0,1
 2.97618,0.24994,-2.73742\C,0,14.29182,0.41596,-3.50114\H,0,14.44336,-0
 .26669,-4.78313\N,0,8.84833,2.77435,0.42304\C,0,9.86035,3.59686,0.0758
 1\C,0,9.28678,4.95128,0.04875\C,0,7.89406,4.88136,0.56851\C,0,7.84905,
 3.5042,1.0174\C,0,10.02088,6.13478,-0.51147\C,0,6.79014,5.89095,0.6596
 6\O,0,5.74088,5.67957,1.36479\C,0,7.01534,7.17224,-0.02523\N,0,7.48367
 ,0.68693,2.1515\C,0,6.72452,1.75194,2.46352\C,0,5.57142,1.35744,3.3552
 1\C,0,5.57538,-0.2416,3.38046\C,0,6.8399,-0.50493,2.53367\C,0,5.62586,
 1.88891,4.78733\C,0,4.2553,-0.95507,2.97918\C,0,3.97024,-0.72622,1.512
 29\N,0,9.1749,-1.32966,0.88245\C,0,8.40853,-2.19695,1.6915\C,0,9.0214,
 -3.53764,1.59473\C,0,10.12414,-3.35098,0.74761\C,0,10.20539,-1.9859,0.
 361\C,0,8.57957,-4.70558,2.27798\C,0,11.24411,-3.99618,0.10103\O,0,11.
 63236,-5.15853,-0.00826\C,0,12.2022,-2.87362,-0.48914\C,0,12.54734,-3.
 2538,-1.90295\O,0,11.66783,-3.28526,-2.78163\O,0,13.88573,-3.3051,-2.0
 3123\C,0,14.27758,-3.66759,-3.41935\H,0,11.91657,4.0517,-0.13219\H,0,6
 .17334,3.6189,2.28432\H,0,6.82983,-2.59851,2.87387\H,0,14.01345,-0.348
 63,-0.91605\H,0,13.55218,2.40629,-1.2831\H,0,14.205,0.76329,1.12823\H,
 0,13.27839,2.24108,1.46263\H,0,14.81875,2.39766,0.67368\H,0,12.47279,1
 .18178,-3.02556\H,0,12.4577,-0.61825,-3.09527\H,0,15.16483,0.23319,-2.
 86286\H,0,14.39116,1.46294,-3.79774\H,0,11.08381,5.91226,-0.66658\H,0,
 10.01576,6.9099,0.26249\H,0,9.55164,6.53306,-1.41362\H,0,7.91163,7.641
 91,0.37293\H,0,6.08068,7.72691,0.07782\H,0,7.20875,6.97309,-1.08521\H,
 0,4.6298,1.70008,2.94405\H,0,5.7842,-0.6327,4.38707\H,0,4.7346,2.48178
 ,5.06704\H,0,6.52556,2.47948,4.89827\H,0,5.75155,1.12956,5.55725\H,0,3
 .41243,-0.52943,3.52923\H,0,4.26338,-2.02172,3.17715\H,0,3.48534,0.254
 55,1.50521\H,0,3.30672,-1.49737,1.12614\H,0,4.90079,-0.63802,0.93962\H
 ,0,8.61075,-5.51583,1.56173\H,0,7.5798,-4.57308,2.68625\H,0,9.33802,-4
 .77117,3.06265\H,0,13.08511,-2.82753,0.14955\H,0,14.92374,-4.54808,-3.
 34931\H,0,14.71993,-2.75144,-3.85379\H,0,13.49946,-4.02844,-4.08175\\V
 ersion=ES64L-G16RevA.03\State=1-A\HF=-4069.8163405\RMSD=5.176e-09\PG=C
 01 [X(C68H72Mg2N8O8)]\\@


 AS FAR AS THE LAWS OF MATHEMATICS REFER TO REALITY,
 THEY ARE NOT CERTAIN; AND AS FAR AS THEY ARE CERTAIN,
 THEY DO NOT REFER TO REALITY.

                                         -- ALBERT EINSTEIN
 Job cpu time:       0 days 15 hours 31 minutes 58.6 seconds.
 Elapsed time:       0 days  0 hours 39 minutes 30.7 seconds.
 File lengths (MBytes):  RWF=  13225 Int=      0 D2E=      0 Chk=    574 Scr=      1
 Normal termination of Gaussian 16 at Thu Sep  9 14:23:51 2021.
