 Entering Gaussian System, Link 0=g16
 Initial command:
 /sw/apps/gaussian-16.0/g16/l1.exe "/tmp/Gau-219212.inp" -scrdir="/tmp/"
 Entering Link 1 = /sw/apps/gaussian-16.0/g16/l1.exe PID=    219213.
  
 Copyright (c) 1988,1990,1992,1993,1995,1998,2003,2009,2016,
            Gaussian, Inc.  All Rights Reserved.
  
 This is part of the Gaussian(R) 16 program.  It is based on
 the Gaussian(R) 09 system (copyright 2009, Gaussian, Inc.),
 the Gaussian(R) 03 system (copyright 2003, Gaussian, Inc.),
 the Gaussian(R) 98 system (copyright 1998, Gaussian, Inc.),
 the Gaussian(R) 94 system (copyright 1995, Gaussian, Inc.),
 the Gaussian 92(TM) system (copyright 1992, Gaussian, Inc.),
 the Gaussian 90(TM) system (copyright 1990, Gaussian, Inc.),
 the Gaussian 88(TM) system (copyright 1988, Gaussian, Inc.),
 the Gaussian 86(TM) system (copyright 1986, Carnegie Mellon
 University), and the Gaussian 82(TM) system (copyright 1983,
 Carnegie Mellon University). Gaussian is a federally registered
 trademark of Gaussian, Inc.
  
 This software contains proprietary and confidential information,
 including trade secrets, belonging to Gaussian, Inc.
  
 This software is provided under written license and may be
 used, copied, transmitted, or stored only in accord with that
 written license.
  
 The following legend is applicable only to US Government
 contracts under FAR:
  
                    RESTRICTED RIGHTS LEGEND
  
 Use, reproduction and disclosure by the US Government is
 subject to restrictions as set forth in subparagraphs (a)
 and (c) of the Commercial Computer Software - Restricted
 Rights clause in FAR 52.227-19.
  
 Gaussian, Inc.
 340 Quinnipiac St., Bldg. 40, Wallingford CT 06492
  
  
 ---------------------------------------------------------------
 Warning -- This program may not be used in any manner that
 competes with the business of Gaussian, Inc. or will provide
 assistance to any competitor of Gaussian, Inc.  The licensee
 of this program is prohibited from giving any competitor of
 Gaussian, Inc. access to this program.  By using this program,
 the user acknowledges that Gaussian, Inc. is engaged in the
 business of creating and licensing software in the field of
 computational chemistry and represents and warrants to the
 licensee that it is not a competitor of Gaussian, Inc. and that
 it will not use this program in any manner prohibited above.
 ---------------------------------------------------------------
  

 Cite this work as:
 Gaussian 16, Revision A.03,
 M. J. Frisch, G. W. Trucks, H. B. Schlegel, G. E. Scuseria, 
 M. A. Robb, J. R. Cheeseman, G. Scalmani, V. Barone, 
 G. A. Petersson, H. Nakatsuji, X. Li, M. Caricato, A. V. Marenich, 
 J. Bloino, B. G. Janesko, R. Gomperts, B. Mennucci, H. P. Hratchian, 
 J. V. Ortiz, A. F. Izmaylov, J. L. Sonnenberg, D. Williams-Young, 
 F. Ding, F. Lipparini, F. Egidi, J. Goings, B. Peng, A. Petrone, 
 T. Henderson, D. Ranasinghe, V. G. Zakrzewski, J. Gao, N. Rega, 
 G. Zheng, W. Liang, M. Hada, M. Ehara, K. Toyota, R. Fukuda, 
 J. Hasegawa, M. Ishida, T. Nakajima, Y. Honda, O. Kitao, H. Nakai, 
 T. Vreven, K. Throssell, J. A. Montgomery, Jr., J. E. Peralta, 
 F. Ogliaro, M. J. Bearpark, J. J. Heyd, E. N. Brothers, K. N. Kudin, 
 V. N. Staroverov, T. A. Keith, R. Kobayashi, J. Normand, 
 K. Raghavachari, A. P. Rendell, J. C. Burant, S. S. Iyengar, 
 J. Tomasi, M. Cossi, J. M. Millam, M. Klene, C. Adamo, R. Cammi, 
 J. W. Ochterski, R. L. Martin, K. Morokuma, O. Farkas, 
 J. B. Foresman, and D. J. Fox, Gaussian, Inc., Wallingford CT, 2016.
 
 ******************************************
 Gaussian 16:  ES64L-G16RevA.03 25-Dec-2016
                 3-Sep-2021 
 ******************************************
 %nproc=24
 Will use up to   24 processors via shared memory.
 %mem=175gb
 -----------------------------------
 #p cam-b3lyp/Def2SVP td=(nstates=5)
 -----------------------------------
 1/38=1,172=1/1;
 2/12=2,17=6,18=5,40=1/2;
 3/5=43,7=101,11=9,25=1,30=1,74=-40/1,2,3,8;
 4//1;
 5/5=2,38=5/2;
 8/6=1,10=1,108=5/1;
 9/41=5,42=1,70=2/14;
 6/7=2,8=2,9=2,10=2/1;
 99/5=1,9=1/99;
 Leave Link    1 at Fri Sep  3 12:52:15 2021, MaxMem= 23488102400 cpu:               0.9 elap:               0.0
 (Enter /sw/apps/gaussian-16.0/g16/l101.exe)
 --------------------------------
 TDDFT excited states in gaussian
 --------------------------------
 Symbolic Z-matrix:
 Charge =  0 Multiplicity = 1
 Mg                    0.        0.        0. 
 C                    -0.217    -2.218     2.801 
 C                    -1.255     2.442     2.026 
 C                    -0.245     1.85     -2.564 
 C                     0.146    -2.824    -2.037 
 N                    -0.617    -0.009     2.126 
 C                    -0.594    -0.908     3.105 
 C                    -0.936    -0.309     4.502 
 C                    -1.773     0.964     4.032 
 C                    -1.155     1.168     2.66 
 C                    -3.263     0.685     3.863 
 C                     0.345     0.11      5.299 
 C                     0.124     0.397     6.787 
 H                     1.168     0.033     7.733 
 N                    -0.185     1.961    -0.152 
 C                    -0.703     2.8       0.777 
 C                    -0.62      4.156     0.193 
 C                    -0.187     4.015    -1.225 
 C                    -0.214     2.583    -1.38 
 C                    -0.887     5.406     0.974 
 C                     0.181     5.013    -2.277 
 O                     0.303     4.69     -3.508 
 C                     0.31      6.414    -1.837 
 N                    -0.265    -0.413    -2.029 
 C                    -0.279     0.569    -2.937 
 C                    -0.196     0.024    -4.332 
 C                     0.124    -1.533    -4.18 
 C                     0.086    -1.632    -2.635 
 C                    -1.451     0.205    -5.197 
 C                     1.373    -2.07     -4.923 
 C                     2.626    -1.49     -4.306 
 N                     0.15     -2.144     0.303 
 C                     0.173    -3.136    -0.688 
 C                     0.173    -4.438     0.004 
 C                     0.133    -4.111     1.358 
 C                     0.083    -2.695     1.502 
 C                     0.149    -5.715    -0.623 
 C                     0.096    -4.629     2.716 
 O                     0.208    -5.747     3.221 
 C                    -0.255    -3.428     3.701 
 C                     0.717    -3.482     4.848 
 O                     1.931    -3.255     4.669 
 O                     0.038    -3.556     6.003 
 C                     0.943    -3.583     7.183 
 H                    -1.859     3.22      2.497 
 H                    -0.218     2.453    -3.474 
 H                     0.276    -3.747    -2.605 
 H                    -1.554    -0.949     5.132 
 H                    -1.585     1.831     4.665 
 H                    -3.484    -0.377     3.969 
 H                    -3.511     1.027     2.858 
 H                    -3.852     1.301     4.543 
 H                     0.669     1.096     4.966 
 H                     1.13     -0.639     5.189 
 H                    -0.844     0.026     7.125 
 H                     0.062     1.477     6.921 
 H                    -1.344     5.186     1.938 
 H                    -1.651     5.963     0.432 
 H                     0.007     6.02      1.084 
 H                    -0.635     6.744    -1.405 
 H                     0.665     6.97     -2.704 
 H                     1.048     6.466    -1.036 
 H                     0.608     0.501    -4.891 
 H                    -0.692    -2.156    -4.547 
 H                    -1.267     0.74     -6.129 
 H                    -2.204     0.714    -4.596 
 H                    -1.967    -0.72     -5.453 
 H                     1.356    -1.759    -5.967 
 H                     1.452    -3.157    -4.902 
 H                     2.714    -0.522    -4.798 
 H                     3.487    -2.121    -4.529 
 H                     2.495    -1.303    -3.24 
 H                     0.867    -6.333    -0.084 
 H                     0.404    -5.642    -1.68 
 H                    -0.891    -5.999    -0.463 
 H                    -1.283    -3.581     4.028 
 H                     0.698    -4.478     7.755 
 H                     0.833    -2.619     7.68 
 H                     2.       -3.754     6.976 
 Mg                    7.89124   0.70478   0.59409 
 C                     7.79449   2.21823  -2.65847 
 C                     7.39555  -2.29532  -0.95133 
 C                     7.52177  -0.59946   3.46287 
 C                     7.23699   3.85737   1.92781 
 N                     7.64304   0.16041  -1.5353 
 C                     7.68585   0.81224  -2.68753 
 C                     7.68865  -0.10047  -3.94312 
 C                     6.99146  -1.3963   -3.29999 
 C                     7.39345  -1.19131  -1.84086 
 C                     5.4745   -1.3686   -3.38591 
 C                     9.14     -0.41952  -4.44692 
 C                     9.21356  -1.04611  -5.84109 
 H                     10.33636  -0.69193  -6.70501 
 N                     8.00231  -1.19226   1.16635 
 C                     7.79339  -2.28584   0.40365 
 C                     7.9751   -3.44025   1.29723 
 C                     8.14612  -2.93554   2.68674 
 C                     7.86989  -1.52644   2.49123 
 C                     8.05404  -4.85295   0.79574 
 C                     8.48758  -3.61156   3.98003 
 O                     8.34938  -3.01752   5.10734 
 C                     8.89961  -5.02026   3.89461 
 N                     7.2361    1.46508   2.41483 
 C                     7.22152   0.69822   3.5192 
 C                     6.97787   1.52862   4.75673 
 C                     7.0729    3.05151   4.27781 
 C                     7.27542   2.82825   2.76304 
 C                     5.63993   1.29886   5.45924 
 C                     8.07834   3.96478   5.03127 
 C                     9.4945    3.52065   4.7438 
 N                     7.75253   2.71987  -0.17287 
 C                     7.44325   3.89001   0.55458 
 C                     7.35293   4.99706  -0.41944 
 C                     7.59515   4.3851   -1.65853 
 C                     7.80054   2.99132  -1.47229 
 C                     7.03161   6.34968  -0.11401 
 C                     7.71326   4.59947  -3.08288 
 O                     7.72207   5.58843  -3.81473 
 C                     7.72237   3.18495  -3.80776 
 C                     8.85254   3.17894  -4.80033 
 O                     10.03304   3.24282  -4.41438 
 O                     8.36688   2.88113  -6.01927 
 C                     9.45182   2.85228  -7.03608 
 H                     7.01716  -3.25243  -1.31139 
 H                     7.49021  -0.97896   4.48681 
 H                     7.13354   4.88757   2.27519 
 H                     7.09691   0.2668   -4.77301 
 H                     7.42591  -2.3131   -3.68999 
 H                     5.10938  -0.42396  -3.76074 
 H                     5.11961  -1.53825  -2.37779 
 H                     5.11497  -2.2148   -3.97838 
 H                     9.55378  -1.24191  -3.84925 
 H                     9.75685   0.45734  -4.41183 
 H                     8.2658   -0.95333  -6.38523 
 H                     9.35447  -2.124    -5.73011 
 H                     7.72923  -4.92751  -0.24941 
 H                     7.31015  -5.43223   1.35334 
 H                     9.03833  -5.30025   0.9499 
 H                     8.10624  -5.60104   3.43015 
 H                     9.18809  -5.30238   4.90904 
 H                     9.76999  -5.09068   3.23274 
 H                     7.74265   1.34612   5.50165 
 H                     6.1126    3.57542   4.39261 
 H                     5.74887   1.00561   6.52047 
 H                     5.09147   0.54466   4.91069 
 H                     4.95511   2.14485   5.43646 
 H                     7.93747   3.87314   6.11104 
 H                     7.97817   5.01576   4.78148 
 H                     9.64632   2.70389   5.4558 
 H                     10.1947   4.33441   4.92145 
 H                     9.57761   3.09869   3.73549 
 H                     7.71503   6.9677   -0.68101 
 H                     7.10947   6.54554   0.95339 
 H                     5.99655   6.38807  -0.46395 
 H                     6.7527    3.05807  -4.2907 
 H                     9.1638    3.54781  -7.83042 
 H                     9.5704    1.78873  -7.31634 
 H                     10.41879   3.24824  -6.74861 
 
 ITRead=  0  0  0  0  0  0  0  0  0  0  0  0  0  0  0  0  0  0  0  0
 ITRead=  0  0  0  0  0  0  0  0  0  0  0  0  0  0  0  0  0  0  0  0
 ITRead=  0  0  0  0  0  0  0  0  0  0  0  0  0  0  0  0  0  0  0  0
 ITRead=  0  0  0  0  0  0  0  0  0  0  0  0  0  0  0  0  0  0  0  0
 ITRead=  0  0  0  0  0  0  0  0  0  0  0  0  0  0  0  0  0  0  0  0
 ITRead=  0  0  0  0  0  0  0  0  0  0  0  0  0  0  0  0  0  0  0  0
 ITRead=  0  0  0  0  0  0  0  0  0  0  0  0  0  0  0  0  0  0  0  0
 ITRead=  0  0  0  0  0  0  0  0  0  0  0  0  0  0  0  0  0  0
 MicOpt= -1 -1 -1 -1 -1 -1 -1 -1 -1 -1 -1 -1 -1 -1 -1 -1 -1 -1 -1 -1
 MicOpt= -1 -1 -1 -1 -1 -1 -1 -1 -1 -1 -1 -1 -1 -1 -1 -1 -1 -1 -1 -1
 MicOpt= -1 -1 -1 -1 -1 -1 -1 -1 -1 -1 -1 -1 -1 -1 -1 -1 -1 -1 -1 -1
 MicOpt= -1 -1 -1 -1 -1 -1 -1 -1 -1 -1 -1 -1 -1 -1 -1 -1 -1 -1 -1 -1
 MicOpt= -1 -1 -1 -1 -1 -1 -1 -1 -1 -1 -1 -1 -1 -1 -1 -1 -1 -1 -1 -1
 MicOpt= -1 -1 -1 -1 -1 -1 -1 -1 -1 -1 -1 -1 -1 -1 -1 -1 -1 -1 -1 -1
 MicOpt= -1 -1 -1 -1 -1 -1 -1 -1 -1 -1 -1 -1 -1 -1 -1 -1 -1 -1 -1 -1
 MicOpt= -1 -1 -1 -1 -1 -1 -1 -1 -1 -1 -1 -1 -1 -1 -1 -1 -1 -1
 NAtoms=    158 NQM=      158 NQMF=       0 NMMI=      0 NMMIF=      0
                NMic=       0 NMicF=      0.
                    Isotopes and Nuclear Properties:
 (Nuclear quadrupole moments (NQMom) in fm**2, nuclear magnetic moments (NMagM)
  in nuclear magnetons)

  Atom         1           2           3           4           5           6           7           8           9          10
 IAtWgt=          24          12          12          12          12          14          12          12          12          12
 AtmWgt=  23.9850450  12.0000000  12.0000000  12.0000000  12.0000000  14.0030740  12.0000000  12.0000000  12.0000000  12.0000000
 NucSpn=           0           0           0           0           0           2           0           0           0           0
 AtZEff=  -0.0000000  -0.0000000  -0.0000000  -0.0000000  -0.0000000  -0.0000000  -0.0000000  -0.0000000  -0.0000000  -0.0000000
 NQMom=    0.0000000   0.0000000   0.0000000   0.0000000   0.0000000   2.0440000   0.0000000   0.0000000   0.0000000   0.0000000
 NMagM=    0.0000000   0.0000000   0.0000000   0.0000000   0.0000000   0.4037610   0.0000000   0.0000000   0.0000000   0.0000000
 AtZNuc=  12.0000000   6.0000000   6.0000000   6.0000000   6.0000000   7.0000000   6.0000000   6.0000000   6.0000000   6.0000000

  Atom        11          12          13          14          15          16          17          18          19          20
 IAtWgt=          12          12          12           1          14          12          12          12          12          12
 AtmWgt=  12.0000000  12.0000000  12.0000000   1.0078250  14.0030740  12.0000000  12.0000000  12.0000000  12.0000000  12.0000000
 NucSpn=           0           0           0           1           2           0           0           0           0           0
 AtZEff=  -0.0000000  -0.0000000  -0.0000000  -0.0000000  -0.0000000  -0.0000000  -0.0000000  -0.0000000  -0.0000000  -0.0000000
 NQMom=    0.0000000   0.0000000   0.0000000   0.0000000   2.0440000   0.0000000   0.0000000   0.0000000   0.0000000   0.0000000
 NMagM=    0.0000000   0.0000000   0.0000000   2.7928460   0.4037610   0.0000000   0.0000000   0.0000000   0.0000000   0.0000000
 AtZNuc=   6.0000000   6.0000000   6.0000000   1.0000000   7.0000000   6.0000000   6.0000000   6.0000000   6.0000000   6.0000000

  Atom        21          22          23          24          25          26          27          28          29          30
 IAtWgt=          12          16          12          14          12          12          12          12          12          12
 AtmWgt=  12.0000000  15.9949146  12.0000000  14.0030740  12.0000000  12.0000000  12.0000000  12.0000000  12.0000000  12.0000000
 NucSpn=           0           0           0           2           0           0           0           0           0           0
 AtZEff=  -0.0000000  -0.0000000  -0.0000000  -0.0000000  -0.0000000  -0.0000000  -0.0000000  -0.0000000  -0.0000000  -0.0000000
 NQMom=    0.0000000   0.0000000   0.0000000   2.0440000   0.0000000   0.0000000   0.0000000   0.0000000   0.0000000   0.0000000
 NMagM=    0.0000000   0.0000000   0.0000000   0.4037610   0.0000000   0.0000000   0.0000000   0.0000000   0.0000000   0.0000000
 AtZNuc=   6.0000000   8.0000000   6.0000000   7.0000000   6.0000000   6.0000000   6.0000000   6.0000000   6.0000000   6.0000000

  Atom        31          32          33          34          35          36          37          38          39          40
 IAtWgt=          12          14          12          12          12          12          12          12          16          12
 AtmWgt=  12.0000000  14.0030740  12.0000000  12.0000000  12.0000000  12.0000000  12.0000000  12.0000000  15.9949146  12.0000000
 NucSpn=           0           2           0           0           0           0           0           0           0           0
 AtZEff=  -0.0000000  -0.0000000  -0.0000000  -0.0000000  -0.0000000  -0.0000000  -0.0000000  -0.0000000  -0.0000000  -0.0000000
 NQMom=    0.0000000   2.0440000   0.0000000   0.0000000   0.0000000   0.0000000   0.0000000   0.0000000   0.0000000   0.0000000
 NMagM=    0.0000000   0.4037610   0.0000000   0.0000000   0.0000000   0.0000000   0.0000000   0.0000000   0.0000000   0.0000000
 AtZNuc=   6.0000000   7.0000000   6.0000000   6.0000000   6.0000000   6.0000000   6.0000000   6.0000000   8.0000000   6.0000000

  Atom        41          42          43          44          45          46          47          48          49          50
 IAtWgt=          12          16          16          12           1           1           1           1           1           1
 AtmWgt=  12.0000000  15.9949146  15.9949146  12.0000000   1.0078250   1.0078250   1.0078250   1.0078250   1.0078250   1.0078250
 NucSpn=           0           0           0           0           1           1           1           1           1           1
 AtZEff=  -0.0000000  -0.0000000  -0.0000000  -0.0000000  -0.0000000  -0.0000000  -0.0000000  -0.0000000  -0.0000000  -0.0000000
 NQMom=    0.0000000   0.0000000   0.0000000   0.0000000   0.0000000   0.0000000   0.0000000   0.0000000   0.0000000   0.0000000
 NMagM=    0.0000000   0.0000000   0.0000000   0.0000000   2.7928460   2.7928460   2.7928460   2.7928460   2.7928460   2.7928460
 AtZNuc=   6.0000000   8.0000000   8.0000000   6.0000000   1.0000000   1.0000000   1.0000000   1.0000000   1.0000000   1.0000000

  Atom        51          52          53          54          55          56          57          58          59          60
 IAtWgt=           1           1           1           1           1           1           1           1           1           1
 AtmWgt=   1.0078250   1.0078250   1.0078250   1.0078250   1.0078250   1.0078250   1.0078250   1.0078250   1.0078250   1.0078250
 NucSpn=           1           1           1           1           1           1           1           1           1           1
 AtZEff=  -0.0000000  -0.0000000  -0.0000000  -0.0000000  -0.0000000  -0.0000000  -0.0000000  -0.0000000  -0.0000000  -0.0000000
 NQMom=    0.0000000   0.0000000   0.0000000   0.0000000   0.0000000   0.0000000   0.0000000   0.0000000   0.0000000   0.0000000
 NMagM=    2.7928460   2.7928460   2.7928460   2.7928460   2.7928460   2.7928460   2.7928460   2.7928460   2.7928460   2.7928460
 AtZNuc=   1.0000000   1.0000000   1.0000000   1.0000000   1.0000000   1.0000000   1.0000000   1.0000000   1.0000000   1.0000000

  Atom        61          62          63          64          65          66          67          68          69          70
 IAtWgt=           1           1           1           1           1           1           1           1           1           1
 AtmWgt=   1.0078250   1.0078250   1.0078250   1.0078250   1.0078250   1.0078250   1.0078250   1.0078250   1.0078250   1.0078250
 NucSpn=           1           1           1           1           1           1           1           1           1           1
 AtZEff=  -0.0000000  -0.0000000  -0.0000000  -0.0000000  -0.0000000  -0.0000000  -0.0000000  -0.0000000  -0.0000000  -0.0000000
 NQMom=    0.0000000   0.0000000   0.0000000   0.0000000   0.0000000   0.0000000   0.0000000   0.0000000   0.0000000   0.0000000
 NMagM=    2.7928460   2.7928460   2.7928460   2.7928460   2.7928460   2.7928460   2.7928460   2.7928460   2.7928460   2.7928460
 AtZNuc=   1.0000000   1.0000000   1.0000000   1.0000000   1.0000000   1.0000000   1.0000000   1.0000000   1.0000000   1.0000000

  Atom        71          72          73          74          75          76          77          78          79          80
 IAtWgt=           1           1           1           1           1           1           1           1           1          24
 AtmWgt=   1.0078250   1.0078250   1.0078250   1.0078250   1.0078250   1.0078250   1.0078250   1.0078250   1.0078250  23.9850450
 NucSpn=           1           1           1           1           1           1           1           1           1           0
 AtZEff=  -0.0000000  -0.0000000  -0.0000000  -0.0000000  -0.0000000  -0.0000000  -0.0000000  -0.0000000  -0.0000000  -0.0000000
 NQMom=    0.0000000   0.0000000   0.0000000   0.0000000   0.0000000   0.0000000   0.0000000   0.0000000   0.0000000   0.0000000
 NMagM=    2.7928460   2.7928460   2.7928460   2.7928460   2.7928460   2.7928460   2.7928460   2.7928460   2.7928460   0.0000000
 AtZNuc=   1.0000000   1.0000000   1.0000000   1.0000000   1.0000000   1.0000000   1.0000000   1.0000000   1.0000000  12.0000000

  Atom        81          82          83          84          85          86          87          88          89          90
 IAtWgt=          12          12          12          12          14          12          12          12          12          12
 AtmWgt=  12.0000000  12.0000000  12.0000000  12.0000000  14.0030740  12.0000000  12.0000000  12.0000000  12.0000000  12.0000000
 NucSpn=           0           0           0           0           2           0           0           0           0           0
 AtZEff=  -0.0000000  -0.0000000  -0.0000000  -0.0000000  -0.0000000  -0.0000000  -0.0000000  -0.0000000  -0.0000000  -0.0000000
 NQMom=    0.0000000   0.0000000   0.0000000   0.0000000   2.0440000   0.0000000   0.0000000   0.0000000   0.0000000   0.0000000
 NMagM=    0.0000000   0.0000000   0.0000000   0.0000000   0.4037610   0.0000000   0.0000000   0.0000000   0.0000000   0.0000000
 AtZNuc=   6.0000000   6.0000000   6.0000000   6.0000000   7.0000000   6.0000000   6.0000000   6.0000000   6.0000000   6.0000000

  Atom        91          92          93          94          95          96          97          98          99         100
 IAtWgt=          12          12           1          14          12          12          12          12          12          12
 AtmWgt=  12.0000000  12.0000000   1.0078250  14.0030740  12.0000000  12.0000000  12.0000000  12.0000000  12.0000000  12.0000000
 NucSpn=           0           0           1           2           0           0           0           0           0           0
 AtZEff=  -0.0000000  -0.0000000  -0.0000000  -0.0000000  -0.0000000  -0.0000000  -0.0000000  -0.0000000  -0.0000000  -0.0000000
 NQMom=    0.0000000   0.0000000   0.0000000   2.0440000   0.0000000   0.0000000   0.0000000   0.0000000   0.0000000   0.0000000
 NMagM=    0.0000000   0.0000000   2.7928460   0.4037610   0.0000000   0.0000000   0.0000000   0.0000000   0.0000000   0.0000000
 AtZNuc=   6.0000000   6.0000000   1.0000000   7.0000000   6.0000000   6.0000000   6.0000000   6.0000000   6.0000000   6.0000000

  Atom       101         102         103         104         105         106         107         108         109         110
 IAtWgt=          16          12          14          12          12          12          12          12          12          12
 AtmWgt=  15.9949146  12.0000000  14.0030740  12.0000000  12.0000000  12.0000000  12.0000000  12.0000000  12.0000000  12.0000000
 NucSpn=           0           0           2           0           0           0           0           0           0           0
 AtZEff=  -0.0000000  -0.0000000  -0.0000000  -0.0000000  -0.0000000  -0.0000000  -0.0000000  -0.0000000  -0.0000000  -0.0000000
 NQMom=    0.0000000   0.0000000   2.0440000   0.0000000   0.0000000   0.0000000   0.0000000   0.0000000   0.0000000   0.0000000
 NMagM=    0.0000000   0.0000000   0.4037610   0.0000000   0.0000000   0.0000000   0.0000000   0.0000000   0.0000000   0.0000000
 AtZNuc=   8.0000000   6.0000000   7.0000000   6.0000000   6.0000000   6.0000000   6.0000000   6.0000000   6.0000000   6.0000000

  Atom       111         112         113         114         115         116         117         118         119         120
 IAtWgt=          14          12          12          12          12          12          12          16          12          12
 AtmWgt=  14.0030740  12.0000000  12.0000000  12.0000000  12.0000000  12.0000000  12.0000000  15.9949146  12.0000000  12.0000000
 NucSpn=           2           0           0           0           0           0           0           0           0           0
 AtZEff=  -0.0000000  -0.0000000  -0.0000000  -0.0000000  -0.0000000  -0.0000000  -0.0000000  -0.0000000  -0.0000000  -0.0000000
 NQMom=    2.0440000   0.0000000   0.0000000   0.0000000   0.0000000   0.0000000   0.0000000   0.0000000   0.0000000   0.0000000
 NMagM=    0.4037610   0.0000000   0.0000000   0.0000000   0.0000000   0.0000000   0.0000000   0.0000000   0.0000000   0.0000000
 AtZNuc=   7.0000000   6.0000000   6.0000000   6.0000000   6.0000000   6.0000000   6.0000000   8.0000000   6.0000000   6.0000000

  Atom       121         122         123         124         125         126         127         128         129         130
 IAtWgt=          16          16          12           1           1           1           1           1           1           1
 AtmWgt=  15.9949146  15.9949146  12.0000000   1.0078250   1.0078250   1.0078250   1.0078250   1.0078250   1.0078250   1.0078250
 NucSpn=           0           0           0           1           1           1           1           1           1           1
 AtZEff=  -0.0000000  -0.0000000  -0.0000000  -0.0000000  -0.0000000  -0.0000000  -0.0000000  -0.0000000  -0.0000000  -0.0000000
 NQMom=    0.0000000   0.0000000   0.0000000   0.0000000   0.0000000   0.0000000   0.0000000   0.0000000   0.0000000   0.0000000
 NMagM=    0.0000000   0.0000000   0.0000000   2.7928460   2.7928460   2.7928460   2.7928460   2.7928460   2.7928460   2.7928460
 AtZNuc=   8.0000000   8.0000000   6.0000000   1.0000000   1.0000000   1.0000000   1.0000000   1.0000000   1.0000000   1.0000000

  Atom       131         132         133         134         135         136         137         138         139         140
 IAtWgt=           1           1           1           1           1           1           1           1           1           1
 AtmWgt=   1.0078250   1.0078250   1.0078250   1.0078250   1.0078250   1.0078250   1.0078250   1.0078250   1.0078250   1.0078250
 NucSpn=           1           1           1           1           1           1           1           1           1           1
 AtZEff=  -0.0000000  -0.0000000  -0.0000000  -0.0000000  -0.0000000  -0.0000000  -0.0000000  -0.0000000  -0.0000000  -0.0000000
 NQMom=    0.0000000   0.0000000   0.0000000   0.0000000   0.0000000   0.0000000   0.0000000   0.0000000   0.0000000   0.0000000
 NMagM=    2.7928460   2.7928460   2.7928460   2.7928460   2.7928460   2.7928460   2.7928460   2.7928460   2.7928460   2.7928460
 AtZNuc=   1.0000000   1.0000000   1.0000000   1.0000000   1.0000000   1.0000000   1.0000000   1.0000000   1.0000000   1.0000000

  Atom       141         142         143         144         145         146         147         148         149         150
 IAtWgt=           1           1           1           1           1           1           1           1           1           1
 AtmWgt=   1.0078250   1.0078250   1.0078250   1.0078250   1.0078250   1.0078250   1.0078250   1.0078250   1.0078250   1.0078250
 NucSpn=           1           1           1           1           1           1           1           1           1           1
 AtZEff=  -0.0000000  -0.0000000  -0.0000000  -0.0000000  -0.0000000  -0.0000000  -0.0000000  -0.0000000  -0.0000000  -0.0000000
 NQMom=    0.0000000   0.0000000   0.0000000   0.0000000   0.0000000   0.0000000   0.0000000   0.0000000   0.0000000   0.0000000
 NMagM=    2.7928460   2.7928460   2.7928460   2.7928460   2.7928460   2.7928460   2.7928460   2.7928460   2.7928460   2.7928460
 AtZNuc=   1.0000000   1.0000000   1.0000000   1.0000000   1.0000000   1.0000000   1.0000000   1.0000000   1.0000000   1.0000000

  Atom       151         152         153         154         155         156         157         158
 IAtWgt=           1           1           1           1           1           1           1           1
 AtmWgt=   1.0078250   1.0078250   1.0078250   1.0078250   1.0078250   1.0078250   1.0078250   1.0078250
 NucSpn=           1           1           1           1           1           1           1           1
 AtZEff=  -0.0000000  -0.0000000  -0.0000000  -0.0000000  -0.0000000  -0.0000000  -0.0000000  -0.0000000
 NQMom=    0.0000000   0.0000000   0.0000000   0.0000000   0.0000000   0.0000000   0.0000000   0.0000000
 NMagM=    2.7928460   2.7928460   2.7928460   2.7928460   2.7928460   2.7928460   2.7928460   2.7928460
 AtZNuc=   1.0000000   1.0000000   1.0000000   1.0000000   1.0000000   1.0000000   1.0000000   1.0000000
 Leave Link  101 at Fri Sep  3 12:52:15 2021, MaxMem= 23488102400 cpu:               3.2 elap:               0.2
 (Enter /sw/apps/gaussian-16.0/g16/l202.exe)
 Stoichiometry    C68H72Mg2N8O8
 Framework group  C1[X(C68H72Mg2N8O8)]
 Deg. of freedom   468
 Full point group                 C1      NOp   1
 Largest Abelian subgroup         C1      NOp   1
 Largest concise Abelian subgroup C1      NOp   1
                         Standard orientation:                         
 ---------------------------------------------------------------------
 Center     Atomic      Atomic             Coordinates (Angstroms)
 Number     Number       Type             X           Y           Z
 ---------------------------------------------------------------------
      1         12           0        3.177543   -2.239277   -0.079748
      2          6           0        5.348836    0.547652   -0.654833
      3          6           0        4.366400   -2.315250    3.117737
      4          6           0        1.615616   -4.969984    0.320554
      5          6           0        3.025700   -2.645677   -3.537702
      6          7           0        4.665888   -0.988441    0.978969
      7          6           0        5.382331    0.085769    0.662812
      8          6           0        6.114463    0.721026    1.882568
      9          6           0        6.186935   -0.560652    2.828108
     10          6           0        4.980764   -1.318794    2.302467
     11          6           0        7.434766   -1.409917    2.608630
     12          6           0        5.282890    1.872656    2.541329
     13          6           0        6.055983    2.757355    3.523667
     14          1           0        5.739390    4.176206    3.586737
     15          7           0        2.634965   -3.174399    1.573735
     16          6           0        3.222116   -3.074465    2.790515
     17          6           0        2.452638   -3.962257    3.688519
     18          6           0        1.489087   -4.730746    2.852405
     19          6           0        1.897958   -4.336501    1.528481
     20          6           0        2.632488   -3.984643    5.175430
     21          6           0        0.383216   -5.679272    3.192230
     22          8           0       -0.178553   -6.413485    2.309098
     23          6           0        0.030147   -5.792611    4.618952
     24          7           0        2.600131   -3.751362   -1.398016
     25          6           0        1.882222   -4.797945   -0.975813
     26          6           0        1.348621   -5.594954   -2.129064
     27          6           0        1.650144   -4.733197   -3.439106
     28          6           0        2.420833   -3.563001   -2.779598
     29          6           0        1.935813   -7.003016   -2.298110
     30          6           0        0.445265   -4.399961   -4.354331
     31          6           0       -0.496943   -3.457429   -3.639506
     32          7           0        3.876767   -1.143562   -1.818006
     33          6           0        3.720749   -1.507898   -3.163217
     34          6           0        4.453579   -0.513202   -3.967960
     35          6           0        5.002371    0.356906   -3.027969
     36          6           0        4.657454   -0.082342   -1.717860
     37          6           0        4.594291   -0.526965   -5.383744
     38          6           0        5.820443    1.541501   -2.824618
     39          8           0        6.315942    2.390971   -3.566490
     40          6           0        6.179055    1.643055   -1.276422
     41          6           0        5.915211    3.058617   -0.840670
     42          8           0        4.753593    3.513945   -0.814492
     43          8           0        7.031083    3.573092   -0.301515
     44          6           0        6.829309    4.966315    0.178456
     45          1           0        4.834639   -2.582951    4.066962
     46          1           0        0.983849   -5.856388    0.407722
     47          1           0        2.952588   -2.659843   -4.626696
     48          1           0        7.120113    1.084363    1.670251
     49          1           0        6.043892   -0.301240    3.876900
     50          1           0        8.005906   -1.063678    1.747330
     51          1           0        7.071009   -2.423944    2.441527
     52          1           0        8.038024   -1.453676    3.515791
     53          1           0        4.546623    1.441639    3.219707
     54          1           0        4.820551    2.499831    1.778295
     55          1           0        7.132337    2.609932    3.430724
     56          1           0        5.823777    2.427186    4.536222
     57          1           0        3.523360   -3.436460    5.479383
     58          1           0        2.840154   -5.017179    5.455523
     59          1           0        1.745062   -3.632409    5.701488
     60          1           0        0.906533   -6.114061    5.182129
     61          1           0       -0.839020   -6.447975    4.662490
     62          1           0       -0.231885   -4.804163    4.997448
     63          1           0        0.273251   -5.742434   -2.038199
     64          1           0        2.358044   -5.231047   -4.102203
     65          1           0        1.185448   -7.793978   -2.292073
     66          1           0        2.673128   -7.157428   -1.510828
     67          1           0        2.542140   -7.141003   -3.192953
     68          1           0       -0.118085   -5.303837   -4.583660
     69          1           0        0.736587   -3.941941   -5.299636
     70          1           0       -1.104489   -4.131411   -3.036624
     71          1           0       -1.111775   -2.915900   -4.359186
     72          1           0        0.040176   -2.801677   -2.953956
     73          1           0        4.442899    0.500218   -5.715320
     74          1           0        3.875367   -1.202646   -5.846569
     75          1           0        5.621067   -0.879227   -5.481202
     76          1           0        7.230507    1.374245   -1.179918
     77          1           0        7.580419    5.586380   -0.311022
     78          1           0        6.840217    4.923450    1.267698
     79          1           0        5.912256    5.459691   -0.145477
     80         12           0       -3.322074    2.316943    0.262539
     81          6           0       -5.214806   -0.722977    0.026985
     82          6           0       -2.660198    1.987189   -3.067298
     83          6           0       -1.285154    4.735050    0.529305
     84          6           0       -3.175627    1.795640    3.705281
     85          7           0       -3.917431    0.787287   -1.220008
     86          6           0       -4.688842   -0.289340   -1.207833
     87          6           0       -4.974601   -0.891726   -2.609627
     88          6           0       -3.687737   -0.321962   -3.383071
     89          6           0       -3.418496    0.916267   -2.530442
     90          6           0       -2.477469   -1.236510   -3.292675
     91          6           0       -6.307431   -0.347524   -3.233672
     92          6           0       -6.806757   -1.119224   -4.457146
     93          1           0       -8.247006   -1.273042   -4.642899
     94          7           0       -2.546137    3.501826   -1.127624
     95          6           0       -2.372754    3.216951   -2.435317
     96          6           0       -1.745504    4.408858   -3.026995
     97          6           0       -1.412280    5.357224   -1.929597
     98          6           0       -1.722794    4.541413   -0.772824
     99          6           0       -1.589363    4.595687   -4.508264
    100          6           0       -0.887332    6.760994   -1.922281
    101          8           0       -0.446192    7.309342   -0.851057
    102          6           0       -0.818258    7.441865   -3.223490
    103          7           0       -2.187637    3.036387    1.849301
    104          6           0       -1.424816    4.135049    1.711587
    105          6           0       -0.921226    4.620722    3.049843
    106          6           0       -1.705875    3.756950    4.143376
    107          6           0       -2.496259    2.818633    3.205164
    108          6           0        0.583838    4.489104    3.281907
    109          6           0       -2.486679    4.542181    5.232610
    110          6           0       -3.651289    5.274471    4.605845
    111          7           0       -4.201956    0.927922    1.664140
    112          6           0       -3.986043    0.871371    3.058503
    113          6           0       -4.710818   -0.312686    3.563619
    114          6           0       -5.283718   -0.880411    2.415584
    115          6           0       -4.923574   -0.116382    1.272759
    116          6           0       -4.736476   -0.758290    4.915246
    117          6           0       -6.102468   -1.958350    1.909254
    118          8           0       -6.760855   -2.863174    2.420669
    119          6           0       -5.990118   -1.976520    0.323868
    120          6           0       -7.380333   -2.090357   -0.239033
    121          8           0       -8.203330   -1.171452   -0.081209
    122          8           0       -7.440514   -3.161341   -1.051278
    123          6           0       -8.797012   -3.309974   -1.642592
    124          1           0       -2.205428    1.859403   -4.050017
    125          1           0       -0.668823    5.622152    0.692570
    126          1           0       -3.259820    1.620283    4.779920
    127          1           0       -4.981072   -1.974497   -2.646036
    128          1           0       -3.933884   -0.036721   -4.402589
    129          1           0       -2.647988   -2.065298   -2.621714
    130          1           0       -1.667187   -0.617254   -2.930738
    131          1           0       -2.180209   -1.568253   -4.291635
    132          1           0       -6.114283    0.629970   -3.694051
    133          1           0       -7.083212   -0.301169   -2.494325
    134          1           0       -6.299329   -2.084921   -4.570687
    135          1           0       -6.528498   -0.562993   -5.355588
    136          1           0       -1.774714    3.661845   -5.053225
    137          1           0       -0.531828    4.812915   -4.693434
    138          1           0       -2.192437    5.420084   -4.894712
    139          1           0       -0.187252    6.868213   -3.898189
    140          1           0       -0.502894    8.463405   -3.002397
    141          1           0       -1.820931    7.454972   -3.665153
    142          1           0       -1.156246    5.668063    3.194556
    143          1           0       -1.024004    3.118808    4.724464
    144          1           0        1.073135    5.450273    3.528517
    145          1           0        1.028557    4.051822    2.397859
    146          1           0        0.871277    3.782593    4.058706
    147          1           0       -1.846054    5.304929    5.682012
    148          1           0       -2.853707    3.914616    6.037867
    149          1           0       -3.190261    6.190280    4.223960
    150          1           0       -4.410774    5.496695    5.352736
    151          1           0       -4.047201    4.721473    3.746140
    152          1           0       -5.760525   -1.030240    5.134030
    153          1           0       -4.374816    0.010937    5.594406
    154          1           0       -4.050314   -1.607223    4.853799
    155          1           0       -5.366316   -2.828061    0.049387
    156          1           0       -9.144030   -4.318318   -1.396596
    157          1           0       -8.683979   -3.063834   -2.715151
    158          1           0       -9.594048   -2.704712   -1.226844
 ---------------------------------------------------------------------
 Rotational constants (GHZ):           0.0218660           0.0162592           0.0139471
 Leave Link  202 at Fri Sep  3 12:52:15 2021, MaxMem= 23488102400 cpu:               0.2 elap:               0.0
 (Enter /sw/apps/gaussian-16.0/g16/l301.exe)
 Standard basis: def2SVP (5D, 7F)
 Ernie: Thresh=  0.10000D-02 Tol=  0.10000D-05 Strict=F.
 There are  1658 symmetry adapted cartesian basis functions of A   symmetry.
 There are  1572 symmetry adapted basis functions of A   symmetry.
  1572 basis functions,  2678 primitive gaussians,  1658 cartesian basis functions
   312 alpha electrons      312 beta electrons
       nuclear repulsion energy     15917.5147972914 Hartrees.
 IExCor=20419 DFT=T Ex+Corr=CAM-B3LYP ExCW=0 ScaHFX=  1.000000
 ScaDFX=  1.000000  1.000000  1.000000  0.810000 ScalE2=  1.000000  1.000000
 IRadAn=      5 IRanWt=     -1 IRanGd=            0 ICorTp=0 IEmpDi=  4
 HFx  wShort=  0.000000 wLong=  0.330000 cFull=  0.190000 cShort=  0.000000 cLong=  0.460000
 DFx  wShort=  0.000000 wLong=  0.330000 cFull=  0.190000 cShort=  0.000000 cLong=  0.460000
 NAtoms=  158 NActive=  158 NUniq=  158 SFac= 1.00D+00 NAtFMM=   60 NAOKFM=T Big=T
 Integral buffers will be    131072 words long.
 Raffenetti 1 integral format.
 Two-electron integral symmetry is turned on.
 Leave Link  301 at Fri Sep  3 12:52:15 2021, MaxMem= 23488102400 cpu:               1.3 elap:               0.1
 (Enter /sw/apps/gaussian-16.0/g16/l302.exe)
 NPDir=0 NMtPBC=     1 NCelOv=     1 NCel=       1 NClECP=     1 NCelD=      1
         NCelK=      1 NCelE2=     1 NClLst=     1 CellRange=     0.0.
 One-electron integrals computed using PRISM.
 One-electron integral symmetry used in STVInt
   1 Symmetry operations used in ECPInt.
 ECPInt:  NShTT=  271216 NPrTT=  987664 LenC2=  163907 LenP2D=  344090.
 LDataN:  DoStor=T MaxTD1= 4 Len=   56
 NBasis=  1572 RedAO= T EigKep=  3.36D-04  NBF=  1572
 NBsUse=  1572 1.00D-06 EigRej= -1.00D+00 NBFU=  1572
 Precomputing XC quadrature grid using
 IXCGrd= 4 IRadAn=           5 IRanWt=          -1 IRanGd=           0 AccXCQ= 0.00D+00.
 Generated NRdTot=       0 NPtTot=           0 NUsed=           0 NTot=          32
 NSgBfM=  1260  1228  1236  1253  1260 MxSgAt=   158 MxSgA2=   158.
 Leave Link  302 at Fri Sep  3 12:52:21 2021, MaxMem= 23488102400 cpu:             132.0 elap:               5.5
 (Enter /sw/apps/gaussian-16.0/g16/l303.exe)
 DipDrv:  MaxL=1.
 Leave Link  303 at Fri Sep  3 12:52:21 2021, MaxMem= 23488102400 cpu:               9.9 elap:               0.5
 (Enter /sw/apps/gaussian-16.0/g16/l308.exe)
 Leave Link  308 at Fri Sep  3 12:52:22 2021, MaxMem= 23488102400 cpu:              15.1 elap:               0.7
 (Enter /sw/apps/gaussian-16.0/g16/l401.exe)
 ExpMin= 3.36D-02 ExpMax= 4.95D+03 ExpMxC= 7.45D+02 IAcc=3 IRadAn=         5 AccDes= 0.00D+00
 Harris functional with IExCor=20419 and IRadAn=       5 diagonalized for initial guess.
 HarFok:  IExCor=20419 AccDes= 0.00D+00 IRadAn=         5 IDoV= 1 UseB2=F ITyADJ=14
 ICtDFT=  3500011 ScaDFX=  1.000000  1.000000  1.000000  1.000000
 FoFCou: FMM=F IPFlag=           0 FMFlag=      100000 FMFlg1=        2001
         NFxFlg=           0 DoJE=T BraDBF=F KetDBF=T FulRan=T
         wScrn=  0.000000 ICntrl=       500 IOpCl=  0 I1Cent=   200000004 NGrid=           0
         NMat0=    1 NMatS0=      1 NMatT0=    0 NMatD0=    1 NMtDS0=    0 NMtDT0=    0
 Petite list used in FoFCou.
 Harris En= -3918.64846538034    
 JPrj=0 DoOrth=F DoCkMO=F.
 Leave Link  401 at Fri Sep  3 12:52:30 2021, MaxMem= 23488102400 cpu:             208.6 elap:               8.7
 (Enter /sw/apps/gaussian-16.0/g16/l502.exe)
 Integral symmetry usage will be decided dynamically.
 Closed shell SCF:
 Using DIIS extrapolation, IDIIS=  1040.
 NGot= 23488102400 LenX= 23482547354 LenY= 23479796732
 Requested convergence on RMS density matrix=1.00D-08 within 128 cycles.
 Requested convergence on MAX density matrix=1.00D-06.
 Requested convergence on             energy=1.00D-06.
 No special actions if energy rises.
 Fock matrices will be formed incrementally for  20 cycles.

 Cycle   1  Pass 1  IDiag  1:
 FoFJK:  IHMeth= 1 ICntrl=       0 DoSepK=T KAlg= 0 I1Cent=           0 FoldK=F
 IRaf=         1 NMat=       1 IRICut=       1 DoRegI=T DoRafI=F ISym2E= 0 IDoP0=0 IntGTp=1.
 FoFCou: FMM=T IPFlag=           0 FMFlag=      100000 FMFlg1=        2001
         NFxFlg=           0 DoJE=T BraDBF=F KetDBF=F FulRan=T
         wScrn=  0.000000 ICntrl=       500 IOpCl=  0 I1Cent=           0 NGrid=           0
         NMat0=    1 NMatS0=      1 NMatT0=    0 NMatD0=    1 NMtDS0=    0 NMtDT0=    0
 Symmetry not used in FoFCou.
 FMM levels:  10  Number of levels for PrismC:   9
 E= -4068.94113023589    
 DIIS: error= 2.04D-02 at cycle   1 NSaved=   1.
 NSaved= 1 IEnMin= 1 EnMin= -4068.94113023589     IErMin= 1 ErrMin= 2.04D-02
 ErrMax= 2.04D-02  0.00D+00 EMaxC= 1.00D-01 BMatC= 1.69D+00 BMatP= 1.69D+00
 IDIUse=3 WtCom= 7.96D-01 WtEn= 2.04D-01
 Coeff-Com:  0.100D+01
 Coeff-En:   0.100D+01
 Coeff:      0.100D+01
 Gap=     0.122 Goal=   None    Shift=    0.000
 GapD=    0.122 DampG=1.000 DampE=0.500 DampFc=0.5000 IDamp=-1.
 Damping current iteration by 5.00D-01
 RMSDP=1.57D-03 MaxDP=1.35D-01              OVMax= 1.93D-01

 Cycle   2  Pass 1  IDiag  1:
 RMSU=  7.70D-04    CP:  9.82D-01
 E= -4069.33053965511     Delta-E=       -0.389409419226 Rises=F Damp=T
 DIIS: error= 1.27D-02 at cycle   2 NSaved=   2.
 NSaved= 2 IEnMin= 2 EnMin= -4069.33053965511     IErMin= 2 ErrMin= 1.27D-02
 ErrMax= 1.27D-02  0.00D+00 EMaxC= 1.00D-01 BMatC= 3.07D-01 BMatP= 1.69D+00
 IDIUse=3 WtCom= 8.73D-01 WtEn= 1.27D-01
 Coeff-Com: -0.213D+00 0.121D+01
 Coeff-En:   0.000D+00 0.100D+01
 Coeff:     -0.186D+00 0.119D+01
 Gap=     0.133 Goal=   None    Shift=    0.000
 RMSDP=7.65D-04 MaxDP=9.54D-02 DE=-3.89D-01 OVMax= 1.81D-01

 Cycle   3  Pass 1  IDiag  1:
 RMSU=  7.32D-04    CP:  9.68D-01  1.24D+00
 E= -4069.62203680400     Delta-E=       -0.291497148890 Rises=F Damp=F
 DIIS: error= 1.56D-02 at cycle   3 NSaved=   3.
 NSaved= 3 IEnMin= 3 EnMin= -4069.62203680400     IErMin= 2 ErrMin= 1.27D-02
 ErrMax= 1.56D-02  0.00D+00 EMaxC= 1.00D-01 BMatC= 2.01D-01 BMatP= 3.07D-01
 IDIUse=3 WtCom= 8.44D-01 WtEn= 1.56D-01
 Coeff-Com: -0.267D+00 0.651D+00 0.616D+00
 Coeff-En:   0.000D+00 0.000D+00 0.100D+01
 Coeff:     -0.226D+00 0.549D+00 0.676D+00
 Gap=     0.120 Goal=   None    Shift=    0.000
 RMSDP=5.02D-04 MaxDP=4.48D-02 DE=-2.91D-01 OVMax= 1.28D-01

 Cycle   4  Pass 1  IDiag  1:
 RMSU=  2.61D-04    CP:  9.65D-01  1.54D+00  5.12D-01
 E= -4069.75962452269     Delta-E=       -0.137587718691 Rises=F Damp=F
 DIIS: error= 7.19D-03 at cycle   4 NSaved=   4.
 NSaved= 4 IEnMin= 4 EnMin= -4069.75962452269     IErMin= 4 ErrMin= 7.19D-03
 ErrMax= 7.19D-03  0.00D+00 EMaxC= 1.00D-01 BMatC= 4.88D-02 BMatP= 2.01D-01
 IDIUse=3 WtCom= 9.28D-01 WtEn= 7.19D-02
 Coeff-Com: -0.107D+00 0.223D+00 0.406D+00 0.479D+00
 Coeff-En:   0.000D+00 0.000D+00 0.212D+00 0.788D+00
 Coeff:     -0.996D-01 0.207D+00 0.392D+00 0.501D+00
 Gap=     0.120 Goal=   None    Shift=    0.000
 RMSDP=1.91D-04 MaxDP=2.02D-02 DE=-1.38D-01 OVMax= 5.10D-02

 Cycle   5  Pass 1  IDiag  1:
 RMSU=  7.21D-05    CP:  9.64D-01  1.49D+00  6.89D-01  5.66D-01
 E= -4069.80279313022     Delta-E=       -0.043168607528 Rises=F Damp=F
 DIIS: error= 8.31D-04 at cycle   5 NSaved=   5.
 NSaved= 5 IEnMin= 5 EnMin= -4069.80279313022     IErMin= 5 ErrMin= 8.31D-04
 ErrMax= 8.31D-04  0.00D+00 EMaxC= 1.00D-01 BMatC= 9.74D-04 BMatP= 4.88D-02
 IDIUse=3 WtCom= 9.92D-01 WtEn= 8.31D-03
 Coeff-Com: -0.328D-01 0.641D-01 0.154D+00 0.239D+00 0.575D+00
 Coeff-En:   0.000D+00 0.000D+00 0.000D+00 0.000D+00 0.100D+01
 Coeff:     -0.326D-01 0.636D-01 0.153D+00 0.237D+00 0.579D+00
 Gap=     0.119 Goal=   None    Shift=    0.000
 RMSDP=3.52D-05 MaxDP=4.02D-03 DE=-4.32D-02 OVMax= 1.19D-02

 Cycle   6  Pass 1  IDiag  1:
 RMSU=  2.76D-05    CP:  9.64D-01  1.49D+00  6.84D-01  6.28D-01  8.06D-01
 E= -4069.80357237605     Delta-E=       -0.000779245835 Rises=F Damp=F
 DIIS: error= 2.76D-04 at cycle   6 NSaved=   6.
 NSaved= 6 IEnMin= 6 EnMin= -4069.80357237605     IErMin= 6 ErrMin= 2.76D-04
 ErrMax= 2.76D-04  0.00D+00 EMaxC= 1.00D-01 BMatC= 1.49D-04 BMatP= 9.74D-04
 IDIUse=3 WtCom= 9.97D-01 WtEn= 2.76D-03
 Coeff-Com:  0.275D-02-0.754D-02 0.821D-02 0.360D-01 0.310D+00 0.650D+00
 Coeff-En:   0.000D+00 0.000D+00 0.000D+00 0.000D+00 0.795D-01 0.921D+00
 Coeff:      0.274D-02-0.752D-02 0.818D-02 0.359D-01 0.310D+00 0.651D+00
 Gap=     0.119 Goal=   None    Shift=    0.000
 RMSDP=1.35D-05 MaxDP=1.15D-03 DE=-7.79D-04 OVMax= 5.88D-03

 Cycle   7  Pass 1  IDiag  1:
 RMSU=  9.53D-06    CP:  9.64D-01  1.50D+00  6.89D-01  6.30D-01  8.87D-01
                    CP:  7.69D-01
 E= -4069.80372053026     Delta-E=       -0.000148154209 Rises=F Damp=F
 DIIS: error= 6.87D-05 at cycle   7 NSaved=   7.
 NSaved= 7 IEnMin= 7 EnMin= -4069.80372053026     IErMin= 7 ErrMin= 6.87D-05
 ErrMax= 6.87D-05  0.00D+00 EMaxC= 1.00D-01 BMatC= 1.60D-05 BMatP= 1.49D-04
 IDIUse=1 WtCom= 1.00D+00 WtEn= 0.00D+00
 Coeff-Com:  0.427D-02-0.928D-02-0.917D-02-0.512D-02 0.939D-01 0.316D+00
 Coeff-Com:  0.609D+00
 Coeff:      0.427D-02-0.928D-02-0.917D-02-0.512D-02 0.939D-01 0.316D+00
 Coeff:      0.609D+00
 Gap=     0.120 Goal=   None    Shift=    0.000
 RMSDP=6.07D-06 MaxDP=1.19D-03 DE=-1.48D-04 OVMax= 3.31D-03

 Cycle   8  Pass 1  IDiag  1:
 RMSU=  4.48D-06    CP:  9.64D-01  1.50D+00  6.90D-01  6.34D-01  9.00D-01
                    CP:  8.95D-01  8.54D-01
 E= -4069.80373943772     Delta-E=       -0.000018907453 Rises=F Damp=F
 DIIS: error= 3.03D-05 at cycle   8 NSaved=   8.
 NSaved= 8 IEnMin= 8 EnMin= -4069.80373943772     IErMin= 8 ErrMin= 3.03D-05
 ErrMax= 3.03D-05  0.00D+00 EMaxC= 1.00D-01 BMatC= 4.07D-06 BMatP= 1.60D-05
 IDIUse=1 WtCom= 1.00D+00 WtEn= 0.00D+00
 Coeff-Com:  0.205D-02-0.404D-02-0.750D-02-0.121D-01-0.156D-01 0.397D-01
 Coeff-Com:  0.361D+00 0.637D+00
 Coeff:      0.205D-02-0.404D-02-0.750D-02-0.121D-01-0.156D-01 0.397D-01
 Coeff:      0.361D+00 0.637D+00
 Gap=     0.120 Goal=   None    Shift=    0.000
 RMSDP=3.21D-06 MaxDP=4.99D-04 DE=-1.89D-05 OVMax= 1.38D-03

 Cycle   9  Pass 1  IDiag  1:
 RMSU=  1.99D-06    CP:  9.64D-01  1.50D+00  6.90D-01  6.36D-01  9.15D-01
                    CP:  9.20D-01  1.06D+00  8.42D-01
 E= -4069.80374587621     Delta-E=       -0.000006438495 Rises=F Damp=F
 DIIS: error= 1.70D-05 at cycle   9 NSaved=   9.
 NSaved= 9 IEnMin= 9 EnMin= -4069.80374587621     IErMin= 9 ErrMin= 1.70D-05
 ErrMax= 1.70D-05  0.00D+00 EMaxC= 1.00D-01 BMatC= 7.74D-07 BMatP= 4.07D-06
 IDIUse=1 WtCom= 1.00D+00 WtEn= 0.00D+00
 Coeff-Com:  0.520D-03-0.887D-03-0.285D-02-0.631D-02-0.241D-01-0.302D-01
 Coeff-Com:  0.117D+00 0.366D+00 0.580D+00
 Coeff:      0.520D-03-0.887D-03-0.285D-02-0.631D-02-0.241D-01-0.302D-01
 Coeff:      0.117D+00 0.366D+00 0.580D+00
 Gap=     0.120 Goal=   None    Shift=    0.000
 RMSDP=1.38D-06 MaxDP=1.59D-04 DE=-6.44D-06 OVMax= 8.13D-04

 Cycle  10  Pass 1  IDiag  1:
 RMSU=  9.31D-07    CP:  9.64D-01  1.50D+00  6.90D-01  6.36D-01  9.18D-01
                    CP:  9.35D-01  1.10D+00  1.03D+00  9.33D-01
 E= -4069.80374742935     Delta-E=       -0.000001553140 Rises=F Damp=F
 DIIS: error= 7.06D-06 at cycle  10 NSaved=  10.
 NSaved=10 IEnMin=10 EnMin= -4069.80374742935     IErMin=10 ErrMin= 7.06D-06
 ErrMax= 7.06D-06  0.00D+00 EMaxC= 1.00D-01 BMatC= 1.35D-07 BMatP= 7.74D-07
 IDIUse=1 WtCom= 1.00D+00 WtEn= 0.00D+00
 Coeff-Com: -0.387D-03 0.818D-03 0.106D-02 0.877D-03-0.554D-02-0.297D-01
 Coeff-Com: -0.535D-01-0.333D-01 0.245D+00 0.875D+00
 Coeff:     -0.387D-03 0.818D-03 0.106D-02 0.877D-03-0.554D-02-0.297D-01
 Coeff:     -0.535D-01-0.333D-01 0.245D+00 0.875D+00
 Gap=     0.120 Goal=   None    Shift=    0.000
 RMSDP=1.14D-06 MaxDP=1.58D-04 DE=-1.55D-06 OVMax= 5.92D-04

 Cycle  11  Pass 1  IDiag  1:
 RMSU=  5.12D-07    CP:  9.64D-01  1.50D+00  6.90D-01  6.36D-01  9.20D-01
                    CP:  9.46D-01  1.15D+00  1.12D+00  1.25D+00  1.28D+00
 E= -4069.80374809398     Delta-E=       -0.000000664630 Rises=F Damp=F
 DIIS: error= 3.58D-06 at cycle  11 NSaved=  11.
 NSaved=11 IEnMin=11 EnMin= -4069.80374809398     IErMin=11 ErrMin= 3.58D-06
 ErrMax= 3.58D-06  0.00D+00 EMaxC= 1.00D-01 BMatC= 5.10D-08 BMatP= 1.35D-07
 IDIUse=1 WtCom= 1.00D+00 WtEn= 0.00D+00
 Coeff-Com: -0.326D-03 0.638D-03 0.129D-02 0.209D-02 0.365D-02-0.929D-02
 Coeff-Com: -0.546D-01-0.113D+00-0.261D-01 0.474D+00 0.721D+00
 Coeff:     -0.326D-03 0.638D-03 0.129D-02 0.209D-02 0.365D-02-0.929D-02
 Coeff:     -0.546D-01-0.113D+00-0.261D-01 0.474D+00 0.721D+00
 Gap=     0.120 Goal=   None    Shift=    0.000
 RMSDP=6.21D-07 MaxDP=4.07D-05 DE=-6.65D-07 OVMax= 3.04D-04

 Cycle  12  Pass 1  IDiag  1:
 RMSU=  2.51D-07    CP:  9.64D-01  1.50D+00  6.90D-01  6.36D-01  9.21D-01
                    CP:  9.49D-01  1.17D+00  1.18D+00  1.38D+00  1.65D+00
                    CP:  1.17D+00
 E= -4069.80374831668     Delta-E=       -0.000000222699 Rises=F Damp=F
 DIIS: error= 2.43D-06 at cycle  12 NSaved=  12.
 NSaved=12 IEnMin=12 EnMin= -4069.80374831668     IErMin=12 ErrMin= 2.43D-06
 ErrMax= 2.43D-06  0.00D+00 EMaxC= 1.00D-01 BMatC= 9.17D-09 BMatP= 5.10D-08
 IDIUse=1 WtCom= 1.00D+00 WtEn= 0.00D+00
 Coeff-Com: -0.117D-04 0.752D-05 0.210D-03 0.572D-03 0.310D-02 0.398D-02
 Coeff-Com: -0.218D-02-0.330D-01-0.749D-01-0.397D-01 0.224D+00 0.918D+00
 Coeff:     -0.117D-04 0.752D-05 0.210D-03 0.572D-03 0.310D-02 0.398D-02
 Coeff:     -0.218D-02-0.330D-01-0.749D-01-0.397D-01 0.224D+00 0.918D+00
 Gap=     0.120 Goal=   None    Shift=    0.000
 RMSDP=4.02D-07 MaxDP=2.24D-05 DE=-2.23D-07 OVMax= 2.47D-04

 Cycle  13  Pass 1  IDiag  1:
 RMSU=  1.61D-07    CP:  9.64D-01  1.50D+00  6.90D-01  6.36D-01  9.21D-01
                    CP:  9.49D-01  1.18D+00  1.21D+00  1.48D+00  1.85D+00
                    CP:  1.56D+00  1.26D+00
 E= -4069.80374839113     Delta-E=       -0.000000074448 Rises=F Damp=F
 DIIS: error= 1.87D-06 at cycle  13 NSaved=  13.
 NSaved=13 IEnMin=13 EnMin= -4069.80374839113     IErMin=13 ErrMin= 1.87D-06
 ErrMax= 1.87D-06  0.00D+00 EMaxC= 1.00D-01 BMatC= 7.54D-09 BMatP= 9.17D-09
 IDIUse=1 WtCom= 1.00D+00 WtEn= 0.00D+00
 Coeff-Com:  0.109D-03-0.224D-03-0.326D-03-0.381D-03 0.629D-03 0.549D-02
 Coeff-Com:  0.193D-01 0.181D-01-0.427D-01-0.208D+00-0.173D+00 0.645D+00
 Coeff-Com:  0.736D+00
 Coeff:      0.109D-03-0.224D-03-0.326D-03-0.381D-03 0.629D-03 0.549D-02
 Coeff:      0.193D-01 0.181D-01-0.427D-01-0.208D+00-0.173D+00 0.645D+00
 Coeff:      0.736D+00
 Gap=     0.120 Goal=   None    Shift=    0.000
 RMSDP=2.91D-07 MaxDP=1.39D-05 DE=-7.44D-08 OVMax= 1.52D-04

 Cycle  14  Pass 1  IDiag  1:
 RMSU=  7.64D-08    CP:  9.64D-01  1.50D+00  6.90D-01  6.36D-01  9.21D-01
                    CP:  9.50D-01  1.19D+00  1.22D+00  1.53D+00  2.02D+00
                    CP:  1.78D+00  1.78D+00  1.06D+00
 E= -4069.80374842204     Delta-E=       -0.000000030916 Rises=F Damp=F
 DIIS: error= 1.14D-06 at cycle  14 NSaved=  14.
 NSaved=14 IEnMin=14 EnMin= -4069.80374842204     IErMin=14 ErrMin= 1.14D-06
 ErrMax= 1.14D-06  0.00D+00 EMaxC= 1.00D-01 BMatC= 9.69D-10 BMatP= 7.54D-09
 IDIUse=1 WtCom= 1.00D+00 WtEn= 0.00D+00
 Coeff-Com:  0.680D-04-0.134D-03-0.249D-03-0.388D-03-0.513D-03 0.182D-02
 Coeff-Com:  0.122D-01 0.188D-01-0.161D-02-0.943D-01-0.166D+00 0.135D+00
 Coeff-Com:  0.355D+00 0.740D+00
 Coeff:      0.680D-04-0.134D-03-0.249D-03-0.388D-03-0.513D-03 0.182D-02
 Coeff:      0.122D-01 0.188D-01-0.161D-02-0.943D-01-0.166D+00 0.135D+00
 Coeff:      0.355D+00 0.740D+00
 Gap=     0.120 Goal=   None    Shift=    0.000
 RMSDP=1.09D-07 MaxDP=5.73D-06 DE=-3.09D-08 OVMax= 6.85D-05

 Cycle  15  Pass 1  IDiag  1:
 RMSU=  3.76D-08    CP:  9.64D-01  1.50D+00  6.90D-01  6.37D-01  9.21D-01
                    CP:  9.50D-01  1.19D+00  1.23D+00  1.55D+00  2.07D+00
                    CP:  1.89D+00  1.95D+00  1.29D+00  1.02D+00
 E= -4069.80374842639     Delta-E=       -0.000000004344 Rises=F Damp=F
 DIIS: error= 4.61D-07 at cycle  15 NSaved=  15.
 NSaved=15 IEnMin=15 EnMin= -4069.80374842639     IErMin=15 ErrMin= 4.61D-07
 ErrMax= 4.61D-07  0.00D+00 EMaxC= 1.00D-01 BMatC= 2.95D-10 BMatP= 9.69D-10
 IDIUse=1 WtCom= 1.00D+00 WtEn= 0.00D+00
 Coeff-Com:  0.120D-04-0.220D-04-0.559D-04-0.117D-03-0.376D-03-0.239D-03
 Coeff-Com:  0.230D-02 0.502D-02 0.720D-02-0.335D-02-0.507D-01-0.422D-01
 Coeff-Com:  0.338D-02 0.386D+00 0.693D+00
 Coeff:      0.120D-04-0.220D-04-0.559D-04-0.117D-03-0.376D-03-0.239D-03
 Coeff:      0.230D-02 0.502D-02 0.720D-02-0.335D-02-0.507D-01-0.422D-01
 Coeff:      0.338D-02 0.386D+00 0.693D+00
 Gap=     0.120 Goal=   None    Shift=    0.000
 RMSDP=3.81D-08 MaxDP=2.76D-06 DE=-4.34D-09 OVMax= 1.86D-05

 Cycle  16  Pass 1  IDiag  1:
 RMSU=  1.75D-08    CP:  9.64D-01  1.50D+00  6.90D-01  6.37D-01  9.21D-01
                    CP:  9.50D-01  1.19D+00  1.23D+00  1.55D+00  2.08D+00
                    CP:  1.92D+00  2.02D+00  1.37D+00  1.23D+00  1.15D+00
 E= -4069.80374842691     Delta-E=       -0.000000000524 Rises=F Damp=F
 DIIS: error= 1.30D-07 at cycle  16 NSaved=  16.
 NSaved=16 IEnMin=16 EnMin= -4069.80374842691     IErMin=16 ErrMin= 1.30D-07
 ErrMax= 1.30D-07  0.00D+00 EMaxC= 1.00D-01 BMatC= 6.64D-11 BMatP= 2.95D-10
 IDIUse=1 WtCom= 1.00D+00 WtEn= 0.00D+00
 Coeff-Com: -0.125D-04 0.255D-04 0.411D-04 0.454D-04-0.497D-04-0.608D-03
 Coeff-Com: -0.211D-02-0.310D-02 0.390D-02 0.241D-01 0.157D-01-0.495D-01
 Coeff-Com: -0.113D+00 0.234D-01 0.309D+00 0.791D+00
 Coeff:     -0.125D-04 0.255D-04 0.411D-04 0.454D-04-0.497D-04-0.608D-03
 Coeff:     -0.211D-02-0.310D-02 0.390D-02 0.241D-01 0.157D-01-0.495D-01
 Coeff:     -0.113D+00 0.234D-01 0.309D+00 0.791D+00
 Gap=     0.120 Goal=   None    Shift=    0.000
 RMSDP=2.46D-08 MaxDP=1.82D-06 DE=-5.24D-10 OVMax= 1.53D-05

 Cycle  17  Pass 1  IDiag  1:
 RMSU=  1.14D-08    CP:  9.64D-01  1.50D+00  6.90D-01  6.37D-01  9.21D-01
                    CP:  9.50D-01  1.19D+00  1.23D+00  1.56D+00  2.09D+00
                    CP:  1.93D+00  2.05D+00  1.41D+00  1.34D+00  1.44D+00
                    CP:  1.25D+00
 E= -4069.80374842733     Delta-E=       -0.000000000418 Rises=F Damp=F
 DIIS: error= 8.26D-08 at cycle  17 NSaved=  17.
 NSaved=17 IEnMin=17 EnMin= -4069.80374842733     IErMin=17 ErrMin= 8.26D-08
 ErrMax= 8.26D-08  0.00D+00 EMaxC= 1.00D-01 BMatC= 2.19D-11 BMatP= 6.64D-11
 IDIUse=1 WtCom= 1.00D+00 WtEn= 0.00D+00
 Coeff-Com: -0.831D-05 0.163D-04 0.322D-04 0.472D-04 0.755D-04-0.196D-03
 Coeff-Com: -0.142D-02-0.273D-02 0.245D-03 0.122D-01 0.184D-01-0.573D-02
 Coeff-Com: -0.597D-01-0.722D-01-0.734D-01 0.380D+00 0.805D+00
 Coeff:     -0.831D-05 0.163D-04 0.322D-04 0.472D-04 0.755D-04-0.196D-03
 Coeff:     -0.142D-02-0.273D-02 0.245D-03 0.122D-01 0.184D-01-0.573D-02
 Coeff:     -0.597D-01-0.722D-01-0.734D-01 0.380D+00 0.805D+00
 Gap=     0.120 Goal=   None    Shift=    0.000
 RMSDP=1.38D-08 MaxDP=7.05D-07 DE=-4.18D-10 OVMax= 7.87D-06

 Cycle  18  Pass 1  IDiag  1:
 RMSU=  5.18D-09    CP:  9.64D-01  1.50D+00  6.90D-01  6.37D-01  9.21D-01
                    CP:  9.50D-01  1.19D+00  1.23D+00  1.56D+00  2.09D+00
                    CP:  1.93D+00  2.06D+00  1.43D+00  1.41D+00  1.62D+00
                    CP:  1.67D+00  1.34D+00
 E= -4069.80374842721     Delta-E=        0.000000000116 Rises=F Damp=F
 DIIS: error= 6.39D-08 at cycle  18 NSaved=  18.
 NSaved=18 IEnMin=17 EnMin= -4069.80374842733     IErMin=18 ErrMin= 6.39D-08
 ErrMax= 6.39D-08  0.00D+00 EMaxC= 1.00D-01 BMatC= 6.80D-12 BMatP= 2.19D-11
 IDIUse=1 WtCom= 1.00D+00 WtEn= 0.00D+00
 Coeff-Com:  0.574D-06-0.149D-05 0.860D-06 0.577D-05 0.649D-04 0.147D-03
 Coeff-Com:  0.145D-03-0.252D-03-0.133D-02-0.337D-02 0.143D-02 0.196D-01
 Coeff-Com:  0.830D-02-0.308D-01-0.166D+00-0.975D-01 0.339D+00 0.931D+00
 Coeff:      0.574D-06-0.149D-05 0.860D-06 0.577D-05 0.649D-04 0.147D-03
 Coeff:      0.145D-03-0.252D-03-0.133D-02-0.337D-02 0.143D-02 0.196D-01
 Coeff:      0.830D-02-0.308D-01-0.166D+00-0.975D-01 0.339D+00 0.931D+00
 Gap=     0.120 Goal=   None    Shift=    0.000
 RMSDP=1.09D-08 MaxDP=9.76D-07 DE= 1.16D-10 OVMax= 6.43D-06

 Cycle  19  Pass 1  IDiag  1:
 RMSU=  3.17D-09    CP:  9.64D-01  1.50D+00  6.90D-01  6.37D-01  9.21D-01
                    CP:  9.50D-01  1.19D+00  1.23D+00  1.56D+00  2.09D+00
                    CP:  1.94D+00  2.07D+00  1.44D+00  1.44D+00  1.76D+00
                    CP:  1.97D+00  1.87D+00  1.28D+00
 E= -4069.80374842758     Delta-E=       -0.000000000371 Rises=F Damp=F
 DIIS: error= 2.95D-08 at cycle  19 NSaved=  19.
 NSaved=19 IEnMin=19 EnMin= -4069.80374842758     IErMin=19 ErrMin= 2.95D-08
 ErrMax= 2.95D-08  0.00D+00 EMaxC= 1.00D-01 BMatC= 2.70D-12 BMatP= 6.80D-12
 IDIUse=1 WtCom= 1.00D+00 WtEn= 0.00D+00
 Coeff-Com:  0.345D-05-0.698D-05-0.115D-04-0.142D-04 0.164D-04 0.165D-03
 Coeff-Com:  0.634D-03 0.855D-03-0.867D-03-0.670D-02-0.638D-02 0.157D-01
 Coeff-Com:  0.256D-01 0.109D-01-0.871D-01-0.207D+00-0.995D-01 0.586D+00
 Coeff-Com:  0.767D+00
 Coeff:      0.345D-05-0.698D-05-0.115D-04-0.142D-04 0.164D-04 0.165D-03
 Coeff:      0.634D-03 0.855D-03-0.867D-03-0.670D-02-0.638D-02 0.157D-01
 Coeff:      0.256D-01 0.109D-01-0.871D-01-0.207D+00-0.995D-01 0.586D+00
 Coeff:      0.767D+00
 Gap=     0.120 Goal=   None    Shift=    0.000
 RMSDP=7.01D-09 MaxDP=3.28D-07 DE=-3.71D-10 OVMax= 4.03D-06

 SCF Done:  E(RCAM-B3LYP) =  -4069.80374843     A.U. after   19 cycles
            NFock= 19  Conv=0.70D-08     -V/T= 2.0102
 KE= 4.028858217021D+03 PE=-4.131635379806D+04 EE= 1.730017703532D+04
 Leave Link  502 at Fri Sep  3 13:04:59 2021, MaxMem= 23488102400 cpu:           17318.5 elap:             748.0
 (Enter /sw/apps/gaussian-16.0/g16/l801.exe)
 DoSCS=F DFT=T ScalE2(SS,OS)=  1.000000  1.000000
 ExpMin= 3.36D-02 ExpMax= 4.95D+03 ExpMxC= 7.45D+02 IAcc=3 IRadAn=         5 AccDes= 0.00D+00
 HarFok:  IExCor=  205 AccDes= 0.00D+00 IRadAn=         5 IDoV=-2 UseB2=F ITyADJ=14
 ICtDFT= 12500011 ScaDFX=  1.000000  1.000000  1.000000  1.000000
 GSVD:  LWork=       -9588 too small for GESVD, short by       45590 words or       45590 for optimal perf.
 Largest valence mixing into a core orbital is  2.03D-04
 Largest core mixing into a valence orbital is  5.23D-05
 Range of M.O.s used for correlation:    95  1572
 NBasis=  1572 NAE=   312 NBE=   312 NFC=    94 NFV=     0
 NROrb=   1478 NOA=   218 NOB=   218 NVA=  1260 NVB=  1260
 Leave Link  801 at Fri Sep  3 13:04:59 2021, MaxMem= 23488102400 cpu:               7.9 elap:               0.4
 (Enter /sw/apps/gaussian-16.0/g16/l914.exe)
 RHF ground state
 Two-electron integrals replicated using symmetry.
 MDV= 23488102400 DFT=T DoStab=F Mixed=T DoRPA=T DoScal=F NonHer=T
 Making orbital integer symmetry assigments:
 Orbital symmetries:
       Occupied  (A) (A) (A) (A) (A) (A) (A) (A) (A) (A) (A) (A)
                 (A) (A) (A) (A) (A) (A) (A) (A) (A) (A) (A) (A)
                 (A) (A) (A) (A) (A) (A) (A) (A) (A) (A) (A) (A)
                 (A) (A) (A) (A) (A) (A) (A) (A) (A) (A) (A) (A)
                 (A) (A) (A) (A) (A) (A) (A) (A) (A) (A) (A) (A)
                 (A) (A) (A) (A) (A) (A) (A) (A) (A) (A) (A) (A)
                 (A) (A) (A) (A) (A) (A) (A) (A) (A) (A) (A) (A)
                 (A) (A) (A) (A) (A) (A) (A) (A) (A) (A) (A) (A)
                 (A) (A) (A) (A) (A) (A) (A) (A) (A) (A) (A) (A)
                 (A) (A) (A) (A) (A) (A) (A) (A) (A) (A) (A) (A)
                 (A) (A) (A) (A) (A) (A) (A) (A) (A) (A) (A) (A)
                 (A) (A) (A) (A) (A) (A) (A) (A) (A) (A) (A) (A)
                 (A) (A) (A) (A) (A) (A) (A) (A) (A) (A) (A) (A)
                 (A) (A) (A) (A) (A) (A) (A) (A) (A) (A) (A) (A)
                 (A) (A) (A) (A) (A) (A) (A) (A) (A) (A) (A) (A)
                 (A) (A) (A) (A) (A) (A) (A) (A) (A) (A) (A) (A)
                 (A) (A) (A) (A) (A) (A) (A) (A) (A) (A) (A) (A)
                 (A) (A) (A) (A) (A) (A) (A) (A) (A) (A) (A) (A)
                 (A) (A) (A) (A) (A) (A) (A) (A) (A) (A) (A) (A)
                 (A) (A) (A) (A) (A) (A) (A) (A) (A) (A) (A) (A)
                 (A) (A) (A) (A) (A) (A) (A) (A) (A) (A) (A) (A)
                 (A) (A) (A) (A) (A) (A) (A) (A) (A) (A) (A) (A)
                 (A) (A) (A) (A) (A) (A) (A) (A) (A) (A) (A) (A)
                 (A) (A) (A) (A) (A) (A) (A) (A) (A) (A) (A) (A)
                 (A) (A) (A) (A) (A) (A) (A) (A) (A) (A) (A) (A)
                 (A) (A) (A) (A) (A) (A) (A) (A) (A) (A) (A) (A)
       Virtual   (A) (A) (A) (A) (A) (A) (A) (A) (A) (A) (A) (A)
                 (A) (A) (A) (A) (A) (A) (A) (A) (A) (A) (A) (A)
                 (A) (A) (A) (A) (A) (A) (A) (A) (A) (A) (A) (A)
                 (A) (A) (A) (A) (A) (A) (A) (A) (A) (A) (A) (A)
                 (A) (A) (A) (A) (A) (A) (A) (A) (A) (A) (A) (A)
                 (A) (A) (A) (A) (A) (A) (A) (A) (A) (A) (A) (A)
                 (A) (A) (A) (A) (A) (A) (A) (A) (A) (A) (A) (A)
                 (A) (A) (A) (A) (A) (A) (A) (A) (A) (A) (A) (A)
                 (A) (A) (A) (A) (A) (A) (A) (A) (A) (A) (A) (A)
                 (A) (A) (A) (A) (A) (A) (A) (A) (A) (A) (A) (A)
                 (A) (A) (A) (A) (A) (A) (A) (A) (A) (A) (A) (A)
                 (A) (A) (A) (A) (A) (A) (A) (A) (A) (A) (A) (A)
                 (A) (A) (A) (A) (A) (A) (A) (A) (A) (A) (A) (A)
                 (A) (A) (A) (A) (A) (A) (A) (A) (A) (A) (A) (A)
                 (A) (A) (A) (A) (A) (A) (A) (A) (A) (A) (A) (A)
                 (A) (A) (A) (A) (A) (A) (A) (A) (A) (A) (A) (A)
                 (A) (A) (A) (A) (A) (A) (A) (A) (A) (A) (A) (A)
                 (A) (A) (A) (A) (A) (A) (A) (A) (A) (A) (A) (A)
                 (A) (A) (A) (A) (A) (A) (A) (A) (A) (A) (A) (A)
                 (A) (A) (A) (A) (A) (A) (A) (A) (A) (A) (A) (A)
                 (A) (A) (A) (A) (A) (A) (A) (A) (A) (A) (A) (A)
                 (A) (A) (A) (A) (A) (A) (A) (A) (A) (A) (A) (A)
                 (A) (A) (A) (A) (A) (A) (A) (A) (A) (A) (A) (A)
                 (A) (A) (A) (A) (A) (A) (A) (A) (A) (A) (A) (A)
                 (A) (A) (A) (A) (A) (A) (A) (A) (A) (A) (A) (A)
                 (A) (A) (A) (A) (A) (A) (A) (A) (A) (A) (A) (A)
                 (A) (A) (A) (A) (A) (A) (A) (A) (A) (A) (A) (A)
                 (A) (A) (A) (A) (A) (A) (A) (A) (A) (A) (A) (A)
                 (A) (A) (A) (A) (A) (A) (A) (A) (A) (A) (A) (A)
                 (A) (A) (A) (A) (A) (A) (A) (A) (A) (A) (A) (A)
                 (A) (A) (A) (A) (A) (A) (A) (A) (A) (A) (A) (A)
                 (A) (A) (A) (A) (A) (A) (A) (A) (A) (A) (A) (A)
                 (A) (A) (A) (A) (A) (A) (A) (A) (A) (A) (A) (A)
                 (A) (A) (A) (A) (A) (A) (A) (A) (A) (A) (A) (A)
                 (A) (A) (A) (A) (A) (A) (A) (A) (A) (A) (A) (A)
                 (A) (A) (A) (A) (A) (A) (A) (A) (A) (A) (A) (A)
                 (A) (A) (A) (A) (A) (A) (A) (A) (A) (A) (A) (A)
                 (A) (A) (A) (A) (A) (A) (A) (A) (A) (A) (A) (A)
                 (A) (A) (A) (A) (A) (A) (A) (A) (A) (A) (A) (A)
                 (A) (A) (A) (A) (A) (A) (A) (A) (A) (A) (A) (A)
                 (A) (A) (A) (A) (A) (A) (A) (A) (A) (A) (A) (A)
                 (A) (A) (A) (A) (A) (A) (A) (A) (A) (A) (A) (A)
                 (A) (A) (A) (A) (A) (A) (A) (A) (A) (A) (A) (A)
                 (A) (A) (A) (A) (A) (A) (A) (A) (A) (A) (A) (A)
                 (A) (A) (A) (A) (A) (A) (A) (A) (A) (A) (A) (A)
                 (A) (A) (A) (A) (A) (A) (A) (A) (A) (A) (A) (A)
                 (A) (A) (A) (A) (A) (A) (A) (A) (A) (A) (A) (A)
                 (A) (A) (A) (A) (A) (A) (A) (A) (A) (A) (A) (A)
                 (A) (A) (A) (A) (A) (A) (A) (A) (A) (A) (A) (A)
                 (A) (A) (A) (A) (A) (A) (A) (A) (A) (A) (A) (A)
                 (A) (A) (A) (A) (A) (A) (A) (A) (A) (A) (A) (A)
                 (A) (A) (A) (A) (A) (A) (A) (A) (A) (A) (A) (A)
                 (A) (A) (A) (A) (A) (A) (A) (A) (A) (A) (A) (A)
                 (A) (A) (A) (A) (A) (A) (A) (A) (A) (A) (A) (A)
                 (A) (A) (A) (A) (A) (A) (A) (A) (A) (A) (A) (A)
                 (A) (A) (A) (A) (A) (A) (A) (A) (A) (A) (A) (A)
                 (A) (A) (A) (A) (A) (A) (A) (A) (A) (A) (A) (A)
                 (A) (A) (A) (A) (A) (A) (A) (A) (A) (A) (A) (A)
                 (A) (A) (A) (A) (A) (A) (A) (A) (A) (A) (A) (A)
                 (A) (A) (A) (A) (A) (A) (A) (A) (A) (A) (A) (A)
                 (A) (A) (A) (A) (A) (A) (A) (A) (A) (A) (A) (A)
                 (A) (A) (A) (A) (A) (A) (A) (A) (A) (A) (A) (A)
                 (A) (A) (A) (A) (A) (A) (A) (A) (A) (A) (A) (A)
                 (A) (A) (A) (A) (A) (A) (A) (A) (A) (A) (A) (A)
                 (A) (A) (A) (A) (A) (A) (A) (A) (A) (A) (A) (A)
                 (A) (A) (A) (A) (A) (A) (A) (A) (A) (A) (A) (A)
                 (A) (A) (A) (A) (A) (A) (A) (A) (A) (A) (A) (A)
                 (A) (A) (A) (A) (A) (A) (A) (A) (A) (A) (A) (A)
                 (A) (A) (A) (A) (A) (A) (A) (A) (A) (A) (A) (A)
                 (A) (A) (A) (A) (A) (A) (A) (A) (A) (A) (A) (A)
                 (A) (A) (A) (A) (A) (A) (A) (A) (A) (A) (A) (A)
                 (A) (A) (A) (A) (A) (A) (A) (A) (A) (A) (A) (A)
                 (A) (A) (A) (A) (A) (A) (A) (A) (A) (A) (A) (A)
                 (A) (A) (A) (A) (A) (A) (A) (A) (A) (A) (A) (A)
                 (A) (A) (A) (A) (A) (A) (A) (A) (A) (A) (A) (A)
                 (A) (A) (A) (A) (A) (A) (A) (A) (A) (A) (A) (A)
                 (A) (A) (A) (A) (A) (A) (A) (A) (A) (A) (A) (A)
                 (A) (A) (A) (A) (A) (A) (A) (A) (A) (A) (A) (A)
                 (A) (A) (A) (A) (A) (A) (A) (A) (A) (A) (A) (A)
                 (A) (A) (A) (A) (A) (A) (A) (A) (A) (A) (A) (A)
                 (A) (A) (A) (A) (A) (A) (A) (A) (A) (A) (A) (A)
                 (A) (A) (A) (A) (A) (A) (A) (A) (A) (A) (A) (A)
                 (A) (A) (A) (A) (A) (A) (A) (A) (A) (A) (A) (A)
                 (A) (A) (A) (A) (A) (A) (A) (A) (A) (A) (A) (A)
                 (A) (A) (A) (A) (A) (A) (A) (A) (A) (A) (A) (A)
                 (A) (A) (A) (A) (A) (A) (A) (A) (A) (A) (A) (A)
                 (A) (A) (A) (A) (A) (A) (A) (A) (A) (A) (A) (A)
                 (A) (A) (A) (A) (A) (A) (A) (A) (A) (A) (A) (A)
                 (A) (A) (A) (A) (A) (A) (A) (A) (A) (A) (A) (A)
                 (A) (A) (A) (A) (A) (A) (A) (A) (A) (A) (A) (A)
                 (A) (A) (A) (A) (A) (A) (A) (A) (A) (A) (A) (A)
                 (A) (A) (A) (A) (A) (A) (A) (A) (A) (A) (A) (A)
                 (A) (A) (A) (A) (A) (A) (A) (A) (A) (A) (A) (A)
                 (A) (A) (A) (A) (A) (A) (A) (A) (A) (A) (A) (A)
                 (A) (A) (A) (A) (A) (A) (A) (A) (A) (A) (A) (A)
                 (A) (A) (A) (A) (A) (A) (A) (A) (A) (A) (A) (A)
                 (A) (A) (A) (A) (A) (A) (A) (A) (A) (A) (A) (A)
                 (A) (A) (A) (A) (A) (A) (A) (A) (A) (A) (A) (A)
                 (A) (A) (A) (A) (A) (A) (A) (A) (A) (A) (A) (A)
                 (A) (A) (A) (A) (A) (A) (A) (A) (A) (A) (A) (A)
                 (A) (A) (A) (A) (A) (A) (A) (A) (A) (A) (A) (A)
                 (A) (A) (A) (A) (A) (A) (A) (A) (A) (A) (A) (A)
                 (A) (A) (A) (A) (A) (A) (A) (A) (A) (A) (A) (A)
                 (A) (A) (A) (A) (A) (A) (A) (A) (A) (A) (A) (A)
                 (A) (A) (A) (A) (A) (A) (A) (A) (A) (A) (A) (A)
    20 initial guesses have been made.
 Convergence on wavefunction:    0.001000000000000
 Davidson Disk Diagonalization:  ConvIn= 1.00D-03 SkipCon=T Conv= 1.00D-03.
 Max sub-space:  2000 roots to seek:    20 dimension of matrix:       549360
 Iteration     1 Dimension    20 NMult     0 NNew     20
 CISAX will form    20 AO SS matrices at one time.
 NMat=    20 NSing=    20 JSym2X= 0.
 FoFJK:  IHMeth= 1 ICntrl=       0 DoSepK=T KAlg= 0 I1Cent=           0 FoldK=F
 IRaf=         1 NMat=      40 IRICut=       1 DoRegI=T DoRafI=F ISym2E= 0 IDoP0=3 IntGTp=3.
 FoFCou: FMM=T IPFlag=           0 FMFlag=      100000 FMFlg1=        2001
         NFxFlg=           0 DoJE=F BraDBF=F KetDBF=F FulRan=T
         wScrn=  0.000000 ICntrl=       500 IOpCl=  0 I1Cent=           0 NGrid=           0
         NMat0=   20 NMatS0=     20 NMatT0=    0 NMatD0=   20 NMtDS0=    0 NMtDT0=    0
 Symmetry not used in FoFCou.
 FMM levels:  10  Number of levels for PrismC:   9
 New state      2 was old state      4
 New state      3 was old state      2
 New state      4 was old state      6
 New state      5 was old state      7
 Excitation Energies [eV] at current iteration:
 Root      1 :     2.238005360875579
 Root      2 :     2.455878498959352
 Root      3 :     2.582101833163190
 Root      4 :     2.615590549223211
 Root      5 :     2.627639682914668
 Root      6 :     2.777504704993564
 Root      7 :     3.022373783290112
 Root      8 :     3.248889691371650
 Root      9 :     3.639637963620890
 Root     10 :     3.673187412818357
 Root     11 :     3.721758108741664
 Root     12 :     3.752967316030445
 Root     13 :     4.134031591368266
 Root     14 :     4.236138080539705
 Root     15 :     4.382160317838353
 Root     16 :     4.384442564102909
 Root     17 :     4.469997215098855
 Root     18 :     4.501354156614113
 Root     19 :     4.638330758654537
 Root     20 :     4.757342490750599
 Iteration     2 Dimension    30 NMult    20 NNew     10
 CISAX will form    10 AO SS matrices at one time.
 NMat=    10 NSing=    10 JSym2X= 0.
 New state      1 was old state      3
 Root      1 not converged, maximum delta is    0.242166975914249
 New state      2 was old state      4
 Root      2 not converged, maximum delta is    0.131569784480174
 New state      3 was old state      1
 Root      3 not converged, maximum delta is    0.045523137680066
 New state      4 was old state      5
 Root      4 not converged, maximum delta is    0.126073993063778
 New state      5 was old state      2
 Root      5 not converged, maximum delta is    0.016607290879241
 Excitation Energies [eV] at current iteration:
 Root      1 :     1.758914888666069   Change is   -0.823186944497121
 Root      2 :     2.226904407407730   Change is   -0.388686141815481
 Root      3 :     2.236704722221798   Change is   -0.001300638653781
 Root      4 :     2.246008216987847   Change is   -0.381631465926821
 Root      5 :     2.454138924669188   Change is   -0.001739574290164
 Iteration     3 Dimension    40 NMult    30 NNew     10
 CISAX will form    10 AO SS matrices at one time.
 NMat=    10 NSing=    10 JSym2X= 0.
 Root      1 not converged, maximum delta is    0.054293361399242
 No map to state      2
 New state      3 was old state      2
 Root      3 not converged, maximum delta is    0.041702710902473
 Root      4 not converged, maximum delta is    0.065485019261003
 New state      5 was old state      3
 Root      5 not converged, maximum delta is    0.055432131399453
 Excitation Energies [eV] at current iteration:
 Root      1 :     1.656580488945244   Change is   -0.102334399720824
 Root      2 :     1.806167359434656
 Root      3 :     2.188740926763571   Change is   -0.038163480644160
 Root      4 :     2.207666676869737   Change is   -0.038341540118110
 Root      5 :     2.236790169069235   Change is    0.000085446847437
 Iteration     4 Dimension    50 NMult    40 NNew     10
 CISAX will form    10 AO SS matrices at one time.
 NMat=    10 NSing=    10 JSym2X= 0.
 Root      1 not converged, maximum delta is    0.009937136231310
 Root      2 not converged, maximum delta is    0.028410415967804
 Root      3 not converged, maximum delta is    0.008432228903276
 Root      4 not converged, maximum delta is    0.008894180757251
 Root      5 not converged, maximum delta is    0.003441417791059
 Excitation Energies [eV] at current iteration:
 Root      1 :     1.640306811200129   Change is   -0.016273677745115
 Root      2 :     1.726911898681609   Change is   -0.079255460753047
 Root      3 :     2.182163533687347   Change is   -0.006577393076224
 Root      4 :     2.200081304920467   Change is   -0.007585371949270
 Root      5 :     2.236777656868431   Change is   -0.000012512200804
 Iteration     5 Dimension    60 NMult    50 NNew     10
 CISAX will form    10 AO SS matrices at one time.
 NMat=    10 NSing=    10 JSym2X= 0.
 Root      1 not converged, maximum delta is    0.001410363023164
 Root      2 not converged, maximum delta is    0.014166073708618
 Root      3 not converged, maximum delta is    0.002471137181336
 Root      4 not converged, maximum delta is    0.002425248297289
 Root      5 has converged.
 Excitation Energies [eV] at current iteration:
 Root      1 :     1.638655750087655   Change is   -0.001651061112474
 Root      2 :     1.712927141001481   Change is   -0.013984757680128
 Root      3 :     2.181342142400289   Change is   -0.000821391287057
 Root      4 :     2.199222580595554   Change is   -0.000858724324912
 Root      5 :     2.236776213601157   Change is   -0.000001443267274
 Iteration     6 Dimension    68 NMult    60 NNew      8
 CISAX will form     8 AO SS matrices at one time.
 NMat=     8 NSing=     8 JSym2X= 0.
 Root      1 has converged.
 Root      2 not converged, maximum delta is    0.001417023458180
 Root      3 has converged.
 Root      4 has converged.
 Root      5 has converged.
 Excitation Energies [eV] at current iteration:
 Root      1 :     1.638423032317348   Change is   -0.000232717770307
 Root      2 :     1.711882559464760   Change is   -0.001044581536720
 Root      3 :     2.181227461520226   Change is   -0.000114680880063
 Root      4 :     2.199097516083711   Change is   -0.000125064511843
 Root      5 :     2.236776077163194   Change is   -0.000000136437963
 Iteration     7 Dimension    70 NMult    68 NNew      2
 CISAX will form     2 AO SS matrices at one time.
 NMat=     2 NSing=     2 JSym2X= 0.
 Root      1 has converged.
 Root      2 has converged.
 Root      3 has converged.
 Root      4 has converged.
 Root      5 has converged.
 Excitation Energies [eV] at current iteration:
 Root      1 :     1.638422988915610   Change is   -0.000000043401738
 Root      2 :     1.711753607205485   Change is   -0.000128952259275
[...]
 Alpha virt. eigenvalues --    1.83789   1.83863   1.84052   1.84159   1.84416
 Alpha virt. eigenvalues --    1.84673   1.84796   1.84874   1.85038   1.85340
 Alpha virt. eigenvalues --    1.85407   1.85556   1.85618   1.85682   1.85767
 Alpha virt. eigenvalues --    1.86076   1.86317   1.86370   1.86615   1.86651
 Alpha virt. eigenvalues --    1.86978   1.87134   1.87216   1.87261   1.87353
 Alpha virt. eigenvalues --    1.87565   1.87668   1.87881   1.87980   1.88116
 Alpha virt. eigenvalues --    1.88234   1.88375   1.88517   1.88642   1.88774
 Alpha virt. eigenvalues --    1.89205   1.89467   1.89543   1.89722   1.89928
 Alpha virt. eigenvalues --    1.89965   1.90155   1.90320   1.90658   1.90782
 Alpha virt. eigenvalues --    1.91072   1.91391   1.91567   1.91662   1.92072
 Alpha virt. eigenvalues --    1.92176   1.92607   1.92646   1.92869   1.93139
 Alpha virt. eigenvalues --    1.93305   1.93598   1.93821   1.94054   1.94549
 Alpha virt. eigenvalues --    1.94650   1.94977   1.95069   1.95632   1.95758
 Alpha virt. eigenvalues --    1.95837   1.95987   1.96313   1.96352   1.96397
 Alpha virt. eigenvalues --    1.96659   1.96896   1.97023   1.97397   1.97582
 Alpha virt. eigenvalues --    1.97780   1.97889   1.98086   1.98174   1.98469
 Alpha virt. eigenvalues --    1.98663   1.98911   1.99055   1.99187   1.99641
 Alpha virt. eigenvalues --    1.99864   2.00629   2.00916   2.01033   2.01115
 Alpha virt. eigenvalues --    2.01459   2.01615   2.01742   2.01819   2.01946
 Alpha virt. eigenvalues --    2.02679   2.02729   2.02867   2.03147   2.03359
 Alpha virt. eigenvalues --    2.03434   2.03448   2.03809   2.03998   2.04241
 Alpha virt. eigenvalues --    2.04768   2.04929   2.05224   2.05610   2.05798
 Alpha virt. eigenvalues --    2.06153   2.06452   2.06892   2.07113   2.07275
 Alpha virt. eigenvalues --    2.07495   2.07788   2.08786   2.08864   2.08944
 Alpha virt. eigenvalues --    2.09245   2.09575   2.09867   2.10755   2.11137
 Alpha virt. eigenvalues --    2.11237   2.11538   2.11673   2.11770   2.11894
 Alpha virt. eigenvalues --    2.12227   2.12492   2.12669   2.12832   2.12958
 Alpha virt. eigenvalues --    2.13274   2.13575   2.13748   2.14487   2.14709
 Alpha virt. eigenvalues --    2.15016   2.15605   2.15761   2.15889   2.16405
 Alpha virt. eigenvalues --    2.16642   2.16862   2.17297   2.17431   2.17652
 Alpha virt. eigenvalues --    2.17845   2.17879   2.18061   2.18333   2.18505
 Alpha virt. eigenvalues --    2.18788   2.19068   2.19321   2.19747   2.19907
 Alpha virt. eigenvalues --    2.19963   2.20101   2.20612   2.20843   2.21075
 Alpha virt. eigenvalues --    2.21401   2.21684   2.21962   2.22047   2.22103
 Alpha virt. eigenvalues --    2.22369   2.23120   2.23196   2.23628   2.24529
 Alpha virt. eigenvalues --    2.24654   2.25001   2.25227   2.26158   2.26343
 Alpha virt. eigenvalues --    2.26759   2.27053   2.27208   2.27575   2.28095
 Alpha virt. eigenvalues --    2.28849   2.29273   2.29498   2.29703   2.29967
 Alpha virt. eigenvalues --    2.30398   2.30753   2.31027   2.31163   2.31367
 Alpha virt. eigenvalues --    2.31503   2.31932   2.32531   2.33096   2.33264
 Alpha virt. eigenvalues --    2.33501   2.33635   2.34120   2.34259   2.34559
 Alpha virt. eigenvalues --    2.35468   2.35625   2.35750   2.36470   2.36568
 Alpha virt. eigenvalues --    2.36594   2.36642   2.37383   2.37855   2.38243
 Alpha virt. eigenvalues --    2.38647   2.38675   2.38837   2.39585   2.39928
 Alpha virt. eigenvalues --    2.39998   2.40377   2.40454   2.40471   2.41010
 Alpha virt. eigenvalues --    2.41314   2.41679   2.41888   2.41999   2.42339
 Alpha virt. eigenvalues --    2.42763   2.43018   2.43164   2.43224   2.43665
 Alpha virt. eigenvalues --    2.44203   2.44423   2.44705   2.44898   2.45183
 Alpha virt. eigenvalues --    2.45414   2.45612   2.46148   2.46305   2.46449
 Alpha virt. eigenvalues --    2.46609   2.46746   2.46796   2.47017   2.47275
 Alpha virt. eigenvalues --    2.47559   2.47981   2.48202   2.49497   2.49707
 Alpha virt. eigenvalues --    2.50053   2.50189   2.50717   2.50937   2.51141
 Alpha virt. eigenvalues --    2.51516   2.51888   2.52002   2.52468   2.52635
 Alpha virt. eigenvalues --    2.52966   2.53487   2.53972   2.54186   2.54255
 Alpha virt. eigenvalues --    2.54553   2.54988   2.55068   2.55511   2.55979
 Alpha virt. eigenvalues --    2.57844   2.58342   2.58597   2.59286   2.60160
 Alpha virt. eigenvalues --    2.60546   2.60592   2.61146   2.61707   2.62170
 Alpha virt. eigenvalues --    2.62465   2.62733   2.62914   2.63394   2.63710
 Alpha virt. eigenvalues --    2.63875   2.64588   2.64754   2.65195   2.65359
 Alpha virt. eigenvalues --    2.65791   2.66099   2.66796   2.66856   2.67142
 Alpha virt. eigenvalues --    2.67336   2.67930   2.68262   2.68893   2.69004
 Alpha virt. eigenvalues --    2.69114   2.69244   2.69345   2.69961   2.70033
 Alpha virt. eigenvalues --    2.70369   2.70962   2.71284   2.72044   2.72113
 Alpha virt. eigenvalues --    2.72592   2.72662   2.72846   2.72992   2.73269
 Alpha virt. eigenvalues --    2.73480   2.73549   2.73638   2.74518   2.74706
 Alpha virt. eigenvalues --    2.74927   2.75247   2.76474   2.76840   2.77173
 Alpha virt. eigenvalues --    2.77275   2.77441   2.77880   2.78217   2.78579
 Alpha virt. eigenvalues --    2.78693   2.78882   2.79101   2.79432   2.80330
 Alpha virt. eigenvalues --    2.80523   2.80568   2.80880   2.81050   2.81345
 Alpha virt. eigenvalues --    2.81880   2.82179   2.82278   2.82510   2.83697
 Alpha virt. eigenvalues --    2.83757   2.84056   2.84107   2.84487   2.84711
 Alpha virt. eigenvalues --    2.84926   2.85080   2.85696   2.85919   2.86829
 Alpha virt. eigenvalues --    2.87035   2.87387   2.87645   2.88147   2.88435
 Alpha virt. eigenvalues --    2.88516   2.88731   2.88999   2.89137   2.90458
 Alpha virt. eigenvalues --    2.90916   2.91194   2.91776   2.93108   2.93587
 Alpha virt. eigenvalues --    2.93992   2.94188   2.94629   2.94873   2.95385
 Alpha virt. eigenvalues --    2.95778   2.96055   2.96313   2.96694   2.96976
 Alpha virt. eigenvalues --    2.97039   2.97442   2.97821   2.98191   2.98254
 Alpha virt. eigenvalues --    2.98333   2.98535   2.98732   2.98770   2.98860
 Alpha virt. eigenvalues --    2.99027   2.99475   2.99891   2.99976   3.00129
 Alpha virt. eigenvalues --    3.00203   3.00411   3.00538   3.01032   3.01261
 Alpha virt. eigenvalues --    3.01866   3.02038   3.02217   3.02554   3.02765
 Alpha virt. eigenvalues --    3.02948   3.03073   3.03350   3.03787   3.04030
 Alpha virt. eigenvalues --    3.04276   3.04432   3.04474   3.04762   3.05207
 Alpha virt. eigenvalues --    3.05238   3.05581   3.05931   3.06393   3.06712
 Alpha virt. eigenvalues --    3.07194   3.07808   3.08094   3.08520   3.09366
 Alpha virt. eigenvalues --    3.09655   3.09792   3.10404   3.10987   3.11255
 Alpha virt. eigenvalues --    3.11489   3.11783   3.11910   3.12007   3.12527
 Alpha virt. eigenvalues --    3.12961   3.13284   3.13714   3.13893   3.14106
 Alpha virt. eigenvalues --    3.14267   3.14624   3.16084   3.16161   3.17235
 Alpha virt. eigenvalues --    3.17706   3.18121   3.18141   3.19122   3.19253
 Alpha virt. eigenvalues --    3.22304   3.22747   3.23876   3.24614   3.24632
 Alpha virt. eigenvalues --    3.25371   3.26431   3.26850   3.27562   3.27596
 Alpha virt. eigenvalues --    3.29119   3.29360   3.31470   3.31594   3.33357
 Alpha virt. eigenvalues --    3.33384   3.40377   3.40657   3.42804   3.43068
 Alpha virt. eigenvalues --    3.48585   3.48885   3.49951   3.50497   3.51057
 Alpha virt. eigenvalues --    3.51420   3.56498   3.57212   3.59028   3.59528
 Alpha virt. eigenvalues --    3.62703   3.62781   3.66210   3.66390   3.67199
 Alpha virt. eigenvalues --    3.67673   3.73261   3.74171   3.76028   3.76838
          Condensed to atoms (all electrons):
 Mulliken charges:
               1
     1  Mg   0.838563
     2  C   -0.002148
     3  C   -0.094201
     4  C   -0.046037
     5  C   -0.065801
     6  N   -0.256646
     7  C   -0.052736
     8  C   -0.013965
     9  C   -0.087012
    10  C    0.046477
    11  C    0.104758
    12  C    0.052779
    13  C   -0.072167
    14  H    0.037057
    15  N   -0.433423
    16  C    0.169029
    17  C   -0.176893
    18  C   -0.003161
    19  C    0.149373
    20  C    0.110237
    21  C    0.013441
    22  O   -0.248284
    23  C    0.062134
    24  N   -0.341078
    25  C    0.041122
    26  C   -0.029702
    27  C   -0.024528
    28  C    0.074555
    29  C    0.076574
    30  C    0.069162
    31  C   -0.041754
    32  N   -0.310237
    33  C    0.079581
    34  C   -0.171765
    35  C    0.008191
    36  C    0.082817
    37  C    0.127744
    38  C    0.045750
    39  O   -0.188915
    40  C   -0.005185
    41  C    0.212245
    42  O   -0.255782
    43  O   -0.305194
    44  C    0.156961
    45  H   -0.017224
    46  H   -0.016237
    47  H   -0.043119
    48  H    0.001244
    49  H   -0.004062
    50  H    0.025648
    51  H    0.016505
    52  H    0.016945
    53  H    0.010275
    54  H    0.045462
    55  H    0.018179
    56  H    0.017354
    57  H    0.005732
    58  H    0.027522
    59  H    0.039792
    60  H    0.036912
    61  H    0.038326
    62  H    0.031355
    63  H    0.016674
    64  H    0.009427
    65  H    0.023606
    66  H    0.013081
    67  H    0.004685
    68  H    0.003096
    69  H    0.000392
    70  H    0.012231
    71  H    0.017001
    72  H    0.034388
    73  H    0.045772
    74  H    0.007519
    75  H    0.046571
    76  H    0.035219
    77  H    0.042855
    78  H    0.046251
    79  H    0.055904
    80  Mg   0.836629
    81  C   -0.016729
    82  C   -0.087866
    83  C   -0.040860
    84  C   -0.065934
    85  N   -0.254536
    86  C   -0.051052
    87  C   -0.014486
    88  C   -0.071779
    89  C    0.045575
    90  C    0.081756
    91  C    0.063771
    92  C   -0.077422
    93  H    0.034326
    94  N   -0.424460
    95  C    0.163437
    96  C   -0.170921
    97  C   -0.004459
    98  C    0.152512
    99  C    0.097786
   100  C    0.018433
   101  O   -0.252800
   102  C    0.060523
   103  N   -0.350039
   104  C    0.037450
   105  C   -0.020217
   106  C   -0.033928
   107  C    0.088316
   108  C    0.071989
   109  C    0.035092
   110  C   -0.007474
   111  N   -0.323811
   112  C    0.077807
   113  C   -0.164578
   114  C    0.002288
   115  C    0.095440
   116  C    0.131649
   117  C    0.042413
   118  O   -0.188797
   119  C    0.000754
   120  C    0.211000
   121  O   -0.251508
   122  O   -0.305443
   123  C    0.152262
   124  H   -0.019348
   125  H   -0.014283
   126  H   -0.042678
   127  H   -0.001611
   128  H   -0.005367
   129  H    0.032278
   130  H    0.017828
   131  H    0.022461
   132  H    0.013803
   133  H    0.037348
   134  H    0.019622
   135  H    0.019094
   136  H    0.007831
   137  H    0.031231
   138  H    0.038910
   139  H    0.041543
   140  H    0.035622
   141  H    0.032306
   142  H    0.013794
   143  H    0.009882
   144  H    0.023445
   145  H    0.019861
   146  H    0.001885
   147  H    0.005062
   148  H    0.002335
   149  H    0.010875
   150  H    0.017112
   151  H    0.030823
   152  H    0.045506
   153  H    0.007119
   154  H    0.044305
   155  H    0.036254
   156  H    0.043657
   157  H    0.048959
   158  H    0.053209
 Sum of Mulliken charges =  -0.00000
 Mulliken charges with hydrogens summed into heavy atoms:
               1
     1  Mg   0.838563
     2  C   -0.002148
     3  C   -0.111424
     4  C   -0.062274
     5  C   -0.108919
     6  N   -0.256646
     7  C   -0.052736
     8  C   -0.012721
     9  C   -0.091073
    10  C    0.046477
    11  C    0.163856
    12  C    0.108516
    13  C    0.000423
    15  N   -0.433423
    16  C    0.169029
    17  C   -0.176893
    18  C   -0.003161
    19  C    0.149373
    20  C    0.183283
    21  C    0.013441
    22  O   -0.248284
    23  C    0.168727
    24  N   -0.341078
    25  C    0.041122
    26  C   -0.013028
    27  C   -0.015101
    28  C    0.074555
    29  C    0.117946
    30  C    0.072650
    31  C    0.021867
    32  N   -0.310237
    33  C    0.079581
    34  C   -0.171765
    35  C    0.008191
    36  C    0.082817
    37  C    0.227605
    38  C    0.045750
    39  O   -0.188915
    40  C    0.030033
    41  C    0.212245
    42  O   -0.255782
    43  O   -0.305194
    44  C    0.301970
    80  Mg   0.836629
    81  C   -0.016729
    82  C   -0.107214
    83  C   -0.055143
    84  C   -0.108612
    85  N   -0.254536
    86  C   -0.051052
    87  C   -0.016097
    88  C   -0.077146
    89  C    0.045575
    90  C    0.154323
    91  C    0.114922
    92  C   -0.004380
    94  N   -0.424460
    95  C    0.163437
    96  C   -0.170921
    97  C   -0.004459
    98  C    0.152512
    99  C    0.175758
   100  C    0.018433
   101  O   -0.252800
   102  C    0.169994
   103  N   -0.350039
   104  C    0.037450
   105  C   -0.006422
   106  C   -0.024046
   107  C    0.088316
   108  C    0.117181
   109  C    0.042489
   110  C    0.051336
   111  N   -0.323811
   112  C    0.077807
   113  C   -0.164578
   114  C    0.002288
   115  C    0.095440
   116  C    0.228579
   117  C    0.042413
   118  O   -0.188797
   119  C    0.037009
   120  C    0.211000
   121  O   -0.251508
   122  O   -0.305443
   123  C    0.298087
 Electronic spatial extent (au):  <R**2>=          88658.9054
 Charge=             -0.0000 electrons
 Dipole moment (field-independent basis, Debye):
    X=              4.0295    Y=             -1.4803    Z=              0.1043  Tot=              4.2941
 Quadrupole moment (field-independent basis, Debye-Ang):
   XX=           -537.6061   YY=           -532.6273   ZZ=           -450.8329
   XY=            -21.4007   XZ=             58.6412   YZ=             21.4711
 Traceless Quadrupole moment (field-independent basis, Debye-Ang):
   XX=            -30.5840   YY=            -25.6052   ZZ=             56.1892
   XY=            -21.4007   XZ=             58.6412   YZ=             21.4711
 Octapole moment (field-independent basis, Debye-Ang**2):
  XXX=            275.9696  YYY=             43.5047  ZZZ=             75.6867  XYY=             44.4343
  XXY=            -22.0495  XXZ=              2.8211  XZZ=            -46.6169  YZZ=            -27.7683
  YYZ=            -81.0420  XYZ=            -22.4498
 Hexadecapole moment (field-independent basis, Debye-Ang**3):
 XXXX=         -58573.8437 YYYY=         -39525.1037 ZZZZ=         -24084.4689 XXXY=            873.1332
 XXXZ=           2803.1729 YYYX=            458.3260 YYYZ=             85.5570 ZZZX=            227.8217
 ZZZY=           -278.3664 XXYY=         -15375.1493 XXZZ=         -13787.6050 YYZZ=          -9543.6942
 XXYZ=            998.8705 YYXZ=            581.3655 ZZXY=           -615.9973
 N-N= 1.591751479729D+04 E-N=-4.131635379638D+04  KE= 4.028858217021D+03
 Leave Link  601 at Fri Sep  3 13:31:52 2021, MaxMem= 23488102400 cpu:              16.8 elap:               0.8
 (Enter /sw/apps/gaussian-16.0/g16/l9999.exe)
 1\1\GINC-BP1-COMPUTE00097\SP\RCAM-B3LYP TD-FC\def2SVP\C68H72Mg2N8O8\OF
 15641\03-Sep-2021\0\\#p cam-b3lyp/Def2SVP td=(nstates=5)\\TDDFT excite
 d states in gaussian\\0,1\Mg,0,0.,0.,0.\C,0,-0.217,-2.218,2.801\C,0,-1
 .255,2.442,2.026\C,0,-0.245,1.85,-2.564\C,0,0.146,-2.824,-2.037\N,0,-0
 .617,-0.009,2.126\C,0,-0.594,-0.908,3.105\C,0,-0.936,-0.309,4.502\C,0,
 -1.773,0.964,4.032\C,0,-1.155,1.168,2.66\C,0,-3.263,0.685,3.863\C,0,0.
 345,0.11,5.299\C,0,0.124,0.397,6.787\H,0,1.168,0.033,7.733\N,0,-0.185,
 1.961,-0.152\C,0,-0.703,2.8,0.777\C,0,-0.62,4.156,0.193\C,0,-0.187,4.0
 15,-1.225\C,0,-0.214,2.583,-1.38\C,0,-0.887,5.406,0.974\C,0,0.181,5.01
 3,-2.277\O,0,0.303,4.69,-3.508\C,0,0.31,6.414,-1.837\N,0,-0.265,-0.413
 ,-2.029\C,0,-0.279,0.569,-2.937\C,0,-0.196,0.024,-4.332\C,0,0.124,-1.5
 33,-4.18\C,0,0.086,-1.632,-2.635\C,0,-1.451,0.205,-5.197\C,0,1.373,-2.
 07,-4.923\C,0,2.626,-1.49,-4.306\N,0,0.15,-2.144,0.303\C,0,0.173,-3.13
 6,-0.688\C,0,0.173,-4.438,0.004\C,0,0.133,-4.111,1.358\C,0,0.083,-2.69
 5,1.502\C,0,0.149,-5.715,-0.623\C,0,0.096,-4.629,2.716\O,0,0.208,-5.74
 7,3.221\C,0,-0.255,-3.428,3.701\C,0,0.717,-3.482,4.848\O,0,1.931,-3.25
 5,4.669\O,0,0.038,-3.556,6.003\C,0,0.943,-3.583,7.183\H,0,-1.859,3.22,
 2.497\H,0,-0.218,2.453,-3.474\H,0,0.276,-3.747,-2.605\H,0,-1.554,-0.94
 9,5.132\H,0,-1.585,1.831,4.665\H,0,-3.484,-0.377,3.969\H,0,-3.511,1.02
 7,2.858\H,0,-3.852,1.301,4.543\H,0,0.669,1.096,4.966\H,0,1.13,-0.639,5
 .189\H,0,-0.844,0.026,7.125\H,0,0.062,1.477,6.921\H,0,-1.344,5.186,1.9
 38\H,0,-1.651,5.963,0.432\H,0,0.007,6.02,1.084\H,0,-0.635,6.744,-1.405
 \H,0,0.665,6.97,-2.704\H,0,1.048,6.466,-1.036\H,0,0.608,0.501,-4.891\H
 ,0,-0.692,-2.156,-4.547\H,0,-1.267,0.74,-6.129\H,0,-2.204,0.714,-4.596
 \H,0,-1.967,-0.72,-5.453\H,0,1.356,-1.759,-5.967\H,0,1.452,-3.157,-4.9
 02\H,0,2.714,-0.522,-4.798\H,0,3.487,-2.121,-4.529\H,0,2.495,-1.303,-3
 .24\H,0,0.867,-6.333,-0.084\H,0,0.404,-5.642,-1.68\H,0,-0.891,-5.999,-
 0.463\H,0,-1.283,-3.581,4.028\H,0,0.698,-4.478,7.755\H,0,0.833,-2.619,
 7.68\H,0,2.,-3.754,6.976\Mg,0,7.89124,0.70478,0.59409\C,0,7.79449,2.21
 823,-2.65847\C,0,7.39555,-2.29532,-0.95133\C,0,7.52177,-0.59946,3.4628
 7\C,0,7.23699,3.85737,1.92781\N,0,7.64304,0.16041,-1.5353\C,0,7.68585,
 0.81224,-2.68753\C,0,7.68865,-0.10047,-3.94312\C,0,6.99146,-1.3963,-3.
 29999\C,0,7.39345,-1.19131,-1.84086\C,0,5.4745,-1.3686,-3.38591\C,0,9.
 14,-0.41952,-4.44692\C,0,9.21356,-1.04611,-5.84109\H,0,10.33636,-0.691
 93,-6.70501\N,0,8.00231,-1.19226,1.16635\C,0,7.79339,-2.28584,0.40365\
 C,0,7.9751,-3.44025,1.29723\C,0,8.14612,-2.93554,2.68674\C,0,7.86989,-
 1.52644,2.49123\C,0,8.05404,-4.85295,0.79574\C,0,8.48758,-3.61156,3.98
 003\O,0,8.34938,-3.01752,5.10734\C,0,8.89961,-5.02026,3.89461\N,0,7.23
 61,1.46508,2.41483\C,0,7.22152,0.69822,3.5192\C,0,6.97787,1.52862,4.75
 673\C,0,7.0729,3.05151,4.27781\C,0,7.27542,2.82825,2.76304\C,0,5.63993
 ,1.29886,5.45924\C,0,8.07834,3.96478,5.03127\C,0,9.4945,3.52065,4.7438
 \N,0,7.75253,2.71987,-0.17287\C,0,7.44325,3.89001,0.55458\C,0,7.35293,
 4.99706,-0.41944\C,0,7.59515,4.3851,-1.65853\C,0,7.80054,2.99132,-1.47
 229\C,0,7.03161,6.34968,-0.11401\C,0,7.71326,4.59947,-3.08288\O,0,7.72
 207,5.58843,-3.81473\C,0,7.72237,3.18495,-3.80776\C,0,8.85254,3.17894,
 -4.80033\O,0,10.03304,3.24282,-4.41438\O,0,8.36688,2.88113,-6.01927\C,
 0,9.45182,2.85228,-7.03608\H,0,7.01716,-3.25243,-1.31139\H,0,7.49021,-
 0.97896,4.48681\H,0,7.13354,4.88757,2.27519\H,0,7.09691,0.2668,-4.7730
 1\H,0,7.42591,-2.3131,-3.68999\H,0,5.10938,-0.42396,-3.76074\H,0,5.119
 61,-1.53825,-2.37779\H,0,5.11497,-2.2148,-3.97838\H,0,9.55378,-1.24191
 ,-3.84925\H,0,9.75685,0.45734,-4.41183\H,0,8.2658,-0.95333,-6.38523\H,
 0,9.35447,-2.124,-5.73011\H,0,7.72923,-4.92751,-0.24941\H,0,7.31015,-5
 .43223,1.35334\H,0,9.03833,-5.30025,0.9499\H,0,8.10624,-5.60104,3.4301
 5\H,0,9.18809,-5.30238,4.90904\H,0,9.76999,-5.09068,3.23274\H,0,7.7426
 5,1.34612,5.50165\H,0,6.1126,3.57542,4.39261\H,0,5.74887,1.00561,6.520
 47\H,0,5.09147,0.54466,4.91069\H,0,4.95511,2.14485,5.43646\H,0,7.93747
 ,3.87314,6.11104\H,0,7.97817,5.01576,4.78148\H,0,9.64632,2.70389,5.455
 8\H,0,10.1947,4.33441,4.92145\H,0,9.57761,3.09869,3.73549\H,0,7.71503,
 6.9677,-0.68101\H,0,7.10947,6.54554,0.95339\H,0,5.99655,6.38807,-0.463
 95\H,0,6.7527,3.05807,-4.2907\H,0,9.1638,3.54781,-7.83042\H,0,9.5704,1
 .78873,-7.31634\H,0,10.41879,3.24824,-6.74861\\Version=ES64L-G16RevA.0
 3\State=1-A\HF=-4069.8037484\RMSD=7.011e-09\PG=C01 [X(C68H72Mg2N8O8)]\
 \@


 FIREWORKS ENDED
 AND SPECTATORS GONE AWAY....
 AH, HOW VAST AND DARK
                     SHIKI
 Job cpu time:       0 days 15 hours 34 minutes 52.9 seconds.
 Elapsed time:       0 days  0 hours 39 minutes 37.2 seconds.
 File lengths (MBytes):  RWF=  13225 Int=      0 D2E=      0 Chk=    574 Scr=      1
 Normal termination of Gaussian 16 at Fri Sep  3 13:31:53 2021.
