 Entering Gaussian System, Link 0=g16
 Initial command:
 /sw/apps/gaussian-16.0/g16/l1.exe "/tmp/Gau-180317.inp" -scrdir="/tmp/"
 Entering Link 1 = /sw/apps/gaussian-16.0/g16/l1.exe PID=    180318.
  
 Copyright (c) 1988,1990,1992,1993,1995,1998,2003,2009,2016,
            Gaussian, Inc.  All Rights Reserved.
  
 This is part of the Gaussian(R) 16 program.  It is based on
 the Gaussian(R) 09 system (copyright 2009, Gaussian, Inc.),
 the Gaussian(R) 03 system (copyright 2003, Gaussian, Inc.),
 the Gaussian(R) 98 system (copyright 1998, Gaussian, Inc.),
 the Gaussian(R) 94 system (copyright 1995, Gaussian, Inc.),
 the Gaussian 92(TM) system (copyright 1992, Gaussian, Inc.),
 the Gaussian 90(TM) system (copyright 1990, Gaussian, Inc.),
 the Gaussian 88(TM) system (copyright 1988, Gaussian, Inc.),
 the Gaussian 86(TM) system (copyright 1986, Carnegie Mellon
 University), and the Gaussian 82(TM) system (copyright 1983,
 Carnegie Mellon University). Gaussian is a federally registered
 trademark of Gaussian, Inc.
  
 This software contains proprietary and confidential information,
 including trade secrets, belonging to Gaussian, Inc.
  
 This software is provided under written license and may be
 used, copied, transmitted, or stored only in accord with that
 written license.
  
 The following legend is applicable only to US Government
 contracts under FAR:
  
                    RESTRICTED RIGHTS LEGEND
  
 Use, reproduction and disclosure by the US Government is
 subject to restrictions as set forth in subparagraphs (a)
 and (c) of the Commercial Computer Software - Restricted
 Rights clause in FAR 52.227-19.
  
 Gaussian, Inc.
 340 Quinnipiac St., Bldg. 40, Wallingford CT 06492
  
  
 ---------------------------------------------------------------
 Warning -- This program may not be used in any manner that
 competes with the business of Gaussian, Inc. or will provide
 assistance to any competitor of Gaussian, Inc.  The licensee
 of this program is prohibited from giving any competitor of
 Gaussian, Inc. access to this program.  By using this program,
 the user acknowledges that Gaussian, Inc. is engaged in the
 business of creating and licensing software in the field of
 computational chemistry and represents and warrants to the
 licensee that it is not a competitor of Gaussian, Inc. and that
 it will not use this program in any manner prohibited above.
 ---------------------------------------------------------------
  

 Cite this work as:
 Gaussian 16, Revision A.03,
 M. J. Frisch, G. W. Trucks, H. B. Schlegel, G. E. Scuseria, 
 M. A. Robb, J. R. Cheeseman, G. Scalmani, V. Barone, 
 G. A. Petersson, H. Nakatsuji, X. Li, M. Caricato, A. V. Marenich, 
 J. Bloino, B. G. Janesko, R. Gomperts, B. Mennucci, H. P. Hratchian, 
 J. V. Ortiz, A. F. Izmaylov, J. L. Sonnenberg, D. Williams-Young, 
 F. Ding, F. Lipparini, F. Egidi, J. Goings, B. Peng, A. Petrone, 
 T. Henderson, D. Ranasinghe, V. G. Zakrzewski, J. Gao, N. Rega, 
 G. Zheng, W. Liang, M. Hada, M. Ehara, K. Toyota, R. Fukuda, 
 J. Hasegawa, M. Ishida, T. Nakajima, Y. Honda, O. Kitao, H. Nakai, 
 T. Vreven, K. Throssell, J. A. Montgomery, Jr., J. E. Peralta, 
 F. Ogliaro, M. J. Bearpark, J. J. Heyd, E. N. Brothers, K. N. Kudin, 
 V. N. Staroverov, T. A. Keith, R. Kobayashi, J. Normand, 
 K. Raghavachari, A. P. Rendell, J. C. Burant, S. S. Iyengar, 
 J. Tomasi, M. Cossi, J. M. Millam, M. Klene, C. Adamo, R. Cammi, 
 J. W. Ochterski, R. L. Martin, K. Morokuma, O. Farkas, 
 J. B. Foresman, and D. J. Fox, Gaussian, Inc., Wallingford CT, 2016.
 
 ******************************************
 Gaussian 16:  ES64L-G16RevA.03 25-Dec-2016
                12-Sep-2021 
 ******************************************
 %nproc=24
 Will use up to   24 processors via shared memory.
 %mem=175gb
 -----------------------------------
 #p cam-b3lyp/Def2SVP td=(nstates=5)
 -----------------------------------
 1/38=1,172=1/1;
 2/12=2,17=6,18=5,40=1/2;
 3/5=43,7=101,11=9,25=1,30=1,74=-40/1,2,3,8;
 4//1;
 5/5=2,38=5/2;
 8/6=1,10=1,108=5/1;
 9/41=5,42=1,70=2/14;
 6/7=2,8=2,9=2,10=2/1;
 99/5=1,9=1/99;
 Leave Link    1 at Sun Sep 12 15:55:08 2021, MaxMem= 23488102400 cpu:               0.9 elap:               0.0
 (Enter /sw/apps/gaussian-16.0/g16/l101.exe)
 --------------------------------
 TDDFT excited states in gaussian
 --------------------------------
 Symbolic Z-matrix:
 Charge =  0 Multiplicity = 1
 Mg                    0.        0.        0. 
 C                    -0.217    -2.218     2.801 
 C                    -1.255     2.442     2.026 
 C                    -0.245     1.85     -2.564 
 C                     0.146    -2.824    -2.037 
 N                    -0.617    -0.009     2.126 
 C                    -0.594    -0.908     3.105 
 C                    -0.936    -0.309     4.502 
 C                    -1.773     0.964     4.032 
 C                    -1.155     1.168     2.66 
 C                    -3.263     0.685     3.863 
 C                     0.345     0.11      5.299 
 C                     0.124     0.397     6.787 
 H                     1.168     0.033     7.733 
 N                    -0.185     1.961    -0.152 
 C                    -0.703     2.8       0.777 
 C                    -0.62      4.156     0.193 
 C                    -0.187     4.015    -1.225 
 C                    -0.214     2.583    -1.38 
 C                    -0.887     5.406     0.974 
 C                     0.181     5.013    -2.277 
 O                     0.303     4.69     -3.508 
 C                     0.31      6.414    -1.837 
 N                    -0.265    -0.413    -2.029 
 C                    -0.279     0.569    -2.937 
 C                    -0.196     0.024    -4.332 
 C                     0.124    -1.533    -4.18 
 C                     0.086    -1.632    -2.635 
 C                    -1.451     0.205    -5.197 
 C                     1.373    -2.07     -4.923 
 C                     2.626    -1.49     -4.306 
 N                     0.15     -2.144     0.303 
 C                     0.173    -3.136    -0.688 
 C                     0.173    -4.438     0.004 
 C                     0.133    -4.111     1.358 
 C                     0.083    -2.695     1.502 
 C                     0.149    -5.715    -0.623 
 C                     0.096    -4.629     2.716 
 O                     0.208    -5.747     3.221 
 C                    -0.255    -3.428     3.701 
 C                     0.717    -3.482     4.848 
 O                     1.931    -3.255     4.669 
 O                     0.038    -3.556     6.003 
 C                     0.943    -3.583     7.183 
 H                    -1.859     3.22      2.497 
 H                    -0.218     2.453    -3.474 
 H                     0.276    -3.747    -2.605 
 H                    -1.554    -0.949     5.132 
 H                    -1.585     1.831     4.665 
 H                    -3.484    -0.377     3.969 
 H                    -3.511     1.027     2.858 
 H                    -3.852     1.301     4.543 
 H                     0.669     1.096     4.966 
 H                     1.13     -0.639     5.189 
 H                    -0.844     0.026     7.125 
 H                     0.062     1.477     6.921 
 H                    -1.344     5.186     1.938 
 H                    -1.651     5.963     0.432 
 H                     0.007     6.02      1.084 
 H                    -0.635     6.744    -1.405 
 H                     0.665     6.97     -2.704 
 H                     1.048     6.466    -1.036 
 H                     0.608     0.501    -4.891 
 H                    -0.692    -2.156    -4.547 
 H                    -1.267     0.74     -6.129 
 H                    -2.204     0.714    -4.596 
 H                    -1.967    -0.72     -5.453 
 H                     1.356    -1.759    -5.967 
 H                     1.452    -3.157    -4.902 
 H                     2.714    -0.522    -4.798 
 H                     3.487    -2.121    -4.529 
 H                     2.495    -1.303    -3.24 
 H                     0.867    -6.333    -0.084 
 H                     0.404    -5.642    -1.68 
 H                    -0.891    -5.999    -0.463 
 H                    -1.283    -3.581     4.028 
 H                     0.698    -4.478     7.755 
 H                     0.833    -2.619     7.68 
 H                     2.       -3.754     6.976 
 Mg                    31.53607   2.83253   2.40312 
 C                     28.84348   3.10455   4.76003 
 C                     33.58173   4.10002   4.82042 
 C                     33.82977   3.02876   0.21957 
 C                     29.13194   2.68382  -0.11556 
 N                     31.14586   3.47971   4.48185 
 C                     30.09598   3.47935   5.28938 
 C                     30.4208   3.8276    6.7668 
 C                     31.77426   4.65775   6.52621 
 C                     32.22146   4.02063   5.21214 
 C                     31.53659   6.13876   6.2824 
 C                     30.67845   2.54929   7.63948 
 C                     30.69604   2.79458   9.14987 
 H                     30.15904   1.75988   10.02935 
 N                     33.5019   3.00078   2.61707 
 C                     34.16417   3.51863   3.67278 
 C                     35.59292   3.43243   3.33308 
 C                     35.71284   2.97314   1.92262 
 C                     34.32214   3.00371   1.51629 
 C                     36.68372   3.69353   4.33078 
 C                     36.88645   2.58456   1.07536 
 O                     36.78362   2.44624  -0.19473 
 C                     38.17986   2.46199   1.76351 
 N                     31.50018   3.06637   0.3376 
 C                     32.63861   3.0678   -0.37787 
 C                     32.35304   2.97167  -1.8576 
 C                     30.78869   2.66042  -1.97391 
 C                     30.40665   2.72154  -0.47869 
 C                     32.68695   4.21496  -2.6817 
 C                     30.37993   1.40392  -2.79049 
 C                     30.83395   0.15257  -2.07399 
 N                     29.38156   2.69663   2.31551 
 C                     28.5748   2.67288   1.15678 
 C                     27.16747   2.69067   1.60569 
 C                     27.25387   2.74723   3.00492 
 C                     28.61862   2.78392   3.39937 
 C                     26.02402   2.70434   0.75807 
 C                     26.5008   2.79495   4.23752 
 O                     25.30963   2.70418   4.53183 
 C                     27.49532   3.15608   5.42366 
 C                     27.23462   2.20046   6.55562 
 O                     27.47016   0.98637   6.42478 
 O                     26.9584   2.90217   7.66992 
 C                     26.70338   1.99826   8.82307 
 H                     34.26193   4.69945   5.42614 
 H                     34.5821   2.98511  -0.57136 
 H                     28.32374   2.54061  -0.83596 
 H                     29.6844   4.45156   7.2589 
 H                     32.50118   4.46403   7.31069 
 H                     30.48524   6.36882   6.1936 
 H                     32.05404   6.37197   5.36104 
 H                     32.0249   6.73206   7.06078 
 H                     31.71401   2.21714   7.491 
 H                     29.96856   1.77958   7.40663 
 H                     30.28197   3.77552   9.413 
 H                     31.7361   2.84508   9.48114 
 H                     36.29344   4.1721    5.23746 
 H                     37.34657   4.44614   3.89023 
 H                     37.26738   2.79951   4.56038 
 H                     38.42765   3.40856   2.23793 
 H                     38.87748   2.09035   1.01045 
 H                     38.08003   1.72383   2.56711 
 H                     32.90778   2.15684  -2.30638 
 H                     30.24633   3.47838  -2.47052 
 H                     33.39242   4.01322  -3.50976 
 H                     33.08719   4.96824  -2.01618 
 H                     31.82913   4.72412  -3.11769 
 H                     30.88043   1.40425  -3.76191 
 H                     29.31332   1.33867  -2.97778 
 H                     31.87959   0.05762  -2.38173 
 H                     30.24843  -0.70654  -2.39512 
 H                     30.82185   0.29502  -0.98715 
 H                     25.31513   2.00453   1.18024 
 H                     26.28411   2.43969  -0.26471 
 H                     25.72713   3.75269   0.84796 
 H                     27.30275   4.19101   5.70902 
 H                     25.71879   2.26014   9.22266 
 H                     27.57062   2.1235    9.49832 
 H                     26.57272   0.94307   8.61344 
 
 ITRead=  0  0  0  0  0  0  0  0  0  0  0  0  0  0  0  0  0  0  0  0
 ITRead=  0  0  0  0  0  0  0  0  0  0  0  0  0  0  0  0  0  0  0  0
 ITRead=  0  0  0  0  0  0  0  0  0  0  0  0  0  0  0  0  0  0  0  0
 ITRead=  0  0  0  0  0  0  0  0  0  0  0  0  0  0  0  0  0  0  0  0
 ITRead=  0  0  0  0  0  0  0  0  0  0  0  0  0  0  0  0  0  0  0  0
 ITRead=  0  0  0  0  0  0  0  0  0  0  0  0  0  0  0  0  0  0  0  0
 ITRead=  0  0  0  0  0  0  0  0  0  0  0  0  0  0  0  0  0  0  0  0
 ITRead=  0  0  0  0  0  0  0  0  0  0  0  0  0  0  0  0  0  0
 MicOpt= -1 -1 -1 -1 -1 -1 -1 -1 -1 -1 -1 -1 -1 -1 -1 -1 -1 -1 -1 -1
 MicOpt= -1 -1 -1 -1 -1 -1 -1 -1 -1 -1 -1 -1 -1 -1 -1 -1 -1 -1 -1 -1
 MicOpt= -1 -1 -1 -1 -1 -1 -1 -1 -1 -1 -1 -1 -1 -1 -1 -1 -1 -1 -1 -1
 MicOpt= -1 -1 -1 -1 -1 -1 -1 -1 -1 -1 -1 -1 -1 -1 -1 -1 -1 -1 -1 -1
 MicOpt= -1 -1 -1 -1 -1 -1 -1 -1 -1 -1 -1 -1 -1 -1 -1 -1 -1 -1 -1 -1
 MicOpt= -1 -1 -1 -1 -1 -1 -1 -1 -1 -1 -1 -1 -1 -1 -1 -1 -1 -1 -1 -1
 MicOpt= -1 -1 -1 -1 -1 -1 -1 -1 -1 -1 -1 -1 -1 -1 -1 -1 -1 -1 -1 -1
 MicOpt= -1 -1 -1 -1 -1 -1 -1 -1 -1 -1 -1 -1 -1 -1 -1 -1 -1 -1
 NAtoms=    158 NQM=      158 NQMF=       0 NMMI=      0 NMMIF=      0
                NMic=       0 NMicF=      0.
                    Isotopes and Nuclear Properties:
 (Nuclear quadrupole moments (NQMom) in fm**2, nuclear magnetic moments (NMagM)
  in nuclear magnetons)

  Atom         1           2           3           4           5           6           7           8           9          10
 IAtWgt=          24          12          12          12          12          14          12          12          12          12
 AtmWgt=  23.9850450  12.0000000  12.0000000  12.0000000  12.0000000  14.0030740  12.0000000  12.0000000  12.0000000  12.0000000
 NucSpn=           0           0           0           0           0           2           0           0           0           0
 AtZEff=  -0.0000000  -0.0000000  -0.0000000  -0.0000000  -0.0000000  -0.0000000  -0.0000000  -0.0000000  -0.0000000  -0.0000000
 NQMom=    0.0000000   0.0000000   0.0000000   0.0000000   0.0000000   2.0440000   0.0000000   0.0000000   0.0000000   0.0000000
 NMagM=    0.0000000   0.0000000   0.0000000   0.0000000   0.0000000   0.4037610   0.0000000   0.0000000   0.0000000   0.0000000
 AtZNuc=  12.0000000   6.0000000   6.0000000   6.0000000   6.0000000   7.0000000   6.0000000   6.0000000   6.0000000   6.0000000

  Atom        11          12          13          14          15          16          17          18          19          20
 IAtWgt=          12          12          12           1          14          12          12          12          12          12
 AtmWgt=  12.0000000  12.0000000  12.0000000   1.0078250  14.0030740  12.0000000  12.0000000  12.0000000  12.0000000  12.0000000
 NucSpn=           0           0           0           1           2           0           0           0           0           0
 AtZEff=  -0.0000000  -0.0000000  -0.0000000  -0.0000000  -0.0000000  -0.0000000  -0.0000000  -0.0000000  -0.0000000  -0.0000000
 NQMom=    0.0000000   0.0000000   0.0000000   0.0000000   2.0440000   0.0000000   0.0000000   0.0000000   0.0000000   0.0000000
 NMagM=    0.0000000   0.0000000   0.0000000   2.7928460   0.4037610   0.0000000   0.0000000   0.0000000   0.0000000   0.0000000
 AtZNuc=   6.0000000   6.0000000   6.0000000   1.0000000   7.0000000   6.0000000   6.0000000   6.0000000   6.0000000   6.0000000

  Atom        21          22          23          24          25          26          27          28          29          30
 IAtWgt=          12          16          12          14          12          12          12          12          12          12
 AtmWgt=  12.0000000  15.9949146  12.0000000  14.0030740  12.0000000  12.0000000  12.0000000  12.0000000  12.0000000  12.0000000
 NucSpn=           0           0           0           2           0           0           0           0           0           0
 AtZEff=  -0.0000000  -0.0000000  -0.0000000  -0.0000000  -0.0000000  -0.0000000  -0.0000000  -0.0000000  -0.0000000  -0.0000000
 NQMom=    0.0000000   0.0000000   0.0000000   2.0440000   0.0000000   0.0000000   0.0000000   0.0000000   0.0000000   0.0000000
 NMagM=    0.0000000   0.0000000   0.0000000   0.4037610   0.0000000   0.0000000   0.0000000   0.0000000   0.0000000   0.0000000
 AtZNuc=   6.0000000   8.0000000   6.0000000   7.0000000   6.0000000   6.0000000   6.0000000   6.0000000   6.0000000   6.0000000

  Atom        31          32          33          34          35          36          37          38          39          40
 IAtWgt=          12          14          12          12          12          12          12          12          16          12
 AtmWgt=  12.0000000  14.0030740  12.0000000  12.0000000  12.0000000  12.0000000  12.0000000  12.0000000  15.9949146  12.0000000
 NucSpn=           0           2           0           0           0           0           0           0           0           0
 AtZEff=  -0.0000000  -0.0000000  -0.0000000  -0.0000000  -0.0000000  -0.0000000  -0.0000000  -0.0000000  -0.0000000  -0.0000000
 NQMom=    0.0000000   2.0440000   0.0000000   0.0000000   0.0000000   0.0000000   0.0000000   0.0000000   0.0000000   0.0000000
 NMagM=    0.0000000   0.4037610   0.0000000   0.0000000   0.0000000   0.0000000   0.0000000   0.0000000   0.0000000   0.0000000
 AtZNuc=   6.0000000   7.0000000   6.0000000   6.0000000   6.0000000   6.0000000   6.0000000   6.0000000   8.0000000   6.0000000

  Atom        41          42          43          44          45          46          47          48          49          50
 IAtWgt=          12          16          16          12           1           1           1           1           1           1
 AtmWgt=  12.0000000  15.9949146  15.9949146  12.0000000   1.0078250   1.0078250   1.0078250   1.0078250   1.0078250   1.0078250
 NucSpn=           0           0           0           0           1           1           1           1           1           1
 AtZEff=  -0.0000000  -0.0000000  -0.0000000  -0.0000000  -0.0000000  -0.0000000  -0.0000000  -0.0000000  -0.0000000  -0.0000000
 NQMom=    0.0000000   0.0000000   0.0000000   0.0000000   0.0000000   0.0000000   0.0000000   0.0000000   0.0000000   0.0000000
 NMagM=    0.0000000   0.0000000   0.0000000   0.0000000   2.7928460   2.7928460   2.7928460   2.7928460   2.7928460   2.7928460
 AtZNuc=   6.0000000   8.0000000   8.0000000   6.0000000   1.0000000   1.0000000   1.0000000   1.0000000   1.0000000   1.0000000

  Atom        51          52          53          54          55          56          57          58          59          60
 IAtWgt=           1           1           1           1           1           1           1           1           1           1
 AtmWgt=   1.0078250   1.0078250   1.0078250   1.0078250   1.0078250   1.0078250   1.0078250   1.0078250   1.0078250   1.0078250
 NucSpn=           1           1           1           1           1           1           1           1           1           1
 AtZEff=  -0.0000000  -0.0000000  -0.0000000  -0.0000000  -0.0000000  -0.0000000  -0.0000000  -0.0000000  -0.0000000  -0.0000000
 NQMom=    0.0000000   0.0000000   0.0000000   0.0000000   0.0000000   0.0000000   0.0000000   0.0000000   0.0000000   0.0000000
 NMagM=    2.7928460   2.7928460   2.7928460   2.7928460   2.7928460   2.7928460   2.7928460   2.7928460   2.7928460   2.7928460
 AtZNuc=   1.0000000   1.0000000   1.0000000   1.0000000   1.0000000   1.0000000   1.0000000   1.0000000   1.0000000   1.0000000

  Atom        61          62          63          64          65          66          67          68          69          70
 IAtWgt=           1           1           1           1           1           1           1           1           1           1
 AtmWgt=   1.0078250   1.0078250   1.0078250   1.0078250   1.0078250   1.0078250   1.0078250   1.0078250   1.0078250   1.0078250
 NucSpn=           1           1           1           1           1           1           1           1           1           1
 AtZEff=  -0.0000000  -0.0000000  -0.0000000  -0.0000000  -0.0000000  -0.0000000  -0.0000000  -0.0000000  -0.0000000  -0.0000000
 NQMom=    0.0000000   0.0000000   0.0000000   0.0000000   0.0000000   0.0000000   0.0000000   0.0000000   0.0000000   0.0000000
 NMagM=    2.7928460   2.7928460   2.7928460   2.7928460   2.7928460   2.7928460   2.7928460   2.7928460   2.7928460   2.7928460
 AtZNuc=   1.0000000   1.0000000   1.0000000   1.0000000   1.0000000   1.0000000   1.0000000   1.0000000   1.0000000   1.0000000

  Atom        71          72          73          74          75          76          77          78          79          80
 IAtWgt=           1           1           1           1           1           1           1           1           1          24
 AtmWgt=   1.0078250   1.0078250   1.0078250   1.0078250   1.0078250   1.0078250   1.0078250   1.0078250   1.0078250  23.9850450
 NucSpn=           1           1           1           1           1           1           1           1           1           0
 AtZEff=  -0.0000000  -0.0000000  -0.0000000  -0.0000000  -0.0000000  -0.0000000  -0.0000000  -0.0000000  -0.0000000  -0.0000000
 NQMom=    0.0000000   0.0000000   0.0000000   0.0000000   0.0000000   0.0000000   0.0000000   0.0000000   0.0000000   0.0000000
 NMagM=    2.7928460   2.7928460   2.7928460   2.7928460   2.7928460   2.7928460   2.7928460   2.7928460   2.7928460   0.0000000
 AtZNuc=   1.0000000   1.0000000   1.0000000   1.0000000   1.0000000   1.0000000   1.0000000   1.0000000   1.0000000  12.0000000

  Atom        81          82          83          84          85          86          87          88          89          90
 IAtWgt=          12          12          12          12          14          12          12          12          12          12
 AtmWgt=  12.0000000  12.0000000  12.0000000  12.0000000  14.0030740  12.0000000  12.0000000  12.0000000  12.0000000  12.0000000
 NucSpn=           0           0           0           0           2           0           0           0           0           0
 AtZEff=  -0.0000000  -0.0000000  -0.0000000  -0.0000000  -0.0000000  -0.0000000  -0.0000000  -0.0000000  -0.0000000  -0.0000000
 NQMom=    0.0000000   0.0000000   0.0000000   0.0000000   2.0440000   0.0000000   0.0000000   0.0000000   0.0000000   0.0000000
 NMagM=    0.0000000   0.0000000   0.0000000   0.0000000   0.4037610   0.0000000   0.0000000   0.0000000   0.0000000   0.0000000
 AtZNuc=   6.0000000   6.0000000   6.0000000   6.0000000   7.0000000   6.0000000   6.0000000   6.0000000   6.0000000   6.0000000

  Atom        91          92          93          94          95          96          97          98          99         100
 IAtWgt=          12          12           1          14          12          12          12          12          12          12
 AtmWgt=  12.0000000  12.0000000   1.0078250  14.0030740  12.0000000  12.0000000  12.0000000  12.0000000  12.0000000  12.0000000
 NucSpn=           0           0           1           2           0           0           0           0           0           0
 AtZEff=  -0.0000000  -0.0000000  -0.0000000  -0.0000000  -0.0000000  -0.0000000  -0.0000000  -0.0000000  -0.0000000  -0.0000000
 NQMom=    0.0000000   0.0000000   0.0000000   2.0440000   0.0000000   0.0000000   0.0000000   0.0000000   0.0000000   0.0000000
 NMagM=    0.0000000   0.0000000   2.7928460   0.4037610   0.0000000   0.0000000   0.0000000   0.0000000   0.0000000   0.0000000
 AtZNuc=   6.0000000   6.0000000   1.0000000   7.0000000   6.0000000   6.0000000   6.0000000   6.0000000   6.0000000   6.0000000

  Atom       101         102         103         104         105         106         107         108         109         110
 IAtWgt=          16          12          14          12          12          12          12          12          12          12
 AtmWgt=  15.9949146  12.0000000  14.0030740  12.0000000  12.0000000  12.0000000  12.0000000  12.0000000  12.0000000  12.0000000
 NucSpn=           0           0           2           0           0           0           0           0           0           0
 AtZEff=  -0.0000000  -0.0000000  -0.0000000  -0.0000000  -0.0000000  -0.0000000  -0.0000000  -0.0000000  -0.0000000  -0.0000000
 NQMom=    0.0000000   0.0000000   2.0440000   0.0000000   0.0000000   0.0000000   0.0000000   0.0000000   0.0000000   0.0000000
 NMagM=    0.0000000   0.0000000   0.4037610   0.0000000   0.0000000   0.0000000   0.0000000   0.0000000   0.0000000   0.0000000
 AtZNuc=   8.0000000   6.0000000   7.0000000   6.0000000   6.0000000   6.0000000   6.0000000   6.0000000   6.0000000   6.0000000

  Atom       111         112         113         114         115         116         117         118         119         120
 IAtWgt=          14          12          12          12          12          12          12          16          12          12
 AtmWgt=  14.0030740  12.0000000  12.0000000  12.0000000  12.0000000  12.0000000  12.0000000  15.9949146  12.0000000  12.0000000
 NucSpn=           2           0           0           0           0           0           0           0           0           0
 AtZEff=  -0.0000000  -0.0000000  -0.0000000  -0.0000000  -0.0000000  -0.0000000  -0.0000000  -0.0000000  -0.0000000  -0.0000000
 NQMom=    2.0440000   0.0000000   0.0000000   0.0000000   0.0000000   0.0000000   0.0000000   0.0000000   0.0000000   0.0000000
 NMagM=    0.4037610   0.0000000   0.0000000   0.0000000   0.0000000   0.0000000   0.0000000   0.0000000   0.0000000   0.0000000
 AtZNuc=   7.0000000   6.0000000   6.0000000   6.0000000   6.0000000   6.0000000   6.0000000   8.0000000   6.0000000   6.0000000

  Atom       121         122         123         124         125         126         127         128         129         130
 IAtWgt=          16          16          12           1           1           1           1           1           1           1
 AtmWgt=  15.9949146  15.9949146  12.0000000   1.0078250   1.0078250   1.0078250   1.0078250   1.0078250   1.0078250   1.0078250
 NucSpn=           0           0           0           1           1           1           1           1           1           1
 AtZEff=  -0.0000000  -0.0000000  -0.0000000  -0.0000000  -0.0000000  -0.0000000  -0.0000000  -0.0000000  -0.0000000  -0.0000000
 NQMom=    0.0000000   0.0000000   0.0000000   0.0000000   0.0000000   0.0000000   0.0000000   0.0000000   0.0000000   0.0000000
 NMagM=    0.0000000   0.0000000   0.0000000   2.7928460   2.7928460   2.7928460   2.7928460   2.7928460   2.7928460   2.7928460
 AtZNuc=   8.0000000   8.0000000   6.0000000   1.0000000   1.0000000   1.0000000   1.0000000   1.0000000   1.0000000   1.0000000

  Atom       131         132         133         134         135         136         137         138         139         140
 IAtWgt=           1           1           1           1           1           1           1           1           1           1
 AtmWgt=   1.0078250   1.0078250   1.0078250   1.0078250   1.0078250   1.0078250   1.0078250   1.0078250   1.0078250   1.0078250
 NucSpn=           1           1           1           1           1           1           1           1           1           1
 AtZEff=  -0.0000000  -0.0000000  -0.0000000  -0.0000000  -0.0000000  -0.0000000  -0.0000000  -0.0000000  -0.0000000  -0.0000000
 NQMom=    0.0000000   0.0000000   0.0000000   0.0000000   0.0000000   0.0000000   0.0000000   0.0000000   0.0000000   0.0000000
 NMagM=    2.7928460   2.7928460   2.7928460   2.7928460   2.7928460   2.7928460   2.7928460   2.7928460   2.7928460   2.7928460
 AtZNuc=   1.0000000   1.0000000   1.0000000   1.0000000   1.0000000   1.0000000   1.0000000   1.0000000   1.0000000   1.0000000

  Atom       141         142         143         144         145         146         147         148         149         150
 IAtWgt=           1           1           1           1           1           1           1           1           1           1
 AtmWgt=   1.0078250   1.0078250   1.0078250   1.0078250   1.0078250   1.0078250   1.0078250   1.0078250   1.0078250   1.0078250
 NucSpn=           1           1           1           1           1           1           1           1           1           1
 AtZEff=  -0.0000000  -0.0000000  -0.0000000  -0.0000000  -0.0000000  -0.0000000  -0.0000000  -0.0000000  -0.0000000  -0.0000000
 NQMom=    0.0000000   0.0000000   0.0000000   0.0000000   0.0000000   0.0000000   0.0000000   0.0000000   0.0000000   0.0000000
 NMagM=    2.7928460   2.7928460   2.7928460   2.7928460   2.7928460   2.7928460   2.7928460   2.7928460   2.7928460   2.7928460
 AtZNuc=   1.0000000   1.0000000   1.0000000   1.0000000   1.0000000   1.0000000   1.0000000   1.0000000   1.0000000   1.0000000

  Atom       151         152         153         154         155         156         157         158
 IAtWgt=           1           1           1           1           1           1           1           1
 AtmWgt=   1.0078250   1.0078250   1.0078250   1.0078250   1.0078250   1.0078250   1.0078250   1.0078250
 NucSpn=           1           1           1           1           1           1           1           1
 AtZEff=  -0.0000000  -0.0000000  -0.0000000  -0.0000000  -0.0000000  -0.0000000  -0.0000000  -0.0000000
 NQMom=    0.0000000   0.0000000   0.0000000   0.0000000   0.0000000   0.0000000   0.0000000   0.0000000
 NMagM=    2.7928460   2.7928460   2.7928460   2.7928460   2.7928460   2.7928460   2.7928460   2.7928460
 AtZNuc=   1.0000000   1.0000000   1.0000000   1.0000000   1.0000000   1.0000000   1.0000000   1.0000000
 Leave Link  101 at Sun Sep 12 15:55:09 2021, MaxMem= 23488102400 cpu:               3.8 elap:               0.2
 (Enter /sw/apps/gaussian-16.0/g16/l202.exe)
 Stoichiometry    C68H72Mg2N8O8
 Framework group  C1[X(C68H72Mg2N8O8)]
 Deg. of freedom   468
 Full point group                 C1      NOp   1
 Largest Abelian subgroup         C1      NOp   1
 Largest concise Abelian subgroup C1      NOp   1
                         Standard orientation:                         
 ---------------------------------------------------------------------
 Center     Atomic      Atomic             Coordinates (Angstroms)
 Number     Number       Type             X           Y           Z
 ---------------------------------------------------------------------
      1         12           0       15.602811   -0.817922    0.261747
      2          6           0       15.861452    2.259300   -1.548232
      3          6           0       16.452932    0.931960    3.065008
      4          6           0       15.825192   -3.587084    1.791096
      5          6           0       15.893935   -2.468575   -2.793781
      6          7           0       16.071417    1.320673    0.589570
      7          6           0       16.076793    2.407267   -0.176234
      8          6           0       16.258047    3.729161    0.628202
      9          6           0       16.986254    3.140668    1.918702
     10          6           0       16.444871    1.722522    1.877584
     11          6           0       18.505377    3.090377    1.791280
     12          6           0       14.888848    4.393750    0.996095
     13          6           0       14.976747    5.840455    1.490736
     14          1           0       13.915052    6.768775    1.132442
     15          7           0       15.590062   -1.217673    2.196401
     16          6           0       15.952444   -0.381257    3.198585
     17          6           0       15.766911   -1.143009    4.452376
     18          6           0       15.448545   -2.551129    4.086405
     19          6           0       15.636746   -2.513775    2.658623
     20          6           0       15.847027   -0.520906    5.812641
     21          6           0       15.049785   -3.744082    4.896335
     22          8           0       15.046433   -4.926338    4.409678
     23          6           0       14.744288   -3.500738    6.317777
     24          7           0       16.047116   -2.757307   -0.369926
     25          6           0       16.019242   -3.785085    0.485574
     26          6           0       16.089118   -5.098216   -0.236051
     27          6           0       15.925365   -4.759131   -1.787811
     28          6           0       15.868505   -3.214815   -1.687189
     29          6           0       17.373925   -5.910829   -0.024058
     30          6           0       14.793292   -5.490672   -2.551800
     31          6           0       13.447140   -5.024020   -2.044642
     32          7           0       15.659304   -0.242641   -1.830359
     33          6           0       15.808350   -1.093587   -2.935053
     34          6           0       15.898508   -0.236541   -4.131469
     35          6           0       15.811727    1.062519   -3.634722
     36          6           0       15.702352    1.020532   -2.215368
     37          6           0       16.099477   -0.687008   -5.466057
     38          6           0       15.810730    2.477089   -3.970650
     39          8           0       15.783093    3.118704   -5.021869
     40          6           0       15.965483    3.312097   -2.623565
     41          6           0       14.928898    4.402246   -2.642940
     42          8           0       13.712723    4.129810   -2.579180
     43          8           0       15.531848    5.591706   -2.494016
     44          6           0       14.556647    6.714549   -2.475049
     45          1           0       16.938186    1.327751    3.959334
     46          1           0       15.796710   -4.568939    2.268156
     47          1           0       15.900810   -2.915724   -3.789504
     48          1           0       16.895792    4.470543    0.146477
     49          1           0       16.665371    3.642462    2.831368
     50          1           0       18.829326    3.347573    0.782901
     51          1           0       18.783681    2.063782    2.030324
     52          1           0       18.978616    3.713640    2.550467
     53          1           0       14.486145    3.916389    1.889413
     54          1           0       14.196435    4.341699    0.155154
     55          1           0       15.953230    6.276078    1.277138
     56          1           0       14.915359    5.833636    2.579030
     57          1           0       16.258092    0.486877    5.768550
     58          1           0       16.583142   -1.089928    6.380142
     59          1           0       14.887913   -0.541262    6.330345
     60          1           0       15.617704   -3.065990    6.804281
     61          1           0       14.392424   -4.451452    6.716758
     62          1           0       13.952200   -2.754483    6.385959
     63          1           0       15.279191   -5.757774    0.072862
     64          1           0       16.825507   -4.996148   -2.355474
     65          1           0       17.198342   -6.913909    0.365437
     66          1           0       18.026512   -5.342795    0.638331
     67          1           0       18.000712   -6.014182   -0.909425
     68          1           0       14.848335   -6.564187   -2.374369
     69          1           0       14.828019   -5.330427   -3.629467
     70          1           0       13.291276   -5.643688   -1.162287
     71          1           0       12.674572   -5.207599   -2.792071
     72          1           0       13.484963   -3.986612   -1.711716
     73          1           0       15.415629   -0.110419   -6.088847
     74          1           0       15.910626   -1.756547   -5.555642
     75          1           0       17.150320   -0.435195   -5.608090
     76          1           0       16.979270    3.711237   -2.616884
     77          1           0       14.855144    7.412186   -3.257632
     78          1           0       14.530434    7.084930   -1.450093
     79          1           0       13.540072    6.475456   -2.789292
     80         12           0      -16.146163   -0.509075   -0.216974
     81          6           0      -13.663646    1.932486    0.651904
     82          6           0      -18.473497    1.605951    1.103927
     83          6           0      -18.294056   -2.819512   -0.557403
     84          6           0      -13.574178   -2.853080   -0.407316
     85          7           0      -15.968483    1.483793    0.725964
     86          6           0      -14.981725    2.339540    0.945871
     87          6           0      -15.441074    3.738337    1.437729
     88          6           0      -16.854972    3.317706    2.072431
     89          6           0      -17.142216    2.077278    1.228916
     90          6           0      -16.758654    2.893372    3.528448
     91          6           0      -15.621306    4.757232    0.258153
     92          6           0      -15.767241    6.218787    0.687469
     93          1           0      -15.185224    7.254923   -0.161140
     94          7           0      -18.128748   -0.425230   -0.246963
     95          6           0      -18.912096    0.515612    0.320907
     96          6           0      -20.297405    0.113984    0.031483
     97          6           0      -20.272138   -1.227765   -0.611788
     98          6           0      -18.868020   -1.559221   -0.475128
     99          6           0      -21.474907    1.008317    0.290479
    100          6           0      -21.337969   -2.078067   -1.234038
    101          8           0      -21.135067   -3.311342   -1.518112
    102          6           0      -22.655022   -1.450283   -1.414987
    103          7           0      -15.994832   -2.582437   -0.241651
    104          6           0      -17.075809   -3.351968   -0.458980
    105          6           0      -16.681809   -4.788492   -0.707082
    106          6           0      -15.089104   -4.778372   -0.851256
    107          6           0      -14.818127   -3.286001   -0.560096
    108          6           0      -17.088079   -5.786473    0.377069
    109          6           0      -14.495689   -5.398507   -2.145849
    110          6           0      -14.862970   -4.548313   -3.340696
    111          7           0      -13.988382   -0.462007   -0.117873
    112          6           0      -13.106744   -1.562369   -0.195317
    113          6           0      -11.742899   -1.044756    0.037961
    114          6           0      -11.929662    0.328029    0.259519
    115          6           0      -13.314313    0.640230    0.190600
    116          6           0      -10.552312   -1.824041    0.074578
    117          6           0      -11.271324    1.582185    0.546540
    118          8           0      -10.099989    1.949513    0.628934
    119          6           0      -12.376651    2.654980    0.938681
    120          6           0      -12.094243    3.915704    0.168402
    121          8           0      -12.191112    3.934050   -1.071313
    122          8           0      -11.969860    4.940677    1.031141
    123          6           0      -11.699976    6.215232    0.313844
    124          1           0      -19.252650    2.089660    1.693699
    125          1           0      -18.982102   -3.637017   -0.784900
    126          1           0      -12.708311   -3.503729   -0.547329
    127          1           0      -14.809668    4.182494    2.197876
    128          1           0      -17.609055    4.080691    1.897612
    129          1           0      -15.733806    2.831581    3.863138
    130          1           0      -17.233981    1.922797    3.584062
    131          1           0      -17.358518    3.559099    4.155582
    132          1           0      -16.603608    4.598517   -0.205148
    133          1           0      -14.820095    4.666684   -0.449292
    134          1           0      -15.477675    6.371798    1.734214
    135          1           0      -16.826927    6.484082    0.661009
    136          1           0      -21.199744    1.863427    0.920153
    137          1           0      -22.181887    0.437148    0.901888
    138          1           0      -21.975367    1.322386   -0.627970
    139          1           0      -23.032830   -1.119180   -0.450569
    140          1           0      -23.256805   -2.184003   -1.954803
    141          1           0      -22.532813   -0.551955   -2.030365
    142          1           0      -17.115821   -5.154774   -1.629339
    143          1           0      -14.603460   -5.348882   -0.045959
    144          1           0      -17.710455   -6.617309   -0.005594
    145          1           0      -17.609755   -5.248867    1.157693
    146          1           0      -16.261047   -6.239202    0.921350
    147          1           0      -14.926261   -6.386931   -2.324125
    148          1           0      -13.417893   -5.517918   -2.112850
    149          1           0      -15.869442   -4.896558   -3.591339
    150          1           0      -14.169728   -4.721104   -4.161420
    151          1           0      -14.939831   -3.490780   -3.062530
    152          1           0       -9.803970   -1.275569   -0.481883
    153          1           0      -10.712962   -2.815345   -0.344079
    154          1           0      -10.374331   -1.857708    1.152748
    155          1           0      -12.314036    2.810949    2.016339
    156          1           0      -10.777902    6.629037    0.733626
    157          1           0      -12.619455    6.820395    0.423792
    158          1           0      -11.444922    6.154272   -0.737667
 ---------------------------------------------------------------------
 Rotational constants (GHZ):           0.0261319           0.0016728           0.0016341
 Leave Link  202 at Sun Sep 12 15:55:09 2021, MaxMem= 23488102400 cpu:               0.2 elap:               0.0
 (Enter /sw/apps/gaussian-16.0/g16/l301.exe)
 Standard basis: def2SVP (5D, 7F)
 Ernie: Thresh=  0.10000D-02 Tol=  0.10000D-05 Strict=F.
 There are  1658 symmetry adapted cartesian basis functions of A   symmetry.
 There are  1572 symmetry adapted basis functions of A   symmetry.
  1572 basis functions,  2678 primitive gaussians,  1658 cartesian basis functions
   312 alpha electrons      312 beta electrons
       nuclear repulsion energy     12345.4421347084 Hartrees.
 IExCor=20419 DFT=T Ex+Corr=CAM-B3LYP ExCW=0 ScaHFX=  1.000000
 ScaDFX=  1.000000  1.000000  1.000000  0.810000 ScalE2=  1.000000  1.000000
 IRadAn=      5 IRanWt=     -1 IRanGd=            0 ICorTp=0 IEmpDi=  4
 HFx  wShort=  0.000000 wLong=  0.330000 cFull=  0.190000 cShort=  0.000000 cLong=  0.460000
 DFx  wShort=  0.000000 wLong=  0.330000 cFull=  0.190000 cShort=  0.000000 cLong=  0.460000
 NAtoms=  158 NActive=  158 NUniq=  158 SFac= 1.00D+00 NAtFMM=   60 NAOKFM=T Big=T
 Integral buffers will be    131072 words long.
 Raffenetti 1 integral format.
 Two-electron integral symmetry is turned on.
 Leave Link  301 at Sun Sep 12 15:55:09 2021, MaxMem= 23488102400 cpu:               1.3 elap:               0.1
 (Enter /sw/apps/gaussian-16.0/g16/l302.exe)
 NPDir=0 NMtPBC=     1 NCelOv=     1 NCel=       1 NClECP=     1 NCelD=      1
         NCelK=      1 NCelE2=     1 NClLst=     1 CellRange=     0.0.
 One-electron integrals computed using PRISM.
 One-electron integral symmetry used in STVInt
   1 Symmetry operations used in ECPInt.
 ECPInt:  NShTT=  271216 NPrTT=  987664 LenC2=  103957 LenP2D=  239866.
 LDataN:  DoStor=T MaxTD1= 4 Len=   56
 NBasis=  1572 RedAO= T EigKep=  3.36D-04  NBF=  1572
 NBsUse=  1572 1.00D-06 EigRej= -1.00D+00 NBFU=  1572
 Precomputing XC quadrature grid using
 IXCGrd= 4 IRadAn=           5 IRanWt=          -1 IRanGd=           0 AccXCQ= 0.00D+00.
 Generated NRdTot=       0 NPtTot=           0 NUsed=           0 NTot=          32
 NSgBfM=   812   812   812   812   812 MxSgAt=   158 MxSgA2=    79.
 Leave Link  302 at Sun Sep 12 15:55:13 2021, MaxMem= 23488102400 cpu:              95.4 elap:               4.0
 (Enter /sw/apps/gaussian-16.0/g16/l303.exe)
 DipDrv:  MaxL=1.
 Leave Link  303 at Sun Sep 12 15:55:13 2021, MaxMem= 23488102400 cpu:               7.8 elap:               0.4
 (Enter /sw/apps/gaussian-16.0/g16/l308.exe)
 Leave Link  308 at Sun Sep 12 15:55:14 2021, MaxMem= 23488102400 cpu:              13.6 elap:               0.6
 (Enter /sw/apps/gaussian-16.0/g16/l401.exe)
 ExpMin= 3.36D-02 ExpMax= 4.95D+03 ExpMxC= 7.45D+02 IAcc=3 IRadAn=         5 AccDes= 0.00D+00
 Harris functional with IExCor=20419 and IRadAn=       5 diagonalized for initial guess.
 HarFok:  IExCor=20419 AccDes= 0.00D+00 IRadAn=         5 IDoV= 1 UseB2=F ITyADJ=14
 ICtDFT=  3500011 ScaDFX=  1.000000  1.000000  1.000000  1.000000
 FoFCou: FMM=F IPFlag=           0 FMFlag=      100000 FMFlg1=        2001
         NFxFlg=           0 DoJE=T BraDBF=F KetDBF=T FulRan=T
         wScrn=  0.000000 ICntrl=       500 IOpCl=  0 I1Cent=   200000004 NGrid=           0
         NMat0=    1 NMatS0=      1 NMatT0=    0 NMatD0=    1 NMtDS0=    0 NMtDT0=    0
 Petite list used in FoFCou.
 Harris En= -3918.65801929329    
 JPrj=0 DoOrth=F DoCkMO=F.
 Leave Link  401 at Sun Sep 12 15:55:20 2021, MaxMem= 23488102400 cpu:             158.9 elap:               6.7
 (Enter /sw/apps/gaussian-16.0/g16/l502.exe)
 Integral symmetry usage will be decided dynamically.
 Closed shell SCF:
 Using DIIS extrapolation, IDIIS=  1040.
 NGot= 23488102400 LenX= 23482547354 LenY= 23479796732
 Requested convergence on RMS density matrix=1.00D-08 within 128 cycles.
 Requested convergence on MAX density matrix=1.00D-06.
 Requested convergence on             energy=1.00D-06.
 No special actions if energy rises.
 Fock matrices will be formed incrementally for  20 cycles.

 Cycle   1  Pass 1  IDiag  1:
 FoFJK:  IHMeth= 1 ICntrl=       0 DoSepK=T KAlg= 0 I1Cent=           0 FoldK=F
 IRaf=         1 NMat=       1 IRICut=       1 DoRegI=T DoRafI=F ISym2E= 0 IDoP0=0 IntGTp=1.
 FoFCou: FMM=T IPFlag=           0 FMFlag=      100000 FMFlg1=        2001
         NFxFlg=           0 DoJE=T BraDBF=F KetDBF=F FulRan=T
         wScrn=  0.000000 ICntrl=       500 IOpCl=  0 I1Cent=           0 NGrid=           0
         NMat0=    1 NMatS0=      1 NMatT0=    0 NMatD0=    1 NMtDS0=    0 NMtDT0=    0
 Symmetry not used in FoFCou.
 FMM levels:  10  Number of levels for PrismC:   9
 E= -4068.94922117945    
 DIIS: error= 2.04D-02 at cycle   1 NSaved=   1.
 NSaved= 1 IEnMin= 1 EnMin= -4068.94922117945     IErMin= 1 ErrMin= 2.04D-02
 ErrMax= 2.04D-02  0.00D+00 EMaxC= 1.00D-01 BMatC= 1.69D+00 BMatP= 1.69D+00
 IDIUse=3 WtCom= 7.96D-01 WtEn= 2.04D-01
 Coeff-Com:  0.100D+01
 Coeff-En:   0.100D+01
 Coeff:      0.100D+01
 Gap=     0.120 Goal=   None    Shift=    0.000
 GapD=    0.120 DampG=1.000 DampE=0.500 DampFc=0.5000 IDamp=-1.
 Damping current iteration by 5.00D-01
 RMSDP=1.57D-03 MaxDP=1.35D-01              OVMax= 2.03D-01

 Cycle   2  Pass 1  IDiag  1:
 RMSU=  7.69D-04    CP:  9.82D-01
 E= -4069.33812380137     Delta-E=       -0.388902621919 Rises=F Damp=T
 DIIS: error= 1.27D-02 at cycle   2 NSaved=   2.
 NSaved= 2 IEnMin= 2 EnMin= -4069.33812380137     IErMin= 2 ErrMin= 1.27D-02
 ErrMax= 1.27D-02  0.00D+00 EMaxC= 1.00D-01 BMatC= 3.07D-01 BMatP= 1.69D+00
 IDIUse=3 WtCom= 8.73D-01 WtEn= 1.27D-01
 Coeff-Com: -0.213D+00 0.121D+01
 Coeff-En:   0.000D+00 0.100D+01
 Coeff:     -0.186D+00 0.119D+01
 Gap=     0.138 Goal=   None    Shift=    0.000
 RMSDP=7.65D-04 MaxDP=9.43D-02 DE=-3.89D-01 OVMax= 1.88D-01

 Cycle   3  Pass 1  IDiag  1:
 RMSU=  7.32D-04    CP:  9.68D-01  1.24D+00
 E= -4069.62782146394     Delta-E=       -0.289697662574 Rises=F Damp=F
 DIIS: error= 1.58D-02 at cycle   3 NSaved=   3.
 NSaved= 3 IEnMin= 3 EnMin= -4069.62782146394     IErMin= 2 ErrMin= 1.27D-02
 ErrMax= 1.58D-02  0.00D+00 EMaxC= 1.00D-01 BMatC= 2.02D-01 BMatP= 3.07D-01
 IDIUse=3 WtCom= 8.42D-01 WtEn= 1.58D-01
 Coeff-Com: -0.267D+00 0.652D+00 0.616D+00
 Coeff-En:   0.000D+00 0.000D+00 0.100D+01
 Coeff:     -0.225D+00 0.549D+00 0.676D+00
 Gap=     0.125 Goal=   None    Shift=    0.000
 RMSDP=5.08D-04 MaxDP=4.77D-02 DE=-2.90D-01 OVMax= 1.43D-01

 Cycle   4  Pass 1  IDiag  1:
 RMSU=  2.66D-04    CP:  9.65D-01  1.55D+00  5.06D-01
 E= -4069.76495830956     Delta-E=       -0.137136845613 Rises=F Damp=F
 DIIS: error= 7.33D-03 at cycle   4 NSaved=   4.
 NSaved= 4 IEnMin= 4 EnMin= -4069.76495830956     IErMin= 4 ErrMin= 7.33D-03
 ErrMax= 7.33D-03  0.00D+00 EMaxC= 1.00D-01 BMatC= 5.05D-02 BMatP= 2.02D-01
 IDIUse=3 WtCom= 9.27D-01 WtEn= 7.33D-02
 Coeff-Com: -0.109D+00 0.226D+00 0.409D+00 0.474D+00
 Coeff-En:   0.000D+00 0.000D+00 0.221D+00 0.779D+00
 Coeff:     -0.101D+00 0.209D+00 0.395D+00 0.497D+00
 Gap=     0.123 Goal=   None    Shift=    0.000
 RMSDP=2.00D-04 MaxDP=2.09D-02 DE=-1.37D-01 OVMax= 6.18D-02

 Cycle   5  Pass 1  IDiag  1:
 RMSU=  7.59D-05    CP:  9.64D-01  1.49D+00  6.89D-01  5.49D-01
 E= -4069.81051414890     Delta-E=       -0.045555839348 Rises=F Damp=F
 DIIS: error= 7.88D-04 at cycle   5 NSaved=   5.
 NSaved= 5 IEnMin= 5 EnMin= -4069.81051414890     IErMin= 5 ErrMin= 7.88D-04
 ErrMax= 7.88D-04  0.00D+00 EMaxC= 1.00D-01 BMatC= 1.17D-03 BMatP= 5.05D-02
 IDIUse=3 WtCom= 9.92D-01 WtEn= 7.88D-03
 Coeff-Com: -0.358D-01 0.702D-01 0.165D+00 0.249D+00 0.551D+00
 Coeff-En:   0.000D+00 0.000D+00 0.000D+00 0.000D+00 0.100D+01
 Coeff:     -0.355D-01 0.696D-01 0.164D+00 0.247D+00 0.555D+00
 Gap=     0.122 Goal=   None    Shift=    0.000
 RMSDP=4.07D-05 MaxDP=4.17D-03 DE=-4.56D-02 OVMax= 1.64D-02

 Cycle   6  Pass 1  IDiag  1:
 RMSU=  3.02D-05    CP:  9.64D-01  1.49D+00  6.81D-01  6.21D-01  7.59D-01
 E= -4069.81152463061     Delta-E=       -0.001010481708 Rises=F Damp=F
 DIIS: error= 2.19D-04 at cycle   6 NSaved=   6.
 NSaved= 6 IEnMin= 6 EnMin= -4069.81152463061     IErMin= 6 ErrMin= 2.19D-04
 ErrMax= 2.19D-04  0.00D+00 EMaxC= 1.00D-01 BMatC= 1.76D-04 BMatP= 1.17D-03
 IDIUse=3 WtCom= 9.98D-01 WtEn= 2.19D-03
 Coeff-Com:  0.232D-02-0.679D-02 0.109D-01 0.398D-01 0.306D+00 0.648D+00
 Coeff-En:   0.000D+00 0.000D+00 0.000D+00 0.000D+00 0.102D+00 0.898D+00
 Coeff:      0.231D-02-0.678D-02 0.108D-01 0.397D-01 0.305D+00 0.648D+00
 Gap=     0.122 Goal=   None    Shift=    0.000
 RMSDP=1.58D-05 MaxDP=1.23D-03 DE=-1.01D-03 OVMax= 7.23D-03

 Cycle   7  Pass 1  IDiag  1:
 RMSU=  1.07D-05    CP:  9.64D-01  1.50D+00  6.87D-01  6.21D-01  8.59D-01
                    CP:  7.50D-01
 E= -4069.81171329063     Delta-E=       -0.000188660018 Rises=F Damp=F
 DIIS: error= 8.32D-05 at cycle   7 NSaved=   7.
 NSaved= 7 IEnMin= 7 EnMin= -4069.81171329063     IErMin= 7 ErrMin= 8.32D-05
 ErrMax= 8.32D-05  0.00D+00 EMaxC= 1.00D-01 BMatC= 2.07D-05 BMatP= 1.76D-04
 IDIUse=1 WtCom= 1.00D+00 WtEn= 0.00D+00
 Coeff-Com:  0.446D-02-0.974D-02-0.899D-02-0.383D-02 0.102D+00 0.329D+00
 Coeff-Com:  0.587D+00
 Coeff:      0.446D-02-0.974D-02-0.899D-02-0.383D-02 0.102D+00 0.329D+00
 Coeff:      0.587D+00
 Gap=     0.123 Goal=   None    Shift=    0.000
 RMSDP=6.49D-06 MaxDP=1.11D-03 DE=-1.89D-04 OVMax= 3.40D-03

 Cycle   8  Pass 1  IDiag  1:
 RMSU=  4.67D-06    CP:  9.64D-01  1.50D+00  6.88D-01  6.26D-01  8.64D-01
                    CP:  8.76D-01  8.24D-01
 E= -4069.81173898479     Delta-E=       -0.000025694160 Rises=F Damp=F
 DIIS: error= 5.03D-05 at cycle   8 NSaved=   8.
 NSaved= 8 IEnMin= 8 EnMin= -4069.81173898479     IErMin= 8 ErrMin= 5.03D-05
 ErrMax= 5.03D-05  0.00D+00 EMaxC= 1.00D-01 BMatC= 4.81D-06 BMatP= 2.07D-05
 IDIUse=1 WtCom= 1.00D+00 WtEn= 0.00D+00
 Coeff-Com:  0.215D-02-0.425D-02-0.774D-02-0.121D-01-0.117D-01 0.334D-01
 Coeff-Com:  0.344D+00 0.656D+00
 Coeff:      0.215D-02-0.425D-02-0.774D-02-0.121D-01-0.117D-01 0.334D-01
 Coeff:      0.344D+00 0.656D+00
 Gap=     0.123 Goal=   None    Shift=    0.000
 RMSDP=3.26D-06 MaxDP=3.54D-04 DE=-2.57D-05 OVMax= 1.11D-03

 Cycle   9  Pass 1  IDiag  1:
 RMSU=  1.91D-06    CP:  9.64D-01  1.50D+00  6.88D-01  6.27D-01  8.80D-01
                    CP:  9.02D-01  1.02D+00  9.40D-01
 E= -4069.81174667336     Delta-E=       -0.000007688570 Rises=F Damp=F
 DIIS: error= 1.94D-05 at cycle   9 NSaved=   9.
 NSaved= 9 IEnMin= 9 EnMin= -4069.81174667336     IErMin= 9 ErrMin= 1.94D-05
 ErrMax= 1.94D-05  0.00D+00 EMaxC= 1.00D-01 BMatC= 6.86D-07 BMatP= 4.81D-06
 IDIUse=1 WtCom= 1.00D+00 WtEn= 0.00D+00
 Coeff-Com:  0.461D-03-0.764D-03-0.266D-02-0.598D-02-0.212D-01-0.386D-01
 Coeff-Com:  0.104D+00 0.326D+00 0.639D+00
 Coeff:      0.461D-03-0.764D-03-0.266D-02-0.598D-02-0.212D-01-0.386D-01
 Coeff:      0.104D+00 0.326D+00 0.639D+00
 Gap=     0.123 Goal=   None    Shift=    0.000
 RMSDP=1.42D-06 MaxDP=1.50D-04 DE=-7.69D-06 OVMax= 7.45D-04

 Cycle  10  Pass 1  IDiag  1:
 RMSU=  9.37D-07    CP:  9.64D-01  1.50D+00  6.88D-01  6.27D-01  8.84D-01
                    CP:  9.15D-01  1.07D+00  1.11D+00  1.05D+00
 E= -4069.81174825825     Delta-E=       -0.000001584893 Rises=F Damp=F
 DIIS: error= 1.03D-05 at cycle  10 NSaved=  10.
 NSaved=10 IEnMin=10 EnMin= -4069.81174825825     IErMin=10 ErrMin= 1.03D-05
 ErrMax= 1.03D-05  0.00D+00 EMaxC= 1.00D-01 BMatC= 1.72D-07 BMatP= 6.86D-07
 IDIUse=1 WtCom= 1.00D+00 WtEn= 0.00D+00
 Coeff-Com: -0.427D-03 0.894D-03 0.123D-02 0.112D-02-0.375D-02-0.310D-01
 Coeff-Com: -0.465D-01-0.765D-01 0.255D+00 0.900D+00
 Coeff:     -0.427D-03 0.894D-03 0.123D-02 0.112D-02-0.375D-02-0.310D-01
 Coeff:     -0.465D-01-0.765D-01 0.255D+00 0.900D+00
 Gap=     0.123 Goal=   None    Shift=    0.000
 RMSDP=1.22D-06 MaxDP=1.25D-04 DE=-1.58D-06 OVMax= 6.08D-04

 Cycle  11  Pass 1  IDiag  1:
 RMSU=  5.15D-07    CP:  9.64D-01  1.50D+00  6.88D-01  6.28D-01  8.86D-01
                    CP:  9.25D-01  1.11D+00  1.22D+00  1.39D+00  1.37D+00
 E= -4069.81174904573     Delta-E=       -0.000000787477 Rises=F Damp=F
 DIIS: error= 3.95D-06 at cycle  11 NSaved=  11.
 NSaved=11 IEnMin=11 EnMin= -4069.81174904573     IErMin=11 ErrMin= 3.95D-06
 ErrMax= 3.95D-06  0.00D+00 EMaxC= 1.00D-01 BMatC= 6.12D-08 BMatP= 1.72D-07
 IDIUse=1 WtCom= 1.00D+00 WtEn= 0.00D+00
 Coeff-Com: -0.326D-03 0.635D-03 0.133D-02 0.212D-02 0.441D-02-0.834D-02
 Coeff-Com: -0.435D-01-0.132D+00-0.233D-01 0.465D+00 0.735D+00
 Coeff:     -0.326D-03 0.635D-03 0.133D-02 0.212D-02 0.441D-02-0.834D-02
 Coeff:     -0.435D-01-0.132D+00-0.233D-01 0.465D+00 0.735D+00
 Gap=     0.123 Goal=   None    Shift=    0.000
 RMSDP=6.87D-07 MaxDP=5.83D-05 DE=-7.87D-07 OVMax= 3.72D-04

 Cycle  12  Pass 1  IDiag  1:
 RMSU=  2.63D-07    CP:  9.64D-01  1.50D+00  6.88D-01  6.28D-01  8.87D-01
                    CP:  9.28D-01  1.14D+00  1.28D+00  1.56D+00  1.76D+00
                    CP:  1.20D+00
 E= -4069.81174930838     Delta-E=       -0.000000262655 Rises=F Damp=F
 DIIS: error= 2.35D-06 at cycle  12 NSaved=  12.
 NSaved=12 IEnMin=12 EnMin= -4069.81174930838     IErMin=12 ErrMin= 2.35D-06
 ErrMax= 2.35D-06  0.00D+00 EMaxC= 1.00D-01 BMatC= 1.48D-08 BMatP= 6.12D-08
 IDIUse=1 WtCom= 1.00D+00 WtEn= 0.00D+00
 Coeff-Com:  0.498D-06-0.175D-04 0.178D-03 0.508D-03 0.330D-02 0.407D-02
 Coeff-Com:  0.285D-02-0.348D-01-0.681D-01-0.760D-01 0.250D+00 0.918D+00
 Coeff:      0.498D-06-0.175D-04 0.178D-03 0.508D-03 0.330D-02 0.407D-02
 Coeff:      0.285D-02-0.348D-01-0.681D-01-0.760D-01 0.250D+00 0.918D+00
 Gap=     0.123 Goal=   None    Shift=    0.000
 RMSDP=4.38D-07 MaxDP=3.02D-05 DE=-2.63D-07 OVMax= 2.49D-04

 Cycle  13  Pass 1  IDiag  1:
 RMSU=  1.65D-07    CP:  9.64D-01  1.50D+00  6.88D-01  6.28D-01  8.87D-01
                    CP:  9.28D-01  1.14D+00  1.31D+00  1.67D+00  1.99D+00
                    CP:  1.61D+00  1.27D+00
 E= -4069.81174940069     Delta-E=       -0.000000092303 Rises=F Damp=F
 DIIS: error= 1.23D-06 at cycle  13 NSaved=  13.
 NSaved=13 IEnMin=13 EnMin= -4069.81174940069     IErMin=13 ErrMin= 1.23D-06
 ErrMax= 1.23D-06  0.00D+00 EMaxC= 1.00D-01 BMatC= 8.13D-09 BMatP= 1.48D-08
 IDIUse=1 WtCom= 1.00D+00 WtEn= 0.00D+00
 Coeff-Com:  0.120D-03-0.245D-03-0.370D-03-0.457D-03 0.569D-03 0.509D-02
 Coeff-Com:  0.197D-01 0.228D-01-0.340D-01-0.241D+00-0.156D+00 0.599D+00
 Coeff-Com:  0.785D+00
 Coeff:      0.120D-03-0.245D-03-0.370D-03-0.457D-03 0.569D-03 0.509D-02
 Coeff:      0.197D-01 0.228D-01-0.340D-01-0.241D+00-0.156D+00 0.599D+00
 Coeff:      0.785D+00
 Gap=     0.123 Goal=   None    Shift=    0.000
 RMSDP=3.40D-07 MaxDP=2.18D-05 DE=-9.23D-08 OVMax= 1.97D-04

 Cycle  14  Pass 1  IDiag  1:
 RMSU=  7.61D-08    CP:  9.64D-01  1.50D+00  6.88D-01  6.28D-01  8.87D-01
                    CP:  9.29D-01  1.15D+00  1.33D+00  1.74D+00  2.18D+00
                    CP:  1.88D+00  1.79D+00  1.09D+00
 E= -4069.81174943643     Delta-E=       -0.000000035740 Rises=F Damp=F
 DIIS: error= 6.30D-07 at cycle  14 NSaved=  14.
 NSaved=14 IEnMin=14 EnMin= -4069.81174943643     IErMin=14 ErrMin= 6.30D-07
 ErrMax= 6.30D-07  0.00D+00 EMaxC= 1.00D-01 BMatC= 1.25D-09 BMatP= 8.13D-09
 IDIUse=1 WtCom= 1.00D+00 WtEn= 0.00D+00
 Coeff-Com:  0.662D-04-0.130D-03-0.246D-03-0.386D-03-0.483D-03 0.129D-02
 Coeff-Com:  0.108D-01 0.192D-01 0.366D-02-0.996D-01-0.142D+00 0.939D-01
 Coeff-Com:  0.404D+00 0.710D+00
 Coeff:      0.662D-04-0.130D-03-0.246D-03-0.386D-03-0.483D-03 0.129D-02
 Coeff:      0.108D-01 0.192D-01 0.366D-02-0.996D-01-0.142D+00 0.939D-01
 Coeff:      0.404D+00 0.710D+00
 Gap=     0.123 Goal=   None    Shift=    0.000
 RMSDP=1.01D-07 MaxDP=6.39D-06 DE=-3.57D-08 OVMax= 5.48D-05

 Cycle  15  Pass 1  IDiag  1:
 RMSU=  3.83D-08    CP:  9.64D-01  1.50D+00  6.88D-01  6.28D-01  8.87D-01
                    CP:  9.29D-01  1.15D+00  1.34D+00  1.76D+00  2.22D+00
                    CP:  1.98D+00  1.93D+00  1.33D+00  1.03D+00
 E= -4069.81174944057     Delta-E=       -0.000000004147 Rises=F Damp=F
 DIIS: error= 3.46D-07 at cycle  15 NSaved=  15.
 NSaved=15 IEnMin=15 EnMin= -4069.81174944057     IErMin=15 ErrMin= 3.46D-07
 ErrMax= 3.46D-07  0.00D+00 EMaxC= 1.00D-01 BMatC= 2.26D-10 BMatP= 1.25D-09
 IDIUse=1 WtCom= 1.00D+00 WtEn= 0.00D+00
 Coeff-Com:  0.515D-05-0.850D-05-0.319D-04-0.808D-04-0.299D-03-0.517D-03
 Coeff-Com:  0.111D-02 0.250D-02 0.877D-02 0.192D-02-0.306D-01-0.731D-01
 Coeff-Com:  0.286D-01 0.297D+00 0.765D+00
 Coeff:      0.515D-05-0.850D-05-0.319D-04-0.808D-04-0.299D-03-0.517D-03
 Coeff:      0.111D-02 0.250D-02 0.877D-02 0.192D-02-0.306D-01-0.731D-01
 Coeff:      0.286D-01 0.297D+00 0.765D+00
 Gap=     0.123 Goal=   None    Shift=    0.000
 RMSDP=4.07D-08 MaxDP=2.45D-06 DE=-4.15D-09 OVMax= 2.68D-05

 Cycle  16  Pass 1  IDiag  1:
 RMSU=  1.87D-08    CP:  9.64D-01  1.50D+00  6.88D-01  6.28D-01  8.87D-01
                    CP:  9.29D-01  1.15D+00  1.34D+00  1.76D+00  2.24D+00
                    CP:  2.01D+00  1.99D+00  1.40D+00  1.24D+00  1.15D+00
 E= -4069.81174944156     Delta-E=       -0.000000000982 Rises=F Damp=F
 DIIS: error= 1.71D-07 at cycle  16 NSaved=  16.
 NSaved=16 IEnMin=16 EnMin= -4069.81174944156     IErMin=16 ErrMin= 1.71D-07
 ErrMax= 1.71D-07  0.00D+00 EMaxC= 1.00D-01 BMatC= 8.16D-11 BMatP= 2.26D-10
 IDIUse=1 WtCom= 1.00D+00 WtEn= 0.00D+00
 Coeff-Com: -0.142D-04 0.288D-04 0.471D-04 0.539D-04-0.266D-04-0.635D-03
 Coeff-Com: -0.199D-02-0.427D-02 0.455D-02 0.256D-01 0.207D-01-0.647D-01
 Coeff-Com: -0.834D-01-0.374D-01 0.398D+00 0.744D+00
 Coeff:     -0.142D-04 0.288D-04 0.471D-04 0.539D-04-0.266D-04-0.635D-03
 Coeff:     -0.199D-02-0.427D-02 0.455D-02 0.256D-01 0.207D-01-0.647D-01
 Coeff:     -0.834D-01-0.374D-01 0.398D+00 0.744D+00
 Gap=     0.123 Goal=   None    Shift=    0.000
 RMSDP=2.29D-08 MaxDP=1.60D-06 DE=-9.82D-10 OVMax= 1.33D-05

 Cycle  17  Pass 1  IDiag  1:
 RMSU=  1.04D-08    CP:  9.64D-01  1.50D+00  6.88D-01  6.28D-01  8.87D-01
                    CP:  9.29D-01  1.15D+00  1.34D+00  1.77D+00  2.24D+00
                    CP:  2.02D+00  2.01D+00  1.45D+00  1.34D+00  1.44D+00
                    CP:  1.25D+00
 E= -4069.81174944177     Delta-E=       -0.000000000218 Rises=F Damp=F
 DIIS: error= 9.77D-08 at cycle  17 NSaved=  17.
 NSaved=17 IEnMin=17 EnMin= -4069.81174944177     IErMin=17 ErrMin= 9.77D-08
 ErrMax= 9.77D-08  0.00D+00 EMaxC= 1.00D-01 BMatC= 1.78D-11 BMatP= 8.16D-11
 IDIUse=1 WtCom= 1.00D+00 WtEn= 0.00D+00
 Coeff-Com: -0.720D-05 0.140D-04 0.286D-04 0.426D-04 0.841D-04-0.122D-03
 Coeff-Com: -0.965D-03-0.280D-02 0.136D-03 0.924D-02 0.175D-01-0.726D-02
 Coeff-Com: -0.370D-01-0.102D+00-0.319D-01 0.295D+00 0.860D+00
 Coeff:     -0.720D-05 0.140D-04 0.286D-04 0.426D-04 0.841D-04-0.122D-03
 Coeff:     -0.965D-03-0.280D-02 0.136D-03 0.924D-02 0.175D-01-0.726D-02
 Coeff:     -0.370D-01-0.102D+00-0.319D-01 0.295D+00 0.860D+00
 Gap=     0.123 Goal=   None    Shift=    0.000
 RMSDP=1.38D-08 MaxDP=9.55D-07 DE=-2.18D-10 OVMax= 8.82D-06

 Cycle  18  Pass 1  IDiag  1:
 RMSU=  4.87D-09    CP:  9.64D-01  1.50D+00  6.88D-01  6.28D-01  8.87D-01
                    CP:  9.29D-01  1.15D+00  1.34D+00  1.77D+00  2.24D+00
                    CP:  2.02D+00  2.02D+00  1.47D+00  1.41D+00  1.62D+00
                    CP:  1.66D+00  1.39D+00
 E= -4069.81174944177     Delta-E=        0.000000000007 Rises=F Damp=F
 DIIS: error= 5.05D-08 at cycle  18 NSaved=  18.
 NSaved=18 IEnMin=17 EnMin= -4069.81174944177     IErMin=18 ErrMin= 5.05D-08
 ErrMax= 5.05D-08  0.00D+00 EMaxC= 1.00D-01 BMatC= 6.87D-12 BMatP= 1.78D-11
 IDIUse=1 WtCom= 1.00D+00 WtEn= 0.00D+00
 Coeff-Com:  0.207D-05-0.444D-05-0.463D-05-0.178D-05 0.591D-04 0.184D-03
 Coeff-Com:  0.406D-03 0.230D-03-0.129D-02-0.621D-02-0.142D-03 0.203D-01
 Coeff-Com:  0.185D-01-0.325D-01-0.162D+00-0.191D+00 0.348D+00 0.101D+01
 Coeff:      0.207D-05-0.444D-05-0.463D-05-0.178D-05 0.591D-04 0.184D-03
 Coeff:      0.406D-03 0.230D-03-0.129D-02-0.621D-02-0.142D-03 0.203D-01
 Coeff:      0.185D-01-0.325D-01-0.162D+00-0.191D+00 0.348D+00 0.101D+01
 Gap=     0.123 Goal=   None    Shift=    0.000
 RMSDP=1.18D-08 MaxDP=7.48D-07 DE= 7.28D-12 OVMax= 6.95D-06

 Cycle  19  Pass 1  IDiag  1:
 RMSU=  2.79D-09    CP:  9.64D-01  1.50D+00  6.88D-01  6.28D-01  8.87D-01
                    CP:  9.29D-01  1.15D+00  1.34D+00  1.77D+00  2.24D+00
                    CP:  2.03D+00  2.02D+00  1.48D+00  1.46D+00  1.77D+00
                    CP:  1.99D+00  1.94D+00  1.38D+00
 E= -4069.81174944178     Delta-E=       -0.000000000011 Rises=F Damp=F
 DIIS: error= 3.79D-08 at cycle  19 NSaved=  19.
 NSaved=19 IEnMin=19 EnMin= -4069.81174944178     IErMin=19 ErrMin= 3.79D-08
 ErrMax= 3.79D-08  0.00D+00 EMaxC= 1.00D-01 BMatC= 1.44D-12 BMatP= 6.87D-12
 IDIUse=1 WtCom= 1.00D+00 WtEn= 0.00D+00
 Coeff-Com:  0.288D-05-0.581D-05-0.987D-05-0.123D-04 0.109D-04 0.119D-03
 Coeff-Com:  0.475D-03 0.796D-03-0.600D-03-0.595D-02-0.482D-02 0.120D-01
 Coeff-Com:  0.201D-01 0.113D-01-0.689D-01-0.177D+00-0.346D-01 0.492D+00
 Coeff-Com:  0.755D+00
 Coeff:      0.288D-05-0.581D-05-0.987D-05-0.123D-04 0.109D-04 0.119D-03
 Coeff:      0.475D-03 0.796D-03-0.600D-03-0.595D-02-0.482D-02 0.120D-01
 Coeff:      0.201D-01 0.113D-01-0.689D-01-0.177D+00-0.346D-01 0.492D+00
 Coeff:      0.755D+00
 Gap=     0.123 Goal=   None    Shift=    0.000
 RMSDP=4.57D-09 MaxDP=2.90D-07 DE=-1.09D-11 OVMax= 2.83D-06

 SCF Done:  E(RCAM-B3LYP) =  -4069.81174944     A.U. after   19 cycles
            NFock= 19  Conv=0.46D-08     -V/T= 2.0102
 KE= 4.028802041844D+03 PE=-3.417193317882D+04 EE= 1.372787725282D+04
 Leave Link  502 at Sun Sep 12 16:03:40 2021, MaxMem= 23488102400 cpu:           11415.0 elap:             500.0
 (Enter /sw/apps/gaussian-16.0/g16/l801.exe)
 DoSCS=F DFT=T ScalE2(SS,OS)=  1.000000  1.000000
 ExpMin= 3.36D-02 ExpMax= 4.95D+03 ExpMxC= 7.45D+02 IAcc=3 IRadAn=         5 AccDes= 0.00D+00
 HarFok:  IExCor=  205 AccDes= 0.00D+00 IRadAn=         5 IDoV=-2 UseB2=F ITyADJ=14
 ICtDFT= 12500011 ScaDFX=  1.000000  1.000000  1.000000  1.000000
 GSVD:  LWork=       -9588 too small for GESVD, short by       45590 words or       45590 for optimal perf.
 Largest valence mixing into a core orbital is  2.03D-04
 Largest core mixing into a valence orbital is  5.24D-05
 Range of M.O.s used for correlation:    95  1572
 NBasis=  1572 NAE=   312 NBE=   312 NFC=    94 NFV=     0
 NROrb=   1478 NOA=   218 NOB=   218 NVA=  1260 NVB=  1260
 Leave Link  801 at Sun Sep 12 16:03:41 2021, MaxMem= 23488102400 cpu:               9.1 elap:               0.4
 (Enter /sw/apps/gaussian-16.0/g16/l914.exe)
 RHF ground state
 Two-electron integrals replicated using symmetry.
 MDV= 23488102400 DFT=T DoStab=F Mixed=T DoRPA=T DoScal=F NonHer=T
 Making orbital integer symmetry assigments:
 Orbital symmetries:
       Occupied  (A) (A) (A) (A) (A) (A) (A) (A) (A) (A) (A) (A)
                 (A) (A) (A) (A) (A) (A) (A) (A) (A) (A) (A) (A)
                 (A) (A) (A) (A) (A) (A) (A) (A) (A) (A) (A) (A)
                 (A) (A) (A) (A) (A) (A) (A) (A) (A) (A) (A) (A)
                 (A) (A) (A) (A) (A) (A) (A) (A) (A) (A) (A) (A)
                 (A) (A) (A) (A) (A) (A) (A) (A) (A) (A) (A) (A)
                 (A) (A) (A) (A) (A) (A) (A) (A) (A) (A) (A) (A)
                 (A) (A) (A) (A) (A) (A) (A) (A) (A) (A) (A) (A)
                 (A) (A) (A) (A) (A) (A) (A) (A) (A) (A) (A) (A)
                 (A) (A) (A) (A) (A) (A) (A) (A) (A) (A) (A) (A)
                 (A) (A) (A) (A) (A) (A) (A) (A) (A) (A) (A) (A)
                 (A) (A) (A) (A) (A) (A) (A) (A) (A) (A) (A) (A)
                 (A) (A) (A) (A) (A) (A) (A) (A) (A) (A) (A) (A)
                 (A) (A) (A) (A) (A) (A) (A) (A) (A) (A) (A) (A)
                 (A) (A) (A) (A) (A) (A) (A) (A) (A) (A) (A) (A)
                 (A) (A) (A) (A) (A) (A) (A) (A) (A) (A) (A) (A)
                 (A) (A) (A) (A) (A) (A) (A) (A) (A) (A) (A) (A)
                 (A) (A) (A) (A) (A) (A) (A) (A) (A) (A) (A) (A)
                 (A) (A) (A) (A) (A) (A) (A) (A) (A) (A) (A) (A)
                 (A) (A) (A) (A) (A) (A) (A) (A) (A) (A) (A) (A)
                 (A) (A) (A) (A) (A) (A) (A) (A) (A) (A) (A) (A)
                 (A) (A) (A) (A) (A) (A) (A) (A) (A) (A) (A) (A)
                 (A) (A) (A) (A) (A) (A) (A) (A) (A) (A) (A) (A)
                 (A) (A) (A) (A) (A) (A) (A) (A) (A) (A) (A) (A)
                 (A) (A) (A) (A) (A) (A) (A) (A) (A) (A) (A) (A)
                 (A) (A) (A) (A) (A) (A) (A) (A) (A) (A) (A) (A)
       Virtual   (A) (A) (A) (A) (A) (A) (A) (A) (A) (A) (A) (A)
                 (A) (A) (A) (A) (A) (A) (A) (A) (A) (A) (A) (A)
                 (A) (A) (A) (A) (A) (A) (A) (A) (A) (A) (A) (A)
                 (A) (A) (A) (A) (A) (A) (A) (A) (A) (A) (A) (A)
                 (A) (A) (A) (A) (A) (A) (A) (A) (A) (A) (A) (A)
                 (A) (A) (A) (A) (A) (A) (A) (A) (A) (A) (A) (A)
                 (A) (A) (A) (A) (A) (A) (A) (A) (A) (A) (A) (A)
                 (A) (A) (A) (A) (A) (A) (A) (A) (A) (A) (A) (A)
                 (A) (A) (A) (A) (A) (A) (A) (A) (A) (A) (A) (A)
                 (A) (A) (A) (A) (A) (A) (A) (A) (A) (A) (A) (A)
                 (A) (A) (A) (A) (A) (A) (A) (A) (A) (A) (A) (A)
                 (A) (A) (A) (A) (A) (A) (A) (A) (A) (A) (A) (A)
                 (A) (A) (A) (A) (A) (A) (A) (A) (A) (A) (A) (A)
                 (A) (A) (A) (A) (A) (A) (A) (A) (A) (A) (A) (A)
                 (A) (A) (A) (A) (A) (A) (A) (A) (A) (A) (A) (A)
                 (A) (A) (A) (A) (A) (A) (A) (A) (A) (A) (A) (A)
                 (A) (A) (A) (A) (A) (A) (A) (A) (A) (A) (A) (A)
                 (A) (A) (A) (A) (A) (A) (A) (A) (A) (A) (A) (A)
                 (A) (A) (A) (A) (A) (A) (A) (A) (A) (A) (A) (A)
                 (A) (A) (A) (A) (A) (A) (A) (A) (A) (A) (A) (A)
                 (A) (A) (A) (A) (A) (A) (A) (A) (A) (A) (A) (A)
                 (A) (A) (A) (A) (A) (A) (A) (A) (A) (A) (A) (A)
                 (A) (A) (A) (A) (A) (A) (A) (A) (A) (A) (A) (A)
                 (A) (A) (A) (A) (A) (A) (A) (A) (A) (A) (A) (A)
                 (A) (A) (A) (A) (A) (A) (A) (A) (A) (A) (A) (A)
                 (A) (A) (A) (A) (A) (A) (A) (A) (A) (A) (A) (A)
                 (A) (A) (A) (A) (A) (A) (A) (A) (A) (A) (A) (A)
                 (A) (A) (A) (A) (A) (A) (A) (A) (A) (A) (A) (A)
                 (A) (A) (A) (A) (A) (A) (A) (A) (A) (A) (A) (A)
                 (A) (A) (A) (A) (A) (A) (A) (A) (A) (A) (A) (A)
                 (A) (A) (A) (A) (A) (A) (A) (A) (A) (A) (A) (A)
                 (A) (A) (A) (A) (A) (A) (A) (A) (A) (A) (A) (A)
                 (A) (A) (A) (A) (A) (A) (A) (A) (A) (A) (A) (A)
                 (A) (A) (A) (A) (A) (A) (A) (A) (A) (A) (A) (A)
                 (A) (A) (A) (A) (A) (A) (A) (A) (A) (A) (A) (A)
                 (A) (A) (A) (A) (A) (A) (A) (A) (A) (A) (A) (A)
                 (A) (A) (A) (A) (A) (A) (A) (A) (A) (A) (A) (A)
                 (A) (A) (A) (A) (A) (A) (A) (A) (A) (A) (A) (A)
                 (A) (A) (A) (A) (A) (A) (A) (A) (A) (A) (A) (A)
                 (A) (A) (A) (A) (A) (A) (A) (A) (A) (A) (A) (A)
                 (A) (A) (A) (A) (A) (A) (A) (A) (A) (A) (A) (A)
                 (A) (A) (A) (A) (A) (A) (A) (A) (A) (A) (A) (A)
                 (A) (A) (A) (A) (A) (A) (A) (A) (A) (A) (A) (A)
                 (A) (A) (A) (A) (A) (A) (A) (A) (A) (A) (A) (A)
                 (A) (A) (A) (A) (A) (A) (A) (A) (A) (A) (A) (A)
                 (A) (A) (A) (A) (A) (A) (A) (A) (A) (A) (A) (A)
                 (A) (A) (A) (A) (A) (A) (A) (A) (A) (A) (A) (A)
                 (A) (A) (A) (A) (A) (A) (A) (A) (A) (A) (A) (A)
                 (A) (A) (A) (A) (A) (A) (A) (A) (A) (A) (A) (A)
                 (A) (A) (A) (A) (A) (A) (A) (A) (A) (A) (A) (A)
                 (A) (A) (A) (A) (A) (A) (A) (A) (A) (A) (A) (A)
                 (A) (A) (A) (A) (A) (A) (A) (A) (A) (A) (A) (A)
                 (A) (A) (A) (A) (A) (A) (A) (A) (A) (A) (A) (A)
                 (A) (A) (A) (A) (A) (A) (A) (A) (A) (A) (A) (A)
                 (A) (A) (A) (A) (A) (A) (A) (A) (A) (A) (A) (A)
                 (A) (A) (A) (A) (A) (A) (A) (A) (A) (A) (A) (A)
                 (A) (A) (A) (A) (A) (A) (A) (A) (A) (A) (A) (A)
                 (A) (A) (A) (A) (A) (A) (A) (A) (A) (A) (A) (A)
                 (A) (A) (A) (A) (A) (A) (A) (A) (A) (A) (A) (A)
                 (A) (A) (A) (A) (A) (A) (A) (A) (A) (A) (A) (A)
                 (A) (A) (A) (A) (A) (A) (A) (A) (A) (A) (A) (A)
                 (A) (A) (A) (A) (A) (A) (A) (A) (A) (A) (A) (A)
                 (A) (A) (A) (A) (A) (A) (A) (A) (A) (A) (A) (A)
                 (A) (A) (A) (A) (A) (A) (A) (A) (A) (A) (A) (A)
                 (A) (A) (A) (A) (A) (A) (A) (A) (A) (A) (A) (A)
                 (A) (A) (A) (A) (A) (A) (A) (A) (A) (A) (A) (A)
                 (A) (A) (A) (A) (A) (A) (A) (A) (A) (A) (A) (A)
                 (A) (A) (A) (A) (A) (A) (A) (A) (A) (A) (A) (A)
                 (A) (A) (A) (A) (A) (A) (A) (A) (A) (A) (A) (A)
                 (A) (A) (A) (A) (A) (A) (A) (A) (A) (A) (A) (A)
                 (A) (A) (A) (A) (A) (A) (A) (A) (A) (A) (A) (A)
                 (A) (A) (A) (A) (A) (A) (A) (A) (A) (A) (A) (A)
                 (A) (A) (A) (A) (A) (A) (A) (A) (A) (A) (A) (A)
                 (A) (A) (A) (A) (A) (A) (A) (A) (A) (A) (A) (A)
                 (A) (A) (A) (A) (A) (A) (A) (A) (A) (A) (A) (A)
                 (A) (A) (A) (A) (A) (A) (A) (A) (A) (A) (A) (A)
                 (A) (A) (A) (A) (A) (A) (A) (A) (A) (A) (A) (A)
                 (A) (A) (A) (A) (A) (A) (A) (A) (A) (A) (A) (A)
                 (A) (A) (A) (A) (A) (A) (A) (A) (A) (A) (A) (A)
                 (A) (A) (A) (A) (A) (A) (A) (A) (A) (A) (A) (A)
                 (A) (A) (A) (A) (A) (A) (A) (A) (A) (A) (A) (A)
                 (A) (A) (A) (A) (A) (A) (A) (A) (A) (A) (A) (A)
                 (A) (A) (A) (A) (A) (A) (A) (A) (A) (A) (A) (A)
                 (A) (A) (A) (A) (A) (A) (A) (A) (A) (A) (A) (A)
                 (A) (A) (A) (A) (A) (A) (A) (A) (A) (A) (A) (A)
                 (A) (A) (A) (A) (A) (A) (A) (A) (A) (A) (A) (A)
                 (A) (A) (A) (A) (A) (A) (A) (A) (A) (A) (A) (A)
                 (A) (A) (A) (A) (A) (A) (A) (A) (A) (A) (A) (A)
                 (A) (A) (A) (A) (A) (A) (A) (A) (A) (A) (A) (A)
                 (A) (A) (A) (A) (A) (A) (A) (A) (A) (A) (A) (A)
                 (A) (A) (A) (A) (A) (A) (A) (A) (A) (A) (A) (A)
                 (A) (A) (A) (A) (A) (A) (A) (A) (A) (A) (A) (A)
                 (A) (A) (A) (A) (A) (A) (A) (A) (A) (A) (A) (A)
                 (A) (A) (A) (A) (A) (A) (A) (A) (A) (A) (A) (A)
                 (A) (A) (A) (A) (A) (A) (A) (A) (A) (A) (A) (A)
                 (A) (A) (A) (A) (A) (A) (A) (A) (A) (A) (A) (A)
                 (A) (A) (A) (A) (A) (A) (A) (A) (A) (A) (A) (A)
                 (A) (A) (A) (A) (A) (A) (A) (A) (A) (A) (A) (A)
                 (A) (A) (A) (A) (A) (A) (A) (A) (A) (A) (A) (A)
                 (A) (A) (A) (A) (A) (A) (A) (A) (A) (A) (A) (A)
                 (A) (A) (A) (A) (A) (A) (A) (A) (A) (A) (A) (A)
                 (A) (A) (A) (A) (A) (A) (A) (A) (A) (A) (A) (A)
                 (A) (A) (A) (A) (A) (A) (A) (A) (A) (A) (A) (A)
                 (A) (A) (A) (A) (A) (A) (A) (A) (A) (A) (A) (A)
                 (A) (A) (A) (A) (A) (A) (A) (A) (A) (A) (A) (A)
    20 initial guesses have been made.
 Convergence on wavefunction:    0.001000000000000
 Davidson Disk Diagonalization:  ConvIn= 1.00D-03 SkipCon=T Conv= 1.00D-03.
 Max sub-space:  2000 roots to seek:    20 dimension of matrix:       549360
 Iteration     1 Dimension    20 NMult     0 NNew     20
 CISAX will form    20 AO SS matrices at one time.
 NMat=    20 NSing=    20 JSym2X= 0.
 FoFJK:  IHMeth= 1 ICntrl=       0 DoSepK=T KAlg= 0 I1Cent=           0 FoldK=F
 IRaf=         1 NMat=      40 IRICut=       1 DoRegI=T DoRafI=F ISym2E= 0 IDoP0=3 IntGTp=3.
 FoFCou: FMM=T IPFlag=           0 FMFlag=      100000 FMFlg1=        2001
         NFxFlg=           0 DoJE=F BraDBF=F KetDBF=F FulRan=T
         wScrn=  0.000000 ICntrl=       500 IOpCl=  0 I1Cent=           0 NGrid=           0
         NMat0=   20 NMatS0=     20 NMatT0=    0 NMatD0=   20 NMtDS0=    0 NMtDT0=    0
 Symmetry not used in FoFCou.
 FMM levels:  10  Number of levels for PrismC:   9
 New state      1 was old state      7
 New state      2 was old state      6
 New state      3 was old state      2
 New state      4 was old state      3
 New state      5 was old state      1
 Excitation Energies [eV] at current iteration:
 Root      1 :     2.614396817784001
 Root      2 :     2.619291624013954
 Root      3 :     2.680965063236755
 Root      4 :     2.689705777961749
 Root      5 :     3.045345669460083
 Root      6 :     3.084861228148710
 Root      7 :     3.628401940530253
 Root      8 :     3.669067948322247
 Root      9 :     3.735864361009328
 Root     10 :     3.759201590646120
 Root     11 :     3.848566811732530
 Root     12 :     3.877643571640432
 Root     13 :     4.303193197891990
 Root     14 :     4.306763559708767
 Root     15 :     4.985276327250050
 Root     16 :     4.995646716684011
 Root     17 :     5.256595877095176
 Root     18 :     5.273948919021324
 Root     19 :     5.307801818764305
 Root     20 :     5.344210859001395
 Iteration     2 Dimension    30 NMult    20 NNew     10
 CISAX will form    10 AO SS matrices at one time.
 NMat=    10 NSing=    10 JSym2X= 0.
 New state      1 was old state      3
 Root      1 not converged, maximum delta is    0.191271021269530
 New state      2 was old state      4
 Root      2 not converged, maximum delta is    0.192503093968114
 New state      3 was old state      2
 Root      3 not converged, maximum delta is    0.069826777563423
 New state      4 was old state      1
 Root      4 not converged, maximum delta is    0.089459128806192
 Root      5 not converged, maximum delta is    0.004967305186268
 Excitation Energies [eV] at current iteration:
 Root      1 :     1.801596314296580   Change is   -0.879368748940176
 Root      2 :     1.807204522017645   Change is   -0.882501255944104
 Root      3 :     2.235852382923545   Change is   -0.383439241090409
 Root      4 :     2.239069717712109   Change is   -0.375327100071892
 Root      5 :     3.045190273596323   Change is   -0.000155395863760
 Iteration     3 Dimension    40 NMult    30 NNew     10
 CISAX will form    10 AO SS matrices at one time.
 NMat=    10 NSing=    10 JSym2X= 0.
 Root      1 not converged, maximum delta is    0.072363271774891
 Root      2 not converged, maximum delta is    0.073548485993270
 Root      3 not converged, maximum delta is    0.044028572947735
 Root      4 not converged, maximum delta is    0.042594352159865
 Root      5 has converged.
 Excitation Energies [eV] at current iteration:
 Root      1 :     1.694360639304248   Change is   -0.107235674992332
 Root      2 :     1.698806531761355   Change is   -0.108397990256290
 Root      3 :     2.194394185014456   Change is   -0.041458197909088
 Root      4 :     2.200175403640712   Change is   -0.038894314071398
 Root      5 :     3.045190225623284   Change is   -0.000000047973039
 Iteration     4 Dimension    48 NMult    40 NNew      8
 CISAX will form     8 AO SS matrices at one time.
 NMat=     8 NSing=     8 JSym2X= 0.
 Root      1 not converged, maximum delta is    0.013448952702480
 Root      2 not converged, maximum delta is    0.013736222537200
 Root      3 not converged, maximum delta is    0.009741634775838
 Root      4 not converged, maximum delta is    0.008903010269031
 Root      5 has converged.
 Excitation Energies [eV] at current iteration:
 Root      1 :     1.677655404379703   Change is   -0.016705234924545
 Root      2 :     1.681916961911003   Change is   -0.016889569850351
 Root      3 :     2.187091171951205   Change is   -0.007303013063252
 Root      4 :     2.193398822632043   Change is   -0.006776581008669
 Root      5 :     3.045190225623230   Change is   -0.000000000000054
 Iteration     5 Dimension    56 NMult    48 NNew      8
 CISAX will form     8 AO SS matrices at one time.
 NMat=     8 NSing=     8 JSym2X= 0.
 Root      1 not converged, maximum delta is    0.002237887408754
 Root      2 not converged, maximum delta is    0.002235819700292
 Root      3 not converged, maximum delta is    0.002498016110382
 Root      4 not converged, maximum delta is    0.002386879356408
 Root      5 has converged.
 Excitation Energies [eV] at current iteration:
 Root      1 :     1.675876488385845   Change is   -0.001778915993859
 Root      2 :     1.680145940691400   Change is   -0.001771021219603
 Root      3 :     2.186245248430942   Change is   -0.000845923520263
 Root      4 :     2.192622396115999   Change is   -0.000776426516044
 Root      5 :     3.045190225623257   Change is    0.000000000000027
 Iteration     6 Dimension    64 NMult    56 NNew      8
 CISAX will form     8 AO SS matrices at one time.
 NMat=     8 NSing=     8 JSym2X= 0.
 Root      1 not converged, maximum delta is    0.001407750826793
 Root      2 not converged, maximum delta is    0.001430936007550
 Root      3 not converged, maximum delta is    0.001068878106623
 Root      4 not converged, maximum delta is    0.001014011982898
 Root      5 has converged.
 Excitation Energies [eV] at current iteration:
 Root      1 :     1.675622853186979   Change is   -0.000253635198865
 Root      2 :     1.679891225963406   Change is   -0.000254714727995
 Root      3 :     2.186117003657580   Change is   -0.000128244773361
 Root      4 :     2.192504633781405   Change is   -0.000117762334594
 Root      5 :     3.045190225623284   Change is    0.000000000000027
 Iteration     7 Dimension    72 NMult    64 NNew      8
 CISAX will form     8 AO SS matrices at one time.
 NMat=     8 NSing=     8 JSym2X= 0.
 Root      1 has converged.
 Root      2 has converged.
 Root      3 has converged.
 Root      4 has converged.
 Root      5 has converged.
 Excitation Energies [eV] at current iteration:
 Root      1 :     1.675598679438808   Change is   -0.000024173748171
[...]
 Alpha virt. eigenvalues --    1.83485   1.83847   1.83866   1.84130   1.84158
 Alpha virt. eigenvalues --    1.84483   1.84557   1.84742   1.84917   1.85082
 Alpha virt. eigenvalues --    1.85211   1.85302   1.85381   1.85444   1.85590
 Alpha virt. eigenvalues --    1.85856   1.85974   1.86337   1.86467   1.86607
 Alpha virt. eigenvalues --    1.86662   1.86780   1.86890   1.87000   1.87147
 Alpha virt. eigenvalues --    1.87438   1.87553   1.87727   1.87788   1.87968
 Alpha virt. eigenvalues --    1.87975   1.88133   1.88147   1.88527   1.88642
 Alpha virt. eigenvalues --    1.88891   1.88928   1.89027   1.89232   1.89614
 Alpha virt. eigenvalues --    1.89732   1.89832   1.89853   1.90144   1.90225
 Alpha virt. eigenvalues --    1.90849   1.90858   1.91380   1.91454   1.91544
 Alpha virt. eigenvalues --    1.91545   1.92137   1.92260   1.92615   1.92734
 Alpha virt. eigenvalues --    1.93088   1.93104   1.93443   1.93456   1.94264
 Alpha virt. eigenvalues --    1.94390   1.94768   1.94793   1.95546   1.95580
 Alpha virt. eigenvalues --    1.95767   1.95834   1.96002   1.96102   1.96127
 Alpha virt. eigenvalues --    1.96259   1.96436   1.96701   1.96888   1.97005
 Alpha virt. eigenvalues --    1.97497   1.97556   1.97756   1.97942   1.98120
 Alpha virt. eigenvalues --    1.98276   1.98304   1.98783   1.99024   1.99242
 Alpha virt. eigenvalues --    1.99884   1.99928   2.00678   2.00766   2.01049
 Alpha virt. eigenvalues --    2.01103   2.01460   2.01560   2.01588   2.01777
 Alpha virt. eigenvalues --    2.01779   2.01827   2.02663   2.02892   2.03093
 Alpha virt. eigenvalues --    2.03332   2.03340   2.03474   2.03511   2.03592
 Alpha virt. eigenvalues --    2.03978   2.04142   2.04929   2.05065   2.05582
 Alpha virt. eigenvalues --    2.05620   2.06185   2.06239   2.06986   2.07011
 Alpha virt. eigenvalues --    2.07289   2.07300   2.08505   2.08691   2.08956
 Alpha virt. eigenvalues --    2.09088   2.09564   2.09697   2.10884   2.10986
 Alpha virt. eigenvalues --    2.11289   2.11358   2.11483   2.11646   2.11815
 Alpha virt. eigenvalues --    2.11833   2.12416   2.12571   2.12752   2.12820
 Alpha virt. eigenvalues --    2.12910   2.12940   2.13580   2.13873   2.14202
 Alpha virt. eigenvalues --    2.14240   2.15357   2.15442   2.16030   2.16031
 Alpha virt. eigenvalues --    2.16542   2.16627   2.16859   2.17124   2.17521
 Alpha virt. eigenvalues --    2.17599   2.17809   2.17882   2.17954   2.18175
 Alpha virt. eigenvalues --    2.18431   2.18623   2.18974   2.19185   2.19747
 Alpha virt. eigenvalues --    2.19768   2.20144   2.20193   2.20317   2.20387
 Alpha virt. eigenvalues --    2.21123   2.21255   2.21713   2.21775   2.21825
 Alpha virt. eigenvalues --    2.21850   2.22650   2.22785   2.23291   2.23418
 Alpha virt. eigenvalues --    2.24368   2.24499   2.24954   2.25063   2.26388
 Alpha virt. eigenvalues --    2.26404   2.26884   2.26957   2.27151   2.27207
 Alpha virt. eigenvalues --    2.28241   2.28261   2.29372   2.29384   2.29827
 Alpha virt. eigenvalues --    2.29840   2.30560   2.30569   2.30774   2.31148
 Alpha virt. eigenvalues --    2.31187   2.31287   2.32187   2.32224   2.33181
 Alpha virt. eigenvalues --    2.33239   2.33431   2.33566   2.34088   2.34243
 Alpha virt. eigenvalues --    2.35247   2.35476   2.35855   2.35900   2.36280
 Alpha virt. eigenvalues --    2.36396   2.36456   2.36727   2.37624   2.37762
 Alpha virt. eigenvalues --    2.38328   2.38361   2.38727   2.38961   2.39614
 Alpha virt. eigenvalues --    2.39714   2.40213   2.40285   2.40589   2.40773
 Alpha virt. eigenvalues --    2.41158   2.41373   2.41641   2.41791   2.42074
 Alpha virt. eigenvalues --    2.42144   2.42768   2.43018   2.43046   2.43640
 Alpha virt. eigenvalues --    2.43921   2.44273   2.44749   2.44834   2.44932
 Alpha virt. eigenvalues --    2.45007   2.45514   2.45649   2.46228   2.46404
 Alpha virt. eigenvalues --    2.46439   2.46580   2.46742   2.46902   2.47321
 Alpha virt. eigenvalues --    2.47356   2.47816   2.47828   2.49335   2.49411
 Alpha virt. eigenvalues --    2.49836   2.50171   2.50397   2.50652   2.51207
 Alpha virt. eigenvalues --    2.51223   2.51552   2.51989   2.52337   2.52543
 Alpha virt. eigenvalues --    2.52911   2.53101   2.53909   2.54020   2.54223
 Alpha virt. eigenvalues --    2.54251   2.54746   2.54889   2.55605   2.55621
 Alpha virt. eigenvalues --    2.57965   2.58015   2.58744   2.58839   2.60237
 Alpha virt. eigenvalues --    2.60309   2.60714   2.60858   2.61756   2.61811
 Alpha virt. eigenvalues --    2.62366   2.62635   2.63057   2.63061   2.64037
 Alpha virt. eigenvalues --    2.64152   2.64344   2.64361   2.65032   2.65180
 Alpha virt. eigenvalues --    2.65794   2.65888   2.66754   2.66879   2.66988
 Alpha virt. eigenvalues --    2.67010   2.67913   2.68009   2.68752   2.68959
 Alpha virt. eigenvalues --    2.68964   2.69125   2.69491   2.69525   2.70069
 Alpha virt. eigenvalues --    2.70099   2.70998   2.71081   2.71825   2.72156
 Alpha virt. eigenvalues --    2.72425   2.72666   2.72754   2.72931   2.73217
 Alpha virt. eigenvalues --    2.73376   2.73401   2.73637   2.74437   2.74611
 Alpha virt. eigenvalues --    2.74984   2.75076   2.76449   2.76691   2.76994
 Alpha virt. eigenvalues --    2.77333   2.77532   2.77557   2.78223   2.78290
 Alpha virt. eigenvalues --    2.78617   2.78831   2.79083   2.79234   2.80191
 Alpha virt. eigenvalues --    2.80446   2.80617   2.80691   2.81077   2.81216
 Alpha virt. eigenvalues --    2.81915   2.82034   2.82260   2.82441   2.83772
 Alpha virt. eigenvalues --    2.83831   2.83853   2.83867   2.84452   2.84644
 Alpha virt. eigenvalues --    2.84809   2.84982   2.85617   2.85768   2.86584
 Alpha virt. eigenvalues --    2.87097   2.87100   2.87710   2.88162   2.88255
 Alpha virt. eigenvalues --    2.88541   2.88607   2.88795   2.89034   2.90582
 Alpha virt. eigenvalues --    2.90598   2.90991   2.91286   2.93243   2.93255
 Alpha virt. eigenvalues --    2.93692   2.94299   2.94495   2.94657   2.95394
 Alpha virt. eigenvalues --    2.95468   2.95765   2.96297   2.96305   2.96542
 Alpha virt. eigenvalues --    2.96796   2.97279   2.97918   2.97953   2.98279
 Alpha virt. eigenvalues --    2.98308   2.98464   2.98493   2.98700   2.98702
 Alpha virt. eigenvalues --    2.98844   2.98982   2.99686   2.99723   2.99939
 Alpha virt. eigenvalues --    3.00133   3.00258   3.00321   3.00561   3.00912
 Alpha virt. eigenvalues --    3.01823   3.02036   3.02089   3.02132   3.02744
 Alpha virt. eigenvalues --    3.02836   3.03079   3.03236   3.03427   3.03628
 Alpha virt. eigenvalues --    3.03972   3.04270   3.04352   3.04549   3.04648
 Alpha virt. eigenvalues --    3.04650   3.05271   3.05392   3.06082   3.06212
 Alpha virt. eigenvalues --    3.06855   3.06904   3.07842   3.08245   3.09276
 Alpha virt. eigenvalues --    3.09503   3.09794   3.10352   3.10542   3.10657
 Alpha virt. eigenvalues --    3.11399   3.11427   3.11820   3.12045   3.12222
 Alpha virt. eigenvalues --    3.12276   3.13385   3.13568   3.13608   3.13741
 Alpha virt. eigenvalues --    3.14196   3.14396   3.15909   3.16022   3.17365
 Alpha virt. eigenvalues --    3.17438   3.17798   3.18179   3.18951   3.19228
 Alpha virt. eigenvalues --    3.22410   3.22519   3.24049   3.24357   3.24777
 Alpha virt. eigenvalues --    3.25112   3.26575   3.26607   3.27312   3.27723
 Alpha virt. eigenvalues --    3.29144   3.29207   3.31297   3.31627   3.33103
 Alpha virt. eigenvalues --    3.33521   3.40183   3.40737   3.42736   3.42919
 Alpha virt. eigenvalues --    3.48615   3.48762   3.50125   3.50199   3.50754
 Alpha virt. eigenvalues --    3.51578   3.56654   3.56923   3.59202   3.59257
 Alpha virt. eigenvalues --    3.62433   3.62941   3.66034   3.66289   3.67293
 Alpha virt. eigenvalues --    3.67465   3.73377   3.73943   3.76162   3.76601
          Condensed to atoms (all electrons):
 Mulliken charges:
               1
     1  Mg   0.838863
     2  C   -0.002913
     3  C   -0.094081
     4  C   -0.045888
     5  C   -0.063967
     6  N   -0.256757
     7  C   -0.052479
     8  C   -0.014008
     9  C   -0.087020
    10  C    0.046334
    11  C    0.104836
    12  C    0.053471
    13  C   -0.071839
    14  H    0.036265
    15  N   -0.433136
    16  C    0.168436
    17  C   -0.177162
    18  C   -0.004005
    19  C    0.148730
    20  C    0.110197
    21  C    0.012312
    22  O   -0.249664
    23  C    0.062457
    24  N   -0.341150
    25  C    0.041242
    26  C   -0.028138
    27  C   -0.023984
    28  C    0.074854
    29  C    0.076193
    30  C    0.035136
    31  C   -0.004508
    32  N   -0.310473
    33  C    0.080437
    34  C   -0.169698
    35  C    0.008359
    36  C    0.083031
    37  C    0.127297
    38  C    0.046145
    39  O   -0.188439
    40  C   -0.005368
    41  C    0.212865
    42  O   -0.256969
    43  O   -0.304851
    44  C    0.157663
    45  H   -0.017660
    46  H   -0.016877
    47  H   -0.041518
    48  H    0.000893
    49  H   -0.004022
    50  H    0.025433
    51  H    0.016401
    52  H    0.016594
    53  H    0.011271
    54  H    0.044216
    55  H    0.017778
    56  H    0.017943
    57  H    0.005852
    58  H    0.026739
    59  H    0.039616
    60  H    0.037278
    61  H    0.035624
    62  H    0.031600
    63  H    0.016572
    64  H    0.009386
    65  H    0.023161
    66  H    0.012500
    67  H    0.004685
    68  H    0.006300
    69  H    0.004712
    70  H    0.008784
    71  H    0.018223
    72  H    0.029053
    73  H    0.047624
    74  H    0.009106
    75  H    0.045927
    76  H    0.035078
    77  H    0.042896
    78  H    0.046396
    79  H    0.053811
    80  Mg   0.837805
    81  C   -0.016801
    82  C   -0.087802
    83  C   -0.045493
    84  C   -0.064856
    85  N   -0.254563
    86  C   -0.049853
    87  C   -0.015091
    88  C   -0.090496
    89  C    0.045770
    90  C    0.114381
    91  C    0.062523
    92  C   -0.077905
    93  H    0.034965
    94  N   -0.423476
    95  C    0.162931
    96  C   -0.174634
    97  C   -0.007803
    98  C    0.152108
    99  C    0.099373
   100  C    0.015571
   101  O   -0.253185
   102  C    0.061187
   103  N   -0.350044
   104  C    0.037495
   105  C   -0.019830
   106  C   -0.034806
   107  C    0.088886
   108  C    0.073669
   109  C    0.034724
   110  C   -0.007684
   111  N   -0.324120
   112  C    0.078456
   113  C   -0.163089
   114  C    0.002257
   115  C    0.096209
   116  C    0.131485
   117  C    0.042413
   118  O   -0.187777
   119  C    0.000897
   120  C    0.211284
   121  O   -0.250959
   122  O   -0.305667
   123  C    0.152003
   124  H   -0.019684
   125  H   -0.015577
   126  H   -0.040414
   127  H   -0.000664
   128  H   -0.004324
   129  H    0.022437
   130  H    0.014407
   131  H    0.016254
   132  H    0.013931
   133  H    0.037717
   134  H    0.020751
   135  H    0.019582
   136  H    0.008751
   137  H    0.026122
   138  H    0.039810
   139  H    0.038237
   140  H    0.036408
   141  H    0.033918
   142  H    0.014419
   143  H    0.012409
   144  H    0.025142
   145  H    0.011606
   146  H    0.005659
   147  H    0.006266
   148  H    0.003698
   149  H    0.010926
   150  H    0.018007
   151  H    0.030103
   152  H    0.046129
   153  H    0.008553
   154  H    0.046916
   155  H    0.034989
   156  H    0.043935
   157  H    0.049464
   158  H    0.053661
 Sum of Mulliken charges =  -0.00000
 Mulliken charges with hydrogens summed into heavy atoms:
               1
     1  Mg   0.838863
     2  C   -0.002913
     3  C   -0.111740
     4  C   -0.062765
     5  C   -0.105485
     6  N   -0.256757
     7  C   -0.052479
     8  C   -0.013115
     9  C   -0.091042
    10  C    0.046334
    11  C    0.163264
    12  C    0.108958
    13  C    0.000147
    15  N   -0.433136
    16  C    0.168436
    17  C   -0.177162
    18  C   -0.004005
    19  C    0.148730
    20  C    0.182404
    21  C    0.012312
    22  O   -0.249664
    23  C    0.166959
    24  N   -0.341150
    25  C    0.041242
    26  C   -0.011567
    27  C   -0.014598
    28  C    0.074854
    29  C    0.116540
    30  C    0.046147
    31  C    0.051552
    32  N   -0.310473
    33  C    0.080437
    34  C   -0.169698
    35  C    0.008359
    36  C    0.083031
    37  C    0.229954
    38  C    0.046145
    39  O   -0.188439
    40  C    0.029709
    41  C    0.212865
    42  O   -0.256969
    43  O   -0.304851
    44  C    0.300767
    80  Mg   0.837805
    81  C   -0.016801
    82  C   -0.107486
    83  C   -0.061070
    84  C   -0.105270
    85  N   -0.254563
    86  C   -0.049853
    87  C   -0.015755
    88  C   -0.094820
    89  C    0.045770
    90  C    0.167479
    91  C    0.114170
    92  C   -0.002607
    94  N   -0.423476
    95  C    0.162931
    96  C   -0.174634
    97  C   -0.007803
    98  C    0.152108
    99  C    0.174056
   100  C    0.015571
   101  O   -0.253185
   102  C    0.169750
   103  N   -0.350044
   104  C    0.037495
   105  C   -0.005411
   106  C   -0.022397
   107  C    0.088886
   108  C    0.116076
   109  C    0.044689
   110  C    0.051351
   111  N   -0.324120
   112  C    0.078456
   113  C   -0.163089
   114  C    0.002257
   115  C    0.096209
   116  C    0.233083
   117  C    0.042413
   118  O   -0.187777
   119  C    0.035886
   120  C    0.211284
   121  O   -0.250959
   122  O   -0.305667
   123  C    0.299063
 Electronic spatial extent (au):  <R**2>=         601295.3511
 Charge=             -0.0000 electrons
 Dipole moment (field-independent basis, Debye):
    X=             -1.7525    Y=              1.7771    Z=              6.2900  Tot=              6.7671
 Quadrupole moment (field-independent basis, Debye-Ang):
   XX=           -350.8458   YY=           -477.0223   ZZ=           -511.1068
   XY=            -36.0013   XZ=             24.2740   YZ=             42.7457
 Traceless Quadrupole moment (field-independent basis, Debye-Ang):
   XX=             95.4792   YY=            -30.6973   ZZ=            -64.7818
   XY=            -36.0013   XZ=             24.2740   YZ=             42.7457
 Octapole moment (field-independent basis, Debye-Ang**2):
  XXX=           -966.7834  YYY=            317.7348  ZZZ=            201.5910  XYY=            -93.5722
  XXY=           1491.3994  XXZ=           1692.3291  XZZ=             44.6222  YZZ=            -44.1710
  YYZ=            -87.0854  XYZ=            458.0924
 Hexadecapole moment (field-independent basis, Debye-Ang**3):
 XXXX=        -700441.8009 YYYY=         -33811.5584 ZZZZ=         -16439.6240 XXXY=         -25265.7491
 XXXZ=           2296.1817 YYYX=           1421.4612 YYYZ=            335.1347 ZZZX=           2943.9441
 ZZZY=            373.1296 XXYY=        -130906.8913 XXZZ=        -131596.5851 YYZZ=          -9228.3257
 XXYZ=           9597.3506 YYXZ=          -2016.8108 ZZXY=          -1031.0387
 N-N= 1.234544213471D+04 E-N=-3.417193316913D+04  KE= 4.028802041844D+03
 Leave Link  601 at Sun Sep 12 16:22:10 2021, MaxMem= 23488102400 cpu:              15.9 elap:               0.8
 (Enter /sw/apps/gaussian-16.0/g16/l9999.exe)
 1\1\GINC-BP1-COMPUTE00092\SP\RCAM-B3LYP TD-FC\def2SVP\C68H72Mg2N8O8\OF
 15641\12-Sep-2021\0\\#p cam-b3lyp/Def2SVP td=(nstates=5)\\TDDFT excite
 d states in gaussian\\0,1\Mg,0,0.,0.,0.\C,0,-0.217,-2.218,2.801\C,0,-1
 .255,2.442,2.026\C,0,-0.245,1.85,-2.564\C,0,0.146,-2.824,-2.037\N,0,-0
 .617,-0.009,2.126\C,0,-0.594,-0.908,3.105\C,0,-0.936,-0.309,4.502\C,0,
 -1.773,0.964,4.032\C,0,-1.155,1.168,2.66\C,0,-3.263,0.685,3.863\C,0,0.
 345,0.11,5.299\C,0,0.124,0.397,6.787\H,0,1.168,0.033,7.733\N,0,-0.185,
 1.961,-0.152\C,0,-0.703,2.8,0.777\C,0,-0.62,4.156,0.193\C,0,-0.187,4.0
 15,-1.225\C,0,-0.214,2.583,-1.38\C,0,-0.887,5.406,0.974\C,0,0.181,5.01
 3,-2.277\O,0,0.303,4.69,-3.508\C,0,0.31,6.414,-1.837\N,0,-0.265,-0.413
 ,-2.029\C,0,-0.279,0.569,-2.937\C,0,-0.196,0.024,-4.332\C,0,0.124,-1.5
 33,-4.18\C,0,0.086,-1.632,-2.635\C,0,-1.451,0.205,-5.197\C,0,1.373,-2.
 07,-4.923\C,0,2.626,-1.49,-4.306\N,0,0.15,-2.144,0.303\C,0,0.173,-3.13
 6,-0.688\C,0,0.173,-4.438,0.004\C,0,0.133,-4.111,1.358\C,0,0.083,-2.69
 5,1.502\C,0,0.149,-5.715,-0.623\C,0,0.096,-4.629,2.716\O,0,0.208,-5.74
 7,3.221\C,0,-0.255,-3.428,3.701\C,0,0.717,-3.482,4.848\O,0,1.931,-3.25
 5,4.669\O,0,0.038,-3.556,6.003\C,0,0.943,-3.583,7.183\H,0,-1.859,3.22,
 2.497\H,0,-0.218,2.453,-3.474\H,0,0.276,-3.747,-2.605\H,0,-1.554,-0.94
 9,5.132\H,0,-1.585,1.831,4.665\H,0,-3.484,-0.377,3.969\H,0,-3.511,1.02
 7,2.858\H,0,-3.852,1.301,4.543\H,0,0.669,1.096,4.966\H,0,1.13,-0.639,5
 .189\H,0,-0.844,0.026,7.125\H,0,0.062,1.477,6.921\H,0,-1.344,5.186,1.9
 38\H,0,-1.651,5.963,0.432\H,0,0.007,6.02,1.084\H,0,-0.635,6.744,-1.405
 \H,0,0.665,6.97,-2.704\H,0,1.048,6.466,-1.036\H,0,0.608,0.501,-4.891\H
 ,0,-0.692,-2.156,-4.547\H,0,-1.267,0.74,-6.129\H,0,-2.204,0.714,-4.596
 \H,0,-1.967,-0.72,-5.453\H,0,1.356,-1.759,-5.967\H,0,1.452,-3.157,-4.9
 02\H,0,2.714,-0.522,-4.798\H,0,3.487,-2.121,-4.529\H,0,2.495,-1.303,-3
 .24\H,0,0.867,-6.333,-0.084\H,0,0.404,-5.642,-1.68\H,0,-0.891,-5.999,-
 0.463\H,0,-1.283,-3.581,4.028\H,0,0.698,-4.478,7.755\H,0,0.833,-2.619,
 7.68\H,0,2.,-3.754,6.976\Mg,0,31.53607,2.83253,2.40312\C,0,28.84348,3.
 10455,4.76003\C,0,33.58173,4.10002,4.82042\C,0,33.82977,3.02876,0.2195
 7\C,0,29.13194,2.68382,-0.11556\N,0,31.14586,3.47971,4.48185\C,0,30.09
 598,3.47935,5.28938\C,0,30.4208,3.8276,6.7668\C,0,31.77426,4.65775,6.5
 2621\C,0,32.22146,4.02063,5.21214\C,0,31.53659,6.13876,6.2824\C,0,30.6
 7845,2.54929,7.63948\C,0,30.69604,2.79458,9.14987\H,0,30.15904,1.75988
 ,10.02935\N,0,33.5019,3.00078,2.61707\C,0,34.16417,3.51863,3.67278\C,0
 ,35.59292,3.43243,3.33308\C,0,35.71284,2.97314,1.92262\C,0,34.32214,3.
 00371,1.51629\C,0,36.68372,3.69353,4.33078\C,0,36.88645,2.58456,1.0753
 6\O,0,36.78362,2.44624,-0.19473\C,0,38.17986,2.46199,1.76351\N,0,31.50
 018,3.06637,0.3376\C,0,32.63861,3.0678,-0.37787\C,0,32.35304,2.97167,-
 1.8576\C,0,30.78869,2.66042,-1.97391\C,0,30.40665,2.72154,-0.47869\C,0
 ,32.68695,4.21496,-2.6817\C,0,30.37993,1.40392,-2.79049\C,0,30.83395,0
 .15257,-2.07399\N,0,29.38156,2.69663,2.31551\C,0,28.5748,2.67288,1.156
 78\C,0,27.16747,2.69067,1.60569\C,0,27.25387,2.74723,3.00492\C,0,28.61
 862,2.78392,3.39937\C,0,26.02402,2.70434,0.75807\C,0,26.5008,2.79495,4
 .23752\O,0,25.30963,2.70418,4.53183\C,0,27.49532,3.15608,5.42366\C,0,2
 7.23462,2.20046,6.55562\O,0,27.47016,0.98637,6.42478\O,0,26.9584,2.902
 17,7.66992\C,0,26.70338,1.99826,8.82307\H,0,34.26193,4.69945,5.42614\H
 ,0,34.5821,2.98511,-0.57136\H,0,28.32374,2.54061,-0.83596\H,0,29.6844,
 4.45156,7.2589\H,0,32.50118,4.46403,7.31069\H,0,30.48524,6.36882,6.193
 6\H,0,32.05404,6.37197,5.36104\H,0,32.0249,6.73206,7.06078\H,0,31.7140
 1,2.21714,7.491\H,0,29.96856,1.77958,7.40663\H,0,30.28197,3.77552,9.41
 3\H,0,31.7361,2.84508,9.48114\H,0,36.29344,4.1721,5.23746\H,0,37.34657
 ,4.44614,3.89023\H,0,37.26738,2.79951,4.56038\H,0,38.42765,3.40856,2.2
 3793\H,0,38.87748,2.09035,1.01045\H,0,38.08003,1.72383,2.56711\H,0,32.
 90778,2.15684,-2.30638\H,0,30.24633,3.47838,-2.47052\H,0,33.39242,4.01
 322,-3.50976\H,0,33.08719,4.96824,-2.01618\H,0,31.82913,4.72412,-3.117
 69\H,0,30.88043,1.40425,-3.76191\H,0,29.31332,1.33867,-2.97778\H,0,31.
 87959,0.05762,-2.38173\H,0,30.24843,-0.70654,-2.39512\H,0,30.82185,0.2
 9502,-0.98715\H,0,25.31513,2.00453,1.18024\H,0,26.28411,2.43969,-0.264
 71\H,0,25.72713,3.75269,0.84796\H,0,27.30275,4.19101,5.70902\H,0,25.71
 879,2.26014,9.22266\H,0,27.57062,2.1235,9.49832\H,0,26.57272,0.94307,8
 .61344\\Version=ES64L-G16RevA.03\State=1-A\HF=-4069.8117494\RMSD=4.571
 e-09\PG=C01 [X(C68H72Mg2N8O8)]\\@


 Change starts when someone sees the next step.
                            -- William Drayton
 Job cpu time:       0 days 10 hours 34 minutes 21.5 seconds.
 Elapsed time:       0 days  0 hours 27 minutes  1.5 seconds.
 File lengths (MBytes):  RWF=  13225 Int=      0 D2E=      0 Chk=    574 Scr=      1
 Normal termination of Gaussian 16 at Sun Sep 12 16:22:11 2021.
