 Entering Gaussian System, Link 0=g16
 Initial command:
 /sw/apps/gaussian-16.0/g16/l1.exe "/tmp/Gau-83356.inp" -scrdir="/tmp/"
 Entering Link 1 = /sw/apps/gaussian-16.0/g16/l1.exe PID=     83357.
  
 Copyright (c) 1988,1990,1992,1993,1995,1998,2003,2009,2016,
            Gaussian, Inc.  All Rights Reserved.
  
 This is part of the Gaussian(R) 16 program.  It is based on
 the Gaussian(R) 09 system (copyright 2009, Gaussian, Inc.),
 the Gaussian(R) 03 system (copyright 2003, Gaussian, Inc.),
 the Gaussian(R) 98 system (copyright 1998, Gaussian, Inc.),
 the Gaussian(R) 94 system (copyright 1995, Gaussian, Inc.),
 the Gaussian 92(TM) system (copyright 1992, Gaussian, Inc.),
 the Gaussian 90(TM) system (copyright 1990, Gaussian, Inc.),
 the Gaussian 88(TM) system (copyright 1988, Gaussian, Inc.),
 the Gaussian 86(TM) system (copyright 1986, Carnegie Mellon
 University), and the Gaussian 82(TM) system (copyright 1983,
 Carnegie Mellon University). Gaussian is a federally registered
 trademark of Gaussian, Inc.
  
 This software contains proprietary and confidential information,
 including trade secrets, belonging to Gaussian, Inc.
  
 This software is provided under written license and may be
 used, copied, transmitted, or stored only in accord with that
 written license.
  
 The following legend is applicable only to US Government
 contracts under FAR:
  
                    RESTRICTED RIGHTS LEGEND
  
 Use, reproduction and disclosure by the US Government is
 subject to restrictions as set forth in subparagraphs (a)
 and (c) of the Commercial Computer Software - Restricted
 Rights clause in FAR 52.227-19.
  
 Gaussian, Inc.
 340 Quinnipiac St., Bldg. 40, Wallingford CT 06492
  
  
 ---------------------------------------------------------------
 Warning -- This program may not be used in any manner that
 competes with the business of Gaussian, Inc. or will provide
 assistance to any competitor of Gaussian, Inc.  The licensee
 of this program is prohibited from giving any competitor of
 Gaussian, Inc. access to this program.  By using this program,
 the user acknowledges that Gaussian, Inc. is engaged in the
 business of creating and licensing software in the field of
 computational chemistry and represents and warrants to the
 licensee that it is not a competitor of Gaussian, Inc. and that
 it will not use this program in any manner prohibited above.
 ---------------------------------------------------------------
  

 Cite this work as:
 Gaussian 16, Revision A.03,
 M. J. Frisch, G. W. Trucks, H. B. Schlegel, G. E. Scuseria, 
 M. A. Robb, J. R. Cheeseman, G. Scalmani, V. Barone, 
 G. A. Petersson, H. Nakatsuji, X. Li, M. Caricato, A. V. Marenich, 
 J. Bloino, B. G. Janesko, R. Gomperts, B. Mennucci, H. P. Hratchian, 
 J. V. Ortiz, A. F. Izmaylov, J. L. Sonnenberg, D. Williams-Young, 
 F. Ding, F. Lipparini, F. Egidi, J. Goings, B. Peng, A. Petrone, 
 T. Henderson, D. Ranasinghe, V. G. Zakrzewski, J. Gao, N. Rega, 
 G. Zheng, W. Liang, M. Hada, M. Ehara, K. Toyota, R. Fukuda, 
 J. Hasegawa, M. Ishida, T. Nakajima, Y. Honda, O. Kitao, H. Nakai, 
 T. Vreven, K. Throssell, J. A. Montgomery, Jr., J. E. Peralta, 
 F. Ogliaro, M. J. Bearpark, J. J. Heyd, E. N. Brothers, K. N. Kudin, 
 V. N. Staroverov, T. A. Keith, R. Kobayashi, J. Normand, 
 K. Raghavachari, A. P. Rendell, J. C. Burant, S. S. Iyengar, 
 J. Tomasi, M. Cossi, J. M. Millam, M. Klene, C. Adamo, R. Cammi, 
 J. W. Ochterski, R. L. Martin, K. Morokuma, O. Farkas, 
 J. B. Foresman, and D. J. Fox, Gaussian, Inc., Wallingford CT, 2016.
 
 ******************************************
 Gaussian 16:  ES64L-G16RevA.03 25-Dec-2016
                 9-Sep-2021 
 ******************************************
 %nproc=24
 Will use up to   24 processors via shared memory.
 %mem=175gb
 -----------------------------------
 #p cam-b3lyp/Def2SVP td=(nstates=5)
 -----------------------------------
 1/38=1,172=1/1;
 2/12=2,17=6,18=5,40=1/2;
 3/5=43,7=101,11=9,25=1,30=1,74=-40/1,2,3,8;
 4//1;
 5/5=2,38=5/2;
 8/6=1,10=1,108=5/1;
 9/41=5,42=1,70=2/14;
 6/7=2,8=2,9=2,10=2/1;
 99/5=1,9=1/99;
 Leave Link    1 at Thu Sep  9 12:21:33 2021, MaxMem= 23488102400 cpu:               0.9 elap:               0.0
 (Enter /sw/apps/gaussian-16.0/g16/l101.exe)
 --------------------------------
 TDDFT excited states in gaussian
 --------------------------------
 Symbolic Z-matrix:
 Charge =  0 Multiplicity = 1
 Mg                    0.        0.        0. 
 C                    -0.217    -2.218     2.801 
 C                    -1.255     2.442     2.026 
 C                    -0.245     1.85     -2.564 
 C                     0.146    -2.824    -2.037 
 N                    -0.617    -0.009     2.126 
 C                    -0.594    -0.908     3.105 
 C                    -0.936    -0.309     4.502 
 C                    -1.773     0.964     4.032 
 C                    -1.155     1.168     2.66 
 C                    -3.263     0.685     3.863 
 C                     0.345     0.11      5.299 
 C                     0.124     0.397     6.787 
 H                     1.168     0.033     7.733 
 N                    -0.185     1.961    -0.152 
 C                    -0.703     2.8       0.777 
 C                    -0.62      4.156     0.193 
 C                    -0.187     4.015    -1.225 
 C                    -0.214     2.583    -1.38 
 C                    -0.887     5.406     0.974 
 C                     0.181     5.013    -2.277 
 O                     0.303     4.69     -3.508 
 C                     0.31      6.414    -1.837 
 N                    -0.265    -0.413    -2.029 
 C                    -0.279     0.569    -2.937 
 C                    -0.196     0.024    -4.332 
 C                     0.124    -1.533    -4.18 
 C                     0.086    -1.632    -2.635 
 C                    -1.451     0.205    -5.197 
 C                     1.373    -2.07     -4.923 
 C                     2.626    -1.49     -4.306 
 N                     0.15     -2.144     0.303 
 C                     0.173    -3.136    -0.688 
 C                     0.173    -4.438     0.004 
 C                     0.133    -4.111     1.358 
 C                     0.083    -2.695     1.502 
 C                     0.149    -5.715    -0.623 
 C                     0.096    -4.629     2.716 
 O                     0.208    -5.747     3.221 
 C                    -0.255    -3.428     3.701 
 C                     0.717    -3.482     4.848 
 O                     1.931    -3.255     4.669 
 O                     0.038    -3.556     6.003 
 C                     0.943    -3.583     7.183 
 H                    -1.859     3.22      2.497 
 H                    -0.218     2.453    -3.474 
 H                     0.276    -3.747    -2.605 
 H                    -1.554    -0.949     5.132 
 H                    -1.585     1.831     4.665 
 H                    -3.484    -0.377     3.969 
 H                    -3.511     1.027     2.858 
 H                    -3.852     1.301     4.543 
 H                     0.669     1.096     4.966 
 H                     1.13     -0.639     5.189 
 H                    -0.844     0.026     7.125 
 H                     0.062     1.477     6.921 
 H                    -1.344     5.186     1.938 
 H                    -1.651     5.963     0.432 
 H                     0.007     6.02      1.084 
 H                    -0.635     6.744    -1.405 
 H                     0.665     6.97     -2.704 
 H                     1.048     6.466    -1.036 
 H                     0.608     0.501    -4.891 
 H                    -0.692    -2.156    -4.547 
 H                    -1.267     0.74     -6.129 
 H                    -2.204     0.714    -4.596 
 H                    -1.967    -0.72     -5.453 
 H                     1.356    -1.759    -5.967 
 H                     1.452    -3.157    -4.902 
 H                     2.714    -0.522    -4.798 
 H                     3.487    -2.121    -4.529 
 H                     2.495    -1.303    -3.24 
 H                     0.867    -6.333    -0.084 
 H                     0.404    -5.642    -1.68 
 H                    -0.891    -5.999    -0.463 
 H                    -1.283    -3.581     4.028 
 H                     0.698    -4.478     7.755 
 H                     0.833    -2.619     7.68 
 H                     2.       -3.754     6.976 
 Mg                    8.9419    0.79766   0.68167 
 C                     9.14514  -1.33818  -2.19513 
 C                     8.17039  -1.98048   2.50412 
 C                     8.31458   2.70499   3.1385 
 C                     8.59737   3.48497  -1.51043 
 N                     8.7174   -1.32851   0.11485 
 C                     8.87905  -2.03152  -0.996 
 C                     8.82767  -3.57009  -0.79667 
 C                     7.96336  -3.60856   0.55624 
 C                     8.32838  -2.23626   1.11858 
 C                     6.46387  -3.64109   0.31171 
 C                     10.25215  -4.19343  -0.58619 
 C                     10.3089  -5.71887  -0.69381 
 H                     11.49767  -6.3315   -1.28031 
 N                     8.81464   0.39455   2.62072 
 C                     8.51322  -0.79281   3.18693 
 C                     8.52766  -0.56102   4.63959 
 C                     8.70009   0.89743   4.8802 
 C                     8.59326   1.40243   3.52608 
 C                     8.46558  -1.6765    5.64223 
 C                     8.91167   1.70535   6.12466 
 O                     8.79753   2.98199   6.12618 
 C                     9.16438   0.95096   7.361 
 N                     8.30617   2.77315   0.80662 
 C                     8.16139   3.37874   1.99836 
 C                     7.96504   4.86694   1.83371 
 C                     8.25083   5.16976   0.28963 
 C                     8.48606   3.72798  -0.2117 
 C                     6.58313   5.40121   2.20956 
 C                     9.32294   6.24744  -0.02951 
 C                     10.68982   5.75533   0.38867 
 N                     9.06274   1.08642  -1.4561 
 C                     8.85977   2.28945  -2.16715 
 C                     8.93384   1.9626   -3.60593 
 C                     9.1536    0.57715  -3.63264 
 C                     9.1922    0.07269  -2.30466 
 C                     8.75618   2.88189  -4.67807 
 C                     9.3511   -0.57499  -4.48251 
 O                     9.50069  -0.74719  -5.69152 
 C                     9.22825  -1.88631  -3.59272 
 C                     10.38856  -2.78379  -3.92546 
 O                     11.55262  -2.4373   -3.65802 
 O                     9.92052  -3.98756  -4.30263 
 C                     11.03428  -4.91635  -4.63234 
 H                     7.70038  -2.74559   3.12266 
 H                     8.20002   3.42479   3.95228 
 H                     8.5978    4.28321  -2.25575 
 H                     8.31442  -4.11291  -1.58134 
 H                     8.30606  -4.39673   1.2216 
 H                     6.22319  -3.51328  -0.73322 
 H                     6.05272  -2.82886   0.89676 
 H                     6.03428  -4.55799   0.72533 
 H                     10.54625  -4.06809   0.46383 
 H                     10.96257  -3.75689  -1.26099 
 H                     9.39987  -6.13432  -1.14549 
 H                     10.32225  -6.13769   0.31536 
 H                     8.17571  -2.6243    5.17207 
 H                     7.63951  -1.4478    6.32426 
 H                     9.386    -1.77347   6.22197 
 H                     8.32915   0.28156   7.5527 
 H                     9.37896   1.70251   8.12323 
 H                     10.04649   0.31855   7.21083 
 H                     8.67436   5.41972   2.43737 
 H                     7.35234   5.53917  -0.22623 
 H                     6.61636   6.19212   2.9825 
 H                     5.97468   4.57046   2.54149 
 H                     6.00005   5.79775   1.38012 
 H                     9.1303    7.15562   0.5469 
 H                     9.35245   6.53063  -1.07637 
 H                     10.71999   5.98899   1.45712 
 H                     11.47023   6.28548  -0.15349 
 H                     10.76409   4.66637   0.28717 
 H                     9.52698   2.66457  -5.40548 
 H                     8.81376   3.91188  -4.3323 
 H                     7.74669   2.61292  -5.00035 
 H                     8.27017  -2.3522   -3.82639 
 H                     10.85838  -5.27747  -5.65035 
 H                     11.04245  -5.67178  -3.82426 
 H                     12.02787  -4.494    -4.72648 
 
 ITRead=  0  0  0  0  0  0  0  0  0  0  0  0  0  0  0  0  0  0  0  0
 ITRead=  0  0  0  0  0  0  0  0  0  0  0  0  0  0  0  0  0  0  0  0
 ITRead=  0  0  0  0  0  0  0  0  0  0  0  0  0  0  0  0  0  0  0  0
 ITRead=  0  0  0  0  0  0  0  0  0  0  0  0  0  0  0  0  0  0  0  0
 ITRead=  0  0  0  0  0  0  0  0  0  0  0  0  0  0  0  0  0  0  0  0
 ITRead=  0  0  0  0  0  0  0  0  0  0  0  0  0  0  0  0  0  0  0  0
 ITRead=  0  0  0  0  0  0  0  0  0  0  0  0  0  0  0  0  0  0  0  0
 ITRead=  0  0  0  0  0  0  0  0  0  0  0  0  0  0  0  0  0  0
 MicOpt= -1 -1 -1 -1 -1 -1 -1 -1 -1 -1 -1 -1 -1 -1 -1 -1 -1 -1 -1 -1
 MicOpt= -1 -1 -1 -1 -1 -1 -1 -1 -1 -1 -1 -1 -1 -1 -1 -1 -1 -1 -1 -1
 MicOpt= -1 -1 -1 -1 -1 -1 -1 -1 -1 -1 -1 -1 -1 -1 -1 -1 -1 -1 -1 -1
 MicOpt= -1 -1 -1 -1 -1 -1 -1 -1 -1 -1 -1 -1 -1 -1 -1 -1 -1 -1 -1 -1
 MicOpt= -1 -1 -1 -1 -1 -1 -1 -1 -1 -1 -1 -1 -1 -1 -1 -1 -1 -1 -1 -1
 MicOpt= -1 -1 -1 -1 -1 -1 -1 -1 -1 -1 -1 -1 -1 -1 -1 -1 -1 -1 -1 -1
 MicOpt= -1 -1 -1 -1 -1 -1 -1 -1 -1 -1 -1 -1 -1 -1 -1 -1 -1 -1 -1 -1
 MicOpt= -1 -1 -1 -1 -1 -1 -1 -1 -1 -1 -1 -1 -1 -1 -1 -1 -1 -1
 NAtoms=    158 NQM=      158 NQMF=       0 NMMI=      0 NMMIF=      0
                NMic=       0 NMicF=      0.
                    Isotopes and Nuclear Properties:
 (Nuclear quadrupole moments (NQMom) in fm**2, nuclear magnetic moments (NMagM)
  in nuclear magnetons)

  Atom         1           2           3           4           5           6           7           8           9          10
 IAtWgt=          24          12          12          12          12          14          12          12          12          12
 AtmWgt=  23.9850450  12.0000000  12.0000000  12.0000000  12.0000000  14.0030740  12.0000000  12.0000000  12.0000000  12.0000000
 NucSpn=           0           0           0           0           0           2           0           0           0           0
 AtZEff=  -0.0000000  -0.0000000  -0.0000000  -0.0000000  -0.0000000  -0.0000000  -0.0000000  -0.0000000  -0.0000000  -0.0000000
 NQMom=    0.0000000   0.0000000   0.0000000   0.0000000   0.0000000   2.0440000   0.0000000   0.0000000   0.0000000   0.0000000
 NMagM=    0.0000000   0.0000000   0.0000000   0.0000000   0.0000000   0.4037610   0.0000000   0.0000000   0.0000000   0.0000000
 AtZNuc=  12.0000000   6.0000000   6.0000000   6.0000000   6.0000000   7.0000000   6.0000000   6.0000000   6.0000000   6.0000000

  Atom        11          12          13          14          15          16          17          18          19          20
 IAtWgt=          12          12          12           1          14          12          12          12          12          12
 AtmWgt=  12.0000000  12.0000000  12.0000000   1.0078250  14.0030740  12.0000000  12.0000000  12.0000000  12.0000000  12.0000000
 NucSpn=           0           0           0           1           2           0           0           0           0           0
 AtZEff=  -0.0000000  -0.0000000  -0.0000000  -0.0000000  -0.0000000  -0.0000000  -0.0000000  -0.0000000  -0.0000000  -0.0000000
 NQMom=    0.0000000   0.0000000   0.0000000   0.0000000   2.0440000   0.0000000   0.0000000   0.0000000   0.0000000   0.0000000
 NMagM=    0.0000000   0.0000000   0.0000000   2.7928460   0.4037610   0.0000000   0.0000000   0.0000000   0.0000000   0.0000000
 AtZNuc=   6.0000000   6.0000000   6.0000000   1.0000000   7.0000000   6.0000000   6.0000000   6.0000000   6.0000000   6.0000000

  Atom        21          22          23          24          25          26          27          28          29          30
 IAtWgt=          12          16          12          14          12          12          12          12          12          12
 AtmWgt=  12.0000000  15.9949146  12.0000000  14.0030740  12.0000000  12.0000000  12.0000000  12.0000000  12.0000000  12.0000000
 NucSpn=           0           0           0           2           0           0           0           0           0           0
 AtZEff=  -0.0000000  -0.0000000  -0.0000000  -0.0000000  -0.0000000  -0.0000000  -0.0000000  -0.0000000  -0.0000000  -0.0000000
 NQMom=    0.0000000   0.0000000   0.0000000   2.0440000   0.0000000   0.0000000   0.0000000   0.0000000   0.0000000   0.0000000
 NMagM=    0.0000000   0.0000000   0.0000000   0.4037610   0.0000000   0.0000000   0.0000000   0.0000000   0.0000000   0.0000000
 AtZNuc=   6.0000000   8.0000000   6.0000000   7.0000000   6.0000000   6.0000000   6.0000000   6.0000000   6.0000000   6.0000000

  Atom        31          32          33          34          35          36          37          38          39          40
 IAtWgt=          12          14          12          12          12          12          12          12          16          12
 AtmWgt=  12.0000000  14.0030740  12.0000000  12.0000000  12.0000000  12.0000000  12.0000000  12.0000000  15.9949146  12.0000000
 NucSpn=           0           2           0           0           0           0           0           0           0           0
 AtZEff=  -0.0000000  -0.0000000  -0.0000000  -0.0000000  -0.0000000  -0.0000000  -0.0000000  -0.0000000  -0.0000000  -0.0000000
 NQMom=    0.0000000   2.0440000   0.0000000   0.0000000   0.0000000   0.0000000   0.0000000   0.0000000   0.0000000   0.0000000
 NMagM=    0.0000000   0.4037610   0.0000000   0.0000000   0.0000000   0.0000000   0.0000000   0.0000000   0.0000000   0.0000000
 AtZNuc=   6.0000000   7.0000000   6.0000000   6.0000000   6.0000000   6.0000000   6.0000000   6.0000000   8.0000000   6.0000000

  Atom        41          42          43          44          45          46          47          48          49          50
 IAtWgt=          12          16          16          12           1           1           1           1           1           1
 AtmWgt=  12.0000000  15.9949146  15.9949146  12.0000000   1.0078250   1.0078250   1.0078250   1.0078250   1.0078250   1.0078250
 NucSpn=           0           0           0           0           1           1           1           1           1           1
 AtZEff=  -0.0000000  -0.0000000  -0.0000000  -0.0000000  -0.0000000  -0.0000000  -0.0000000  -0.0000000  -0.0000000  -0.0000000
 NQMom=    0.0000000   0.0000000   0.0000000   0.0000000   0.0000000   0.0000000   0.0000000   0.0000000   0.0000000   0.0000000
 NMagM=    0.0000000   0.0000000   0.0000000   0.0000000   2.7928460   2.7928460   2.7928460   2.7928460   2.7928460   2.7928460
 AtZNuc=   6.0000000   8.0000000   8.0000000   6.0000000   1.0000000   1.0000000   1.0000000   1.0000000   1.0000000   1.0000000

  Atom        51          52          53          54          55          56          57          58          59          60
 IAtWgt=           1           1           1           1           1           1           1           1           1           1
 AtmWgt=   1.0078250   1.0078250   1.0078250   1.0078250   1.0078250   1.0078250   1.0078250   1.0078250   1.0078250   1.0078250
 NucSpn=           1           1           1           1           1           1           1           1           1           1
 AtZEff=  -0.0000000  -0.0000000  -0.0000000  -0.0000000  -0.0000000  -0.0000000  -0.0000000  -0.0000000  -0.0000000  -0.0000000
 NQMom=    0.0000000   0.0000000   0.0000000   0.0000000   0.0000000   0.0000000   0.0000000   0.0000000   0.0000000   0.0000000
 NMagM=    2.7928460   2.7928460   2.7928460   2.7928460   2.7928460   2.7928460   2.7928460   2.7928460   2.7928460   2.7928460
 AtZNuc=   1.0000000   1.0000000   1.0000000   1.0000000   1.0000000   1.0000000   1.0000000   1.0000000   1.0000000   1.0000000

  Atom        61          62          63          64          65          66          67          68          69          70
 IAtWgt=           1           1           1           1           1           1           1           1           1           1
 AtmWgt=   1.0078250   1.0078250   1.0078250   1.0078250   1.0078250   1.0078250   1.0078250   1.0078250   1.0078250   1.0078250
 NucSpn=           1           1           1           1           1           1           1           1           1           1
 AtZEff=  -0.0000000  -0.0000000  -0.0000000  -0.0000000  -0.0000000  -0.0000000  -0.0000000  -0.0000000  -0.0000000  -0.0000000
 NQMom=    0.0000000   0.0000000   0.0000000   0.0000000   0.0000000   0.0000000   0.0000000   0.0000000   0.0000000   0.0000000
 NMagM=    2.7928460   2.7928460   2.7928460   2.7928460   2.7928460   2.7928460   2.7928460   2.7928460   2.7928460   2.7928460
 AtZNuc=   1.0000000   1.0000000   1.0000000   1.0000000   1.0000000   1.0000000   1.0000000   1.0000000   1.0000000   1.0000000

  Atom        71          72          73          74          75          76          77          78          79          80
 IAtWgt=           1           1           1           1           1           1           1           1           1          24
 AtmWgt=   1.0078250   1.0078250   1.0078250   1.0078250   1.0078250   1.0078250   1.0078250   1.0078250   1.0078250  23.9850450
 NucSpn=           1           1           1           1           1           1           1           1           1           0
 AtZEff=  -0.0000000  -0.0000000  -0.0000000  -0.0000000  -0.0000000  -0.0000000  -0.0000000  -0.0000000  -0.0000000  -0.0000000
 NQMom=    0.0000000   0.0000000   0.0000000   0.0000000   0.0000000   0.0000000   0.0000000   0.0000000   0.0000000   0.0000000
 NMagM=    2.7928460   2.7928460   2.7928460   2.7928460   2.7928460   2.7928460   2.7928460   2.7928460   2.7928460   0.0000000
 AtZNuc=   1.0000000   1.0000000   1.0000000   1.0000000   1.0000000   1.0000000   1.0000000   1.0000000   1.0000000  12.0000000

  Atom        81          82          83          84          85          86          87          88          89          90
 IAtWgt=          12          12          12          12          14          12          12          12          12          12
 AtmWgt=  12.0000000  12.0000000  12.0000000  12.0000000  14.0030740  12.0000000  12.0000000  12.0000000  12.0000000  12.0000000
 NucSpn=           0           0           0           0           2           0           0           0           0           0
 AtZEff=  -0.0000000  -0.0000000  -0.0000000  -0.0000000  -0.0000000  -0.0000000  -0.0000000  -0.0000000  -0.0000000  -0.0000000
 NQMom=    0.0000000   0.0000000   0.0000000   0.0000000   2.0440000   0.0000000   0.0000000   0.0000000   0.0000000   0.0000000
 NMagM=    0.0000000   0.0000000   0.0000000   0.0000000   0.4037610   0.0000000   0.0000000   0.0000000   0.0000000   0.0000000
 AtZNuc=   6.0000000   6.0000000   6.0000000   6.0000000   7.0000000   6.0000000   6.0000000   6.0000000   6.0000000   6.0000000

  Atom        91          92          93          94          95          96          97          98          99         100
 IAtWgt=          12          12           1          14          12          12          12          12          12          12
 AtmWgt=  12.0000000  12.0000000   1.0078250  14.0030740  12.0000000  12.0000000  12.0000000  12.0000000  12.0000000  12.0000000
 NucSpn=           0           0           1           2           0           0           0           0           0           0
 AtZEff=  -0.0000000  -0.0000000  -0.0000000  -0.0000000  -0.0000000  -0.0000000  -0.0000000  -0.0000000  -0.0000000  -0.0000000
 NQMom=    0.0000000   0.0000000   0.0000000   2.0440000   0.0000000   0.0000000   0.0000000   0.0000000   0.0000000   0.0000000
 NMagM=    0.0000000   0.0000000   2.7928460   0.4037610   0.0000000   0.0000000   0.0000000   0.0000000   0.0000000   0.0000000
 AtZNuc=   6.0000000   6.0000000   1.0000000   7.0000000   6.0000000   6.0000000   6.0000000   6.0000000   6.0000000   6.0000000

  Atom       101         102         103         104         105         106         107         108         109         110
 IAtWgt=          16          12          14          12          12          12          12          12          12          12
 AtmWgt=  15.9949146  12.0000000  14.0030740  12.0000000  12.0000000  12.0000000  12.0000000  12.0000000  12.0000000  12.0000000
 NucSpn=           0           0           2           0           0           0           0           0           0           0
 AtZEff=  -0.0000000  -0.0000000  -0.0000000  -0.0000000  -0.0000000  -0.0000000  -0.0000000  -0.0000000  -0.0000000  -0.0000000
 NQMom=    0.0000000   0.0000000   2.0440000   0.0000000   0.0000000   0.0000000   0.0000000   0.0000000   0.0000000   0.0000000
 NMagM=    0.0000000   0.0000000   0.4037610   0.0000000   0.0000000   0.0000000   0.0000000   0.0000000   0.0000000   0.0000000
 AtZNuc=   8.0000000   6.0000000   7.0000000   6.0000000   6.0000000   6.0000000   6.0000000   6.0000000   6.0000000   6.0000000

  Atom       111         112         113         114         115         116         117         118         119         120
 IAtWgt=          14          12          12          12          12          12          12          16          12          12
 AtmWgt=  14.0030740  12.0000000  12.0000000  12.0000000  12.0000000  12.0000000  12.0000000  15.9949146  12.0000000  12.0000000
 NucSpn=           2           0           0           0           0           0           0           0           0           0
 AtZEff=  -0.0000000  -0.0000000  -0.0000000  -0.0000000  -0.0000000  -0.0000000  -0.0000000  -0.0000000  -0.0000000  -0.0000000
 NQMom=    2.0440000   0.0000000   0.0000000   0.0000000   0.0000000   0.0000000   0.0000000   0.0000000   0.0000000   0.0000000
 NMagM=    0.4037610   0.0000000   0.0000000   0.0000000   0.0000000   0.0000000   0.0000000   0.0000000   0.0000000   0.0000000
 AtZNuc=   7.0000000   6.0000000   6.0000000   6.0000000   6.0000000   6.0000000   6.0000000   8.0000000   6.0000000   6.0000000

  Atom       121         122         123         124         125         126         127         128         129         130
 IAtWgt=          16          16          12           1           1           1           1           1           1           1
 AtmWgt=  15.9949146  15.9949146  12.0000000   1.0078250   1.0078250   1.0078250   1.0078250   1.0078250   1.0078250   1.0078250
 NucSpn=           0           0           0           1           1           1           1           1           1           1
 AtZEff=  -0.0000000  -0.0000000  -0.0000000  -0.0000000  -0.0000000  -0.0000000  -0.0000000  -0.0000000  -0.0000000  -0.0000000
 NQMom=    0.0000000   0.0000000   0.0000000   0.0000000   0.0000000   0.0000000   0.0000000   0.0000000   0.0000000   0.0000000
 NMagM=    0.0000000   0.0000000   0.0000000   2.7928460   2.7928460   2.7928460   2.7928460   2.7928460   2.7928460   2.7928460
 AtZNuc=   8.0000000   8.0000000   6.0000000   1.0000000   1.0000000   1.0000000   1.0000000   1.0000000   1.0000000   1.0000000

  Atom       131         132         133         134         135         136         137         138         139         140
 IAtWgt=           1           1           1           1           1           1           1           1           1           1
 AtmWgt=   1.0078250   1.0078250   1.0078250   1.0078250   1.0078250   1.0078250   1.0078250   1.0078250   1.0078250   1.0078250
 NucSpn=           1           1           1           1           1           1           1           1           1           1
 AtZEff=  -0.0000000  -0.0000000  -0.0000000  -0.0000000  -0.0000000  -0.0000000  -0.0000000  -0.0000000  -0.0000000  -0.0000000
 NQMom=    0.0000000   0.0000000   0.0000000   0.0000000   0.0000000   0.0000000   0.0000000   0.0000000   0.0000000   0.0000000
 NMagM=    2.7928460   2.7928460   2.7928460   2.7928460   2.7928460   2.7928460   2.7928460   2.7928460   2.7928460   2.7928460
 AtZNuc=   1.0000000   1.0000000   1.0000000   1.0000000   1.0000000   1.0000000   1.0000000   1.0000000   1.0000000   1.0000000

  Atom       141         142         143         144         145         146         147         148         149         150
 IAtWgt=           1           1           1           1           1           1           1           1           1           1
 AtmWgt=   1.0078250   1.0078250   1.0078250   1.0078250   1.0078250   1.0078250   1.0078250   1.0078250   1.0078250   1.0078250
 NucSpn=           1           1           1           1           1           1           1           1           1           1
 AtZEff=  -0.0000000  -0.0000000  -0.0000000  -0.0000000  -0.0000000  -0.0000000  -0.0000000  -0.0000000  -0.0000000  -0.0000000
 NQMom=    0.0000000   0.0000000   0.0000000   0.0000000   0.0000000   0.0000000   0.0000000   0.0000000   0.0000000   0.0000000
 NMagM=    2.7928460   2.7928460   2.7928460   2.7928460   2.7928460   2.7928460   2.7928460   2.7928460   2.7928460   2.7928460
 AtZNuc=   1.0000000   1.0000000   1.0000000   1.0000000   1.0000000   1.0000000   1.0000000   1.0000000   1.0000000   1.0000000

  Atom       151         152         153         154         155         156         157         158
 IAtWgt=           1           1           1           1           1           1           1           1
 AtmWgt=   1.0078250   1.0078250   1.0078250   1.0078250   1.0078250   1.0078250   1.0078250   1.0078250
 NucSpn=           1           1           1           1           1           1           1           1
 AtZEff=  -0.0000000  -0.0000000  -0.0000000  -0.0000000  -0.0000000  -0.0000000  -0.0000000  -0.0000000
 NQMom=    0.0000000   0.0000000   0.0000000   0.0000000   0.0000000   0.0000000   0.0000000   0.0000000
 NMagM=    2.7928460   2.7928460   2.7928460   2.7928460   2.7928460   2.7928460   2.7928460   2.7928460
 AtZNuc=   1.0000000   1.0000000   1.0000000   1.0000000   1.0000000   1.0000000   1.0000000   1.0000000
 Leave Link  101 at Thu Sep  9 12:21:33 2021, MaxMem= 23488102400 cpu:               3.4 elap:               0.2
 (Enter /sw/apps/gaussian-16.0/g16/l202.exe)
 Stoichiometry    C68H72Mg2N8O8
 Framework group  C1[X(C68H72Mg2N8O8)]
 Deg. of freedom   468
 Full point group                 C1      NOp   1
 Largest Abelian subgroup         C1      NOp   1
 Largest concise Abelian subgroup C1      NOp   1
                         Standard orientation:                         
 ---------------------------------------------------------------------
 Center     Atomic      Atomic             Coordinates (Angstroms)
 Number     Number       Type             X           Y           Z
 ---------------------------------------------------------------------
      1         12           0        4.234815   -1.325881    0.201446
      2          6           0        5.110828    1.405164   -1.940098
      3          6           0        5.800830    0.348117    2.728972
      4          6           0        3.872709   -3.915960    1.995042
      5          6           0        3.763468   -3.237099   -2.674444
      6          7           0        5.283509    0.622736    0.262921
      7          6           0        5.497402    1.600223   -0.612259
      8          6           0        6.103496    2.883448    0.030671
      9          6           0        6.778686    2.225868    1.316636
     10          6           0        5.880223    1.011095    1.468342
     11          6           0        8.208976    1.752315    1.078898
     12          6           0        5.004157    3.924494    0.429930
     13          6           0        5.521920    5.327549    0.759643
     14          1           0        4.712602    6.478078    0.387306
     15          7           0        4.315603   -1.547555    2.162869
     16          6           0        4.987283   -0.762984    3.039557
     17          6           0        4.736692   -1.340047    4.377796
     18          6           0        4.021359   -2.632658    4.189251
     19          6           0        4.065027   -2.764870    2.755378
     20          6           0        5.117806   -0.654551    5.653961
     21          6           0        3.406651   -3.601035    5.149726
     22          8           0        3.040729   -4.773057    4.793298
     23          6           0        3.324104   -3.168254    6.556470
     24          7           0        4.082987   -3.357731   -0.252613
     25          6           0        3.872292   -4.265372    0.706959
     26          6           0        3.517832   -5.602029    0.125889
     27          6           0        3.291085   -5.359023   -1.435933
     28          6           0        3.655380   -3.855048   -1.496087
     29          6           0        4.556667   -6.714545    0.323732
     30          6           0        1.933562   -5.813378   -2.028478
     31          6           0        0.818274   -4.956976   -1.471875
     32          7           0        4.226227   -0.960771   -1.938102
     33          6           0        4.030580   -1.907335   -2.954179
     34          6           0        4.220817   -1.208196   -4.238345
     35          6           0        4.532243    0.101226   -3.877412
     36          6           0        4.562070    0.206777   -2.457460
     37          6           0        4.157269   -1.803859   -5.528919
     38          6           0        4.870939    1.429927   -4.360832
     39          8           0        4.906155    1.966609   -5.469086
     40          6           0        5.378583    2.298030   -3.126117
     41          6           0        4.670965    3.624494   -3.181612
     42          8           0        3.439269    3.700765   -2.995941
     43          8           0        5.579050    4.612059   -3.206850
     44          6           0        4.942880    5.956225   -3.232531
     45          1           0        6.462703    0.667979    3.536161
     46          1           0        3.634700   -4.810327    2.574610
     47          1           0        3.549495   -3.748892   -3.614517
     48          1           0        6.861639    3.380522   -0.574772
     49          1           0        6.697479    2.869024    2.192694
     50          1           0        8.484047    1.827996    0.026981
     51          1           0        8.228857    0.711829    1.403686
     52          1           0        8.905612    2.282453    1.728843
     53          1           0        4.583513    3.649898    1.397255
     54          1           0        4.240045    3.995053   -0.344978
     55          1           0        6.551548    5.460925    0.426496
     56          1           0        5.573053    5.426663    1.843969
     57          1           0        5.774010    0.195527    5.471453
     58          1           0        5.731455   -1.354676    6.220501
     59          1           0        4.245915   -0.369802    6.243076
     60          1           0        4.326593   -2.950385    6.925384
     61          1           0        2.776221   -3.950817    7.080178
     62          1           0        2.768967   -2.231045    6.605563
     63          1           0        2.598473   -5.987757    0.564546
     64          1           0        4.033220   -5.878435   -2.042663
     65          1           0        4.162993   -7.596226    0.830057
     66          1           0        5.400726   -6.294238    0.869806
     67          1           0        5.039398   -7.057122   -0.591160
     68          1           0        1.720619   -6.842886   -1.742619
     69          1           0        1.898536   -5.757284   -3.116540
     70          1           0        0.595556   -5.436291   -0.519254
     71          1           0       -0.047881   -4.982957   -2.133927
     72          1           0        1.163144   -3.945762   -1.255090
     73          1           0        3.590061   -1.115273   -6.155092
     74          1           0        3.684079   -2.784744   -5.489441
     75          1           0        5.216935   -1.861131   -5.777283
     76          1           0        6.456961    2.404239   -3.239878
     77          1           0        5.333241    6.479463   -4.105500
     78          1           0        5.121008    6.402104   -2.253824
     79          1           0        3.872565    5.979064   -3.440482
     80         12           0       -4.387962    1.206271    0.744049
     81          6           0       -5.115119   -1.525821   -1.466384
     82          6           0       -3.155661    2.873987   -1.964229
     83          6           0       -3.326456    3.442680    2.728773
     84          6           0       -4.603982   -1.055803    3.386395
     85          7           0       -4.213467    0.642096   -1.387510
     86          6           0       -4.579755   -0.397515   -2.121936
     87          6           0       -4.434318   -0.186635   -3.652932
     88          6           0       -3.304917    0.954812   -3.632232
     89          6           0       -3.591469    1.557296   -2.258342
     90          6           0       -1.889744    0.401134   -3.625238
     91          6           0       -5.760536    0.329430   -4.313855
     92          6           0       -5.785533    0.262768   -5.842483
     93          1           0       -7.048782   -0.049951   -6.504965
     94          7           0       -3.843312    3.081970    0.392315
     95          6           0       -3.388872    3.592787   -0.771224
     96          6           0       -3.106663    5.011753   -0.504676
     97          6           0       -3.275424    5.257759    0.953303
     98          6           0       -3.472307    3.902842    1.428188
     99          6           0       -2.797156    5.998239   -1.593017
    100          6           0       -3.249501    6.504603    1.784500
    101          8           0       -3.182009    6.459827    3.063672
    102          6           0       -3.211183    7.779406    1.053124
    103          7           0       -3.809202    1.160312    2.740358
    104          6           0       -3.439066    2.284239    3.378896
    105          6           0       -3.333408    2.056061    4.867914
    106          6           0       -3.946729    0.601519    5.124245
    107          6           0       -4.231535    0.186066    3.664218
    108          6           0       -1.922840    2.123635    5.452821
    109          6           0       -5.098696    0.496138    6.160841
    110          6           0       -6.329670    1.200833    5.637852
    111          7           0       -4.964004   -0.863032    0.976875
    112          6           0       -4.956454   -1.621734    2.167834
    113          6           0       -5.318942   -3.006868    1.803953
    114          6           0       -5.491141   -2.962615    0.412239
    115          6           0       -5.233081   -1.647602   -0.060674
    116          6           0       -5.401924   -4.108266    2.701828
    117          6           0       -5.822172   -3.731749   -0.765710
    118          8           0       -6.215687   -4.879105   -0.971752
    119          6           0       -5.470121   -2.864933   -2.050649
    120          6           0       -6.642490   -2.930616   -2.990724
    121          8           0       -7.735996   -2.430532   -2.673270
    122          8           0       -6.222327   -3.376692   -4.188580
    123          6           0       -7.347485   -3.448653   -5.158457
    124          1           0       -2.540186    3.393151   -2.699453
    125          1           0       -3.069012    4.201512    3.471317
    126          1           0       -4.788306   -1.798186    4.165870
    127          1           0       -4.078326   -1.052075   -4.198890
    128          1           0       -3.472998    1.690989   -4.413993
    129          1           0       -1.877939   -0.673108   -3.515672
    130          1           0       -1.393614    0.872423   -2.786914
    131          1           0       -1.351428    0.731133   -4.518351
    132          1           0       -5.832273    1.415462   -4.171958
    133          1           0       -6.611307   -0.188459   -3.915611
    134          1           0       -4.977446   -0.362595   -6.241061
    135          1           0       -5.572575    1.259343   -6.236818
    136          1           0       -2.579476    5.494254   -2.542762
    137          1           0       -1.854975    6.487281   -1.322843
    138          1           0       -3.571734    6.760113   -1.703698
    139          1           0       -2.331581    7.802890    0.414216
    140          1           0       -3.287274    8.556485    1.816161
    141          1           0       -4.082656    7.829080    0.390797
    142          1           0       -3.919269    2.785607    5.413473
    143          1           0       -3.189662   -0.098054    5.508051
    144          1           0       -1.820842    2.872373    6.260946
    145          1           0       -1.229856    2.334680    4.649225
    146          1           0       -1.540634    1.183368    5.846539
    147          1           0       -4.821235    1.003242    7.088209
    148          1           0       -5.356721   -0.525903    6.417432
    149          1           0       -6.143400    2.247509    5.896436
    150          1           0       -7.224295    0.825680    6.130744
    151          1           0       -6.385672    1.136223    4.544993
    152          1           0       -6.299999   -4.653483    2.443596
    153          1           0       -5.421532   -3.776137    3.737713
    154          1           0       -4.473646   -4.630814    2.455814
    155          1           0       -4.566671   -3.286623   -2.492834
    156          1           0       -7.376352   -4.474436   -5.538759
    157          1           0       -7.159903   -2.643862   -5.893887
    158          1           0       -8.352808   -3.339173   -4.768837
 ---------------------------------------------------------------------
 Rotational constants (GHZ):           0.0207456           0.0135291           0.0130492
 Leave Link  202 at Thu Sep  9 12:21:33 2021, MaxMem= 23488102400 cpu:               0.2 elap:               0.0
 (Enter /sw/apps/gaussian-16.0/g16/l301.exe)
 Standard basis: def2SVP (5D, 7F)
 Ernie: Thresh=  0.10000D-02 Tol=  0.10000D-05 Strict=F.
 There are  1658 symmetry adapted cartesian basis functions of A   symmetry.
 There are  1572 symmetry adapted basis functions of A   symmetry.
  1572 basis functions,  2678 primitive gaussians,  1658 cartesian basis functions
   312 alpha electrons      312 beta electrons
       nuclear repulsion energy     15480.5624908675 Hartrees.
 IExCor=20419 DFT=T Ex+Corr=CAM-B3LYP ExCW=0 ScaHFX=  1.000000
 ScaDFX=  1.000000  1.000000  1.000000  0.810000 ScalE2=  1.000000  1.000000
 IRadAn=      5 IRanWt=     -1 IRanGd=            0 ICorTp=0 IEmpDi=  4
 HFx  wShort=  0.000000 wLong=  0.330000 cFull=  0.190000 cShort=  0.000000 cLong=  0.460000
 DFx  wShort=  0.000000 wLong=  0.330000 cFull=  0.190000 cShort=  0.000000 cLong=  0.460000
 NAtoms=  158 NActive=  158 NUniq=  158 SFac= 1.00D+00 NAtFMM=   60 NAOKFM=T Big=T
 Integral buffers will be    131072 words long.
 Raffenetti 1 integral format.
 Two-electron integral symmetry is turned on.
 Leave Link  301 at Thu Sep  9 12:21:33 2021, MaxMem= 23488102400 cpu:               1.3 elap:               0.1
 (Enter /sw/apps/gaussian-16.0/g16/l302.exe)
 NPDir=0 NMtPBC=     1 NCelOv=     1 NCel=       1 NClECP=     1 NCelD=      1
         NCelK=      1 NCelE2=     1 NClLst=     1 CellRange=     0.0.
 One-electron integrals computed using PRISM.
 One-electron integral symmetry used in STVInt
   1 Symmetry operations used in ECPInt.
 ECPInt:  NShTT=  271216 NPrTT=  987664 LenC2=  153713 LenP2D=  320142.
 LDataN:  DoStor=T MaxTD1= 4 Len=   56
 NBasis=  1572 RedAO= T EigKep=  3.36D-04  NBF=  1572
 NBsUse=  1572 1.00D-06 EigRej= -1.00D+00 NBFU=  1572
 Precomputing XC quadrature grid using
 IXCGrd= 4 IRadAn=           5 IRanWt=          -1 IRanGd=           0 AccXCQ= 0.00D+00.
 Generated NRdTot=       0 NPtTot=           0 NUsed=           0 NTot=          32
 NSgBfM=  1237  1219  1221  1230  1237 MxSgAt=   158 MxSgA2=   158.
 Leave Link  302 at Thu Sep  9 12:21:38 2021, MaxMem= 23488102400 cpu:             127.4 elap:               5.3
 (Enter /sw/apps/gaussian-16.0/g16/l303.exe)
 DipDrv:  MaxL=1.
 Leave Link  303 at Thu Sep  9 12:21:39 2021, MaxMem= 23488102400 cpu:               9.4 elap:               0.4
 (Enter /sw/apps/gaussian-16.0/g16/l308.exe)
 Leave Link  308 at Thu Sep  9 12:21:40 2021, MaxMem= 23488102400 cpu:              15.4 elap:               0.7
 (Enter /sw/apps/gaussian-16.0/g16/l401.exe)
 ExpMin= 3.36D-02 ExpMax= 4.95D+03 ExpMxC= 7.45D+02 IAcc=3 IRadAn=         5 AccDes= 0.00D+00
 Harris functional with IExCor=20419 and IRadAn=       5 diagonalized for initial guess.
 HarFok:  IExCor=20419 AccDes= 0.00D+00 IRadAn=         5 IDoV= 1 UseB2=F ITyADJ=14
 ICtDFT=  3500011 ScaDFX=  1.000000  1.000000  1.000000  1.000000
 FoFCou: FMM=F IPFlag=           0 FMFlag=      100000 FMFlg1=        2001
         NFxFlg=           0 DoJE=T BraDBF=F KetDBF=T FulRan=T
         wScrn=  0.000000 ICntrl=       500 IOpCl=  0 I1Cent=   200000004 NGrid=           0
         NMat0=    1 NMatS0=      1 NMatT0=    0 NMatD0=    1 NMtDS0=    0 NMtDT0=    0
 Petite list used in FoFCou.
 Harris En= -3918.65799044898    
 JPrj=0 DoOrth=F DoCkMO=F.
 Leave Link  401 at Thu Sep  9 12:21:48 2021, MaxMem= 23488102400 cpu:             193.1 elap:               8.1
 (Enter /sw/apps/gaussian-16.0/g16/l502.exe)
 Integral symmetry usage will be decided dynamically.
 Closed shell SCF:
 Using DIIS extrapolation, IDIIS=  1040.
 NGot= 23488102400 LenX= 23482547354 LenY= 23479796732
 Requested convergence on RMS density matrix=1.00D-08 within 128 cycles.
 Requested convergence on MAX density matrix=1.00D-06.
 Requested convergence on             energy=1.00D-06.
 No special actions if energy rises.
 Fock matrices will be formed incrementally for  20 cycles.

 Cycle   1  Pass 1  IDiag  1:
 FoFJK:  IHMeth= 1 ICntrl=       0 DoSepK=T KAlg= 0 I1Cent=           0 FoldK=F
 IRaf=         1 NMat=       1 IRICut=       1 DoRegI=T DoRafI=F ISym2E= 0 IDoP0=0 IntGTp=1.
 FoFCou: FMM=T IPFlag=           0 FMFlag=      100000 FMFlg1=        2001
         NFxFlg=           0 DoJE=T BraDBF=F KetDBF=F FulRan=T
         wScrn=  0.000000 ICntrl=       500 IOpCl=  0 I1Cent=           0 NGrid=           0
         NMat0=    1 NMatS0=      1 NMatT0=    0 NMatD0=    1 NMtDS0=    0 NMtDT0=    0
 Symmetry not used in FoFCou.
 FMM levels:  10  Number of levels for PrismC:   9
 E= -4068.95137003946    
 DIIS: error= 2.04D-02 at cycle   1 NSaved=   1.
 NSaved= 1 IEnMin= 1 EnMin= -4068.95137003946     IErMin= 1 ErrMin= 2.04D-02
 ErrMax= 2.04D-02  0.00D+00 EMaxC= 1.00D-01 BMatC= 1.69D+00 BMatP= 1.69D+00
 IDIUse=3 WtCom= 7.96D-01 WtEn= 2.04D-01
 Coeff-Com:  0.100D+01
 Coeff-En:   0.100D+01
 Coeff:      0.100D+01
 Gap=     0.120 Goal=   None    Shift=    0.000
 GapD=    0.120 DampG=1.000 DampE=0.500 DampFc=0.5000 IDamp=-1.
 Damping current iteration by 5.00D-01
 RMSDP=1.57D-03 MaxDP=1.36D-01              OVMax= 1.94D-01

 Cycle   2  Pass 1  IDiag  1:
 RMSU=  7.68D-04    CP:  9.82D-01
 E= -4069.34026117848     Delta-E=       -0.388891139020 Rises=F Damp=T
 DIIS: error= 1.27D-02 at cycle   2 NSaved=   2.
 NSaved= 2 IEnMin= 2 EnMin= -4069.34026117848     IErMin= 2 ErrMin= 1.27D-02
 ErrMax= 1.27D-02  0.00D+00 EMaxC= 1.00D-01 BMatC= 3.06D-01 BMatP= 1.69D+00
 IDIUse=3 WtCom= 8.73D-01 WtEn= 1.27D-01
 Coeff-Com: -0.214D+00 0.121D+01
 Coeff-En:   0.000D+00 0.100D+01
 Coeff:     -0.187D+00 0.119D+01
 Gap=     0.133 Goal=   None    Shift=    0.000
 RMSDP=7.62D-04 MaxDP=9.48D-02 DE=-3.89D-01 OVMax= 1.85D-01

 Cycle   3  Pass 1  IDiag  1:
 RMSU=  7.29D-04    CP:  9.68D-01  1.24D+00
 E= -4069.63181363679     Delta-E=       -0.291552458311 Rises=F Damp=F
 DIIS: error= 1.54D-02 at cycle   3 NSaved=   3.
 NSaved= 3 IEnMin= 3 EnMin= -4069.63181363679     IErMin= 2 ErrMin= 1.27D-02
 ErrMax= 1.54D-02  0.00D+00 EMaxC= 1.00D-01 BMatC= 1.99D-01 BMatP= 3.06D-01
 IDIUse=3 WtCom= 8.46D-01 WtEn= 1.54D-01
 Coeff-Com: -0.267D+00 0.650D+00 0.617D+00
 Coeff-En:   0.000D+00 0.000D+00 0.100D+01
 Coeff:     -0.226D+00 0.549D+00 0.676D+00
 Gap=     0.120 Goal=   None    Shift=    0.000
 RMSDP=5.01D-04 MaxDP=4.69D-02 DE=-2.92D-01 OVMax= 1.30D-01

 Cycle   4  Pass 1  IDiag  1:
 RMSU=  2.61D-04    CP:  9.65D-01  1.55D+00  5.11D-01
 E= -4069.76850048942     Delta-E=       -0.136686852627 Rises=F Damp=F
 DIIS: error= 7.00D-03 at cycle   4 NSaved=   4.
 NSaved= 4 IEnMin= 4 EnMin= -4069.76850048942     IErMin= 4 ErrMin= 7.00D-03
 ErrMax= 7.00D-03  0.00D+00 EMaxC= 1.00D-01 BMatC= 4.81D-02 BMatP= 1.99D-01
 IDIUse=3 WtCom= 9.30D-01 WtEn= 7.00D-02
 Coeff-Com: -0.108D+00 0.224D+00 0.406D+00 0.478D+00
 Coeff-En:   0.000D+00 0.000D+00 0.212D+00 0.788D+00
 Coeff:     -0.101D+00 0.208D+00 0.393D+00 0.499D+00
 Gap=     0.120 Goal=   None    Shift=    0.000
 RMSDP=1.93D-04 MaxDP=1.99D-02 DE=-1.37D-01 OVMax= 5.32D-02

 Cycle   5  Pass 1  IDiag  1:
 RMSU=  7.29D-05    CP:  9.64D-01  1.49D+00  6.90D-01  5.61D-01
 E= -4069.81157666689     Delta-E=       -0.043076177466 Rises=F Damp=F
 DIIS: error= 7.88D-04 at cycle   5 NSaved=   5.
 NSaved= 5 IEnMin= 5 EnMin= -4069.81157666689     IErMin= 5 ErrMin= 7.88D-04
 ErrMax= 7.88D-04  0.00D+00 EMaxC= 1.00D-01 BMatC= 1.02D-03 BMatP= 4.81D-02
 IDIUse=3 WtCom= 9.92D-01 WtEn= 7.88D-03
 Coeff-Com: -0.344D-01 0.674D-01 0.159D+00 0.243D+00 0.565D+00
 Coeff-En:   0.000D+00 0.000D+00 0.000D+00 0.000D+00 0.100D+01
 Coeff:     -0.341D-01 0.668D-01 0.158D+00 0.241D+00 0.568D+00
 Gap=     0.119 Goal=   None    Shift=    0.000
 RMSDP=3.80D-05 MaxDP=4.17D-03 DE=-4.31D-02 OVMax= 1.26D-02

 Cycle   6  Pass 1  IDiag  1:
 RMSU=  2.91D-05    CP:  9.64D-01  1.50D+00  6.83D-01  6.27D-01  7.80D-01
 E= -4069.81242817520     Delta-E=       -0.000851508314 Rises=F Damp=F
 DIIS: error= 2.35D-04 at cycle   6 NSaved=   6.
 NSaved= 6 IEnMin= 6 EnMin= -4069.81242817520     IErMin= 6 ErrMin= 2.35D-04
 ErrMax= 2.35D-04  0.00D+00 EMaxC= 1.00D-01 BMatC= 1.65D-04 BMatP= 1.02D-03
 IDIUse=3 WtCom= 9.98D-01 WtEn= 2.35D-03
 Coeff-Com:  0.235D-02-0.680D-02 0.997D-02 0.384D-01 0.313D+00 0.643D+00
 Coeff-En:   0.000D+00 0.000D+00 0.000D+00 0.000D+00 0.106D+00 0.894D+00
 Coeff:      0.234D-02-0.678D-02 0.995D-02 0.383D-01 0.313D+00 0.643D+00
 Gap=     0.119 Goal=   None    Shift=    0.000
 RMSDP=1.51D-05 MaxDP=1.24D-03 DE=-8.52D-04 OVMax= 5.97D-03

 Cycle   7  Pass 1  IDiag  1:
 RMSU=  1.02D-05    CP:  9.64D-01  1.50D+00  6.88D-01  6.27D-01  8.76D-01
                    CP:  7.45D-01
 E= -4069.81260058629     Delta-E=       -0.000172411084 Rises=F Damp=F
 DIIS: error= 7.89D-05 at cycle   7 NSaved=   7.
 NSaved= 7 IEnMin= 7 EnMin= -4069.81260058629     IErMin= 7 ErrMin= 7.89D-05
 ErrMax= 7.89D-05  0.00D+00 EMaxC= 1.00D-01 BMatC= 1.87D-05 BMatP= 1.65D-04
 IDIUse=1 WtCom= 1.00D+00 WtEn= 0.00D+00
 Coeff-Com:  0.434D-02-0.948D-02-0.894D-02-0.428D-02 0.102D+00 0.323D+00
 Coeff-Com:  0.594D+00
 Coeff:      0.434D-02-0.948D-02-0.894D-02-0.428D-02 0.102D+00 0.323D+00
 Coeff:      0.594D+00
 Gap=     0.120 Goal=   None    Shift=    0.000
 RMSDP=6.37D-06 MaxDP=1.21D-03 DE=-1.72D-04 OVMax= 3.13D-03

 Cycle   8  Pass 1  IDiag  1:
 RMSU=  4.56D-06    CP:  9.64D-01  1.50D+00  6.89D-01  6.32D-01  8.82D-01
                    CP:  8.75D-01  8.27D-01
 E= -4069.81262354374     Delta-E=       -0.000022957454 Rises=F Damp=F
 DIIS: error= 4.04D-05 at cycle   8 NSaved=   8.
 NSaved= 8 IEnMin= 8 EnMin= -4069.81262354374     IErMin= 8 ErrMin= 4.04D-05
 ErrMax= 4.04D-05  0.00D+00 EMaxC= 1.00D-01 BMatC= 4.55D-06 BMatP= 1.87D-05
 IDIUse=1 WtCom= 1.00D+00 WtEn= 0.00D+00
 Coeff-Com:  0.212D-02-0.420D-02-0.768D-02-0.122D-01-0.136D-01 0.352D-01
 Coeff-Com:  0.353D+00 0.648D+00
 Coeff:      0.212D-02-0.420D-02-0.768D-02-0.122D-01-0.136D-01 0.352D-01
 Coeff:      0.353D+00 0.648D+00
 Gap=     0.120 Goal=   None    Shift=    0.000
 RMSDP=3.18D-06 MaxDP=3.42D-04 DE=-2.30D-05 OVMax= 1.16D-03

 Cycle   9  Pass 1  IDiag  1:
 RMSU=  1.87D-06    CP:  9.64D-01  1.50D+00  6.89D-01  6.33D-01  8.99D-01
                    CP:  9.00D-01  1.03D+00  9.13D-01
 E= -4069.81263075157     Delta-E=       -0.000007207833 Rises=F Damp=F
 DIIS: error= 2.09D-05 at cycle   9 NSaved=   9.
 NSaved= 9 IEnMin= 9 EnMin= -4069.81263075157     IErMin= 9 ErrMin= 2.09D-05
 ErrMax= 2.09D-05  0.00D+00 EMaxC= 1.00D-01 BMatC= 6.57D-07 BMatP= 4.55D-06
 IDIUse=1 WtCom= 1.00D+00 WtEn= 0.00D+00
 Coeff-Com:  0.481D-03-0.809D-03-0.269D-02-0.605D-02-0.226D-01-0.354D-01
 Coeff-Com:  0.110D+00 0.330D+00 0.627D+00
 Coeff:      0.481D-03-0.809D-03-0.269D-02-0.605D-02-0.226D-01-0.354D-01
 Coeff:      0.110D+00 0.330D+00 0.627D+00
 Gap=     0.120 Goal=   None    Shift=    0.000
 RMSDP=1.36D-06 MaxDP=1.58D-04 DE=-7.21D-06 OVMax= 7.57D-04

 Cycle  10  Pass 1  IDiag  1:
 RMSU=  9.12D-07    CP:  9.64D-01  1.50D+00  6.89D-01  6.34D-01  9.02D-01
                    CP:  9.14D-01  1.07D+00  1.08D+00  1.02D+00
 E= -4069.81263220764     Delta-E=       -0.000001456068 Rises=F Damp=F
 DIIS: error= 1.02D-05 at cycle  10 NSaved=  10.
 NSaved=10 IEnMin=10 EnMin= -4069.81263220764     IErMin=10 ErrMin= 1.02D-05
 ErrMax= 1.02D-05  0.00D+00 EMaxC= 1.00D-01 BMatC= 1.58D-07 BMatP= 6.57D-07
 IDIUse=1 WtCom= 1.00D+00 WtEn= 0.00D+00
 Coeff-Com: -0.411D-03 0.862D-03 0.118D-02 0.108D-02-0.427D-02-0.300D-01
 Coeff-Com: -0.473D-01-0.701D-01 0.261D+00 0.888D+00
 Coeff:     -0.411D-03 0.862D-03 0.118D-02 0.108D-02-0.427D-02-0.300D-01
 Coeff:     -0.473D-01-0.701D-01 0.261D+00 0.888D+00
 Gap=     0.120 Goal=   None    Shift=    0.000
 RMSDP=1.15D-06 MaxDP=1.22D-04 DE=-1.46D-06 OVMax= 5.75D-04

 Cycle  11  Pass 1  IDiag  1:
 RMSU=  4.85D-07    CP:  9.64D-01  1.50D+00  6.90D-01  6.34D-01  9.05D-01
                    CP:  9.24D-01  1.12D+00  1.18D+00  1.35D+00  1.35D+00
 E= -4069.81263291132     Delta-E=       -0.000000703680 Rises=F Damp=F
 DIIS: error= 4.07D-06 at cycle  11 NSaved=  11.
 NSaved=11 IEnMin=11 EnMin= -4069.81263291132     IErMin=11 ErrMin= 4.07D-06
 ErrMax= 4.07D-06  0.00D+00 EMaxC= 1.00D-01 BMatC= 5.11D-08 BMatP= 1.58D-07
 IDIUse=1 WtCom= 1.00D+00 WtEn= 0.00D+00
 Coeff-Com: -0.314D-03 0.610D-03 0.127D-02 0.207D-02 0.434D-02-0.806D-02
 Coeff-Com: -0.442D-01-0.128D+00-0.153D-01 0.439D+00 0.748D+00
 Coeff:     -0.314D-03 0.610D-03 0.127D-02 0.207D-02 0.434D-02-0.806D-02
 Coeff:     -0.442D-01-0.128D+00-0.153D-01 0.439D+00 0.748D+00
 Gap=     0.120 Goal=   None    Shift=    0.000
 RMSDP=6.39D-07 MaxDP=5.58D-05 DE=-7.04D-07 OVMax= 3.40D-04

 Cycle  12  Pass 1  IDiag  1:
 RMSU=  2.46D-07    CP:  9.64D-01  1.50D+00  6.89D-01  6.34D-01  9.05D-01
                    CP:  9.27D-01  1.14D+00  1.24D+00  1.51D+00  1.72D+00
                    CP:  1.22D+00
 E= -4069.81263313920     Delta-E=       -0.000000227883 Rises=F Damp=F
 DIIS: error= 2.38D-06 at cycle  12 NSaved=  12.
 NSaved=12 IEnMin=12 EnMin= -4069.81263313920     IErMin=12 ErrMin= 2.38D-06
 ErrMax= 2.38D-06  0.00D+00 EMaxC= 1.00D-01 BMatC= 1.25D-08 BMatP= 5.11D-08
 IDIUse=1 WtCom= 1.00D+00 WtEn= 0.00D+00
 Coeff-Com:  0.780D-05-0.308D-04 0.136D-03 0.441D-03 0.309D-02 0.403D-02
 Coeff-Com:  0.392D-02-0.313D-01-0.617D-01-0.974D-01 0.236D+00 0.943D+00
 Coeff:      0.780D-05-0.308D-04 0.136D-03 0.441D-03 0.309D-02 0.403D-02
 Coeff:      0.392D-02-0.313D-01-0.617D-01-0.974D-01 0.236D+00 0.943D+00
 Gap=     0.120 Goal=   None    Shift=    0.000
 RMSDP=4.13D-07 MaxDP=2.66D-05 DE=-2.28D-07 OVMax= 2.34D-04

 Cycle  13  Pass 1  IDiag  1:
 RMSU=  1.54D-07    CP:  9.64D-01  1.50D+00  6.89D-01  6.34D-01  9.06D-01
                    CP:  9.27D-01  1.15D+00  1.27D+00  1.61D+00  1.95D+00
                    CP:  1.63D+00  1.32D+00
 E= -4069.81263321999     Delta-E=       -0.000000080785 Rises=F Damp=F
 DIIS: error= 1.37D-06 at cycle  13 NSaved=  13.
 NSaved=13 IEnMin=13 EnMin= -4069.81263321999     IErMin=13 ErrMin= 1.37D-06
 ErrMax= 1.37D-06  0.00D+00 EMaxC= 1.00D-01 BMatC= 6.74D-09 BMatP= 1.25D-08
 IDIUse=1 WtCom= 1.00D+00 WtEn= 0.00D+00
 Coeff-Com:  0.117D-03-0.238D-03-0.364D-03-0.461D-03 0.453D-03 0.484D-02
 Coeff-Com:  0.200D-01 0.219D-01-0.315D-01-0.238D+00-0.156D+00 0.600D+00
 Coeff-Com:  0.778D+00
 Coeff:      0.117D-03-0.238D-03-0.364D-03-0.461D-03 0.453D-03 0.484D-02
 Coeff:      0.200D-01 0.219D-01-0.315D-01-0.238D+00-0.156D+00 0.600D+00
 Coeff:      0.778D+00
 Gap=     0.120 Goal=   None    Shift=    0.000
 RMSDP=3.05D-07 MaxDP=2.06D-05 DE=-8.08D-08 OVMax= 1.72D-04

 Cycle  14  Pass 1  IDiag  1:
 RMSU=  7.11D-08    CP:  9.64D-01  1.50D+00  6.90D-01  6.34D-01  9.06D-01
                    CP:  9.28D-01  1.16D+00  1.29D+00  1.68D+00  2.12D+00
                    CP:  1.89D+00  1.82D+00  1.08D+00
 E= -4069.81263324933     Delta-E=       -0.000000029340 Rises=F Damp=F
 DIIS: error= 7.71D-07 at cycle  14 NSaved=  14.
 NSaved=14 IEnMin=14 EnMin= -4069.81263324933     IErMin=14 ErrMin= 7.71D-07
 ErrMax= 7.71D-07  0.00D+00 EMaxC= 1.00D-01 BMatC= 1.09D-09 BMatP= 6.74D-09
 IDIUse=1 WtCom= 1.00D+00 WtEn= 0.00D+00
 Coeff-Com:  0.639D-04-0.126D-03-0.236D-03-0.376D-03-0.513D-03 0.125D-02
 Coeff-Com:  0.109D-01 0.181D-01 0.342D-02-0.954D-01-0.140D+00 0.956D-01
 Coeff-Com:  0.402D+00 0.705D+00
 Coeff:      0.639D-04-0.126D-03-0.236D-03-0.376D-03-0.513D-03 0.125D-02
 Coeff:      0.109D-01 0.181D-01 0.342D-02-0.954D-01-0.140D+00 0.956D-01
 Coeff:      0.402D+00 0.705D+00
 Gap=     0.120 Goal=   None    Shift=    0.000
 RMSDP=9.28D-08 MaxDP=7.16D-06 DE=-2.93D-08 OVMax= 5.06D-05

 Cycle  15  Pass 1  IDiag  1:
 RMSU=  3.66D-08    CP:  9.64D-01  1.50D+00  6.89D-01  6.34D-01  9.06D-01
                    CP:  9.27D-01  1.16D+00  1.29D+00  1.70D+00  2.16D+00
                    CP:  2.00D+00  1.96D+00  1.32D+00  1.01D+00
 E= -4069.81263325325     Delta-E=       -0.000000003925 Rises=F Damp=F
 DIIS: error= 3.32D-07 at cycle  15 NSaved=  15.
 NSaved=15 IEnMin=15 EnMin= -4069.81263325325     IErMin=15 ErrMin= 3.32D-07
 ErrMax= 3.32D-07  0.00D+00 EMaxC= 1.00D-01 BMatC= 2.20D-10 BMatP= 1.09D-09
 IDIUse=1 WtCom= 1.00D+00 WtEn= 0.00D+00
 Coeff-Com:  0.480D-05-0.789D-05-0.295D-04-0.761D-04-0.300D-03-0.490D-03
 Coeff-Com:  0.114D-02 0.228D-02 0.844D-02 0.283D-02-0.308D-01-0.736D-01
 Coeff-Com:  0.227D-01 0.310D+00 0.758D+00
 Coeff:      0.480D-05-0.789D-05-0.295D-04-0.761D-04-0.300D-03-0.490D-03
 Coeff:      0.114D-02 0.228D-02 0.844D-02 0.283D-02-0.308D-01-0.736D-01
 Coeff:      0.227D-01 0.310D+00 0.758D+00
 Gap=     0.120 Goal=   None    Shift=    0.000
 RMSDP=4.01D-08 MaxDP=2.53D-06 DE=-3.93D-09 OVMax= 2.75D-05

 Cycle  16  Pass 1  IDiag  1:
 RMSU=  1.77D-08    CP:  9.64D-01  1.50D+00  6.90D-01  6.34D-01  9.06D-01
                    CP:  9.27D-01  1.16D+00  1.30D+00  1.70D+00  2.17D+00
                    CP:  2.02D+00  2.03D+00  1.40D+00  1.24D+00  1.14D+00
 E= -4069.81263325390     Delta-E=       -0.000000000644 Rises=F Damp=F
 DIIS: error= 1.80D-07 at cycle  16 NSaved=  16.
 NSaved=16 IEnMin=16 EnMin= -4069.81263325390     IErMin=16 ErrMin= 1.80D-07
 ErrMax= 1.80D-07  0.00D+00 EMaxC= 1.00D-01 BMatC= 7.26D-11 BMatP= 2.20D-10
 IDIUse=1 WtCom= 1.00D+00 WtEn= 0.00D+00
 Coeff-Com: -0.137D-04 0.278D-04 0.457D-04 0.534D-04-0.218D-04-0.611D-03
 Coeff-Com: -0.199D-02-0.412D-02 0.454D-02 0.251D-01 0.197D-01-0.642D-01
 Coeff-Com: -0.884D-01-0.214D-01 0.394D+00 0.737D+00
 Coeff:     -0.137D-04 0.278D-04 0.457D-04 0.534D-04-0.218D-04-0.611D-03
 Coeff:     -0.199D-02-0.412D-02 0.454D-02 0.251D-01 0.197D-01-0.642D-01
 Coeff:     -0.884D-01-0.214D-01 0.394D+00 0.737D+00
 Gap=     0.120 Goal=   None    Shift=    0.000
 RMSDP=2.17D-08 MaxDP=1.35D-06 DE=-6.44D-10 OVMax= 1.15D-05

 Cycle  17  Pass 1  IDiag  1:
 RMSU=  1.03D-08    CP:  9.64D-01  1.50D+00  6.90D-01  6.34D-01  9.06D-01
                    CP:  9.27D-01  1.16D+00  1.30D+00  1.70D+00  2.18D+00
                    CP:  2.03D+00  2.05D+00  1.45D+00  1.34D+00  1.43D+00
                    CP:  1.23D+00
 E= -4069.81263325422     Delta-E=       -0.000000000324 Rises=F Damp=F
 DIIS: error= 1.05D-07 at cycle  17 NSaved=  17.
 NSaved=17 IEnMin=17 EnMin= -4069.81263325422     IErMin=17 ErrMin= 1.05D-07
 ErrMax= 1.05D-07  0.00D+00 EMaxC= 1.00D-01 BMatC= 1.81D-11 BMatP= 7.26D-11
 IDIUse=1 WtCom= 1.00D+00 WtEn= 0.00D+00
 Coeff-Com: -0.734D-05 0.143D-04 0.289D-04 0.431D-04 0.842D-04-0.142D-03
 Coeff-Com: -0.104D-02-0.283D-02 0.432D-03 0.969D-02 0.177D-01-0.824D-02
 Coeff-Com: -0.425D-01-0.977D-01-0.280D-01 0.327D+00 0.825D+00
 Coeff:     -0.734D-05 0.143D-04 0.289D-04 0.431D-04 0.842D-04-0.142D-03
 Coeff:     -0.104D-02-0.283D-02 0.432D-03 0.969D-02 0.177D-01-0.824D-02
 Coeff:     -0.425D-01-0.977D-01-0.280D-01 0.327D+00 0.825D+00
 Gap=     0.120 Goal=   None    Shift=    0.000
 RMSDP=1.31D-08 MaxDP=8.55D-07 DE=-3.24D-10 OVMax= 9.11D-06

 Cycle  18  Pass 1  IDiag  1:
 RMSU=  4.89D-09    CP:  9.64D-01  1.50D+00  6.90D-01  6.34D-01  9.06D-01
                    CP:  9.27D-01  1.16D+00  1.30D+00  1.70D+00  2.18D+00
                    CP:  2.04D+00  2.06D+00  1.47D+00  1.41D+00  1.59D+00
                    CP:  1.65D+00  1.34D+00
 E= -4069.81263325425     Delta-E=       -0.000000000033 Rises=F Damp=F
 DIIS: error= 6.22D-08 at cycle  18 NSaved=  18.
 NSaved=18 IEnMin=18 EnMin= -4069.81263325425     IErMin=18 ErrMin= 6.22D-08
 ErrMax= 6.22D-08  0.00D+00 EMaxC= 1.00D-01 BMatC= 6.74D-12 BMatP= 1.81D-11
 IDIUse=1 WtCom= 1.00D+00 WtEn= 0.00D+00
 Coeff-Com:  0.138D-05-0.308D-05-0.223D-05 0.121D-05 0.615D-04 0.159D-03
 Coeff-Com:  0.310D-03-0.394D-04-0.114D-02-0.531D-02 0.132D-02 0.197D-01
 Coeff-Com:  0.143D-01-0.408D-01-0.161D+00-0.138D+00 0.375D+00 0.936D+00
 Coeff:      0.138D-05-0.308D-05-0.223D-05 0.121D-05 0.615D-04 0.159D-03
 Coeff:      0.310D-03-0.394D-04-0.114D-02-0.531D-02 0.132D-02 0.197D-01
 Coeff:      0.143D-01-0.408D-01-0.161D+00-0.138D+00 0.375D+00 0.936D+00
 Gap=     0.120 Goal=   None    Shift=    0.000
 RMSDP=1.08D-08 MaxDP=7.34D-07 DE=-3.27D-11 OVMax= 6.29D-06

 Cycle  19  Pass 1  IDiag  1:
 RMSU=  3.09D-09    CP:  9.64D-01  1.50D+00  6.90D-01  6.34D-01  9.06D-01
                    CP:  9.27D-01  1.16D+00  1.30D+00  1.70D+00  2.18D+00
                    CP:  2.04D+00  2.07D+00  1.48D+00  1.46D+00  1.74D+00
                    CP:  1.97D+00  1.86D+00  1.26D+00
 E= -4069.81263325441     Delta-E=       -0.000000000160 Rises=F Damp=F
 DIIS: error= 3.05D-08 at cycle  19 NSaved=  19.
 NSaved=19 IEnMin=19 EnMin= -4069.81263325441     IErMin=19 ErrMin= 3.05D-08
 ErrMax= 3.05D-08  0.00D+00 EMaxC= 1.00D-01 BMatC= 2.24D-12 BMatP= 6.74D-12
 IDIUse=1 WtCom= 1.00D+00 WtEn= 0.00D+00
 Coeff-Com:  0.322D-05-0.652D-05-0.108D-04-0.134D-04 0.152D-04 0.141D-03
 Coeff-Com:  0.557D-03 0.839D-03-0.734D-03-0.678D-02-0.495D-02 0.154D-01
 Coeff-Com:  0.237D-01 0.643D-02-0.937D-01-0.201D+00-0.257D-01 0.583D+00
 Coeff-Com:  0.703D+00
 Coeff:      0.322D-05-0.652D-05-0.108D-04-0.134D-04 0.152D-04 0.141D-03
 Coeff:      0.557D-03 0.839D-03-0.734D-03-0.678D-02-0.495D-02 0.154D-01
 Coeff:      0.237D-01 0.643D-02-0.937D-01-0.201D+00-0.257D-01 0.583D+00
 Coeff:      0.703D+00
 Gap=     0.120 Goal=   None    Shift=    0.000
 RMSDP=5.56D-09 MaxDP=3.23D-07 DE=-1.60D-10 OVMax= 3.82D-06

 SCF Done:  E(RCAM-B3LYP) =  -4069.81263325     A.U. after   19 cycles
            NFock= 19  Conv=0.56D-08     -V/T= 2.0102
 KE= 4.028801275432D+03 PE=-4.044219294940D+04 EE= 1.686301654984D+04
 Leave Link  502 at Thu Sep  9 12:32:47 2021, MaxMem= 23488102400 cpu:           15225.5 elap:             659.7
 (Enter /sw/apps/gaussian-16.0/g16/l801.exe)
 DoSCS=F DFT=T ScalE2(SS,OS)=  1.000000  1.000000
 ExpMin= 3.36D-02 ExpMax= 4.95D+03 ExpMxC= 7.45D+02 IAcc=3 IRadAn=         5 AccDes= 0.00D+00
 HarFok:  IExCor=  205 AccDes= 0.00D+00 IRadAn=         5 IDoV=-2 UseB2=F ITyADJ=14
 ICtDFT= 12500011 ScaDFX=  1.000000  1.000000  1.000000  1.000000
 GSVD:  LWork=       -9588 too small for GESVD, short by       45590 words or       45590 for optimal perf.
 Largest valence mixing into a core orbital is  2.03D-04
 Largest core mixing into a valence orbital is  5.22D-05
 Range of M.O.s used for correlation:    95  1572
 NBasis=  1572 NAE=   312 NBE=   312 NFC=    94 NFV=     0
 NROrb=   1478 NOA=   218 NOB=   218 NVA=  1260 NVB=  1260
 Leave Link  801 at Thu Sep  9 12:32:48 2021, MaxMem= 23488102400 cpu:               8.6 elap:               0.4
 (Enter /sw/apps/gaussian-16.0/g16/l914.exe)
 RHF ground state
 Two-electron integrals replicated using symmetry.
 MDV= 23488102400 DFT=T DoStab=F Mixed=T DoRPA=T DoScal=F NonHer=T
 Making orbital integer symmetry assigments:
 Orbital symmetries:
       Occupied  (A) (A) (A) (A) (A) (A) (A) (A) (A) (A) (A) (A)
                 (A) (A) (A) (A) (A) (A) (A) (A) (A) (A) (A) (A)
                 (A) (A) (A) (A) (A) (A) (A) (A) (A) (A) (A) (A)
                 (A) (A) (A) (A) (A) (A) (A) (A) (A) (A) (A) (A)
                 (A) (A) (A) (A) (A) (A) (A) (A) (A) (A) (A) (A)
                 (A) (A) (A) (A) (A) (A) (A) (A) (A) (A) (A) (A)
                 (A) (A) (A) (A) (A) (A) (A) (A) (A) (A) (A) (A)
                 (A) (A) (A) (A) (A) (A) (A) (A) (A) (A) (A) (A)
                 (A) (A) (A) (A) (A) (A) (A) (A) (A) (A) (A) (A)
                 (A) (A) (A) (A) (A) (A) (A) (A) (A) (A) (A) (A)
                 (A) (A) (A) (A) (A) (A) (A) (A) (A) (A) (A) (A)
                 (A) (A) (A) (A) (A) (A) (A) (A) (A) (A) (A) (A)
                 (A) (A) (A) (A) (A) (A) (A) (A) (A) (A) (A) (A)
                 (A) (A) (A) (A) (A) (A) (A) (A) (A) (A) (A) (A)
                 (A) (A) (A) (A) (A) (A) (A) (A) (A) (A) (A) (A)
                 (A) (A) (A) (A) (A) (A) (A) (A) (A) (A) (A) (A)
                 (A) (A) (A) (A) (A) (A) (A) (A) (A) (A) (A) (A)
                 (A) (A) (A) (A) (A) (A) (A) (A) (A) (A) (A) (A)
                 (A) (A) (A) (A) (A) (A) (A) (A) (A) (A) (A) (A)
                 (A) (A) (A) (A) (A) (A) (A) (A) (A) (A) (A) (A)
                 (A) (A) (A) (A) (A) (A) (A) (A) (A) (A) (A) (A)
                 (A) (A) (A) (A) (A) (A) (A) (A) (A) (A) (A) (A)
                 (A) (A) (A) (A) (A) (A) (A) (A) (A) (A) (A) (A)
                 (A) (A) (A) (A) (A) (A) (A) (A) (A) (A) (A) (A)
                 (A) (A) (A) (A) (A) (A) (A) (A) (A) (A) (A) (A)
                 (A) (A) (A) (A) (A) (A) (A) (A) (A) (A) (A) (A)
       Virtual   (A) (A) (A) (A) (A) (A) (A) (A) (A) (A) (A) (A)
                 (A) (A) (A) (A) (A) (A) (A) (A) (A) (A) (A) (A)
                 (A) (A) (A) (A) (A) (A) (A) (A) (A) (A) (A) (A)
                 (A) (A) (A) (A) (A) (A) (A) (A) (A) (A) (A) (A)
                 (A) (A) (A) (A) (A) (A) (A) (A) (A) (A) (A) (A)
                 (A) (A) (A) (A) (A) (A) (A) (A) (A) (A) (A) (A)
                 (A) (A) (A) (A) (A) (A) (A) (A) (A) (A) (A) (A)
                 (A) (A) (A) (A) (A) (A) (A) (A) (A) (A) (A) (A)
                 (A) (A) (A) (A) (A) (A) (A) (A) (A) (A) (A) (A)
                 (A) (A) (A) (A) (A) (A) (A) (A) (A) (A) (A) (A)
                 (A) (A) (A) (A) (A) (A) (A) (A) (A) (A) (A) (A)
                 (A) (A) (A) (A) (A) (A) (A) (A) (A) (A) (A) (A)
                 (A) (A) (A) (A) (A) (A) (A) (A) (A) (A) (A) (A)
                 (A) (A) (A) (A) (A) (A) (A) (A) (A) (A) (A) (A)
                 (A) (A) (A) (A) (A) (A) (A) (A) (A) (A) (A) (A)
                 (A) (A) (A) (A) (A) (A) (A) (A) (A) (A) (A) (A)
                 (A) (A) (A) (A) (A) (A) (A) (A) (A) (A) (A) (A)
                 (A) (A) (A) (A) (A) (A) (A) (A) (A) (A) (A) (A)
                 (A) (A) (A) (A) (A) (A) (A) (A) (A) (A) (A) (A)
                 (A) (A) (A) (A) (A) (A) (A) (A) (A) (A) (A) (A)
                 (A) (A) (A) (A) (A) (A) (A) (A) (A) (A) (A) (A)
                 (A) (A) (A) (A) (A) (A) (A) (A) (A) (A) (A) (A)
                 (A) (A) (A) (A) (A) (A) (A) (A) (A) (A) (A) (A)
                 (A) (A) (A) (A) (A) (A) (A) (A) (A) (A) (A) (A)
                 (A) (A) (A) (A) (A) (A) (A) (A) (A) (A) (A) (A)
                 (A) (A) (A) (A) (A) (A) (A) (A) (A) (A) (A) (A)
                 (A) (A) (A) (A) (A) (A) (A) (A) (A) (A) (A) (A)
                 (A) (A) (A) (A) (A) (A) (A) (A) (A) (A) (A) (A)
                 (A) (A) (A) (A) (A) (A) (A) (A) (A) (A) (A) (A)
                 (A) (A) (A) (A) (A) (A) (A) (A) (A) (A) (A) (A)
                 (A) (A) (A) (A) (A) (A) (A) (A) (A) (A) (A) (A)
                 (A) (A) (A) (A) (A) (A) (A) (A) (A) (A) (A) (A)
                 (A) (A) (A) (A) (A) (A) (A) (A) (A) (A) (A) (A)
                 (A) (A) (A) (A) (A) (A) (A) (A) (A) (A) (A) (A)
                 (A) (A) (A) (A) (A) (A) (A) (A) (A) (A) (A) (A)
                 (A) (A) (A) (A) (A) (A) (A) (A) (A) (A) (A) (A)
                 (A) (A) (A) (A) (A) (A) (A) (A) (A) (A) (A) (A)
                 (A) (A) (A) (A) (A) (A) (A) (A) (A) (A) (A) (A)
                 (A) (A) (A) (A) (A) (A) (A) (A) (A) (A) (A) (A)
                 (A) (A) (A) (A) (A) (A) (A) (A) (A) (A) (A) (A)
                 (A) (A) (A) (A) (A) (A) (A) (A) (A) (A) (A) (A)
                 (A) (A) (A) (A) (A) (A) (A) (A) (A) (A) (A) (A)
                 (A) (A) (A) (A) (A) (A) (A) (A) (A) (A) (A) (A)
                 (A) (A) (A) (A) (A) (A) (A) (A) (A) (A) (A) (A)
                 (A) (A) (A) (A) (A) (A) (A) (A) (A) (A) (A) (A)
                 (A) (A) (A) (A) (A) (A) (A) (A) (A) (A) (A) (A)
                 (A) (A) (A) (A) (A) (A) (A) (A) (A) (A) (A) (A)
                 (A) (A) (A) (A) (A) (A) (A) (A) (A) (A) (A) (A)
                 (A) (A) (A) (A) (A) (A) (A) (A) (A) (A) (A) (A)
                 (A) (A) (A) (A) (A) (A) (A) (A) (A) (A) (A) (A)
                 (A) (A) (A) (A) (A) (A) (A) (A) (A) (A) (A) (A)
                 (A) (A) (A) (A) (A) (A) (A) (A) (A) (A) (A) (A)
                 (A) (A) (A) (A) (A) (A) (A) (A) (A) (A) (A) (A)
                 (A) (A) (A) (A) (A) (A) (A) (A) (A) (A) (A) (A)
                 (A) (A) (A) (A) (A) (A) (A) (A) (A) (A) (A) (A)
                 (A) (A) (A) (A) (A) (A) (A) (A) (A) (A) (A) (A)
                 (A) (A) (A) (A) (A) (A) (A) (A) (A) (A) (A) (A)
                 (A) (A) (A) (A) (A) (A) (A) (A) (A) (A) (A) (A)
                 (A) (A) (A) (A) (A) (A) (A) (A) (A) (A) (A) (A)
                 (A) (A) (A) (A) (A) (A) (A) (A) (A) (A) (A) (A)
                 (A) (A) (A) (A) (A) (A) (A) (A) (A) (A) (A) (A)
                 (A) (A) (A) (A) (A) (A) (A) (A) (A) (A) (A) (A)
                 (A) (A) (A) (A) (A) (A) (A) (A) (A) (A) (A) (A)
                 (A) (A) (A) (A) (A) (A) (A) (A) (A) (A) (A) (A)
                 (A) (A) (A) (A) (A) (A) (A) (A) (A) (A) (A) (A)
                 (A) (A) (A) (A) (A) (A) (A) (A) (A) (A) (A) (A)
                 (A) (A) (A) (A) (A) (A) (A) (A) (A) (A) (A) (A)
                 (A) (A) (A) (A) (A) (A) (A) (A) (A) (A) (A) (A)
                 (A) (A) (A) (A) (A) (A) (A) (A) (A) (A) (A) (A)
                 (A) (A) (A) (A) (A) (A) (A) (A) (A) (A) (A) (A)
                 (A) (A) (A) (A) (A) (A) (A) (A) (A) (A) (A) (A)
                 (A) (A) (A) (A) (A) (A) (A) (A) (A) (A) (A) (A)
                 (A) (A) (A) (A) (A) (A) (A) (A) (A) (A) (A) (A)
                 (A) (A) (A) (A) (A) (A) (A) (A) (A) (A) (A) (A)
                 (A) (A) (A) (A) (A) (A) (A) (A) (A) (A) (A) (A)
                 (A) (A) (A) (A) (A) (A) (A) (A) (A) (A) (A) (A)
                 (A) (A) (A) (A) (A) (A) (A) (A) (A) (A) (A) (A)
                 (A) (A) (A) (A) (A) (A) (A) (A) (A) (A) (A) (A)
                 (A) (A) (A) (A) (A) (A) (A) (A) (A) (A) (A) (A)
                 (A) (A) (A) (A) (A) (A) (A) (A) (A) (A) (A) (A)
                 (A) (A) (A) (A) (A) (A) (A) (A) (A) (A) (A) (A)
                 (A) (A) (A) (A) (A) (A) (A) (A) (A) (A) (A) (A)
                 (A) (A) (A) (A) (A) (A) (A) (A) (A) (A) (A) (A)
                 (A) (A) (A) (A) (A) (A) (A) (A) (A) (A) (A) (A)
                 (A) (A) (A) (A) (A) (A) (A) (A) (A) (A) (A) (A)
                 (A) (A) (A) (A) (A) (A) (A) (A) (A) (A) (A) (A)
                 (A) (A) (A) (A) (A) (A) (A) (A) (A) (A) (A) (A)
                 (A) (A) (A) (A) (A) (A) (A) (A) (A) (A) (A) (A)
                 (A) (A) (A) (A) (A) (A) (A) (A) (A) (A) (A) (A)
                 (A) (A) (A) (A) (A) (A) (A) (A) (A) (A) (A) (A)
                 (A) (A) (A) (A) (A) (A) (A) (A) (A) (A) (A) (A)
                 (A) (A) (A) (A) (A) (A) (A) (A) (A) (A) (A) (A)
                 (A) (A) (A) (A) (A) (A) (A) (A) (A) (A) (A) (A)
                 (A) (A) (A) (A) (A) (A) (A) (A) (A) (A) (A) (A)
                 (A) (A) (A) (A) (A) (A) (A) (A) (A) (A) (A) (A)
                 (A) (A) (A) (A) (A) (A) (A) (A) (A) (A) (A) (A)
                 (A) (A) (A) (A) (A) (A) (A) (A) (A) (A) (A) (A)
                 (A) (A) (A) (A) (A) (A) (A) (A) (A) (A) (A) (A)
                 (A) (A) (A) (A) (A) (A) (A) (A) (A) (A) (A) (A)
                 (A) (A) (A) (A) (A) (A) (A) (A) (A) (A) (A) (A)
                 (A) (A) (A) (A) (A) (A) (A) (A) (A) (A) (A) (A)
                 (A) (A) (A) (A) (A) (A) (A) (A) (A) (A) (A) (A)
                 (A) (A) (A) (A) (A) (A) (A) (A) (A) (A) (A) (A)
                 (A) (A) (A) (A) (A) (A) (A) (A) (A) (A) (A) (A)
                 (A) (A) (A) (A) (A) (A) (A) (A) (A) (A) (A) (A)
    20 initial guesses have been made.
 Convergence on wavefunction:    0.001000000000000
 Davidson Disk Diagonalization:  ConvIn= 1.00D-03 SkipCon=T Conv= 1.00D-03.
 Max sub-space:  2000 roots to seek:    20 dimension of matrix:       549360
 Iteration     1 Dimension    20 NMult     0 NNew     20
 CISAX will form    20 AO SS matrices at one time.
 NMat=    20 NSing=    20 JSym2X= 0.
 FoFJK:  IHMeth= 1 ICntrl=       0 DoSepK=T KAlg= 0 I1Cent=           0 FoldK=F
 IRaf=         1 NMat=      40 IRICut=       1 DoRegI=T DoRafI=F ISym2E= 0 IDoP0=3 IntGTp=3.
 FoFCou: FMM=T IPFlag=           0 FMFlag=      100000 FMFlg1=        2001
         NFxFlg=           0 DoJE=F BraDBF=F KetDBF=F FulRan=T
         wScrn=  0.000000 ICntrl=       500 IOpCl=  0 I1Cent=           0 NGrid=           0
         NMat0=   20 NMatS0=     20 NMatT0=    0 NMatD0=   20 NMtDS0=    0 NMtDT0=    0
 Symmetry not used in FoFCou.
 FMM levels:  10  Number of levels for PrismC:   9
 New state      2 was old state      4
 New state      3 was old state      7
 New state      4 was old state      6
 New state      5 was old state      2
 Excitation Energies [eV] at current iteration:
 Root      1 :     2.336999815668331
 Root      2 :     2.540769700251653
 Root      3 :     2.606104048367579
 Root      4 :     2.619366088343670
 Root      5 :     2.670053826166128
 Root      6 :     2.704986040728783
 Root      7 :     3.120927436853990
 Root      8 :     3.335684790629071
 Root      9 :     3.634402538902445
 Root     10 :     3.676229869201499
 Root     11 :     3.733096987629513
 Root     12 :     3.759061437648552
 Root     13 :     4.241375205246033
 Root     14 :     4.292185044419536
 Root     15 :     4.315386398407876
 Root     16 :     4.468796097491240
 Root     17 :     4.574959109250186
 Root     18 :     4.609853480463883
 Root     19 :     4.725198938116866
 Root     20 :     4.855971522154257
 Iteration     2 Dimension    30 NMult    20 NNew     10
 CISAX will form    10 AO SS matrices at one time.
 NMat=    10 NSing=    10 JSym2X= 0.
 New state      1 was old state      5
 Root      1 not converged, maximum delta is    0.222819570617987
 New state      2 was old state      4
 Root      2 not converged, maximum delta is    0.121632676760475
 Root      3 not converged, maximum delta is    0.183606194916914
 New state      4 was old state      1
 Root      4 not converged, maximum delta is    0.003713757690201
 New state      5 was old state      2
 Root      5 not converged, maximum delta is    0.006219650489200
 Excitation Energies [eV] at current iteration:
 Root      1 :     1.790276258725061   Change is   -0.879777567441067
 Root      2 :     2.183317510487629   Change is   -0.436048577856042
 Root      3 :     2.239321061177196   Change is   -0.366782987190382
 Root      4 :     2.336166806944678   Change is   -0.000833008723653
 Root      5 :     2.539757089012129   Change is   -0.001012611239524
 Iteration     3 Dimension    40 NMult    30 NNew     10
 CISAX will form    10 AO SS matrices at one time.
 NMat=    10 NSing=    10 JSym2X= 0.
 Root      1 not converged, maximum delta is    0.055635660080071
 Root      2 not converged, maximum delta is    0.317868530237638
 Root      3 not converged, maximum delta is    0.041971542209445
 No map to state      4
 New state      5 was old state      4
 Root      5 has converged.
 Excitation Energies [eV] at current iteration:
 Root      1 :     1.684403774433622   Change is   -0.105872484291439
 Root      2 :     1.904825747863501   Change is   -0.278491762624128
 Root      3 :     2.200244955103192   Change is   -0.039076106074004
 Root      4 :     2.296494937997830
 Root      5 :     2.336160863094195   Change is   -0.000005943850483
 Iteration     4 Dimension    48 NMult    40 NNew      8
 CISAX will form     8 AO SS matrices at one time.
 NMat=     8 NSing=     8 JSym2X= 0.
 Root      1 not converged, maximum delta is    0.010356749306625
 Root      2 not converged, maximum delta is    0.202760034876368
 New state      3 was old state      4
 Root      3 not converged, maximum delta is    0.123358373948012
 New state      4 was old state      3
 Root      4 not converged, maximum delta is    0.038384227151751
 Root      5 has converged.
 Excitation Energies [eV] at current iteration:
 Root      1 :     1.667663528491480   Change is   -0.016740245942142
 Root      2 :     1.710000183068784   Change is   -0.194825564794717
 Root      3 :     2.192558912864024   Change is   -0.103936025133806
 Root      4 :     2.193201100439440   Change is   -0.007043854663752
 Root      5 :     2.336160859131087   Change is   -0.000000003963108
 Iteration     5 Dimension    56 NMult    48 NNew      8
 CISAX will form     8 AO SS matrices at one time.
 NMat=     8 NSing=     8 JSym2X= 0.
 Root      1 not converged, maximum delta is    0.001573426249371
 Root      2 not converged, maximum delta is    0.016494258076778
 Root      3 not converged, maximum delta is    0.051636078240861
 Root      4 not converged, maximum delta is    0.051966296422225
 Root      5 has converged.
 Excitation Energies [eV] at current iteration:
 Root      1 :     1.665906023992107   Change is   -0.001757504499373
 Root      2 :     1.686182152027607   Change is   -0.023818031041177
 Root      3 :     2.186364722704234   Change is   -0.006194190159790
 Root      4 :     2.192390645091237   Change is   -0.000810455348203
 Root      5 :     2.336160858435222   Change is   -0.000000000695865
 Iteration     6 Dimension    64 NMult    56 NNew      8
 CISAX will form     8 AO SS matrices at one time.
 NMat=     8 NSing=     8 JSym2X= 0.
 Root      1 not converged, maximum delta is    0.001100860744785
 Root      2 not converged, maximum delta is    0.004439677801170
 Root      3 not converged, maximum delta is    0.002152012164867
 Root      4 has converged.
 Root      5 has converged.
 Excitation Energies [eV] at current iteration:
 Root      1 :     1.665655942052239   Change is   -0.000250081939868
 Root      2 :     1.682823746715189   Change is   -0.003358405312418
 Root      3 :     2.185561388162669   Change is   -0.000803334541566
 Root      4 :     2.192268217835016   Change is   -0.000122427256222
 Root      5 :     2.336160857551727   Change is   -0.000000000883494
 Iteration     7 Dimension    70 NMult    64 NNew      6
 CISAX will form     6 AO SS matrices at one time.
 NMat=     6 NSing=     6 JSym2X= 0.
 Root      1 has converged.
 Root      2 not converged, maximum delta is    0.001427118907045
 Root      3 has converged.
 Root      4 has converged.
 Root      5 has converged.
 Excitation Energies [eV] at current iteration:
 Root      1 :     1.665631415803269   Change is   -0.000024526248970
 Root      2 :     1.682447718120261   Change is   -0.000376028594928
[...]
 Alpha virt. eigenvalues --    1.83685   1.83722   1.83957   1.84066   1.84357
 Alpha virt. eigenvalues --    1.84468   1.84665   1.84721   1.85011   1.85037
 Alpha virt. eigenvalues --    1.85192   1.85267   1.85400   1.85495   1.85664
 Alpha virt. eigenvalues --    1.85787   1.86095   1.86293   1.86482   1.86548
 Alpha virt. eigenvalues --    1.86703   1.86821   1.86941   1.86948   1.87179
 Alpha virt. eigenvalues --    1.87369   1.87571   1.87676   1.87796   1.87917
 Alpha virt. eigenvalues --    1.87969   1.88145   1.88367   1.88460   1.88738
 Alpha virt. eigenvalues --    1.88791   1.89080   1.89119   1.89286   1.89549
 Alpha virt. eigenvalues --    1.89659   1.89846   1.90024   1.90041   1.90388
 Alpha virt. eigenvalues --    1.90652   1.91067   1.91254   1.91378   1.91510
 Alpha virt. eigenvalues --    1.91866   1.92069   1.92405   1.92543   1.92853
 Alpha virt. eigenvalues --    1.92903   1.93279   1.93327   1.93628   1.94229
 Alpha virt. eigenvalues --    1.94430   1.94620   1.94946   1.95439   1.95629
 Alpha virt. eigenvalues --    1.95677   1.95891   1.95995   1.96105   1.96219
 Alpha virt. eigenvalues --    1.96356   1.96516   1.96653   1.96831   1.97145
 Alpha virt. eigenvalues --    1.97373   1.97670   1.97769   1.97966   1.98073
 Alpha virt. eigenvalues --    1.98368   1.98508   1.98534   1.99044   1.99249
 Alpha virt. eigenvalues --    1.99717   2.00185   2.00583   2.00873   2.00915
 Alpha virt. eigenvalues --    2.01273   2.01362   2.01589   2.01611   2.01625
 Alpha virt. eigenvalues --    2.01798   2.02023   2.02700   2.02873   2.03182
 Alpha virt. eigenvalues --    2.03246   2.03285   2.03365   2.03568   2.03698
 Alpha virt. eigenvalues --    2.03944   2.04195   2.04879   2.05142   2.05432
 Alpha virt. eigenvalues --    2.05783   2.05981   2.06436   2.06755   2.07079
 Alpha virt. eigenvalues --    2.07203   2.07515   2.08511   2.08664   2.08884
 Alpha virt. eigenvalues --    2.09206   2.09481   2.09799   2.10745   2.11080
 Alpha virt. eigenvalues --    2.11132   2.11447   2.11582   2.11638   2.11726
 Alpha virt. eigenvalues --    2.12103   2.12372   2.12664   2.12722   2.12749
 Alpha virt. eigenvalues --    2.12992   2.13068   2.13675   2.13918   2.14086
 Alpha virt. eigenvalues --    2.14335   2.15245   2.15561   2.15820   2.16285
 Alpha virt. eigenvalues --    2.16448   2.16631   2.16786   2.17329   2.17350
 Alpha virt. eigenvalues --    2.17627   2.17743   2.17992   2.18098   2.18174
 Alpha virt. eigenvalues --    2.18230   2.18753   2.18850   2.19441   2.19538
 Alpha virt. eigenvalues --    2.19944   2.20048   2.20092   2.20415   2.20661
 Alpha virt. eigenvalues --    2.21115   2.21260   2.21569   2.21607   2.21945
 Alpha virt. eigenvalues --    2.22025   2.22603   2.22922   2.23234   2.23475
 Alpha virt. eigenvalues --    2.24308   2.24543   2.24929   2.25129   2.26174
 Alpha virt. eigenvalues --    2.26627   2.26700   2.26980   2.27169   2.27387
 Alpha virt. eigenvalues --    2.28052   2.28567   2.29189   2.29627   2.29645
 Alpha virt. eigenvalues --    2.30084   2.30356   2.30816   2.30964   2.31006
 Alpha virt. eigenvalues --    2.31060   2.31355   2.32053   2.32374   2.33026
 Alpha virt. eigenvalues --    2.33369   2.33448   2.33611   2.34089   2.34280
 Alpha virt. eigenvalues --    2.35225   2.35444   2.35701   2.36150   2.36314
 Alpha virt. eigenvalues --    2.36516   2.36522   2.36560   2.37596   2.37800
 Alpha virt. eigenvalues --    2.38182   2.38521   2.38758   2.39031   2.39513
 Alpha virt. eigenvalues --    2.39841   2.40126   2.40364   2.40385   2.41050
 Alpha virt. eigenvalues --    2.41179   2.41420   2.41634   2.41824   2.41896
 Alpha virt. eigenvalues --    2.42293   2.42901   2.42914   2.43175   2.43320
 Alpha virt. eigenvalues --    2.44053   2.44149   2.44631   2.44812   2.44979
 Alpha virt. eigenvalues --    2.45178   2.45447   2.45746   2.46198   2.46363
 Alpha virt. eigenvalues --    2.46464   2.46661   2.46677   2.46975   2.47153
 Alpha virt. eigenvalues --    2.47496   2.47628   2.48018   2.49246   2.49503
 Alpha virt. eigenvalues --    2.50004   2.50022   2.50501   2.50627   2.51007
 Alpha virt. eigenvalues --    2.51446   2.51782   2.51788   2.52335   2.52576
 Alpha virt. eigenvalues --    2.52716   2.53395   2.53838   2.54063   2.54127
 Alpha virt. eigenvalues --    2.54381   2.54694   2.54927   2.55422   2.55804
 Alpha virt. eigenvalues --    2.57772   2.58241   2.58574   2.59074   2.60071
 Alpha virt. eigenvalues --    2.60483   2.60526   2.61151   2.61629   2.61985
 Alpha virt. eigenvalues --    2.62443   2.62603   2.62855   2.63279   2.63844
 Alpha virt. eigenvalues --    2.64211   2.64437   2.64494   2.64999   2.65247
 Alpha virt. eigenvalues --    2.65691   2.66066   2.66718   2.66836   2.66950
 Alpha virt. eigenvalues --    2.67273   2.67830   2.68147   2.68755   2.68903
 Alpha virt. eigenvalues --    2.68963   2.69195   2.69333   2.69773   2.69917
 Alpha virt. eigenvalues --    2.70284   2.70882   2.71249   2.71916   2.72027
 Alpha virt. eigenvalues --    2.72508   2.72618   2.72653   2.72920   2.73228
 Alpha virt. eigenvalues --    2.73306   2.73386   2.73580   2.74397   2.74646
 Alpha virt. eigenvalues --    2.74858   2.75213   2.76513   2.76651   2.77097
 Alpha virt. eigenvalues --    2.77209   2.77360   2.77766   2.78099   2.78421
 Alpha virt. eigenvalues --    2.78600   2.78809   2.79035   2.79320   2.80217
 Alpha virt. eigenvalues --    2.80408   2.80441   2.80841   2.80963   2.81289
 Alpha virt. eigenvalues --    2.81816   2.82141   2.82254   2.82471   2.83595
 Alpha virt. eigenvalues --    2.83670   2.83990   2.84028   2.84440   2.84650
 Alpha virt. eigenvalues --    2.84808   2.84972   2.85580   2.85807   2.86753
 Alpha virt. eigenvalues --    2.86872   2.87288   2.87434   2.88055   2.88366
 Alpha virt. eigenvalues --    2.88408   2.88754   2.88831   2.88995   2.90417
 Alpha virt. eigenvalues --    2.90816   2.91133   2.91190   2.93052   2.93501
 Alpha virt. eigenvalues --    2.93925   2.94121   2.94493   2.94664   2.95279
 Alpha virt. eigenvalues --    2.95688   2.95950   2.96009   2.96368   2.96487
 Alpha virt. eigenvalues --    2.96969   2.97023   2.97687   2.98104   2.98153
 Alpha virt. eigenvalues --    2.98256   2.98467   2.98538   2.98753   2.98790
 Alpha virt. eigenvalues --    2.98959   2.99069   2.99533   2.99866   2.99902
 Alpha virt. eigenvalues --    3.00094   3.00173   3.00349   3.00497   3.01188
 Alpha virt. eigenvalues --    3.01924   3.01942   3.02040   3.02308   3.02546
 Alpha virt. eigenvalues --    3.02879   3.02938   3.03249   3.03518   3.03928
 Alpha virt. eigenvalues --    3.04124   3.04241   3.04315   3.04486   3.04592
 Alpha virt. eigenvalues --    3.04866   3.05251   3.05475   3.06040   3.06253
 Alpha virt. eigenvalues --    3.06718   3.07126   3.08057   3.08084   3.09314
 Alpha virt. eigenvalues --    3.09419   3.09618   3.10362   3.10648   3.10951
 Alpha virt. eigenvalues --    3.11293   3.11503   3.11830   3.11938   3.12173
 Alpha virt. eigenvalues --    3.12497   3.13183   3.13577   3.13784   3.13835
 Alpha virt. eigenvalues --    3.13893   3.14577   3.15903   3.16036   3.17137
 Alpha virt. eigenvalues --    3.17650   3.17968   3.18000   3.19035   3.19154
 Alpha virt. eigenvalues --    3.22080   3.22703   3.23826   3.24499   3.24575
 Alpha virt. eigenvalues --    3.25310   3.26392   3.26801   3.27509   3.27538
 Alpha virt. eigenvalues --    3.28860   3.29317   3.31406   3.31520   3.33318
 Alpha virt. eigenvalues --    3.33333   3.40340   3.40374   3.42724   3.42937
 Alpha virt. eigenvalues --    3.48515   3.48823   3.49926   3.50442   3.50995
 Alpha virt. eigenvalues --    3.51377   3.56450   3.57134   3.59017   3.59457
 Alpha virt. eigenvalues --    3.62642   3.62707   3.66096   3.66199   3.66945
 Alpha virt. eigenvalues --    3.67630   3.73038   3.74114   3.75840   3.76776
          Condensed to atoms (all electrons):
 Mulliken charges:
               1
     1  Mg   0.839048
     2  C   -0.003552
     3  C   -0.093808
     4  C   -0.045540
     5  C   -0.064074
     6  N   -0.256946
     7  C   -0.052327
     8  C   -0.014196
     9  C   -0.087136
    10  C    0.046660
    11  C    0.104714
    12  C    0.053366
    13  C   -0.071733
    14  H    0.035283
    15  N   -0.433263
    16  C    0.168834
    17  C   -0.176933
    18  C   -0.003788
    19  C    0.149111
    20  C    0.110108
    21  C    0.012276
    22  O   -0.248932
    23  C    0.062534
    24  N   -0.341270
    25  C    0.041617
    26  C   -0.028413
    27  C   -0.024083
    28  C    0.075039
    29  C    0.076026
    30  C    0.034974
    31  C   -0.004698
    32  N   -0.310089
    33  C    0.079840
    34  C   -0.171020
    35  C    0.007627
    36  C    0.082224
    37  C    0.127697
    38  C    0.044629
    39  O   -0.189783
    40  C   -0.004877
    41  C    0.213071
    42  O   -0.259755
    43  O   -0.303989
    44  C    0.158364
    45  H   -0.017209
    46  H   -0.016228
    47  H   -0.041455
    48  H    0.000750
    49  H   -0.003498
    50  H    0.025435
    51  H    0.016615
    52  H    0.017049
    53  H    0.012411
    54  H    0.042839
    55  H    0.017870
    56  H    0.019091
    57  H    0.006358
    58  H    0.027210
    59  H    0.039700
    60  H    0.037764
    61  H    0.035811
    62  H    0.030799
    63  H    0.017427
    64  H    0.009600
    65  H    0.023930
    66  H    0.012335
    67  H    0.005022
    68  H    0.007871
    69  H    0.004312
    70  H    0.010312
    71  H    0.018972
    72  H    0.027522
    73  H    0.045626
    74  H    0.009322
    75  H    0.046462
    76  H    0.035588
    77  H    0.043151
    78  H    0.047265
    79  H    0.051096
    80  Mg   0.837493
    81  C   -0.016782
    82  C   -0.086061
    83  C   -0.046113
    84  C   -0.064911
    85  N   -0.254732
    86  C   -0.049688
    87  C   -0.015169
    88  C   -0.090132
    89  C    0.044365
    90  C    0.113218
    91  C    0.062469
    92  C   -0.077560
    93  H    0.033528
    94  N   -0.423786
    95  C    0.162138
    96  C   -0.171963
    97  C   -0.008766
    98  C    0.152982
    99  C    0.098969
   100  C    0.015261
   101  O   -0.254580
   102  C    0.061352
   103  N   -0.350099
   104  C    0.037514
   105  C   -0.019544
   106  C   -0.034748
   107  C    0.088590
   108  C    0.074451
   109  C    0.034966
   110  C   -0.007523
   111  N   -0.323965
   112  C    0.077899
   113  C   -0.163371
   114  C    0.001961
   115  C    0.095955
   116  C    0.131634
   117  C    0.041821
   118  O   -0.189151
   119  C    0.001207
   120  C    0.211317
   121  O   -0.251107
   122  O   -0.305829
   123  C    0.152162
   124  H   -0.013146
   125  H   -0.016933
   126  H   -0.040976
   127  H   -0.001460
   128  H   -0.003623
   129  H    0.019508
   130  H    0.019229
   131  H    0.021802
   132  H    0.013836
   133  H    0.036840
   134  H    0.020952
   135  H    0.020275
   136  H    0.011717
   137  H    0.027540
   138  H    0.038556
   139  H    0.038391
   140  H    0.035197
   141  H    0.033999
   142  H    0.013901
   143  H    0.011732
   144  H    0.023640
   145  H    0.011429
   146  H    0.003457
   147  H    0.005028
   148  H    0.003651
   149  H    0.010466
   150  H    0.017575
   151  H    0.030761
   152  H    0.045245
   153  H    0.008113
   154  H    0.047259
   155  H    0.034020
   156  H    0.043146
   157  H    0.049882
   158  H    0.053357
 Sum of Mulliken charges =  -0.00000
 Mulliken charges with hydrogens summed into heavy atoms:
               1
     1  Mg   0.839048
     2  C   -0.003552
     3  C   -0.111017
     4  C   -0.061769
     5  C   -0.105528
     6  N   -0.256946
     7  C   -0.052327
     8  C   -0.013447
     9  C   -0.090634
    10  C    0.046660
    11  C    0.163814
    12  C    0.108616
    13  C    0.000511
    15  N   -0.433263
    16  C    0.168834
    17  C   -0.176933
    18  C   -0.003788
    19  C    0.149111
    20  C    0.183376
    21  C    0.012276
    22  O   -0.248932
    23  C    0.166908
    24  N   -0.341270
    25  C    0.041617
    26  C   -0.010986
    27  C   -0.014483
    28  C    0.075039
    29  C    0.117314
    30  C    0.047157
    31  C    0.052107
    32  N   -0.310089
    33  C    0.079840
    34  C   -0.171020
    35  C    0.007627
    36  C    0.082224
    37  C    0.229107
    38  C    0.044629
    39  O   -0.189783
    40  C    0.030711
    41  C    0.213071
    42  O   -0.259755
    43  O   -0.303989
    44  C    0.299876
    80  Mg   0.837493
    81  C   -0.016782
    82  C   -0.099207
    83  C   -0.063046
    84  C   -0.105887
    85  N   -0.254732
    86  C   -0.049688
    87  C   -0.016630
    88  C   -0.093755
    89  C    0.044365
    90  C    0.173756
    91  C    0.113145
    92  C   -0.002804
    94  N   -0.423786
    95  C    0.162138
    96  C   -0.171963
    97  C   -0.008766
    98  C    0.152982
    99  C    0.176781
   100  C    0.015261
   101  O   -0.254580
   102  C    0.168939
   103  N   -0.350099
   104  C    0.037514
   105  C   -0.005643
   106  C   -0.023015
   107  C    0.088590
   108  C    0.112977
   109  C    0.043646
   110  C    0.051278
   111  N   -0.323965
   112  C    0.077899
   113  C   -0.163371
   114  C    0.001961
   115  C    0.095955
   116  C    0.232251
   117  C    0.041821
   118  O   -0.189151
   119  C    0.035227
   120  C    0.211317
   121  O   -0.251107
   122  O   -0.305829
   123  C    0.298547
 Electronic spatial extent (au):  <R**2>=          98160.4407
 Charge=             -0.0000 electrons
 Dipole moment (field-independent basis, Debye):
    X=              5.4433    Y=              3.1306    Z=              1.5447  Tot=              6.4666
 Quadrupole moment (field-independent basis, Debye-Ang):
   XX=           -520.9047   YY=           -512.2355   ZZ=           -486.7200
   XY=             -9.9328   XZ=             30.8965   YZ=              5.8366
 Traceless Quadrupole moment (field-independent basis, Debye-Ang):
   XX=            -14.2846   YY=             -5.6154   ZZ=             19.9001
   XY=             -9.9328   XZ=             30.8965   YZ=              5.8366
 Octapole moment (field-independent basis, Debye-Ang**2):
  XXX=            444.2120  YYY=            231.8567  ZZZ=            162.5211  XYY=            173.1705
  XXY=            206.3419  XXZ=            122.2334  XZZ=           -203.9976  YZZ=           -123.2116
  YYZ=           -298.3638  XYZ=            153.5131
 Hexadecapole moment (field-independent basis, Debye-Ang**3):
 XXXX=         -69141.7225 YYYY=         -33726.4706 ZZZZ=         -30406.2274 XXXY=            -42.2300
 XXXZ=           1078.1340 YYYX=            118.3524 YYYZ=           -707.0779 ZZZX=           1540.4910
 ZZZY=            531.5780 XXYY=         -17295.2951 XXZZ=         -15381.2146 YYZZ=         -11454.1201
 XXYZ=            315.3515 YYXZ=            -54.9804 ZZXY=            511.2498
 N-N= 1.548056249087D+04 E-N=-4.044219294987D+04  KE= 4.028801275432D+03
 Leave Link  601 at Thu Sep  9 12:59:41 2021, MaxMem= 23488102400 cpu:              15.5 elap:               0.8
 (Enter /sw/apps/gaussian-16.0/g16/l9999.exe)
 1\1\GINC-BP1-COMPUTE00116\SP\RCAM-B3LYP TD-FC\def2SVP\C68H72Mg2N8O8\OF
 15641\09-Sep-2021\0\\#p cam-b3lyp/Def2SVP td=(nstates=5)\\TDDFT excite
 d states in gaussian\\0,1\Mg,0,0.,0.,0.\C,0,-0.217,-2.218,2.801\C,0,-1
 .255,2.442,2.026\C,0,-0.245,1.85,-2.564\C,0,0.146,-2.824,-2.037\N,0,-0
 .617,-0.009,2.126\C,0,-0.594,-0.908,3.105\C,0,-0.936,-0.309,4.502\C,0,
 -1.773,0.964,4.032\C,0,-1.155,1.168,2.66\C,0,-3.263,0.685,3.863\C,0,0.
 345,0.11,5.299\C,0,0.124,0.397,6.787\H,0,1.168,0.033,7.733\N,0,-0.185,
 1.961,-0.152\C,0,-0.703,2.8,0.777\C,0,-0.62,4.156,0.193\C,0,-0.187,4.0
 15,-1.225\C,0,-0.214,2.583,-1.38\C,0,-0.887,5.406,0.974\C,0,0.181,5.01
 3,-2.277\O,0,0.303,4.69,-3.508\C,0,0.31,6.414,-1.837\N,0,-0.265,-0.413
 ,-2.029\C,0,-0.279,0.569,-2.937\C,0,-0.196,0.024,-4.332\C,0,0.124,-1.5
 33,-4.18\C,0,0.086,-1.632,-2.635\C,0,-1.451,0.205,-5.197\C,0,1.373,-2.
 07,-4.923\C,0,2.626,-1.49,-4.306\N,0,0.15,-2.144,0.303\C,0,0.173,-3.13
 6,-0.688\C,0,0.173,-4.438,0.004\C,0,0.133,-4.111,1.358\C,0,0.083,-2.69
 5,1.502\C,0,0.149,-5.715,-0.623\C,0,0.096,-4.629,2.716\O,0,0.208,-5.74
 7,3.221\C,0,-0.255,-3.428,3.701\C,0,0.717,-3.482,4.848\O,0,1.931,-3.25
 5,4.669\O,0,0.038,-3.556,6.003\C,0,0.943,-3.583,7.183\H,0,-1.859,3.22,
 2.497\H,0,-0.218,2.453,-3.474\H,0,0.276,-3.747,-2.605\H,0,-1.554,-0.94
 9,5.132\H,0,-1.585,1.831,4.665\H,0,-3.484,-0.377,3.969\H,0,-3.511,1.02
 7,2.858\H,0,-3.852,1.301,4.543\H,0,0.669,1.096,4.966\H,0,1.13,-0.639,5
 .189\H,0,-0.844,0.026,7.125\H,0,0.062,1.477,6.921\H,0,-1.344,5.186,1.9
 38\H,0,-1.651,5.963,0.432\H,0,0.007,6.02,1.084\H,0,-0.635,6.744,-1.405
 \H,0,0.665,6.97,-2.704\H,0,1.048,6.466,-1.036\H,0,0.608,0.501,-4.891\H
 ,0,-0.692,-2.156,-4.547\H,0,-1.267,0.74,-6.129\H,0,-2.204,0.714,-4.596
 \H,0,-1.967,-0.72,-5.453\H,0,1.356,-1.759,-5.967\H,0,1.452,-3.157,-4.9
 02\H,0,2.714,-0.522,-4.798\H,0,3.487,-2.121,-4.529\H,0,2.495,-1.303,-3
 .24\H,0,0.867,-6.333,-0.084\H,0,0.404,-5.642,-1.68\H,0,-0.891,-5.999,-
 0.463\H,0,-1.283,-3.581,4.028\H,0,0.698,-4.478,7.755\H,0,0.833,-2.619,
 7.68\H,0,2.,-3.754,6.976\Mg,0,8.9419,0.79766,0.68167\C,0,9.14514,-1.33
 818,-2.19513\C,0,8.17039,-1.98048,2.50412\C,0,8.31458,2.70499,3.1385\C
 ,0,8.59737,3.48497,-1.51043\N,0,8.7174,-1.32851,0.11485\C,0,8.87905,-2
 .03152,-0.996\C,0,8.82767,-3.57009,-0.79667\C,0,7.96336,-3.60856,0.556
 24\C,0,8.32838,-2.23626,1.11858\C,0,6.46387,-3.64109,0.31171\C,0,10.25
 215,-4.19343,-0.58619\C,0,10.3089,-5.71887,-0.69381\H,0,11.49767,-6.33
 15,-1.28031\N,0,8.81464,0.39455,2.62072\C,0,8.51322,-0.79281,3.18693\C
 ,0,8.52766,-0.56102,4.63959\C,0,8.70009,0.89743,4.8802\C,0,8.59326,1.4
 0243,3.52608\C,0,8.46558,-1.6765,5.64223\C,0,8.91167,1.70535,6.12466\O
 ,0,8.79753,2.98199,6.12618\C,0,9.16438,0.95096,7.361\N,0,8.30617,2.773
 15,0.80662\C,0,8.16139,3.37874,1.99836\C,0,7.96504,4.86694,1.83371\C,0
 ,8.25083,5.16976,0.28963\C,0,8.48606,3.72798,-0.2117\C,0,6.58313,5.401
 21,2.20956\C,0,9.32294,6.24744,-0.02951\C,0,10.68982,5.75533,0.38867\N
 ,0,9.06274,1.08642,-1.4561\C,0,8.85977,2.28945,-2.16715\C,0,8.93384,1.
 9626,-3.60593\C,0,9.1536,0.57715,-3.63264\C,0,9.1922,0.07269,-2.30466\
 C,0,8.75618,2.88189,-4.67807\C,0,9.3511,-0.57499,-4.48251\O,0,9.50069,
 -0.74719,-5.69152\C,0,9.22825,-1.88631,-3.59272\C,0,10.38856,-2.78379,
 -3.92546\O,0,11.55262,-2.4373,-3.65802\O,0,9.92052,-3.98756,-4.30263\C
 ,0,11.03428,-4.91635,-4.63234\H,0,7.70038,-2.74559,3.12266\H,0,8.20002
 ,3.42479,3.95228\H,0,8.5978,4.28321,-2.25575\H,0,8.31442,-4.11291,-1.5
 8134\H,0,8.30606,-4.39673,1.2216\H,0,6.22319,-3.51328,-0.73322\H,0,6.0
 5272,-2.82886,0.89676\H,0,6.03428,-4.55799,0.72533\H,0,10.54625,-4.068
 09,0.46383\H,0,10.96257,-3.75689,-1.26099\H,0,9.39987,-6.13432,-1.1454
 9\H,0,10.32225,-6.13769,0.31536\H,0,8.17571,-2.6243,5.17207\H,0,7.6395
 1,-1.4478,6.32426\H,0,9.386,-1.77347,6.22197\H,0,8.32915,0.28156,7.552
 7\H,0,9.37896,1.70251,8.12323\H,0,10.04649,0.31855,7.21083\H,0,8.67436
 ,5.41972,2.43737\H,0,7.35234,5.53917,-0.22623\H,0,6.61636,6.19212,2.98
 25\H,0,5.97468,4.57046,2.54149\H,0,6.00005,5.79775,1.38012\H,0,9.1303,
 7.15562,0.5469\H,0,9.35245,6.53063,-1.07637\H,0,10.71999,5.98899,1.457
 12\H,0,11.47023,6.28548,-0.15349\H,0,10.76409,4.66637,0.28717\H,0,9.52
 698,2.66457,-5.40548\H,0,8.81376,3.91188,-4.3323\H,0,7.74669,2.61292,-
 5.00035\H,0,8.27017,-2.3522,-3.82639\H,0,10.85838,-5.27747,-5.65035\H,
 0,11.04245,-5.67178,-3.82426\H,0,12.02787,-4.494,-4.72648\\Version=ES6
 4L-G16RevA.03\State=1-A\HF=-4069.8126333\RMSD=5.557e-09\PG=C01 [X(C68H
 72Mg2N8O8)]\\@


 HOW IS IT THAT THE SKY FEEDS THE STARS?

                           -- LUCRETIUS
 Job cpu time:       0 days 14 hours 59 minutes 26.8 seconds.
 Elapsed time:       0 days  0 hours 38 minutes  8.3 seconds.
 File lengths (MBytes):  RWF=  13225 Int=      0 D2E=      0 Chk=    574 Scr=      1
 Normal termination of Gaussian 16 at Thu Sep  9 12:59:42 2021.
