 Entering Gaussian System, Link 0=g16
 Initial command:
 /sw/apps/gaussian-16.0/g16/l1.exe "/tmp/Gau-32215.inp" -scrdir="/tmp/"
 Entering Link 1 = /sw/apps/gaussian-16.0/g16/l1.exe PID=     32216.
  
 Copyright (c) 1988,1990,1992,1993,1995,1998,2003,2009,2016,
            Gaussian, Inc.  All Rights Reserved.
  
 This is part of the Gaussian(R) 16 program.  It is based on
 the Gaussian(R) 09 system (copyright 2009, Gaussian, Inc.),
 the Gaussian(R) 03 system (copyright 2003, Gaussian, Inc.),
 the Gaussian(R) 98 system (copyright 1998, Gaussian, Inc.),
 the Gaussian(R) 94 system (copyright 1995, Gaussian, Inc.),
 the Gaussian 92(TM) system (copyright 1992, Gaussian, Inc.),
 the Gaussian 90(TM) system (copyright 1990, Gaussian, Inc.),
 the Gaussian 88(TM) system (copyright 1988, Gaussian, Inc.),
 the Gaussian 86(TM) system (copyright 1986, Carnegie Mellon
 University), and the Gaussian 82(TM) system (copyright 1983,
 Carnegie Mellon University). Gaussian is a federally registered
 trademark of Gaussian, Inc.
  
 This software contains proprietary and confidential information,
 including trade secrets, belonging to Gaussian, Inc.
  
 This software is provided under written license and may be
 used, copied, transmitted, or stored only in accord with that
 written license.
  
 The following legend is applicable only to US Government
 contracts under FAR:
  
                    RESTRICTED RIGHTS LEGEND
  
 Use, reproduction and disclosure by the US Government is
 subject to restrictions as set forth in subparagraphs (a)
 and (c) of the Commercial Computer Software - Restricted
 Rights clause in FAR 52.227-19.
  
 Gaussian, Inc.
 340 Quinnipiac St., Bldg. 40, Wallingford CT 06492
  
  
 ---------------------------------------------------------------
 Warning -- This program may not be used in any manner that
 competes with the business of Gaussian, Inc. or will provide
 assistance to any competitor of Gaussian, Inc.  The licensee
 of this program is prohibited from giving any competitor of
 Gaussian, Inc. access to this program.  By using this program,
 the user acknowledges that Gaussian, Inc. is engaged in the
 business of creating and licensing software in the field of
 computational chemistry and represents and warrants to the
 licensee that it is not a competitor of Gaussian, Inc. and that
 it will not use this program in any manner prohibited above.
 ---------------------------------------------------------------
  

 Cite this work as:
 Gaussian 16, Revision A.03,
 M. J. Frisch, G. W. Trucks, H. B. Schlegel, G. E. Scuseria, 
 M. A. Robb, J. R. Cheeseman, G. Scalmani, V. Barone, 
 G. A. Petersson, H. Nakatsuji, X. Li, M. Caricato, A. V. Marenich, 
 J. Bloino, B. G. Janesko, R. Gomperts, B. Mennucci, H. P. Hratchian, 
 J. V. Ortiz, A. F. Izmaylov, J. L. Sonnenberg, D. Williams-Young, 
 F. Ding, F. Lipparini, F. Egidi, J. Goings, B. Peng, A. Petrone, 
 T. Henderson, D. Ranasinghe, V. G. Zakrzewski, J. Gao, N. Rega, 
 G. Zheng, W. Liang, M. Hada, M. Ehara, K. Toyota, R. Fukuda, 
 J. Hasegawa, M. Ishida, T. Nakajima, Y. Honda, O. Kitao, H. Nakai, 
 T. Vreven, K. Throssell, J. A. Montgomery, Jr., J. E. Peralta, 
 F. Ogliaro, M. J. Bearpark, J. J. Heyd, E. N. Brothers, K. N. Kudin, 
 V. N. Staroverov, T. A. Keith, R. Kobayashi, J. Normand, 
 K. Raghavachari, A. P. Rendell, J. C. Burant, S. S. Iyengar, 
 J. Tomasi, M. Cossi, J. M. Millam, M. Klene, C. Adamo, R. Cammi, 
 J. W. Ochterski, R. L. Martin, K. Morokuma, O. Farkas, 
 J. B. Foresman, and D. J. Fox, Gaussian, Inc., Wallingford CT, 2016.
 
 ******************************************
 Gaussian 16:  ES64L-G16RevA.03 25-Dec-2016
                 3-Sep-2021 
 ******************************************
 %nproc=24
 Will use up to   24 processors via shared memory.
 %mem=175gb
 -----------------------------------
 #p cam-b3lyp/Def2SVP td=(nstates=5)
 -----------------------------------
 1/38=1,172=1/1;
 2/12=2,17=6,18=5,40=1/2;
 3/5=43,7=101,11=9,25=1,30=1,74=-40/1,2,3,8;
 4//1;
 5/5=2,38=5/2;
 8/6=1,10=1,108=5/1;
 9/41=5,42=1,70=2/14;
 6/7=2,8=2,9=2,10=2/1;
 99/5=1,9=1/99;
 Leave Link    1 at Fri Sep  3 19:40:03 2021, MaxMem= 23488102400 cpu:               0.9 elap:               0.0
 (Enter /sw/apps/gaussian-16.0/g16/l101.exe)
 --------------------------------
 TDDFT excited states in gaussian
 --------------------------------
 Symbolic Z-matrix:
 Charge =  0 Multiplicity = 1
 Mg                    0.        0.        0. 
 C                    -0.217    -2.218     2.801 
 C                    -1.255     2.442     2.026 
 C                    -0.245     1.85     -2.564 
 C                     0.146    -2.824    -2.037 
 N                    -0.617    -0.009     2.126 
 C                    -0.594    -0.908     3.105 
 C                    -0.936    -0.309     4.502 
 C                    -1.773     0.964     4.032 
 C                    -1.155     1.168     2.66 
 C                    -3.263     0.685     3.863 
 C                     0.345     0.11      5.299 
 C                     0.124     0.397     6.787 
 H                     1.168     0.033     7.733 
 N                    -0.185     1.961    -0.152 
 C                    -0.703     2.8       0.777 
 C                    -0.62      4.156     0.193 
 C                    -0.187     4.015    -1.225 
 C                    -0.214     2.583    -1.38 
 C                    -0.887     5.406     0.974 
 C                     0.181     5.013    -2.277 
 O                     0.303     4.69     -3.508 
 C                     0.31      6.414    -1.837 
 N                    -0.265    -0.413    -2.029 
 C                    -0.279     0.569    -2.937 
 C                    -0.196     0.024    -4.332 
 C                     0.124    -1.533    -4.18 
 C                     0.086    -1.632    -2.635 
 C                    -1.451     0.205    -5.197 
 C                     1.373    -2.07     -4.923 
 C                     2.626    -1.49     -4.306 
 N                     0.15     -2.144     0.303 
 C                     0.173    -3.136    -0.688 
 C                     0.173    -4.438     0.004 
 C                     0.133    -4.111     1.358 
 C                     0.083    -2.695     1.502 
 C                     0.149    -5.715    -0.623 
 C                     0.096    -4.629     2.716 
 O                     0.208    -5.747     3.221 
 C                    -0.255    -3.428     3.701 
 C                     0.717    -3.482     4.848 
 O                     1.931    -3.255     4.669 
 O                     0.038    -3.556     6.003 
 C                     0.943    -3.583     7.183 
 H                    -1.859     3.22      2.497 
 H                    -0.218     2.453    -3.474 
 H                     0.276    -3.747    -2.605 
 H                    -1.554    -0.949     5.132 
 H                    -1.585     1.831     4.665 
 H                    -3.484    -0.377     3.969 
 H                    -3.511     1.027     2.858 
 H                    -3.852     1.301     4.543 
 H                     0.669     1.096     4.966 
 H                     1.13     -0.639     5.189 
 H                    -0.844     0.026     7.125 
 H                     0.062     1.477     6.921 
 H                    -1.344     5.186     1.938 
 H                    -1.651     5.963     0.432 
 H                     0.007     6.02      1.084 
 H                    -0.635     6.744    -1.405 
 H                     0.665     6.97     -2.704 
 H                     1.048     6.466    -1.036 
 H                     0.608     0.501    -4.891 
 H                    -0.692    -2.156    -4.547 
 H                    -1.267     0.74     -6.129 
 H                    -2.204     0.714    -4.596 
 H                    -1.967    -0.72     -5.453 
 H                     1.356    -1.759    -5.967 
 H                     1.452    -3.157    -4.902 
 H                     2.714    -0.522    -4.798 
 H                     3.487    -2.121    -4.529 
 H                     2.495    -1.303    -3.24 
 H                     0.867    -6.333    -0.084 
 H                     0.404    -5.642    -1.68 
 H                    -0.891    -5.999    -0.463 
 H                    -1.283    -3.581     4.028 
 H                     0.698    -4.478     7.755 
 H                     0.833    -2.619     7.68 
 H                     2.       -3.754     6.976 
 Mg                    8.94232   0.79975   0.67359 
 C                     8.81967   2.51453  -2.47658 
 C                     8.45147  -2.09949  -1.05501 
 C                     8.59556  -0.68438   3.45649 
 C                     8.28133   3.85881   2.20687 
 N                     8.68423   0.38934  -1.48447 
 C                     8.71734   1.11264  -2.59356 
 C                     8.71703   0.28084  -3.90415 
 C                     8.02958  -1.05637  -3.3401 
 C                     8.4391   -0.94168  -1.87319 
 C                     6.51202  -1.03084  -3.41573 
 C                     10.16688   0.00135  -4.43505 
 C                     10.2352  -0.53582  -5.86632 
 H                     11.35131  -0.12237  -6.71239 
 N                     9.06545  -1.12898   1.12458 
 C                     8.85714  -2.17339   0.29566 
 C                     9.04936  -3.38086   1.11371 
 C                     9.22614  -2.96381   2.53129 
 C                     8.94229  -1.54659   2.42648 
 C                     9.13189  -4.75876   0.52379 
 C                     9.57824  -3.71824   3.77752 
 O                     9.44386  -3.19705   4.94076 
 C                     9.99624  -5.1167    3.60125 
 N                     8.2943    1.44062   2.5422 
 C                     8.28967   0.60568   3.59613 
 C                     8.04942   1.35527   4.88484 
 C                     8.13464   2.90575   4.5023 
 C                     8.32936   2.77934   2.97538 
 C                     6.71666   1.0751    5.57885 
 C                     9.14023   3.77474   5.30624 
 C                     10.55672   3.35663   4.98354 
 N                     8.78987   2.85843   0.03588 
 C                     8.47944   3.97889   0.8373 
 C                     8.37835   5.14462  -0.06452 
 C                     8.61617   4.61312  -1.34102 
 C                     8.82906   3.21141  -1.24409 
 C                     8.05259   6.47371   0.32729 
 C                     8.725     4.91734  -2.74967 
 O                     8.725     5.95046  -3.41779 
 C                     8.7364    3.55134  -3.56226 
 C                     9.8608    3.61346  -4.55946 
 O                     11.04321   3.65877  -4.17677 
 O                     9.36942   3.39059  -5.79204 
 C                     10.44854   3.43122  -6.81462 
 H                     8.0754   -3.03389  -1.47256 
 H                     8.57171  -1.12776   4.45465 
 H                     8.17516   4.86456   2.61903 
 H                     8.11879   0.6967   -4.70598 
 H                     8.46597  -1.94462  -3.78948 
 H                     6.14039  -0.0663   -3.72829 
 H                     6.1638   -1.2654   -2.41835 
 H                     6.15296  -1.83982  -4.05835 
 H                     10.58792  -0.85498  -3.89268 
 H                     10.77988   0.87732  -4.3482 
 H                     9.28387  -0.41366  -6.39829 
 H                     10.38173  -1.61785  -5.82425 
 H                     8.80135  -4.76897  -0.52218 
 H                     8.39394  -5.3757    1.04789 
 H                     10.11911  -5.21      0.64402 
 H                     9.20287  -5.67101   3.10551 
 H                     10.29192  -5.4607    4.59428 
 H                     10.86308  -5.14098   2.93146 
 H                     8.81935   1.13003   5.61255 
 H                     7.17262   3.41662   4.65518 
 H                     6.83312   0.71614   6.61888 
 H                     6.16849   0.35422   4.98691 
 H                     6.02782   1.91743   5.6132 
 H                     9.00608   3.61459   6.37886 
 H                     9.03377   4.83885   5.12371 
 H                     10.71644   2.49742   5.64182 
 H                     11.25419   4.16105   5.20824 
 H                     10.63591   2.99942   3.95021 
 H                     8.72984   7.12959  -0.20341 
 H                     8.13576   6.60234   1.40447 
 H                     7.01535   6.52892  -0.01382 
 H                     7.76454   3.45032  -4.04687 
 H                     10.15271   4.17395  -7.56196 
 H                     10.57039   2.38803  -7.16198 
 H                     11.41534   3.81308  -6.50813 
 
 ITRead=  0  0  0  0  0  0  0  0  0  0  0  0  0  0  0  0  0  0  0  0
 ITRead=  0  0  0  0  0  0  0  0  0  0  0  0  0  0  0  0  0  0  0  0
 ITRead=  0  0  0  0  0  0  0  0  0  0  0  0  0  0  0  0  0  0  0  0
 ITRead=  0  0  0  0  0  0  0  0  0  0  0  0  0  0  0  0  0  0  0  0
 ITRead=  0  0  0  0  0  0  0  0  0  0  0  0  0  0  0  0  0  0  0  0
 ITRead=  0  0  0  0  0  0  0  0  0  0  0  0  0  0  0  0  0  0  0  0
 ITRead=  0  0  0  0  0  0  0  0  0  0  0  0  0  0  0  0  0  0  0  0
 ITRead=  0  0  0  0  0  0  0  0  0  0  0  0  0  0  0  0  0  0
 MicOpt= -1 -1 -1 -1 -1 -1 -1 -1 -1 -1 -1 -1 -1 -1 -1 -1 -1 -1 -1 -1
 MicOpt= -1 -1 -1 -1 -1 -1 -1 -1 -1 -1 -1 -1 -1 -1 -1 -1 -1 -1 -1 -1
 MicOpt= -1 -1 -1 -1 -1 -1 -1 -1 -1 -1 -1 -1 -1 -1 -1 -1 -1 -1 -1 -1
 MicOpt= -1 -1 -1 -1 -1 -1 -1 -1 -1 -1 -1 -1 -1 -1 -1 -1 -1 -1 -1 -1
 MicOpt= -1 -1 -1 -1 -1 -1 -1 -1 -1 -1 -1 -1 -1 -1 -1 -1 -1 -1 -1 -1
 MicOpt= -1 -1 -1 -1 -1 -1 -1 -1 -1 -1 -1 -1 -1 -1 -1 -1 -1 -1 -1 -1
 MicOpt= -1 -1 -1 -1 -1 -1 -1 -1 -1 -1 -1 -1 -1 -1 -1 -1 -1 -1 -1 -1
 MicOpt= -1 -1 -1 -1 -1 -1 -1 -1 -1 -1 -1 -1 -1 -1 -1 -1 -1 -1
 NAtoms=    158 NQM=      158 NQMF=       0 NMMI=      0 NMMIF=      0
                NMic=       0 NMicF=      0.
                    Isotopes and Nuclear Properties:
 (Nuclear quadrupole moments (NQMom) in fm**2, nuclear magnetic moments (NMagM)
  in nuclear magnetons)

  Atom         1           2           3           4           5           6           7           8           9          10
 IAtWgt=          24          12          12          12          12          14          12          12          12          12
 AtmWgt=  23.9850450  12.0000000  12.0000000  12.0000000  12.0000000  14.0030740  12.0000000  12.0000000  12.0000000  12.0000000
 NucSpn=           0           0           0           0           0           2           0           0           0           0
 AtZEff=  -0.0000000  -0.0000000  -0.0000000  -0.0000000  -0.0000000  -0.0000000  -0.0000000  -0.0000000  -0.0000000  -0.0000000
 NQMom=    0.0000000   0.0000000   0.0000000   0.0000000   0.0000000   2.0440000   0.0000000   0.0000000   0.0000000   0.0000000
 NMagM=    0.0000000   0.0000000   0.0000000   0.0000000   0.0000000   0.4037610   0.0000000   0.0000000   0.0000000   0.0000000
 AtZNuc=  12.0000000   6.0000000   6.0000000   6.0000000   6.0000000   7.0000000   6.0000000   6.0000000   6.0000000   6.0000000

  Atom        11          12          13          14          15          16          17          18          19          20
 IAtWgt=          12          12          12           1          14          12          12          12          12          12
 AtmWgt=  12.0000000  12.0000000  12.0000000   1.0078250  14.0030740  12.0000000  12.0000000  12.0000000  12.0000000  12.0000000
 NucSpn=           0           0           0           1           2           0           0           0           0           0
 AtZEff=  -0.0000000  -0.0000000  -0.0000000  -0.0000000  -0.0000000  -0.0000000  -0.0000000  -0.0000000  -0.0000000  -0.0000000
 NQMom=    0.0000000   0.0000000   0.0000000   0.0000000   2.0440000   0.0000000   0.0000000   0.0000000   0.0000000   0.0000000
 NMagM=    0.0000000   0.0000000   0.0000000   2.7928460   0.4037610   0.0000000   0.0000000   0.0000000   0.0000000   0.0000000
 AtZNuc=   6.0000000   6.0000000   6.0000000   1.0000000   7.0000000   6.0000000   6.0000000   6.0000000   6.0000000   6.0000000

  Atom        21          22          23          24          25          26          27          28          29          30
 IAtWgt=          12          16          12          14          12          12          12          12          12          12
 AtmWgt=  12.0000000  15.9949146  12.0000000  14.0030740  12.0000000  12.0000000  12.0000000  12.0000000  12.0000000  12.0000000
 NucSpn=           0           0           0           2           0           0           0           0           0           0
 AtZEff=  -0.0000000  -0.0000000  -0.0000000  -0.0000000  -0.0000000  -0.0000000  -0.0000000  -0.0000000  -0.0000000  -0.0000000
 NQMom=    0.0000000   0.0000000   0.0000000   2.0440000   0.0000000   0.0000000   0.0000000   0.0000000   0.0000000   0.0000000
 NMagM=    0.0000000   0.0000000   0.0000000   0.4037610   0.0000000   0.0000000   0.0000000   0.0000000   0.0000000   0.0000000
 AtZNuc=   6.0000000   8.0000000   6.0000000   7.0000000   6.0000000   6.0000000   6.0000000   6.0000000   6.0000000   6.0000000

  Atom        31          32          33          34          35          36          37          38          39          40
 IAtWgt=          12          14          12          12          12          12          12          12          16          12
 AtmWgt=  12.0000000  14.0030740  12.0000000  12.0000000  12.0000000  12.0000000  12.0000000  12.0000000  15.9949146  12.0000000
 NucSpn=           0           2           0           0           0           0           0           0           0           0
 AtZEff=  -0.0000000  -0.0000000  -0.0000000  -0.0000000  -0.0000000  -0.0000000  -0.0000000  -0.0000000  -0.0000000  -0.0000000
 NQMom=    0.0000000   2.0440000   0.0000000   0.0000000   0.0000000   0.0000000   0.0000000   0.0000000   0.0000000   0.0000000
 NMagM=    0.0000000   0.4037610   0.0000000   0.0000000   0.0000000   0.0000000   0.0000000   0.0000000   0.0000000   0.0000000
 AtZNuc=   6.0000000   7.0000000   6.0000000   6.0000000   6.0000000   6.0000000   6.0000000   6.0000000   8.0000000   6.0000000

  Atom        41          42          43          44          45          46          47          48          49          50
 IAtWgt=          12          16          16          12           1           1           1           1           1           1
 AtmWgt=  12.0000000  15.9949146  15.9949146  12.0000000   1.0078250   1.0078250   1.0078250   1.0078250   1.0078250   1.0078250
 NucSpn=           0           0           0           0           1           1           1           1           1           1
 AtZEff=  -0.0000000  -0.0000000  -0.0000000  -0.0000000  -0.0000000  -0.0000000  -0.0000000  -0.0000000  -0.0000000  -0.0000000
 NQMom=    0.0000000   0.0000000   0.0000000   0.0000000   0.0000000   0.0000000   0.0000000   0.0000000   0.0000000   0.0000000
 NMagM=    0.0000000   0.0000000   0.0000000   0.0000000   2.7928460   2.7928460   2.7928460   2.7928460   2.7928460   2.7928460
 AtZNuc=   6.0000000   8.0000000   8.0000000   6.0000000   1.0000000   1.0000000   1.0000000   1.0000000   1.0000000   1.0000000

  Atom        51          52          53          54          55          56          57          58          59          60
 IAtWgt=           1           1           1           1           1           1           1           1           1           1
 AtmWgt=   1.0078250   1.0078250   1.0078250   1.0078250   1.0078250   1.0078250   1.0078250   1.0078250   1.0078250   1.0078250
 NucSpn=           1           1           1           1           1           1           1           1           1           1
 AtZEff=  -0.0000000  -0.0000000  -0.0000000  -0.0000000  -0.0000000  -0.0000000  -0.0000000  -0.0000000  -0.0000000  -0.0000000
 NQMom=    0.0000000   0.0000000   0.0000000   0.0000000   0.0000000   0.0000000   0.0000000   0.0000000   0.0000000   0.0000000
 NMagM=    2.7928460   2.7928460   2.7928460   2.7928460   2.7928460   2.7928460   2.7928460   2.7928460   2.7928460   2.7928460
 AtZNuc=   1.0000000   1.0000000   1.0000000   1.0000000   1.0000000   1.0000000   1.0000000   1.0000000   1.0000000   1.0000000

  Atom        61          62          63          64          65          66          67          68          69          70
 IAtWgt=           1           1           1           1           1           1           1           1           1           1
 AtmWgt=   1.0078250   1.0078250   1.0078250   1.0078250   1.0078250   1.0078250   1.0078250   1.0078250   1.0078250   1.0078250
 NucSpn=           1           1           1           1           1           1           1           1           1           1
 AtZEff=  -0.0000000  -0.0000000  -0.0000000  -0.0000000  -0.0000000  -0.0000000  -0.0000000  -0.0000000  -0.0000000  -0.0000000
 NQMom=    0.0000000   0.0000000   0.0000000   0.0000000   0.0000000   0.0000000   0.0000000   0.0000000   0.0000000   0.0000000
 NMagM=    2.7928460   2.7928460   2.7928460   2.7928460   2.7928460   2.7928460   2.7928460   2.7928460   2.7928460   2.7928460
 AtZNuc=   1.0000000   1.0000000   1.0000000   1.0000000   1.0000000   1.0000000   1.0000000   1.0000000   1.0000000   1.0000000

  Atom        71          72          73          74          75          76          77          78          79          80
 IAtWgt=           1           1           1           1           1           1           1           1           1          24
 AtmWgt=   1.0078250   1.0078250   1.0078250   1.0078250   1.0078250   1.0078250   1.0078250   1.0078250   1.0078250  23.9850450
 NucSpn=           1           1           1           1           1           1           1           1           1           0
 AtZEff=  -0.0000000  -0.0000000  -0.0000000  -0.0000000  -0.0000000  -0.0000000  -0.0000000  -0.0000000  -0.0000000  -0.0000000
 NQMom=    0.0000000   0.0000000   0.0000000   0.0000000   0.0000000   0.0000000   0.0000000   0.0000000   0.0000000   0.0000000
 NMagM=    2.7928460   2.7928460   2.7928460   2.7928460   2.7928460   2.7928460   2.7928460   2.7928460   2.7928460   0.0000000
 AtZNuc=   1.0000000   1.0000000   1.0000000   1.0000000   1.0000000   1.0000000   1.0000000   1.0000000   1.0000000  12.0000000

  Atom        81          82          83          84          85          86          87          88          89          90
 IAtWgt=          12          12          12          12          14          12          12          12          12          12
 AtmWgt=  12.0000000  12.0000000  12.0000000  12.0000000  14.0030740  12.0000000  12.0000000  12.0000000  12.0000000  12.0000000
 NucSpn=           0           0           0           0           2           0           0           0           0           0
 AtZEff=  -0.0000000  -0.0000000  -0.0000000  -0.0000000  -0.0000000  -0.0000000  -0.0000000  -0.0000000  -0.0000000  -0.0000000
 NQMom=    0.0000000   0.0000000   0.0000000   0.0000000   2.0440000   0.0000000   0.0000000   0.0000000   0.0000000   0.0000000
 NMagM=    0.0000000   0.0000000   0.0000000   0.0000000   0.4037610   0.0000000   0.0000000   0.0000000   0.0000000   0.0000000
 AtZNuc=   6.0000000   6.0000000   6.0000000   6.0000000   7.0000000   6.0000000   6.0000000   6.0000000   6.0000000   6.0000000

  Atom        91          92          93          94          95          96          97          98          99         100
 IAtWgt=          12          12           1          14          12          12          12          12          12          12
 AtmWgt=  12.0000000  12.0000000   1.0078250  14.0030740  12.0000000  12.0000000  12.0000000  12.0000000  12.0000000  12.0000000
 NucSpn=           0           0           1           2           0           0           0           0           0           0
 AtZEff=  -0.0000000  -0.0000000  -0.0000000  -0.0000000  -0.0000000  -0.0000000  -0.0000000  -0.0000000  -0.0000000  -0.0000000
 NQMom=    0.0000000   0.0000000   0.0000000   2.0440000   0.0000000   0.0000000   0.0000000   0.0000000   0.0000000   0.0000000
 NMagM=    0.0000000   0.0000000   2.7928460   0.4037610   0.0000000   0.0000000   0.0000000   0.0000000   0.0000000   0.0000000
 AtZNuc=   6.0000000   6.0000000   1.0000000   7.0000000   6.0000000   6.0000000   6.0000000   6.0000000   6.0000000   6.0000000

  Atom       101         102         103         104         105         106         107         108         109         110
 IAtWgt=          16          12          14          12          12          12          12          12          12          12
 AtmWgt=  15.9949146  12.0000000  14.0030740  12.0000000  12.0000000  12.0000000  12.0000000  12.0000000  12.0000000  12.0000000
 NucSpn=           0           0           2           0           0           0           0           0           0           0
 AtZEff=  -0.0000000  -0.0000000  -0.0000000  -0.0000000  -0.0000000  -0.0000000  -0.0000000  -0.0000000  -0.0000000  -0.0000000
 NQMom=    0.0000000   0.0000000   2.0440000   0.0000000   0.0000000   0.0000000   0.0000000   0.0000000   0.0000000   0.0000000
 NMagM=    0.0000000   0.0000000   0.4037610   0.0000000   0.0000000   0.0000000   0.0000000   0.0000000   0.0000000   0.0000000
 AtZNuc=   8.0000000   6.0000000   7.0000000   6.0000000   6.0000000   6.0000000   6.0000000   6.0000000   6.0000000   6.0000000

  Atom       111         112         113         114         115         116         117         118         119         120
 IAtWgt=          14          12          12          12          12          12          12          16          12          12
 AtmWgt=  14.0030740  12.0000000  12.0000000  12.0000000  12.0000000  12.0000000  12.0000000  15.9949146  12.0000000  12.0000000
 NucSpn=           2           0           0           0           0           0           0           0           0           0
 AtZEff=  -0.0000000  -0.0000000  -0.0000000  -0.0000000  -0.0000000  -0.0000000  -0.0000000  -0.0000000  -0.0000000  -0.0000000
 NQMom=    2.0440000   0.0000000   0.0000000   0.0000000   0.0000000   0.0000000   0.0000000   0.0000000   0.0000000   0.0000000
 NMagM=    0.4037610   0.0000000   0.0000000   0.0000000   0.0000000   0.0000000   0.0000000   0.0000000   0.0000000   0.0000000
 AtZNuc=   7.0000000   6.0000000   6.0000000   6.0000000   6.0000000   6.0000000   6.0000000   8.0000000   6.0000000   6.0000000

  Atom       121         122         123         124         125         126         127         128         129         130
 IAtWgt=          16          16          12           1           1           1           1           1           1           1
 AtmWgt=  15.9949146  15.9949146  12.0000000   1.0078250   1.0078250   1.0078250   1.0078250   1.0078250   1.0078250   1.0078250
 NucSpn=           0           0           0           1           1           1           1           1           1           1
 AtZEff=  -0.0000000  -0.0000000  -0.0000000  -0.0000000  -0.0000000  -0.0000000  -0.0000000  -0.0000000  -0.0000000  -0.0000000
 NQMom=    0.0000000   0.0000000   0.0000000   0.0000000   0.0000000   0.0000000   0.0000000   0.0000000   0.0000000   0.0000000
 NMagM=    0.0000000   0.0000000   0.0000000   2.7928460   2.7928460   2.7928460   2.7928460   2.7928460   2.7928460   2.7928460
 AtZNuc=   8.0000000   8.0000000   6.0000000   1.0000000   1.0000000   1.0000000   1.0000000   1.0000000   1.0000000   1.0000000

  Atom       131         132         133         134         135         136         137         138         139         140
 IAtWgt=           1           1           1           1           1           1           1           1           1           1
 AtmWgt=   1.0078250   1.0078250   1.0078250   1.0078250   1.0078250   1.0078250   1.0078250   1.0078250   1.0078250   1.0078250
 NucSpn=           1           1           1           1           1           1           1           1           1           1
 AtZEff=  -0.0000000  -0.0000000  -0.0000000  -0.0000000  -0.0000000  -0.0000000  -0.0000000  -0.0000000  -0.0000000  -0.0000000
 NQMom=    0.0000000   0.0000000   0.0000000   0.0000000   0.0000000   0.0000000   0.0000000   0.0000000   0.0000000   0.0000000
 NMagM=    2.7928460   2.7928460   2.7928460   2.7928460   2.7928460   2.7928460   2.7928460   2.7928460   2.7928460   2.7928460
 AtZNuc=   1.0000000   1.0000000   1.0000000   1.0000000   1.0000000   1.0000000   1.0000000   1.0000000   1.0000000   1.0000000

  Atom       141         142         143         144         145         146         147         148         149         150
 IAtWgt=           1           1           1           1           1           1           1           1           1           1
 AtmWgt=   1.0078250   1.0078250   1.0078250   1.0078250   1.0078250   1.0078250   1.0078250   1.0078250   1.0078250   1.0078250
 NucSpn=           1           1           1           1           1           1           1           1           1           1
 AtZEff=  -0.0000000  -0.0000000  -0.0000000  -0.0000000  -0.0000000  -0.0000000  -0.0000000  -0.0000000  -0.0000000  -0.0000000
 NQMom=    0.0000000   0.0000000   0.0000000   0.0000000   0.0000000   0.0000000   0.0000000   0.0000000   0.0000000   0.0000000
 NMagM=    2.7928460   2.7928460   2.7928460   2.7928460   2.7928460   2.7928460   2.7928460   2.7928460   2.7928460   2.7928460
 AtZNuc=   1.0000000   1.0000000   1.0000000   1.0000000   1.0000000   1.0000000   1.0000000   1.0000000   1.0000000   1.0000000

  Atom       151         152         153         154         155         156         157         158
 IAtWgt=           1           1           1           1           1           1           1           1
 AtmWgt=   1.0078250   1.0078250   1.0078250   1.0078250   1.0078250   1.0078250   1.0078250   1.0078250
 NucSpn=           1           1           1           1           1           1           1           1
 AtZEff=  -0.0000000  -0.0000000  -0.0000000  -0.0000000  -0.0000000  -0.0000000  -0.0000000  -0.0000000
 NQMom=    0.0000000   0.0000000   0.0000000   0.0000000   0.0000000   0.0000000   0.0000000   0.0000000
 NMagM=    2.7928460   2.7928460   2.7928460   2.7928460   2.7928460   2.7928460   2.7928460   2.7928460
 AtZNuc=   1.0000000   1.0000000   1.0000000   1.0000000   1.0000000   1.0000000   1.0000000   1.0000000
 Leave Link  101 at Fri Sep  3 19:40:03 2021, MaxMem= 23488102400 cpu:               3.5 elap:               0.2
 (Enter /sw/apps/gaussian-16.0/g16/l202.exe)
 Stoichiometry    C68H72Mg2N8O8
 Framework group  C1[X(C68H72Mg2N8O8)]
 Deg. of freedom   468
 Full point group                 C1      NOp   1
 Largest Abelian subgroup         C1      NOp   1
 Largest concise Abelian subgroup C1      NOp   1
                         Standard orientation:                         
 ---------------------------------------------------------------------
 Center     Atomic      Atomic             Coordinates (Angstroms)
 Number     Number       Type             X           Y           Z
 ---------------------------------------------------------------------
      1         12           0        4.056076   -1.746741   -0.067709
      2          6           0        5.625878    1.434468   -0.545038
      3          6           0        5.161264   -1.641123    3.158817
      4          6           0        3.075228   -4.745475    0.251908
      5          6           0        4.070231   -2.108375   -3.533929
      6          7           0        5.233103   -0.239891    1.047933
      7          6           0        5.722452    0.963600    0.766298
      8          6           0        6.281229    1.710811    2.014024
      9          6           0        6.591778    0.452626    2.942748
     10          6           0        5.578097   -0.524840    2.374475
     11          6           0        7.991344   -0.120409    2.744385
     12          6           0        5.217227    2.656037    2.666848
     13          6           0        5.770692    3.660363    3.681915
     14          1           0        5.169945    4.983556    3.756817
     15          7           0        3.677631   -2.804635    1.557250
     16          6           0        4.203787   -2.610892    2.790501
     17          6           0        3.611067   -3.653990    3.654972
     18          6           0        2.844119   -4.586171    2.782663
     19          6           0        3.194431   -4.091336    1.475836
     20          6           0        3.757314   -3.668138    5.145664
     21          6           0        1.947451   -5.746370    3.079406
     22          8           0        1.567820   -6.562295    2.171264
     23          6           0        1.592074   -5.956869    4.494481
     24          7           0        3.829867   -3.318842   -1.422318
     25          6           0        3.330999   -4.497646   -1.034330
     26          6           0        2.997984   -5.364064   -2.212617
     27          6           0        3.147545   -4.433720   -3.501742
     28          6           0        3.647871   -3.144157   -2.805344
     29          6           0        3.863812   -6.619555   -2.386104
     30          6           0        1.921488   -4.335051   -4.443797
     31          6           0        0.790569   -3.618113   -3.740860
     32          7           0        4.557029   -0.498114   -1.770948
     33          6           0        4.509725   -0.860412   -3.124896
     34          6           0        5.042616    0.278060   -3.895595
     35          6           0        5.380511    1.223264   -2.929023
     36          6           0        5.102289    0.697664   -1.634948
     37          6           0        5.215835    0.320701   -5.307193
     38          6           0        5.934809    2.545417   -2.687109
     39          8           0        6.263598    3.492199   -3.403346
     40          6           0        6.229311    2.687792   -1.128640
     41          6           0        5.672254    4.011274   -0.679872
     42          8           0        4.441890    4.219997   -0.678059
     43          8           0        6.646955    4.731578   -0.103970
     44          6           0        6.154183    6.044971    0.390326
     45          1           0        5.652217   -1.826263    4.116225
     46          1           0        2.635728   -5.743448    0.309590
     47          1           0        4.026716   -2.115998   -4.624572
     48          1           0        7.196242    2.275312    1.833708
     49          1           0        6.374641    0.657089    3.990969
     50          1           0        8.499579    0.351493    1.903595
     51          1           0        7.846053   -1.183816    2.553208
     52          1           0        8.569729   -0.058035    3.666533
     53          1           0        4.568903    2.071083    3.319201
     54          1           0        4.654418    3.190642    1.900839
     55          1           0        6.856338    3.736975    3.615500
     56          1           0        5.587400    3.270255    4.683124
     57          1           0        4.510363   -2.956079    5.480976
     58          1           0        4.164721   -4.642013    5.416394
     59          1           0        2.804786   -3.514210    5.652941
     60          1           0        2.502360   -6.104044    5.076090
     61          1           0        0.874107   -6.776168    4.505548
     62          1           0        1.125243   -5.049996    4.879965
     63          1           0        1.973508   -5.729107   -2.152467
     64          1           0        3.957239   -4.764075   -4.152845
     65          1           0        3.290644   -7.546673   -2.411303
     66          1           0        4.598739   -6.635879   -1.581800
     67          1           0        4.506039   -6.613832   -3.266405
     68          1           0        1.559821   -5.330059   -4.700899
     69          1           0        2.135002   -3.809065   -5.374389
     70          1           0        0.319530   -4.413230   -3.164020
     71          1           0        0.094984   -3.199229   -4.468808
     72          1           0        1.166643   -2.880177   -3.031985
     73          1           0        4.865784    1.301791   -5.627966
     74          1           0        4.660749   -0.478075   -5.798558
     75          1           0        6.294851    0.186799   -5.382364
     76          1           0        7.310973    2.636838   -1.008090
     77          1           0        6.774106    6.814335   -0.070117
     78          1           0        6.148447    5.984100    1.478750
     79          1           0        5.163498    6.347518    0.049229
     80         12           0       -4.214761    1.800147    0.199230
     81          6           0       -5.440501   -1.571230    0.096929
     82          6           0       -3.505438    1.484641   -3.122201
     83          6           0       -2.719665    4.594415    0.354694
     84          6           0       -3.957448    1.454360    3.657542
     85          7           0       -4.484747    0.124228   -1.218752
     86          6           0       -5.017588   -1.086881   -1.158460
     87          6           0       -5.175660   -1.789212   -2.533699
     88          6           0       -4.035396   -0.997118   -3.340702
     89          6           0       -4.025613    0.302192   -2.537968
     90          6           0       -2.662389   -1.638590   -3.227895
     91          6           0       -6.593239   -1.555839   -3.164606
     92          6           0       -6.925042   -2.460793   -4.353185
     93          1           0       -8.302981   -2.915032   -4.518797
     94          7           0       -3.702428    3.064500   -1.242117
     95          6           0       -3.476521    2.770850   -2.539818
     96          6           0       -3.109619    4.042466   -3.182091
     97          6           0       -2.977011    5.081037   -2.124500
     98          6           0       -3.110451    4.264355   -0.934839
     99          6           0       -2.998168    4.199748   -4.670804
    100          6           0       -2.752761    6.562040   -2.175204
    101          8           0       -2.432122    7.230677   -1.129767
    102          6           0       -2.828012    7.191451   -3.501728
    103          7           0       -3.250030    2.798911    1.746522
    104          6           0       -2.730376    4.024922    1.560051
    105          6           0       -2.335216    4.655532    2.874037
    106          6           0       -2.922833    3.691835    4.006990
    107          6           0       -3.504547    2.575115    3.112605
    108          6           0       -0.834916    4.845818    3.096037
    109          6           0       -3.846691    4.341142    5.073555
    110          6           0       -5.138449    4.792949    4.431194
    111          7           0       -4.786693    0.315220    1.660724
    112          6           0       -4.561112    0.358571    3.054031
    113          6           0       -5.025222   -0.928827    3.610479
    114          6           0       -5.470936   -1.646544    2.490335
    115          6           0       -5.278226   -0.869711    1.316068
    116          6           0       -4.955893   -1.317295    4.978105
    117          6           0       -6.050806   -2.888843    2.033023
    118          8           0       -6.507523   -3.889288    2.584604
    119          6           0       -5.940124   -2.945072    0.448417
    120          6           0       -7.278075   -3.364570   -0.096057
    121          8           0       -8.272539   -2.629442    0.035193
    122          8           0       -7.117676   -4.455724   -0.866792
    123          6           0       -8.415499   -4.903410   -1.438678
    124          1           0       -3.035955    1.415165   -4.103852
    125          1           0       -2.299170    5.595098    0.478373
    126          1           0       -4.001638    1.307317    4.738795
    127          1           0       -4.958822   -2.850685   -2.529274
    128          1           0       -4.336999   -0.808528   -4.367754
    129          1           0       -2.657105   -2.458018   -2.524581
    130          1           0       -1.996517   -0.852133   -2.897529
    131          1           0       -2.305026   -1.940566   -4.216549
    132          1           0       -6.606660   -0.578171   -3.663330
    133          1           0       -7.360511   -1.641569   -2.419905
    134          1           0       -6.229623   -3.304945   -4.435300
    135          1           0       -6.769162   -1.894514   -5.274629
    136          1           0       -2.988032    3.227292   -5.178388
    137          1           0       -2.008497    4.622769   -4.874448
    138          1           0       -3.758990    4.866610   -5.082046
    139          1           0       -2.093574    6.734284   -4.160555
    140          1           0       -2.729633    8.263840   -3.322352
    141          1           0       -3.812693    6.980603   -3.933661
    142          1           0       -2.780850    5.636825    2.981554
    143          1           0       -2.122938    3.230879    4.604929
    144          1           0       -0.553832    5.895995    3.301458
    145          1           0       -0.311262    4.475488    2.224720
    146          1           0       -0.406499    4.244386    3.895999
    147          1           0       -3.376250    5.236357    5.487599
    148          1           0       -4.074917    3.683212    5.905434
    149          1           0       -4.876871    5.768528    4.010589
    150          1           0       -5.926017    4.882847    5.176648
    151          1           0       -5.413472    4.137296    3.596856
    152          1           0       -5.901447   -1.785608    5.217058
    153          1           0       -4.759313   -0.464268    5.624233
    154          1           0       -4.109563   -2.008442    4.941879
    155          1           0       -5.154685   -3.659887    0.200043
    156          1           0       -8.546701   -5.951264   -1.151503
    157          1           0       -8.357684   -4.681133   -2.520806
    158          1           0       -9.319422   -4.459594   -1.038171
 ---------------------------------------------------------------------
 Rotational constants (GHZ):           0.0211645           0.0142122           0.0121615
 Leave Link  202 at Fri Sep  3 19:40:03 2021, MaxMem= 23488102400 cpu:               0.2 elap:               0.0
 (Enter /sw/apps/gaussian-16.0/g16/l301.exe)
 Standard basis: def2SVP (5D, 7F)
 Ernie: Thresh=  0.10000D-02 Tol=  0.10000D-05 Strict=F.
 There are  1658 symmetry adapted cartesian basis functions of A   symmetry.
 There are  1572 symmetry adapted basis functions of A   symmetry.
  1572 basis functions,  2678 primitive gaussians,  1658 cartesian basis functions
   312 alpha electrons      312 beta electrons
       nuclear repulsion energy     15476.0639425879 Hartrees.
 IExCor=20419 DFT=T Ex+Corr=CAM-B3LYP ExCW=0 ScaHFX=  1.000000
 ScaDFX=  1.000000  1.000000  1.000000  0.810000 ScalE2=  1.000000  1.000000
 IRadAn=      5 IRanWt=     -1 IRanGd=            0 ICorTp=0 IEmpDi=  4
 HFx  wShort=  0.000000 wLong=  0.330000 cFull=  0.190000 cShort=  0.000000 cLong=  0.460000
 DFx  wShort=  0.000000 wLong=  0.330000 cFull=  0.190000 cShort=  0.000000 cLong=  0.460000
 NAtoms=  158 NActive=  158 NUniq=  158 SFac= 1.00D+00 NAtFMM=   60 NAOKFM=T Big=T
 Integral buffers will be    131072 words long.
 Raffenetti 1 integral format.
 Two-electron integral symmetry is turned on.
 Leave Link  301 at Fri Sep  3 19:40:03 2021, MaxMem= 23488102400 cpu:               1.4 elap:               0.1
 (Enter /sw/apps/gaussian-16.0/g16/l302.exe)
 NPDir=0 NMtPBC=     1 NCelOv=     1 NCel=       1 NClECP=     1 NCelD=      1
         NCelK=      1 NCelE2=     1 NClLst=     1 CellRange=     0.0.
 One-electron integrals computed using PRISM.
 One-electron integral symmetry used in STVInt
   1 Symmetry operations used in ECPInt.
 ECPInt:  NShTT=  271216 NPrTT=  987664 LenC2=  153853 LenP2D=  320590.
 LDataN:  DoStor=T MaxTD1= 4 Len=   56
 NBasis=  1572 RedAO= T EigKep=  3.36D-04  NBF=  1572
 NBsUse=  1572 1.00D-06 EigRej= -1.00D+00 NBFU=  1572
 Precomputing XC quadrature grid using
 IXCGrd= 4 IRadAn=           5 IRanWt=          -1 IRanGd=           0 AccXCQ= 0.00D+00.
 Generated NRdTot=       0 NPtTot=           0 NUsed=           0 NTot=          32
 NSgBfM=  1189  1189  1189  1189  1189 MxSgAt=   158 MxSgA2=   158.
 Leave Link  302 at Fri Sep  3 19:40:08 2021, MaxMem= 23488102400 cpu:             126.9 elap:               5.3
 (Enter /sw/apps/gaussian-16.0/g16/l303.exe)
 DipDrv:  MaxL=1.
 Leave Link  303 at Fri Sep  3 19:40:09 2021, MaxMem= 23488102400 cpu:               9.7 elap:               0.5
 (Enter /sw/apps/gaussian-16.0/g16/l308.exe)
 Leave Link  308 at Fri Sep  3 19:40:09 2021, MaxMem= 23488102400 cpu:              15.6 elap:               0.7
 (Enter /sw/apps/gaussian-16.0/g16/l401.exe)
 ExpMin= 3.36D-02 ExpMax= 4.95D+03 ExpMxC= 7.45D+02 IAcc=3 IRadAn=         5 AccDes= 0.00D+00
 Harris functional with IExCor=20419 and IRadAn=       5 diagonalized for initial guess.
 HarFok:  IExCor=20419 AccDes= 0.00D+00 IRadAn=         5 IDoV= 1 UseB2=F ITyADJ=14
 ICtDFT=  3500011 ScaDFX=  1.000000  1.000000  1.000000  1.000000
 FoFCou: FMM=F IPFlag=           0 FMFlag=      100000 FMFlg1=        2001
         NFxFlg=           0 DoJE=T BraDBF=F KetDBF=T FulRan=T
         wScrn=  0.000000 ICntrl=       500 IOpCl=  0 I1Cent=   200000004 NGrid=           0
         NMat0=    1 NMatS0=      1 NMatT0=    0 NMatD0=    1 NMtDS0=    0 NMtDT0=    0
 Petite list used in FoFCou.
 Harris En= -3918.65779023108    
 JPrj=0 DoOrth=F DoCkMO=F.
 Leave Link  401 at Fri Sep  3 19:40:18 2021, MaxMem= 23488102400 cpu:             193.7 elap:               8.1
 (Enter /sw/apps/gaussian-16.0/g16/l502.exe)
 Integral symmetry usage will be decided dynamically.
 Closed shell SCF:
 Using DIIS extrapolation, IDIIS=  1040.
 NGot= 23488102400 LenX= 23482547354 LenY= 23479796732
 Requested convergence on RMS density matrix=1.00D-08 within 128 cycles.
 Requested convergence on MAX density matrix=1.00D-06.
 Requested convergence on             energy=1.00D-06.
 No special actions if energy rises.
 Fock matrices will be formed incrementally for  20 cycles.

 Cycle   1  Pass 1  IDiag  1:
 FoFJK:  IHMeth= 1 ICntrl=       0 DoSepK=T KAlg= 0 I1Cent=           0 FoldK=F
 IRaf=         1 NMat=       1 IRICut=       1 DoRegI=T DoRafI=F ISym2E= 0 IDoP0=0 IntGTp=1.
 FoFCou: FMM=T IPFlag=           0 FMFlag=      100000 FMFlg1=        2001
         NFxFlg=           0 DoJE=T BraDBF=F KetDBF=F FulRan=T
         wScrn=  0.000000 ICntrl=       500 IOpCl=  0 I1Cent=           0 NGrid=           0
         NMat0=    1 NMatS0=      1 NMatT0=    0 NMatD0=    1 NMtDS0=    0 NMtDT0=    0
 Symmetry not used in FoFCou.
 FMM levels:  10  Number of levels for PrismC:   9
 E= -4068.94993451403    
 DIIS: error= 2.03D-02 at cycle   1 NSaved=   1.
 NSaved= 1 IEnMin= 1 EnMin= -4068.94993451403     IErMin= 1 ErrMin= 2.03D-02
 ErrMax= 2.03D-02  0.00D+00 EMaxC= 1.00D-01 BMatC= 1.69D+00 BMatP= 1.69D+00
 IDIUse=3 WtCom= 7.97D-01 WtEn= 2.03D-01
 Coeff-Com:  0.100D+01
 Coeff-En:   0.100D+01
 Coeff:      0.100D+01
 Gap=     0.121 Goal=   None    Shift=    0.000
 GapD=    0.121 DampG=1.000 DampE=0.500 DampFc=0.5000 IDamp=-1.
 Damping current iteration by 5.00D-01
 RMSDP=1.57D-03 MaxDP=1.35D-01              OVMax= 1.95D-01

 Cycle   2  Pass 1  IDiag  1:
 RMSU=  7.69D-04    CP:  9.82D-01
 E= -4069.33891310722     Delta-E=       -0.388978593190 Rises=F Damp=T
 DIIS: error= 1.27D-02 at cycle   2 NSaved=   2.
 NSaved= 2 IEnMin= 2 EnMin= -4069.33891310722     IErMin= 2 ErrMin= 1.27D-02
 ErrMax= 1.27D-02  0.00D+00 EMaxC= 1.00D-01 BMatC= 3.07D-01 BMatP= 1.69D+00
 IDIUse=3 WtCom= 8.73D-01 WtEn= 1.27D-01
 Coeff-Com: -0.214D+00 0.121D+01
 Coeff-En:   0.000D+00 0.100D+01
 Coeff:     -0.187D+00 0.119D+01
 Gap=     0.134 Goal=   None    Shift=    0.000
 RMSDP=7.63D-04 MaxDP=9.50D-02 DE=-3.89D-01 OVMax= 1.82D-01

 Cycle   3  Pass 1  IDiag  1:
 RMSU=  7.30D-04    CP:  9.68D-01  1.24D+00
 E= -4069.63027496163     Delta-E=       -0.291361854415 Rises=F Damp=F
 DIIS: error= 1.57D-02 at cycle   3 NSaved=   3.
 NSaved= 3 IEnMin= 3 EnMin= -4069.63027496163     IErMin= 2 ErrMin= 1.27D-02
 ErrMax= 1.57D-02  0.00D+00 EMaxC= 1.00D-01 BMatC= 2.01D-01 BMatP= 3.07D-01
 IDIUse=3 WtCom= 8.43D-01 WtEn= 1.57D-01
 Coeff-Com: -0.267D+00 0.651D+00 0.616D+00
 Coeff-En:   0.000D+00 0.000D+00 0.100D+01
 Coeff:     -0.225D+00 0.549D+00 0.677D+00
 Gap=     0.121 Goal=   None    Shift=    0.000
 RMSDP=5.01D-04 MaxDP=4.50D-02 DE=-2.91D-01 OVMax= 1.31D-01

 Cycle   4  Pass 1  IDiag  1:
 RMSU=  2.61D-04    CP:  9.65D-01  1.55D+00  5.12D-01
 E= -4069.76710081669     Delta-E=       -0.136825855054 Rises=F Damp=F
 DIIS: error= 7.27D-03 at cycle   4 NSaved=   4.
 NSaved= 4 IEnMin= 4 EnMin= -4069.76710081669     IErMin= 4 ErrMin= 7.27D-03
 ErrMax= 7.27D-03  0.00D+00 EMaxC= 1.00D-01 BMatC= 4.91D-02 BMatP= 2.01D-01
 IDIUse=3 WtCom= 9.27D-01 WtEn= 7.27D-02
 Coeff-Com: -0.108D+00 0.223D+00 0.407D+00 0.477D+00
 Coeff-En:   0.000D+00 0.000D+00 0.214D+00 0.786D+00
 Coeff:     -0.998D-01 0.207D+00 0.393D+00 0.500D+00
 Gap=     0.120 Goal=   None    Shift=    0.000
 RMSDP=1.92D-04 MaxDP=2.01D-02 DE=-1.37D-01 OVMax= 5.32D-02

 Cycle   5  Pass 1  IDiag  1:
 RMSU=  7.25D-05    CP:  9.64D-01  1.49D+00  6.90D-01  5.63D-01
 E= -4069.81060071605     Delta-E=       -0.043499899366 Rises=F Damp=F
 DIIS: error= 8.34D-04 at cycle   5 NSaved=   5.
 NSaved= 5 IEnMin= 5 EnMin= -4069.81060071605     IErMin= 5 ErrMin= 8.34D-04
 ErrMax= 8.34D-04  0.00D+00 EMaxC= 1.00D-01 BMatC= 1.00D-03 BMatP= 4.91D-02
 IDIUse=3 WtCom= 9.92D-01 WtEn= 8.34D-03
 Coeff-Com: -0.332D-01 0.649D-01 0.156D+00 0.241D+00 0.572D+00
 Coeff-En:   0.000D+00 0.000D+00 0.000D+00 0.000D+00 0.100D+01
 Coeff:     -0.330D-01 0.644D-01 0.155D+00 0.239D+00 0.575D+00
 Gap=     0.120 Goal=   None    Shift=    0.000
 RMSDP=3.60D-05 MaxDP=4.09D-03 DE=-4.35D-02 OVMax= 1.28D-02

 Cycle   6  Pass 1  IDiag  1:
 RMSU=  2.79D-05    CP:  9.64D-01  1.50D+00  6.84D-01  6.27D-01  7.99D-01
 E= -4069.81141433040     Delta-E=       -0.000813614348 Rises=F Damp=F
 DIIS: error= 2.66D-04 at cycle   6 NSaved=   6.
 NSaved= 6 IEnMin= 6 EnMin= -4069.81141433040     IErMin= 6 ErrMin= 2.66D-04
 ErrMax= 2.66D-04  0.00D+00 EMaxC= 1.00D-01 BMatC= 1.51D-04 BMatP= 1.00D-03
 IDIUse=3 WtCom= 9.97D-01 WtEn= 2.66D-03
 Coeff-Com:  0.278D-02-0.762D-02 0.826D-02 0.361D-01 0.309D+00 0.652D+00
 Coeff-En:   0.000D+00 0.000D+00 0.000D+00 0.000D+00 0.799D-01 0.920D+00
 Coeff:      0.277D-02-0.760D-02 0.824D-02 0.360D-01 0.308D+00 0.653D+00
 Gap=     0.120 Goal=   None    Shift=    0.000
 RMSDP=1.37D-05 MaxDP=1.28D-03 DE=-8.14D-04 OVMax= 6.13D-03

 Cycle   7  Pass 1  IDiag  1:
 RMSU=  9.54D-06    CP:  9.64D-01  1.50D+00  6.89D-01  6.29D-01  8.83D-01
                    CP:  7.71D-01
 E= -4069.81156734860     Delta-E=       -0.000153018202 Rises=F Damp=F
 DIIS: error= 7.70D-05 at cycle   7 NSaved=   7.
 NSaved= 7 IEnMin= 7 EnMin= -4069.81156734860     IErMin= 7 ErrMin= 7.70D-05
 ErrMax= 7.70D-05  0.00D+00 EMaxC= 1.00D-01 BMatC= 1.53D-05 BMatP= 1.51D-04
 IDIUse=1 WtCom= 1.00D+00 WtEn= 0.00D+00
 Coeff-Com:  0.428D-02-0.928D-02-0.934D-02-0.553D-02 0.904D-01 0.309D+00
 Coeff-Com:  0.620D+00
 Coeff:      0.428D-02-0.928D-02-0.934D-02-0.553D-02 0.904D-01 0.309D+00
 Coeff:      0.620D+00
 Gap=     0.120 Goal=   None    Shift=    0.000
 RMSDP=5.97D-06 MaxDP=1.22D-03 DE=-1.53D-04 OVMax= 3.35D-03

 Cycle   8  Pass 1  IDiag  1:
 RMSU=  4.38D-06    CP:  9.64D-01  1.50D+00  6.90D-01  6.33D-01  8.95D-01
                    CP:  8.97D-01  8.71D-01
 E= -4069.81158599400     Delta-E=       -0.000018645394 Rises=F Damp=F
 DIIS: error= 4.25D-05 at cycle   8 NSaved=   8.
 NSaved= 8 IEnMin= 8 EnMin= -4069.81158599400     IErMin= 8 ErrMin= 4.25D-05
 ErrMax= 4.25D-05  0.00D+00 EMaxC= 1.00D-01 BMatC= 3.98D-06 BMatP= 1.53D-05
 IDIUse=1 WtCom= 1.00D+00 WtEn= 0.00D+00
 Coeff-Com:  0.200D-02-0.394D-02-0.743D-02-0.120D-01-0.165D-01 0.331D-01
 Coeff-Com:  0.363D+00 0.642D+00
 Coeff:      0.200D-02-0.394D-02-0.743D-02-0.120D-01-0.165D-01 0.331D-01
 Coeff:      0.363D+00 0.642D+00
 Gap=     0.120 Goal=   None    Shift=    0.000
 RMSDP=3.09D-06 MaxDP=4.24D-04 DE=-1.86D-05 OVMax= 1.40D-03

 Cycle   9  Pass 1  IDiag  1:
 RMSU=  1.91D-06    CP:  9.64D-01  1.50D+00  6.90D-01  6.34D-01  9.10D-01
                    CP:  9.21D-01  1.07D+00  8.74D-01
 E= -4069.81159235790     Delta-E=       -0.000006363902 Rises=F Damp=F
 DIIS: error= 2.59D-05 at cycle   9 NSaved=   9.
 NSaved= 9 IEnMin= 9 EnMin= -4069.81159235790     IErMin= 9 ErrMin= 2.59D-05
 ErrMax= 2.59D-05  0.00D+00 EMaxC= 1.00D-01 BMatC= 6.77D-07 BMatP= 3.98D-06
 IDIUse=1 WtCom= 1.00D+00 WtEn= 0.00D+00
 Coeff-Com:  0.470D-03-0.788D-03-0.267D-02-0.601D-02-0.231D-01-0.328D-01
 Coeff-Com:  0.115D+00 0.349D+00 0.601D+00
 Coeff:      0.470D-03-0.788D-03-0.267D-02-0.601D-02-0.231D-01-0.328D-01
 Coeff:      0.115D+00 0.349D+00 0.601D+00
 Gap=     0.120 Goal=   None    Shift=    0.000
 RMSDP=1.37D-06 MaxDP=1.73D-04 DE=-6.36D-06 OVMax= 8.52D-04

 Cycle  10  Pass 1  IDiag  1:
 RMSU=  9.28D-07    CP:  9.64D-01  1.50D+00  6.90D-01  6.35D-01  9.13D-01
                    CP:  9.36D-01  1.11D+00  1.06D+00  9.64D-01
 E= -4069.81159380724     Delta-E=       -0.000001449345 Rises=F Damp=F
 DIIS: error= 1.23D-05 at cycle  10 NSaved=  10.
 NSaved=10 IEnMin=10 EnMin= -4069.81159380724     IErMin=10 ErrMin= 1.23D-05
 ErrMax= 1.23D-05  0.00D+00 EMaxC= 1.00D-01 BMatC= 1.51D-07 BMatP= 6.77D-07
 IDIUse=1 WtCom= 1.00D+00 WtEn= 0.00D+00
 Coeff-Com: -0.400D-03 0.842D-03 0.113D-02 0.992D-03-0.488D-02-0.299D-01
 Coeff-Com: -0.531D-01-0.494D-01 0.274D+00 0.861D+00
 Coeff:     -0.400D-03 0.842D-03 0.113D-02 0.992D-03-0.488D-02-0.299D-01
 Coeff:     -0.531D-01-0.494D-01 0.274D+00 0.861D+00
 Gap=     0.120 Goal=   None    Shift=    0.000
 RMSDP=1.15D-06 MaxDP=1.54D-04 DE=-1.45D-06 OVMax= 6.02D-04

 Cycle  11  Pass 1  IDiag  1:
 RMSU=  5.14D-07    CP:  9.64D-01  1.50D+00  6.90D-01  6.35D-01  9.15D-01
                    CP:  9.47D-01  1.17D+00  1.15D+00  1.30D+00  1.28D+00
 E= -4069.81159449244     Delta-E=       -0.000000685199 Rises=F Damp=F
 DIIS: error= 4.08D-06 at cycle  11 NSaved=  11.
 NSaved=11 IEnMin=11 EnMin= -4069.81159449244     IErMin=11 ErrMin= 4.08D-06
 ErrMax= 4.08D-06  0.00D+00 EMaxC= 1.00D-01 BMatC= 5.40D-08 BMatP= 1.51D-07
 IDIUse=1 WtCom= 1.00D+00 WtEn= 0.00D+00
 Coeff-Com: -0.329D-03 0.643D-03 0.131D-02 0.211D-02 0.383D-02-0.938D-02
 Coeff-Com: -0.540D-01-0.123D+00-0.282D-02 0.474D+00 0.707D+00
 Coeff:     -0.329D-03 0.643D-03 0.131D-02 0.211D-02 0.383D-02-0.938D-02
 Coeff:     -0.540D-01-0.123D+00-0.282D-02 0.474D+00 0.707D+00
 Gap=     0.120 Goal=   None    Shift=    0.000
 RMSDP=6.27D-07 MaxDP=4.58D-05 DE=-6.85D-07 OVMax= 3.20D-04

 Cycle  12  Pass 1  IDiag  1:
 RMSU=  2.58D-07    CP:  9.64D-01  1.50D+00  6.90D-01  6.35D-01  9.16D-01
                    CP:  9.49D-01  1.19D+00  1.21D+00  1.44D+00  1.65D+00
                    CP:  1.15D+00
 E= -4069.81159472013     Delta-E=       -0.000000227683 Rises=F Damp=F
 DIIS: error= 3.43D-06 at cycle  12 NSaved=  12.
 NSaved=12 IEnMin=12 EnMin= -4069.81159472013     IErMin=12 ErrMin= 3.43D-06
 ErrMax= 3.43D-06  0.00D+00 EMaxC= 1.00D-01 BMatC= 1.08D-08 BMatP= 5.40D-08
 IDIUse=1 WtCom= 1.00D+00 WtEn= 0.00D+00
 Coeff-Com: -0.170D-04 0.178D-04 0.234D-03 0.607D-03 0.324D-02 0.375D-02
 Coeff-Com: -0.244D-02-0.394D-01-0.687D-01-0.352D-01 0.245D+00 0.893D+00
 Coeff:     -0.170D-04 0.178D-04 0.234D-03 0.607D-03 0.324D-02 0.375D-02
 Coeff:     -0.244D-02-0.394D-01-0.687D-01-0.352D-01 0.245D+00 0.893D+00
 Gap=     0.120 Goal=   None    Shift=    0.000
 RMSDP=4.09D-07 MaxDP=2.73D-05 DE=-2.28D-07 OVMax= 2.75D-04

 Cycle  13  Pass 1  IDiag  1:
 RMSU=  1.67D-07    CP:  9.64D-01  1.50D+00  6.90D-01  6.35D-01  9.16D-01
                    CP:  9.50D-01  1.20D+00  1.24D+00  1.54D+00  1.85D+00
                    CP:  1.55D+00  1.22D+00
 E= -4069.81159479816     Delta-E=       -0.000000078031 Rises=F Damp=F
 DIIS: error= 2.06D-06 at cycle  13 NSaved=  13.
 NSaved=13 IEnMin=13 EnMin= -4069.81159479816     IErMin=13 ErrMin= 2.06D-06
 ErrMax= 2.06D-06  0.00D+00 EMaxC= 1.00D-01 BMatC= 8.64D-09 BMatP= 1.08D-08
 IDIUse=1 WtCom= 1.00D+00 WtEn= 0.00D+00
 Coeff-Com:  0.112D-03-0.229D-03-0.332D-03-0.387D-03 0.687D-03 0.553D-02
 Coeff-Com:  0.202D-01 0.176D-01-0.457D-01-0.218D+00-0.161D+00 0.650D+00
 Coeff-Com:  0.731D+00
 Coeff:      0.112D-03-0.229D-03-0.332D-03-0.387D-03 0.687D-03 0.553D-02
 Coeff:      0.202D-01 0.176D-01-0.457D-01-0.218D+00-0.161D+00 0.650D+00
 Coeff:      0.731D+00
 Gap=     0.120 Goal=   None    Shift=    0.000
 RMSDP=3.06D-07 MaxDP=1.78D-05 DE=-7.80D-08 OVMax= 1.59D-04

 Cycle  14  Pass 1  IDiag  1:
 RMSU=  7.88D-08    CP:  9.64D-01  1.50D+00  6.90D-01  6.35D-01  9.16D-01
                    CP:  9.51D-01  1.20D+00  1.26D+00  1.61D+00  2.02D+00
                    CP:  1.77D+00  1.74D+00  1.05D+00
 E= -4069.81159483263     Delta-E=       -0.000000034470 Rises=F Damp=F
 DIIS: error= 1.05D-06 at cycle  14 NSaved=  14.
 NSaved=14 IEnMin=14 EnMin= -4069.81159483263     IErMin=14 ErrMin= 1.05D-06
 ErrMax= 1.05D-06  0.00D+00 EMaxC= 1.00D-01 BMatC= 1.06D-09 BMatP= 8.64D-09
 IDIUse=1 WtCom= 1.00D+00 WtEn= 0.00D+00
 Coeff-Com:  0.699D-04-0.138D-03-0.256D-03-0.397D-03-0.503D-03 0.183D-02
 Coeff-Com:  0.127D-01 0.194D-01-0.321D-02-0.102D+00-0.164D+00 0.142D+00
 Coeff-Com:  0.350D+00 0.744D+00
 Coeff:      0.699D-04-0.138D-03-0.256D-03-0.397D-03-0.503D-03 0.183D-02
 Coeff:      0.127D-01 0.194D-01-0.321D-02-0.102D+00-0.164D+00 0.142D+00
 Coeff:      0.350D+00 0.744D+00
 Gap=     0.120 Goal=   None    Shift=    0.000
 RMSDP=1.16D-07 MaxDP=6.89D-06 DE=-3.45D-08 OVMax= 7.69D-05

 Cycle  15  Pass 1  IDiag  1:
 RMSU=  3.85D-08    CP:  9.64D-01  1.50D+00  6.90D-01  6.35D-01  9.16D-01
                    CP:  9.50D-01  1.21D+00  1.27D+00  1.63D+00  2.07D+00
                    CP:  1.89D+00  1.91D+00  1.28D+00  1.03D+00
 E= -4069.81159483715     Delta-E=       -0.000000004522 Rises=F Damp=F
 DIIS: error= 4.23D-07 at cycle  15 NSaved=  15.
 NSaved=15 IEnMin=15 EnMin= -4069.81159483715     IErMin=15 ErrMin= 4.23D-07
 ErrMax= 4.23D-07  0.00D+00 EMaxC= 1.00D-01 BMatC= 3.05D-10 BMatP= 1.06D-09
 IDIUse=1 WtCom= 1.00D+00 WtEn= 0.00D+00
 Coeff-Com:  0.123D-04-0.226D-04-0.576D-04-0.120D-03-0.377D-03-0.270D-03
 Coeff-Com:  0.247D-02 0.503D-02 0.802D-02-0.531D-02-0.506D-01-0.408D-01
 Coeff-Com:  0.412D-02 0.382D+00 0.696D+00
 Coeff:      0.123D-04-0.226D-04-0.576D-04-0.120D-03-0.377D-03-0.270D-03
 Coeff:      0.247D-02 0.503D-02 0.802D-02-0.531D-02-0.506D-01-0.408D-01
 Coeff:      0.412D-02 0.382D+00 0.696D+00
 Gap=     0.120 Goal=   None    Shift=    0.000
 RMSDP=3.84D-08 MaxDP=3.11D-06 DE=-4.52D-09 OVMax= 1.95D-05

 Cycle  16  Pass 1  IDiag  1:
 RMSU=  1.84D-08    CP:  9.64D-01  1.50D+00  6.90D-01  6.35D-01  9.16D-01
                    CP:  9.50D-01  1.21D+00  1.27D+00  1.63D+00  2.09D+00
                    CP:  1.91D+00  1.98D+00  1.36D+00  1.25D+00  1.15D+00
 E= -4069.81159483797     Delta-E=       -0.000000000826 Rises=F Damp=F
 DIIS: error= 1.57D-07 at cycle  16 NSaved=  16.
 NSaved=16 IEnMin=16 EnMin= -4069.81159483797     IErMin=16 ErrMin= 1.57D-07
 ErrMax= 1.57D-07  0.00D+00 EMaxC= 1.00D-01 BMatC= 7.38D-11 BMatP= 3.05D-10
 IDIUse=1 WtCom= 1.00D+00 WtEn= 0.00D+00
 Coeff-Com: -0.129D-04 0.262D-04 0.420D-04 0.459D-04-0.504D-04-0.631D-03
 Coeff-Com: -0.212D-02-0.341D-02 0.512D-02 0.242D-01 0.153D-01-0.512D-01
 Coeff-Com: -0.109D+00 0.164D-01 0.319D+00 0.786D+00
 Coeff:     -0.129D-04 0.262D-04 0.420D-04 0.459D-04-0.504D-04-0.631D-03
 Coeff:     -0.212D-02-0.341D-02 0.512D-02 0.242D-01 0.153D-01-0.512D-01
 Coeff:     -0.109D+00 0.164D-01 0.319D+00 0.786D+00
 Gap=     0.120 Goal=   None    Shift=    0.000
 RMSDP=2.58D-08 MaxDP=2.09D-06 DE=-8.26D-10 OVMax= 1.66D-05

 Cycle  17  Pass 1  IDiag  1:
 RMSU=  1.18D-08    CP:  9.64D-01  1.50D+00  6.90D-01  6.35D-01  9.16D-01
                    CP:  9.50D-01  1.21D+00  1.27D+00  1.63D+00  2.09D+00
                    CP:  1.92D+00  2.01D+00  1.40D+00  1.35D+00  1.45D+00
                    CP:  1.22D+00
 E= -4069.81159483821     Delta-E=       -0.000000000236 Rises=F Damp=F
 DIIS: error= 9.13D-08 at cycle  17 NSaved=  17.
 NSaved=17 IEnMin=17 EnMin= -4069.81159483821     IErMin=17 ErrMin= 9.13D-08
 ErrMax= 9.13D-08  0.00D+00 EMaxC= 1.00D-01 BMatC= 2.36D-11 BMatP= 7.38D-11
 IDIUse=1 WtCom= 1.00D+00 WtEn= 0.00D+00
 Coeff-Com: -0.883D-05 0.174D-04 0.340D-04 0.495D-04 0.776D-04-0.216D-03
 Coeff-Com: -0.149D-02-0.305D-02 0.969D-03 0.129D-01 0.190D-01-0.814D-02
 Coeff-Com: -0.587D-01-0.775D-01-0.630D-01 0.383D+00 0.796D+00
 Coeff:     -0.883D-05 0.174D-04 0.340D-04 0.495D-04 0.776D-04-0.216D-03
 Coeff:     -0.149D-02-0.305D-02 0.969D-03 0.129D-01 0.190D-01-0.814D-02
 Coeff:     -0.587D-01-0.775D-01-0.630D-01 0.383D+00 0.796D+00
 Gap=     0.120 Goal=   None    Shift=    0.000
 RMSDP=1.42D-08 MaxDP=8.12D-07 DE=-2.36D-10 OVMax= 8.11D-06

 Cycle  18  Pass 1  IDiag  1:
 RMSU=  5.45D-09    CP:  9.64D-01  1.50D+00  6.90D-01  6.35D-01  9.16D-01
                    CP:  9.50D-01  1.21D+00  1.27D+00  1.63D+00  2.09D+00
                    CP:  1.93D+00  2.02D+00  1.42D+00  1.42D+00  1.63D+00
                    CP:  1.63D+00  1.32D+00
 E= -4069.81159483837     Delta-E=       -0.000000000164 Rises=F Damp=F
 DIIS: error= 8.07D-08 at cycle  18 NSaved=  18.
 NSaved=18 IEnMin=18 EnMin= -4069.81159483837     IErMin=18 ErrMin= 8.07D-08
 ErrMax= 8.07D-08  0.00D+00 EMaxC= 1.00D-01 BMatC= 7.29D-12 BMatP= 2.36D-11
 IDIUse=1 WtCom= 1.00D+00 WtEn= 0.00D+00
 Coeff-Com:  0.290D-06-0.935D-06 0.196D-05 0.745D-05 0.679D-04 0.139D-03
 Coeff-Com:  0.108D-03-0.402D-03-0.127D-02-0.311D-02 0.244D-02 0.184D-01
 Coeff-Com:  0.689D-02-0.337D-01-0.162D+00-0.854D-01 0.351D+00 0.907D+00
 Coeff:      0.290D-06-0.935D-06 0.196D-05 0.745D-05 0.679D-04 0.139D-03
 Coeff:      0.108D-03-0.402D-03-0.127D-02-0.311D-02 0.244D-02 0.184D-01
 Coeff:      0.689D-02-0.337D-01-0.162D+00-0.854D-01 0.351D+00 0.907D+00
 Gap=     0.120 Goal=   None    Shift=    0.000
 RMSDP=1.10D-08 MaxDP=9.17D-07 DE=-1.64D-10 OVMax= 6.57D-06

 Cycle  19  Pass 1  IDiag  1:
 RMSU=  3.22D-09    CP:  9.64D-01  1.50D+00  6.90D-01  6.35D-01  9.16D-01
                    CP:  9.50D-01  1.21D+00  1.27D+00  1.63D+00  2.10D+00
                    CP:  1.93D+00  2.03D+00  1.43D+00  1.45D+00  1.76D+00
                    CP:  1.91D+00  1.84D+00  1.24D+00
 E= -4069.81159483861     Delta-E=       -0.000000000233 Rises=F Damp=F
 DIIS: error= 3.03D-08 at cycle  19 NSaved=  19.
 NSaved=19 IEnMin=19 EnMin= -4069.81159483861     IErMin=19 ErrMin= 3.03D-08
 ErrMax= 3.03D-08  0.00D+00 EMaxC= 1.00D-01 BMatC= 2.89D-12 BMatP= 7.29D-12
 IDIUse=1 WtCom= 1.00D+00 WtEn= 0.00D+00
 Coeff-Com:  0.346D-05-0.702D-05-0.115D-04-0.140D-04 0.179D-04 0.166D-03
 Coeff-Com:  0.644D-03 0.866D-03-0.104D-02-0.691D-02-0.596D-02 0.158D-01
 Coeff-Com:  0.249D-01 0.109D-01-0.868D-01-0.204D+00-0.990D-01 0.570D+00
 Coeff-Com:  0.781D+00
 Coeff:      0.346D-05-0.702D-05-0.115D-04-0.140D-04 0.179D-04 0.166D-03
 Coeff:      0.644D-03 0.866D-03-0.104D-02-0.691D-02-0.596D-02 0.158D-01
 Coeff:      0.249D-01 0.109D-01-0.868D-01-0.204D+00-0.990D-01 0.570D+00
 Coeff:      0.781D+00
 Gap=     0.120 Goal=   None    Shift=    0.000
 RMSDP=7.28D-09 MaxDP=4.19D-07 DE=-2.33D-10 OVMax= 4.21D-06

 SCF Done:  E(RCAM-B3LYP) =  -4069.81159484     A.U. after   19 cycles
            NFock= 19  Conv=0.73D-08     -V/T= 2.0102
 KE= 4.028799665080D+03 PE=-4.043328723370D+04 EE= 1.685861203119D+04
 Leave Link  502 at Fri Sep  3 19:51:17 2021, MaxMem= 23488102400 cpu:           15235.1 elap:             659.6
 (Enter /sw/apps/gaussian-16.0/g16/l801.exe)
 DoSCS=F DFT=T ScalE2(SS,OS)=  1.000000  1.000000
 ExpMin= 3.36D-02 ExpMax= 4.95D+03 ExpMxC= 7.45D+02 IAcc=3 IRadAn=         5 AccDes= 0.00D+00
 HarFok:  IExCor=  205 AccDes= 0.00D+00 IRadAn=         5 IDoV=-2 UseB2=F ITyADJ=14
 ICtDFT= 12500011 ScaDFX=  1.000000  1.000000  1.000000  1.000000
 GSVD:  LWork=       -9588 too small for GESVD, short by       45590 words or       45590 for optimal perf.
 Largest valence mixing into a core orbital is  2.03D-04
 Largest core mixing into a valence orbital is  5.24D-05
 Range of M.O.s used for correlation:    95  1572
 NBasis=  1572 NAE=   312 NBE=   312 NFC=    94 NFV=     0
 NROrb=   1478 NOA=   218 NOB=   218 NVA=  1260 NVB=  1260
 Leave Link  801 at Fri Sep  3 19:51:18 2021, MaxMem= 23488102400 cpu:               8.7 elap:               0.4
 (Enter /sw/apps/gaussian-16.0/g16/l914.exe)
 RHF ground state
 Two-electron integrals replicated using symmetry.
 MDV= 23488102400 DFT=T DoStab=F Mixed=T DoRPA=T DoScal=F NonHer=T
 Making orbital integer symmetry assigments:
 Orbital symmetries:
       Occupied  (A) (A) (A) (A) (A) (A) (A) (A) (A) (A) (A) (A)
                 (A) (A) (A) (A) (A) (A) (A) (A) (A) (A) (A) (A)
                 (A) (A) (A) (A) (A) (A) (A) (A) (A) (A) (A) (A)
                 (A) (A) (A) (A) (A) (A) (A) (A) (A) (A) (A) (A)
                 (A) (A) (A) (A) (A) (A) (A) (A) (A) (A) (A) (A)
                 (A) (A) (A) (A) (A) (A) (A) (A) (A) (A) (A) (A)
                 (A) (A) (A) (A) (A) (A) (A) (A) (A) (A) (A) (A)
                 (A) (A) (A) (A) (A) (A) (A) (A) (A) (A) (A) (A)
                 (A) (A) (A) (A) (A) (A) (A) (A) (A) (A) (A) (A)
                 (A) (A) (A) (A) (A) (A) (A) (A) (A) (A) (A) (A)
                 (A) (A) (A) (A) (A) (A) (A) (A) (A) (A) (A) (A)
                 (A) (A) (A) (A) (A) (A) (A) (A) (A) (A) (A) (A)
                 (A) (A) (A) (A) (A) (A) (A) (A) (A) (A) (A) (A)
                 (A) (A) (A) (A) (A) (A) (A) (A) (A) (A) (A) (A)
                 (A) (A) (A) (A) (A) (A) (A) (A) (A) (A) (A) (A)
                 (A) (A) (A) (A) (A) (A) (A) (A) (A) (A) (A) (A)
                 (A) (A) (A) (A) (A) (A) (A) (A) (A) (A) (A) (A)
                 (A) (A) (A) (A) (A) (A) (A) (A) (A) (A) (A) (A)
                 (A) (A) (A) (A) (A) (A) (A) (A) (A) (A) (A) (A)
                 (A) (A) (A) (A) (A) (A) (A) (A) (A) (A) (A) (A)
                 (A) (A) (A) (A) (A) (A) (A) (A) (A) (A) (A) (A)
                 (A) (A) (A) (A) (A) (A) (A) (A) (A) (A) (A) (A)
                 (A) (A) (A) (A) (A) (A) (A) (A) (A) (A) (A) (A)
                 (A) (A) (A) (A) (A) (A) (A) (A) (A) (A) (A) (A)
                 (A) (A) (A) (A) (A) (A) (A) (A) (A) (A) (A) (A)
                 (A) (A) (A) (A) (A) (A) (A) (A) (A) (A) (A) (A)
       Virtual   (A) (A) (A) (A) (A) (A) (A) (A) (A) (A) (A) (A)
                 (A) (A) (A) (A) (A) (A) (A) (A) (A) (A) (A) (A)
                 (A) (A) (A) (A) (A) (A) (A) (A) (A) (A) (A) (A)
                 (A) (A) (A) (A) (A) (A) (A) (A) (A) (A) (A) (A)
                 (A) (A) (A) (A) (A) (A) (A) (A) (A) (A) (A) (A)
                 (A) (A) (A) (A) (A) (A) (A) (A) (A) (A) (A) (A)
                 (A) (A) (A) (A) (A) (A) (A) (A) (A) (A) (A) (A)
                 (A) (A) (A) (A) (A) (A) (A) (A) (A) (A) (A) (A)
                 (A) (A) (A) (A) (A) (A) (A) (A) (A) (A) (A) (A)
                 (A) (A) (A) (A) (A) (A) (A) (A) (A) (A) (A) (A)
                 (A) (A) (A) (A) (A) (A) (A) (A) (A) (A) (A) (A)
                 (A) (A) (A) (A) (A) (A) (A) (A) (A) (A) (A) (A)
                 (A) (A) (A) (A) (A) (A) (A) (A) (A) (A) (A) (A)
                 (A) (A) (A) (A) (A) (A) (A) (A) (A) (A) (A) (A)
                 (A) (A) (A) (A) (A) (A) (A) (A) (A) (A) (A) (A)
                 (A) (A) (A) (A) (A) (A) (A) (A) (A) (A) (A) (A)
                 (A) (A) (A) (A) (A) (A) (A) (A) (A) (A) (A) (A)
                 (A) (A) (A) (A) (A) (A) (A) (A) (A) (A) (A) (A)
                 (A) (A) (A) (A) (A) (A) (A) (A) (A) (A) (A) (A)
                 (A) (A) (A) (A) (A) (A) (A) (A) (A) (A) (A) (A)
                 (A) (A) (A) (A) (A) (A) (A) (A) (A) (A) (A) (A)
                 (A) (A) (A) (A) (A) (A) (A) (A) (A) (A) (A) (A)
                 (A) (A) (A) (A) (A) (A) (A) (A) (A) (A) (A) (A)
                 (A) (A) (A) (A) (A) (A) (A) (A) (A) (A) (A) (A)
                 (A) (A) (A) (A) (A) (A) (A) (A) (A) (A) (A) (A)
                 (A) (A) (A) (A) (A) (A) (A) (A) (A) (A) (A) (A)
                 (A) (A) (A) (A) (A) (A) (A) (A) (A) (A) (A) (A)
                 (A) (A) (A) (A) (A) (A) (A) (A) (A) (A) (A) (A)
                 (A) (A) (A) (A) (A) (A) (A) (A) (A) (A) (A) (A)
                 (A) (A) (A) (A) (A) (A) (A) (A) (A) (A) (A) (A)
                 (A) (A) (A) (A) (A) (A) (A) (A) (A) (A) (A) (A)
                 (A) (A) (A) (A) (A) (A) (A) (A) (A) (A) (A) (A)
                 (A) (A) (A) (A) (A) (A) (A) (A) (A) (A) (A) (A)
                 (A) (A) (A) (A) (A) (A) (A) (A) (A) (A) (A) (A)
                 (A) (A) (A) (A) (A) (A) (A) (A) (A) (A) (A) (A)
                 (A) (A) (A) (A) (A) (A) (A) (A) (A) (A) (A) (A)
                 (A) (A) (A) (A) (A) (A) (A) (A) (A) (A) (A) (A)
                 (A) (A) (A) (A) (A) (A) (A) (A) (A) (A) (A) (A)
                 (A) (A) (A) (A) (A) (A) (A) (A) (A) (A) (A) (A)
                 (A) (A) (A) (A) (A) (A) (A) (A) (A) (A) (A) (A)
                 (A) (A) (A) (A) (A) (A) (A) (A) (A) (A) (A) (A)
                 (A) (A) (A) (A) (A) (A) (A) (A) (A) (A) (A) (A)
                 (A) (A) (A) (A) (A) (A) (A) (A) (A) (A) (A) (A)
                 (A) (A) (A) (A) (A) (A) (A) (A) (A) (A) (A) (A)
                 (A) (A) (A) (A) (A) (A) (A) (A) (A) (A) (A) (A)
                 (A) (A) (A) (A) (A) (A) (A) (A) (A) (A) (A) (A)
                 (A) (A) (A) (A) (A) (A) (A) (A) (A) (A) (A) (A)
                 (A) (A) (A) (A) (A) (A) (A) (A) (A) (A) (A) (A)
                 (A) (A) (A) (A) (A) (A) (A) (A) (A) (A) (A) (A)
                 (A) (A) (A) (A) (A) (A) (A) (A) (A) (A) (A) (A)
                 (A) (A) (A) (A) (A) (A) (A) (A) (A) (A) (A) (A)
                 (A) (A) (A) (A) (A) (A) (A) (A) (A) (A) (A) (A)
                 (A) (A) (A) (A) (A) (A) (A) (A) (A) (A) (A) (A)
                 (A) (A) (A) (A) (A) (A) (A) (A) (A) (A) (A) (A)
                 (A) (A) (A) (A) (A) (A) (A) (A) (A) (A) (A) (A)
                 (A) (A) (A) (A) (A) (A) (A) (A) (A) (A) (A) (A)
                 (A) (A) (A) (A) (A) (A) (A) (A) (A) (A) (A) (A)
                 (A) (A) (A) (A) (A) (A) (A) (A) (A) (A) (A) (A)
                 (A) (A) (A) (A) (A) (A) (A) (A) (A) (A) (A) (A)
                 (A) (A) (A) (A) (A) (A) (A) (A) (A) (A) (A) (A)
                 (A) (A) (A) (A) (A) (A) (A) (A) (A) (A) (A) (A)
                 (A) (A) (A) (A) (A) (A) (A) (A) (A) (A) (A) (A)
                 (A) (A) (A) (A) (A) (A) (A) (A) (A) (A) (A) (A)
                 (A) (A) (A) (A) (A) (A) (A) (A) (A) (A) (A) (A)
                 (A) (A) (A) (A) (A) (A) (A) (A) (A) (A) (A) (A)
                 (A) (A) (A) (A) (A) (A) (A) (A) (A) (A) (A) (A)
                 (A) (A) (A) (A) (A) (A) (A) (A) (A) (A) (A) (A)
                 (A) (A) (A) (A) (A) (A) (A) (A) (A) (A) (A) (A)
                 (A) (A) (A) (A) (A) (A) (A) (A) (A) (A) (A) (A)
                 (A) (A) (A) (A) (A) (A) (A) (A) (A) (A) (A) (A)
                 (A) (A) (A) (A) (A) (A) (A) (A) (A) (A) (A) (A)
                 (A) (A) (A) (A) (A) (A) (A) (A) (A) (A) (A) (A)
                 (A) (A) (A) (A) (A) (A) (A) (A) (A) (A) (A) (A)
                 (A) (A) (A) (A) (A) (A) (A) (A) (A) (A) (A) (A)
                 (A) (A) (A) (A) (A) (A) (A) (A) (A) (A) (A) (A)
                 (A) (A) (A) (A) (A) (A) (A) (A) (A) (A) (A) (A)
                 (A) (A) (A) (A) (A) (A) (A) (A) (A) (A) (A) (A)
                 (A) (A) (A) (A) (A) (A) (A) (A) (A) (A) (A) (A)
                 (A) (A) (A) (A) (A) (A) (A) (A) (A) (A) (A) (A)
                 (A) (A) (A) (A) (A) (A) (A) (A) (A) (A) (A) (A)
                 (A) (A) (A) (A) (A) (A) (A) (A) (A) (A) (A) (A)
                 (A) (A) (A) (A) (A) (A) (A) (A) (A) (A) (A) (A)
                 (A) (A) (A) (A) (A) (A) (A) (A) (A) (A) (A) (A)
                 (A) (A) (A) (A) (A) (A) (A) (A) (A) (A) (A) (A)
                 (A) (A) (A) (A) (A) (A) (A) (A) (A) (A) (A) (A)
                 (A) (A) (A) (A) (A) (A) (A) (A) (A) (A) (A) (A)
                 (A) (A) (A) (A) (A) (A) (A) (A) (A) (A) (A) (A)
                 (A) (A) (A) (A) (A) (A) (A) (A) (A) (A) (A) (A)
                 (A) (A) (A) (A) (A) (A) (A) (A) (A) (A) (A) (A)
                 (A) (A) (A) (A) (A) (A) (A) (A) (A) (A) (A) (A)
                 (A) (A) (A) (A) (A) (A) (A) (A) (A) (A) (A) (A)
                 (A) (A) (A) (A) (A) (A) (A) (A) (A) (A) (A) (A)
                 (A) (A) (A) (A) (A) (A) (A) (A) (A) (A) (A) (A)
                 (A) (A) (A) (A) (A) (A) (A) (A) (A) (A) (A) (A)
                 (A) (A) (A) (A) (A) (A) (A) (A) (A) (A) (A) (A)
                 (A) (A) (A) (A) (A) (A) (A) (A) (A) (A) (A) (A)
                 (A) (A) (A) (A) (A) (A) (A) (A) (A) (A) (A) (A)
                 (A) (A) (A) (A) (A) (A) (A) (A) (A) (A) (A) (A)
                 (A) (A) (A) (A) (A) (A) (A) (A) (A) (A) (A) (A)
                 (A) (A) (A) (A) (A) (A) (A) (A) (A) (A) (A) (A)
                 (A) (A) (A) (A) (A) (A) (A) (A) (A) (A) (A) (A)
                 (A) (A) (A) (A) (A) (A) (A) (A) (A) (A) (A) (A)
                 (A) (A) (A) (A) (A) (A) (A) (A) (A) (A) (A) (A)
                 (A) (A) (A) (A) (A) (A) (A) (A) (A) (A) (A) (A)
                 (A) (A) (A) (A) (A) (A) (A) (A) (A) (A) (A) (A)
    20 initial guesses have been made.
 Convergence on wavefunction:    0.001000000000000
 Davidson Disk Diagonalization:  ConvIn= 1.00D-03 SkipCon=T Conv= 1.00D-03.
 Max sub-space:  2000 roots to seek:    20 dimension of matrix:       549360
 Iteration     1 Dimension    20 NMult     0 NNew     20
 CISAX will form    20 AO SS matrices at one time.
 NMat=    20 NSing=    20 JSym2X= 0.
 FoFJK:  IHMeth= 1 ICntrl=       0 DoSepK=T KAlg= 0 I1Cent=           0 FoldK=F
 IRaf=         1 NMat=      40 IRICut=       1 DoRegI=T DoRafI=F ISym2E= 0 IDoP0=3 IntGTp=3.
 FoFCou: FMM=T IPFlag=           0 FMFlag=      100000 FMFlg1=        2001
         NFxFlg=           0 DoJE=F BraDBF=F KetDBF=F FulRan=T
         wScrn=  0.000000 ICntrl=       500 IOpCl=  0 I1Cent=           0 NGrid=           0
         NMat0=   20 NMatS0=     20 NMatT0=    0 NMatD0=   20 NMtDS0=    0 NMtDT0=    0
 Symmetry not used in FoFCou.
 FMM levels:  10  Number of levels for PrismC:   9
 New state      2 was old state      4
 New state      3 was old state      7
 New state      4 was old state      6
 New state      5 was old state     10
 Excitation Energies [eV] at current iteration:
 Root      1 :     2.351748453404300
 Root      2 :     2.531722423771614
 Root      3 :     2.599979499119306
 Root      4 :     2.619676997738261
 Root      5 :     2.628532641897366
 Root      6 :     2.756471031422771
 Root      7 :     3.136159830085388
 Root      8 :     3.327002634674525
 Root      9 :     3.637598940434863
 Root     10 :     3.672084789330519
 Root     11 :     3.726442182403515
 Root     12 :     3.753908397748289
 Root     13 :     4.249981102340169
 Root     14 :     4.253819881824171
 Root     15 :     4.364837239982519
 Root     16 :     4.460692754302534
 Root     17 :     4.579173639273717
 Root     18 :     4.610728708740038
 Root     19 :     4.744779817416643
 Root     20 :     4.752416476622916
 Iteration     2 Dimension    30 NMult    20 NNew     10
 CISAX will form    10 AO SS matrices at one time.
 NMat=    10 NSing=    10 JSym2X= 0.
 New state      1 was old state      3
 Root      1 not converged, maximum delta is    0.367604337893798
 New state      2 was old state      4
 Root      2 not converged, maximum delta is    0.347662537143383
 New state      3 was old state      5
 Root      3 not converged, maximum delta is    0.245346406521823
 New state      4 was old state      1
 Root      4 not converged, maximum delta is    0.003363531301584
 New state      5 was old state      2
 Root      5 not converged, maximum delta is    0.006456496897680
 Excitation Energies [eV] at current iteration:
 Root      1 :     1.770586717465195   Change is   -0.829392781654111
 Root      2 :     2.229806827425366   Change is   -0.389870170312895
 Root      3 :     2.243288285086025   Change is   -0.385244356811341
 Root      4 :     2.350978291236048   Change is   -0.000770162168252
 Root      5 :     2.530687816099318   Change is   -0.001034607672296
 Iteration     3 Dimension    40 NMult    30 NNew     10
 CISAX will form    10 AO SS matrices at one time.
 NMat=    10 NSing=    10 JSym2X= 0.
 Root      1 not converged, maximum delta is    0.054290896776088
 No map to state      2
 New state      3 was old state      2
 Root      3 not converged, maximum delta is    0.033774363382372
 New state      4 was old state      3
 Root      4 not converged, maximum delta is    0.054675514358022
 New state      5 was old state      4
 Root      5 not converged, maximum delta is    0.002315405970111
 Excitation Energies [eV] at current iteration:
 Root      1 :     1.666688006893456   Change is   -0.103898710571739
 Root      2 :     1.815223798500486
 Root      3 :     2.190632096775205   Change is   -0.039174730650161
 Root      4 :     2.206445933984817   Change is   -0.036842351101207
 Root      5 :     2.350980591885598   Change is    0.000002300649550
 Iteration     4 Dimension    50 NMult    40 NNew     10
 CISAX will form    10 AO SS matrices at one time.
 NMat=    10 NSing=    10 JSym2X= 0.
 Root      1 not converged, maximum delta is    0.010673511630726
 Root      2 not converged, maximum delta is    0.031025152681583
 Root      3 not converged, maximum delta is    0.017019417932752
 Root      4 not converged, maximum delta is    0.016538800802301
 Root      5 has converged.
 Excitation Energies [eV] at current iteration:
 Root      1 :     1.650231855005201   Change is   -0.016456151888255
 Root      2 :     1.720259594483107   Change is   -0.094964204017379
 Root      3 :     2.183702466615627   Change is   -0.006929630159578
 Root      4 :     2.198314494413783   Change is   -0.008131439571034
 Root      5 :     2.350979274329460   Change is   -0.000001317556138
 Iteration     5 Dimension    58 NMult    50 NNew      8
 CISAX will form     8 AO SS matrices at one time.
 NMat=     8 NSing=     8 JSym2X= 0.
 Root      1 not converged, maximum delta is    0.001478305982786
 Root      2 not converged, maximum delta is    0.010250490440386
 Root      3 not converged, maximum delta is    0.002914026440204
 Root      4 not converged, maximum delta is    0.002867092656247
 Root      5 has converged.
 Excitation Energies [eV] at current iteration:
 Root      1 :     1.648546447889675   Change is   -0.001685407115526
 Root      2 :     1.706781540155242   Change is   -0.013478054327864
 Root      3 :     2.182875025969190   Change is   -0.000827440646437
 Root      4 :     2.197388339446416   Change is   -0.000926154967367
 Root      5 :     2.350979230777869   Change is   -0.000000043551591
 Iteration     6 Dimension    66 NMult    58 NNew      8
 CISAX will form     8 AO SS matrices at one time.
 NMat=     8 NSing=     8 JSym2X= 0.
 Root      1 has converged.
 Root      2 not converged, maximum delta is    0.001661774385808
 Root      3 has converged.
 Root      4 has converged.
 Root      5 has converged.
 Excitation Energies [eV] at current iteration:
 Root      1 :     1.648308530101232   Change is   -0.000237917788443
 Root      2 :     1.705466022001536   Change is   -0.001315518153706
 Root      3 :     2.182755759061677   Change is   -0.000119266907514
 Root      4 :     2.197254928656388   Change is   -0.000133410790028
 Root      5 :     2.350979223270030   Change is   -0.000000007507840
 Iteration     7 Dimension    68 NMult    66 NNew      2
 CISAX will form     2 AO SS matrices at one time.
 NMat=     2 NSing=     2 JSym2X= 0.
 Root      1 has converged.
 Root      2 has converged.
 Root      3 has converged.
 Root      4 has converged.
 Root      5 has converged.
 Excitation Energies [eV] at current iteration:
 Root      1 :     1.648308519515554   Change is   -0.000000010585678
 Root      2 :     1.705330155367529   Change is   -0.000135866634007
[...]
 Alpha virt. eigenvalues --    1.83529   1.83783   1.83912   1.84083   1.84302
 Alpha virt. eigenvalues --    1.84388   1.84687   1.84768   1.84972   1.85100
 Alpha virt. eigenvalues --    1.85216   1.85340   1.85449   1.85614   1.85671
 Alpha virt. eigenvalues --    1.85866   1.86176   1.86208   1.86481   1.86540
 Alpha virt. eigenvalues --    1.86760   1.86855   1.86992   1.87065   1.87249
 Alpha virt. eigenvalues --    1.87410   1.87632   1.87742   1.87780   1.87929
 Alpha virt. eigenvalues --    1.87965   1.88201   1.88367   1.88446   1.88577
 Alpha virt. eigenvalues --    1.88786   1.88944   1.89175   1.89545   1.89607
 Alpha virt. eigenvalues --    1.89806   1.89995   1.90061   1.90260   1.90686
 Alpha virt. eigenvalues --    1.90917   1.91039   1.91345   1.91587   1.91702
 Alpha virt. eigenvalues --    1.92002   1.92176   1.92536   1.92698   1.92886
 Alpha virt. eigenvalues --    1.93121   1.93247   1.93373   1.93662   1.94334
 Alpha virt. eigenvalues --    1.94496   1.94641   1.95000   1.95492   1.95744
 Alpha virt. eigenvalues --    1.95758   1.95907   1.95964   1.96046   1.96321
 Alpha virt. eigenvalues --    1.96495   1.96518   1.96673   1.96904   1.97319
 Alpha virt. eigenvalues --    1.97378   1.97662   1.97740   1.97959   1.98109
 Alpha virt. eigenvalues --    1.98468   1.98596   1.98662   1.99093   1.99463
 Alpha virt. eigenvalues --    1.99791   2.00259   2.00639   2.00856   2.01029
 Alpha virt. eigenvalues --    2.01277   2.01461   2.01580   2.01683   2.01698
 Alpha virt. eigenvalues --    2.01854   2.02631   2.02729   2.02871   2.03201
 Alpha virt. eigenvalues --    2.03329   2.03388   2.03431   2.03657   2.03847
 Alpha virt. eigenvalues --    2.04136   2.04619   2.04908   2.05159   2.05585
 Alpha virt. eigenvalues --    2.05959   2.06119   2.06494   2.06895   2.07157
 Alpha virt. eigenvalues --    2.07233   2.07498   2.08632   2.08774   2.08934
 Alpha virt. eigenvalues --    2.09153   2.09549   2.09778   2.10700   2.11129
 Alpha virt. eigenvalues --    2.11187   2.11476   2.11577   2.11670   2.11675
 Alpha virt. eigenvalues --    2.12234   2.12416   2.12739   2.12752   2.12812
 Alpha virt. eigenvalues --    2.13066   2.13420   2.13723   2.13842   2.14109
 Alpha virt. eigenvalues --    2.14437   2.15302   2.15576   2.15872   2.16219
 Alpha virt. eigenvalues --    2.16495   2.16674   2.16906   2.17315   2.17496
 Alpha virt. eigenvalues --    2.17667   2.17807   2.17927   2.18165   2.18235
 Alpha virt. eigenvalues --    2.18342   2.18835   2.18932   2.19518   2.19588
 Alpha virt. eigenvalues --    2.19982   2.20054   2.20155   2.20411   2.20626
 Alpha virt. eigenvalues --    2.21322   2.21620   2.21650   2.21704   2.22001
 Alpha virt. eigenvalues --    2.22036   2.22735   2.22954   2.23304   2.23499
 Alpha virt. eigenvalues --    2.24385   2.24628   2.24895   2.25214   2.26255
 Alpha virt. eigenvalues --    2.26598   2.26801   2.27055   2.27194   2.27445
 Alpha virt. eigenvalues --    2.28082   2.28643   2.29212   2.29681   2.29751
 Alpha virt. eigenvalues --    2.30158   2.30438   2.30809   2.30996   2.31050
 Alpha virt. eigenvalues --    2.31156   2.31379   2.32147   2.32420   2.33094
 Alpha virt. eigenvalues --    2.33397   2.33423   2.33630   2.34109   2.34282
 Alpha virt. eigenvalues --    2.35358   2.35447   2.35747   2.36126   2.36395
 Alpha virt. eigenvalues --    2.36527   2.36581   2.36595   2.37774   2.37840
 Alpha virt. eigenvalues --    2.38225   2.38596   2.38821   2.38960   2.39564
 Alpha virt. eigenvalues --    2.39831   2.40257   2.40404   2.40430   2.40969
 Alpha virt. eigenvalues --    2.41238   2.41378   2.41812   2.41841   2.41996
 Alpha virt. eigenvalues --    2.42270   2.42938   2.42985   2.43182   2.43551
 Alpha virt. eigenvalues --    2.44145   2.44242   2.44689   2.44850   2.44998
 Alpha virt. eigenvalues --    2.45173   2.45549   2.45721   2.46277   2.46418
 Alpha virt. eigenvalues --    2.46484   2.46657   2.46758   2.46945   2.47218
 Alpha virt. eigenvalues --    2.47506   2.47715   2.48057   2.49279   2.49567
 Alpha virt. eigenvalues --    2.49977   2.50076   2.50538   2.50697   2.51070
 Alpha virt. eigenvalues --    2.51421   2.51783   2.51884   2.52398   2.52533
 Alpha virt. eigenvalues --    2.52764   2.53334   2.53862   2.54128   2.54161
 Alpha virt. eigenvalues --    2.54484   2.54783   2.54944   2.55477   2.55839
 Alpha virt. eigenvalues --    2.57820   2.58277   2.58568   2.59156   2.60158
 Alpha virt. eigenvalues --    2.60456   2.60559   2.61086   2.61660   2.62047
 Alpha virt. eigenvalues --    2.62468   2.62610   2.62889   2.63268   2.63877
 Alpha virt. eigenvalues --    2.64144   2.64388   2.64558   2.65004   2.65235
 Alpha virt. eigenvalues --    2.65739   2.65991   2.66666   2.66838   2.66957
 Alpha virt. eigenvalues --    2.67268   2.67834   2.68132   2.68791   2.68972
 Alpha virt. eigenvalues --    2.68979   2.69169   2.69274   2.69748   2.69912
 Alpha virt. eigenvalues --    2.70265   2.70908   2.71207   2.72009   2.72026
 Alpha virt. eigenvalues --    2.72595   2.72611   2.72808   2.72861   2.73178
 Alpha virt. eigenvalues --    2.73417   2.73517   2.73571   2.74445   2.74634
 Alpha virt. eigenvalues --    2.74914   2.75188   2.76516   2.76648   2.77168
 Alpha virt. eigenvalues --    2.77198   2.77416   2.77773   2.78183   2.78490
 Alpha virt. eigenvalues --    2.78673   2.78825   2.79082   2.79293   2.80320
 Alpha virt. eigenvalues --    2.80451   2.80554   2.80813   2.81055   2.81288
 Alpha virt. eigenvalues --    2.81876   2.82120   2.82256   2.82459   2.83700
 Alpha virt. eigenvalues --    2.83735   2.84017   2.84026   2.84469   2.84657
 Alpha virt. eigenvalues --    2.84798   2.85017   2.85623   2.85848   2.86773
 Alpha virt. eigenvalues --    2.86930   2.87277   2.87582   2.88137   2.88410
 Alpha virt. eigenvalues --    2.88423   2.88703   2.88875   2.89007   2.90413
 Alpha virt. eigenvalues --    2.90767   2.91085   2.91248   2.93099   2.93475
 Alpha virt. eigenvalues --    2.93903   2.94139   2.94497   2.94730   2.95292
 Alpha virt. eigenvalues --    2.95610   2.95918   2.96203   2.96374   2.96653
 Alpha virt. eigenvalues --    2.96975   2.97163   2.97777   2.98184   2.98193
 Alpha virt. eigenvalues --    2.98256   2.98519   2.98547   2.98718   2.98822
 Alpha virt. eigenvalues --    2.98969   2.99156   2.99597   2.99930   3.00020
 Alpha virt. eigenvalues --    3.00133   3.00197   3.00406   3.00501   3.01146
 Alpha virt. eigenvalues --    3.01854   3.02016   3.02043   3.02391   3.02739
 Alpha virt. eigenvalues --    3.02900   3.02993   3.03313   3.03600   3.03799
 Alpha virt. eigenvalues --    3.04036   3.04258   3.04391   3.04524   3.04658
 Alpha virt. eigenvalues --    3.04856   3.05228   3.05533   3.06069   3.06337
 Alpha virt. eigenvalues --    3.06754   3.07244   3.08086   3.08129   3.09355
 Alpha virt. eigenvalues --    3.09518   3.09647   3.10392   3.10550   3.10958
 Alpha virt. eigenvalues --    3.11261   3.11628   3.11897   3.11969   3.12262
 Alpha virt. eigenvalues --    3.12506   3.13232   3.13562   3.13789   3.13826
 Alpha virt. eigenvalues --    3.14078   3.14570   3.15872   3.16062   3.17199
 Alpha virt. eigenvalues --    3.17643   3.18056   3.18067   3.19086   3.19186
 Alpha virt. eigenvalues --    3.22291   3.22700   3.23884   3.24571   3.24623
 Alpha virt. eigenvalues --    3.25312   3.26436   3.26788   3.27527   3.27558
 Alpha virt. eigenvalues --    3.29092   3.29317   3.31468   3.31515   3.33323
 Alpha virt. eigenvalues --    3.33356   3.40342   3.40637   3.42799   3.42995
 Alpha virt. eigenvalues --    3.48598   3.48826   3.49954   3.50420   3.50978
 Alpha virt. eigenvalues --    3.51419   3.56495   3.57153   3.59023   3.59477
 Alpha virt. eigenvalues --    3.62649   3.62780   3.66195   3.66314   3.67183
 Alpha virt. eigenvalues --    3.67633   3.73252   3.74121   3.76025   3.76784
          Condensed to atoms (all electrons):
 Mulliken charges:
               1
     1  Mg   0.838807
     2  C   -0.002488
     3  C   -0.094106
     4  C   -0.045875
     5  C   -0.064844
     6  N   -0.256704
     7  C   -0.052623
     8  C   -0.013931
     9  C   -0.087047
    10  C    0.046470
    11  C    0.104749
    12  C    0.053450
    13  C   -0.072005
    14  H    0.036541
    15  N   -0.433336
    16  C    0.168764
    17  C   -0.176859
    18  C   -0.003373
    19  C    0.149005
    20  C    0.110183
    21  C    0.013098
    22  O   -0.248828
    23  C    0.062204
    24  N   -0.340990
    25  C    0.041105
    26  C   -0.028605
    27  C   -0.023650
    28  C    0.074222
    29  C    0.076031
    30  C    0.036864
    31  C   -0.009501
    32  N   -0.310287
    33  C    0.079862
    34  C   -0.170992
    35  C    0.008326
    36  C    0.082727
    37  C    0.127581
    38  C    0.045908
    39  O   -0.188638
    40  C   -0.005211
    41  C    0.212606
    42  O   -0.256378
    43  O   -0.305024
    44  C    0.157203
    45  H   -0.017226
    46  H   -0.016413
    47  H   -0.042628
    48  H    0.001176
    49  H   -0.003984
    50  H    0.025614
    51  H    0.016493
    52  H    0.016926
    53  H    0.010562
    54  H    0.044586
    55  H    0.018136
    56  H    0.017610
    57  H    0.005797
    58  H    0.027389
    59  H    0.039982
    60  H    0.037048
    61  H    0.037614
    62  H    0.031822
    63  H    0.016498
    64  H    0.009713
    65  H    0.023642
    66  H    0.013090
    67  H    0.004763
    68  H    0.006299
    69  H    0.003230
    70  H    0.009898
    71  H    0.016851
    72  H    0.030554
    73  H    0.046447
    74  H    0.007934
    75  H    0.046377
    76  H    0.035246
    77  H    0.043035
    78  H    0.046279
    79  H    0.055061
    80  Mg   0.837689
    81  C   -0.016730
    82  C   -0.087236
    83  C   -0.042692
    84  C   -0.065650
    85  N   -0.254524
    86  C   -0.050279
    87  C   -0.014957
    88  C   -0.091710
    89  C    0.045745
    90  C    0.111411
    91  C    0.062764
    92  C   -0.077560
    93  H    0.034354
    94  N   -0.424140
    95  C    0.163379
    96  C   -0.172142
    97  C   -0.005849
    98  C    0.152547
    99  C    0.098298
   100  C    0.017328
   101  O   -0.252741
   102  C    0.060828
   103  N   -0.349965
   104  C    0.037843
   105  C   -0.020092
   106  C   -0.034080
   107  C    0.088526
   108  C    0.072600
   109  C    0.034975
   110  C   -0.007500
   111  N   -0.323849
   112  C    0.078030
   113  C   -0.164255
   114  C    0.002165
   115  C    0.095659
   116  C    0.131625
   117  C    0.042124
   118  O   -0.188746
   119  C    0.000841
   120  C    0.211024
   121  O   -0.251406
   122  O   -0.305400
   123  C    0.152223
   124  H   -0.019194
   125  H   -0.014573
   126  H   -0.042110
   127  H   -0.000843
   128  H   -0.005165
   129  H    0.024276
   130  H    0.016111
   131  H    0.017491
   132  H    0.013849
   133  H    0.037561
   134  H    0.020314
   135  H    0.019257
   136  H    0.008232
   137  H    0.029640
   138  H    0.039192
   139  H    0.040498
   140  H    0.036035
   141  H    0.032745
   142  H    0.013877
   143  H    0.010618
   144  H    0.023999
   145  H    0.017962
   146  H    0.003118
   147  H    0.005388
   148  H    0.002550
   149  H    0.010931
   150  H    0.017219
   151  H    0.030574
   152  H    0.045526
   153  H    0.007489
   154  H    0.045060
   155  H    0.035941
   156  H    0.043708
   157  H    0.049181
   158  H    0.053236
 Sum of Mulliken charges =  -0.00000
 Mulliken charges with hydrogens summed into heavy atoms:
               1
     1  Mg   0.838807
     2  C   -0.002488
     3  C   -0.111332
     4  C   -0.062288
     5  C   -0.107472
     6  N   -0.256704
     7  C   -0.052623
     8  C   -0.012755
     9  C   -0.091032
    10  C    0.046470
    11  C    0.163782
    12  C    0.108598
    13  C    0.000283
    15  N   -0.433336
    16  C    0.168764
    17  C   -0.176859
    18  C   -0.003373
    19  C    0.149005
    20  C    0.183351
    21  C    0.013098
    22  O   -0.248828
    23  C    0.168689
    24  N   -0.340990
    25  C    0.041105
    26  C   -0.012107
    27  C   -0.013937
    28  C    0.074222
    29  C    0.117526
    30  C    0.046393
    31  C    0.047803
    32  N   -0.310287
    33  C    0.079862
    34  C   -0.170992
    35  C    0.008326
    36  C    0.082727
    37  C    0.228339
    38  C    0.045908
    39  O   -0.188638
    40  C    0.030035
    41  C    0.212606
    42  O   -0.256378
    43  O   -0.305024
    44  C    0.301578
    80  Mg   0.837689
    81  C   -0.016730
    82  C   -0.106429
    83  C   -0.057265
    84  C   -0.107760
    85  N   -0.254524
    86  C   -0.050279
    87  C   -0.015800
    88  C   -0.096875
    89  C    0.045745
    90  C    0.169289
    91  C    0.114174
    92  C   -0.003634
    94  N   -0.424140
    95  C    0.163379
    96  C   -0.172142
    97  C   -0.005849
    98  C    0.152547
    99  C    0.175361
   100  C    0.017328
   101  O   -0.252741
   102  C    0.170106
   103  N   -0.349965
   104  C    0.037843
   105  C   -0.006215
   106  C   -0.023462
   107  C    0.088526
   108  C    0.117679
   109  C    0.042914
   110  C    0.051223
   111  N   -0.323849
   112  C    0.078030
   113  C   -0.164255
   114  C    0.002165
   115  C    0.095659
   116  C    0.229700
   117  C    0.042124
   118  O   -0.188746
   119  C    0.036782
   120  C    0.211024
   121  O   -0.251406
   122  O   -0.305400
   123  C    0.298349
 Electronic spatial extent (au):  <R**2>=          98661.5162
 Charge=             -0.0000 electrons
 Dipole moment (field-independent basis, Debye):
    X=              4.1273    Y=             -0.9333    Z=              0.1378  Tot=              4.2337
 Quadrupole moment (field-independent basis, Debye-Ang):
   XX=           -530.0954   YY=           -540.6402   ZZ=           -449.4543
   XY=            -21.9189   XZ=             56.3499   YZ=             32.9697
 Traceless Quadrupole moment (field-independent basis, Debye-Ang):
   XX=            -23.3655   YY=            -33.9102   ZZ=             57.2757
   XY=            -21.9189   XZ=             56.3499   YZ=             32.9697
 Octapole moment (field-independent basis, Debye-Ang**2):
  XXX=            319.6880  YYY=             47.4588  ZZZ=             56.4708  XYY=             23.5886
  XXY=             -3.9887  XXZ=              6.4148  XZZ=            -28.0592  YZZ=            -25.4639
  YYZ=            -64.0241  XYZ=             -1.1263
 Hexadecapole moment (field-independent basis, Debye-Ang**3):
 XXXX=         -71124.2333 YYYY=         -41410.8346 ZZZZ=         -23954.9906 XXXY=            282.4855
 XXXZ=           2617.3445 YYYX=           1346.5775 YYYZ=            605.6654 ZZZX=            303.8552
 ZZZY=           -284.7889 XXYY=         -17689.6144 XXZZ=         -15276.2792 YYZZ=         -10024.8848
 XXYZ=           1321.6781 YYXZ=            941.8152 ZZXY=           -933.6516
 N-N= 1.547606394259D+04 E-N=-4.043328723162D+04  KE= 4.028799665080D+03
 Leave Link  601 at Fri Sep  3 20:15:14 2021, MaxMem= 23488102400 cpu:              17.6 elap:               0.9
 (Enter /sw/apps/gaussian-16.0/g16/l9999.exe)
 1\1\GINC-BP1-COMPUTE00100\SP\RCAM-B3LYP TD-FC\def2SVP\C68H72Mg2N8O8\OF
 15641\03-Sep-2021\0\\#p cam-b3lyp/Def2SVP td=(nstates=5)\\TDDFT excite
 d states in gaussian\\0,1\Mg,0,0.,0.,0.\C,0,-0.217,-2.218,2.801\C,0,-1
 .255,2.442,2.026\C,0,-0.245,1.85,-2.564\C,0,0.146,-2.824,-2.037\N,0,-0
 .617,-0.009,2.126\C,0,-0.594,-0.908,3.105\C,0,-0.936,-0.309,4.502\C,0,
 -1.773,0.964,4.032\C,0,-1.155,1.168,2.66\C,0,-3.263,0.685,3.863\C,0,0.
 345,0.11,5.299\C,0,0.124,0.397,6.787\H,0,1.168,0.033,7.733\N,0,-0.185,
 1.961,-0.152\C,0,-0.703,2.8,0.777\C,0,-0.62,4.156,0.193\C,0,-0.187,4.0
 15,-1.225\C,0,-0.214,2.583,-1.38\C,0,-0.887,5.406,0.974\C,0,0.181,5.01
 3,-2.277\O,0,0.303,4.69,-3.508\C,0,0.31,6.414,-1.837\N,0,-0.265,-0.413
 ,-2.029\C,0,-0.279,0.569,-2.937\C,0,-0.196,0.024,-4.332\C,0,0.124,-1.5
 33,-4.18\C,0,0.086,-1.632,-2.635\C,0,-1.451,0.205,-5.197\C,0,1.373,-2.
 07,-4.923\C,0,2.626,-1.49,-4.306\N,0,0.15,-2.144,0.303\C,0,0.173,-3.13
 6,-0.688\C,0,0.173,-4.438,0.004\C,0,0.133,-4.111,1.358\C,0,0.083,-2.69
 5,1.502\C,0,0.149,-5.715,-0.623\C,0,0.096,-4.629,2.716\O,0,0.208,-5.74
 7,3.221\C,0,-0.255,-3.428,3.701\C,0,0.717,-3.482,4.848\O,0,1.931,-3.25
 5,4.669\O,0,0.038,-3.556,6.003\C,0,0.943,-3.583,7.183\H,0,-1.859,3.22,
 2.497\H,0,-0.218,2.453,-3.474\H,0,0.276,-3.747,-2.605\H,0,-1.554,-0.94
 9,5.132\H,0,-1.585,1.831,4.665\H,0,-3.484,-0.377,3.969\H,0,-3.511,1.02
 7,2.858\H,0,-3.852,1.301,4.543\H,0,0.669,1.096,4.966\H,0,1.13,-0.639,5
 .189\H,0,-0.844,0.026,7.125\H,0,0.062,1.477,6.921\H,0,-1.344,5.186,1.9
 38\H,0,-1.651,5.963,0.432\H,0,0.007,6.02,1.084\H,0,-0.635,6.744,-1.405
 \H,0,0.665,6.97,-2.704\H,0,1.048,6.466,-1.036\H,0,0.608,0.501,-4.891\H
 ,0,-0.692,-2.156,-4.547\H,0,-1.267,0.74,-6.129\H,0,-2.204,0.714,-4.596
 \H,0,-1.967,-0.72,-5.453\H,0,1.356,-1.759,-5.967\H,0,1.452,-3.157,-4.9
 02\H,0,2.714,-0.522,-4.798\H,0,3.487,-2.121,-4.529\H,0,2.495,-1.303,-3
 .24\H,0,0.867,-6.333,-0.084\H,0,0.404,-5.642,-1.68\H,0,-0.891,-5.999,-
 0.463\H,0,-1.283,-3.581,4.028\H,0,0.698,-4.478,7.755\H,0,0.833,-2.619,
 7.68\H,0,2.,-3.754,6.976\Mg,0,8.94232,0.79975,0.67359\C,0,8.81967,2.51
 453,-2.47658\C,0,8.45147,-2.09949,-1.05501\C,0,8.59556,-0.68438,3.4564
 9\C,0,8.28133,3.85881,2.20687\N,0,8.68423,0.38934,-1.48447\C,0,8.71734
 ,1.11264,-2.59356\C,0,8.71703,0.28084,-3.90415\C,0,8.02958,-1.05637,-3
 .3401\C,0,8.4391,-0.94168,-1.87319\C,0,6.51202,-1.03084,-3.41573\C,0,1
 0.16688,0.00135,-4.43505\C,0,10.2352,-0.53582,-5.86632\H,0,11.35131,-0
 .12237,-6.71239\N,0,9.06545,-1.12898,1.12458\C,0,8.85714,-2.17339,0.29
 566\C,0,9.04936,-3.38086,1.11371\C,0,9.22614,-2.96381,2.53129\C,0,8.94
 229,-1.54659,2.42648\C,0,9.13189,-4.75876,0.52379\C,0,9.57824,-3.71824
 ,3.77752\O,0,9.44386,-3.19705,4.94076\C,0,9.99624,-5.1167,3.60125\N,0,
 8.2943,1.44062,2.5422\C,0,8.28967,0.60568,3.59613\C,0,8.04942,1.35527,
 4.88484\C,0,8.13464,2.90575,4.5023\C,0,8.32936,2.77934,2.97538\C,0,6.7
 1666,1.0751,5.57885\C,0,9.14023,3.77474,5.30624\C,0,10.55672,3.35663,4
 .98354\N,0,8.78987,2.85843,0.03588\C,0,8.47944,3.97889,0.8373\C,0,8.37
 835,5.14462,-0.06452\C,0,8.61617,4.61312,-1.34102\C,0,8.82906,3.21141,
 -1.24409\C,0,8.05259,6.47371,0.32729\C,0,8.725,4.91734,-2.74967\O,0,8.
 725,5.95046,-3.41779\C,0,8.7364,3.55134,-3.56226\C,0,9.8608,3.61346,-4
 .55946\O,0,11.04321,3.65877,-4.17677\O,0,9.36942,3.39059,-5.79204\C,0,
 10.44854,3.43122,-6.81462\H,0,8.0754,-3.03389,-1.47256\H,0,8.57171,-1.
 12776,4.45465\H,0,8.17516,4.86456,2.61903\H,0,8.11879,0.6967,-4.70598\
 H,0,8.46597,-1.94462,-3.78948\H,0,6.14039,-0.0663,-3.72829\H,0,6.1638,
 -1.2654,-2.41835\H,0,6.15296,-1.83982,-4.05835\H,0,10.58792,-0.85498,-
 3.89268\H,0,10.77988,0.87732,-4.3482\H,0,9.28387,-0.41366,-6.39829\H,0
 ,10.38173,-1.61785,-5.82425\H,0,8.80135,-4.76897,-0.52218\H,0,8.39394,
 -5.3757,1.04789\H,0,10.11911,-5.21,0.64402\H,0,9.20287,-5.67101,3.1055
 1\H,0,10.29192,-5.4607,4.59428\H,0,10.86308,-5.14098,2.93146\H,0,8.819
 35,1.13003,5.61255\H,0,7.17262,3.41662,4.65518\H,0,6.83312,0.71614,6.6
 1888\H,0,6.16849,0.35422,4.98691\H,0,6.02782,1.91743,5.6132\H,0,9.0060
 8,3.61459,6.37886\H,0,9.03377,4.83885,5.12371\H,0,10.71644,2.49742,5.6
 4182\H,0,11.25419,4.16105,5.20824\H,0,10.63591,2.99942,3.95021\H,0,8.7
 2984,7.12959,-0.20341\H,0,8.13576,6.60234,1.40447\H,0,7.01535,6.52892,
 -0.01382\H,0,7.76454,3.45032,-4.04687\H,0,10.15271,4.17395,-7.56196\H,
 0,10.57039,2.38803,-7.16198\H,0,11.41534,3.81308,-6.50813\\Version=ES6
 4L-G16RevA.03\State=1-A\HF=-4069.8115948\RMSD=7.275e-09\PG=C01 [X(C68H
 72Mg2N8O8)]\\@


 A BIRD IN THE HAND IS SAFER THAN ONE OVERHEAD.

                       -- NEWTON'S SEVENTH LAW
 Job cpu time:       0 days 13 hours 48 minutes 58.9 seconds.
 Elapsed time:       0 days  0 hours 35 minutes 10.3 seconds.
 File lengths (MBytes):  RWF=  13225 Int=      0 D2E=      0 Chk=    574 Scr=      1
 Normal termination of Gaussian 16 at Fri Sep  3 20:15:15 2021.
