 Entering Gaussian System, Link 0=g16
 Initial command:
 /sw/apps/gaussian-16.0/g16/l1.exe "/tmp/Gau-59690.inp" -scrdir="/tmp/"
 Entering Link 1 = /sw/apps/gaussian-16.0/g16/l1.exe PID=     59691.
  
 Copyright (c) 1988,1990,1992,1993,1995,1998,2003,2009,2016,
            Gaussian, Inc.  All Rights Reserved.
  
 This is part of the Gaussian(R) 16 program.  It is based on
 the Gaussian(R) 09 system (copyright 2009, Gaussian, Inc.),
 the Gaussian(R) 03 system (copyright 2003, Gaussian, Inc.),
 the Gaussian(R) 98 system (copyright 1998, Gaussian, Inc.),
 the Gaussian(R) 94 system (copyright 1995, Gaussian, Inc.),
 the Gaussian 92(TM) system (copyright 1992, Gaussian, Inc.),
 the Gaussian 90(TM) system (copyright 1990, Gaussian, Inc.),
 the Gaussian 88(TM) system (copyright 1988, Gaussian, Inc.),
 the Gaussian 86(TM) system (copyright 1986, Carnegie Mellon
 University), and the Gaussian 82(TM) system (copyright 1983,
 Carnegie Mellon University). Gaussian is a federally registered
 trademark of Gaussian, Inc.
  
 This software contains proprietary and confidential information,
 including trade secrets, belonging to Gaussian, Inc.
  
 This software is provided under written license and may be
 used, copied, transmitted, or stored only in accord with that
 written license.
  
 The following legend is applicable only to US Government
 contracts under FAR:
  
                    RESTRICTED RIGHTS LEGEND
  
 Use, reproduction and disclosure by the US Government is
 subject to restrictions as set forth in subparagraphs (a)
 and (c) of the Commercial Computer Software - Restricted
 Rights clause in FAR 52.227-19.
  
 Gaussian, Inc.
 340 Quinnipiac St., Bldg. 40, Wallingford CT 06492
  
  
 ---------------------------------------------------------------
 Warning -- This program may not be used in any manner that
 competes with the business of Gaussian, Inc. or will provide
 assistance to any competitor of Gaussian, Inc.  The licensee
 of this program is prohibited from giving any competitor of
 Gaussian, Inc. access to this program.  By using this program,
 the user acknowledges that Gaussian, Inc. is engaged in the
 business of creating and licensing software in the field of
 computational chemistry and represents and warrants to the
 licensee that it is not a competitor of Gaussian, Inc. and that
 it will not use this program in any manner prohibited above.
 ---------------------------------------------------------------
  

 Cite this work as:
 Gaussian 16, Revision A.03,
 M. J. Frisch, G. W. Trucks, H. B. Schlegel, G. E. Scuseria, 
 M. A. Robb, J. R. Cheeseman, G. Scalmani, V. Barone, 
 G. A. Petersson, H. Nakatsuji, X. Li, M. Caricato, A. V. Marenich, 
 J. Bloino, B. G. Janesko, R. Gomperts, B. Mennucci, H. P. Hratchian, 
 J. V. Ortiz, A. F. Izmaylov, J. L. Sonnenberg, D. Williams-Young, 
 F. Ding, F. Lipparini, F. Egidi, J. Goings, B. Peng, A. Petrone, 
 T. Henderson, D. Ranasinghe, V. G. Zakrzewski, J. Gao, N. Rega, 
 G. Zheng, W. Liang, M. Hada, M. Ehara, K. Toyota, R. Fukuda, 
 J. Hasegawa, M. Ishida, T. Nakajima, Y. Honda, O. Kitao, H. Nakai, 
 T. Vreven, K. Throssell, J. A. Montgomery, Jr., J. E. Peralta, 
 F. Ogliaro, M. J. Bearpark, J. J. Heyd, E. N. Brothers, K. N. Kudin, 
 V. N. Staroverov, T. A. Keith, R. Kobayashi, J. Normand, 
 K. Raghavachari, A. P. Rendell, J. C. Burant, S. S. Iyengar, 
 J. Tomasi, M. Cossi, J. M. Millam, M. Klene, C. Adamo, R. Cammi, 
 J. W. Ochterski, R. L. Martin, K. Morokuma, O. Farkas, 
 J. B. Foresman, and D. J. Fox, Gaussian, Inc., Wallingford CT, 2016.
 
 ******************************************
 Gaussian 16:  ES64L-G16RevA.03 25-Dec-2016
                12-Sep-2021 
 ******************************************
 %nproc=24
 Will use up to   24 processors via shared memory.
 %mem=175gb
 -----------------------------------
 #p cam-b3lyp/Def2SVP td=(nstates=5)
 -----------------------------------
 1/38=1,172=1/1;
 2/12=2,17=6,18=5,40=1/2;
 3/5=43,7=101,11=9,25=1,30=1,74=-40/1,2,3,8;
 4//1;
 5/5=2,38=5/2;
 8/6=1,10=1,108=5/1;
 9/41=5,42=1,70=2/14;
 6/7=2,8=2,9=2,10=2/1;
 99/5=1,9=1/99;
 Leave Link    1 at Sun Sep 12 00:25:18 2021, MaxMem= 23488102400 cpu:               0.9 elap:               0.0
 (Enter /sw/apps/gaussian-16.0/g16/l101.exe)
 --------------------------------
 TDDFT excited states in gaussian
 --------------------------------
 Symbolic Z-matrix:
 Charge =  0 Multiplicity = 1
 Mg                    0.        0.        0. 
 C                    -0.217    -2.218     2.801 
 C                    -1.255     2.442     2.026 
 C                    -0.245     1.85     -2.564 
 C                     0.146    -2.824    -2.037 
 N                    -0.617    -0.009     2.126 
 C                    -0.594    -0.908     3.105 
 C                    -0.936    -0.309     4.502 
 C                    -1.773     0.964     4.032 
 C                    -1.155     1.168     2.66 
 C                    -3.263     0.685     3.863 
 C                     0.345     0.11      5.299 
 C                     0.124     0.397     6.787 
 H                     1.168     0.033     7.733 
 N                    -0.185     1.961    -0.152 
 C                    -0.703     2.8       0.777 
 C                    -0.62      4.156     0.193 
 C                    -0.187     4.015    -1.225 
 C                    -0.214     2.583    -1.38 
 C                    -0.887     5.406     0.974 
 C                     0.181     5.013    -2.277 
 O                     0.303     4.69     -3.508 
 C                     0.31      6.414    -1.837 
 N                    -0.265    -0.413    -2.029 
 C                    -0.279     0.569    -2.937 
 C                    -0.196     0.024    -4.332 
 C                     0.124    -1.533    -4.18 
 C                     0.086    -1.632    -2.635 
 C                    -1.451     0.205    -5.197 
 C                     1.373    -2.07     -4.923 
 C                     2.626    -1.49     -4.306 
 N                     0.15     -2.144     0.303 
 C                     0.173    -3.136    -0.688 
 C                     0.173    -4.438     0.004 
 C                     0.133    -4.111     1.358 
 C                     0.083    -2.695     1.502 
 C                     0.149    -5.715    -0.623 
 C                     0.096    -4.629     2.716 
 O                     0.208    -5.747     3.221 
 C                    -0.255    -3.428     3.701 
 C                     0.717    -3.482     4.848 
 O                     1.931    -3.255     4.669 
 O                     0.038    -3.556     6.003 
 C                     0.943    -3.583     7.183 
 H                    -1.859     3.22      2.497 
 H                    -0.218     2.453    -3.474 
 H                     0.276    -3.747    -2.605 
 H                    -1.554    -0.949     5.132 
 H                    -1.585     1.831     4.665 
 H                    -3.484    -0.377     3.969 
 H                    -3.511     1.027     2.858 
 H                    -3.852     1.301     4.543 
 H                     0.669     1.096     4.966 
 H                     1.13     -0.639     5.189 
 H                    -0.844     0.026     7.125 
 H                     0.062     1.477     6.921 
 H                    -1.344     5.186     1.938 
 H                    -1.651     5.963     0.432 
 H                     0.007     6.02      1.084 
 H                    -0.635     6.744    -1.405 
 H                     0.665     6.97     -2.704 
 H                     1.048     6.466    -1.036 
 H                     0.608     0.501    -4.891 
 H                    -0.692    -2.156    -4.547 
 H                    -1.267     0.74     -6.129 
 H                    -2.204     0.714    -4.596 
 H                    -1.967    -0.72     -5.453 
 H                     1.356    -1.759    -5.967 
 H                     1.452    -3.157    -4.902 
 H                     2.714    -0.522    -4.798 
 H                     3.487    -2.121    -4.529 
 H                     2.495    -1.303    -3.24 
 H                     0.867    -6.333    -0.084 
 H                     0.404    -5.642    -1.68 
 H                    -0.891    -5.999    -0.463 
 H                    -1.283    -3.581     4.028 
 H                     0.698    -4.478     7.755 
 H                     0.833    -2.619     7.68 
 H                     2.       -3.754     6.976 
 Mg                    15.7737   1.42347   1.19128 
 C                     15.2143   4.93747   1.65813 
 C                     15.09825   1.90743  -2.11692 
 C                     15.81636  -1.72778   0.82358 
 C                     15.27957   1.03078   4.61872 
 N                     15.23914   3.23471   0.03979 
 C                     15.11621   4.52492   0.31291 
 C                     14.95441   5.43394  -0.93491 
 C                     14.36517   4.34128  -1.95363 
 C                     14.96275   3.08052  -1.33231 
 C                     12.85067   4.22676  -1.90347 
 C                     16.32531   6.00796  -1.43806 
 C                     16.21171   7.14383  -2.4572 
 H                     17.20103   8.21716  -2.41632 
 N                     15.98092   0.32449  -0.44819 
 C                     15.67923   0.68523  -1.71315 
 C                     15.99365  -0.48277  -2.55045 
 C                     16.35    -1.61823  -1.65687 
 C                     16.03589  -1.04458  -0.36368 
 C                     16.01617  -0.42635  -4.05036 
 C                     16.87322  -2.99718  -1.92317 
 O                     16.88627  -3.89978  -1.01324 
 C                     17.28302  -3.28737  -3.30496 
 N                     15.36892  -0.15265   2.48524 
 C                     15.5143  -1.42871   2.08716 
 C                     15.43587  -2.37798   3.25897 
 C                     15.44923  -1.45255   4.56319 
 C                     15.44282  -0.06352   3.88796 
 C                     14.21    -3.29029   3.29514 
 C                     16.54024  -1.75202   5.62747 
 C                     17.90735  -1.42469   5.07137 
 N                     15.51107   2.73818   2.88558 
 C                     15.29395   2.36418   4.22985 
 C                     15.05939   3.60605   4.99481 
 C                     15.1341   4.62268   4.03077 
 C                     15.37662   4.05289   2.75171 
 C                     14.77033   3.68386   6.3864 
 C                     15.05238   6.04745   3.8026 
 O                     14.95057   7.03841   4.52465 
 C                     14.97492   6.30472   2.23601 
 C                     15.95725   7.39147   1.89464 
 O                     17.17905   7.20535   2.03307 
 O                     15.31084   8.38625   1.25987 
 C                     16.24524   9.48288   0.89093 
 H                     14.683    1.90673  -3.12511 
 H                     15.93011  -2.81304   0.77105 
 H                     15.21517   1.00076   5.7085 
 H                     14.25026   6.24857  -0.81525 
 H                     14.75041   4.49034  -2.95898 
 H                     12.42824   4.81714  -1.10401 
 H                     12.64     3.17644  -1.75019 
 H                     12.42094   4.48146  -2.87651 
 H                     16.82552   5.25083  -2.05555 
 H                     16.93264   6.32309  -0.61195 
 H                     15.19705   7.5579   -2.50152 
 H                     16.37695   6.73195  -3.45573 
 H                     15.55092   0.49362  -4.42532 
 H                     15.36199  -1.22779  -4.41036 
 H                     17.01657  -0.57478  -4.46248 
 H                     16.43875  -3.1315   -3.97232 
 H                     17.71149  -4.29115  -3.27801 
 H                     18.05434  -2.56709  -3.59971 
 H                     16.29788  -3.03326   3.28419 
 H                     14.50899  -1.53151   5.12847 
 H                     14.46721  -4.36574   3.33143 
 H                     13.59833  -3.07461   2.42919 
 H                     13.52049  -3.10494   4.11698 
 H                     16.55068  -2.81756   5.86967 
 H                     16.39645  -1.21182   6.55726 
 H                     18.16386  -2.32323   4.50222 
 H                     18.61752  -1.25198   5.87751 
 H                     17.85452  -0.58973   4.36306 
 H                     15.36296   4.49776   6.78245 
 H                     14.99293   2.74638   6.89173 
 H                     13.69656   3.88649   6.35152 
 H                     13.94913   6.59164   2.00147 
 H                     15.84365   10.40412   1.32421 
 H                     16.33421   9.44152  -0.21095 
 H                     17.23879   9.46145   1.32319 
 
 ITRead=  0  0  0  0  0  0  0  0  0  0  0  0  0  0  0  0  0  0  0  0
 ITRead=  0  0  0  0  0  0  0  0  0  0  0  0  0  0  0  0  0  0  0  0
 ITRead=  0  0  0  0  0  0  0  0  0  0  0  0  0  0  0  0  0  0  0  0
 ITRead=  0  0  0  0  0  0  0  0  0  0  0  0  0  0  0  0  0  0  0  0
 ITRead=  0  0  0  0  0  0  0  0  0  0  0  0  0  0  0  0  0  0  0  0
 ITRead=  0  0  0  0  0  0  0  0  0  0  0  0  0  0  0  0  0  0  0  0
 ITRead=  0  0  0  0  0  0  0  0  0  0  0  0  0  0  0  0  0  0  0  0
 ITRead=  0  0  0  0  0  0  0  0  0  0  0  0  0  0  0  0  0  0
 MicOpt= -1 -1 -1 -1 -1 -1 -1 -1 -1 -1 -1 -1 -1 -1 -1 -1 -1 -1 -1 -1
 MicOpt= -1 -1 -1 -1 -1 -1 -1 -1 -1 -1 -1 -1 -1 -1 -1 -1 -1 -1 -1 -1
 MicOpt= -1 -1 -1 -1 -1 -1 -1 -1 -1 -1 -1 -1 -1 -1 -1 -1 -1 -1 -1 -1
 MicOpt= -1 -1 -1 -1 -1 -1 -1 -1 -1 -1 -1 -1 -1 -1 -1 -1 -1 -1 -1 -1
 MicOpt= -1 -1 -1 -1 -1 -1 -1 -1 -1 -1 -1 -1 -1 -1 -1 -1 -1 -1 -1 -1
 MicOpt= -1 -1 -1 -1 -1 -1 -1 -1 -1 -1 -1 -1 -1 -1 -1 -1 -1 -1 -1 -1
 MicOpt= -1 -1 -1 -1 -1 -1 -1 -1 -1 -1 -1 -1 -1 -1 -1 -1 -1 -1 -1 -1
 MicOpt= -1 -1 -1 -1 -1 -1 -1 -1 -1 -1 -1 -1 -1 -1 -1 -1 -1 -1
 NAtoms=    158 NQM=      158 NQMF=       0 NMMI=      0 NMMIF=      0
                NMic=       0 NMicF=      0.
                    Isotopes and Nuclear Properties:
 (Nuclear quadrupole moments (NQMom) in fm**2, nuclear magnetic moments (NMagM)
  in nuclear magnetons)

  Atom         1           2           3           4           5           6           7           8           9          10
 IAtWgt=          24          12          12          12          12          14          12          12          12          12
 AtmWgt=  23.9850450  12.0000000  12.0000000  12.0000000  12.0000000  14.0030740  12.0000000  12.0000000  12.0000000  12.0000000
 NucSpn=           0           0           0           0           0           2           0           0           0           0
 AtZEff=  -0.0000000  -0.0000000  -0.0000000  -0.0000000  -0.0000000  -0.0000000  -0.0000000  -0.0000000  -0.0000000  -0.0000000
 NQMom=    0.0000000   0.0000000   0.0000000   0.0000000   0.0000000   2.0440000   0.0000000   0.0000000   0.0000000   0.0000000
 NMagM=    0.0000000   0.0000000   0.0000000   0.0000000   0.0000000   0.4037610   0.0000000   0.0000000   0.0000000   0.0000000
 AtZNuc=  12.0000000   6.0000000   6.0000000   6.0000000   6.0000000   7.0000000   6.0000000   6.0000000   6.0000000   6.0000000

  Atom        11          12          13          14          15          16          17          18          19          20
 IAtWgt=          12          12          12           1          14          12          12          12          12          12
 AtmWgt=  12.0000000  12.0000000  12.0000000   1.0078250  14.0030740  12.0000000  12.0000000  12.0000000  12.0000000  12.0000000
 NucSpn=           0           0           0           1           2           0           0           0           0           0
 AtZEff=  -0.0000000  -0.0000000  -0.0000000  -0.0000000  -0.0000000  -0.0000000  -0.0000000  -0.0000000  -0.0000000  -0.0000000
 NQMom=    0.0000000   0.0000000   0.0000000   0.0000000   2.0440000   0.0000000   0.0000000   0.0000000   0.0000000   0.0000000
 NMagM=    0.0000000   0.0000000   0.0000000   2.7928460   0.4037610   0.0000000   0.0000000   0.0000000   0.0000000   0.0000000
 AtZNuc=   6.0000000   6.0000000   6.0000000   1.0000000   7.0000000   6.0000000   6.0000000   6.0000000   6.0000000   6.0000000

  Atom        21          22          23          24          25          26          27          28          29          30
 IAtWgt=          12          16          12          14          12          12          12          12          12          12
 AtmWgt=  12.0000000  15.9949146  12.0000000  14.0030740  12.0000000  12.0000000  12.0000000  12.0000000  12.0000000  12.0000000
 NucSpn=           0           0           0           2           0           0           0           0           0           0
 AtZEff=  -0.0000000  -0.0000000  -0.0000000  -0.0000000  -0.0000000  -0.0000000  -0.0000000  -0.0000000  -0.0000000  -0.0000000
 NQMom=    0.0000000   0.0000000   0.0000000   2.0440000   0.0000000   0.0000000   0.0000000   0.0000000   0.0000000   0.0000000
 NMagM=    0.0000000   0.0000000   0.0000000   0.4037610   0.0000000   0.0000000   0.0000000   0.0000000   0.0000000   0.0000000
 AtZNuc=   6.0000000   8.0000000   6.0000000   7.0000000   6.0000000   6.0000000   6.0000000   6.0000000   6.0000000   6.0000000

  Atom        31          32          33          34          35          36          37          38          39          40
 IAtWgt=          12          14          12          12          12          12          12          12          16          12
 AtmWgt=  12.0000000  14.0030740  12.0000000  12.0000000  12.0000000  12.0000000  12.0000000  12.0000000  15.9949146  12.0000000
 NucSpn=           0           2           0           0           0           0           0           0           0           0
 AtZEff=  -0.0000000  -0.0000000  -0.0000000  -0.0000000  -0.0000000  -0.0000000  -0.0000000  -0.0000000  -0.0000000  -0.0000000
 NQMom=    0.0000000   2.0440000   0.0000000   0.0000000   0.0000000   0.0000000   0.0000000   0.0000000   0.0000000   0.0000000
 NMagM=    0.0000000   0.4037610   0.0000000   0.0000000   0.0000000   0.0000000   0.0000000   0.0000000   0.0000000   0.0000000
 AtZNuc=   6.0000000   7.0000000   6.0000000   6.0000000   6.0000000   6.0000000   6.0000000   6.0000000   8.0000000   6.0000000

  Atom        41          42          43          44          45          46          47          48          49          50
 IAtWgt=          12          16          16          12           1           1           1           1           1           1
 AtmWgt=  12.0000000  15.9949146  15.9949146  12.0000000   1.0078250   1.0078250   1.0078250   1.0078250   1.0078250   1.0078250
 NucSpn=           0           0           0           0           1           1           1           1           1           1
 AtZEff=  -0.0000000  -0.0000000  -0.0000000  -0.0000000  -0.0000000  -0.0000000  -0.0000000  -0.0000000  -0.0000000  -0.0000000
 NQMom=    0.0000000   0.0000000   0.0000000   0.0000000   0.0000000   0.0000000   0.0000000   0.0000000   0.0000000   0.0000000
 NMagM=    0.0000000   0.0000000   0.0000000   0.0000000   2.7928460   2.7928460   2.7928460   2.7928460   2.7928460   2.7928460
 AtZNuc=   6.0000000   8.0000000   8.0000000   6.0000000   1.0000000   1.0000000   1.0000000   1.0000000   1.0000000   1.0000000

  Atom        51          52          53          54          55          56          57          58          59          60
 IAtWgt=           1           1           1           1           1           1           1           1           1           1
 AtmWgt=   1.0078250   1.0078250   1.0078250   1.0078250   1.0078250   1.0078250   1.0078250   1.0078250   1.0078250   1.0078250
 NucSpn=           1           1           1           1           1           1           1           1           1           1
 AtZEff=  -0.0000000  -0.0000000  -0.0000000  -0.0000000  -0.0000000  -0.0000000  -0.0000000  -0.0000000  -0.0000000  -0.0000000
 NQMom=    0.0000000   0.0000000   0.0000000   0.0000000   0.0000000   0.0000000   0.0000000   0.0000000   0.0000000   0.0000000
 NMagM=    2.7928460   2.7928460   2.7928460   2.7928460   2.7928460   2.7928460   2.7928460   2.7928460   2.7928460   2.7928460
 AtZNuc=   1.0000000   1.0000000   1.0000000   1.0000000   1.0000000   1.0000000   1.0000000   1.0000000   1.0000000   1.0000000

  Atom        61          62          63          64          65          66          67          68          69          70
 IAtWgt=           1           1           1           1           1           1           1           1           1           1
 AtmWgt=   1.0078250   1.0078250   1.0078250   1.0078250   1.0078250   1.0078250   1.0078250   1.0078250   1.0078250   1.0078250
 NucSpn=           1           1           1           1           1           1           1           1           1           1
 AtZEff=  -0.0000000  -0.0000000  -0.0000000  -0.0000000  -0.0000000  -0.0000000  -0.0000000  -0.0000000  -0.0000000  -0.0000000
 NQMom=    0.0000000   0.0000000   0.0000000   0.0000000   0.0000000   0.0000000   0.0000000   0.0000000   0.0000000   0.0000000
 NMagM=    2.7928460   2.7928460   2.7928460   2.7928460   2.7928460   2.7928460   2.7928460   2.7928460   2.7928460   2.7928460
 AtZNuc=   1.0000000   1.0000000   1.0000000   1.0000000   1.0000000   1.0000000   1.0000000   1.0000000   1.0000000   1.0000000

  Atom        71          72          73          74          75          76          77          78          79          80
 IAtWgt=           1           1           1           1           1           1           1           1           1          24
 AtmWgt=   1.0078250   1.0078250   1.0078250   1.0078250   1.0078250   1.0078250   1.0078250   1.0078250   1.0078250  23.9850450
 NucSpn=           1           1           1           1           1           1           1           1           1           0
 AtZEff=  -0.0000000  -0.0000000  -0.0000000  -0.0000000  -0.0000000  -0.0000000  -0.0000000  -0.0000000  -0.0000000  -0.0000000
 NQMom=    0.0000000   0.0000000   0.0000000   0.0000000   0.0000000   0.0000000   0.0000000   0.0000000   0.0000000   0.0000000
 NMagM=    2.7928460   2.7928460   2.7928460   2.7928460   2.7928460   2.7928460   2.7928460   2.7928460   2.7928460   0.0000000
 AtZNuc=   1.0000000   1.0000000   1.0000000   1.0000000   1.0000000   1.0000000   1.0000000   1.0000000   1.0000000  12.0000000

  Atom        81          82          83          84          85          86          87          88          89          90
 IAtWgt=          12          12          12          12          14          12          12          12          12          12
 AtmWgt=  12.0000000  12.0000000  12.0000000  12.0000000  14.0030740  12.0000000  12.0000000  12.0000000  12.0000000  12.0000000
 NucSpn=           0           0           0           0           2           0           0           0           0           0
 AtZEff=  -0.0000000  -0.0000000  -0.0000000  -0.0000000  -0.0000000  -0.0000000  -0.0000000  -0.0000000  -0.0000000  -0.0000000
 NQMom=    0.0000000   0.0000000   0.0000000   0.0000000   2.0440000   0.0000000   0.0000000   0.0000000   0.0000000   0.0000000
 NMagM=    0.0000000   0.0000000   0.0000000   0.0000000   0.4037610   0.0000000   0.0000000   0.0000000   0.0000000   0.0000000
 AtZNuc=   6.0000000   6.0000000   6.0000000   6.0000000   7.0000000   6.0000000   6.0000000   6.0000000   6.0000000   6.0000000

  Atom        91          92          93          94          95          96          97          98          99         100
 IAtWgt=          12          12           1          14          12          12          12          12          12          12
 AtmWgt=  12.0000000  12.0000000   1.0078250  14.0030740  12.0000000  12.0000000  12.0000000  12.0000000  12.0000000  12.0000000
 NucSpn=           0           0           1           2           0           0           0           0           0           0
 AtZEff=  -0.0000000  -0.0000000  -0.0000000  -0.0000000  -0.0000000  -0.0000000  -0.0000000  -0.0000000  -0.0000000  -0.0000000
 NQMom=    0.0000000   0.0000000   0.0000000   2.0440000   0.0000000   0.0000000   0.0000000   0.0000000   0.0000000   0.0000000
 NMagM=    0.0000000   0.0000000   2.7928460   0.4037610   0.0000000   0.0000000   0.0000000   0.0000000   0.0000000   0.0000000
 AtZNuc=   6.0000000   6.0000000   1.0000000   7.0000000   6.0000000   6.0000000   6.0000000   6.0000000   6.0000000   6.0000000

  Atom       101         102         103         104         105         106         107         108         109         110
 IAtWgt=          16          12          14          12          12          12          12          12          12          12
 AtmWgt=  15.9949146  12.0000000  14.0030740  12.0000000  12.0000000  12.0000000  12.0000000  12.0000000  12.0000000  12.0000000
 NucSpn=           0           0           2           0           0           0           0           0           0           0
 AtZEff=  -0.0000000  -0.0000000  -0.0000000  -0.0000000  -0.0000000  -0.0000000  -0.0000000  -0.0000000  -0.0000000  -0.0000000
 NQMom=    0.0000000   0.0000000   2.0440000   0.0000000   0.0000000   0.0000000   0.0000000   0.0000000   0.0000000   0.0000000
 NMagM=    0.0000000   0.0000000   0.4037610   0.0000000   0.0000000   0.0000000   0.0000000   0.0000000   0.0000000   0.0000000
 AtZNuc=   8.0000000   6.0000000   7.0000000   6.0000000   6.0000000   6.0000000   6.0000000   6.0000000   6.0000000   6.0000000

  Atom       111         112         113         114         115         116         117         118         119         120
 IAtWgt=          14          12          12          12          12          12          12          16          12          12
 AtmWgt=  14.0030740  12.0000000  12.0000000  12.0000000  12.0000000  12.0000000  12.0000000  15.9949146  12.0000000  12.0000000
 NucSpn=           2           0           0           0           0           0           0           0           0           0
 AtZEff=  -0.0000000  -0.0000000  -0.0000000  -0.0000000  -0.0000000  -0.0000000  -0.0000000  -0.0000000  -0.0000000  -0.0000000
 NQMom=    2.0440000   0.0000000   0.0000000   0.0000000   0.0000000   0.0000000   0.0000000   0.0000000   0.0000000   0.0000000
 NMagM=    0.4037610   0.0000000   0.0000000   0.0000000   0.0000000   0.0000000   0.0000000   0.0000000   0.0000000   0.0000000
 AtZNuc=   7.0000000   6.0000000   6.0000000   6.0000000   6.0000000   6.0000000   6.0000000   8.0000000   6.0000000   6.0000000

  Atom       121         122         123         124         125         126         127         128         129         130
 IAtWgt=          16          16          12           1           1           1           1           1           1           1
 AtmWgt=  15.9949146  15.9949146  12.0000000   1.0078250   1.0078250   1.0078250   1.0078250   1.0078250   1.0078250   1.0078250
 NucSpn=           0           0           0           1           1           1           1           1           1           1
 AtZEff=  -0.0000000  -0.0000000  -0.0000000  -0.0000000  -0.0000000  -0.0000000  -0.0000000  -0.0000000  -0.0000000  -0.0000000
 NQMom=    0.0000000   0.0000000   0.0000000   0.0000000   0.0000000   0.0000000   0.0000000   0.0000000   0.0000000   0.0000000
 NMagM=    0.0000000   0.0000000   0.0000000   2.7928460   2.7928460   2.7928460   2.7928460   2.7928460   2.7928460   2.7928460
 AtZNuc=   8.0000000   8.0000000   6.0000000   1.0000000   1.0000000   1.0000000   1.0000000   1.0000000   1.0000000   1.0000000

  Atom       131         132         133         134         135         136         137         138         139         140
 IAtWgt=           1           1           1           1           1           1           1           1           1           1
 AtmWgt=   1.0078250   1.0078250   1.0078250   1.0078250   1.0078250   1.0078250   1.0078250   1.0078250   1.0078250   1.0078250
 NucSpn=           1           1           1           1           1           1           1           1           1           1
 AtZEff=  -0.0000000  -0.0000000  -0.0000000  -0.0000000  -0.0000000  -0.0000000  -0.0000000  -0.0000000  -0.0000000  -0.0000000
 NQMom=    0.0000000   0.0000000   0.0000000   0.0000000   0.0000000   0.0000000   0.0000000   0.0000000   0.0000000   0.0000000
 NMagM=    2.7928460   2.7928460   2.7928460   2.7928460   2.7928460   2.7928460   2.7928460   2.7928460   2.7928460   2.7928460
 AtZNuc=   1.0000000   1.0000000   1.0000000   1.0000000   1.0000000   1.0000000   1.0000000   1.0000000   1.0000000   1.0000000

  Atom       141         142         143         144         145         146         147         148         149         150
 IAtWgt=           1           1           1           1           1           1           1           1           1           1
 AtmWgt=   1.0078250   1.0078250   1.0078250   1.0078250   1.0078250   1.0078250   1.0078250   1.0078250   1.0078250   1.0078250
 NucSpn=           1           1           1           1           1           1           1           1           1           1
 AtZEff=  -0.0000000  -0.0000000  -0.0000000  -0.0000000  -0.0000000  -0.0000000  -0.0000000  -0.0000000  -0.0000000  -0.0000000
 NQMom=    0.0000000   0.0000000   0.0000000   0.0000000   0.0000000   0.0000000   0.0000000   0.0000000   0.0000000   0.0000000
 NMagM=    2.7928460   2.7928460   2.7928460   2.7928460   2.7928460   2.7928460   2.7928460   2.7928460   2.7928460   2.7928460
 AtZNuc=   1.0000000   1.0000000   1.0000000   1.0000000   1.0000000   1.0000000   1.0000000   1.0000000   1.0000000   1.0000000

  Atom       151         152         153         154         155         156         157         158
 IAtWgt=           1           1           1           1           1           1           1           1
 AtmWgt=   1.0078250   1.0078250   1.0078250   1.0078250   1.0078250   1.0078250   1.0078250   1.0078250
 NucSpn=           1           1           1           1           1           1           1           1
 AtZEff=  -0.0000000  -0.0000000  -0.0000000  -0.0000000  -0.0000000  -0.0000000  -0.0000000  -0.0000000
 NQMom=    0.0000000   0.0000000   0.0000000   0.0000000   0.0000000   0.0000000   0.0000000   0.0000000
 NMagM=    2.7928460   2.7928460   2.7928460   2.7928460   2.7928460   2.7928460   2.7928460   2.7928460
 AtZNuc=   1.0000000   1.0000000   1.0000000   1.0000000   1.0000000   1.0000000   1.0000000   1.0000000
 Leave Link  101 at Sun Sep 12 00:25:18 2021, MaxMem= 23488102400 cpu:               3.4 elap:               0.2
 (Enter /sw/apps/gaussian-16.0/g16/l202.exe)
 Stoichiometry    C68H72Mg2N8O8
 Framework group  C1[X(C68H72Mg2N8O8)]
 Deg. of freedom   468
 Full point group                 C1      NOp   1
 Largest Abelian subgroup         C1      NOp   1
 Largest concise Abelian subgroup C1      NOp   1
                         Standard orientation:                         
 ---------------------------------------------------------------------
 Center     Atomic      Atomic             Coordinates (Angstroms)
 Number     Number       Type             X           Y           Z
 ---------------------------------------------------------------------
      1         12           0        7.816786    0.755000    0.438933
      2          6           0        8.352506   -2.407927   -1.148868
      3          6           0        8.568443    2.215817   -2.551734
      4          6           0        7.794805    3.556249    1.925250
      5          6           0        8.224154   -0.875146    3.492183
      6          7           0        8.372030   -0.094727   -1.528378
      7          6           0        8.483928   -1.324562   -2.020471
      8          6           0        8.679301   -1.356244   -3.565852
      9          6           0        9.289307    0.102257   -3.772416
     10          6           0        8.679622    0.793679   -2.565708
     11          6           0       10.808932    0.150031   -3.650106
     12          6           0        7.324753   -1.524630   -4.333039
     13          6           0        7.454013   -1.890686   -5.814474
     14          1           0        6.467494   -2.783246   -6.403934
     15          7           0        7.655531    2.586986   -0.282644
     16          6           0        7.993347    2.999506   -1.528033
     17          6           0        7.686346    4.445242   -1.575784
     18          6           0        7.320901    4.878535   -0.198540
     19          6           0        7.604821    3.681529    0.551090
     20          6           0        7.708177    5.249753   -2.839126
     21          6           0        6.808613    6.170195    0.355815
     22          8           0        6.776674    6.406211    1.611940
     23          6           0        6.422663    7.199510   -0.626323
     24          7           0        8.201589    1.318897    2.411642
     25          6           0        8.064363    2.589788    2.805329
     26          6           0        8.114209    2.706835    4.299904
     27          6           0        8.071131    1.212866    4.862001
     28          6           0        8.087228    0.452592    3.512930
     29          6           0        9.338685    3.432939    4.873874
     30          6           0        6.955965    0.877989    5.884098
     31          6           0        5.604991    0.935441    5.206849
     32          7           0        8.041074   -1.300255    1.099741
     33          6           0        8.218923   -1.747783    2.416845
     34          6           0        8.431990   -3.205372    2.352771
     35          6           0        8.379452   -3.503988    0.992656
     36          6           0        8.174400   -2.304920    0.252059
     37          6           0        8.697381   -4.058278    3.460269
     38          6           0        8.473426   -4.553647   -0.008964
     39          8           0        8.548427   -5.782691    0.027333
     40          6           0        8.581451   -3.869654   -1.442948
     41          6           0        7.605853   -4.565047   -2.352863
     42          8           0        6.375728   -4.465243   -2.167936
     43          8           0        8.257997   -5.036970   -3.426427
     44          6           0        7.342711   -5.712991   -4.384238
     45          1           0        9.013176    2.788063   -3.368244
     46          1           0        7.684371    4.486070    2.487101
     47          1           0        8.273886   -1.463059    4.410518
     48          1           0        9.384798   -2.108352   -3.919449
     49          1           0        8.934976    0.564878   -4.693368
     50          1           0       11.211680   -0.804890   -3.312704
     51          1           0       11.017651    0.931012   -2.918670
     52          1           0       11.262329    0.484749   -4.583472
     53          1           0        6.839818   -0.552686   -4.423723
     54          1           0        6.687734   -2.256463   -3.835090
     55          1           0        8.463595   -2.224358   -6.055965
     56          1           0        7.320490   -0.983215   -6.403429
     57          1           0        8.172537    4.699379   -3.656441
     58          1           0        8.374897    6.094516   -2.667169
     59          1           0        6.717139    5.613093   -3.111449
     60          1           0        7.283178    7.442398   -1.250077
     61          1           0        5.996752    8.020189   -0.050185
     62          1           0        5.667226    6.784613   -1.294247
     63          1           0        7.252776    3.255759    4.678112
     64          1           0        8.993475    0.942799    5.376801
     65          1           0        9.086369    4.288885    5.500291
     66          1           0        9.974364    3.731818    4.040883
     67          1           0       10.016527    2.802051    5.448267
     68          1           0        6.943872    1.614378    6.686925
     69          1           0        7.070107   -0.106242    6.338534
     70          1           0        5.359435    1.996206    5.243089
     71          1           0        4.875149    0.346517    5.763364
     72          1           0        5.674002    0.652661    4.156249
     73          1           0        8.086792   -4.948964    3.312526
     74          1           0        8.460122   -3.567414    4.403860
     75          1           0        9.766875   -4.226045    3.334204
     76          1           0        9.611757   -3.996412   -1.773895
     77          1           0        7.727808   -6.720908   -4.539280
     78          1           0        7.267827   -5.060543   -5.254358
     79          1           0        6.338206   -5.930335   -4.019451
     80         12           0       -7.984687   -0.844353    0.336182
     81          6           0       -8.067997    2.147759   -1.643566
     82          6           0       -7.322670    1.136770    3.032757
     83          6           0       -7.459657   -3.481926    2.019913
     84          6           0       -7.515115   -2.623581   -2.623475
     85          7           0       -7.750396    1.345449    0.541488
     86          6           0       -7.864673    2.387173   -0.268511
     87          6           0       -7.835026    3.764458    0.446862
     88          6           0       -7.036288    3.330637    1.770764
     89          6           0       -7.416698    1.852049    1.812246
     90          6           0       -5.527176    3.431606    1.623361
     91          6           0       -9.272802    4.290823    0.790034
     92          6           0       -9.336476    5.761621    1.207707
     93          1           0      -10.500863    6.548232    0.810330
     94          7           0       -7.952865   -1.129347    2.299934
     95          6           0       -7.688107   -0.209693    3.251466
     96          6           0       -7.769693   -0.923852    4.535006
     97          6           0       -7.941777   -2.375152    4.254195
     98          6           0       -7.766749   -2.387866    2.815695
     99          6           0       -7.764156   -0.218810    5.860263
    100          6           0       -8.205807   -3.557842    5.136075
    101          8           0       -8.081747   -4.759074    4.706565
    102          6           0       -8.522929   -3.269217    6.542353
    103          7           0       -7.339964   -2.749101   -0.191645
    104          6           0       -7.247141   -3.726763    0.726774
    105          6           0       -7.031394   -5.070747    0.072891
    106          6           0       -7.241102   -4.825090   -1.493399
    107          6           0       -7.463688   -3.296786   -1.482290
    108          6           0       -5.664704   -5.713422    0.308479
    109          6           0       -8.288268   -5.719350   -2.212023
    110          6           0       -9.677321   -5.387799   -1.716052
    111          7           0       -8.001552   -0.384032   -1.774721
    112          6           0       -7.755503   -1.273355   -2.843667
    113          6           0       -7.763748   -0.473815   -4.085879
    114          6           0       -7.992977    0.839215   -3.647820
    115          6           0       -8.098606    0.859758   -2.230819
    116          6           0       -7.528076   -0.972849   -5.397960
    117          6           0       -8.159023    2.214119   -4.061072
    118          8           0       -8.252391    2.790461   -5.144048
    119          6           0       -8.088992    3.141243   -2.771914
    120          6           0       -9.239274    4.108570   -2.832413
    121          8           0      -10.411926    3.701775   -2.754932
    122          8           0       -8.763405    5.364588   -2.752816
    123          6           0       -9.867585    6.359877   -2.797573
    124          1           0       -6.888658    1.640238    3.897068
    125          1           0       -7.378166   -4.437490    2.543120
    126          1           0       -7.473816   -3.118995   -3.595858
    127          1           0       -7.289414    4.538229   -0.079781
    128          1           0       -7.416449    3.846931    2.648417
    129          1           0       -5.236131    3.666495    0.610320
    130          1           0       -5.137846    2.464752    1.914329
    131          1           0       -5.125006    4.148128    2.345304
    132          1           0       -9.615431    3.816756    1.718805
    133          1           0       -9.946879    4.117457   -0.026164
    134          1           0       -8.410338    6.298415    0.968807
    135          1           0       -9.401068    5.810421    2.297412
    136          1           0       -7.459814    0.830017    5.756647
    137          1           0       -6.969618   -0.674068    6.461350
    138          1           0       -8.711815   -0.317727    6.393960
    139          1           0       -7.703083   -2.713014    6.990625
    140          1           0       -8.767507   -4.234107    6.990746
    141          1           0       -9.401907   -2.615845    6.575795
    142          1           0       -7.764168   -5.790293    0.416961
    143          1           0       -6.316234   -5.003833   -2.061288
    144          1           0       -5.728329   -6.720542    0.762050
    145          1           0       -5.079308   -5.051520    0.932758
    146          1           0       -5.039754   -5.807710   -0.577945
    147          1           0       -8.116026   -6.771496   -1.972302
    148          1           0       -8.265767   -5.627438   -3.292786
    149          1           0       -9.756361   -5.972282   -0.794512
    150          1           0      -10.426872   -5.693854   -2.443057
    151          1           0       -9.755334   -4.329114   -1.442645
    152          1           0       -8.265167   -0.513250   -6.042913
    153          1           0       -7.593853   -2.058454   -5.428194
    154          1           0       -6.506593   -0.618817   -5.560718
    155          1           0       -7.124619    3.650503   -2.786638
    156          1           0       -9.646407    7.045619   -3.621301
    157          1           0       -9.920120    6.793703   -1.781305
    158          1           0      -10.852195    6.003885   -3.077327
 ---------------------------------------------------------------------
 Rotational constants (GHZ):           0.0203305           0.0058417           0.0056160
 Leave Link  202 at Sun Sep 12 00:25:18 2021, MaxMem= 23488102400 cpu:               0.2 elap:               0.0
 (Enter /sw/apps/gaussian-16.0/g16/l301.exe)
 Standard basis: def2SVP (5D, 7F)
 Ernie: Thresh=  0.10000D-02 Tol=  0.10000D-05 Strict=F.
 There are  1658 symmetry adapted cartesian basis functions of A   symmetry.
 There are  1572 symmetry adapted basis functions of A   symmetry.
  1572 basis functions,  2678 primitive gaussians,  1658 cartesian basis functions
   312 alpha electrons      312 beta electrons
       nuclear repulsion energy     13730.9108411137 Hartrees.
 IExCor=20419 DFT=T Ex+Corr=CAM-B3LYP ExCW=0 ScaHFX=  1.000000
 ScaDFX=  1.000000  1.000000  1.000000  0.810000 ScalE2=  1.000000  1.000000
 IRadAn=      5 IRanWt=     -1 IRanGd=            0 ICorTp=0 IEmpDi=  4
 HFx  wShort=  0.000000 wLong=  0.330000 cFull=  0.190000 cShort=  0.000000 cLong=  0.460000
 DFx  wShort=  0.000000 wLong=  0.330000 cFull=  0.190000 cShort=  0.000000 cLong=  0.460000
 NAtoms=  158 NActive=  158 NUniq=  158 SFac= 1.00D+00 NAtFMM=   60 NAOKFM=T Big=T
 Integral buffers will be    131072 words long.
 Raffenetti 1 integral format.
 Two-electron integral symmetry is turned on.
 Leave Link  301 at Sun Sep 12 00:25:18 2021, MaxMem= 23488102400 cpu:               1.3 elap:               0.1
 (Enter /sw/apps/gaussian-16.0/g16/l302.exe)
 NPDir=0 NMtPBC=     1 NCelOv=     1 NCel=       1 NClECP=     1 NCelD=      1
         NCelK=      1 NCelE2=     1 NClLst=     1 CellRange=     0.0.
 One-electron integrals computed using PRISM.
 One-electron integral symmetry used in STVInt
   1 Symmetry operations used in ECPInt.
 ECPInt:  NShTT=  271216 NPrTT=  987664 LenC2=  107308 LenP2D=  244244.
 LDataN:  DoStor=T MaxTD1= 4 Len=   56
 NBasis=  1572 RedAO= T EigKep=  3.36D-04  NBF=  1572
 NBsUse=  1572 1.00D-06 EigRej= -1.00D+00 NBFU=  1572
 Precomputing XC quadrature grid using
 IXCGrd= 4 IRadAn=           5 IRanWt=          -1 IRanGd=           0 AccXCQ= 0.00D+00.
 Generated NRdTot=       0 NPtTot=           0 NUsed=           0 NTot=          32
 NSgBfM=   825   821   821   821   825 MxSgAt=   158 MxSgA2=   144.
 Leave Link  302 at Sun Sep 12 00:25:23 2021, MaxMem= 23488102400 cpu:             104.9 elap:               4.4
 (Enter /sw/apps/gaussian-16.0/g16/l303.exe)
 DipDrv:  MaxL=1.
 Leave Link  303 at Sun Sep 12 00:25:23 2021, MaxMem= 23488102400 cpu:               8.9 elap:               0.4
 (Enter /sw/apps/gaussian-16.0/g16/l308.exe)
 Leave Link  308 at Sun Sep 12 00:25:24 2021, MaxMem= 23488102400 cpu:              13.7 elap:               0.6
 (Enter /sw/apps/gaussian-16.0/g16/l401.exe)
 ExpMin= 3.36D-02 ExpMax= 4.95D+03 ExpMxC= 7.45D+02 IAcc=3 IRadAn=         5 AccDes= 0.00D+00
 Harris functional with IExCor=20419 and IRadAn=       5 diagonalized for initial guess.
 HarFok:  IExCor=20419 AccDes= 0.00D+00 IRadAn=         5 IDoV= 1 UseB2=F ITyADJ=14
 ICtDFT=  3500011 ScaDFX=  1.000000  1.000000  1.000000  1.000000
 FoFCou: FMM=F IPFlag=           0 FMFlag=      100000 FMFlg1=        2001
         NFxFlg=           0 DoJE=T BraDBF=F KetDBF=T FulRan=T
         wScrn=  0.000000 ICntrl=       500 IOpCl=  0 I1Cent=   200000004 NGrid=           0
         NMat0=    1 NMatS0=      1 NMatT0=    0 NMatD0=    1 NMtDS0=    0 NMtDT0=    0
 Petite list used in FoFCou.
 Harris En= -3918.65800982615    
 JPrj=0 DoOrth=F DoCkMO=F.
 Leave Link  401 at Sun Sep 12 00:25:31 2021, MaxMem= 23488102400 cpu:             159.6 elap:               6.7
 (Enter /sw/apps/gaussian-16.0/g16/l502.exe)
 Integral symmetry usage will be decided dynamically.
 Closed shell SCF:
 Using DIIS extrapolation, IDIIS=  1040.
 NGot= 23488102400 LenX= 23482547354 LenY= 23479796732
 Requested convergence on RMS density matrix=1.00D-08 within 128 cycles.
 Requested convergence on MAX density matrix=1.00D-06.
 Requested convergence on             energy=1.00D-06.
 No special actions if energy rises.
 Fock matrices will be formed incrementally for  20 cycles.

 Cycle   1  Pass 1  IDiag  1:
 FoFJK:  IHMeth= 1 ICntrl=       0 DoSepK=T KAlg= 0 I1Cent=           0 FoldK=F
 IRaf=         1 NMat=       1 IRICut=       1 DoRegI=T DoRafI=F ISym2E= 0 IDoP0=0 IntGTp=1.
 FoFCou: FMM=T IPFlag=           0 FMFlag=      100000 FMFlg1=        2001
         NFxFlg=           0 DoJE=T BraDBF=F KetDBF=F FulRan=T
         wScrn=  0.000000 ICntrl=       500 IOpCl=  0 I1Cent=           0 NGrid=           0
         NMat0=    1 NMatS0=      1 NMatT0=    0 NMatD0=    1 NMtDS0=    0 NMtDT0=    0
 Symmetry not used in FoFCou.
 FMM levels:  10  Number of levels for PrismC:   9
 E= -4068.94945848186    
 DIIS: error= 2.04D-02 at cycle   1 NSaved=   1.
 NSaved= 1 IEnMin= 1 EnMin= -4068.94945848186     IErMin= 1 ErrMin= 2.04D-02
 ErrMax= 2.04D-02  0.00D+00 EMaxC= 1.00D-01 BMatC= 1.69D+00 BMatP= 1.69D+00
 IDIUse=3 WtCom= 7.96D-01 WtEn= 2.04D-01
 Coeff-Com:  0.100D+01
 Coeff-En:   0.100D+01
 Coeff:      0.100D+01
 Gap=     0.120 Goal=   None    Shift=    0.000
 GapD=    0.120 DampG=1.000 DampE=0.500 DampFc=0.5000 IDamp=-1.
 Damping current iteration by 5.00D-01
 RMSDP=1.57D-03 MaxDP=1.35D-01              OVMax= 2.03D-01

 Cycle   2  Pass 1  IDiag  1:
 RMSU=  7.69D-04    CP:  9.82D-01
 E= -4069.33835738085     Delta-E=       -0.388898898993 Rises=F Damp=T
 DIIS: error= 1.27D-02 at cycle   2 NSaved=   2.
 NSaved= 2 IEnMin= 2 EnMin= -4069.33835738085     IErMin= 2 ErrMin= 1.27D-02
 ErrMax= 1.27D-02  0.00D+00 EMaxC= 1.00D-01 BMatC= 3.07D-01 BMatP= 1.69D+00
 IDIUse=3 WtCom= 8.73D-01 WtEn= 1.27D-01
 Coeff-Com: -0.213D+00 0.121D+01
 Coeff-En:   0.000D+00 0.100D+01
 Coeff:     -0.186D+00 0.119D+01
 Gap=     0.136 Goal=   None    Shift=    0.000
 RMSDP=7.64D-04 MaxDP=9.41D-02 DE=-3.89D-01 OVMax= 1.89D-01

 Cycle   3  Pass 1  IDiag  1:
 RMSU=  7.32D-04    CP:  9.68D-01  1.24D+00
 E= -4069.62827454759     Delta-E=       -0.289917166738 Rises=F Damp=F
 DIIS: error= 1.57D-02 at cycle   3 NSaved=   3.
 NSaved= 3 IEnMin= 3 EnMin= -4069.62827454759     IErMin= 2 ErrMin= 1.27D-02
 ErrMax= 1.57D-02  0.00D+00 EMaxC= 1.00D-01 BMatC= 2.02D-01 BMatP= 3.07D-01
 IDIUse=3 WtCom= 8.43D-01 WtEn= 1.57D-01
 Coeff-Com: -0.267D+00 0.652D+00 0.616D+00
 Coeff-En:   0.000D+00 0.000D+00 0.100D+01
 Coeff:     -0.225D+00 0.549D+00 0.676D+00
 Gap=     0.124 Goal=   None    Shift=    0.000
 RMSDP=5.07D-04 MaxDP=4.92D-02 DE=-2.90D-01 OVMax= 1.43D-01

 Cycle   4  Pass 1  IDiag  1:
 RMSU=  2.65D-04    CP:  9.65D-01  1.55D+00  5.06D-01
 E= -4069.76535235125     Delta-E=       -0.137077803658 Rises=F Damp=F
 DIIS: error= 7.30D-03 at cycle   4 NSaved=   4.
 NSaved= 4 IEnMin= 4 EnMin= -4069.76535235125     IErMin= 4 ErrMin= 7.30D-03
 ErrMax= 7.30D-03  0.00D+00 EMaxC= 1.00D-01 BMatC= 5.03D-02 BMatP= 2.02D-01
 IDIUse=3 WtCom= 9.27D-01 WtEn= 7.30D-02
 Coeff-Com: -0.109D+00 0.226D+00 0.409D+00 0.475D+00
 Coeff-En:   0.000D+00 0.000D+00 0.220D+00 0.780D+00
 Coeff:     -0.101D+00 0.209D+00 0.395D+00 0.497D+00
 Gap=     0.122 Goal=   None    Shift=    0.000
 RMSDP=1.99D-04 MaxDP=2.07D-02 DE=-1.37D-01 OVMax= 6.20D-02

 Cycle   5  Pass 1  IDiag  1:
 RMSU=  7.55D-05    CP:  9.64D-01  1.49D+00  6.89D-01  5.51D-01
 E= -4069.81062440343     Delta-E=       -0.045272052186 Rises=F Damp=F
 DIIS: error= 7.98D-04 at cycle   5 NSaved=   5.
 NSaved= 5 IEnMin= 5 EnMin= -4069.81062440343     IErMin= 5 ErrMin= 7.98D-04
 ErrMax= 7.98D-04  0.00D+00 EMaxC= 1.00D-01 BMatC= 1.15D-03 BMatP= 5.03D-02
 IDIUse=3 WtCom= 9.92D-01 WtEn= 7.98D-03
 Coeff-Com: -0.356D-01 0.698D-01 0.165D+00 0.249D+00 0.553D+00
 Coeff-En:   0.000D+00 0.000D+00 0.000D+00 0.000D+00 0.100D+01
 Coeff:     -0.353D-01 0.693D-01 0.163D+00 0.247D+00 0.556D+00
 Gap=     0.122 Goal=   None    Shift=    0.000
 RMSDP=4.03D-05 MaxDP=4.20D-03 DE=-4.53D-02 OVMax= 1.67D-02

 Cycle   6  Pass 1  IDiag  1:
 RMSU=  3.00D-05    CP:  9.64D-01  1.49D+00  6.81D-01  6.22D-01  7.62D-01
 E= -4069.81161553272     Delta-E=       -0.000991129287 Rises=F Damp=F
 DIIS: error= 2.20D-04 at cycle   6 NSaved=   6.
 NSaved= 6 IEnMin= 6 EnMin= -4069.81161553272     IErMin= 6 ErrMin= 2.20D-04
 ErrMax= 2.20D-04  0.00D+00 EMaxC= 1.00D-01 BMatC= 1.74D-04 BMatP= 1.15D-03
 IDIUse=3 WtCom= 9.98D-01 WtEn= 2.20D-03
 Coeff-Com:  0.235D-02-0.685D-02 0.106D-01 0.394D-01 0.306D+00 0.648D+00
 Coeff-En:   0.000D+00 0.000D+00 0.000D+00 0.000D+00 0.101D+00 0.899D+00
 Coeff:      0.235D-02-0.684D-02 0.106D-01 0.393D-01 0.306D+00 0.649D+00
 Gap=     0.122 Goal=   None    Shift=    0.000
 RMSDP=1.56D-05 MaxDP=1.27D-03 DE=-9.91D-04 OVMax= 7.38D-03

 Cycle   7  Pass 1  IDiag  1:
 RMSU=  1.06D-05    CP:  9.64D-01  1.50D+00  6.87D-01  6.22D-01  8.61D-01
                    CP:  7.51D-01
 E= -4069.81180127197     Delta-E=       -0.000185739249 Rises=F Damp=F
 DIIS: error= 8.75D-05 at cycle   7 NSaved=   7.
 NSaved= 7 IEnMin= 7 EnMin= -4069.81180127197     IErMin= 7 ErrMin= 8.75D-05
 ErrMax= 8.75D-05  0.00D+00 EMaxC= 1.00D-01 BMatC= 2.01D-05 BMatP= 1.74D-04
 IDIUse=1 WtCom= 1.00D+00 WtEn= 0.00D+00
 Coeff-Com:  0.444D-02-0.970D-02-0.901D-02-0.398D-02 0.101D+00 0.327D+00
 Coeff-Com:  0.590D+00
 Coeff:      0.444D-02-0.970D-02-0.901D-02-0.398D-02 0.101D+00 0.327D+00
 Coeff:      0.590D+00
 Gap=     0.122 Goal=   None    Shift=    0.000
 RMSDP=6.43D-06 MaxDP=1.15D-03 DE=-1.86D-04 OVMax= 3.54D-03

 Cycle   8  Pass 1  IDiag  1:
 RMSU=  4.63D-06    CP:  9.64D-01  1.50D+00  6.88D-01  6.26D-01  8.66D-01
                    CP:  8.77D-01  8.28D-01
 E= -4069.81182626241     Delta-E=       -0.000024990441 Rises=F Damp=F
 DIIS: error= 5.08D-05 at cycle   8 NSaved=   8.
 NSaved= 8 IEnMin= 8 EnMin= -4069.81182626241     IErMin= 8 ErrMin= 5.08D-05
 ErrMax= 5.08D-05  0.00D+00 EMaxC= 1.00D-01 BMatC= 4.72D-06 BMatP= 2.01D-05
 IDIUse=1 WtCom= 1.00D+00 WtEn= 0.00D+00
 Coeff-Com:  0.213D-02-0.422D-02-0.771D-02-0.121D-01-0.122D-01 0.330D-01
 Coeff-Com:  0.346D+00 0.656D+00
 Coeff:      0.213D-02-0.422D-02-0.771D-02-0.121D-01-0.122D-01 0.330D-01
 Coeff:      0.346D+00 0.656D+00
 Gap=     0.122 Goal=   None    Shift=    0.000
 RMSDP=3.25D-06 MaxDP=3.79D-04 DE=-2.50D-05 OVMax= 1.15D-03

 Cycle   9  Pass 1  IDiag  1:
 RMSU=  1.90D-06    CP:  9.64D-01  1.50D+00  6.88D-01  6.28D-01  8.83D-01
                    CP:  9.03D-01  1.03D+00  9.37D-01
 E= -4069.81183382068     Delta-E=       -0.000007558268 Rises=F Damp=F
 DIIS: error= 1.94D-05 at cycle   9 NSaved=   9.
 NSaved= 9 IEnMin= 9 EnMin= -4069.81183382068     IErMin= 9 ErrMin= 1.94D-05
 ErrMax= 1.94D-05  0.00D+00 EMaxC= 1.00D-01 BMatC= 6.76D-07 BMatP= 4.72D-06
 IDIUse=1 WtCom= 1.00D+00 WtEn= 0.00D+00
 Coeff-Com:  0.459D-03-0.760D-03-0.264D-02-0.596D-02-0.214D-01-0.382D-01
 Coeff-Com:  0.105D+00 0.326D+00 0.637D+00
 Coeff:      0.459D-03-0.760D-03-0.264D-02-0.596D-02-0.214D-01-0.382D-01
 Coeff:      0.105D+00 0.326D+00 0.637D+00
 Gap=     0.122 Goal=   None    Shift=    0.000
 RMSDP=1.40D-06 MaxDP=1.58D-04 DE=-7.56D-06 OVMax= 7.65D-04

 Cycle  10  Pass 1  IDiag  1:
 RMSU=  9.31D-07    CP:  9.64D-01  1.50D+00  6.88D-01  6.28D-01  8.86D-01
                    CP:  9.16D-01  1.07D+00  1.10D+00  1.05D+00
 E= -4069.81183537904     Delta-E=       -0.000001558361 Rises=F Damp=F
 DIIS: error= 1.07D-05 at cycle  10 NSaved=  10.
 NSaved=10 IEnMin=10 EnMin= -4069.81183537904     IErMin=10 ErrMin= 1.07D-05
 ErrMax= 1.07D-05  0.00D+00 EMaxC= 1.00D-01 BMatC= 1.68D-07 BMatP= 6.76D-07
 IDIUse=1 WtCom= 1.00D+00 WtEn= 0.00D+00
 Coeff-Com: -0.427D-03 0.893D-03 0.124D-02 0.114D-02-0.376D-02-0.307D-01
 Coeff-Com: -0.475D-01-0.760D-01 0.256D+00 0.899D+00
 Coeff:     -0.427D-03 0.893D-03 0.124D-02 0.114D-02-0.376D-02-0.307D-01
 Coeff:     -0.475D-01-0.760D-01 0.256D+00 0.899D+00
 Gap=     0.122 Goal=   None    Shift=    0.000
 RMSDP=1.22D-06 MaxDP=1.32D-04 DE=-1.56D-06 OVMax= 6.06D-04

 Cycle  11  Pass 1  IDiag  1:
 RMSU=  5.10D-07    CP:  9.64D-01  1.50D+00  6.88D-01  6.28D-01  8.88D-01
                    CP:  9.27D-01  1.12D+00  1.21D+00  1.39D+00  1.37D+00
 E= -4069.81183615417     Delta-E=       -0.000000775130 Rises=F Damp=F
 DIIS: error= 3.82D-06 at cycle  11 NSaved=  11.
 NSaved=11 IEnMin=11 EnMin= -4069.81183615417     IErMin=11 ErrMin= 3.82D-06
 ErrMax= 3.82D-06  0.00D+00 EMaxC= 1.00D-01 BMatC= 5.91D-08 BMatP= 1.68D-07
 IDIUse=1 WtCom= 1.00D+00 WtEn= 0.00D+00
 Coeff-Com: -0.324D-03 0.630D-03 0.132D-02 0.211D-02 0.440D-02-0.821D-02
 Coeff-Com: -0.441D-01-0.131D+00-0.225D-01 0.463D+00 0.735D+00
 Coeff:     -0.324D-03 0.630D-03 0.132D-02 0.211D-02 0.440D-02-0.821D-02
 Coeff:     -0.441D-01-0.131D+00-0.225D-01 0.463D+00 0.735D+00
 Gap=     0.122 Goal=   None    Shift=    0.000
 RMSDP=6.77D-07 MaxDP=5.66D-05 DE=-7.75D-07 OVMax= 3.55D-04

 Cycle  12  Pass 1  IDiag  1:
 RMSU=  2.59D-07    CP:  9.64D-01  1.50D+00  6.88D-01  6.29D-01  8.89D-01
                    CP:  9.29D-01  1.14D+00  1.28D+00  1.55D+00  1.75D+00
                    CP:  1.21D+00
 E= -4069.81183641076     Delta-E=       -0.000000256598 Rises=F Damp=F
 DIIS: error= 2.44D-06 at cycle  12 NSaved=  12.
 NSaved=12 IEnMin=12 EnMin= -4069.81183641076     IErMin=12 ErrMin= 2.44D-06
 ErrMax= 2.44D-06  0.00D+00 EMaxC= 1.00D-01 BMatC= 1.40D-08 BMatP= 5.91D-08
 IDIUse=1 WtCom= 1.00D+00 WtEn= 0.00D+00
 Coeff-Com:  0.427D-05-0.248D-04 0.161D-03 0.483D-03 0.323D-02 0.418D-02
 Coeff-Com:  0.322D-02-0.331D-01-0.682D-01-0.808D-01 0.242D+00 0.929D+00
 Coeff:      0.427D-05-0.248D-04 0.161D-03 0.483D-03 0.323D-02 0.418D-02
 Coeff:      0.322D-02-0.331D-01-0.682D-01-0.808D-01 0.242D+00 0.929D+00
 Gap=     0.122 Goal=   None    Shift=    0.000
 RMSDP=4.37D-07 MaxDP=3.09D-05 DE=-2.57D-07 OVMax= 2.48D-04

 Cycle  13  Pass 1  IDiag  1:
 RMSU=  1.64D-07    CP:  9.64D-01  1.50D+00  6.88D-01  6.29D-01  8.89D-01
                    CP:  9.29D-01  1.15D+00  1.31D+00  1.67D+00  1.99D+00
                    CP:  1.62D+00  1.28D+00
 E= -4069.81183650135     Delta-E=       -0.000000090582 Rises=F Damp=F
 DIIS: error= 1.32D-06 at cycle  13 NSaved=  13.
 NSaved=13 IEnMin=13 EnMin= -4069.81183650135     IErMin=13 ErrMin= 1.32D-06
 ErrMax= 1.32D-06  0.00D+00 EMaxC= 1.00D-01 BMatC= 7.92D-09 BMatP= 1.40D-08
 IDIUse=1 WtCom= 1.00D+00 WtEn= 0.00D+00
 Coeff-Com:  0.120D-03-0.244D-03-0.370D-03-0.459D-03 0.541D-03 0.508D-02
 Coeff-Com:  0.198D-01 0.230D-01-0.348D-01-0.240D+00-0.158D+00 0.608D+00
 Coeff-Com:  0.778D+00
 Coeff:      0.120D-03-0.244D-03-0.370D-03-0.459D-03 0.541D-03 0.508D-02
 Coeff:      0.198D-01 0.230D-01-0.348D-01-0.240D+00-0.158D+00 0.608D+00
 Coeff:      0.778D+00
 Gap=     0.122 Goal=   None    Shift=    0.000
 RMSDP=3.33D-07 MaxDP=2.22D-05 DE=-9.06D-08 OVMax= 1.83D-04

 Cycle  14  Pass 1  IDiag  1:
 RMSU=  7.54D-08    CP:  9.64D-01  1.50D+00  6.88D-01  6.29D-01  8.90D-01
                    CP:  9.30D-01  1.16D+00  1.33D+00  1.74D+00  2.17D+00
                    CP:  1.88D+00  1.80D+00  1.08D+00
 E= -4069.81183653596     Delta-E=       -0.000000034612 Rises=F Damp=F
 DIIS: error= 7.29D-07 at cycle  14 NSaved=  14.
 NSaved=14 IEnMin=14 EnMin= -4069.81183653596     IErMin=14 ErrMin= 7.29D-07
 ErrMax= 7.29D-07  0.00D+00 EMaxC= 1.00D-01 BMatC= 1.19D-09 BMatP= 7.92D-09
 IDIUse=1 WtCom= 1.00D+00 WtEn= 0.00D+00
 Coeff-Com:  0.655D-04-0.129D-03-0.243D-03-0.383D-03-0.488D-03 0.129D-02
 Coeff-Com:  0.107D-01 0.190D-01 0.326D-02-0.980D-01-0.142D+00 0.997D-01
 Coeff-Com:  0.398D+00 0.710D+00
 Coeff:      0.655D-04-0.129D-03-0.243D-03-0.383D-03-0.488D-03 0.129D-02
 Coeff:      0.107D-01 0.190D-01 0.326D-02-0.980D-01-0.142D+00 0.997D-01
 Coeff:      0.398D+00 0.710D+00
 Gap=     0.122 Goal=   None    Shift=    0.000
 RMSDP=9.92D-08 MaxDP=6.58D-06 DE=-3.46D-08 OVMax= 5.94D-05

 Cycle  15  Pass 1  IDiag  1:
 RMSU=  3.83D-08    CP:  9.64D-01  1.50D+00  6.88D-01  6.29D-01  8.90D-01
                    CP:  9.30D-01  1.16D+00  1.33D+00  1.75D+00  2.21D+00
                    CP:  1.98D+00  1.93D+00  1.32D+00  1.02D+00
 E= -4069.81183653995     Delta-E=       -0.000000003987 Rises=F Damp=F
 DIIS: error= 4.32D-07 at cycle  15 NSaved=  15.
 NSaved=15 IEnMin=15 EnMin= -4069.81183653995     IErMin=15 ErrMin= 4.32D-07
 ErrMax= 4.32D-07  0.00D+00 EMaxC= 1.00D-01 BMatC= 2.37D-10 BMatP= 1.19D-09
 IDIUse=1 WtCom= 1.00D+00 WtEn= 0.00D+00
 Coeff-Com:  0.565D-05-0.947D-05-0.338D-04-0.838D-04-0.308D-03-0.504D-03
 Coeff-Com:  0.119D-02 0.272D-02 0.877D-02 0.148D-02-0.329D-01-0.710D-01
 Coeff-Com:  0.269D-01 0.313D+00 0.750D+00
 Coeff:      0.565D-05-0.947D-05-0.338D-04-0.838D-04-0.308D-03-0.504D-03
 Coeff:      0.119D-02 0.272D-02 0.877D-02 0.148D-02-0.329D-01-0.710D-01
 Coeff:      0.269D-01 0.313D+00 0.750D+00
 Gap=     0.122 Goal=   None    Shift=    0.000
 RMSDP=4.11D-08 MaxDP=2.67D-06 DE=-3.99D-09 OVMax= 2.32D-05

 Cycle  16  Pass 1  IDiag  1:
 RMSU=  1.86D-08    CP:  9.64D-01  1.50D+00  6.88D-01  6.29D-01  8.90D-01
                    CP:  9.30D-01  1.16D+00  1.34D+00  1.76D+00  2.23D+00
                    CP:  2.01D+00  2.00D+00  1.39D+00  1.24D+00  1.14D+00
 E= -4069.81183654080     Delta-E=       -0.000000000851 Rises=F Damp=F
 DIIS: error= 2.35D-07 at cycle  16 NSaved=  16.
 NSaved=16 IEnMin=16 EnMin= -4069.81183654080     IErMin=16 ErrMin= 2.35D-07
 ErrMax= 2.35D-07  0.00D+00 EMaxC= 1.00D-01 BMatC= 7.75D-11 BMatP= 2.37D-10
 IDIUse=1 WtCom= 1.00D+00 WtEn= 0.00D+00
 Coeff-Com: -0.141D-04 0.285D-04 0.465D-04 0.531D-04-0.279D-04-0.631D-03
 Coeff-Com: -0.199D-02-0.420D-02 0.464D-02 0.256D-01 0.199D-01-0.643D-01
 Coeff-Com: -0.860D-01-0.243D-01 0.387D+00 0.744D+00
 Coeff:     -0.141D-04 0.285D-04 0.465D-04 0.531D-04-0.279D-04-0.631D-03
 Coeff:     -0.199D-02-0.420D-02 0.464D-02 0.256D-01 0.199D-01-0.643D-01
 Coeff:     -0.860D-01-0.243D-01 0.387D+00 0.744D+00
 Gap=     0.122 Goal=   None    Shift=    0.000
 RMSDP=2.28D-08 MaxDP=1.57D-06 DE=-8.51D-10 OVMax= 1.55D-05

 Cycle  17  Pass 1  IDiag  1:
 RMSU=  1.09D-08    CP:  9.64D-01  1.50D+00  6.88D-01  6.29D-01  8.90D-01
                    CP:  9.30D-01  1.16D+00  1.34D+00  1.76D+00  2.23D+00
                    CP:  2.02D+00  2.02D+00  1.44D+00  1.34D+00  1.44D+00
                    CP:  1.23D+00
 E= -4069.81183654111     Delta-E=       -0.000000000317 Rises=F Damp=F
 DIIS: error= 1.28D-07 at cycle  17 NSaved=  17.
 NSaved=17 IEnMin=17 EnMin= -4069.81183654111     IErMin=17 ErrMin= 1.28D-07
 ErrMax= 1.28D-07  0.00D+00 EMaxC= 1.00D-01 BMatC= 2.04D-11 BMatP= 7.75D-11
 IDIUse=1 WtCom= 1.00D+00 WtEn= 0.00D+00
 Coeff-Com: -0.800D-05 0.156D-04 0.312D-04 0.459D-04 0.822D-04-0.156D-03
 Coeff-Com: -0.111D-02-0.301D-02 0.378D-03 0.108D-01 0.186D-01-0.107D-01
 Coeff-Com: -0.441D-01-0.101D+00-0.272D-01 0.346D+00 0.811D+00
 Coeff:     -0.800D-05 0.156D-04 0.312D-04 0.459D-04 0.822D-04-0.156D-03
 Coeff:     -0.111D-02-0.301D-02 0.378D-03 0.108D-01 0.186D-01-0.107D-01
 Coeff:     -0.441D-01-0.101D+00-0.272D-01 0.346D+00 0.811D+00
 Gap=     0.122 Goal=   None    Shift=    0.000
 RMSDP=1.39D-08 MaxDP=1.00D-06 DE=-3.17D-10 OVMax= 8.04D-06

 Cycle  18  Pass 1  IDiag  1:
 RMSU=  5.22D-09    CP:  9.64D-01  1.50D+00  6.88D-01  6.29D-01  8.90D-01
                    CP:  9.30D-01  1.16D+00  1.34D+00  1.76D+00  2.24D+00
                    CP:  2.03D+00  2.03D+00  1.46D+00  1.41D+00  1.61D+00
                    CP:  1.64D+00  1.33D+00
 E= -4069.81183654114     Delta-E=       -0.000000000025 Rises=F Damp=F
 DIIS: error= 6.32D-08 at cycle  18 NSaved=  18.
 NSaved=18 IEnMin=18 EnMin= -4069.81183654114     IErMin=18 ErrMin= 6.32D-08
 ErrMax= 6.32D-08  0.00D+00 EMaxC= 1.00D-01 BMatC= 6.85D-12 BMatP= 2.04D-11
 IDIUse=1 WtCom= 1.00D+00 WtEn= 0.00D+00
 Coeff-Com:  0.102D-05-0.237D-05-0.745D-06 0.356D-05 0.643D-04 0.154D-03
 Coeff-Com:  0.253D-03-0.142D-03-0.119D-02-0.454D-02 0.205D-02 0.183D-01
 Coeff-Com:  0.121D-01-0.415D-01-0.155D+00-0.110D+00 0.374D+00 0.906D+00
 Coeff:      0.102D-05-0.237D-05-0.745D-06 0.356D-05 0.643D-04 0.154D-03
 Coeff:      0.253D-03-0.142D-03-0.119D-02-0.454D-02 0.205D-02 0.183D-01
 Coeff:      0.121D-01-0.415D-01-0.155D+00-0.110D+00 0.374D+00 0.906D+00
 Gap=     0.122 Goal=   None    Shift=    0.000
 RMSDP=1.07D-08 MaxDP=8.48D-07 DE=-2.55D-11 OVMax= 7.32D-06

 Cycle  19  Pass 1  IDiag  1:
 RMSU=  3.25D-09    CP:  9.64D-01  1.50D+00  6.88D-01  6.29D-01  8.90D-01
                    CP:  9.30D-01  1.16D+00  1.34D+00  1.76D+00  2.24D+00
                    CP:  2.03D+00  2.04D+00  1.47D+00  1.45D+00  1.74D+00
                    CP:  1.93D+00  1.83D+00  1.20D+00
 E= -4069.81183654106     Delta-E=        0.000000000080 Rises=F Damp=F
 DIIS: error= 3.88D-08 at cycle  19 NSaved=  19.
 NSaved=19 IEnMin=18 EnMin= -4069.81183654114     IErMin=19 ErrMin= 3.88D-08
 ErrMax= 3.88D-08  0.00D+00 EMaxC= 1.00D-01 BMatC= 2.82D-12 BMatP= 6.85D-12
 IDIUse=1 WtCom= 1.00D+00 WtEn= 0.00D+00
 Coeff-Com:  0.330D-05-0.669D-05-0.109D-04-0.131D-04 0.182D-04 0.151D-03
 Coeff-Com:  0.552D-03 0.881D-03-0.840D-03-0.695D-02-0.504D-02 0.155D-01
 Coeff-Com:  0.234D-01 0.625D-02-0.965D-01-0.200D+00-0.383D-01 0.594D+00
 Coeff-Com:  0.707D+00
 Coeff:      0.330D-05-0.669D-05-0.109D-04-0.131D-04 0.182D-04 0.151D-03
 Coeff:      0.552D-03 0.881D-03-0.840D-03-0.695D-02-0.504D-02 0.155D-01
 Coeff:      0.234D-01 0.625D-02-0.965D-01-0.200D+00-0.383D-01 0.594D+00
 Coeff:      0.707D+00
 Gap=     0.122 Goal=   None    Shift=    0.000
 RMSDP=6.34D-09 MaxDP=4.24D-07 DE= 8.00D-11 OVMax= 3.56D-06

 SCF Done:  E(RCAM-B3LYP) =  -4069.81183654     A.U. after   19 cycles
            NFock= 19  Conv=0.63D-08     -V/T= 2.0102
 KE= 4.028802006302D+03 PE=-3.694272701764D+04 EE= 1.511320233368D+04
 Leave Link  502 at Sun Sep 12 00:34:01 2021, MaxMem= 23488102400 cpu:           11682.2 elap:             510.8
 (Enter /sw/apps/gaussian-16.0/g16/l801.exe)
 DoSCS=F DFT=T ScalE2(SS,OS)=  1.000000  1.000000
 ExpMin= 3.36D-02 ExpMax= 4.95D+03 ExpMxC= 7.45D+02 IAcc=3 IRadAn=         5 AccDes= 0.00D+00
 HarFok:  IExCor=  205 AccDes= 0.00D+00 IRadAn=         5 IDoV=-2 UseB2=F ITyADJ=14
 ICtDFT= 12500011 ScaDFX=  1.000000  1.000000  1.000000  1.000000
 GSVD:  LWork=       -9588 too small for GESVD, short by       45590 words or       45590 for optimal perf.
 Largest valence mixing into a core orbital is  2.03D-04
 Largest core mixing into a valence orbital is  5.24D-05
 Range of M.O.s used for correlation:    95  1572
 NBasis=  1572 NAE=   312 NBE=   312 NFC=    94 NFV=     0
 NROrb=   1478 NOA=   218 NOB=   218 NVA=  1260 NVB=  1260
 Leave Link  801 at Sun Sep 12 00:34:02 2021, MaxMem= 23488102400 cpu:               9.1 elap:               0.4
 (Enter /sw/apps/gaussian-16.0/g16/l914.exe)
 RHF ground state
 Two-electron integrals replicated using symmetry.
 MDV= 23488102400 DFT=T DoStab=F Mixed=T DoRPA=T DoScal=F NonHer=T
 Making orbital integer symmetry assigments:
 Orbital symmetries:
       Occupied  (A) (A) (A) (A) (A) (A) (A) (A) (A) (A) (A) (A)
                 (A) (A) (A) (A) (A) (A) (A) (A) (A) (A) (A) (A)
                 (A) (A) (A) (A) (A) (A) (A) (A) (A) (A) (A) (A)
                 (A) (A) (A) (A) (A) (A) (A) (A) (A) (A) (A) (A)
                 (A) (A) (A) (A) (A) (A) (A) (A) (A) (A) (A) (A)
                 (A) (A) (A) (A) (A) (A) (A) (A) (A) (A) (A) (A)
                 (A) (A) (A) (A) (A) (A) (A) (A) (A) (A) (A) (A)
                 (A) (A) (A) (A) (A) (A) (A) (A) (A) (A) (A) (A)
                 (A) (A) (A) (A) (A) (A) (A) (A) (A) (A) (A) (A)
                 (A) (A) (A) (A) (A) (A) (A) (A) (A) (A) (A) (A)
                 (A) (A) (A) (A) (A) (A) (A) (A) (A) (A) (A) (A)
                 (A) (A) (A) (A) (A) (A) (A) (A) (A) (A) (A) (A)
                 (A) (A) (A) (A) (A) (A) (A) (A) (A) (A) (A) (A)
                 (A) (A) (A) (A) (A) (A) (A) (A) (A) (A) (A) (A)
                 (A) (A) (A) (A) (A) (A) (A) (A) (A) (A) (A) (A)
                 (A) (A) (A) (A) (A) (A) (A) (A) (A) (A) (A) (A)
                 (A) (A) (A) (A) (A) (A) (A) (A) (A) (A) (A) (A)
                 (A) (A) (A) (A) (A) (A) (A) (A) (A) (A) (A) (A)
                 (A) (A) (A) (A) (A) (A) (A) (A) (A) (A) (A) (A)
                 (A) (A) (A) (A) (A) (A) (A) (A) (A) (A) (A) (A)
                 (A) (A) (A) (A) (A) (A) (A) (A) (A) (A) (A) (A)
                 (A) (A) (A) (A) (A) (A) (A) (A) (A) (A) (A) (A)
                 (A) (A) (A) (A) (A) (A) (A) (A) (A) (A) (A) (A)
                 (A) (A) (A) (A) (A) (A) (A) (A) (A) (A) (A) (A)
                 (A) (A) (A) (A) (A) (A) (A) (A) (A) (A) (A) (A)
                 (A) (A) (A) (A) (A) (A) (A) (A) (A) (A) (A) (A)
       Virtual   (A) (A) (A) (A) (A) (A) (A) (A) (A) (A) (A) (A)
                 (A) (A) (A) (A) (A) (A) (A) (A) (A) (A) (A) (A)
                 (A) (A) (A) (A) (A) (A) (A) (A) (A) (A) (A) (A)
                 (A) (A) (A) (A) (A) (A) (A) (A) (A) (A) (A) (A)
                 (A) (A) (A) (A) (A) (A) (A) (A) (A) (A) (A) (A)
                 (A) (A) (A) (A) (A) (A) (A) (A) (A) (A) (A) (A)
                 (A) (A) (A) (A) (A) (A) (A) (A) (A) (A) (A) (A)
                 (A) (A) (A) (A) (A) (A) (A) (A) (A) (A) (A) (A)
                 (A) (A) (A) (A) (A) (A) (A) (A) (A) (A) (A) (A)
                 (A) (A) (A) (A) (A) (A) (A) (A) (A) (A) (A) (A)
                 (A) (A) (A) (A) (A) (A) (A) (A) (A) (A) (A) (A)
                 (A) (A) (A) (A) (A) (A) (A) (A) (A) (A) (A) (A)
                 (A) (A) (A) (A) (A) (A) (A) (A) (A) (A) (A) (A)
                 (A) (A) (A) (A) (A) (A) (A) (A) (A) (A) (A) (A)
                 (A) (A) (A) (A) (A) (A) (A) (A) (A) (A) (A) (A)
                 (A) (A) (A) (A) (A) (A) (A) (A) (A) (A) (A) (A)
                 (A) (A) (A) (A) (A) (A) (A) (A) (A) (A) (A) (A)
                 (A) (A) (A) (A) (A) (A) (A) (A) (A) (A) (A) (A)
                 (A) (A) (A) (A) (A) (A) (A) (A) (A) (A) (A) (A)
                 (A) (A) (A) (A) (A) (A) (A) (A) (A) (A) (A) (A)
                 (A) (A) (A) (A) (A) (A) (A) (A) (A) (A) (A) (A)
                 (A) (A) (A) (A) (A) (A) (A) (A) (A) (A) (A) (A)
                 (A) (A) (A) (A) (A) (A) (A) (A) (A) (A) (A) (A)
                 (A) (A) (A) (A) (A) (A) (A) (A) (A) (A) (A) (A)
                 (A) (A) (A) (A) (A) (A) (A) (A) (A) (A) (A) (A)
                 (A) (A) (A) (A) (A) (A) (A) (A) (A) (A) (A) (A)
                 (A) (A) (A) (A) (A) (A) (A) (A) (A) (A) (A) (A)
                 (A) (A) (A) (A) (A) (A) (A) (A) (A) (A) (A) (A)
                 (A) (A) (A) (A) (A) (A) (A) (A) (A) (A) (A) (A)
                 (A) (A) (A) (A) (A) (A) (A) (A) (A) (A) (A) (A)
                 (A) (A) (A) (A) (A) (A) (A) (A) (A) (A) (A) (A)
                 (A) (A) (A) (A) (A) (A) (A) (A) (A) (A) (A) (A)
                 (A) (A) (A) (A) (A) (A) (A) (A) (A) (A) (A) (A)
                 (A) (A) (A) (A) (A) (A) (A) (A) (A) (A) (A) (A)
                 (A) (A) (A) (A) (A) (A) (A) (A) (A) (A) (A) (A)
                 (A) (A) (A) (A) (A) (A) (A) (A) (A) (A) (A) (A)
                 (A) (A) (A) (A) (A) (A) (A) (A) (A) (A) (A) (A)
                 (A) (A) (A) (A) (A) (A) (A) (A) (A) (A) (A) (A)
                 (A) (A) (A) (A) (A) (A) (A) (A) (A) (A) (A) (A)
                 (A) (A) (A) (A) (A) (A) (A) (A) (A) (A) (A) (A)
                 (A) (A) (A) (A) (A) (A) (A) (A) (A) (A) (A) (A)
                 (A) (A) (A) (A) (A) (A) (A) (A) (A) (A) (A) (A)
                 (A) (A) (A) (A) (A) (A) (A) (A) (A) (A) (A) (A)
                 (A) (A) (A) (A) (A) (A) (A) (A) (A) (A) (A) (A)
                 (A) (A) (A) (A) (A) (A) (A) (A) (A) (A) (A) (A)
                 (A) (A) (A) (A) (A) (A) (A) (A) (A) (A) (A) (A)
                 (A) (A) (A) (A) (A) (A) (A) (A) (A) (A) (A) (A)
                 (A) (A) (A) (A) (A) (A) (A) (A) (A) (A) (A) (A)
                 (A) (A) (A) (A) (A) (A) (A) (A) (A) (A) (A) (A)
                 (A) (A) (A) (A) (A) (A) (A) (A) (A) (A) (A) (A)
                 (A) (A) (A) (A) (A) (A) (A) (A) (A) (A) (A) (A)
                 (A) (A) (A) (A) (A) (A) (A) (A) (A) (A) (A) (A)
                 (A) (A) (A) (A) (A) (A) (A) (A) (A) (A) (A) (A)
                 (A) (A) (A) (A) (A) (A) (A) (A) (A) (A) (A) (A)
                 (A) (A) (A) (A) (A) (A) (A) (A) (A) (A) (A) (A)
                 (A) (A) (A) (A) (A) (A) (A) (A) (A) (A) (A) (A)
                 (A) (A) (A) (A) (A) (A) (A) (A) (A) (A) (A) (A)
                 (A) (A) (A) (A) (A) (A) (A) (A) (A) (A) (A) (A)
                 (A) (A) (A) (A) (A) (A) (A) (A) (A) (A) (A) (A)
                 (A) (A) (A) (A) (A) (A) (A) (A) (A) (A) (A) (A)
                 (A) (A) (A) (A) (A) (A) (A) (A) (A) (A) (A) (A)
                 (A) (A) (A) (A) (A) (A) (A) (A) (A) (A) (A) (A)
                 (A) (A) (A) (A) (A) (A) (A) (A) (A) (A) (A) (A)
                 (A) (A) (A) (A) (A) (A) (A) (A) (A) (A) (A) (A)
                 (A) (A) (A) (A) (A) (A) (A) (A) (A) (A) (A) (A)
                 (A) (A) (A) (A) (A) (A) (A) (A) (A) (A) (A) (A)
                 (A) (A) (A) (A) (A) (A) (A) (A) (A) (A) (A) (A)
                 (A) (A) (A) (A) (A) (A) (A) (A) (A) (A) (A) (A)
                 (A) (A) (A) (A) (A) (A) (A) (A) (A) (A) (A) (A)
                 (A) (A) (A) (A) (A) (A) (A) (A) (A) (A) (A) (A)
                 (A) (A) (A) (A) (A) (A) (A) (A) (A) (A) (A) (A)
                 (A) (A) (A) (A) (A) (A) (A) (A) (A) (A) (A) (A)
                 (A) (A) (A) (A) (A) (A) (A) (A) (A) (A) (A) (A)
                 (A) (A) (A) (A) (A) (A) (A) (A) (A) (A) (A) (A)
                 (A) (A) (A) (A) (A) (A) (A) (A) (A) (A) (A) (A)
                 (A) (A) (A) (A) (A) (A) (A) (A) (A) (A) (A) (A)
                 (A) (A) (A) (A) (A) (A) (A) (A) (A) (A) (A) (A)
                 (A) (A) (A) (A) (A) (A) (A) (A) (A) (A) (A) (A)
                 (A) (A) (A) (A) (A) (A) (A) (A) (A) (A) (A) (A)
                 (A) (A) (A) (A) (A) (A) (A) (A) (A) (A) (A) (A)
                 (A) (A) (A) (A) (A) (A) (A) (A) (A) (A) (A) (A)
                 (A) (A) (A) (A) (A) (A) (A) (A) (A) (A) (A) (A)
                 (A) (A) (A) (A) (A) (A) (A) (A) (A) (A) (A) (A)
                 (A) (A) (A) (A) (A) (A) (A) (A) (A) (A) (A) (A)
                 (A) (A) (A) (A) (A) (A) (A) (A) (A) (A) (A) (A)
                 (A) (A) (A) (A) (A) (A) (A) (A) (A) (A) (A) (A)
                 (A) (A) (A) (A) (A) (A) (A) (A) (A) (A) (A) (A)
                 (A) (A) (A) (A) (A) (A) (A) (A) (A) (A) (A) (A)
                 (A) (A) (A) (A) (A) (A) (A) (A) (A) (A) (A) (A)
                 (A) (A) (A) (A) (A) (A) (A) (A) (A) (A) (A) (A)
                 (A) (A) (A) (A) (A) (A) (A) (A) (A) (A) (A) (A)
                 (A) (A) (A) (A) (A) (A) (A) (A) (A) (A) (A) (A)
                 (A) (A) (A) (A) (A) (A) (A) (A) (A) (A) (A) (A)
                 (A) (A) (A) (A) (A) (A) (A) (A) (A) (A) (A) (A)
                 (A) (A) (A) (A) (A) (A) (A) (A) (A) (A) (A) (A)
                 (A) (A) (A) (A) (A) (A) (A) (A) (A) (A) (A) (A)
                 (A) (A) (A) (A) (A) (A) (A) (A) (A) (A) (A) (A)
                 (A) (A) (A) (A) (A) (A) (A) (A) (A) (A) (A) (A)
                 (A) (A) (A) (A) (A) (A) (A) (A) (A) (A) (A) (A)
                 (A) (A) (A) (A) (A) (A) (A) (A) (A) (A) (A) (A)
                 (A) (A) (A) (A) (A) (A) (A) (A) (A) (A) (A) (A)
                 (A) (A) (A) (A) (A) (A) (A) (A) (A) (A) (A) (A)
                 (A) (A) (A) (A) (A) (A) (A) (A) (A) (A) (A) (A)
                 (A) (A) (A) (A) (A) (A) (A) (A) (A) (A) (A) (A)
                 (A) (A) (A) (A) (A) (A) (A) (A) (A) (A) (A) (A)
    20 initial guesses have been made.
 Convergence on wavefunction:    0.001000000000000
 Davidson Disk Diagonalization:  ConvIn= 1.00D-03 SkipCon=T Conv= 1.00D-03.
 Max sub-space:  2000 roots to seek:    20 dimension of matrix:       549360
 Iteration     1 Dimension    20 NMult     0 NNew     20
 CISAX will form    20 AO SS matrices at one time.
 NMat=    20 NSing=    20 JSym2X= 0.
 FoFJK:  IHMeth= 1 ICntrl=       0 DoSepK=T KAlg= 0 I1Cent=           0 FoldK=F
 IRaf=         1 NMat=      40 IRICut=       1 DoRegI=T DoRafI=F ISym2E= 0 IDoP0=3 IntGTp=3.
 FoFCou: FMM=T IPFlag=           0 FMFlag=      100000 FMFlg1=        2001
         NFxFlg=           0 DoJE=F BraDBF=F KetDBF=F FulRan=T
         wScrn=  0.000000 ICntrl=       500 IOpCl=  0 I1Cent=           0 NGrid=           0
         NMat0=   20 NMatS0=     20 NMatT0=    0 NMatD0=   20 NMtDS0=    0 NMtDT0=    0
 Symmetry not used in FoFCou.
 FMM levels:  10  Number of levels for PrismC:   9
 New state      1 was old state      7
 New state      2 was old state      6
 New state      3 was old state      2
 New state      4 was old state      3
 New state      5 was old state      1
 Excitation Energies [eV] at current iteration:
 Root      1 :     2.614482586095130
 Root      2 :     2.618755286211432
 Root      3 :     2.675293120756800
 Root      4 :     2.695163048092282
 Root      5 :     2.766139626289018
 Root      6 :     2.823634301804695
 Root      7 :     3.557409207667127
 Root      8 :     3.625307769842661
 Root      9 :     3.630742831684344
 Root     10 :     3.668978576974918
 Root     11 :     3.735626252010454
 Root     12 :     3.759065891115390
 Root     13 :     4.297823160335392
 Root     14 :     4.312218922944689
 Root     15 :     4.673434179572426
 Root     16 :     4.758252758532969
 Root     17 :     4.979909013825141
 Root     18 :     5.013558620646326
 Root     19 :     5.050773352359491
 Root     20 :     5.083278068275905
 Iteration     2 Dimension    30 NMult    20 NNew     10
 CISAX will form    10 AO SS matrices at one time.
 NMat=    10 NSing=    10 JSym2X= 0.
 New state      1 was old state      3
 Root      1 not converged, maximum delta is    0.169969153816318
 New state      2 was old state      4
 Root      2 not converged, maximum delta is    0.171988945231337
 New state      3 was old state      2
 Root      3 not converged, maximum delta is    0.339070920847502
 New state      4 was old state      1
 Root      4 not converged, maximum delta is    0.334317302074365
 Root      5 has converged.
 Excitation Energies [eV] at current iteration:
 Root      1 :     1.799029704102206   Change is   -0.876263416654594
 Root      2 :     1.809074177551985   Change is   -0.886088870540297
 Root      3 :     2.235208868915379   Change is   -0.383546417296053
 Root      4 :     2.239595452710305   Change is   -0.374887133384825
 Root      5 :     2.766055833635272   Change is   -0.000083792653746
 Iteration     3 Dimension    38 NMult    30 NNew      8
 CISAX will form     8 AO SS matrices at one time.
 NMat=     8 NSing=     8 JSym2X= 0.
 Root      1 not converged, maximum delta is    0.061063598080727
 Root      2 not converged, maximum delta is    0.062035625928828
 Root      3 not converged, maximum delta is    0.061640864174451
 Root      4 not converged, maximum delta is    0.061366012551819
 Root      5 has converged.
 Excitation Energies [eV] at current iteration:
 Root      1 :     1.691877186601633   Change is   -0.107152517500574
 Root      2 :     1.700678927397321   Change is   -0.108395250154664
 Root      3 :     2.193982465909322   Change is   -0.041226403006057
 Root      4 :     2.200392515510726   Change is   -0.039202937199579
 Root      5 :     2.766055833635153   Change is   -0.000000000000119
 Iteration     4 Dimension    46 NMult    38 NNew      8
 CISAX will form     8 AO SS matrices at one time.
 NMat=     8 NSing=     8 JSym2X= 0.
 Root      1 not converged, maximum delta is    0.011799779076836
 Root      2 not converged, maximum delta is    0.011924717771659
 Root      3 not converged, maximum delta is    0.009741781135592
 Root      4 not converged, maximum delta is    0.009032258489378
 Root      5 has converged.
 Excitation Energies [eV] at current iteration:
 Root      1 :     1.675143422730569   Change is   -0.016733763871063
 Root      2 :     1.683815042086733   Change is   -0.016863885310588
 Root      3 :     2.186713070748165   Change is   -0.007269395161157
 Root      4 :     2.193584071018284   Change is   -0.006808444492443
 Root      5 :     2.766055833635213   Change is    0.000000000000060
 Iteration     5 Dimension    54 NMult    46 NNew      8
 CISAX will form     8 AO SS matrices at one time.
 NMat=     8 NSing=     8 JSym2X= 0.
 Root      1 not converged, maximum delta is    0.001950443359742
 Root      2 not converged, maximum delta is    0.001940439322708
 Root      3 not converged, maximum delta is    0.002486444568897
 Root      4 not converged, maximum delta is    0.002371929786627
 Root      5 has converged.
 Excitation Energies [eV] at current iteration:
 Root      1 :     1.673371331367213   Change is   -0.001772091363356
 Root      2 :     1.682037236971030   Change is   -0.001777805115703
 Root      3 :     2.185870452954302   Change is   -0.000842617793863
 Root      4 :     2.192802365906981   Change is   -0.000781705111303
 Root      5 :     2.766055833635183   Change is   -0.000000000000030
 Iteration     6 Dimension    62 NMult    54 NNew      8
 CISAX will form     8 AO SS matrices at one time.
 NMat=     8 NSing=     8 JSym2X= 0.
 Root      1 not converged, maximum delta is    0.001209223201232
 Root      2 not converged, maximum delta is    0.001223080921574
 Root      3 not converged, maximum delta is    0.001056885336447
 Root      4 not converged, maximum delta is    0.001006593353076
 Root      5 has converged.
 Excitation Energies [eV] at current iteration:
 Root      1 :     1.673118554677886   Change is   -0.000252776689328
 Root      2 :     1.681781817856297   Change is   -0.000255419114734
 Root      3 :     2.185742663570229   Change is   -0.000127789384073
 Root      4 :     2.192683717169841   Change is   -0.000118648737139
 Root      5 :     2.766055833635153   Change is   -0.000000000000030
 Iteration     7 Dimension    70 NMult    62 NNew      8
 CISAX will form     8 AO SS matrices at one time.
 NMat=     8 NSing=     8 JSym2X= 0.
 Root      1 has converged.
 Root      2 has converged.
 Root      3 has converged.
 Root      4 has converged.
 Root      5 has converged.
 Excitation Energies [eV] at current iteration:
 Root      1 :     1.673094139953158   Change is   -0.000024414724728
[...]
 Alpha virt. eigenvalues --    1.84444   1.84549   1.84805   1.84812   1.85090
 Alpha virt. eigenvalues --    1.85143   1.85273   1.85363   1.85477   1.85508
 Alpha virt. eigenvalues --    1.85865   1.85919   1.86354   1.86410   1.86550
 Alpha virt. eigenvalues --    1.86671   1.86778   1.86859   1.87031   1.87055
 Alpha virt. eigenvalues --    1.87443   1.87497   1.87680   1.87784   1.87864
 Alpha virt. eigenvalues --    1.88037   1.88044   1.88196   1.88537   1.88595
 Alpha virt. eigenvalues --    1.88831   1.88958   1.89104   1.89115   1.89624
 Alpha virt. eigenvalues --    1.89680   1.89745   1.89895   1.90119   1.90206
 Alpha virt. eigenvalues --    1.90751   1.90914   1.91349   1.91437   1.91467
 Alpha virt. eigenvalues --    1.91602   1.92154   1.92194   1.92635   1.92673
 Alpha virt. eigenvalues --    1.92979   1.93172   1.93328   1.93533   1.94271
 Alpha virt. eigenvalues --    1.94334   1.94684   1.94845   1.95459   1.95632
 Alpha virt. eigenvalues --    1.95730   1.95823   1.95998   1.96071   1.96141
 Alpha virt. eigenvalues --    1.96181   1.96501   1.96589   1.96899   1.96956
 Alpha virt. eigenvalues --    1.97444   1.97557   1.97813   1.97828   1.98173
 Alpha virt. eigenvalues --    1.98181   1.98351   1.98682   1.99095   1.99138
 Alpha virt. eigenvalues --    1.99830   1.99942   2.00655   2.00744   2.00999
 Alpha virt. eigenvalues --    2.01108   2.01489   2.01537   2.01611   2.01664
 Alpha virt. eigenvalues --    2.01722   2.01831   2.02726   2.02785   2.03178
 Alpha virt. eigenvalues --    2.03228   2.03388   2.03406   2.03489   2.03529
 Alpha virt. eigenvalues --    2.04035   2.04041   2.04956   2.04997   2.05510
 Alpha virt. eigenvalues --    2.05650   2.06076   2.06299   2.06909   2.07031
 Alpha virt. eigenvalues --    2.07183   2.07361   2.08577   2.08578   2.08983
 Alpha virt. eigenvalues --    2.09013   2.09594   2.09621   2.10760   2.11066
 Alpha virt. eigenvalues --    2.11182   2.11420   2.11536   2.11546   2.11730
 Alpha virt. eigenvalues --    2.11878   2.12468   2.12473   2.12803   2.12822
 Alpha virt. eigenvalues --    2.12834   2.12883   2.13635   2.13780   2.14124
 Alpha virt. eigenvalues --    2.14294   2.15333   2.15423   2.15929   2.16096
 Alpha virt. eigenvalues --    2.16515   2.16612   2.16756   2.17180   2.17412
 Alpha virt. eigenvalues --    2.17684   2.17700   2.17946   2.18029   2.18058
 Alpha virt. eigenvalues --    2.18329   2.18673   2.18874   2.19236   2.19643
 Alpha virt. eigenvalues --    2.19824   2.20043   2.20210   2.20250   2.20446
 Alpha virt. eigenvalues --    2.21133   2.21207   2.21666   2.21746   2.21770
 Alpha virt. eigenvalues --    2.21878   2.22677   2.22716   2.23305   2.23361
 Alpha virt. eigenvalues --    2.24388   2.24437   2.24938   2.25029   2.26302
 Alpha virt. eigenvalues --    2.26446   2.26773   2.27021   2.27105   2.27208
 Alpha virt. eigenvalues --    2.28139   2.28324   2.29265   2.29454   2.29737
 Alpha virt. eigenvalues --    2.29887   2.30459   2.30620   2.30817   2.31079
 Alpha virt. eigenvalues --    2.31187   2.31219   2.32111   2.32263   2.33136
 Alpha virt. eigenvalues --    2.33240   2.33456   2.33496   2.34129   2.34162
 Alpha virt. eigenvalues --    2.35294   2.35374   2.35801   2.35916   2.36335
 Alpha virt. eigenvalues --    2.36342   2.36473   2.36623   2.37644   2.37696
 Alpha virt. eigenvalues --    2.38248   2.38398   2.38782   2.38865   2.39609
 Alpha virt. eigenvalues --    2.39675   2.40169   2.40290   2.40489   2.40827
 Alpha virt. eigenvalues --    2.41212   2.41274   2.41673   2.41705   2.42042
 Alpha virt. eigenvalues --    2.42123   2.42849   2.42926   2.43039   2.43540
 Alpha virt. eigenvalues --    2.43984   2.44169   2.44730   2.44813   2.44901
 Alpha virt. eigenvalues --    2.44995   2.45542   2.45577   2.46289   2.46296
 Alpha virt. eigenvalues --    2.46476   2.46499   2.46795   2.46799   2.47245
 Alpha virt. eigenvalues --    2.47387   2.47706   2.47901   2.49298   2.49416
 Alpha virt. eigenvalues --    2.49906   2.50050   2.50463   2.50534   2.51122
 Alpha virt. eigenvalues --    2.51262   2.51614   2.51885   2.52386   2.52442
 Alpha virt. eigenvalues --    2.52809   2.53164   2.53910   2.53981   2.54139
 Alpha virt. eigenvalues --    2.54298   2.54778   2.54812   2.55510   2.55673
 Alpha virt. eigenvalues --    2.57859   2.58085   2.58635   2.58917   2.60208
 Alpha virt. eigenvalues --    2.60287   2.60615   2.60921   2.61703   2.61829
 Alpha virt. eigenvalues --    2.62430   2.62532   2.62951   2.63126   2.63936
 Alpha virt. eigenvalues --    2.64216   2.64222   2.64452   2.65071   2.65104
 Alpha virt. eigenvalues --    2.65790   2.65852   2.66760   2.66825   2.66905
 Alpha virt. eigenvalues --    2.67059   2.67898   2.67984   2.68817   2.68850
 Alpha virt. eigenvalues --    2.69014   2.69022   2.69375   2.69589   2.69988
 Alpha virt. eigenvalues --    2.70137   2.70972   2.71057   2.71880   2.72047
 Alpha virt. eigenvalues --    2.72471   2.72651   2.72715   2.72831   2.73254
 Alpha virt. eigenvalues --    2.73295   2.73436   2.73533   2.74498   2.74503
 Alpha virt. eigenvalues --    2.74970   2.75043   2.76518   2.76578   2.77051
 Alpha virt. eigenvalues --    2.77229   2.77449   2.77597   2.78176   2.78292
 Alpha virt. eigenvalues --    2.78686   2.78724   2.79127   2.79141   2.80255
 Alpha virt. eigenvalues --    2.80337   2.80589   2.80664   2.81111   2.81134
 Alpha virt. eigenvalues --    2.81931   2.81965   2.82328   2.82330   2.83748
 Alpha virt. eigenvalues --    2.83762   2.83837   2.83877   2.84518   2.84535
 Alpha virt. eigenvalues --    2.84867   2.84887   2.85655   2.85683   2.86640
 Alpha virt. eigenvalues --    2.86984   2.87139   2.87608   2.88145   2.88226
 Alpha virt. eigenvalues --    2.88499   2.88601   2.88858   2.88924   2.90492
 Alpha virt. eigenvalues --    2.90644   2.91068   2.91170   2.93154   2.93306
 Alpha virt. eigenvalues --    2.93759   2.94191   2.94539   2.94571   2.95372
 Alpha virt. eigenvalues --    2.95450   2.95793   2.96200   2.96359   2.96425
 Alpha virt. eigenvalues --    2.96835   2.97177   2.97820   2.98024   2.98205
 Alpha virt. eigenvalues --    2.98326   2.98355   2.98556   2.98598   2.98752
 Alpha virt. eigenvalues --    2.98873   2.98908   2.99566   2.99791   2.99981
 Alpha virt. eigenvalues --    3.00031   3.00219   3.00322   3.00460   3.00975
 Alpha virt. eigenvalues --    3.01898   3.01968   3.02030   3.02093   3.02736
 Alpha virt. eigenvalues --    3.02790   3.02979   3.03303   3.03319   3.03689
 Alpha virt. eigenvalues --    3.04039   3.04149   3.04417   3.04444   3.04531
 Alpha virt. eigenvalues --    3.04701   3.05281   3.05351   3.06106   3.06170
 Alpha virt. eigenvalues --    3.06807   3.06930   3.07916   3.08133   3.09363
 Alpha virt. eigenvalues --    3.09400   3.09692   3.10400   3.10442   3.10720
 Alpha virt. eigenvalues --    3.11309   3.11499   3.11900   3.11948   3.12142
 Alpha virt. eigenvalues --    3.12280   3.13284   3.13622   3.13623   3.13681
 Alpha virt. eigenvalues --    3.14096   3.14428   3.15891   3.15985   3.17258
 Alpha virt. eigenvalues --    3.17496   3.17869   3.18062   3.19017   3.19116
 Alpha virt. eigenvalues --    3.22308   3.22555   3.23943   3.24412   3.24673
 Alpha virt. eigenvalues --    3.25159   3.26499   3.26637   3.27375   3.27616
 Alpha virt. eigenvalues --    3.29104   3.29176   3.31358   3.31520   3.33169
 Alpha virt. eigenvalues --    3.33412   3.40206   3.40637   3.42804   3.42807
 Alpha virt. eigenvalues --    3.48657   3.48670   3.50018   3.50265   3.50818
 Alpha virt. eigenvalues --    3.51470   3.56543   3.56989   3.59090   3.59330
 Alpha virt. eigenvalues --    3.62492   3.62834   3.66104   3.66172   3.67191
 Alpha virt. eigenvalues --    3.67493   3.73275   3.73975   3.76059   3.76636
          Condensed to atoms (all electrons):
 Mulliken charges:
               1
     1  Mg   0.838658
     2  C   -0.002928
     3  C   -0.093914
     4  C   -0.046025
     5  C   -0.064011
     6  N   -0.256777
     7  C   -0.052403
     8  C   -0.014047
     9  C   -0.087004
    10  C    0.046294
    11  C    0.104777
    12  C    0.053405
    13  C   -0.071912
    14  H    0.036282
    15  N   -0.433159
    16  C    0.168383
    17  C   -0.177030
    18  C   -0.004076
    19  C    0.148685
    20  C    0.110102
    21  C    0.012129
    22  O   -0.249932
    23  C    0.062519
    24  N   -0.341136
    25  C    0.041249
    26  C   -0.028160
    27  C   -0.023917
    28  C    0.074740
    29  C    0.076184
    30  C    0.035178
    31  C   -0.004444
    32  N   -0.310482
    33  C    0.080368
    34  C   -0.169735
    35  C    0.008405
    36  C    0.082951
    37  C    0.127321
    38  C    0.046122
    39  O   -0.188334
    40  C   -0.005327
    41  C    0.212898
    42  O   -0.257155
    43  O   -0.304748
    44  C    0.157687
    45  H   -0.017418
    46  H   -0.017024
    47  H   -0.041561
    48  H    0.001014
    49  H   -0.003828
    50  H    0.025490
    51  H    0.016409
    52  H    0.016822
    53  H    0.011306
    54  H    0.044050
    55  H    0.017902
    56  H    0.018165
    57  H    0.006084
    58  H    0.026882
    59  H    0.039745
    60  H    0.037544
    61  H    0.035423
    62  H    0.031579
    63  H    0.016220
    64  H    0.009524
    65  H    0.023046
    66  H    0.012689
    67  H    0.004800
    68  H    0.006160
    69  H    0.004811
    70  H    0.008397
    71  H    0.017838
    72  H    0.029152
    73  H    0.047623
    74  H    0.009025
    75  H    0.046076
    76  H    0.035250
    77  H    0.043002
    78  H    0.046517
    79  H    0.053609
    80  Mg   0.837985
    81  C   -0.016948
    82  C   -0.087831
    83  C   -0.045323
    84  C   -0.064620
    85  N   -0.254588
    86  C   -0.049864
    87  C   -0.015100
    88  C   -0.090513
    89  C    0.045836
    90  C    0.114345
    91  C    0.062534
    92  C   -0.077799
    93  H    0.034634
    94  N   -0.423560
    95  C    0.163035
    96  C   -0.174520
    97  C   -0.007668
    98  C    0.152200
    99  C    0.099330
   100  C    0.015623
   101  O   -0.252938
   102  C    0.061199
   103  N   -0.350030
   104  C    0.037751
   105  C   -0.020028
   106  C   -0.034754
   107  C    0.088891
   108  C    0.073354
   109  C    0.034701
   110  C   -0.007651
   111  N   -0.324069
   112  C    0.078403
   113  C   -0.163203
   114  C    0.002070
   115  C    0.096237
   116  C    0.131521
   117  C    0.042209
   118  O   -0.188393
   119  C    0.000968
   120  C    0.211205
   121  O   -0.251037
   122  O   -0.305692
   123  C    0.152095
   124  H   -0.019606
   125  H   -0.015282
   126  H   -0.040483
   127  H   -0.000852
   128  H   -0.004415
   129  H    0.022308
   130  H    0.014799
   131  H    0.016363
   132  H    0.013927
   133  H    0.037580
   134  H    0.020720
   135  H    0.019610
   136  H    0.008730
   137  H    0.026282
   138  H    0.039685
   139  H    0.038298
   140  H    0.036416
   141  H    0.033745
   142  H    0.014302
   143  H    0.012824
   144  H    0.025335
   145  H    0.012210
   146  H    0.006437
   147  H    0.006448
   148  H    0.003498
   149  H    0.010959
   150  H    0.017712
   151  H    0.029961
   152  H    0.045716
   153  H    0.008535
   154  H    0.046796
   155  H    0.034779
   156  H    0.043631
   157  H    0.049517
   158  H    0.053521
 Sum of Mulliken charges =  -0.00000
 Mulliken charges with hydrogens summed into heavy atoms:
               1
     1  Mg   0.838658
     2  C   -0.002928
     3  C   -0.111332
     4  C   -0.063050
     5  C   -0.105572
     6  N   -0.256777
     7  C   -0.052403
     8  C   -0.013033
     9  C   -0.090833
    10  C    0.046294
    11  C    0.163498
    12  C    0.108762
    13  C    0.000438
    15  N   -0.433159
    16  C    0.168383
    17  C   -0.177030
    18  C   -0.004076
    19  C    0.148685
    20  C    0.182812
    21  C    0.012129
    22  O   -0.249932
    23  C    0.167065
    24  N   -0.341136
    25  C    0.041249
    26  C   -0.011940
    27  C   -0.014393
    28  C    0.074740
    29  C    0.116719
    30  C    0.046149
    31  C    0.050944
    32  N   -0.310482
    33  C    0.080368
    34  C   -0.169735
    35  C    0.008405
    36  C    0.082951
    37  C    0.230045
    38  C    0.046122
    39  O   -0.188334
    40  C    0.029922
    41  C    0.212898
    42  O   -0.257155
    43  O   -0.304748
    44  C    0.300815
    80  Mg   0.837985
    81  C   -0.016948
    82  C   -0.107437
    83  C   -0.060605
    84  C   -0.105103
    85  N   -0.254588
    86  C   -0.049864
    87  C   -0.015952
    88  C   -0.094929
    89  C    0.045836
    90  C    0.167815
    91  C    0.114041
    92  C   -0.002835
    94  N   -0.423560
    95  C    0.163035
    96  C   -0.174520
    97  C   -0.007668
    98  C    0.152200
    99  C    0.174027
   100  C    0.015623
   101  O   -0.252938
   102  C    0.169658
   103  N   -0.350030
   104  C    0.037751
   105  C   -0.005726
   106  C   -0.021930
   107  C    0.088891
   108  C    0.117335
   109  C    0.044647
   110  C    0.050981
   111  N   -0.324069
   112  C    0.078403
   113  C   -0.163203
   114  C    0.002070
   115  C    0.096237
   116  C    0.232568
   117  C    0.042209
   118  O   -0.188393
   119  C    0.035747
   120  C    0.211205
   121  O   -0.251037
   122  O   -0.305692
   123  C    0.298764
 Electronic spatial extent (au):  <R**2>=         193719.5222
 Charge=             -0.0000 electrons
 Dipole moment (field-independent basis, Debye):
    X=              3.6254    Y=              4.2978    Z=              1.1532  Tot=              5.7397
 Quadrupole moment (field-independent basis, Debye-Ang):
   XX=           -520.1532   YY=           -524.9414   ZZ=           -473.4269
   XY=             17.8767   XZ=            -59.7815   YZ=             23.2055
 Traceless Quadrupole moment (field-independent basis, Debye-Ang):
   XX=            -13.9794   YY=            -18.7676   ZZ=             32.7469
   XY=             17.8767   XZ=            -59.7815   YZ=             23.2055
 Octapole moment (field-independent basis, Debye-Ang**2):
  XXX=            705.3773  YYY=            226.3780  ZZZ=            196.9427  XYY=           -358.6468
  XXY=            286.2268  XXZ=            141.6398  XZZ=            353.8000  YZZ=            -93.4608
  YYZ=           -308.7535  XYZ=           -332.5363
 Hexadecapole moment (field-independent basis, Debye-Ang**3):
 XXXX=        -201289.8130 YYYY=         -37792.8427 ZZZZ=         -28316.0951 XXXY=            929.7692
 XXXZ=          -4825.6370 YYYX=          -1215.3214 YYYZ=            -26.9440 ZZZX=          -1635.7114
 ZZZY=            810.1797 XXYY=         -39814.3576 XXZZ=         -35630.8980 YYZZ=         -11057.1511
 XXYZ=           1267.9571 YYXZ=           -128.9704 ZZXY=           -140.3222
 N-N= 1.373091084111D+04 E-N=-3.694272701549D+04  KE= 4.028802006302D+03
 Leave Link  601 at Sun Sep 12 00:53:49 2021, MaxMem= 23488102400 cpu:              13.0 elap:               0.7
 (Enter /sw/apps/gaussian-16.0/g16/l9999.exe)
 1\1\GINC-BP1-COMPUTE00091\SP\RCAM-B3LYP TD-FC\def2SVP\C68H72Mg2N8O8\OF
 15641\12-Sep-2021\0\\#p cam-b3lyp/Def2SVP td=(nstates=5)\\TDDFT excite
 d states in gaussian\\0,1\Mg,0,0.,0.,0.\C,0,-0.217,-2.218,2.801\C,0,-1
 .255,2.442,2.026\C,0,-0.245,1.85,-2.564\C,0,0.146,-2.824,-2.037\N,0,-0
 .617,-0.009,2.126\C,0,-0.594,-0.908,3.105\C,0,-0.936,-0.309,4.502\C,0,
 -1.773,0.964,4.032\C,0,-1.155,1.168,2.66\C,0,-3.263,0.685,3.863\C,0,0.
 345,0.11,5.299\C,0,0.124,0.397,6.787\H,0,1.168,0.033,7.733\N,0,-0.185,
 1.961,-0.152\C,0,-0.703,2.8,0.777\C,0,-0.62,4.156,0.193\C,0,-0.187,4.0
 15,-1.225\C,0,-0.214,2.583,-1.38\C,0,-0.887,5.406,0.974\C,0,0.181,5.01
 3,-2.277\O,0,0.303,4.69,-3.508\C,0,0.31,6.414,-1.837\N,0,-0.265,-0.413
 ,-2.029\C,0,-0.279,0.569,-2.937\C,0,-0.196,0.024,-4.332\C,0,0.124,-1.5
 33,-4.18\C,0,0.086,-1.632,-2.635\C,0,-1.451,0.205,-5.197\C,0,1.373,-2.
 07,-4.923\C,0,2.626,-1.49,-4.306\N,0,0.15,-2.144,0.303\C,0,0.173,-3.13
 6,-0.688\C,0,0.173,-4.438,0.004\C,0,0.133,-4.111,1.358\C,0,0.083,-2.69
 5,1.502\C,0,0.149,-5.715,-0.623\C,0,0.096,-4.629,2.716\O,0,0.208,-5.74
 7,3.221\C,0,-0.255,-3.428,3.701\C,0,0.717,-3.482,4.848\O,0,1.931,-3.25
 5,4.669\O,0,0.038,-3.556,6.003\C,0,0.943,-3.583,7.183\H,0,-1.859,3.22,
 2.497\H,0,-0.218,2.453,-3.474\H,0,0.276,-3.747,-2.605\H,0,-1.554,-0.94
 9,5.132\H,0,-1.585,1.831,4.665\H,0,-3.484,-0.377,3.969\H,0,-3.511,1.02
 7,2.858\H,0,-3.852,1.301,4.543\H,0,0.669,1.096,4.966\H,0,1.13,-0.639,5
 .189\H,0,-0.844,0.026,7.125\H,0,0.062,1.477,6.921\H,0,-1.344,5.186,1.9
 38\H,0,-1.651,5.963,0.432\H,0,0.007,6.02,1.084\H,0,-0.635,6.744,-1.405
 \H,0,0.665,6.97,-2.704\H,0,1.048,6.466,-1.036\H,0,0.608,0.501,-4.891\H
 ,0,-0.692,-2.156,-4.547\H,0,-1.267,0.74,-6.129\H,0,-2.204,0.714,-4.596
 \H,0,-1.967,-0.72,-5.453\H,0,1.356,-1.759,-5.967\H,0,1.452,-3.157,-4.9
 02\H,0,2.714,-0.522,-4.798\H,0,3.487,-2.121,-4.529\H,0,2.495,-1.303,-3
 .24\H,0,0.867,-6.333,-0.084\H,0,0.404,-5.642,-1.68\H,0,-0.891,-5.999,-
 0.463\H,0,-1.283,-3.581,4.028\H,0,0.698,-4.478,7.755\H,0,0.833,-2.619,
 7.68\H,0,2.,-3.754,6.976\Mg,0,15.7737,1.42347,1.19128\C,0,15.2143,4.93
 747,1.65813\C,0,15.09825,1.90743,-2.11692\C,0,15.81636,-1.72778,0.8235
 8\C,0,15.27957,1.03078,4.61872\N,0,15.23914,3.23471,0.03979\C,0,15.116
 21,4.52492,0.31291\C,0,14.95441,5.43394,-0.93491\C,0,14.36517,4.34128,
 -1.95363\C,0,14.96275,3.08052,-1.33231\C,0,12.85067,4.22676,-1.90347\C
 ,0,16.32531,6.00796,-1.43806\C,0,16.21171,7.14383,-2.4572\H,0,17.20103
 ,8.21716,-2.41632\N,0,15.98092,0.32449,-0.44819\C,0,15.67923,0.68523,-
 1.71315\C,0,15.99365,-0.48277,-2.55045\C,0,16.35,-1.61823,-1.65687\C,0
 ,16.03589,-1.04458,-0.36368\C,0,16.01617,-0.42635,-4.05036\C,0,16.8732
 2,-2.99718,-1.92317\O,0,16.88627,-3.89978,-1.01324\C,0,17.28302,-3.287
 37,-3.30496\N,0,15.36892,-0.15265,2.48524\C,0,15.5143,-1.42871,2.08716
 \C,0,15.43587,-2.37798,3.25897\C,0,15.44923,-1.45255,4.56319\C,0,15.44
 282,-0.06352,3.88796\C,0,14.21,-3.29029,3.29514\C,0,16.54024,-1.75202,
 5.62747\C,0,17.90735,-1.42469,5.07137\N,0,15.51107,2.73818,2.88558\C,0
 ,15.29395,2.36418,4.22985\C,0,15.05939,3.60605,4.99481\C,0,15.1341,4.6
 2268,4.03077\C,0,15.37662,4.05289,2.75171\C,0,14.77033,3.68386,6.3864\
 C,0,15.05238,6.04745,3.8026\O,0,14.95057,7.03841,4.52465\C,0,14.97492,
 6.30472,2.23601\C,0,15.95725,7.39147,1.89464\O,0,17.17905,7.20535,2.03
 307\O,0,15.31084,8.38625,1.25987\C,0,16.24524,9.48288,0.89093\H,0,14.6
 83,1.90673,-3.12511\H,0,15.93011,-2.81304,0.77105\H,0,15.21517,1.00076
 ,5.7085\H,0,14.25026,6.24857,-0.81525\H,0,14.75041,4.49034,-2.95898\H,
 0,12.42824,4.81714,-1.10401\H,0,12.64,3.17644,-1.75019\H,0,12.42094,4.
 48146,-2.87651\H,0,16.82552,5.25083,-2.05555\H,0,16.93264,6.32309,-0.6
 1195\H,0,15.19705,7.5579,-2.50152\H,0,16.37695,6.73195,-3.45573\H,0,15
 .55092,0.49362,-4.42532\H,0,15.36199,-1.22779,-4.41036\H,0,17.01657,-0
 .57478,-4.46248\H,0,16.43875,-3.1315,-3.97232\H,0,17.71149,-4.29115,-3
 .27801\H,0,18.05434,-2.56709,-3.59971\H,0,16.29788,-3.03326,3.28419\H,
 0,14.50899,-1.53151,5.12847\H,0,14.46721,-4.36574,3.33143\H,0,13.59833
 ,-3.07461,2.42919\H,0,13.52049,-3.10494,4.11698\H,0,16.55068,-2.81756,
 5.86967\H,0,16.39645,-1.21182,6.55726\H,0,18.16386,-2.32323,4.50222\H,
 0,18.61752,-1.25198,5.87751\H,0,17.85452,-0.58973,4.36306\H,0,15.36296
 ,4.49776,6.78245\H,0,14.99293,2.74638,6.89173\H,0,13.69656,3.88649,6.3
 5152\H,0,13.94913,6.59164,2.00147\H,0,15.84365,10.40412,1.32421\H,0,16
 .33421,9.44152,-0.21095\H,0,17.23879,9.46145,1.32319\\Version=ES64L-G1
 6RevA.03\State=1-A\HF=-4069.8118365\RMSD=6.345e-09\PG=C01 [X(C68H72Mg2
 N8O8)]\\@


 ONE BIG VICE IN A MAN IS APT TO KEEP OUT MANY SMALLER ONES.

                           -- BRET HARTE
 Job cpu time:       0 days 11 hours  9 minutes 58.4 seconds.
 Elapsed time:       0 days  0 hours 28 minutes 30.2 seconds.
 File lengths (MBytes):  RWF=  13225 Int=      0 D2E=      0 Chk=    574 Scr=      1
 Normal termination of Gaussian 16 at Sun Sep 12 00:53:50 2021.
