 Entering Gaussian System, Link 0=g16
 Initial command:
 /sw/apps/gaussian-16.0/g16/l1.exe "/tmp/Gau-147476.inp" -scrdir="/tmp/"
 Entering Link 1 = /sw/apps/gaussian-16.0/g16/l1.exe PID=    147477.
  
 Copyright (c) 1988,1990,1992,1993,1995,1998,2003,2009,2016,
            Gaussian, Inc.  All Rights Reserved.
  
 This is part of the Gaussian(R) 16 program.  It is based on
 the Gaussian(R) 09 system (copyright 2009, Gaussian, Inc.),
 the Gaussian(R) 03 system (copyright 2003, Gaussian, Inc.),
 the Gaussian(R) 98 system (copyright 1998, Gaussian, Inc.),
 the Gaussian(R) 94 system (copyright 1995, Gaussian, Inc.),
 the Gaussian 92(TM) system (copyright 1992, Gaussian, Inc.),
 the Gaussian 90(TM) system (copyright 1990, Gaussian, Inc.),
 the Gaussian 88(TM) system (copyright 1988, Gaussian, Inc.),
 the Gaussian 86(TM) system (copyright 1986, Carnegie Mellon
 University), and the Gaussian 82(TM) system (copyright 1983,
 Carnegie Mellon University). Gaussian is a federally registered
 trademark of Gaussian, Inc.
  
 This software contains proprietary and confidential information,
 including trade secrets, belonging to Gaussian, Inc.
  
 This software is provided under written license and may be
 used, copied, transmitted, or stored only in accord with that
 written license.
  
 The following legend is applicable only to US Government
 contracts under FAR:
  
                    RESTRICTED RIGHTS LEGEND
  
 Use, reproduction and disclosure by the US Government is
 subject to restrictions as set forth in subparagraphs (a)
 and (c) of the Commercial Computer Software - Restricted
 Rights clause in FAR 52.227-19.
  
 Gaussian, Inc.
 340 Quinnipiac St., Bldg. 40, Wallingford CT 06492
  
  
 ---------------------------------------------------------------
 Warning -- This program may not be used in any manner that
 competes with the business of Gaussian, Inc. or will provide
 assistance to any competitor of Gaussian, Inc.  The licensee
 of this program is prohibited from giving any competitor of
 Gaussian, Inc. access to this program.  By using this program,
 the user acknowledges that Gaussian, Inc. is engaged in the
 business of creating and licensing software in the field of
 computational chemistry and represents and warrants to the
 licensee that it is not a competitor of Gaussian, Inc. and that
 it will not use this program in any manner prohibited above.
 ---------------------------------------------------------------
  

 Cite this work as:
 Gaussian 16, Revision A.03,
 M. J. Frisch, G. W. Trucks, H. B. Schlegel, G. E. Scuseria, 
 M. A. Robb, J. R. Cheeseman, G. Scalmani, V. Barone, 
 G. A. Petersson, H. Nakatsuji, X. Li, M. Caricato, A. V. Marenich, 
 J. Bloino, B. G. Janesko, R. Gomperts, B. Mennucci, H. P. Hratchian, 
 J. V. Ortiz, A. F. Izmaylov, J. L. Sonnenberg, D. Williams-Young, 
 F. Ding, F. Lipparini, F. Egidi, J. Goings, B. Peng, A. Petrone, 
 T. Henderson, D. Ranasinghe, V. G. Zakrzewski, J. Gao, N. Rega, 
 G. Zheng, W. Liang, M. Hada, M. Ehara, K. Toyota, R. Fukuda, 
 J. Hasegawa, M. Ishida, T. Nakajima, Y. Honda, O. Kitao, H. Nakai, 
 T. Vreven, K. Throssell, J. A. Montgomery, Jr., J. E. Peralta, 
 F. Ogliaro, M. J. Bearpark, J. J. Heyd, E. N. Brothers, K. N. Kudin, 
 V. N. Staroverov, T. A. Keith, R. Kobayashi, J. Normand, 
 K. Raghavachari, A. P. Rendell, J. C. Burant, S. S. Iyengar, 
 J. Tomasi, M. Cossi, J. M. Millam, M. Klene, C. Adamo, R. Cammi, 
 J. W. Ochterski, R. L. Martin, K. Morokuma, O. Farkas, 
 J. B. Foresman, and D. J. Fox, Gaussian, Inc., Wallingford CT, 2016.
 
 ******************************************
 Gaussian 16:  ES64L-G16RevA.03 25-Dec-2016
                 9-Sep-2021 
 ******************************************
 %nproc=24
 Will use up to   24 processors via shared memory.
 %mem=175gb
 -----------------------------------
 #p cam-b3lyp/Def2SVP td=(nstates=5)
 -----------------------------------
 1/38=1,172=1/1;
 2/12=2,17=6,18=5,40=1/2;
 3/5=43,7=101,11=9,25=1,30=1,74=-40/1,2,3,8;
 4//1;
 5/5=2,38=5/2;
 8/6=1,10=1,108=5/1;
 9/41=5,42=1,70=2/14;
 6/7=2,8=2,9=2,10=2/1;
 99/5=1,9=1/99;
 Leave Link    1 at Thu Sep  9 12:59:44 2021, MaxMem= 23488102400 cpu:               0.5 elap:               0.0
 (Enter /sw/apps/gaussian-16.0/g16/l101.exe)
 --------------------------------
 TDDFT excited states in gaussian
 --------------------------------
 Symbolic Z-matrix:
 Charge =  0 Multiplicity = 1
 Mg                    0.        0.        0. 
 C                    -0.217    -2.218     2.801 
 C                    -1.255     2.442     2.026 
 C                    -0.245     1.85     -2.564 
 C                     0.146    -2.824    -2.037 
 N                    -0.617    -0.009     2.126 
 C                    -0.594    -0.908     3.105 
 C                    -0.936    -0.309     4.502 
 C                    -1.773     0.964     4.032 
 C                    -1.155     1.168     2.66 
 C                    -3.263     0.685     3.863 
 C                     0.345     0.11      5.299 
 C                     0.124     0.397     6.787 
 H                     1.168     0.033     7.733 
 N                    -0.185     1.961    -0.152 
 C                    -0.703     2.8       0.777 
 C                    -0.62      4.156     0.193 
 C                    -0.187     4.015    -1.225 
 C                    -0.214     2.583    -1.38 
 C                    -0.887     5.406     0.974 
 C                     0.181     5.013    -2.277 
 O                     0.303     4.69     -3.508 
 C                     0.31      6.414    -1.837 
 N                    -0.265    -0.413    -2.029 
 C                    -0.279     0.569    -2.937 
 C                    -0.196     0.024    -4.332 
 C                     0.124    -1.533    -4.18 
 C                     0.086    -1.632    -2.635 
 C                    -1.451     0.205    -5.197 
 C                     1.373    -2.07     -4.923 
 C                     2.626    -1.49     -4.306 
 N                     0.15     -2.144     0.303 
 C                     0.173    -3.136    -0.688 
 C                     0.173    -4.438     0.004 
 C                     0.133    -4.111     1.358 
 C                     0.083    -2.695     1.502 
 C                     0.149    -5.715    -0.623 
 C                     0.096    -4.629     2.716 
 O                     0.208    -5.747     3.221 
 C                    -0.255    -3.428     3.701 
 C                     0.717    -3.482     4.848 
 O                     1.931    -3.255     4.669 
 O                     0.038    -3.556     6.003 
 C                     0.943    -3.583     7.183 
 H                    -1.859     3.22      2.497 
 H                    -0.218     2.453    -3.474 
 H                     0.276    -3.747    -2.605 
 H                    -1.554    -0.949     5.132 
 H                    -1.585     1.831     4.665 
 H                    -3.484    -0.377     3.969 
 H                    -3.511     1.027     2.858 
 H                    -3.852     1.301     4.543 
 H                     0.669     1.096     4.966 
 H                     1.13     -0.639     5.189 
 H                    -0.844     0.026     7.125 
 H                     0.062     1.477     6.921 
 H                    -1.344     5.186     1.938 
 H                    -1.651     5.963     0.432 
 H                     0.007     6.02      1.084 
 H                    -0.635     6.744    -1.405 
 H                     0.665     6.97     -2.704 
 H                     1.048     6.466    -1.036 
 H                     0.608     0.501    -4.891 
 H                    -0.692    -2.156    -4.547 
 H                    -1.267     0.74     -6.129 
 H                    -2.204     0.714    -4.596 
 H                    -1.967    -0.72     -5.453 
 H                     1.356    -1.759    -5.967 
 H                     1.452    -3.157    -4.902 
 H                     2.714    -0.522    -4.798 
 H                     3.487    -2.121    -4.529 
 H                     2.495    -1.303    -3.24 
 H                     0.867    -6.333    -0.084 
 H                     0.404    -5.642    -1.68 
 H                    -0.891    -5.999    -0.463 
 H                    -1.283    -3.581     4.028 
 H                     0.698    -4.478     7.755 
 H                     0.833    -2.619     7.68 
 H                     2.       -3.754     6.976 
 Mg                    8.93822   0.80724   0.6693 
 C                     11.64437  -1.52544   0.33107 
 C                     11.26227   3.29842   0.50395 
 C                     6.64064   2.86468   1.41463 
 C                     7.02058  -1.81366   1.93393 
 N                     11.13829   0.76582   0.4452 
 C                     12.05119  -0.17658   0.26401 
 C                     13.46656   0.35742  -0.08402 
 C                     13.33679   1.82171   0.56244 
 C                     11.82233   1.99639   0.46991 
 C                     13.73446   1.86979   2.02835 
 C                     13.71315   0.43263  -1.63177 
 C                     15.17169   0.64963  -2.04081 
 H                     15.65758   0.00167  -3.25594 
 N                     8.85521   2.77711   0.44287 
 C                     9.8965    3.63271   0.37255 
 C                     9.30709   4.97261   0.22626 
 C                     7.83165   4.85554   0.38147 
 C                     7.71804   3.4674    0.78177 
 C                     10.12137   6.1871   -0.11347 
 C                     6.7098    5.83474   0.21174 
 O                     5.52509   5.58048   0.62964 
 C                     7.05942   7.1372   -0.37382 
 N                     7.16738   0.61568   1.74158 
 C                     6.32275   1.65365   1.87253 
 C                     4.99666   1.20933   2.44213 
 C                     5.04242  -0.38926   2.44067 
 C                     6.48505  -0.60066   1.93125 
 C                     4.67744   1.70778   3.8514 
 C                     3.88561  -1.12577   1.71128 
 C                     3.96727  -0.86929   0.22369 
 N                     9.18092  -1.32722   0.90005 
 C                     8.26404  -2.23241   1.47801 
 C                     8.92185  -3.55467   1.51442 
 C                     10.19438  -3.32038   0.97193 
 C                     10.32797  -1.94489   0.64076 
 C                     8.3595   -4.74922   2.04633 
 C                     11.45882  -3.92181   0.61395 
 O                     11.89691  -5.07115   0.58528 
 C                     12.49924  -2.76191   0.29999 
 C                     13.1962  -3.0996   -0.98947 
 O                     12.56401  -3.13213  -2.05994 
 O                     14.5254  -3.11434  -0.78118 
 C                     15.26067  -3.43379  -2.03383 
 H                     11.92523   4.14365   0.69096 
 H                     5.77738   3.50997   1.59312 
 H                     6.45387  -2.70134   2.22296 
 H                     14.2828  -0.18297   0.38022 
 H                     13.84438   2.56751  -0.04377 
 H                     13.92668   0.88444   2.42618 
 H                     12.90193   2.33023   2.54404 
 H                     14.58458   2.54401   2.16639 
 H                     13.26931   1.35818  -2.0205 
 H                     13.32628  -0.43949  -2.12204 
 H                     15.86379   0.47361  -1.20836 
 H                     15.31001   1.70553  -2.28567 
 H                     11.19571   5.99498  -0.00264 
 H                     9.9007    6.94321   0.64775 
 H                     9.87926   6.59486  -1.09723 
 H                     7.81406   7.61953   0.24289 
 H                     6.11219   7.66571  -0.49751 
 H                     7.51609   6.96822  -1.3554 
 H                     4.17687   1.53799   1.81521 
 H                     5.00621  -0.79885   3.46085 
 H                     3.72717   2.27134   3.91022 
 H                     5.50312   2.31785   4.19286 
 H                     4.63067   0.9337    4.61548 
 H                     2.92005  -0.73456   2.04114 
 H                     3.87638  -2.19629   1.88706 
 H                     3.47001   0.09894   0.11255 
 H                     3.44409  -1.64739  -0.32848 
 H                     5.00785  -0.74424  -0.09758 
 H                     8.59211  -5.54116   1.3469 
 H                     7.28611  -4.65151   2.19487 
 H                     8.90077  -4.81446   2.99398 
 H                     13.19392  -2.70897   1.13916 
 H                     15.89539  -4.29926  -1.81987 
 H                     15.76928  -2.49678  -2.32893 
 H                     14.68283  -3.79813  -2.87514 
 
 ITRead=  0  0  0  0  0  0  0  0  0  0  0  0  0  0  0  0  0  0  0  0
 ITRead=  0  0  0  0  0  0  0  0  0  0  0  0  0  0  0  0  0  0  0  0
 ITRead=  0  0  0  0  0  0  0  0  0  0  0  0  0  0  0  0  0  0  0  0
 ITRead=  0  0  0  0  0  0  0  0  0  0  0  0  0  0  0  0  0  0  0  0
 ITRead=  0  0  0  0  0  0  0  0  0  0  0  0  0  0  0  0  0  0  0  0
 ITRead=  0  0  0  0  0  0  0  0  0  0  0  0  0  0  0  0  0  0  0  0
 ITRead=  0  0  0  0  0  0  0  0  0  0  0  0  0  0  0  0  0  0  0  0
 ITRead=  0  0  0  0  0  0  0  0  0  0  0  0  0  0  0  0  0  0
 MicOpt= -1 -1 -1 -1 -1 -1 -1 -1 -1 -1 -1 -1 -1 -1 -1 -1 -1 -1 -1 -1
 MicOpt= -1 -1 -1 -1 -1 -1 -1 -1 -1 -1 -1 -1 -1 -1 -1 -1 -1 -1 -1 -1
 MicOpt= -1 -1 -1 -1 -1 -1 -1 -1 -1 -1 -1 -1 -1 -1 -1 -1 -1 -1 -1 -1
 MicOpt= -1 -1 -1 -1 -1 -1 -1 -1 -1 -1 -1 -1 -1 -1 -1 -1 -1 -1 -1 -1
 MicOpt= -1 -1 -1 -1 -1 -1 -1 -1 -1 -1 -1 -1 -1 -1 -1 -1 -1 -1 -1 -1
 MicOpt= -1 -1 -1 -1 -1 -1 -1 -1 -1 -1 -1 -1 -1 -1 -1 -1 -1 -1 -1 -1
 MicOpt= -1 -1 -1 -1 -1 -1 -1 -1 -1 -1 -1 -1 -1 -1 -1 -1 -1 -1 -1 -1
 MicOpt= -1 -1 -1 -1 -1 -1 -1 -1 -1 -1 -1 -1 -1 -1 -1 -1 -1 -1
 NAtoms=    158 NQM=      158 NQMF=       0 NMMI=      0 NMMIF=      0
                NMic=       0 NMicF=      0.
                    Isotopes and Nuclear Properties:
 (Nuclear quadrupole moments (NQMom) in fm**2, nuclear magnetic moments (NMagM)
  in nuclear magnetons)

  Atom         1           2           3           4           5           6           7           8           9          10
 IAtWgt=          24          12          12          12          12          14          12          12          12          12
 AtmWgt=  23.9850450  12.0000000  12.0000000  12.0000000  12.0000000  14.0030740  12.0000000  12.0000000  12.0000000  12.0000000
 NucSpn=           0           0           0           0           0           2           0           0           0           0
 AtZEff=  -0.0000000  -0.0000000  -0.0000000  -0.0000000  -0.0000000  -0.0000000  -0.0000000  -0.0000000  -0.0000000  -0.0000000
 NQMom=    0.0000000   0.0000000   0.0000000   0.0000000   0.0000000   2.0440000   0.0000000   0.0000000   0.0000000   0.0000000
 NMagM=    0.0000000   0.0000000   0.0000000   0.0000000   0.0000000   0.4037610   0.0000000   0.0000000   0.0000000   0.0000000
 AtZNuc=  12.0000000   6.0000000   6.0000000   6.0000000   6.0000000   7.0000000   6.0000000   6.0000000   6.0000000   6.0000000

  Atom        11          12          13          14          15          16          17          18          19          20
 IAtWgt=          12          12          12           1          14          12          12          12          12          12
 AtmWgt=  12.0000000  12.0000000  12.0000000   1.0078250  14.0030740  12.0000000  12.0000000  12.0000000  12.0000000  12.0000000
 NucSpn=           0           0           0           1           2           0           0           0           0           0
 AtZEff=  -0.0000000  -0.0000000  -0.0000000  -0.0000000  -0.0000000  -0.0000000  -0.0000000  -0.0000000  -0.0000000  -0.0000000
 NQMom=    0.0000000   0.0000000   0.0000000   0.0000000   2.0440000   0.0000000   0.0000000   0.0000000   0.0000000   0.0000000
 NMagM=    0.0000000   0.0000000   0.0000000   2.7928460   0.4037610   0.0000000   0.0000000   0.0000000   0.0000000   0.0000000
 AtZNuc=   6.0000000   6.0000000   6.0000000   1.0000000   7.0000000   6.0000000   6.0000000   6.0000000   6.0000000   6.0000000

  Atom        21          22          23          24          25          26          27          28          29          30
 IAtWgt=          12          16          12          14          12          12          12          12          12          12
 AtmWgt=  12.0000000  15.9949146  12.0000000  14.0030740  12.0000000  12.0000000  12.0000000  12.0000000  12.0000000  12.0000000
 NucSpn=           0           0           0           2           0           0           0           0           0           0
 AtZEff=  -0.0000000  -0.0000000  -0.0000000  -0.0000000  -0.0000000  -0.0000000  -0.0000000  -0.0000000  -0.0000000  -0.0000000
 NQMom=    0.0000000   0.0000000   0.0000000   2.0440000   0.0000000   0.0000000   0.0000000   0.0000000   0.0000000   0.0000000
 NMagM=    0.0000000   0.0000000   0.0000000   0.4037610   0.0000000   0.0000000   0.0000000   0.0000000   0.0000000   0.0000000
 AtZNuc=   6.0000000   8.0000000   6.0000000   7.0000000   6.0000000   6.0000000   6.0000000   6.0000000   6.0000000   6.0000000

  Atom        31          32          33          34          35          36          37          38          39          40
 IAtWgt=          12          14          12          12          12          12          12          12          16          12
 AtmWgt=  12.0000000  14.0030740  12.0000000  12.0000000  12.0000000  12.0000000  12.0000000  12.0000000  15.9949146  12.0000000
 NucSpn=           0           2           0           0           0           0           0           0           0           0
 AtZEff=  -0.0000000  -0.0000000  -0.0000000  -0.0000000  -0.0000000  -0.0000000  -0.0000000  -0.0000000  -0.0000000  -0.0000000
 NQMom=    0.0000000   2.0440000   0.0000000   0.0000000   0.0000000   0.0000000   0.0000000   0.0000000   0.0000000   0.0000000
 NMagM=    0.0000000   0.4037610   0.0000000   0.0000000   0.0000000   0.0000000   0.0000000   0.0000000   0.0000000   0.0000000
 AtZNuc=   6.0000000   7.0000000   6.0000000   6.0000000   6.0000000   6.0000000   6.0000000   6.0000000   8.0000000   6.0000000

  Atom        41          42          43          44          45          46          47          48          49          50
 IAtWgt=          12          16          16          12           1           1           1           1           1           1
 AtmWgt=  12.0000000  15.9949146  15.9949146  12.0000000   1.0078250   1.0078250   1.0078250   1.0078250   1.0078250   1.0078250
 NucSpn=           0           0           0           0           1           1           1           1           1           1
 AtZEff=  -0.0000000  -0.0000000  -0.0000000  -0.0000000  -0.0000000  -0.0000000  -0.0000000  -0.0000000  -0.0000000  -0.0000000
 NQMom=    0.0000000   0.0000000   0.0000000   0.0000000   0.0000000   0.0000000   0.0000000   0.0000000   0.0000000   0.0000000
 NMagM=    0.0000000   0.0000000   0.0000000   0.0000000   2.7928460   2.7928460   2.7928460   2.7928460   2.7928460   2.7928460
 AtZNuc=   6.0000000   8.0000000   8.0000000   6.0000000   1.0000000   1.0000000   1.0000000   1.0000000   1.0000000   1.0000000

  Atom        51          52          53          54          55          56          57          58          59          60
 IAtWgt=           1           1           1           1           1           1           1           1           1           1
 AtmWgt=   1.0078250   1.0078250   1.0078250   1.0078250   1.0078250   1.0078250   1.0078250   1.0078250   1.0078250   1.0078250
 NucSpn=           1           1           1           1           1           1           1           1           1           1
 AtZEff=  -0.0000000  -0.0000000  -0.0000000  -0.0000000  -0.0000000  -0.0000000  -0.0000000  -0.0000000  -0.0000000  -0.0000000
 NQMom=    0.0000000   0.0000000   0.0000000   0.0000000   0.0000000   0.0000000   0.0000000   0.0000000   0.0000000   0.0000000
 NMagM=    2.7928460   2.7928460   2.7928460   2.7928460   2.7928460   2.7928460   2.7928460   2.7928460   2.7928460   2.7928460
 AtZNuc=   1.0000000   1.0000000   1.0000000   1.0000000   1.0000000   1.0000000   1.0000000   1.0000000   1.0000000   1.0000000

  Atom        61          62          63          64          65          66          67          68          69          70
 IAtWgt=           1           1           1           1           1           1           1           1           1           1
 AtmWgt=   1.0078250   1.0078250   1.0078250   1.0078250   1.0078250   1.0078250   1.0078250   1.0078250   1.0078250   1.0078250
 NucSpn=           1           1           1           1           1           1           1           1           1           1
 AtZEff=  -0.0000000  -0.0000000  -0.0000000  -0.0000000  -0.0000000  -0.0000000  -0.0000000  -0.0000000  -0.0000000  -0.0000000
 NQMom=    0.0000000   0.0000000   0.0000000   0.0000000   0.0000000   0.0000000   0.0000000   0.0000000   0.0000000   0.0000000
 NMagM=    2.7928460   2.7928460   2.7928460   2.7928460   2.7928460   2.7928460   2.7928460   2.7928460   2.7928460   2.7928460
 AtZNuc=   1.0000000   1.0000000   1.0000000   1.0000000   1.0000000   1.0000000   1.0000000   1.0000000   1.0000000   1.0000000

  Atom        71          72          73          74          75          76          77          78          79          80
 IAtWgt=           1           1           1           1           1           1           1           1           1          24
 AtmWgt=   1.0078250   1.0078250   1.0078250   1.0078250   1.0078250   1.0078250   1.0078250   1.0078250   1.0078250  23.9850450
 NucSpn=           1           1           1           1           1           1           1           1           1           0
 AtZEff=  -0.0000000  -0.0000000  -0.0000000  -0.0000000  -0.0000000  -0.0000000  -0.0000000  -0.0000000  -0.0000000  -0.0000000
 NQMom=    0.0000000   0.0000000   0.0000000   0.0000000   0.0000000   0.0000000   0.0000000   0.0000000   0.0000000   0.0000000
 NMagM=    2.7928460   2.7928460   2.7928460   2.7928460   2.7928460   2.7928460   2.7928460   2.7928460   2.7928460   0.0000000
 AtZNuc=   1.0000000   1.0000000   1.0000000   1.0000000   1.0000000   1.0000000   1.0000000   1.0000000   1.0000000  12.0000000

  Atom        81          82          83          84          85          86          87          88          89          90
 IAtWgt=          12          12          12          12          14          12          12          12          12          12
 AtmWgt=  12.0000000  12.0000000  12.0000000  12.0000000  14.0030740  12.0000000  12.0000000  12.0000000  12.0000000  12.0000000
 NucSpn=           0           0           0           0           2           0           0           0           0           0
 AtZEff=  -0.0000000  -0.0000000  -0.0000000  -0.0000000  -0.0000000  -0.0000000  -0.0000000  -0.0000000  -0.0000000  -0.0000000
 NQMom=    0.0000000   0.0000000   0.0000000   0.0000000   2.0440000   0.0000000   0.0000000   0.0000000   0.0000000   0.0000000
 NMagM=    0.0000000   0.0000000   0.0000000   0.0000000   0.4037610   0.0000000   0.0000000   0.0000000   0.0000000   0.0000000
 AtZNuc=   6.0000000   6.0000000   6.0000000   6.0000000   7.0000000   6.0000000   6.0000000   6.0000000   6.0000000   6.0000000

  Atom        91          92          93          94          95          96          97          98          99         100
 IAtWgt=          12          12           1          14          12          12          12          12          12          12
 AtmWgt=  12.0000000  12.0000000   1.0078250  14.0030740  12.0000000  12.0000000  12.0000000  12.0000000  12.0000000  12.0000000
 NucSpn=           0           0           1           2           0           0           0           0           0           0
 AtZEff=  -0.0000000  -0.0000000  -0.0000000  -0.0000000  -0.0000000  -0.0000000  -0.0000000  -0.0000000  -0.0000000  -0.0000000
 NQMom=    0.0000000   0.0000000   0.0000000   2.0440000   0.0000000   0.0000000   0.0000000   0.0000000   0.0000000   0.0000000
 NMagM=    0.0000000   0.0000000   2.7928460   0.4037610   0.0000000   0.0000000   0.0000000   0.0000000   0.0000000   0.0000000
 AtZNuc=   6.0000000   6.0000000   1.0000000   7.0000000   6.0000000   6.0000000   6.0000000   6.0000000   6.0000000   6.0000000

  Atom       101         102         103         104         105         106         107         108         109         110
 IAtWgt=          16          12          14          12          12          12          12          12          12          12
 AtmWgt=  15.9949146  12.0000000  14.0030740  12.0000000  12.0000000  12.0000000  12.0000000  12.0000000  12.0000000  12.0000000
 NucSpn=           0           0           2           0           0           0           0           0           0           0
 AtZEff=  -0.0000000  -0.0000000  -0.0000000  -0.0000000  -0.0000000  -0.0000000  -0.0000000  -0.0000000  -0.0000000  -0.0000000
 NQMom=    0.0000000   0.0000000   2.0440000   0.0000000   0.0000000   0.0000000   0.0000000   0.0000000   0.0000000   0.0000000
 NMagM=    0.0000000   0.0000000   0.4037610   0.0000000   0.0000000   0.0000000   0.0000000   0.0000000   0.0000000   0.0000000
 AtZNuc=   8.0000000   6.0000000   7.0000000   6.0000000   6.0000000   6.0000000   6.0000000   6.0000000   6.0000000   6.0000000

  Atom       111         112         113         114         115         116         117         118         119         120
 IAtWgt=          14          12          12          12          12          12          12          16          12          12
 AtmWgt=  14.0030740  12.0000000  12.0000000  12.0000000  12.0000000  12.0000000  12.0000000  15.9949146  12.0000000  12.0000000
 NucSpn=           2           0           0           0           0           0           0           0           0           0
 AtZEff=  -0.0000000  -0.0000000  -0.0000000  -0.0000000  -0.0000000  -0.0000000  -0.0000000  -0.0000000  -0.0000000  -0.0000000
 NQMom=    2.0440000   0.0000000   0.0000000   0.0000000   0.0000000   0.0000000   0.0000000   0.0000000   0.0000000   0.0000000
 NMagM=    0.4037610   0.0000000   0.0000000   0.0000000   0.0000000   0.0000000   0.0000000   0.0000000   0.0000000   0.0000000
 AtZNuc=   7.0000000   6.0000000   6.0000000   6.0000000   6.0000000   6.0000000   6.0000000   8.0000000   6.0000000   6.0000000

  Atom       121         122         123         124         125         126         127         128         129         130
 IAtWgt=          16          16          12           1           1           1           1           1           1           1
 AtmWgt=  15.9949146  15.9949146  12.0000000   1.0078250   1.0078250   1.0078250   1.0078250   1.0078250   1.0078250   1.0078250
 NucSpn=           0           0           0           1           1           1           1           1           1           1
 AtZEff=  -0.0000000  -0.0000000  -0.0000000  -0.0000000  -0.0000000  -0.0000000  -0.0000000  -0.0000000  -0.0000000  -0.0000000
 NQMom=    0.0000000   0.0000000   0.0000000   0.0000000   0.0000000   0.0000000   0.0000000   0.0000000   0.0000000   0.0000000
 NMagM=    0.0000000   0.0000000   0.0000000   2.7928460   2.7928460   2.7928460   2.7928460   2.7928460   2.7928460   2.7928460
 AtZNuc=   8.0000000   8.0000000   6.0000000   1.0000000   1.0000000   1.0000000   1.0000000   1.0000000   1.0000000   1.0000000

  Atom       131         132         133         134         135         136         137         138         139         140
 IAtWgt=           1           1           1           1           1           1           1           1           1           1
 AtmWgt=   1.0078250   1.0078250   1.0078250   1.0078250   1.0078250   1.0078250   1.0078250   1.0078250   1.0078250   1.0078250
 NucSpn=           1           1           1           1           1           1           1           1           1           1
 AtZEff=  -0.0000000  -0.0000000  -0.0000000  -0.0000000  -0.0000000  -0.0000000  -0.0000000  -0.0000000  -0.0000000  -0.0000000
 NQMom=    0.0000000   0.0000000   0.0000000   0.0000000   0.0000000   0.0000000   0.0000000   0.0000000   0.0000000   0.0000000
 NMagM=    2.7928460   2.7928460   2.7928460   2.7928460   2.7928460   2.7928460   2.7928460   2.7928460   2.7928460   2.7928460
 AtZNuc=   1.0000000   1.0000000   1.0000000   1.0000000   1.0000000   1.0000000   1.0000000   1.0000000   1.0000000   1.0000000

  Atom       141         142         143         144         145         146         147         148         149         150
 IAtWgt=           1           1           1           1           1           1           1           1           1           1
 AtmWgt=   1.0078250   1.0078250   1.0078250   1.0078250   1.0078250   1.0078250   1.0078250   1.0078250   1.0078250   1.0078250
 NucSpn=           1           1           1           1           1           1           1           1           1           1
 AtZEff=  -0.0000000  -0.0000000  -0.0000000  -0.0000000  -0.0000000  -0.0000000  -0.0000000  -0.0000000  -0.0000000  -0.0000000
 NQMom=    0.0000000   0.0000000   0.0000000   0.0000000   0.0000000   0.0000000   0.0000000   0.0000000   0.0000000   0.0000000
 NMagM=    2.7928460   2.7928460   2.7928460   2.7928460   2.7928460   2.7928460   2.7928460   2.7928460   2.7928460   2.7928460
 AtZNuc=   1.0000000   1.0000000   1.0000000   1.0000000   1.0000000   1.0000000   1.0000000   1.0000000   1.0000000   1.0000000

  Atom       151         152         153         154         155         156         157         158
 IAtWgt=           1           1           1           1           1           1           1           1
 AtmWgt=   1.0078250   1.0078250   1.0078250   1.0078250   1.0078250   1.0078250   1.0078250   1.0078250
 NucSpn=           1           1           1           1           1           1           1           1
 AtZEff=  -0.0000000  -0.0000000  -0.0000000  -0.0000000  -0.0000000  -0.0000000  -0.0000000  -0.0000000
 NQMom=    0.0000000   0.0000000   0.0000000   0.0000000   0.0000000   0.0000000   0.0000000   0.0000000
 NMagM=    2.7928460   2.7928460   2.7928460   2.7928460   2.7928460   2.7928460   2.7928460   2.7928460
 AtZNuc=   1.0000000   1.0000000   1.0000000   1.0000000   1.0000000   1.0000000   1.0000000   1.0000000
 Leave Link  101 at Thu Sep  9 12:59:44 2021, MaxMem= 23488102400 cpu:               3.6 elap:               0.2
 (Enter /sw/apps/gaussian-16.0/g16/l202.exe)
 Stoichiometry    C68H72Mg2N8O8
 Framework group  C1[X(C68H72Mg2N8O8)]
 Deg. of freedom   468
 Full point group                 C1      NOp   1
 Largest Abelian subgroup         C1      NOp   1
 Largest concise Abelian subgroup C1      NOp   1
                         Standard orientation:                         
 ---------------------------------------------------------------------
 Center     Atomic      Atomic             Coordinates (Angstroms)
 Number     Number       Type             X           Y           Z
 ---------------------------------------------------------------------
      1         12           0        4.683503    0.347642    0.966240
      2          6           0        5.136552   -2.664686   -0.913346
      3          6           0        6.095056    2.018033   -1.652992
      4          6           0        4.711377    2.948235    2.780835
      5          6           0        4.377243   -1.646332    3.808058
      6          7           0        5.473805   -0.345878   -0.981862
      7          6           0        5.533965   -1.518429   -1.605301
      8          6           0        5.988498   -1.405478   -3.091240
      9          6           0        6.780586   -0.024301   -3.007895
     10          6           0        6.050986    0.603635   -1.833458
     11          6           0        8.252281   -0.187091   -2.641675
     12          6           0        4.776537   -1.312194   -4.078244
     13          6           0        5.118795   -1.527241   -5.555393
     14          1           0        4.157336   -2.214715   -6.404112
     15          7           0        4.850274    2.253075    0.471912
     16          6           0        5.440980    2.752494   -0.640263
     17          6           0        5.306588    4.222232   -0.548124
     18          6           0        4.758451    4.545502    0.798404
     19          6           0        4.776266    3.246925    1.421909
     20          6           0        5.633881    5.150790   -1.677021
     21          6           0        4.302348    5.823920    1.427490
     22          8           0        4.080046    5.922931    2.682620
     23          6           0        4.206472    6.995917    0.538516
     24          7           0        4.781281    0.637345    3.031221
     25          6           0        4.717795    1.864421    3.559649
     26          6           0        4.521404    1.809467    5.045701
     27          6           0        4.219051    0.281061    5.395429
     28          6           0        4.384632   -0.322382    3.978845
     29          6           0        5.700297    2.303829    5.895306
     30          6           0        2.914404   -0.016859    6.176171
     31          6           0        1.715082    0.288673    5.307048
     32          7           0        4.564541   -1.779316    1.382105
     33          6           0        4.462426   -2.387765    2.641484
     34          6           0        4.522871   -3.844780    2.423492
     35          6           0        4.673589   -3.983162    1.045094
     36          6           0        4.731645   -2.693740    0.443171
     37          6           0        4.498359   -4.841078    3.438984
     38          6           0        4.823827   -4.919963   -0.056581
     39          8           0        4.756753   -6.144897   -0.168527
     40          6           0        5.251789   -4.102615   -1.354509
     41          6           0        4.377866   -4.562054   -2.489623
     42          8           0        3.152656   -4.324935   -2.490187
     43          8           0        5.150022   -4.993755   -3.498559
     44          6           0        4.345524   -5.436648   -4.668509
     45          1           0        6.733844    2.614022   -2.307735
     46          1           0        4.607844    3.817276    3.433895
     47          1           0        4.203210   -2.332851    4.638635
     48          1           0        6.658013   -2.199143   -3.423309
     49          1           0        6.643211    0.578406   -3.905444
     50          1           0        8.484011   -1.217253   -2.371513
     51          1           0        8.415645    0.475410   -1.791441
     52          1           0        8.893779    0.186499   -3.440229
     53          1           0        4.423628   -0.281679   -4.117691
     54          1           0        3.987073   -2.005674   -3.786426
     55          1           0        6.112332   -1.960129   -5.675393
     56          1           0        5.188852   -0.551068   -6.035371
     57          1           0        6.169415    4.637956   -2.474988
     58          1           0        6.349126    5.878278   -1.293751
     59          1           0        4.750422    5.666853   -2.053201
     60          1           0        5.183034    7.192426    0.095504
     61          1           0        3.779726    7.796615    1.141524
     62          1           0        3.536934    6.757919   -0.288543
     63          1           0        3.672802    2.420350    5.350862
     64          1           0        5.003598   -0.160783    6.010192
     65          1           0        5.438659    3.111328    6.579555
     66          1           0        6.498994    2.607527    5.219184
     67          1           0        6.195804    1.531461    6.482961
     68          1           0        2.844419    0.622416    7.055589
     69          1           0        2.840210   -1.051426    6.511457
     70          1           0        1.584298    1.361859    5.441212
     71          1           0        0.840251   -0.258387    5.660044
     72          1           0        1.933093    0.116250    4.252900
     73          1           0        3.828867   -5.623737    3.082338
     74          1           0        4.156843   -4.430098    4.388755
     75          1           0        5.548742   -5.130864    3.462954
     76          1           0        6.303652   -4.324455   -1.531972
     77          1           0        4.639184   -6.462766   -4.890047
     78          1           0        4.493662   -4.688562   -5.447500
     79          1           0        3.275495   -5.560976   -4.498451
     80         12           0       -4.171090    0.620952   -0.618964
     81          6           0       -6.889892   -1.548055    0.265667
     82          6           0       -6.507277    2.956025   -1.469956
     83          6           0       -1.825170    2.383464   -1.826299
     84          6           0       -2.148906   -2.212319   -0.789545
     85          7           0       -6.382034    0.590404   -0.563844
     86          6           0       -7.304336   -0.265752   -0.150698
     87          6           0       -8.744965    0.310852   -0.109846
     88          6           0       -8.566085    1.481950   -1.194017
     89          6           0       -7.064876    1.722502   -1.048516
     90          6           0       -8.841592    1.030407   -2.618640
     91          6           0       -9.118589    0.886543    1.301174
     92          6           0      -10.606456    1.183050    1.501365
     93          1           0      -11.189259    0.959451    2.821527
     94          7           0       -4.112124    2.556336   -1.054118
     95          6           0       -5.157869    3.355546   -1.352381
     96          6           0       -4.585995    4.685330   -1.614622
     97          6           0       -3.102483    4.567567   -1.608093
     98          6           0       -2.952657    3.129209   -1.514510
     99          6           0       -5.428655    5.918959   -1.761378
    100          6           0       -2.000988    5.580777   -1.687499
    101          8           0       -0.785190    5.238026   -1.904714
    102          6           0       -2.401081    6.992578   -1.596625
    103          7           0       -2.317340    0.138307   -1.427060
    104          6           0       -1.467467    1.099192   -1.829980
    105          6           0       -0.097766    0.531200   -2.115784
    106          6           0       -0.139366   -0.977478   -1.586874
    107          6           0       -1.618554   -1.051352   -1.148778
    108          6           0        0.335337    0.544573   -3.581608
    109          6           0        0.955226   -1.396314   -0.567505
    110          6           0        0.750464   -0.664633    0.739434
    111          7           0       -4.388420   -1.475868   -0.145482
    112          6           0       -3.424655   -2.493527   -0.317532
    113          6           0       -4.073806   -3.772357    0.036879
    114          6           0       -5.387351   -3.409838    0.371092
    115          6           0       -5.551354   -2.006881    0.215187
    116          6           0       -3.466413   -5.058281   -0.023038
    117          6           0       -6.675457   -3.896382    0.810107
    118          8           0       -7.111453   -4.984026    1.185162
    119          6           0       -7.741220   -2.729515    0.639858
    120          6           0       -8.541305   -2.642168    1.910578
    121          8           0       -7.999496   -2.299803    2.976345
    122          8           0       -9.848749   -2.764639    1.617379
    123          6           0      -10.684023   -2.673410    2.844488
    124          1           0       -7.154728    3.671596   -1.977566
    125          1           0       -0.951796    2.958798   -2.142027
    126          1           0       -1.557997   -3.128310   -0.722748
    127          1           0       -9.518728   -0.376799   -0.429555
    128          1           0       -9.123876    2.370829   -0.910962
    129          1           0       -8.997795   -0.036344   -2.680079
    130          1           0       -7.970548    1.318902   -3.192313
    131          1           0       -9.679163    1.595301   -3.037807
    132          1           0       -8.710719    1.901385    1.393288
    133          1           0       -8.771234    0.237714    2.081553
    134          1           0      -11.227068    0.720947    0.724023
    135          1           0      -10.767228    2.255870    1.370129
    136          1           0       -6.489691    5.669033   -1.884418
    137          1           0       -5.147892    6.386841   -2.711174
    138          1           0       -5.269578    6.636282   -0.953410
    139          1           0       -3.103515    7.220950   -2.394677
    140          1           0       -1.468650    7.560253   -1.583027
    141          1           0       -2.936732    7.144352   -0.652886
    142          1           0        0.666662    1.073079   -1.572535
    143          1           0       -0.018064   -1.700275   -2.407052
    144          1           0        1.285764    1.085010   -3.750991
    145          1           0       -0.460931    0.982383   -4.168811
    146          1           0        0.446977   -0.436961   -4.039138
    147          1           0        1.943694   -1.107662   -0.933251
    148          1           0        0.981687   -2.463917   -0.376407
    149          1           0        1.234361    0.300212    0.560529
    150          1           0        1.228315   -1.200235    1.557259
    151          1           0       -0.313391   -0.471427    0.919827
    152          1           0       -3.753886   -5.580758    0.879655
    153          1           0       -2.384684   -4.983249   -0.112531
    154          1           0       -3.927492   -5.449513   -0.933869
    155          1           0       -8.364439   -2.977963   -0.220061
    156          1           0      -11.296695   -3.579452    2.882020
    157          1           0      -11.217659   -1.707150    2.771481
    158          1           0      -10.176619   -2.721453    3.800876
 ---------------------------------------------------------------------
 Rotational constants (GHZ):           0.0261995           0.0121897           0.0107900
 Leave Link  202 at Thu Sep  9 12:59:44 2021, MaxMem= 23488102400 cpu:               0.2 elap:               0.0
 (Enter /sw/apps/gaussian-16.0/g16/l301.exe)
 Standard basis: def2SVP (5D, 7F)
 Ernie: Thresh=  0.10000D-02 Tol=  0.10000D-05 Strict=F.
 There are  1658 symmetry adapted cartesian basis functions of A   symmetry.
 There are  1572 symmetry adapted basis functions of A   symmetry.
  1572 basis functions,  2678 primitive gaussians,  1658 cartesian basis functions
   312 alpha electrons      312 beta electrons
       nuclear repulsion energy     15634.4573009430 Hartrees.
 IExCor=20419 DFT=T Ex+Corr=CAM-B3LYP ExCW=0 ScaHFX=  1.000000
 ScaDFX=  1.000000  1.000000  1.000000  0.810000 ScalE2=  1.000000  1.000000
 IRadAn=      5 IRanWt=     -1 IRanGd=            0 ICorTp=0 IEmpDi=  4
 HFx  wShort=  0.000000 wLong=  0.330000 cFull=  0.190000 cShort=  0.000000 cLong=  0.460000
 DFx  wShort=  0.000000 wLong=  0.330000 cFull=  0.190000 cShort=  0.000000 cLong=  0.460000
 NAtoms=  158 NActive=  158 NUniq=  158 SFac= 1.00D+00 NAtFMM=   60 NAOKFM=T Big=T
 Integral buffers will be    131072 words long.
 Raffenetti 1 integral format.
 Two-electron integral symmetry is turned on.
 Leave Link  301 at Thu Sep  9 12:59:44 2021, MaxMem= 23488102400 cpu:               1.3 elap:               0.1
 (Enter /sw/apps/gaussian-16.0/g16/l302.exe)
 NPDir=0 NMtPBC=     1 NCelOv=     1 NCel=       1 NClECP=     1 NCelD=      1
         NCelK=      1 NCelE2=     1 NClLst=     1 CellRange=     0.0.
 One-electron integrals computed using PRISM.
 One-electron integral symmetry used in STVInt
   1 Symmetry operations used in ECPInt.
 ECPInt:  NShTT=  271216 NPrTT=  987664 LenC2=  151574 LenP2D=  322822.
 LDataN:  DoStor=T MaxTD1= 4 Len=   56
 NBasis=  1572 RedAO= T EigKep=  3.29D-04  NBF=  1572
 NBsUse=  1572 1.00D-06 EigRej= -1.00D+00 NBFU=  1572
 Precomputing XC quadrature grid using
 IXCGrd= 4 IRadAn=           5 IRanWt=          -1 IRanGd=           0 AccXCQ= 0.00D+00.
 Generated NRdTot=       0 NPtTot=           0 NUsed=           0 NTot=          32
 NSgBfM=  1410  1410  1410  1410  1410 MxSgAt=   158 MxSgA2=   158.
 Leave Link  302 at Thu Sep  9 12:59:50 2021, MaxMem= 23488102400 cpu:             133.2 elap:               5.6
 (Enter /sw/apps/gaussian-16.0/g16/l303.exe)
 DipDrv:  MaxL=1.
 Leave Link  303 at Thu Sep  9 12:59:50 2021, MaxMem= 23488102400 cpu:               9.7 elap:               0.5
 (Enter /sw/apps/gaussian-16.0/g16/l308.exe)
 Leave Link  308 at Thu Sep  9 12:59:51 2021, MaxMem= 23488102400 cpu:              14.6 elap:               0.7
 (Enter /sw/apps/gaussian-16.0/g16/l401.exe)
 ExpMin= 3.36D-02 ExpMax= 4.95D+03 ExpMxC= 7.45D+02 IAcc=3 IRadAn=         5 AccDes= 0.00D+00
 Harris functional with IExCor=20419 and IRadAn=       5 diagonalized for initial guess.
 HarFok:  IExCor=20419 AccDes= 0.00D+00 IRadAn=         5 IDoV= 1 UseB2=F ITyADJ=14
 ICtDFT=  3500011 ScaDFX=  1.000000  1.000000  1.000000  1.000000
 FoFCou: FMM=F IPFlag=           0 FMFlag=      100000 FMFlg1=        2001
         NFxFlg=           0 DoJE=T BraDBF=F KetDBF=T FulRan=T
         wScrn=  0.000000 ICntrl=       500 IOpCl=  0 I1Cent=   200000004 NGrid=           0
         NMat0=    1 NMatS0=      1 NMatT0=    0 NMatD0=    1 NMtDS0=    0 NMtDT0=    0
 Petite list used in FoFCou.
 Harris En= -3918.66151848841    
 JPrj=0 DoOrth=F DoCkMO=F.
 Leave Link  401 at Thu Sep  9 12:59:59 2021, MaxMem= 23488102400 cpu:             197.9 elap:               8.3
 (Enter /sw/apps/gaussian-16.0/g16/l502.exe)
 Integral symmetry usage will be decided dynamically.
 Closed shell SCF:
 Using DIIS extrapolation, IDIIS=  1040.
 NGot= 23488102400 LenX= 23482547354 LenY= 23479796732
 Requested convergence on RMS density matrix=1.00D-08 within 128 cycles.
 Requested convergence on MAX density matrix=1.00D-06.
 Requested convergence on             energy=1.00D-06.
 No special actions if energy rises.
 Fock matrices will be formed incrementally for  20 cycles.

 Cycle   1  Pass 1  IDiag  1:
 FoFJK:  IHMeth= 1 ICntrl=       0 DoSepK=T KAlg= 0 I1Cent=           0 FoldK=F
 IRaf=         1 NMat=       1 IRICut=       1 DoRegI=T DoRafI=F ISym2E= 0 IDoP0=0 IntGTp=1.
 FoFCou: FMM=T IPFlag=           0 FMFlag=      100000 FMFlg1=        2001
         NFxFlg=           0 DoJE=T BraDBF=F KetDBF=F FulRan=T
         wScrn=  0.000000 ICntrl=       500 IOpCl=  0 I1Cent=           0 NGrid=           0
         NMat0=    1 NMatS0=      1 NMatT0=    0 NMatD0=    1 NMtDS0=    0 NMtDT0=    0
 Symmetry not used in FoFCou.
 FMM levels:  10  Number of levels for PrismC:   9
 E= -4068.95112515322    
 DIIS: error= 2.22D-02 at cycle   1 NSaved=   1.
 NSaved= 1 IEnMin= 1 EnMin= -4068.95112515322     IErMin= 1 ErrMin= 2.22D-02
 ErrMax= 2.22D-02  0.00D+00 EMaxC= 1.00D-01 BMatC= 1.69D+00 BMatP= 1.69D+00
 IDIUse=3 WtCom= 7.78D-01 WtEn= 2.22D-01
 Coeff-Com:  0.100D+01
 Coeff-En:   0.100D+01
 Coeff:      0.100D+01
 Gap=     0.120 Goal=   None    Shift=    0.000
 GapD=    0.120 DampG=1.000 DampE=0.500 DampFc=0.5000 IDamp=-1.
 Damping current iteration by 5.00D-01
 RMSDP=1.60D-03 MaxDP=1.45D-01              OVMax= 2.08D-01

 Cycle   2  Pass 1  IDiag  1:
 RMSU=  7.81D-04    CP:  9.82D-01
 E= -4069.34011657513     Delta-E=       -0.388991421911 Rises=F Damp=T
 DIIS: error= 1.33D-02 at cycle   2 NSaved=   2.
 NSaved= 2 IEnMin= 2 EnMin= -4069.34011657513     IErMin= 2 ErrMin= 1.33D-02
 ErrMax= 1.33D-02  0.00D+00 EMaxC= 1.00D-01 BMatC= 3.08D-01 BMatP= 1.69D+00
 IDIUse=3 WtCom= 8.67D-01 WtEn= 1.33D-01
 Coeff-Com: -0.212D+00 0.121D+01
 Coeff-En:   0.000D+00 0.100D+01
 Coeff:     -0.184D+00 0.118D+01
 Gap=     0.135 Goal=   None    Shift=    0.000
 RMSDP=7.78D-04 MaxDP=9.38D-02 DE=-3.89D-01 OVMax= 1.92D-01

 Cycle   3  Pass 1  IDiag  1:
 RMSU=  7.44D-04    CP:  9.67D-01  1.24D+00
 E= -4069.62636375476     Delta-E=       -0.286247179625 Rises=F Damp=F
 DIIS: error= 1.44D-02 at cycle   3 NSaved=   3.
 NSaved= 3 IEnMin= 3 EnMin= -4069.62636375476     IErMin= 2 ErrMin= 1.33D-02
 ErrMax= 1.44D-02  0.00D+00 EMaxC= 1.00D-01 BMatC= 2.06D-01 BMatP= 3.08D-01
 IDIUse=3 WtCom= 8.56D-01 WtEn= 1.44D-01
 Coeff-Com: -0.267D+00 0.654D+00 0.613D+00
 Coeff-En:   0.000D+00 0.000D+00 0.100D+01
 Coeff:     -0.228D+00 0.560D+00 0.668D+00
 Gap=     0.122 Goal=   None    Shift=    0.000
 RMSDP=5.21D-04 MaxDP=4.66D-02 DE=-2.86D-01 OVMax= 1.55D-01

 Cycle   4  Pass 1  IDiag  1:
 RMSU=  2.75D-04    CP:  9.64D-01  1.54D+00  4.97D-01
 E= -4069.76792818797     Delta-E=       -0.141564433216 Rises=F Damp=F
 DIIS: error= 6.27D-03 at cycle   4 NSaved=   4.
 NSaved= 4 IEnMin= 4 EnMin= -4069.76792818797     IErMin= 4 ErrMin= 6.27D-03
 ErrMax= 6.27D-03  0.00D+00 EMaxC= 1.00D-01 BMatC= 5.01D-02 BMatP= 2.06D-01
 IDIUse=3 WtCom= 9.37D-01 WtEn= 6.27D-02
 Coeff-Com: -0.112D+00 0.233D+00 0.406D+00 0.473D+00
 Coeff-En:   0.000D+00 0.000D+00 0.220D+00 0.780D+00
 Coeff:     -0.105D+00 0.218D+00 0.394D+00 0.492D+00
 Gap=     0.120 Goal=   None    Shift=    0.000
 RMSDP=2.09D-04 MaxDP=1.97D-02 DE=-1.42D-01 OVMax= 7.26D-02

 Cycle   5  Pass 1  IDiag  1:
 RMSU=  8.22D-05    CP:  9.64D-01  1.49D+00  6.84D-01  5.40D-01
 E= -4069.81423169552     Delta-E=       -0.046303507552 Rises=F Damp=F
 DIIS: error= 6.23D-04 at cycle   5 NSaved=   5.
 NSaved= 5 IEnMin= 5 EnMin= -4069.81423169552     IErMin= 5 ErrMin= 6.23D-04
 ErrMax= 6.23D-04  0.00D+00 EMaxC= 1.00D-01 BMatC= 1.46D-03 BMatP= 5.01D-02
 IDIUse=3 WtCom= 9.94D-01 WtEn= 6.23D-03
 Coeff-Com: -0.411D-01 0.812D-01 0.178D+00 0.263D+00 0.519D+00
 Coeff-En:   0.000D+00 0.000D+00 0.000D+00 0.000D+00 0.100D+01
 Coeff:     -0.408D-01 0.807D-01 0.177D+00 0.261D+00 0.522D+00
 Gap=     0.120 Goal=   None    Shift=    0.000
 RMSDP=4.82D-05 MaxDP=4.46D-03 DE=-4.63D-02 OVMax= 2.16D-02

 Cycle   6  Pass 1  IDiag  1:
 RMSU=  3.41D-05    CP:  9.63D-01  1.49D+00  6.74D-01  6.20D-01  7.01D-01
 E= -4069.81560786880     Delta-E=       -0.001376173273 Rises=F Damp=F
 DIIS: error= 1.98D-04 at cycle   6 NSaved=   6.
 NSaved= 6 IEnMin= 6 EnMin= -4069.81560786880     IErMin= 6 ErrMin= 1.98D-04
 ErrMax= 1.98D-04  0.00D+00 EMaxC= 1.00D-01 BMatC= 2.11D-04 BMatP= 1.46D-03
 IDIUse=3 WtCom= 9.98D-01 WtEn= 1.98D-03
 Coeff-Com:  0.956D-03-0.420D-02 0.158D-01 0.455D-01 0.296D+00 0.646D+00
 Coeff-En:   0.000D+00 0.000D+00 0.000D+00 0.000D+00 0.118D+00 0.882D+00
 Coeff:      0.954D-03-0.419D-02 0.158D-01 0.454D-01 0.295D+00 0.647D+00
 Gap=     0.120 Goal=   None    Shift=    0.000
 RMSDP=1.85D-05 MaxDP=1.37D-03 DE=-1.38D-03 OVMax= 9.37D-03

 Cycle   7  Pass 1  IDiag  1:
 RMSU=  1.19D-05    CP:  9.63D-01  1.50D+00  6.80D-01  6.17D-01  8.17D-01
                    CP:  7.34D-01
 E= -4069.81584941557     Delta-E=       -0.000241546775 Rises=F Damp=F
 DIIS: error= 1.28D-04 at cycle   7 NSaved=   7.
 NSaved= 7 IEnMin= 7 EnMin= -4069.81584941557     IErMin= 7 ErrMin= 1.28D-04
 ErrMax= 1.28D-04  0.00D+00 EMaxC= 1.00D-01 BMatC= 3.01D-05 BMatP= 2.11D-04
 IDIUse=3 WtCom= 9.99D-01 WtEn= 1.28D-03
 Coeff-Com:  0.451D-02-0.100D-01-0.815D-02-0.221D-02 0.106D+00 0.352D+00
 Coeff-Com:  0.558D+00
 Coeff-En:   0.000D+00 0.000D+00 0.000D+00 0.000D+00 0.000D+00 0.000D+00
 Coeff-En:   0.100D+01
 Coeff:      0.450D-02-0.999D-02-0.814D-02-0.221D-02 0.106D+00 0.351D+00
 Coeff:      0.559D+00
 Gap=     0.121 Goal=   None    Shift=    0.000
 RMSDP=7.07D-06 MaxDP=1.12D-03 DE=-2.42D-04 OVMax= 3.39D-03

 Cycle   8  Pass 1  IDiag  1:
 RMSU=  4.96D-06    CP:  9.63D-01  1.50D+00  6.81D-01  6.22D-01  8.15D-01
                    CP:  8.54D-01  8.06D-01
 E= -4069.81588608470     Delta-E=       -0.000036669124 Rises=F Damp=F
 DIIS: error= 6.67D-05 at cycle   8 NSaved=   8.
 NSaved= 8 IEnMin= 8 EnMin= -4069.81588608470     IErMin= 8 ErrMin= 6.67D-05
 ErrMax= 6.67D-05  0.00D+00 EMaxC= 1.00D-01 BMatC= 4.70D-06 BMatP= 3.01D-05
 IDIUse=1 WtCom= 1.00D+00 WtEn= 0.00D+00
 Coeff-Com:  0.231D-02-0.459D-02-0.786D-02-0.121D-01-0.969D-02 0.346D-01
 Coeff-Com:  0.295D+00 0.702D+00
 Coeff:      0.231D-02-0.459D-02-0.786D-02-0.121D-01-0.969D-02 0.346D-01
 Coeff:      0.295D+00 0.702D+00
 Gap=     0.121 Goal=   None    Shift=    0.000
 RMSDP=3.47D-06 MaxDP=4.33D-04 DE=-3.67D-05 OVMax= 1.24D-03

 Cycle   9  Pass 1  IDiag  1:
 RMSU=  2.04D-06    CP:  9.63D-01  1.50D+00  6.81D-01  6.24D-01  8.31D-01
                    CP:  8.83D-01  9.90D-01  9.82D-01
 E= -4069.81589399502     Delta-E=       -0.000007910319 Rises=F Damp=F
 DIIS: error= 2.39D-05 at cycle   9 NSaved=   9.
 NSaved= 9 IEnMin= 9 EnMin= -4069.81589399502     IErMin= 9 ErrMin= 2.39D-05
 ErrMax= 2.39D-05  0.00D+00 EMaxC= 1.00D-01 BMatC= 8.20D-07 BMatP= 4.70D-06
 IDIUse=1 WtCom= 1.00D+00 WtEn= 0.00D+00
 Coeff-Com:  0.560D-03-0.955D-03-0.289D-02-0.621D-02-0.202D-01-0.392D-01
 Coeff-Com:  0.793D-01 0.363D+00 0.627D+00
 Coeff:      0.560D-03-0.955D-03-0.289D-02-0.621D-02-0.202D-01-0.392D-01
 Coeff:      0.793D-01 0.363D+00 0.627D+00
 Gap=     0.121 Goal=   None    Shift=    0.000
 RMSDP=1.48D-06 MaxDP=1.56D-04 DE=-7.91D-06 OVMax= 7.91D-04

 Cycle  10  Pass 1  IDiag  1:
 RMSU=  9.86D-07    CP:  9.63D-01  1.50D+00  6.81D-01  6.24D-01  8.35D-01
                    CP:  8.94D-01  1.03D+00  1.15D+00  1.05D+00
 E= -4069.81589577445     Delta-E=       -0.000001779437 Rises=F Damp=F
 DIIS: error= 1.08D-05 at cycle  10 NSaved=  10.
 NSaved=10 IEnMin=10 EnMin= -4069.81589577445     IErMin=10 ErrMin= 1.08D-05
 ErrMax= 1.08D-05  0.00D+00 EMaxC= 1.00D-01 BMatC= 1.51D-07 BMatP= 8.20D-07
 IDIUse=1 WtCom= 1.00D+00 WtEn= 0.00D+00
 Coeff-Com: -0.408D-03 0.863D-03 0.111D-02 0.955D-03-0.360D-02-0.295D-01
 Coeff-Com: -0.454D-01-0.535D-01 0.213D+00 0.917D+00
 Coeff:     -0.408D-03 0.863D-03 0.111D-02 0.955D-03-0.360D-02-0.295D-01
 Coeff:     -0.454D-01-0.535D-01 0.213D+00 0.917D+00
 Gap=     0.121 Goal=   None    Shift=    0.000
 RMSDP=1.24D-06 MaxDP=1.23D-04 DE=-1.78D-06 OVMax= 6.89D-04

 Cycle  11  Pass 1  IDiag  1:
 RMSU=  5.64D-07    CP:  9.63D-01  1.50D+00  6.81D-01  6.25D-01  8.37D-01
                    CP:  9.03D-01  1.07D+00  1.25D+00  1.38D+00  1.34D+00
 E= -4069.81589657383     Delta-E=       -0.000000799377 Rises=F Damp=F
 DIIS: error= 3.94D-06 at cycle  11 NSaved=  11.
 NSaved=11 IEnMin=11 EnMin= -4069.81589657383     IErMin=11 ErrMin= 3.94D-06
 ErrMax= 3.94D-06  0.00D+00 EMaxC= 1.00D-01 BMatC= 7.14D-08 BMatP= 1.51D-07
 IDIUse=1 WtCom= 1.00D+00 WtEn= 0.00D+00
 Coeff-Com: -0.365D-03 0.714D-03 0.138D-02 0.216D-02 0.414D-02-0.824D-02
 Coeff-Com: -0.424D-01-0.125D+00-0.544D-01 0.520D+00 0.702D+00
 Coeff:     -0.365D-03 0.714D-03 0.138D-02 0.216D-02 0.414D-02-0.824D-02
 Coeff:     -0.424D-01-0.125D+00-0.544D-01 0.520D+00 0.702D+00
 Gap=     0.121 Goal=   None    Shift=    0.000
 RMSDP=7.14D-07 MaxDP=7.53D-05 DE=-7.99D-07 OVMax= 4.25D-04

 Cycle  12  Pass 1  IDiag  1:
 RMSU=  2.81D-07    CP:  9.63D-01  1.50D+00  6.81D-01  6.25D-01  8.38D-01
                    CP:  9.06D-01  1.09D+00  1.32D+00  1.53D+00  1.74D+00
                    CP:  1.16D+00
 E= -4069.81589685791     Delta-E=       -0.000000284079 Rises=F Damp=F
 DIIS: error= 2.63D-06 at cycle  12 NSaved=  12.
 NSaved=12 IEnMin=12 EnMin= -4069.81589685791     IErMin=12 ErrMin= 2.63D-06
 ErrMax= 2.63D-06  0.00D+00 EMaxC= 1.00D-01 BMatC= 1.49D-08 BMatP= 7.14D-08
 IDIUse=1 WtCom= 1.00D+00 WtEn= 0.00D+00
 Coeff-Com: -0.324D-04 0.471D-04 0.283D-03 0.646D-03 0.339D-02 0.350D-02
 Coeff-Com: -0.108D-02-0.370D-01-0.803D-01-0.151D-01 0.251D+00 0.875D+00
 Coeff:     -0.324D-04 0.471D-04 0.283D-03 0.646D-03 0.339D-02 0.350D-02
 Coeff:     -0.108D-02-0.370D-01-0.803D-01-0.151D-01 0.251D+00 0.875D+00
 Gap=     0.121 Goal=   None    Shift=    0.000
 RMSDP=4.30D-07 MaxDP=3.16D-05 DE=-2.84D-07 OVMax= 2.70D-04

 Cycle  13  Pass 1  IDiag  1:
 RMSU=  1.70D-07    CP:  9.63D-01  1.50D+00  6.81D-01  6.25D-01  8.38D-01
                    CP:  9.06D-01  1.10D+00  1.34D+00  1.63D+00  1.94D+00
                    CP:  1.55D+00  1.24D+00
 E= -4069.81589695192     Delta-E=       -0.000000094009 Rises=F Damp=F
 DIIS: error= 1.39D-06 at cycle  13 NSaved=  13.
 NSaved=13 IEnMin=13 EnMin= -4069.81589695192     IErMin=13 ErrMin= 1.39D-06
 ErrMax= 1.39D-06  0.00D+00 EMaxC= 1.00D-01 BMatC= 8.76D-09 BMatP= 1.49D-08
 IDIUse=1 WtCom= 1.00D+00 WtEn= 0.00D+00
 Coeff-Com:  0.122D-03-0.249D-03-0.361D-03-0.449D-03 0.613D-03 0.469D-02
 Coeff-Com:  0.174D-01 0.249D-01-0.312D-01-0.233D+00-0.181D+00 0.567D+00
 Coeff-Com:  0.831D+00
 Coeff:      0.122D-03-0.249D-03-0.361D-03-0.449D-03 0.613D-03 0.469D-02
 Coeff:      0.174D-01 0.249D-01-0.312D-01-0.233D+00-0.181D+00 0.567D+00
 Coeff:      0.831D+00
 Gap=     0.121 Goal=   None    Shift=    0.000
 RMSDP=3.68D-07 MaxDP=2.57D-05 DE=-9.40D-08 OVMax= 2.45D-04

 Cycle  14  Pass 1  IDiag  1:
 RMSU=  8.02D-08    CP:  9.63D-01  1.50D+00  6.81D-01  6.25D-01  8.38D-01
                    CP:  9.06D-01  1.10D+00  1.37D+00  1.71D+00  2.14D+00
                    CP:  1.81D+00  1.77D+00  1.17D+00
 E= -4069.81589699410     Delta-E=       -0.000000042179 Rises=F Damp=F
 DIIS: error= 9.42D-07 at cycle  14 NSaved=  14.
 NSaved=14 IEnMin=14 EnMin= -4069.81589699410     IErMin=14 ErrMin= 9.42D-07
 ErrMax= 9.42D-07  0.00D+00 EMaxC= 1.00D-01 BMatC= 1.22D-09 BMatP= 8.76D-09
 IDIUse=1 WtCom= 1.00D+00 WtEn= 0.00D+00
 Coeff-Com:  0.708D-04-0.140D-03-0.252D-03-0.394D-03-0.447D-03 0.109D-02
 Coeff-Com:  0.947D-02 0.205D-01 0.616D-02-0.999D-01-0.148D+00 0.746D-01
 Coeff-Com:  0.397D+00 0.741D+00
 Coeff:      0.708D-04-0.140D-03-0.252D-03-0.394D-03-0.447D-03 0.109D-02
 Coeff:      0.947D-02 0.205D-01 0.616D-02-0.999D-01-0.148D+00 0.746D-01
 Coeff:      0.397D+00 0.741D+00
 Gap=     0.121 Goal=   None    Shift=    0.000
 RMSDP=1.11D-07 MaxDP=7.86D-06 DE=-4.22D-08 OVMax= 7.40D-05

 Cycle  15  Pass 1  IDiag  1:
 RMSU=  3.93D-08    CP:  9.63D-01  1.50D+00  6.81D-01  6.25D-01  8.38D-01
                    CP:  9.06D-01  1.10D+00  1.37D+00  1.72D+00  2.19D+00
                    CP:  1.91D+00  1.92D+00  1.40D+00  1.07D+00
 E= -4069.81589699864     Delta-E=       -0.000000004547 Rises=F Damp=F
 DIIS: error= 3.79D-07 at cycle  15 NSaved=  15.
 NSaved=15 IEnMin=15 EnMin= -4069.81589699864     IErMin=15 ErrMin= 3.79D-07
 ErrMax= 3.79D-07  0.00D+00 EMaxC= 1.00D-01 BMatC= 2.35D-10 BMatP= 1.22D-09
 IDIUse=1 WtCom= 1.00D+00 WtEn= 0.00D+00
 Coeff-Com:  0.760D-05-0.133D-04-0.395D-04-0.906D-04-0.290D-03-0.519D-03
 Coeff-Com:  0.102D-02 0.339D-02 0.852D-02-0.192D-04-0.308D-01-0.720D-01
 Coeff-Com:  0.220D-01 0.320D+00 0.749D+00
 Coeff:      0.760D-05-0.133D-04-0.395D-04-0.906D-04-0.290D-03-0.519D-03
 Coeff:      0.102D-02 0.339D-02 0.852D-02-0.192D-04-0.308D-01-0.720D-01
 Coeff:      0.220D-01 0.320D+00 0.749D+00
 Gap=     0.121 Goal=   None    Shift=    0.000
 RMSDP=4.07D-08 MaxDP=3.18D-06 DE=-4.55D-09 OVMax= 3.15D-05

 Cycle  16  Pass 1  IDiag  1:
 RMSU=  1.91D-08    CP:  9.63D-01  1.50D+00  6.81D-01  6.25D-01  8.38D-01
                    CP:  9.06D-01  1.10D+00  1.37D+00  1.73D+00  2.20D+00
                    CP:  1.94D+00  1.97D+00  1.48D+00  1.27D+00  1.16D+00
 E= -4069.81589699923     Delta-E=       -0.000000000582 Rises=F Damp=F
 DIIS: error= 2.19D-07 at cycle  16 NSaved=  16.
 NSaved=16 IEnMin=16 EnMin= -4069.81589699923     IErMin=16 ErrMin= 2.19D-07
 ErrMax= 2.19D-07  0.00D+00 EMaxC= 1.00D-01 BMatC= 7.38D-11 BMatP= 2.35D-10
 IDIUse=1 WtCom= 1.00D+00 WtEn= 0.00D+00
 Coeff-Com: -0.139D-04 0.282D-04 0.439D-04 0.498D-04-0.258D-04-0.575D-03
 Coeff-Com: -0.172D-02-0.392D-02 0.317D-02 0.246D-01 0.217D-01-0.568D-01
 Coeff-Com: -0.845D-01-0.284D-01 0.367D+00 0.759D+00
 Coeff:     -0.139D-04 0.282D-04 0.439D-04 0.498D-04-0.258D-04-0.575D-03
 Coeff:     -0.172D-02-0.392D-02 0.317D-02 0.246D-01 0.217D-01-0.568D-01
 Coeff:     -0.845D-01-0.284D-01 0.367D+00 0.759D+00
 Gap=     0.121 Goal=   None    Shift=    0.000
 RMSDP=2.33D-08 MaxDP=1.77D-06 DE=-5.82D-10 OVMax= 1.73D-05

 Cycle  17  Pass 1  IDiag  1:
 RMSU=  1.11D-08    CP:  9.63D-01  1.50D+00  6.81D-01  6.25D-01  8.38D-01
                    CP:  9.06D-01  1.11D+00  1.37D+00  1.73D+00  2.21D+00
                    CP:  1.95D+00  2.00D+00  1.53D+00  1.37D+00  1.44D+00
                    CP:  1.25D+00
 E= -4069.81589699980     Delta-E=       -0.000000000575 Rises=F Damp=F
 DIIS: error= 9.43D-08 at cycle  17 NSaved=  17.
 NSaved=17 IEnMin=17 EnMin= -4069.81589699980     IErMin=17 ErrMin= 9.43D-08
 ErrMax= 9.43D-08  0.00D+00 EMaxC= 1.00D-01 BMatC= 1.92D-11 BMatP= 7.38D-11
 IDIUse=1 WtCom= 1.00D+00 WtEn= 0.00D+00
 Coeff-Com: -0.785D-05 0.153D-04 0.293D-04 0.431D-04 0.778D-04-0.113D-03
 Coeff-Com: -0.879D-03-0.275D-02-0.516D-03 0.100D-01 0.176D-01-0.614D-02
 Coeff-Com: -0.378D-01-0.988D-01-0.481D-01 0.328D+00 0.839D+00
 Coeff:     -0.785D-05 0.153D-04 0.293D-04 0.431D-04 0.778D-04-0.113D-03
 Coeff:     -0.879D-03-0.275D-02-0.516D-03 0.100D-01 0.176D-01-0.614D-02
 Coeff:     -0.378D-01-0.988D-01-0.481D-01 0.328D+00 0.839D+00
 Gap=     0.121 Goal=   None    Shift=    0.000
 RMSDP=1.43D-08 MaxDP=1.14D-06 DE=-5.75D-10 OVMax= 1.08D-05

 Cycle  18  Pass 1  IDiag  1:
 RMSU=  5.00D-09    CP:  9.63D-01  1.50D+00  6.81D-01  6.25D-01  8.38D-01
                    CP:  9.06D-01  1.11D+00  1.37D+00  1.73D+00  2.21D+00
                    CP:  1.95D+00  2.00D+00  1.55D+00  1.44D+00  1.61D+00
                    CP:  1.65D+00  1.40D+00
 E= -4069.81589699959     Delta-E=        0.000000000215 Rises=F Damp=F
 DIIS: error= 4.85D-08 at cycle  18 NSaved=  18.
 NSaved=18 IEnMin=17 EnMin= -4069.81589699980     IErMin=18 ErrMin= 4.85D-08
 ErrMax= 4.85D-08  0.00D+00 EMaxC= 1.00D-01 BMatC= 6.10D-12 BMatP= 1.92D-11
 IDIUse=1 WtCom= 1.00D+00 WtEn= 0.00D+00
 Coeff-Com:  0.176D-05-0.384D-05-0.353D-05-0.730D-06 0.562D-04 0.166D-03
 Coeff-Com:  0.343D-03 0.212D-03-0.119D-02-0.538D-02-0.667D-03 0.181D-01
 Coeff-Com:  0.191D-01-0.307D-01-0.163D+00-0.154D+00 0.320D+00 0.997D+00
 Coeff:      0.176D-05-0.384D-05-0.353D-05-0.730D-06 0.562D-04 0.166D-03
 Coeff:      0.343D-03 0.212D-03-0.119D-02-0.538D-02-0.667D-03 0.181D-01
 Coeff:      0.191D-01-0.307D-01-0.163D+00-0.154D+00 0.320D+00 0.997D+00
 Gap=     0.121 Goal=   None    Shift=    0.000
 RMSDP=1.16D-08 MaxDP=8.55D-07 DE= 2.15D-10 OVMax= 8.44D-06

 Cycle  19  Pass 1  IDiag  1:
 RMSU=  3.10D-09    CP:  9.63D-01  1.50D+00  6.81D-01  6.25D-01  8.38D-01
                    CP:  9.06D-01  1.11D+00  1.37D+00  1.73D+00  2.21D+00
                    CP:  1.96D+00  2.01D+00  1.56D+00  1.48D+00  1.76D+00
                    CP:  1.97D+00  1.93D+00  1.34D+00
 E= -4069.81589699991     Delta-E=       -0.000000000327 Rises=F Damp=F
 DIIS: error= 4.26D-08 at cycle  19 NSaved=  19.
 NSaved=19 IEnMin=19 EnMin= -4069.81589699991     IErMin=19 ErrMin= 4.26D-08
 ErrMax= 4.26D-08  0.00D+00 EMaxC= 1.00D-01 BMatC= 2.07D-12 BMatP= 6.10D-12
 IDIUse=1 WtCom= 1.00D+00 WtEn= 0.00D+00
 Coeff-Com:  0.319D-05-0.646D-05-0.104D-04-0.129D-04 0.130D-04 0.124D-03
 Coeff-Com:  0.455D-03 0.886D-03-0.515D-03-0.629D-02-0.561D-02 0.120D-01
 Coeff-Com:  0.225D-01 0.110D-01-0.817D-01-0.187D+00-0.625D-01 0.573D+00
 Coeff-Com:  0.725D+00
 Coeff:      0.319D-05-0.646D-05-0.104D-04-0.129D-04 0.130D-04 0.124D-03
 Coeff:      0.455D-03 0.886D-03-0.515D-03-0.629D-02-0.561D-02 0.120D-01
 Coeff:      0.225D-01 0.110D-01-0.817D-01-0.187D+00-0.625D-01 0.573D+00
 Coeff:      0.725D+00
 Gap=     0.121 Goal=   None    Shift=    0.000
 RMSDP=5.63D-09 MaxDP=4.31D-07 DE=-3.27D-10 OVMax= 3.96D-06

 SCF Done:  E(RCAM-B3LYP) =  -4069.81589700     A.U. after   19 cycles
            NFock= 19  Conv=0.56D-08     -V/T= 2.0102
 KE= 4.028766967829D+03 PE=-4.075043876422D+04 EE= 1.701739859845D+04
 Leave Link  502 at Thu Sep  9 13:12:54 2021, MaxMem= 23488102400 cpu:           17911.6 elap:             774.9
 (Enter /sw/apps/gaussian-16.0/g16/l801.exe)
 DoSCS=F DFT=T ScalE2(SS,OS)=  1.000000  1.000000
 ExpMin= 3.36D-02 ExpMax= 4.95D+03 ExpMxC= 7.45D+02 IAcc=3 IRadAn=         5 AccDes= 0.00D+00
 HarFok:  IExCor=  205 AccDes= 0.00D+00 IRadAn=         5 IDoV=-2 UseB2=F ITyADJ=14
 ICtDFT= 12500011 ScaDFX=  1.000000  1.000000  1.000000  1.000000
 GSVD:  LWork=       -9588 too small for GESVD, short by       45590 words or       45590 for optimal perf.
 Largest valence mixing into a core orbital is  2.03D-04
 Largest core mixing into a valence orbital is  5.24D-05
 Range of M.O.s used for correlation:    95  1572
 NBasis=  1572 NAE=   312 NBE=   312 NFC=    94 NFV=     0
 NROrb=   1478 NOA=   218 NOB=   218 NVA=  1260 NVB=  1260
 Leave Link  801 at Thu Sep  9 13:12:55 2021, MaxMem= 23488102400 cpu:               8.2 elap:               0.4
 (Enter /sw/apps/gaussian-16.0/g16/l914.exe)
 RHF ground state
 Two-electron integrals replicated using symmetry.
 MDV= 23488102400 DFT=T DoStab=F Mixed=T DoRPA=T DoScal=F NonHer=T
 Making orbital integer symmetry assigments:
 Orbital symmetries:
       Occupied  (A) (A) (A) (A) (A) (A) (A) (A) (A) (A) (A) (A)
                 (A) (A) (A) (A) (A) (A) (A) (A) (A) (A) (A) (A)
                 (A) (A) (A) (A) (A) (A) (A) (A) (A) (A) (A) (A)
                 (A) (A) (A) (A) (A) (A) (A) (A) (A) (A) (A) (A)
                 (A) (A) (A) (A) (A) (A) (A) (A) (A) (A) (A) (A)
                 (A) (A) (A) (A) (A) (A) (A) (A) (A) (A) (A) (A)
                 (A) (A) (A) (A) (A) (A) (A) (A) (A) (A) (A) (A)
                 (A) (A) (A) (A) (A) (A) (A) (A) (A) (A) (A) (A)
                 (A) (A) (A) (A) (A) (A) (A) (A) (A) (A) (A) (A)
                 (A) (A) (A) (A) (A) (A) (A) (A) (A) (A) (A) (A)
                 (A) (A) (A) (A) (A) (A) (A) (A) (A) (A) (A) (A)
                 (A) (A) (A) (A) (A) (A) (A) (A) (A) (A) (A) (A)
                 (A) (A) (A) (A) (A) (A) (A) (A) (A) (A) (A) (A)
                 (A) (A) (A) (A) (A) (A) (A) (A) (A) (A) (A) (A)
                 (A) (A) (A) (A) (A) (A) (A) (A) (A) (A) (A) (A)
                 (A) (A) (A) (A) (A) (A) (A) (A) (A) (A) (A) (A)
                 (A) (A) (A) (A) (A) (A) (A) (A) (A) (A) (A) (A)
                 (A) (A) (A) (A) (A) (A) (A) (A) (A) (A) (A) (A)
                 (A) (A) (A) (A) (A) (A) (A) (A) (A) (A) (A) (A)
                 (A) (A) (A) (A) (A) (A) (A) (A) (A) (A) (A) (A)
                 (A) (A) (A) (A) (A) (A) (A) (A) (A) (A) (A) (A)
                 (A) (A) (A) (A) (A) (A) (A) (A) (A) (A) (A) (A)
                 (A) (A) (A) (A) (A) (A) (A) (A) (A) (A) (A) (A)
                 (A) (A) (A) (A) (A) (A) (A) (A) (A) (A) (A) (A)
                 (A) (A) (A) (A) (A) (A) (A) (A) (A) (A) (A) (A)
                 (A) (A) (A) (A) (A) (A) (A) (A) (A) (A) (A) (A)
       Virtual   (A) (A) (A) (A) (A) (A) (A) (A) (A) (A) (A) (A)
                 (A) (A) (A) (A) (A) (A) (A) (A) (A) (A) (A) (A)
                 (A) (A) (A) (A) (A) (A) (A) (A) (A) (A) (A) (A)
                 (A) (A) (A) (A) (A) (A) (A) (A) (A) (A) (A) (A)
                 (A) (A) (A) (A) (A) (A) (A) (A) (A) (A) (A) (A)
                 (A) (A) (A) (A) (A) (A) (A) (A) (A) (A) (A) (A)
                 (A) (A) (A) (A) (A) (A) (A) (A) (A) (A) (A) (A)
                 (A) (A) (A) (A) (A) (A) (A) (A) (A) (A) (A) (A)
                 (A) (A) (A) (A) (A) (A) (A) (A) (A) (A) (A) (A)
                 (A) (A) (A) (A) (A) (A) (A) (A) (A) (A) (A) (A)
                 (A) (A) (A) (A) (A) (A) (A) (A) (A) (A) (A) (A)
                 (A) (A) (A) (A) (A) (A) (A) (A) (A) (A) (A) (A)
                 (A) (A) (A) (A) (A) (A) (A) (A) (A) (A) (A) (A)
                 (A) (A) (A) (A) (A) (A) (A) (A) (A) (A) (A) (A)
                 (A) (A) (A) (A) (A) (A) (A) (A) (A) (A) (A) (A)
                 (A) (A) (A) (A) (A) (A) (A) (A) (A) (A) (A) (A)
                 (A) (A) (A) (A) (A) (A) (A) (A) (A) (A) (A) (A)
                 (A) (A) (A) (A) (A) (A) (A) (A) (A) (A) (A) (A)
                 (A) (A) (A) (A) (A) (A) (A) (A) (A) (A) (A) (A)
                 (A) (A) (A) (A) (A) (A) (A) (A) (A) (A) (A) (A)
                 (A) (A) (A) (A) (A) (A) (A) (A) (A) (A) (A) (A)
                 (A) (A) (A) (A) (A) (A) (A) (A) (A) (A) (A) (A)
                 (A) (A) (A) (A) (A) (A) (A) (A) (A) (A) (A) (A)
                 (A) (A) (A) (A) (A) (A) (A) (A) (A) (A) (A) (A)
                 (A) (A) (A) (A) (A) (A) (A) (A) (A) (A) (A) (A)
                 (A) (A) (A) (A) (A) (A) (A) (A) (A) (A) (A) (A)
                 (A) (A) (A) (A) (A) (A) (A) (A) (A) (A) (A) (A)
                 (A) (A) (A) (A) (A) (A) (A) (A) (A) (A) (A) (A)
                 (A) (A) (A) (A) (A) (A) (A) (A) (A) (A) (A) (A)
                 (A) (A) (A) (A) (A) (A) (A) (A) (A) (A) (A) (A)
                 (A) (A) (A) (A) (A) (A) (A) (A) (A) (A) (A) (A)
                 (A) (A) (A) (A) (A) (A) (A) (A) (A) (A) (A) (A)
                 (A) (A) (A) (A) (A) (A) (A) (A) (A) (A) (A) (A)
                 (A) (A) (A) (A) (A) (A) (A) (A) (A) (A) (A) (A)
                 (A) (A) (A) (A) (A) (A) (A) (A) (A) (A) (A) (A)
                 (A) (A) (A) (A) (A) (A) (A) (A) (A) (A) (A) (A)
                 (A) (A) (A) (A) (A) (A) (A) (A) (A) (A) (A) (A)
                 (A) (A) (A) (A) (A) (A) (A) (A) (A) (A) (A) (A)
                 (A) (A) (A) (A) (A) (A) (A) (A) (A) (A) (A) (A)
                 (A) (A) (A) (A) (A) (A) (A) (A) (A) (A) (A) (A)
                 (A) (A) (A) (A) (A) (A) (A) (A) (A) (A) (A) (A)
                 (A) (A) (A) (A) (A) (A) (A) (A) (A) (A) (A) (A)
                 (A) (A) (A) (A) (A) (A) (A) (A) (A) (A) (A) (A)
                 (A) (A) (A) (A) (A) (A) (A) (A) (A) (A) (A) (A)
                 (A) (A) (A) (A) (A) (A) (A) (A) (A) (A) (A) (A)
                 (A) (A) (A) (A) (A) (A) (A) (A) (A) (A) (A) (A)
                 (A) (A) (A) (A) (A) (A) (A) (A) (A) (A) (A) (A)
                 (A) (A) (A) (A) (A) (A) (A) (A) (A) (A) (A) (A)
                 (A) (A) (A) (A) (A) (A) (A) (A) (A) (A) (A) (A)
                 (A) (A) (A) (A) (A) (A) (A) (A) (A) (A) (A) (A)
                 (A) (A) (A) (A) (A) (A) (A) (A) (A) (A) (A) (A)
                 (A) (A) (A) (A) (A) (A) (A) (A) (A) (A) (A) (A)
                 (A) (A) (A) (A) (A) (A) (A) (A) (A) (A) (A) (A)
                 (A) (A) (A) (A) (A) (A) (A) (A) (A) (A) (A) (A)
                 (A) (A) (A) (A) (A) (A) (A) (A) (A) (A) (A) (A)
                 (A) (A) (A) (A) (A) (A) (A) (A) (A) (A) (A) (A)
                 (A) (A) (A) (A) (A) (A) (A) (A) (A) (A) (A) (A)
                 (A) (A) (A) (A) (A) (A) (A) (A) (A) (A) (A) (A)
                 (A) (A) (A) (A) (A) (A) (A) (A) (A) (A) (A) (A)
                 (A) (A) (A) (A) (A) (A) (A) (A) (A) (A) (A) (A)
                 (A) (A) (A) (A) (A) (A) (A) (A) (A) (A) (A) (A)
                 (A) (A) (A) (A) (A) (A) (A) (A) (A) (A) (A) (A)
                 (A) (A) (A) (A) (A) (A) (A) (A) (A) (A) (A) (A)
                 (A) (A) (A) (A) (A) (A) (A) (A) (A) (A) (A) (A)
                 (A) (A) (A) (A) (A) (A) (A) (A) (A) (A) (A) (A)
                 (A) (A) (A) (A) (A) (A) (A) (A) (A) (A) (A) (A)
                 (A) (A) (A) (A) (A) (A) (A) (A) (A) (A) (A) (A)
                 (A) (A) (A) (A) (A) (A) (A) (A) (A) (A) (A) (A)
                 (A) (A) (A) (A) (A) (A) (A) (A) (A) (A) (A) (A)
                 (A) (A) (A) (A) (A) (A) (A) (A) (A) (A) (A) (A)
                 (A) (A) (A) (A) (A) (A) (A) (A) (A) (A) (A) (A)
                 (A) (A) (A) (A) (A) (A) (A) (A) (A) (A) (A) (A)
                 (A) (A) (A) (A) (A) (A) (A) (A) (A) (A) (A) (A)
                 (A) (A) (A) (A) (A) (A) (A) (A) (A) (A) (A) (A)
                 (A) (A) (A) (A) (A) (A) (A) (A) (A) (A) (A) (A)
                 (A) (A) (A) (A) (A) (A) (A) (A) (A) (A) (A) (A)
                 (A) (A) (A) (A) (A) (A) (A) (A) (A) (A) (A) (A)
                 (A) (A) (A) (A) (A) (A) (A) (A) (A) (A) (A) (A)
                 (A) (A) (A) (A) (A) (A) (A) (A) (A) (A) (A) (A)
                 (A) (A) (A) (A) (A) (A) (A) (A) (A) (A) (A) (A)
                 (A) (A) (A) (A) (A) (A) (A) (A) (A) (A) (A) (A)
                 (A) (A) (A) (A) (A) (A) (A) (A) (A) (A) (A) (A)
                 (A) (A) (A) (A) (A) (A) (A) (A) (A) (A) (A) (A)
                 (A) (A) (A) (A) (A) (A) (A) (A) (A) (A) (A) (A)
                 (A) (A) (A) (A) (A) (A) (A) (A) (A) (A) (A) (A)
                 (A) (A) (A) (A) (A) (A) (A) (A) (A) (A) (A) (A)
                 (A) (A) (A) (A) (A) (A) (A) (A) (A) (A) (A) (A)
                 (A) (A) (A) (A) (A) (A) (A) (A) (A) (A) (A) (A)
                 (A) (A) (A) (A) (A) (A) (A) (A) (A) (A) (A) (A)
                 (A) (A) (A) (A) (A) (A) (A) (A) (A) (A) (A) (A)
                 (A) (A) (A) (A) (A) (A) (A) (A) (A) (A) (A) (A)
                 (A) (A) (A) (A) (A) (A) (A) (A) (A) (A) (A) (A)
                 (A) (A) (A) (A) (A) (A) (A) (A) (A) (A) (A) (A)
                 (A) (A) (A) (A) (A) (A) (A) (A) (A) (A) (A) (A)
                 (A) (A) (A) (A) (A) (A) (A) (A) (A) (A) (A) (A)
                 (A) (A) (A) (A) (A) (A) (A) (A) (A) (A) (A) (A)
                 (A) (A) (A) (A) (A) (A) (A) (A) (A) (A) (A) (A)
                 (A) (A) (A) (A) (A) (A) (A) (A) (A) (A) (A) (A)
                 (A) (A) (A) (A) (A) (A) (A) (A) (A) (A) (A) (A)
                 (A) (A) (A) (A) (A) (A) (A) (A) (A) (A) (A) (A)
                 (A) (A) (A) (A) (A) (A) (A) (A) (A) (A) (A) (A)
                 (A) (A) (A) (A) (A) (A) (A) (A) (A) (A) (A) (A)
                 (A) (A) (A) (A) (A) (A) (A) (A) (A) (A) (A) (A)
                 (A) (A) (A) (A) (A) (A) (A) (A) (A) (A) (A) (A)
                 (A) (A) (A) (A) (A) (A) (A) (A) (A) (A) (A) (A)
    20 initial guesses have been made.
 Convergence on wavefunction:    0.001000000000000
 Davidson Disk Diagonalization:  ConvIn= 1.00D-03 SkipCon=T Conv= 1.00D-03.
 Max sub-space:  2000 roots to seek:    20 dimension of matrix:       549360
 Iteration     1 Dimension    20 NMult     0 NNew     20
 CISAX will form    20 AO SS matrices at one time.
 NMat=    20 NSing=    20 JSym2X= 0.
 FoFJK:  IHMeth= 1 ICntrl=       0 DoSepK=T KAlg= 0 I1Cent=           0 FoldK=F
 IRaf=         1 NMat=      40 IRICut=       1 DoRegI=T DoRafI=F ISym2E= 0 IDoP0=3 IntGTp=3.
 FoFCou: FMM=T IPFlag=           0 FMFlag=      100000 FMFlg1=        2001
         NFxFlg=           0 DoJE=F BraDBF=F KetDBF=F FulRan=T
         wScrn=  0.000000 ICntrl=       500 IOpCl=  0 I1Cent=           0 NGrid=           0
         NMat0=   20 NMatS0=     20 NMatT0=    0 NMatD0=   20 NMtDS0=    0 NMtDT0=    0
 Symmetry not used in FoFCou.
 FMM levels:  10  Number of levels for PrismC:   9
 New state      2 was old state      4
 New state      3 was old state      2
 New state      4 was old state      6
 New state      5 was old state      7
 Excitation Energies [eV] at current iteration:
 Root      1 :     2.360197076823441
 Root      2 :     2.524248377877510
 Root      3 :     2.596345167737052
 Root      4 :     2.616935318562001
 Root      5 :     2.626789981262942
 Root      6 :     2.757761945532436
 Root      7 :     3.159497304765266
 Root      8 :     3.326461354067051
 Root      9 :     3.622664839163906
 Root     10 :     3.682158182682383
 Root     11 :     3.748288209786116
 Root     12 :     3.749648325454904
 Root     13 :     4.259303621075301
 Root     14 :     4.281037480790988
 Root     15 :     4.328974172635949
 Root     16 :     4.390836915659469
 Root     17 :     4.598276382053450
 Root     18 :     4.642274841786803
 Root     19 :     4.735357676122198
 Root     20 :     4.760753921080661
 Iteration     2 Dimension    30 NMult    20 NNew     10
 CISAX will form    10 AO SS matrices at one time.
 NMat=    10 NSing=    10 JSym2X= 0.
 New state      1 was old state      3
 Root      1 not converged, maximum delta is    0.282293301380859
 New state      2 was old state      4
 Root      2 not converged, maximum delta is    0.161505668357856
 New state      3 was old state      5
 Root      3 not converged, maximum delta is    0.245165179387033
 New state      4 was old state      1
 Root      4 not converged, maximum delta is    0.034657405910119
 New state      5 was old state      2
 Root      5 not converged, maximum delta is    0.016320412427706
 Excitation Energies [eV] at current iteration:
 Root      1 :     1.763035753535366   Change is   -0.833309414201687
 Root      2 :     2.231096051059179   Change is   -0.385839267502822
 Root      3 :     2.241276816937832   Change is   -0.385513164325111
 Root      4 :     2.352880994363166   Change is   -0.007316082460275
 Root      5 :     2.521275809805956   Change is   -0.002972568071554
 Iteration     3 Dimension    40 NMult    30 NNew     10
 CISAX will form    10 AO SS matrices at one time.
 NMat=    10 NSing=    10 JSym2X= 0.
 Root      1 not converged, maximum delta is    0.052678671362226
 Root      2 not converged, maximum delta is    0.570241705541020
 Root      3 not converged, maximum delta is    0.656724412083847
 No map to state      4
 New state      5 was old state      4
 Root      5 not converged, maximum delta is    0.006751160197276
 Excitation Energies [eV] at current iteration:
 Root      1 :     1.659426543449868   Change is   -0.103609210085498
 Root      2 :     1.869338567735874   Change is   -0.361757483323305
 Root      3 :     2.191387671333489   Change is   -0.049889145604342
 Root      4 :     2.205342780904699
 Root      5 :     2.352790609554942   Change is   -0.000090384808224
 Iteration     4 Dimension    50 NMult    40 NNew     10
 CISAX will form    10 AO SS matrices at one time.
 NMat=    10 NSing=    10 JSym2X= 0.
 Root      1 not converged, maximum delta is    0.010588929160825
 Root      2 not converged, maximum delta is    0.034255385185654
 Root      3 not converged, maximum delta is    0.026752881821044
 Root      4 not converged, maximum delta is    0.026284974017095
 Root      5 has converged.
 Excitation Energies [eV] at current iteration:
 Root      1 :     1.642718109332162   Change is   -0.016708434117706
 Root      2 :     1.730944562970169   Change is   -0.138394004765705
 Root      3 :     2.182670122885476   Change is   -0.008717548448013
 Root      4 :     2.198611161443023   Change is   -0.006731619461676
 Root      5 :     2.352779065501596   Change is   -0.000011544053346
 Iteration     5 Dimension    58 NMult    50 NNew      8
 CISAX will form     8 AO SS matrices at one time.
 NMat=     8 NSing=     8 JSym2X= 0.
 Root      1 not converged, maximum delta is    0.002514588373841
 Root      2 not converged, maximum delta is    0.014175753606182
 Root      3 not converged, maximum delta is    0.002471091700453
 Root      4 not converged, maximum delta is    0.002102374466314
 Root      5 has converged.
 Excitation Energies [eV] at current iteration:
 Root      1 :     1.640963386749740   Change is   -0.001754722582421
 Root      2 :     1.706681940280258   Change is   -0.024262622689912
 Root      3 :     2.181715427756578   Change is   -0.000954695128898
 Root      4 :     2.197915504619299   Change is   -0.000695656823724
 Root      5 :     2.352778164457838   Change is   -0.000000901043758
 Iteration     6 Dimension    66 NMult    58 NNew      8
 CISAX will form     8 AO SS matrices at one time.
 NMat=     8 NSing=     8 JSym2X= 0.
 Root      1 has converged.
 Root      2 not converged, maximum delta is    0.002613661973600
 Root      3 not converged, maximum delta is    0.001131103206891
 Root      4 has converged.
 Root      5 has converged.
 Excitation Energies [eV] at current iteration:
 Root      1 :     1.640717019321058   Change is   -0.000246367428682
 Root      2 :     1.704307702883863   Change is   -0.002374237396394
 Root      3 :     2.181570844778606   Change is   -0.000144582977972
 Root      4 :     2.197823482658387   Change is   -0.000092021960912
 Root      5 :     2.352777998263461   Change is   -0.000000166194377
 Iteration     7 Dimension    70 NMult    66 NNew      4
 CISAX will form     4 AO SS matrices at one time.
 NMat=     4 NSing=     4 JSym2X= 0.
 Root      1 has converged.
 Root      2 not converged, maximum delta is    0.001107508592282
 Root      3 has converged.
 Root      4 has converged.
 Root      5 has converged.
 Excitation Energies [eV] at current iteration:
[...]
 Alpha virt. eigenvalues --    1.88379   1.88478   1.88643   1.88856   1.89096
 Alpha virt. eigenvalues --    1.89203   1.89486   1.89677   1.89769   1.89856
 Alpha virt. eigenvalues --    1.89926   1.90088   1.90256   1.90459   1.90792
 Alpha virt. eigenvalues --    1.91056   1.91276   1.91361   1.91613   1.91887
 Alpha virt. eigenvalues --    1.92146   1.92323   1.92552   1.92736   1.93130
 Alpha virt. eigenvalues --    1.93555   1.93595   1.93749   1.94078   1.94473
 Alpha virt. eigenvalues --    1.94838   1.95138   1.95209   1.95616   1.95800
 Alpha virt. eigenvalues --    1.95923   1.96177   1.96269   1.96382   1.96424
 Alpha virt. eigenvalues --    1.96697   1.96920   1.97018   1.97258   1.97466
 Alpha virt. eigenvalues --    1.97874   1.97892   1.98155   1.98265   1.98454
 Alpha virt. eigenvalues --    1.98591   1.98864   1.99352   1.99518   1.99575
 Alpha virt. eigenvalues --    1.99938   2.00219   2.00876   2.01037   2.01270
 Alpha virt. eigenvalues --    2.01517   2.01677   2.01791   2.01867   2.02067
 Alpha virt. eigenvalues --    2.02213   2.02545   2.02924   2.03137   2.03415
 Alpha virt. eigenvalues --    2.03498   2.03568   2.03672   2.03900   2.04246
 Alpha virt. eigenvalues --    2.04324   2.04472   2.05205   2.05352   2.05656
 Alpha virt. eigenvalues --    2.06016   2.06337   2.06529   2.07158   2.07220
 Alpha virt. eigenvalues --    2.07445   2.07757   2.08773   2.08979   2.09117
 Alpha virt. eigenvalues --    2.09328   2.09721   2.09863   2.11034   2.11182
 Alpha virt. eigenvalues --    2.11451   2.11644   2.11785   2.11844   2.12053
 Alpha virt. eigenvalues --    2.12145   2.12610   2.12765   2.12960   2.12990
 Alpha virt. eigenvalues --    2.13165   2.13543   2.13876   2.14027   2.14459
 Alpha virt. eigenvalues --    2.14625   2.15548   2.15865   2.15968   2.16508
 Alpha virt. eigenvalues --    2.16687   2.16961   2.17098   2.17421   2.17573
 Alpha virt. eigenvalues --    2.17804   2.18001   2.18213   2.18367   2.18436
 Alpha virt. eigenvalues --    2.18579   2.18908   2.19019   2.19507   2.19787
 Alpha virt. eigenvalues --    2.20069   2.20144   2.20385   2.20556   2.20683
 Alpha virt. eigenvalues --    2.21358   2.21645   2.21832   2.21964   2.22122
 Alpha virt. eigenvalues --    2.22148   2.22763   2.23041   2.23429   2.23812
 Alpha virt. eigenvalues --    2.24609   2.24921   2.25298   2.26156   2.26464
 Alpha virt. eigenvalues --    2.26677   2.26923   2.27202   2.27328   2.27753
 Alpha virt. eigenvalues --    2.28269   2.28710   2.29423   2.29721   2.29848
 Alpha virt. eigenvalues --    2.30089   2.30624   2.30826   2.30992   2.31074
 Alpha virt. eigenvalues --    2.31375   2.31700   2.32363   2.32668   2.33320
 Alpha virt. eigenvalues --    2.33440   2.33625   2.33876   2.34238   2.34860
 Alpha virt. eigenvalues --    2.35356   2.35604   2.35906   2.36102   2.36523
 Alpha virt. eigenvalues --    2.36679   2.36891   2.37124   2.37935   2.38372
 Alpha virt. eigenvalues --    2.38539   2.38840   2.38906   2.39182   2.39739
 Alpha virt. eigenvalues --    2.39942   2.40264   2.40613   2.40934   2.41090
 Alpha virt. eigenvalues --    2.41293   2.41498   2.41794   2.42029   2.42325
 Alpha virt. eigenvalues --    2.42562   2.43090   2.43165   2.43428   2.43636
 Alpha virt. eigenvalues --    2.44217   2.44434   2.44870   2.44941   2.45053
 Alpha virt. eigenvalues --    2.45312   2.45696   2.45903   2.46438   2.46475
 Alpha virt. eigenvalues --    2.46531   2.46740   2.46922   2.47005   2.47305
 Alpha virt. eigenvalues --    2.47755   2.47969   2.48321   2.49458   2.49808
 Alpha virt. eigenvalues --    2.50237   2.50446   2.50748   2.51160   2.51296
 Alpha virt. eigenvalues --    2.51522   2.51864   2.52033   2.52474   2.52611
 Alpha virt. eigenvalues --    2.52976   2.53392   2.54018   2.54256   2.54368
 Alpha virt. eigenvalues --    2.54553   2.54891   2.55321   2.55664   2.56034
 Alpha virt. eigenvalues --    2.58004   2.58345   2.58710   2.59252   2.60258
 Alpha virt. eigenvalues --    2.60462   2.60645   2.61088   2.61816   2.62067
 Alpha virt. eigenvalues --    2.62552   2.62674   2.63061   2.63412   2.64002
 Alpha virt. eigenvalues --    2.64386   2.64418   2.65009   2.65149   2.65469
 Alpha virt. eigenvalues --    2.65880   2.66056   2.66915   2.67000   2.67293
 Alpha virt. eigenvalues --    2.67492   2.68012   2.68588   2.68894   2.69053
 Alpha virt. eigenvalues --    2.69094   2.69278   2.69564   2.70051   2.70368
 Alpha virt. eigenvalues --    2.70454   2.71098   2.71330   2.72116   2.72195
 Alpha virt. eigenvalues --    2.72667   2.72684   2.72779   2.73045   2.73322
 Alpha virt. eigenvalues --    2.73436   2.73617   2.73730   2.74555   2.74820
 Alpha virt. eigenvalues --    2.75040   2.75299   2.76680   2.76900   2.77304
 Alpha virt. eigenvalues --    2.77430   2.77569   2.77783   2.78360   2.78419
 Alpha virt. eigenvalues --    2.78708   2.78989   2.79191   2.79396   2.80367
 Alpha virt. eigenvalues --    2.80389   2.80695   2.80863   2.81166   2.81386
 Alpha virt. eigenvalues --    2.81993   2.82161   2.82409   2.82705   2.83738
 Alpha virt. eigenvalues --    2.83910   2.84066   2.84084   2.84669   2.84815
 Alpha virt. eigenvalues --    2.84972   2.85289   2.85900   2.85998   2.87010
 Alpha virt. eigenvalues --    2.87036   2.87497   2.87680   2.88348   2.88370
 Alpha virt. eigenvalues --    2.88565   2.88998   2.89109   2.89423   2.90535
 Alpha virt. eigenvalues --    2.91174   2.91375   2.91806   2.93276   2.93532
 Alpha virt. eigenvalues --    2.94049   2.94568   2.94793   2.95031   2.95425
 Alpha virt. eigenvalues --    2.95660   2.95969   2.96114   2.96694   2.96869
 Alpha virt. eigenvalues --    2.97245   2.97802   2.97879   2.98309   2.98445
 Alpha virt. eigenvalues --    2.98492   2.98616   2.98694   2.98928   2.98987
 Alpha virt. eigenvalues --    2.99145   2.99791   2.99947   3.00044   3.00143
 Alpha virt. eigenvalues --    3.00366   3.00409   3.00645   3.01127   3.01252
 Alpha virt. eigenvalues --    3.02127   3.02199   3.02349   3.02650   3.02791
 Alpha virt. eigenvalues --    3.03057   3.03181   3.03480   3.03769   3.03937
 Alpha virt. eigenvalues --    3.04390   3.04501   3.04595   3.04955   3.05074
 Alpha virt. eigenvalues --    3.05425   3.05589   3.06034   3.06321   3.06489
 Alpha virt. eigenvalues --    3.07134   3.07301   3.08369   3.08397   3.09371
 Alpha virt. eigenvalues --    3.09807   3.10183   3.10568   3.10581   3.10967
 Alpha virt. eigenvalues --    3.11453   3.11887   3.12121   3.12391   3.12499
 Alpha virt. eigenvalues --    3.13325   3.13579   3.13779   3.13809   3.14071
 Alpha virt. eigenvalues --    3.14360   3.14590   3.16261   3.17357   3.17418
 Alpha virt. eigenvalues --    3.17803   3.18286   3.18652   3.19294   3.19697
 Alpha virt. eigenvalues --    3.22167   3.22727   3.24088   3.24618   3.24656
 Alpha virt. eigenvalues --    3.25357   3.26666   3.26876   3.27592   3.27669
 Alpha virt. eigenvalues --    3.28884   3.29333   3.31535   3.31567   3.33385
 Alpha virt. eigenvalues --    3.33472   3.40351   3.40512   3.42918   3.42957
 Alpha virt. eigenvalues --    3.48757   3.48874   3.50218   3.50491   3.51013
 Alpha virt. eigenvalues --    3.51600   3.56689   3.57191   3.59418   3.59583
 Alpha virt. eigenvalues --    3.62690   3.63013   3.66165   3.66362   3.67137
 Alpha virt. eigenvalues --    3.67646   3.73201   3.74139   3.76031   3.76805
          Condensed to atoms (all electrons):
 Mulliken charges:
               1
     1  Mg   0.808717
     2  C   -0.004309
     3  C   -0.092181
     4  C   -0.042949
     5  C   -0.063616
     6  N   -0.256036
     7  C   -0.057900
     8  C   -0.012976
     9  C   -0.087160
    10  C    0.046283
    11  C    0.104763
    12  C    0.049714
    13  C   -0.071871
    14  H    0.035493
    15  N   -0.430962
    16  C    0.168227
    17  C   -0.174082
    18  C   -0.000990
    19  C    0.148432
    20  C    0.109294
    21  C    0.016076
    22  O   -0.249686
    23  C    0.059131
    24  N   -0.336190
    25  C    0.040549
    26  C   -0.028524
    27  C   -0.023513
    28  C    0.074465
    29  C    0.076218
    30  C    0.034913
    31  C   -0.006354
    32  N   -0.309307
    33  C    0.078227
    34  C   -0.171853
    35  C    0.006608
    36  C    0.078331
    37  C    0.127643
    38  C    0.044179
    39  O   -0.188944
    40  C   -0.004903
    41  C    0.214807
    42  O   -0.261634
    43  O   -0.303526
    44  C    0.157326
    45  H   -0.017519
    46  H   -0.016532
    47  H   -0.042016
    48  H    0.000908
    49  H   -0.003526
    50  H    0.025648
    51  H    0.017177
    52  H    0.017033
    53  H    0.012167
    54  H    0.042474
    55  H    0.018696
    56  H    0.018999
    57  H    0.005187
    58  H    0.026449
    59  H    0.045853
    60  H    0.035656
    61  H    0.034884
    62  H    0.040849
    63  H    0.017483
    64  H    0.009282
    65  H    0.023508
    66  H    0.012399
    67  H    0.004916
    68  H    0.006519
    69  H    0.004796
    70  H    0.008921
    71  H    0.019534
    72  H    0.030491
    73  H    0.046599
    74  H    0.009826
    75  H    0.046141
    76  H    0.035826
    77  H    0.044199
    78  H    0.047106
    79  H    0.052578
    80  Mg   0.837248
    81  C   -0.017599
    82  C   -0.088468
    83  C   -0.045534
    84  C   -0.065714
    85  N   -0.254648
    86  C   -0.049768
    87  C   -0.015087
    88  C   -0.090399
    89  C    0.045499
    90  C    0.114612
    91  C    0.062625
    92  C   -0.077555
    93  H    0.034275
    94  N   -0.423189
    95  C    0.162461
    96  C   -0.175395
    97  C   -0.008874
    98  C    0.152132
    99  C    0.099592
   100  C    0.015660
   101  O   -0.256806
   102  C    0.061811
   103  N   -0.349788
   104  C    0.036633
   105  C   -0.021859
   106  C   -0.039284
   107  C    0.086020
   108  C    0.073653
   109  C    0.027756
   110  C   -0.031237
   111  N   -0.324206
   112  C    0.078752
   113  C   -0.162045
   114  C    0.001893
   115  C    0.096557
   116  C    0.130419
   117  C    0.042468
   118  O   -0.188053
   119  C    0.000975
   120  C    0.211162
   121  O   -0.251303
   122  O   -0.305642
   123  C    0.152205
   124  H   -0.020728
   125  H   -0.017477
   126  H   -0.031620
   127  H   -0.001013
   128  H   -0.004914
   129  H    0.022210
   130  H    0.014282
   131  H    0.015513
   132  H    0.013906
   133  H    0.037547
   134  H    0.020584
   135  H    0.019321
   136  H    0.008369
   137  H    0.024803
   138  H    0.039059
   139  H    0.037918
   140  H    0.033244
   141  H    0.034901
   142  H    0.013908
   143  H    0.023326
   144  H    0.022087
   145  H    0.009124
   146  H    0.009159
   147  H    0.021210
   148  H    0.020658
   149  H    0.013126
   150  H    0.042835
   151  H    0.026708
   152  H    0.045393
   153  H    0.014598
   154  H    0.046800
   155  H    0.034591
   156  H    0.043611
   157  H    0.049251
   158  H    0.053316
 Sum of Mulliken charges =  -0.00000
 Mulliken charges with hydrogens summed into heavy atoms:
               1
     1  Mg   0.808717
     2  C   -0.004309
     3  C   -0.109700
     4  C   -0.059481
     5  C   -0.105632
     6  N   -0.256036
     7  C   -0.057900
     8  C   -0.012068
     9  C   -0.090686
    10  C    0.046283
    11  C    0.164621
    12  C    0.104354
    13  C    0.001316
    15  N   -0.430962
    16  C    0.168227
    17  C   -0.174082
    18  C   -0.000990
    19  C    0.148432
    20  C    0.186783
    21  C    0.016076
    22  O   -0.249686
    23  C    0.170520
    24  N   -0.336190
    25  C    0.040549
    26  C   -0.011042
    27  C   -0.014232
    28  C    0.074465
    29  C    0.117041
    30  C    0.046228
    31  C    0.052592
    32  N   -0.309307
    33  C    0.078227
    34  C   -0.171853
    35  C    0.006608
    36  C    0.078331
    37  C    0.230210
    38  C    0.044179
    39  O   -0.188944
    40  C    0.030922
    41  C    0.214807
    42  O   -0.261634
    43  O   -0.303526
    44  C    0.301209
    80  Mg   0.837248
    81  C   -0.017599
    82  C   -0.109195
    83  C   -0.063011
    84  C   -0.097333
    85  N   -0.254648
    86  C   -0.049768
    87  C   -0.016100
    88  C   -0.095313
    89  C    0.045499
    90  C    0.166616
    91  C    0.114078
    92  C   -0.003374
    94  N   -0.423189
    95  C    0.162461
    96  C   -0.175395
    97  C   -0.008874
    98  C    0.152132
    99  C    0.171824
   100  C    0.015660
   101  O   -0.256806
   102  C    0.167874
   103  N   -0.349788
   104  C    0.036633
   105  C   -0.007950
   106  C   -0.015958
   107  C    0.086020
   108  C    0.114023
   109  C    0.069624
   110  C    0.051432
   111  N   -0.324206
   112  C    0.078752
   113  C   -0.162045
   114  C    0.001893
   115  C    0.096557
   116  C    0.237210
   117  C    0.042468
   118  O   -0.188053
   119  C    0.035565
   120  C    0.211162
   121  O   -0.251303
   122  O   -0.305642
   123  C    0.298383
 Electronic spatial extent (au):  <R**2>=         104978.2244
 Charge=             -0.0000 electrons
 Dipole moment (field-independent basis, Debye):
    X=              1.0686    Y=              6.5560    Z=             -4.2696  Tot=              7.8964
 Quadrupole moment (field-independent basis, Debye-Ang):
   XX=           -452.0018   YY=           -540.8163   ZZ=           -482.6763
   XY=            -28.6688   XZ=             -3.0307   YZ=             -6.7249
 Traceless Quadrupole moment (field-independent basis, Debye-Ang):
   XX=             39.8297   YY=            -48.9849   ZZ=              9.1552
   XY=            -28.6688   XZ=             -3.0307   YZ=             -6.7249
 Octapole moment (field-independent basis, Debye-Ang**2):
  XXX=           -369.4124  YYY=            315.9920  ZZZ=             33.9188  XYY=            -84.9083
  XXY=            351.4925  XXZ=           -171.2134  XZZ=            142.6047  YZZ=           -135.4538
  YYZ=           -186.5813  XYZ=            -55.1275
 Hexadecapole moment (field-independent basis, Debye-Ang**3):
 XXXX=         -83377.2423 YYYY=         -33207.2043 ZZZZ=         -18638.1173 XXXY=           -659.3309
 XXXZ=          -1522.1931 YYYX=           -506.4936 YYYZ=           -244.3732 ZZZX=           -158.2767
 ZZZY=            342.3428 XXYY=         -21201.7697 XXZZ=         -17400.5635 YYZZ=          -8446.8517
 XXYZ=           -609.6507 YYXZ=           -297.8433 ZZXY=           -443.9798
 N-N= 1.563445730094D+04 E-N=-4.075043876634D+04  KE= 4.028766967829D+03
 Leave Link  601 at Thu Sep  9 13:43:35 2021, MaxMem= 23488102400 cpu:              16.4 elap:               0.8
 (Enter /sw/apps/gaussian-16.0/g16/l9999.exe)
 1\1\GINC-BP1-COMPUTE00113\SP\RCAM-B3LYP TD-FC\def2SVP\C68H72Mg2N8O8\OF
 15641\09-Sep-2021\0\\#p cam-b3lyp/Def2SVP td=(nstates=5)\\TDDFT excite
 d states in gaussian\\0,1\Mg,0,0.,0.,0.\C,0,-0.217,-2.218,2.801\C,0,-1
 .255,2.442,2.026\C,0,-0.245,1.85,-2.564\C,0,0.146,-2.824,-2.037\N,0,-0
 .617,-0.009,2.126\C,0,-0.594,-0.908,3.105\C,0,-0.936,-0.309,4.502\C,0,
 -1.773,0.964,4.032\C,0,-1.155,1.168,2.66\C,0,-3.263,0.685,3.863\C,0,0.
 345,0.11,5.299\C,0,0.124,0.397,6.787\H,0,1.168,0.033,7.733\N,0,-0.185,
 1.961,-0.152\C,0,-0.703,2.8,0.777\C,0,-0.62,4.156,0.193\C,0,-0.187,4.0
 15,-1.225\C,0,-0.214,2.583,-1.38\C,0,-0.887,5.406,0.974\C,0,0.181,5.01
 3,-2.277\O,0,0.303,4.69,-3.508\C,0,0.31,6.414,-1.837\N,0,-0.265,-0.413
 ,-2.029\C,0,-0.279,0.569,-2.937\C,0,-0.196,0.024,-4.332\C,0,0.124,-1.5
 33,-4.18\C,0,0.086,-1.632,-2.635\C,0,-1.451,0.205,-5.197\C,0,1.373,-2.
 07,-4.923\C,0,2.626,-1.49,-4.306\N,0,0.15,-2.144,0.303\C,0,0.173,-3.13
 6,-0.688\C,0,0.173,-4.438,0.004\C,0,0.133,-4.111,1.358\C,0,0.083,-2.69
 5,1.502\C,0,0.149,-5.715,-0.623\C,0,0.096,-4.629,2.716\O,0,0.208,-5.74
 7,3.221\C,0,-0.255,-3.428,3.701\C,0,0.717,-3.482,4.848\O,0,1.931,-3.25
 5,4.669\O,0,0.038,-3.556,6.003\C,0,0.943,-3.583,7.183\H,0,-1.859,3.22,
 2.497\H,0,-0.218,2.453,-3.474\H,0,0.276,-3.747,-2.605\H,0,-1.554,-0.94
 9,5.132\H,0,-1.585,1.831,4.665\H,0,-3.484,-0.377,3.969\H,0,-3.511,1.02
 7,2.858\H,0,-3.852,1.301,4.543\H,0,0.669,1.096,4.966\H,0,1.13,-0.639,5
 .189\H,0,-0.844,0.026,7.125\H,0,0.062,1.477,6.921\H,0,-1.344,5.186,1.9
 38\H,0,-1.651,5.963,0.432\H,0,0.007,6.02,1.084\H,0,-0.635,6.744,-1.405
 \H,0,0.665,6.97,-2.704\H,0,1.048,6.466,-1.036\H,0,0.608,0.501,-4.891\H
 ,0,-0.692,-2.156,-4.547\H,0,-1.267,0.74,-6.129\H,0,-2.204,0.714,-4.596
 \H,0,-1.967,-0.72,-5.453\H,0,1.356,-1.759,-5.967\H,0,1.452,-3.157,-4.9
 02\H,0,2.714,-0.522,-4.798\H,0,3.487,-2.121,-4.529\H,0,2.495,-1.303,-3
 .24\H,0,0.867,-6.333,-0.084\H,0,0.404,-5.642,-1.68\H,0,-0.891,-5.999,-
 0.463\H,0,-1.283,-3.581,4.028\H,0,0.698,-4.478,7.755\H,0,0.833,-2.619,
 7.68\H,0,2.,-3.754,6.976\Mg,0,8.93822,0.80724,0.6693\C,0,11.64437,-1.5
 2544,0.33107\C,0,11.26227,3.29842,0.50395\C,0,6.64064,2.86468,1.41463\
 C,0,7.02058,-1.81366,1.93393\N,0,11.13829,0.76582,0.4452\C,0,12.05119,
 -0.17658,0.26401\C,0,13.46656,0.35742,-0.08402\C,0,13.33679,1.82171,0.
 56244\C,0,11.82233,1.99639,0.46991\C,0,13.73446,1.86979,2.02835\C,0,13
 .71315,0.43263,-1.63177\C,0,15.17169,0.64963,-2.04081\H,0,15.65758,0.0
 0167,-3.25594\N,0,8.85521,2.77711,0.44287\C,0,9.8965,3.63271,0.37255\C
 ,0,9.30709,4.97261,0.22626\C,0,7.83165,4.85554,0.38147\C,0,7.71804,3.4
 674,0.78177\C,0,10.12137,6.1871,-0.11347\C,0,6.7098,5.83474,0.21174\O,
 0,5.52509,5.58048,0.62964\C,0,7.05942,7.1372,-0.37382\N,0,7.16738,0.61
 568,1.74158\C,0,6.32275,1.65365,1.87253\C,0,4.99666,1.20933,2.44213\C,
 0,5.04242,-0.38926,2.44067\C,0,6.48505,-0.60066,1.93125\C,0,4.67744,1.
 70778,3.8514\C,0,3.88561,-1.12577,1.71128\C,0,3.96727,-0.86929,0.22369
 \N,0,9.18092,-1.32722,0.90005\C,0,8.26404,-2.23241,1.47801\C,0,8.92185
 ,-3.55467,1.51442\C,0,10.19438,-3.32038,0.97193\C,0,10.32797,-1.94489,
 0.64076\C,0,8.3595,-4.74922,2.04633\C,0,11.45882,-3.92181,0.61395\O,0,
 11.89691,-5.07115,0.58528\C,0,12.49924,-2.76191,0.29999\C,0,13.1962,-3
 .0996,-0.98947\O,0,12.56401,-3.13213,-2.05994\O,0,14.5254,-3.11434,-0.
 78118\C,0,15.26067,-3.43379,-2.03383\H,0,11.92523,4.14365,0.69096\H,0,
 5.77738,3.50997,1.59312\H,0,6.45387,-2.70134,2.22296\H,0,14.2828,-0.18
 297,0.38022\H,0,13.84438,2.56751,-0.04377\H,0,13.92668,0.88444,2.42618
 \H,0,12.90193,2.33023,2.54404\H,0,14.58458,2.54401,2.16639\H,0,13.2693
 1,1.35818,-2.0205\H,0,13.32628,-0.43949,-2.12204\H,0,15.86379,0.47361,
 -1.20836\H,0,15.31001,1.70553,-2.28567\H,0,11.19571,5.99498,-0.00264\H
 ,0,9.9007,6.94321,0.64775\H,0,9.87926,6.59486,-1.09723\H,0,7.81406,7.6
 1953,0.24289\H,0,6.11219,7.66571,-0.49751\H,0,7.51609,6.96822,-1.3554\
 H,0,4.17687,1.53799,1.81521\H,0,5.00621,-0.79885,3.46085\H,0,3.72717,2
 .27134,3.91022\H,0,5.50312,2.31785,4.19286\H,0,4.63067,0.9337,4.61548\
 H,0,2.92005,-0.73456,2.04114\H,0,3.87638,-2.19629,1.88706\H,0,3.47001,
 0.09894,0.11255\H,0,3.44409,-1.64739,-0.32848\H,0,5.00785,-0.74424,-0.
 09758\H,0,8.59211,-5.54116,1.3469\H,0,7.28611,-4.65151,2.19487\H,0,8.9
 0077,-4.81446,2.99398\H,0,13.19392,-2.70897,1.13916\H,0,15.89539,-4.29
 926,-1.81987\H,0,15.76928,-2.49678,-2.32893\H,0,14.68283,-3.79813,-2.8
 7514\\Version=ES64L-G16RevA.03\State=1-A\HF=-4069.815897\RMSD=5.632e-0
 9\PG=C01 [X(C68H72Mg2N8O8)]\\@


 FROM WHENCE IT HAPPENS, THAT THEY WHICH TRUST TO BOOKS, DO AS THEY THAT CAST UP MANY LITTLE SUMMS INTO GREATER,
 WITHOUT CONSIDERING WETHER THOSE LITTLE SUMMES WERE RIGHTLY CAST UP OR NOT...
 AND AT LAST FINDING THE ERROUR VISIBLE, AND NOT MISTRUSTING THEIR FIRST GROUNDS,
 KNOW NOT WHICH WAY TO CLEERE THEMSELVES...
 BUT SPEND TIME IN FLUTTERING OVER THEIR BOOKES....
 AS BIRDS THAT ENTERING BY THE CHIMNEY, AND FINDING THEMSELVES INCLOSED IN A CHAMBER,
 FLUTTER AT THE FALSE LIGHT OF A GLASSE WINDOW,
 FOR WANT OF WIT TO CONSIDER WHICH WAY THEY CAME IN....
           LEVIATHAN
 Job cpu time:       0 days 17 hours 14 minutes 57.8 seconds.
 Elapsed time:       0 days  0 hours 43 minutes 51.6 seconds.
 File lengths (MBytes):  RWF=  13225 Int=      0 D2E=      0 Chk=    574 Scr=      1
 Normal termination of Gaussian 16 at Thu Sep  9 13:43:36 2021.
