 Entering Gaussian System, Link 0=g16
 Initial command:
 /sw/apps/gaussian-16.0/g16/l1.exe "/tmp/Gau-233090.inp" -scrdir="/tmp/"
 Entering Link 1 = /sw/apps/gaussian-16.0/g16/l1.exe PID=    233091.
  
 Copyright (c) 1988,1990,1992,1993,1995,1998,2003,2009,2016,
            Gaussian, Inc.  All Rights Reserved.
  
 This is part of the Gaussian(R) 16 program.  It is based on
 the Gaussian(R) 09 system (copyright 2009, Gaussian, Inc.),
 the Gaussian(R) 03 system (copyright 2003, Gaussian, Inc.),
 the Gaussian(R) 98 system (copyright 1998, Gaussian, Inc.),
 the Gaussian(R) 94 system (copyright 1995, Gaussian, Inc.),
 the Gaussian 92(TM) system (copyright 1992, Gaussian, Inc.),
 the Gaussian 90(TM) system (copyright 1990, Gaussian, Inc.),
 the Gaussian 88(TM) system (copyright 1988, Gaussian, Inc.),
 the Gaussian 86(TM) system (copyright 1986, Carnegie Mellon
 University), and the Gaussian 82(TM) system (copyright 1983,
 Carnegie Mellon University). Gaussian is a federally registered
 trademark of Gaussian, Inc.
  
 This software contains proprietary and confidential information,
 including trade secrets, belonging to Gaussian, Inc.
  
 This software is provided under written license and may be
 used, copied, transmitted, or stored only in accord with that
 written license.
  
 The following legend is applicable only to US Government
 contracts under FAR:
  
                    RESTRICTED RIGHTS LEGEND
  
 Use, reproduction and disclosure by the US Government is
 subject to restrictions as set forth in subparagraphs (a)
 and (c) of the Commercial Computer Software - Restricted
 Rights clause in FAR 52.227-19.
  
 Gaussian, Inc.
 340 Quinnipiac St., Bldg. 40, Wallingford CT 06492
  
  
 ---------------------------------------------------------------
 Warning -- This program may not be used in any manner that
 competes with the business of Gaussian, Inc. or will provide
 assistance to any competitor of Gaussian, Inc.  The licensee
 of this program is prohibited from giving any competitor of
 Gaussian, Inc. access to this program.  By using this program,
 the user acknowledges that Gaussian, Inc. is engaged in the
 business of creating and licensing software in the field of
 computational chemistry and represents and warrants to the
 licensee that it is not a competitor of Gaussian, Inc. and that
 it will not use this program in any manner prohibited above.
 ---------------------------------------------------------------
  

 Cite this work as:
 Gaussian 16, Revision A.03,
 M. J. Frisch, G. W. Trucks, H. B. Schlegel, G. E. Scuseria, 
 M. A. Robb, J. R. Cheeseman, G. Scalmani, V. Barone, 
 G. A. Petersson, H. Nakatsuji, X. Li, M. Caricato, A. V. Marenich, 
 J. Bloino, B. G. Janesko, R. Gomperts, B. Mennucci, H. P. Hratchian, 
 J. V. Ortiz, A. F. Izmaylov, J. L. Sonnenberg, D. Williams-Young, 
 F. Ding, F. Lipparini, F. Egidi, J. Goings, B. Peng, A. Petrone, 
 T. Henderson, D. Ranasinghe, V. G. Zakrzewski, J. Gao, N. Rega, 
 G. Zheng, W. Liang, M. Hada, M. Ehara, K. Toyota, R. Fukuda, 
 J. Hasegawa, M. Ishida, T. Nakajima, Y. Honda, O. Kitao, H. Nakai, 
 T. Vreven, K. Throssell, J. A. Montgomery, Jr., J. E. Peralta, 
 F. Ogliaro, M. J. Bearpark, J. J. Heyd, E. N. Brothers, K. N. Kudin, 
 V. N. Staroverov, T. A. Keith, R. Kobayashi, J. Normand, 
 K. Raghavachari, A. P. Rendell, J. C. Burant, S. S. Iyengar, 
 J. Tomasi, M. Cossi, J. M. Millam, M. Klene, C. Adamo, R. Cammi, 
 J. W. Ochterski, R. L. Martin, K. Morokuma, O. Farkas, 
 J. B. Foresman, and D. J. Fox, Gaussian, Inc., Wallingford CT, 2016.
 
 ******************************************
 Gaussian 16:  ES64L-G16RevA.03 25-Dec-2016
                11-Sep-2021 
 ******************************************
 %nproc=24
 Will use up to   24 processors via shared memory.
 %mem=175gb
 -----------------------------------
 #p cam-b3lyp/Def2SVP td=(nstates=5)
 -----------------------------------
 1/38=1,172=1/1;
 2/12=2,17=6,18=5,40=1/2;
 3/5=43,7=101,11=9,25=1,30=1,74=-40/1,2,3,8;
 4//1;
 5/5=2,38=5/2;
 8/6=1,10=1,108=5/1;
 9/41=5,42=1,70=2/14;
 6/7=2,8=2,9=2,10=2/1;
 99/5=1,9=1/99;
 Leave Link    1 at Sat Sep 11 22:21:04 2021, MaxMem= 23488102400 cpu:               0.5 elap:               0.0
 (Enter /sw/apps/gaussian-16.0/g16/l101.exe)
 --------------------------------
 TDDFT excited states in gaussian
 --------------------------------
 Symbolic Z-matrix:
 Charge =  0 Multiplicity = 1
 Mg                    0.        0.        0. 
 C                    -0.217    -2.218     2.801 
 C                    -1.255     2.442     2.026 
 C                    -0.245     1.85     -2.564 
 C                     0.146    -2.824    -2.037 
 N                    -0.617    -0.009     2.126 
 C                    -0.594    -0.908     3.105 
 C                    -0.936    -0.309     4.502 
 C                    -1.773     0.964     4.032 
 C                    -1.155     1.168     2.66 
 C                    -3.263     0.685     3.863 
 C                     0.345     0.11      5.299 
 C                     0.124     0.397     6.787 
 H                     1.168     0.033     7.733 
 N                    -0.185     1.961    -0.152 
 C                    -0.703     2.8       0.777 
 C                    -0.62      4.156     0.193 
 C                    -0.187     4.015    -1.225 
 C                    -0.214     2.583    -1.38 
 C                    -0.887     5.406     0.974 
 C                     0.181     5.013    -2.277 
 O                     0.303     4.69     -3.508 
 C                     0.31      6.414    -1.837 
 N                    -0.265    -0.413    -2.029 
 C                    -0.279     0.569    -2.937 
 C                    -0.196     0.024    -4.332 
 C                     0.124    -1.533    -4.18 
 C                     0.086    -1.632    -2.635 
 C                    -1.451     0.205    -5.197 
 C                     1.373    -2.07     -4.923 
 C                     2.626    -1.49     -4.306 
 N                     0.15     -2.144     0.303 
 C                     0.173    -3.136    -0.688 
 C                     0.173    -4.438     0.004 
 C                     0.133    -4.111     1.358 
 C                     0.083    -2.695     1.502 
 C                     0.149    -5.715    -0.623 
 C                     0.096    -4.629     2.716 
 O                     0.208    -5.747     3.221 
 C                    -0.255    -3.428     3.701 
 C                     0.717    -3.482     4.848 
 O                     1.931    -3.255     4.669 
 O                     0.038    -3.556     6.003 
 C                     0.943    -3.583     7.183 
 H                    -1.859     3.22      2.497 
 H                    -0.218     2.453    -3.474 
 H                     0.276    -3.747    -2.605 
 H                    -1.554    -0.949     5.132 
 H                    -1.585     1.831     4.665 
 H                    -3.484    -0.377     3.969 
 H                    -3.511     1.027     2.858 
 H                    -3.852     1.301     4.543 
 H                     0.669     1.096     4.966 
 H                     1.13     -0.639     5.189 
 H                    -0.844     0.026     7.125 
 H                     0.062     1.477     6.921 
 H                    -1.344     5.186     1.938 
 H                    -1.651     5.963     0.432 
 H                     0.007     6.02      1.084 
 H                    -0.635     6.744    -1.405 
 H                     0.665     6.97     -2.704 
 H                     1.048     6.466    -1.036 
 H                     0.608     0.501    -4.891 
 H                    -0.692    -2.156    -4.547 
 H                    -1.267     0.74     -6.129 
 H                    -2.204     0.714    -4.596 
 H                    -1.967    -0.72     -5.453 
 H                     1.356    -1.759    -5.967 
 H                     1.452    -3.157    -4.902 
 H                     2.714    -0.522    -4.798 
 H                     3.487    -2.121    -4.529 
 H                     2.495    -1.303    -3.24 
 H                     0.867    -6.333    -0.084 
 H                     0.404    -5.642    -1.68 
 H                    -0.891    -5.999    -0.463 
 H                    -1.283    -3.581     4.028 
 H                     0.698    -4.478     7.755 
 H                     0.833    -2.619     7.68 
 H                     2.       -3.754     6.976 
 Mg                    15.7599   1.4144    1.20449 
 C                     15.00008   4.07216   3.49317 
 C                     17.08652  -0.2828    3.84914 
 C                     16.84464  -0.74419  -0.85251 
 C                     15.43416   3.7319   -1.37791 
 N                     15.95836   1.9323    3.34567 
 C                     15.57773   2.94371   4.11152 
 C                     15.75701   2.70055   5.63411 
 C                     16.91625   1.59135   5.56563 
 C                     16.6208   1.01407   4.18283 
 C                     18.31559   2.18367   5.54691 
 C                     14.45763   2.1327    6.3058 
 C                     14.45903   2.16228   7.83579 
 H                     13.20023   2.42436   8.52804 
 N                     16.3614  -0.45347   1.50084 
 C                     16.85086  -0.97915   2.64337 
 C                     17.16633  -2.3831    2.33748 
 C                     16.97742  -2.5989    0.87719 
 C                     16.73528  -1.23898   0.43891 
 C                     17.52238  -3.38632   3.39588 
 C                     17.02169  -3.82444   0.01564 
 O                     17.06434  -3.74742  -1.26307 
 C                     17.10791  -5.11474   0.71506 
 N                     16.30029   1.52369  -0.8001 
 C                     16.68881   0.42586  -1.47221 
 C                     16.7608   0.69219  -2.95689 
 C                     16.10379   2.13504  -3.16689 
 C                     15.83484   2.50767  -1.69238 
 C                     18.16165   0.67729  -3.56827 
 C                     14.93047   2.23338  -4.17997 
 C                     13.72885   1.48292  -3.65244 
 N                     15.12397   3.47206   1.03225 
 C                     15.08906   4.25879  -0.1399 
 C                     14.69606   5.62442   0.2639 
 C                     14.55081   5.54237   1.65697 
 C                     14.85297   4.22406   2.09316 
 C                     14.56682   6.74416  -0.60535 
 C                     14.2209   6.2739    2.85894 
 O                     13.80039   7.40479   3.09975 
 C                     14.61986   5.38675   4.11599 
 C                     13.46368   5.39786   5.07809 
 O                     12.37842   4.87563   4.76809 
 O                     13.89366   5.82668   6.27876 
 C                     12.78504   5.84465   7.26995 
 H                     17.72925  -0.80221   4.56048 
 H                     17.10876  -1.4778   -1.61772 
 H                     15.21551   4.48727  -2.13573 
 H                     16.09949   3.5622    6.1945 
 H                     16.78256   0.83245   6.33216 
 H                     18.29634   3.26013   5.46326 
 H                     18.80872   1.74625   4.6887 
 H                     18.87899   1.84743   6.42204 
 H                     14.41265   1.04879   6.13888 
 H                     13.58598   2.63637   5.93544 
 H                     15.25714   2.79993   8.235 
 H                     14.70607   1.16283   8.20197 
 H                     17.74385  -2.89928   4.35355 
 H                     18.4723  -3.84275   3.0972 
 H                     16.77084  -4.17158   3.50178 
 H                     17.99946  -5.12927   1.33746 
 H                     17.03878  -5.87525  -0.06515 
 H                     16.25045  -5.20406   1.39138 
 H                     16.1849  -0.03998  -3.5095 
 H                     16.83447   2.86406  -3.547 
 H                     18.26892  -0.04893  -4.39601 
 H                     18.87479   0.4663   -2.78248 
 H                     18.511    1.63679  -3.94578 
 H                     15.20439   1.75628  -5.12417 
 H                     14.64025   3.25377  -4.40705 
 H                     13.93852   0.4482   -3.93963 
 H                     12.81547   1.845    -4.12008 
 H                     13.69127   1.51996  -2.55751 
 H                     13.65925   7.25823  -0.31804 
 H                     14.53708   6.43635  -1.64849 
 H                     15.48501   7.28599  -0.36328 
 H                     15.51959   5.82245   4.55215 
 H                     12.73549   6.85991   7.6755 
 H                     13.00783   5.02804   7.98218 
 H                     11.77603   5.71691   6.89573 
 
 ITRead=  0  0  0  0  0  0  0  0  0  0  0  0  0  0  0  0  0  0  0  0
 ITRead=  0  0  0  0  0  0  0  0  0  0  0  0  0  0  0  0  0  0  0  0
 ITRead=  0  0  0  0  0  0  0  0  0  0  0  0  0  0  0  0  0  0  0  0
 ITRead=  0  0  0  0  0  0  0  0  0  0  0  0  0  0  0  0  0  0  0  0
 ITRead=  0  0  0  0  0  0  0  0  0  0  0  0  0  0  0  0  0  0  0  0
 ITRead=  0  0  0  0  0  0  0  0  0  0  0  0  0  0  0  0  0  0  0  0
 ITRead=  0  0  0  0  0  0  0  0  0  0  0  0  0  0  0  0  0  0  0  0
 ITRead=  0  0  0  0  0  0  0  0  0  0  0  0  0  0  0  0  0  0
 MicOpt= -1 -1 -1 -1 -1 -1 -1 -1 -1 -1 -1 -1 -1 -1 -1 -1 -1 -1 -1 -1
 MicOpt= -1 -1 -1 -1 -1 -1 -1 -1 -1 -1 -1 -1 -1 -1 -1 -1 -1 -1 -1 -1
 MicOpt= -1 -1 -1 -1 -1 -1 -1 -1 -1 -1 -1 -1 -1 -1 -1 -1 -1 -1 -1 -1
 MicOpt= -1 -1 -1 -1 -1 -1 -1 -1 -1 -1 -1 -1 -1 -1 -1 -1 -1 -1 -1 -1
 MicOpt= -1 -1 -1 -1 -1 -1 -1 -1 -1 -1 -1 -1 -1 -1 -1 -1 -1 -1 -1 -1
 MicOpt= -1 -1 -1 -1 -1 -1 -1 -1 -1 -1 -1 -1 -1 -1 -1 -1 -1 -1 -1 -1
 MicOpt= -1 -1 -1 -1 -1 -1 -1 -1 -1 -1 -1 -1 -1 -1 -1 -1 -1 -1 -1 -1
 MicOpt= -1 -1 -1 -1 -1 -1 -1 -1 -1 -1 -1 -1 -1 -1 -1 -1 -1 -1
 NAtoms=    158 NQM=      158 NQMF=       0 NMMI=      0 NMMIF=      0
                NMic=       0 NMicF=      0.
                    Isotopes and Nuclear Properties:
 (Nuclear quadrupole moments (NQMom) in fm**2, nuclear magnetic moments (NMagM)
  in nuclear magnetons)

  Atom         1           2           3           4           5           6           7           8           9          10
 IAtWgt=          24          12          12          12          12          14          12          12          12          12
 AtmWgt=  23.9850450  12.0000000  12.0000000  12.0000000  12.0000000  14.0030740  12.0000000  12.0000000  12.0000000  12.0000000
 NucSpn=           0           0           0           0           0           2           0           0           0           0
 AtZEff=  -0.0000000  -0.0000000  -0.0000000  -0.0000000  -0.0000000  -0.0000000  -0.0000000  -0.0000000  -0.0000000  -0.0000000
 NQMom=    0.0000000   0.0000000   0.0000000   0.0000000   0.0000000   2.0440000   0.0000000   0.0000000   0.0000000   0.0000000
 NMagM=    0.0000000   0.0000000   0.0000000   0.0000000   0.0000000   0.4037610   0.0000000   0.0000000   0.0000000   0.0000000
 AtZNuc=  12.0000000   6.0000000   6.0000000   6.0000000   6.0000000   7.0000000   6.0000000   6.0000000   6.0000000   6.0000000

  Atom        11          12          13          14          15          16          17          18          19          20
 IAtWgt=          12          12          12           1          14          12          12          12          12          12
 AtmWgt=  12.0000000  12.0000000  12.0000000   1.0078250  14.0030740  12.0000000  12.0000000  12.0000000  12.0000000  12.0000000
 NucSpn=           0           0           0           1           2           0           0           0           0           0
 AtZEff=  -0.0000000  -0.0000000  -0.0000000  -0.0000000  -0.0000000  -0.0000000  -0.0000000  -0.0000000  -0.0000000  -0.0000000
 NQMom=    0.0000000   0.0000000   0.0000000   0.0000000   2.0440000   0.0000000   0.0000000   0.0000000   0.0000000   0.0000000
 NMagM=    0.0000000   0.0000000   0.0000000   2.7928460   0.4037610   0.0000000   0.0000000   0.0000000   0.0000000   0.0000000
 AtZNuc=   6.0000000   6.0000000   6.0000000   1.0000000   7.0000000   6.0000000   6.0000000   6.0000000   6.0000000   6.0000000

  Atom        21          22          23          24          25          26          27          28          29          30
 IAtWgt=          12          16          12          14          12          12          12          12          12          12
 AtmWgt=  12.0000000  15.9949146  12.0000000  14.0030740  12.0000000  12.0000000  12.0000000  12.0000000  12.0000000  12.0000000
 NucSpn=           0           0           0           2           0           0           0           0           0           0
 AtZEff=  -0.0000000  -0.0000000  -0.0000000  -0.0000000  -0.0000000  -0.0000000  -0.0000000  -0.0000000  -0.0000000  -0.0000000
 NQMom=    0.0000000   0.0000000   0.0000000   2.0440000   0.0000000   0.0000000   0.0000000   0.0000000   0.0000000   0.0000000
 NMagM=    0.0000000   0.0000000   0.0000000   0.4037610   0.0000000   0.0000000   0.0000000   0.0000000   0.0000000   0.0000000
 AtZNuc=   6.0000000   8.0000000   6.0000000   7.0000000   6.0000000   6.0000000   6.0000000   6.0000000   6.0000000   6.0000000

  Atom        31          32          33          34          35          36          37          38          39          40
 IAtWgt=          12          14          12          12          12          12          12          12          16          12
 AtmWgt=  12.0000000  14.0030740  12.0000000  12.0000000  12.0000000  12.0000000  12.0000000  12.0000000  15.9949146  12.0000000
 NucSpn=           0           2           0           0           0           0           0           0           0           0
 AtZEff=  -0.0000000  -0.0000000  -0.0000000  -0.0000000  -0.0000000  -0.0000000  -0.0000000  -0.0000000  -0.0000000  -0.0000000
 NQMom=    0.0000000   2.0440000   0.0000000   0.0000000   0.0000000   0.0000000   0.0000000   0.0000000   0.0000000   0.0000000
 NMagM=    0.0000000   0.4037610   0.0000000   0.0000000   0.0000000   0.0000000   0.0000000   0.0000000   0.0000000   0.0000000
 AtZNuc=   6.0000000   7.0000000   6.0000000   6.0000000   6.0000000   6.0000000   6.0000000   6.0000000   8.0000000   6.0000000

  Atom        41          42          43          44          45          46          47          48          49          50
 IAtWgt=          12          16          16          12           1           1           1           1           1           1
 AtmWgt=  12.0000000  15.9949146  15.9949146  12.0000000   1.0078250   1.0078250   1.0078250   1.0078250   1.0078250   1.0078250
 NucSpn=           0           0           0           0           1           1           1           1           1           1
 AtZEff=  -0.0000000  -0.0000000  -0.0000000  -0.0000000  -0.0000000  -0.0000000  -0.0000000  -0.0000000  -0.0000000  -0.0000000
 NQMom=    0.0000000   0.0000000   0.0000000   0.0000000   0.0000000   0.0000000   0.0000000   0.0000000   0.0000000   0.0000000
 NMagM=    0.0000000   0.0000000   0.0000000   0.0000000   2.7928460   2.7928460   2.7928460   2.7928460   2.7928460   2.7928460
 AtZNuc=   6.0000000   8.0000000   8.0000000   6.0000000   1.0000000   1.0000000   1.0000000   1.0000000   1.0000000   1.0000000

  Atom        51          52          53          54          55          56          57          58          59          60
 IAtWgt=           1           1           1           1           1           1           1           1           1           1
 AtmWgt=   1.0078250   1.0078250   1.0078250   1.0078250   1.0078250   1.0078250   1.0078250   1.0078250   1.0078250   1.0078250
 NucSpn=           1           1           1           1           1           1           1           1           1           1
 AtZEff=  -0.0000000  -0.0000000  -0.0000000  -0.0000000  -0.0000000  -0.0000000  -0.0000000  -0.0000000  -0.0000000  -0.0000000
 NQMom=    0.0000000   0.0000000   0.0000000   0.0000000   0.0000000   0.0000000   0.0000000   0.0000000   0.0000000   0.0000000
 NMagM=    2.7928460   2.7928460   2.7928460   2.7928460   2.7928460   2.7928460   2.7928460   2.7928460   2.7928460   2.7928460
 AtZNuc=   1.0000000   1.0000000   1.0000000   1.0000000   1.0000000   1.0000000   1.0000000   1.0000000   1.0000000   1.0000000

  Atom        61          62          63          64          65          66          67          68          69          70
 IAtWgt=           1           1           1           1           1           1           1           1           1           1
 AtmWgt=   1.0078250   1.0078250   1.0078250   1.0078250   1.0078250   1.0078250   1.0078250   1.0078250   1.0078250   1.0078250
 NucSpn=           1           1           1           1           1           1           1           1           1           1
 AtZEff=  -0.0000000  -0.0000000  -0.0000000  -0.0000000  -0.0000000  -0.0000000  -0.0000000  -0.0000000  -0.0000000  -0.0000000
 NQMom=    0.0000000   0.0000000   0.0000000   0.0000000   0.0000000   0.0000000   0.0000000   0.0000000   0.0000000   0.0000000
 NMagM=    2.7928460   2.7928460   2.7928460   2.7928460   2.7928460   2.7928460   2.7928460   2.7928460   2.7928460   2.7928460
 AtZNuc=   1.0000000   1.0000000   1.0000000   1.0000000   1.0000000   1.0000000   1.0000000   1.0000000   1.0000000   1.0000000

  Atom        71          72          73          74          75          76          77          78          79          80
 IAtWgt=           1           1           1           1           1           1           1           1           1          24
 AtmWgt=   1.0078250   1.0078250   1.0078250   1.0078250   1.0078250   1.0078250   1.0078250   1.0078250   1.0078250  23.9850450
 NucSpn=           1           1           1           1           1           1           1           1           1           0
 AtZEff=  -0.0000000  -0.0000000  -0.0000000  -0.0000000  -0.0000000  -0.0000000  -0.0000000  -0.0000000  -0.0000000  -0.0000000
 NQMom=    0.0000000   0.0000000   0.0000000   0.0000000   0.0000000   0.0000000   0.0000000   0.0000000   0.0000000   0.0000000
 NMagM=    2.7928460   2.7928460   2.7928460   2.7928460   2.7928460   2.7928460   2.7928460   2.7928460   2.7928460   0.0000000
 AtZNuc=   1.0000000   1.0000000   1.0000000   1.0000000   1.0000000   1.0000000   1.0000000   1.0000000   1.0000000  12.0000000

  Atom        81          82          83          84          85          86          87          88          89          90
 IAtWgt=          12          12          12          12          14          12          12          12          12          12
 AtmWgt=  12.0000000  12.0000000  12.0000000  12.0000000  14.0030740  12.0000000  12.0000000  12.0000000  12.0000000  12.0000000
 NucSpn=           0           0           0           0           2           0           0           0           0           0
 AtZEff=  -0.0000000  -0.0000000  -0.0000000  -0.0000000  -0.0000000  -0.0000000  -0.0000000  -0.0000000  -0.0000000  -0.0000000
 NQMom=    0.0000000   0.0000000   0.0000000   0.0000000   2.0440000   0.0000000   0.0000000   0.0000000   0.0000000   0.0000000
 NMagM=    0.0000000   0.0000000   0.0000000   0.0000000   0.4037610   0.0000000   0.0000000   0.0000000   0.0000000   0.0000000
 AtZNuc=   6.0000000   6.0000000   6.0000000   6.0000000   7.0000000   6.0000000   6.0000000   6.0000000   6.0000000   6.0000000

  Atom        91          92          93          94          95          96          97          98          99         100
 IAtWgt=          12          12           1          14          12          12          12          12          12          12
 AtmWgt=  12.0000000  12.0000000   1.0078250  14.0030740  12.0000000  12.0000000  12.0000000  12.0000000  12.0000000  12.0000000
 NucSpn=           0           0           1           2           0           0           0           0           0           0
 AtZEff=  -0.0000000  -0.0000000  -0.0000000  -0.0000000  -0.0000000  -0.0000000  -0.0000000  -0.0000000  -0.0000000  -0.0000000
 NQMom=    0.0000000   0.0000000   0.0000000   2.0440000   0.0000000   0.0000000   0.0000000   0.0000000   0.0000000   0.0000000
 NMagM=    0.0000000   0.0000000   2.7928460   0.4037610   0.0000000   0.0000000   0.0000000   0.0000000   0.0000000   0.0000000
 AtZNuc=   6.0000000   6.0000000   1.0000000   7.0000000   6.0000000   6.0000000   6.0000000   6.0000000   6.0000000   6.0000000

  Atom       101         102         103         104         105         106         107         108         109         110
 IAtWgt=          16          12          14          12          12          12          12          12          12          12
 AtmWgt=  15.9949146  12.0000000  14.0030740  12.0000000  12.0000000  12.0000000  12.0000000  12.0000000  12.0000000  12.0000000
 NucSpn=           0           0           2           0           0           0           0           0           0           0
 AtZEff=  -0.0000000  -0.0000000  -0.0000000  -0.0000000  -0.0000000  -0.0000000  -0.0000000  -0.0000000  -0.0000000  -0.0000000
 NQMom=    0.0000000   0.0000000   2.0440000   0.0000000   0.0000000   0.0000000   0.0000000   0.0000000   0.0000000   0.0000000
 NMagM=    0.0000000   0.0000000   0.4037610   0.0000000   0.0000000   0.0000000   0.0000000   0.0000000   0.0000000   0.0000000
 AtZNuc=   8.0000000   6.0000000   7.0000000   6.0000000   6.0000000   6.0000000   6.0000000   6.0000000   6.0000000   6.0000000

  Atom       111         112         113         114         115         116         117         118         119         120
 IAtWgt=          14          12          12          12          12          12          12          16          12          12
 AtmWgt=  14.0030740  12.0000000  12.0000000  12.0000000  12.0000000  12.0000000  12.0000000  15.9949146  12.0000000  12.0000000
 NucSpn=           2           0           0           0           0           0           0           0           0           0
 AtZEff=  -0.0000000  -0.0000000  -0.0000000  -0.0000000  -0.0000000  -0.0000000  -0.0000000  -0.0000000  -0.0000000  -0.0000000
 NQMom=    2.0440000   0.0000000   0.0000000   0.0000000   0.0000000   0.0000000   0.0000000   0.0000000   0.0000000   0.0000000
 NMagM=    0.4037610   0.0000000   0.0000000   0.0000000   0.0000000   0.0000000   0.0000000   0.0000000   0.0000000   0.0000000
 AtZNuc=   7.0000000   6.0000000   6.0000000   6.0000000   6.0000000   6.0000000   6.0000000   8.0000000   6.0000000   6.0000000

  Atom       121         122         123         124         125         126         127         128         129         130
 IAtWgt=          16          16          12           1           1           1           1           1           1           1
 AtmWgt=  15.9949146  15.9949146  12.0000000   1.0078250   1.0078250   1.0078250   1.0078250   1.0078250   1.0078250   1.0078250
 NucSpn=           0           0           0           1           1           1           1           1           1           1
 AtZEff=  -0.0000000  -0.0000000  -0.0000000  -0.0000000  -0.0000000  -0.0000000  -0.0000000  -0.0000000  -0.0000000  -0.0000000
 NQMom=    0.0000000   0.0000000   0.0000000   0.0000000   0.0000000   0.0000000   0.0000000   0.0000000   0.0000000   0.0000000
 NMagM=    0.0000000   0.0000000   0.0000000   2.7928460   2.7928460   2.7928460   2.7928460   2.7928460   2.7928460   2.7928460
 AtZNuc=   8.0000000   8.0000000   6.0000000   1.0000000   1.0000000   1.0000000   1.0000000   1.0000000   1.0000000   1.0000000

  Atom       131         132         133         134         135         136         137         138         139         140
 IAtWgt=           1           1           1           1           1           1           1           1           1           1
 AtmWgt=   1.0078250   1.0078250   1.0078250   1.0078250   1.0078250   1.0078250   1.0078250   1.0078250   1.0078250   1.0078250
 NucSpn=           1           1           1           1           1           1           1           1           1           1
 AtZEff=  -0.0000000  -0.0000000  -0.0000000  -0.0000000  -0.0000000  -0.0000000  -0.0000000  -0.0000000  -0.0000000  -0.0000000
 NQMom=    0.0000000   0.0000000   0.0000000   0.0000000   0.0000000   0.0000000   0.0000000   0.0000000   0.0000000   0.0000000
 NMagM=    2.7928460   2.7928460   2.7928460   2.7928460   2.7928460   2.7928460   2.7928460   2.7928460   2.7928460   2.7928460
 AtZNuc=   1.0000000   1.0000000   1.0000000   1.0000000   1.0000000   1.0000000   1.0000000   1.0000000   1.0000000   1.0000000

  Atom       141         142         143         144         145         146         147         148         149         150
 IAtWgt=           1           1           1           1           1           1           1           1           1           1
 AtmWgt=   1.0078250   1.0078250   1.0078250   1.0078250   1.0078250   1.0078250   1.0078250   1.0078250   1.0078250   1.0078250
 NucSpn=           1           1           1           1           1           1           1           1           1           1
 AtZEff=  -0.0000000  -0.0000000  -0.0000000  -0.0000000  -0.0000000  -0.0000000  -0.0000000  -0.0000000  -0.0000000  -0.0000000
 NQMom=    0.0000000   0.0000000   0.0000000   0.0000000   0.0000000   0.0000000   0.0000000   0.0000000   0.0000000   0.0000000
 NMagM=    2.7928460   2.7928460   2.7928460   2.7928460   2.7928460   2.7928460   2.7928460   2.7928460   2.7928460   2.7928460
 AtZNuc=   1.0000000   1.0000000   1.0000000   1.0000000   1.0000000   1.0000000   1.0000000   1.0000000   1.0000000   1.0000000

  Atom       151         152         153         154         155         156         157         158
 IAtWgt=           1           1           1           1           1           1           1           1
 AtmWgt=   1.0078250   1.0078250   1.0078250   1.0078250   1.0078250   1.0078250   1.0078250   1.0078250
 NucSpn=           1           1           1           1           1           1           1           1
 AtZEff=  -0.0000000  -0.0000000  -0.0000000  -0.0000000  -0.0000000  -0.0000000  -0.0000000  -0.0000000
 NQMom=    0.0000000   0.0000000   0.0000000   0.0000000   0.0000000   0.0000000   0.0000000   0.0000000
 NMagM=    2.7928460   2.7928460   2.7928460   2.7928460   2.7928460   2.7928460   2.7928460   2.7928460
 AtZNuc=   1.0000000   1.0000000   1.0000000   1.0000000   1.0000000   1.0000000   1.0000000   1.0000000
 Leave Link  101 at Sat Sep 11 22:21:04 2021, MaxMem= 23488102400 cpu:               3.7 elap:               0.2
 (Enter /sw/apps/gaussian-16.0/g16/l202.exe)
 Stoichiometry    C68H72Mg2N8O8
 Framework group  C1[X(C68H72Mg2N8O8)]
 Deg. of freedom   468
 Full point group                 C1      NOp   1
 Largest Abelian subgroup         C1      NOp   1
 Largest concise Abelian subgroup C1      NOp   1
                         Standard orientation:                         
 ---------------------------------------------------------------------
 Center     Atomic      Atomic             Coordinates (Angstroms)
 Number     Number       Type             X           Y           Z
 ---------------------------------------------------------------------
      1         12           0       -7.873855   -0.694976   -0.295286
      2          6           0       -8.187455    1.939894    2.107073
      3          6           0       -8.669905    1.598191   -2.693360
      4          6           0       -8.048870   -3.086740   -2.370245
      5          6           0       -8.224837   -2.943512    2.344138
      6          7           0       -8.345354    1.465059   -0.183103
      7          6           0       -8.372972    2.369187    0.791042
      8          6           0       -8.542673    3.829165    0.274283
      9          6           0       -9.239189    3.521059   -1.126408
     10          6           0       -8.692031    2.125279   -1.367946
     11          6           0      -10.760508    3.445278   -1.046748
     12          6           0       -7.168854    4.555747    0.083413
     13          6           0       -7.252707    6.073577   -0.102364
     14          1           0       -6.203716    6.907504    0.464672
     15          7           0       -7.816205   -0.684766   -2.269982
     16          6           0       -8.160256    0.341288   -3.084922
     17          6           0       -7.943250   -0.143831   -4.464868
     18          6           0       -7.626316   -1.597204   -4.391691
     19          6           0       -7.846368   -1.856818   -2.991849
     20          6           0       -7.996120    0.746868   -5.668034
     21          6           0       -7.203922   -2.596187   -5.422103
     22          8           0       -7.205691   -3.853670   -5.191221
     23          6           0       -6.868098   -2.063282   -6.754873
     24          7           0       -8.322741   -2.723249   -0.089749
     25          6           0       -8.270920   -3.551234   -1.138910
     26          6           0       -8.350487   -4.985489   -0.707031
     27          6           0       -8.222883   -4.975613    0.884626
     28          6           0       -8.171238   -3.444003    1.107730
     29          6           0       -9.626341   -5.736593   -1.112065
     30          6           0       -7.104553   -5.849588    1.505853
     31          6           0       -5.749728   -5.287757    1.137214
     32          7           0       -7.979581   -0.566135    1.868799
     33          6           0       -8.149033   -1.627717    2.769357
     34          6           0       -8.269874   -1.037466    4.115117
     35          6           0       -8.178334    0.336384    3.900636
     36          6           0       -8.037253    0.589709    2.506285
     37          6           0       -8.498270   -1.754965    5.322372
     38          6           0       -8.191611    1.650518    4.522514
     39          8           0       -8.190424    2.060149    5.684278
     40          6           0       -8.320417    2.746751    3.374687
     41          6           0       -7.289779    3.809281    3.643246
     42          8           0       -6.071191    3.556118    3.552043
     43          8           0       -7.894992    5.003702    3.730532
     44          6           0       -6.925027    6.106161    3.966977
     45          1           0       -9.137071    2.170819   -3.496973
     46          1           0       -8.005070   -3.948294   -3.039756
     47          1           0       -8.251679   -3.587461    3.225081
     48          1           0       -9.194524    4.454445    0.884643
     49          1           0       -8.900529    4.201270   -1.907653
     50          1           0      -11.108014    3.487699   -0.014585
     51          1           0      -11.028487    2.490558   -1.499729
     52          1           0      -11.219760    4.212402   -1.670756
     53          1           0       -6.744111    4.274091   -0.880083
     54          1           0       -6.495052    4.330479    0.910800
     55          1           0       -8.235780    6.455324    0.174666
     56          1           0       -7.167125    6.292636   -1.166737
     57          1           0       -8.412910    1.723549   -5.425289
     58          1           0       -8.716698    0.307851   -6.357773
     59          1           0       -7.025655    0.834430   -6.156769
     60          1           0       -7.732573   -1.537170   -7.160382
     61          1           0       -6.502884   -2.910532   -7.334213
     62          1           0       -6.078293   -1.319032   -6.648810
     63          1           0       -7.530731   -5.566550   -1.127500
     64          1           0       -9.134263   -5.325306    1.370193
     65          1           0       -9.437321   -6.637057   -1.696993
     66          1           0      -10.266778   -5.043592   -1.656933
     67          1           0      -10.272137   -6.021397   -0.281853
     68          1           0       -7.150471   -6.862964    1.108477
     69          1           0       -7.163983   -5.916352    2.592252
     70          1           0       -5.571319   -5.710924    0.149322
     71          1           0       -4.993081   -5.622290    1.847696
     72          1           0       -5.785140   -4.203860    1.025863
     73          1           0       -7.831211   -1.320018    6.066564
     74          1           0       -8.306309   -2.819807    5.192505
     75          1           0       -9.553210   -1.538195    5.489608
     76          1           0       -9.335716    3.138493    3.427872
     77          1           0       -7.244191    6.626281    4.870217
     78          1           0       -6.877835    6.681077    3.041964
     79          1           0       -5.914544    5.807195    4.247838
     80         12           0        7.982374   -0.588543    0.332773
     81          6           0        7.721267    1.944383   -2.196097
     82          6           0        9.252614    1.812707    2.395555
     83          6           0        8.644130   -2.878311    2.427162
     84          6           0        7.786023   -2.957355   -2.215929
     85          7           0        8.386226    1.564202    0.024793
     86          6           0        8.189400    2.430551   -0.957578
     87          6           0        8.436153    3.912543   -0.567243
     88          6           0        9.436982    3.673071    0.665577
     89          6           0        8.979579    2.277275    1.084164
     90          6           0       10.896266    3.592627    0.249209
     91          6           0        7.121987    4.636463   -0.107985
     92          6           0        7.228073    6.159812   -0.008486
     93          1           0        6.061544    6.963424   -0.363296
     94          7           0        8.358320   -0.479879    2.278388
     95          6           0        8.850831    0.579442    2.954078
     96          6           0        8.963320    0.145888    4.355343
     97          6           0        8.652460   -1.307899    4.422952
     98          6           0        8.557822   -1.623135    3.011650
     99          6           0        9.257197    1.095831    5.479922
    100          6           0        8.482733   -2.259928    5.567946
    101          8           0        8.450443   -3.528776    5.389525
    102          6           0        8.449200   -1.667972    6.913293
    103          7           0        8.398892   -2.614510    0.122251
    104          6           0        8.598659   -3.394746    1.198929
    105          6           0        8.606025   -4.856396    0.819567
    106          6           0        8.126495   -4.906908   -0.705254
    107          6           0        8.005251   -3.392416   -0.982707
    108          6           0        9.950067   -5.571828    0.954082
    109          6           0        6.911135   -5.817659   -1.031006
    110          6           0        5.660853   -5.258216   -0.391328
    111          7           0        7.604811   -0.556937   -1.794311
    112          6           0        7.593547   -1.660638   -2.675115
    113          6           0        7.405892   -1.126722   -4.039728
    114          6           0        7.343550    0.263248   -3.859259
    115          6           0        7.502766    0.574971   -2.481949
    116          6           0        7.363841   -1.897078   -5.235931
    117          6           0        7.189895    1.538348   -4.521996
    118          8           0        6.934250    1.894666   -5.671523
    119          6           0        7.554180    2.691261   -3.490266
    120          6           0        6.474911    3.736532   -3.561664
    121          8           0        5.313718    3.471539   -3.203861
    122          8           0        7.034447    4.929869   -3.832301
    123          6           0        6.005039    6.000966   -3.902227
    124          1           0        9.869160    2.432132    3.047534
    125          1           0        8.761222   -3.714307    3.120623
    126          1           0        7.616251   -3.637493   -3.053349
    127          1           0        8.922211    4.508421   -1.330425
    128          1           0        9.258203    4.388373    1.464171
    129          1           0       11.009345    3.591768   -0.824731
    130          1           0       11.271725    2.669009    0.669920
    131          1           0       11.468534    4.394689    0.724115
    132          1           0        6.927866    4.392507    0.944417
    133          1           0        6.299381    4.372277   -0.743712
    134          1           0        8.125747    6.543991   -0.508020
    135          1           0        7.368898    6.430062    1.040871
    136          1           0        9.601809    2.067773    5.105810
    137          1           0       10.119169    0.692407    6.022269
    138          1           0        8.420052    1.199246    6.173574
    139          1           0        9.370670   -1.117963    7.088902
    140          1           0        8.232081   -2.495584    7.591379
    141          1           0        7.633851   -0.937084    6.953696
    142          1           0        7.906045   -5.417078    1.426835
    143          1           0        8.917719   -5.285604   -1.368881
    144          1           0        9.908762   -6.457525    1.615815
    145          1           0       10.680639   -4.860565    1.315911
    146          1           0       10.393572   -5.901656    0.016150
    147          1           0        7.058918   -6.813100   -0.605064
    148          1           0        6.739432   -5.944751   -2.094657
    149          1           0        5.717089   -5.637407    0.633434
    150          1           0        4.772429   -5.626589   -0.900304
    151          1           0        5.700622   -4.163916   -0.340531
    152          1           0        6.550399   -1.503848   -5.831061
    153          1           0        7.226245   -2.955107   -5.022823
    154          1           0        8.357728   -1.685460   -5.639239
    155          1           0        8.529031    3.089289   -3.774562
    156          1           0        6.112575    6.484212   -4.878233
    157          1           0        6.168071    6.630860   -3.007569
    158          1           0        4.965510    5.695956   -3.930633
 ---------------------------------------------------------------------
 Rotational constants (GHZ):           0.0204489           0.0057442           0.0056866
 Leave Link  202 at Sat Sep 11 22:21:04 2021, MaxMem= 23488102400 cpu:               0.2 elap:               0.0
 (Enter /sw/apps/gaussian-16.0/g16/l301.exe)
 Standard basis: def2SVP (5D, 7F)
 Ernie: Thresh=  0.10000D-02 Tol=  0.10000D-05 Strict=F.
 There are  1658 symmetry adapted cartesian basis functions of A   symmetry.
 There are  1572 symmetry adapted basis functions of A   symmetry.
  1572 basis functions,  2678 primitive gaussians,  1658 cartesian basis functions
   312 alpha electrons      312 beta electrons
       nuclear repulsion energy     13723.8410033564 Hartrees.
 IExCor=20419 DFT=T Ex+Corr=CAM-B3LYP ExCW=0 ScaHFX=  1.000000
 ScaDFX=  1.000000  1.000000  1.000000  0.810000 ScalE2=  1.000000  1.000000
 IRadAn=      5 IRanWt=     -1 IRanGd=            0 ICorTp=0 IEmpDi=  4
 HFx  wShort=  0.000000 wLong=  0.330000 cFull=  0.190000 cShort=  0.000000 cLong=  0.460000
 DFx  wShort=  0.000000 wLong=  0.330000 cFull=  0.190000 cShort=  0.000000 cLong=  0.460000
 NAtoms=  158 NActive=  158 NUniq=  158 SFac= 1.00D+00 NAtFMM=   60 NAOKFM=T Big=T
 Integral buffers will be    131072 words long.
 Raffenetti 1 integral format.
 Two-electron integral symmetry is turned on.
 Leave Link  301 at Sat Sep 11 22:21:04 2021, MaxMem= 23488102400 cpu:               1.4 elap:               0.1
 (Enter /sw/apps/gaussian-16.0/g16/l302.exe)
 NPDir=0 NMtPBC=     1 NCelOv=     1 NCel=       1 NClECP=     1 NCelD=      1
         NCelK=      1 NCelE2=     1 NClLst=     1 CellRange=     0.0.
 One-electron integrals computed using PRISM.
 One-electron integral symmetry used in STVInt
   1 Symmetry operations used in ECPInt.
 ECPInt:  NShTT=  271216 NPrTT=  987664 LenC2=  106956 LenP2D=  243890.
 LDataN:  DoStor=T MaxTD1= 4 Len=   56
 NBasis=  1572 RedAO= T EigKep=  3.36D-04  NBF=  1572
 NBsUse=  1572 1.00D-06 EigRej= -1.00D+00 NBFU=  1572
 Precomputing XC quadrature grid using
 IXCGrd= 4 IRadAn=           5 IRanWt=          -1 IRanGd=           0 AccXCQ= 0.00D+00.
 Generated NRdTot=       0 NPtTot=           0 NUsed=           0 NTot=          32
 NSgBfM=   862   852   858   858   862 MxSgAt=   158 MxSgA2=   142.
 Leave Link  302 at Sat Sep 11 22:21:09 2021, MaxMem= 23488102400 cpu:             101.9 elap:               4.3
 (Enter /sw/apps/gaussian-16.0/g16/l303.exe)
 DipDrv:  MaxL=1.
 Leave Link  303 at Sat Sep 11 22:21:09 2021, MaxMem= 23488102400 cpu:               8.8 elap:               0.4
 (Enter /sw/apps/gaussian-16.0/g16/l308.exe)
 Leave Link  308 at Sat Sep 11 22:21:10 2021, MaxMem= 23488102400 cpu:              11.9 elap:               0.6
 (Enter /sw/apps/gaussian-16.0/g16/l401.exe)
 ExpMin= 3.36D-02 ExpMax= 4.95D+03 ExpMxC= 7.45D+02 IAcc=3 IRadAn=         5 AccDes= 0.00D+00
 Harris functional with IExCor=20419 and IRadAn=       5 diagonalized for initial guess.
 HarFok:  IExCor=20419 AccDes= 0.00D+00 IRadAn=         5 IDoV= 1 UseB2=F ITyADJ=14
 ICtDFT=  3500011 ScaDFX=  1.000000  1.000000  1.000000  1.000000
 FoFCou: FMM=F IPFlag=           0 FMFlag=      100000 FMFlg1=        2001
         NFxFlg=           0 DoJE=T BraDBF=F KetDBF=T FulRan=T
         wScrn=  0.000000 ICntrl=       500 IOpCl=  0 I1Cent=   200000004 NGrid=           0
         NMat0=    1 NMatS0=      1 NMatT0=    0 NMatD0=    1 NMtDS0=    0 NMtDT0=    0
 Petite list used in FoFCou.
 Harris En= -3918.65801929847    
 JPrj=0 DoOrth=F DoCkMO=F.
 Leave Link  401 at Sat Sep 11 22:21:16 2021, MaxMem= 23488102400 cpu:             158.9 elap:               6.6
 (Enter /sw/apps/gaussian-16.0/g16/l502.exe)
 Integral symmetry usage will be decided dynamically.
 Closed shell SCF:
 Using DIIS extrapolation, IDIIS=  1040.
 NGot= 23488102400 LenX= 23482547354 LenY= 23479796732
 Requested convergence on RMS density matrix=1.00D-08 within 128 cycles.
 Requested convergence on MAX density matrix=1.00D-06.
 Requested convergence on             energy=1.00D-06.
 No special actions if energy rises.
 Fock matrices will be formed incrementally for  20 cycles.

 Cycle   1  Pass 1  IDiag  1:
 FoFJK:  IHMeth= 1 ICntrl=       0 DoSepK=T KAlg= 0 I1Cent=           0 FoldK=F
 IRaf=         1 NMat=       1 IRICut=       1 DoRegI=T DoRafI=F ISym2E= 0 IDoP0=0 IntGTp=1.
 FoFCou: FMM=T IPFlag=           0 FMFlag=      100000 FMFlg1=        2001
         NFxFlg=           0 DoJE=T BraDBF=F KetDBF=F FulRan=T
         wScrn=  0.000000 ICntrl=       500 IOpCl=  0 I1Cent=           0 NGrid=           0
         NMat0=    1 NMatS0=      1 NMatT0=    0 NMatD0=    1 NMtDS0=    0 NMtDT0=    0
 Symmetry not used in FoFCou.
 FMM levels:  10  Number of levels for PrismC:   9
 E= -4068.94957511250    
 DIIS: error= 2.04D-02 at cycle   1 NSaved=   1.
 NSaved= 1 IEnMin= 1 EnMin= -4068.94957511250     IErMin= 1 ErrMin= 2.04D-02
 ErrMax= 2.04D-02  0.00D+00 EMaxC= 1.00D-01 BMatC= 1.69D+00 BMatP= 1.69D+00
 IDIUse=3 WtCom= 7.96D-01 WtEn= 2.04D-01
 Coeff-Com:  0.100D+01
 Coeff-En:   0.100D+01
 Coeff:      0.100D+01
 Gap=     0.120 Goal=   None    Shift=    0.000
 GapD=    0.120 DampG=1.000 DampE=0.500 DampFc=0.5000 IDamp=-1.
 Damping current iteration by 5.00D-01
 RMSDP=1.57D-03 MaxDP=1.35D-01              OVMax= 2.00D-01

 Cycle   2  Pass 1  IDiag  1:
 RMSU=  7.69D-04    CP:  9.82D-01
 E= -4069.33848754553     Delta-E=       -0.388912433034 Rises=F Damp=T
 DIIS: error= 1.27D-02 at cycle   2 NSaved=   2.
 NSaved= 2 IEnMin= 2 EnMin= -4069.33848754553     IErMin= 2 ErrMin= 1.27D-02
 ErrMax= 1.27D-02  0.00D+00 EMaxC= 1.00D-01 BMatC= 3.07D-01 BMatP= 1.69D+00
 IDIUse=3 WtCom= 8.73D-01 WtEn= 1.27D-01
 Coeff-Com: -0.213D+00 0.121D+01
 Coeff-En:   0.000D+00 0.100D+01
 Coeff:     -0.186D+00 0.119D+01
 Gap=     0.137 Goal=   None    Shift=    0.000
 RMSDP=7.64D-04 MaxDP=9.40D-02 DE=-3.89D-01 OVMax= 1.88D-01

 Cycle   3  Pass 1  IDiag  1:
 RMSU=  7.31D-04    CP:  9.68D-01  1.24D+00
 E= -4069.62864403469     Delta-E=       -0.290156489154 Rises=F Damp=F
 DIIS: error= 1.58D-02 at cycle   3 NSaved=   3.
 NSaved= 3 IEnMin= 3 EnMin= -4069.62864403469     IErMin= 2 ErrMin= 1.27D-02
 ErrMax= 1.58D-02  0.00D+00 EMaxC= 1.00D-01 BMatC= 2.01D-01 BMatP= 3.07D-01
 IDIUse=3 WtCom= 8.42D-01 WtEn= 1.58D-01
 Coeff-Com: -0.267D+00 0.651D+00 0.616D+00
 Coeff-En:   0.000D+00 0.000D+00 0.100D+01
 Coeff:     -0.225D+00 0.549D+00 0.676D+00
 Gap=     0.125 Goal=   None    Shift=    0.000
 RMSDP=5.06D-04 MaxDP=4.80D-02 DE=-2.90D-01 OVMax= 1.39D-01

 Cycle   4  Pass 1  IDiag  1:
 RMSU=  2.65D-04    CP:  9.65D-01  1.55D+00  5.07D-01
 E= -4069.76550291802     Delta-E=       -0.136858883328 Rises=F Damp=F
 DIIS: error= 7.33D-03 at cycle   4 NSaved=   4.
 NSaved= 4 IEnMin= 4 EnMin= -4069.76550291802     IErMin= 4 ErrMin= 7.33D-03
 ErrMax= 7.33D-03  0.00D+00 EMaxC= 1.00D-01 BMatC= 5.02D-02 BMatP= 2.01D-01
 IDIUse=3 WtCom= 9.27D-01 WtEn= 7.33D-02
 Coeff-Com: -0.109D+00 0.225D+00 0.409D+00 0.475D+00
 Coeff-En:   0.000D+00 0.000D+00 0.220D+00 0.780D+00
 Coeff:     -0.101D+00 0.209D+00 0.395D+00 0.497D+00
 Gap=     0.122 Goal=   None    Shift=    0.000
 RMSDP=1.98D-04 MaxDP=2.10D-02 DE=-1.37D-01 OVMax= 5.91D-02

 Cycle   5  Pass 1  IDiag  1:
 RMSU=  7.53D-05    CP:  9.64D-01  1.49D+00  6.89D-01  5.51D-01
 E= -4069.81063669034     Delta-E=       -0.045133772321 Rises=F Damp=F
 DIIS: error= 7.96D-04 at cycle   5 NSaved=   5.
 NSaved= 5 IEnMin= 5 EnMin= -4069.81063669034     IErMin= 5 ErrMin= 7.96D-04
 ErrMax= 7.96D-04  0.00D+00 EMaxC= 1.00D-01 BMatC= 1.14D-03 BMatP= 5.02D-02
 IDIUse=3 WtCom= 9.92D-01 WtEn= 7.96D-03
 Coeff-Com: -0.353D-01 0.693D-01 0.164D+00 0.248D+00 0.555D+00
 Coeff-En:   0.000D+00 0.000D+00 0.000D+00 0.000D+00 0.100D+01
 Coeff:     -0.350D-01 0.687D-01 0.162D+00 0.246D+00 0.558D+00
 Gap=     0.122 Goal=   None    Shift=    0.000
 RMSDP=3.98D-05 MaxDP=4.14D-03 DE=-4.51D-02 OVMax= 1.50D-02

 Cycle   6  Pass 1  IDiag  1:
 RMSU=  2.97D-05    CP:  9.64D-01  1.49D+00  6.82D-01  6.22D-01  7.66D-01
 E= -4069.81161084027     Delta-E=       -0.000974149931 Rises=F Damp=F
 DIIS: error= 2.31D-04 at cycle   6 NSaved=   6.
 NSaved= 6 IEnMin= 6 EnMin= -4069.81161084027     IErMin= 6 ErrMin= 2.31D-04
 ErrMax= 2.31D-04  0.00D+00 EMaxC= 1.00D-01 BMatC= 1.70D-04 BMatP= 1.14D-03
 IDIUse=3 WtCom= 9.98D-01 WtEn= 2.31D-03
 Coeff-Com:  0.242D-02-0.699D-02 0.102D-01 0.389D-01 0.305D+00 0.650D+00
 Coeff-En:   0.000D+00 0.000D+00 0.000D+00 0.000D+00 0.968D-01 0.903D+00
 Coeff:      0.242D-02-0.697D-02 0.102D-01 0.388D-01 0.305D+00 0.651D+00
 Gap=     0.122 Goal=   None    Shift=    0.000
 RMSDP=1.53D-05 MaxDP=1.24D-03 DE=-9.74D-04 OVMax= 6.83D-03

 Cycle   7  Pass 1  IDiag  1:
 RMSU=  1.04D-05    CP:  9.64D-01  1.50D+00  6.87D-01  6.22D-01  8.63D-01
                    CP:  7.57D-01
 E= -4069.81179124363     Delta-E=       -0.000180403360 Rises=F Damp=F
 DIIS: error= 7.68D-05 at cycle   7 NSaved=   7.
 NSaved= 7 IEnMin= 7 EnMin= -4069.81179124363     IErMin= 7 ErrMin= 7.68D-05
 ErrMax= 7.68D-05  0.00D+00 EMaxC= 1.00D-01 BMatC= 1.92D-05 BMatP= 1.70D-04
 IDIUse=1 WtCom= 1.00D+00 WtEn= 0.00D+00
 Coeff-Com:  0.442D-02-0.964D-02-0.908D-02-0.422D-02 0.989D-01 0.324D+00
 Coeff-Com:  0.595D+00
 Coeff:      0.442D-02-0.964D-02-0.908D-02-0.422D-02 0.989D-01 0.324D+00
 Coeff:      0.595D+00
 Gap=     0.122 Goal=   None    Shift=    0.000
 RMSDP=6.34D-06 MaxDP=1.09D-03 DE=-1.80D-04 OVMax= 3.26D-03

 Cycle   8  Pass 1  IDiag  1:
 RMSU=  4.59D-06    CP:  9.64D-01  1.50D+00  6.88D-01  6.26D-01  8.68D-01
                    CP:  8.81D-01  8.31D-01
 E= -4069.81181511104     Delta-E=       -0.000023867407 Rises=F Damp=F
 DIIS: error= 4.88D-05 at cycle   8 NSaved=   8.
 NSaved= 8 IEnMin= 8 EnMin= -4069.81181511104     IErMin= 8 ErrMin= 4.88D-05
 ErrMax= 4.88D-05  0.00D+00 EMaxC= 1.00D-01 BMatC= 4.68D-06 BMatP= 1.92D-05
 IDIUse=1 WtCom= 1.00D+00 WtEn= 0.00D+00
 Coeff-Com:  0.212D-02-0.419D-02-0.768D-02-0.121D-01-0.125D-01 0.332D-01
 Coeff-Com:  0.351D+00 0.650D+00
 Coeff:      0.212D-02-0.419D-02-0.768D-02-0.121D-01-0.125D-01 0.332D-01
 Coeff:      0.351D+00 0.650D+00
 Gap=     0.123 Goal=   None    Shift=    0.000
 RMSDP=3.21D-06 MaxDP=3.49D-04 DE=-2.39D-05 OVMax= 1.17D-03

 Cycle   9  Pass 1  IDiag  1:
 RMSU=  1.88D-06    CP:  9.64D-01  1.50D+00  6.88D-01  6.28D-01  8.85D-01
                    CP:  9.07D-01  1.03D+00  9.31D-01
 E= -4069.81182254687     Delta-E=       -0.000007435836 Rises=F Damp=F
 DIIS: error= 1.94D-05 at cycle   9 NSaved=   9.
 NSaved= 9 IEnMin= 9 EnMin= -4069.81182254687     IErMin= 9 ErrMin= 1.94D-05
 ErrMax= 1.94D-05  0.00D+00 EMaxC= 1.00D-01 BMatC= 6.60D-07 BMatP= 4.68D-06
 IDIUse=1 WtCom= 1.00D+00 WtEn= 0.00D+00
 Coeff-Com:  0.455D-03-0.755D-03-0.263D-02-0.592D-02-0.214D-01-0.377D-01
 Coeff-Com:  0.107D+00 0.323D+00 0.638D+00
 Coeff:      0.455D-03-0.755D-03-0.263D-02-0.592D-02-0.214D-01-0.377D-01
 Coeff:      0.107D+00 0.323D+00 0.638D+00
 Gap=     0.123 Goal=   None    Shift=    0.000
 RMSDP=1.39D-06 MaxDP=1.50D-04 DE=-7.44D-06 OVMax= 7.46D-04

 Cycle  10  Pass 1  IDiag  1:
 RMSU=  9.26D-07    CP:  9.64D-01  1.50D+00  6.88D-01  6.28D-01  8.88D-01
                    CP:  9.21D-01  1.07D+00  1.10D+00  1.05D+00
 E= -4069.81182406779     Delta-E=       -0.000001520919 Rises=F Damp=F
 DIIS: error= 1.07D-05 at cycle  10 NSaved=  10.
 NSaved=10 IEnMin=10 EnMin= -4069.81182406779     IErMin=10 ErrMin= 1.07D-05
 ErrMax= 1.07D-05  0.00D+00 EMaxC= 1.00D-01 BMatC= 1.69D-07 BMatP= 6.60D-07
 IDIUse=1 WtCom= 1.00D+00 WtEn= 0.00D+00
 Coeff-Com: -0.421D-03 0.882D-03 0.122D-02 0.111D-02-0.386D-02-0.306D-01
 Coeff-Com: -0.470D-01-0.758D-01 0.264D+00 0.891D+00
 Coeff:     -0.421D-03 0.882D-03 0.122D-02 0.111D-02-0.386D-02-0.306D-01
 Coeff:     -0.470D-01-0.758D-01 0.264D+00 0.891D+00
 Gap=     0.123 Goal=   None    Shift=    0.000
 RMSDP=1.19D-06 MaxDP=1.25D-04 DE=-1.52D-06 OVMax= 5.90D-04

 Cycle  11  Pass 1  IDiag  1:
 RMSU=  5.03D-07    CP:  9.64D-01  1.50D+00  6.89D-01  6.28D-01  8.90D-01
                    CP:  9.31D-01  1.12D+00  1.21D+00  1.38D+00  1.37D+00
 E= -4069.81182482361     Delta-E=       -0.000000755823 Rises=F Damp=F
 DIIS: error= 3.88D-06 at cycle  11 NSaved=  11.
 NSaved=11 IEnMin=11 EnMin= -4069.81182482361     IErMin=11 ErrMin= 3.88D-06
 ErrMax= 3.88D-06  0.00D+00 EMaxC= 1.00D-01 BMatC= 5.76D-08 BMatP= 1.69D-07
 IDIUse=1 WtCom= 1.00D+00 WtEn= 0.00D+00
 Coeff-Com: -0.320D-03 0.623D-03 0.130D-02 0.209D-02 0.434D-02-0.821D-02
 Coeff-Com: -0.443D-01-0.132D+00-0.160D-01 0.455D+00 0.737D+00
 Coeff:     -0.320D-03 0.623D-03 0.130D-02 0.209D-02 0.434D-02-0.821D-02
 Coeff:     -0.443D-01-0.132D+00-0.160D-01 0.455D+00 0.737D+00
 Gap=     0.123 Goal=   None    Shift=    0.000
 RMSDP=6.70D-07 MaxDP=5.49D-05 DE=-7.56D-07 OVMax= 3.58D-04

 Cycle  12  Pass 1  IDiag  1:
 RMSU=  2.59D-07    CP:  9.64D-01  1.50D+00  6.89D-01  6.29D-01  8.91D-01
                    CP:  9.33D-01  1.15D+00  1.27D+00  1.54D+00  1.75D+00
                    CP:  1.20D+00
 E= -4069.81182507374     Delta-E=       -0.000000250122 Rises=F Damp=F
 DIIS: error= 2.35D-06 at cycle  12 NSaved=  12.
 NSaved=12 IEnMin=12 EnMin= -4069.81182507374     IErMin=12 ErrMin= 2.35D-06
 ErrMax= 2.35D-06  0.00D+00 EMaxC= 1.00D-01 BMatC= 1.40D-08 BMatP= 5.76D-08
 IDIUse=1 WtCom= 1.00D+00 WtEn= 0.00D+00
 Coeff-Com:  0.198D-05-0.200D-04 0.168D-03 0.493D-03 0.320D-02 0.408D-02
 Coeff-Com:  0.283D-02-0.346D-01-0.654D-01-0.810D-01 0.252D+00 0.918D+00
 Coeff:      0.198D-05-0.200D-04 0.168D-03 0.493D-03 0.320D-02 0.408D-02
 Coeff:      0.283D-02-0.346D-01-0.654D-01-0.810D-01 0.252D+00 0.918D+00
 Gap=     0.123 Goal=   None    Shift=    0.000
 RMSDP=4.28D-07 MaxDP=3.03D-05 DE=-2.50D-07 OVMax= 2.40D-04

 Cycle  13  Pass 1  IDiag  1:
 RMSU=  1.62D-07    CP:  9.64D-01  1.50D+00  6.89D-01  6.29D-01  8.92D-01
                    CP:  9.34D-01  1.15D+00  1.30D+00  1.65D+00  1.97D+00
                    CP:  1.61D+00  1.28D+00
 E= -4069.81182516163     Delta-E=       -0.000000087894 Rises=F Damp=F
 DIIS: error= 1.27D-06 at cycle  13 NSaved=  13.
 NSaved=13 IEnMin=13 EnMin= -4069.81182516163     IErMin=13 ErrMin= 1.27D-06
 ErrMax= 1.27D-06  0.00D+00 EMaxC= 1.00D-01 BMatC= 7.71D-09 BMatP= 1.40D-08
 IDIUse=1 WtCom= 1.00D+00 WtEn= 0.00D+00
 Coeff-Com:  0.119D-03-0.242D-03-0.366D-03-0.453D-03 0.535D-03 0.511D-02
 Coeff-Com:  0.199D-01 0.224D-01-0.350D-01-0.241D+00-0.151D+00 0.600D+00
 Coeff-Com:  0.780D+00
 Coeff:      0.119D-03-0.242D-03-0.366D-03-0.453D-03 0.535D-03 0.511D-02
 Coeff:      0.199D-01 0.224D-01-0.350D-01-0.241D+00-0.151D+00 0.600D+00
 Coeff:      0.780D+00
 Gap=     0.123 Goal=   None    Shift=    0.000
 RMSDP=3.29D-07 MaxDP=2.07D-05 DE=-8.79D-08 OVMax= 1.86D-04

 Cycle  14  Pass 1  IDiag  1:
 RMSU=  7.54D-08    CP:  9.64D-01  1.50D+00  6.89D-01  6.29D-01  8.92D-01
                    CP:  9.34D-01  1.16D+00  1.32D+00  1.73D+00  2.16D+00
                    CP:  1.87D+00  1.79D+00  1.08D+00
 E= -4069.81182519549     Delta-E=       -0.000000033859 Rises=F Damp=F
 DIIS: error= 6.28D-07 at cycle  14 NSaved=  14.
 NSaved=14 IEnMin=14 EnMin= -4069.81182519549     IErMin=14 ErrMin= 6.28D-07
 ErrMax= 6.28D-07  0.00D+00 EMaxC= 1.00D-01 BMatC= 1.20D-09 BMatP= 7.71D-09
 IDIUse=1 WtCom= 1.00D+00 WtEn= 0.00D+00
 Coeff-Com:  0.655D-04-0.129D-03-0.243D-03-0.382D-03-0.490D-03 0.134D-02
 Coeff-Com:  0.109D-01 0.190D-01 0.267D-02-0.995D-01-0.140D+00 0.962D-01
 Coeff-Com:  0.404D+00 0.707D+00
 Coeff:      0.655D-04-0.129D-03-0.243D-03-0.382D-03-0.490D-03 0.134D-02
 Coeff:      0.109D-01 0.190D-01 0.267D-02-0.995D-01-0.140D+00 0.962D-01
 Coeff:      0.404D+00 0.707D+00
 Gap=     0.123 Goal=   None    Shift=    0.000
 RMSDP=9.89D-08 MaxDP=6.41D-06 DE=-3.39D-08 OVMax= 5.72D-05

 Cycle  15  Pass 1  IDiag  1:
 RMSU=  3.80D-08    CP:  9.64D-01  1.50D+00  6.89D-01  6.29D-01  8.92D-01
                    CP:  9.34D-01  1.16D+00  1.32D+00  1.74D+00  2.20D+00
                    CP:  1.98D+00  1.92D+00  1.32D+00  1.02D+00
 E= -4069.81182519973     Delta-E=       -0.000000004246 Rises=F Damp=F
 DIIS: error= 3.93D-07 at cycle  15 NSaved=  15.
 NSaved=15 IEnMin=15 EnMin= -4069.81182519973     IErMin=15 ErrMin= 3.93D-07
 ErrMax= 3.93D-07  0.00D+00 EMaxC= 1.00D-01 BMatC= 2.29D-10 BMatP= 1.20D-09
 IDIUse=1 WtCom= 1.00D+00 WtEn= 0.00D+00
 Coeff-Com:  0.578D-05-0.977D-05-0.341D-04-0.839D-04-0.308D-03-0.487D-03
 Coeff-Com:  0.123D-02 0.275D-02 0.872D-02 0.109D-02-0.324D-01-0.730D-01
 Coeff-Com:  0.305D-01 0.308D+00 0.754D+00
 Coeff:      0.578D-05-0.977D-05-0.341D-04-0.839D-04-0.308D-03-0.487D-03
 Coeff:      0.123D-02 0.275D-02 0.872D-02 0.109D-02-0.324D-01-0.730D-01
 Coeff:      0.305D-01 0.308D+00 0.754D+00
 Gap=     0.123 Goal=   None    Shift=    0.000
 RMSDP=4.09D-08 MaxDP=2.49D-06 DE=-4.25D-09 OVMax= 2.46D-05

 Cycle  16  Pass 1  IDiag  1:
 RMSU=  1.86D-08    CP:  9.64D-01  1.50D+00  6.89D-01  6.29D-01  8.92D-01
                    CP:  9.34D-01  1.16D+00  1.33D+00  1.75D+00  2.22D+00
                    CP:  2.00D+00  1.99D+00  1.39D+00  1.24D+00  1.14D+00
 E= -4069.81182520048     Delta-E=       -0.000000000746 Rises=F Damp=F
 DIIS: error= 2.06D-07 at cycle  16 NSaved=  16.
 NSaved=16 IEnMin=16 EnMin= -4069.81182520048     IErMin=16 ErrMin= 2.06D-07
 ErrMax= 2.06D-07  0.00D+00 EMaxC= 1.00D-01 BMatC= 7.89D-11 BMatP= 2.29D-10
 IDIUse=1 WtCom= 1.00D+00 WtEn= 0.00D+00
 Coeff-Com: -0.140D-04 0.284D-04 0.465D-04 0.531D-04-0.285D-04-0.633D-03
 Coeff-Com: -0.202D-02-0.421D-02 0.480D-02 0.256D-01 0.200D-01-0.652D-01
 Coeff-Com: -0.842D-01-0.305D-01 0.393D+00 0.744D+00
 Coeff:     -0.140D-04 0.284D-04 0.465D-04 0.531D-04-0.285D-04-0.633D-03
 Coeff:     -0.202D-02-0.421D-02 0.480D-02 0.256D-01 0.200D-01-0.652D-01
 Coeff:     -0.842D-01-0.305D-01 0.393D+00 0.744D+00
 Gap=     0.123 Goal=   None    Shift=    0.000
 RMSDP=2.28D-08 MaxDP=1.60D-06 DE=-7.46D-10 OVMax= 1.50D-05

 Cycle  17  Pass 1  IDiag  1:
 RMSU=  1.07D-08    CP:  9.64D-01  1.50D+00  6.89D-01  6.29D-01  8.92D-01
                    CP:  9.34D-01  1.16D+00  1.33D+00  1.75D+00  2.22D+00
                    CP:  2.01D+00  2.01D+00  1.44D+00  1.34D+00  1.44D+00
                    CP:  1.24D+00
 E= -4069.81182520060     Delta-E=       -0.000000000116 Rises=F Damp=F
 DIIS: error= 1.16D-07 at cycle  17 NSaved=  17.
 NSaved=17 IEnMin=17 EnMin= -4069.81182520060     IErMin=17 ErrMin= 1.16D-07
 ErrMax= 1.16D-07  0.00D+00 EMaxC= 1.00D-01 BMatC= 1.93D-11 BMatP= 7.89D-11
 IDIUse=1 WtCom= 1.00D+00 WtEn= 0.00D+00
 Coeff-Com: -0.777D-05 0.152D-04 0.305D-04 0.450D-04 0.825D-04-0.149D-03
 Coeff-Com: -0.110D-02-0.297D-02 0.435D-03 0.104D-01 0.183D-01-0.989D-02
 Coeff-Com: -0.418D-01-0.103D+00-0.257D-01 0.327D+00 0.829D+00
 Coeff:     -0.777D-05 0.152D-04 0.305D-04 0.450D-04 0.825D-04-0.149D-03
 Coeff:     -0.110D-02-0.297D-02 0.435D-03 0.104D-01 0.183D-01-0.989D-02
 Coeff:     -0.418D-01-0.103D+00-0.257D-01 0.327D+00 0.829D+00
 Gap=     0.123 Goal=   None    Shift=    0.000
 RMSDP=1.39D-08 MaxDP=9.72D-07 DE=-1.16D-10 OVMax= 7.97D-06

 Cycle  18  Pass 1  IDiag  1:
 RMSU=  5.13D-09    CP:  9.64D-01  1.50D+00  6.89D-01  6.29D-01  8.92D-01
                    CP:  9.34D-01  1.16D+00  1.33D+00  1.75D+00  2.22D+00
                    CP:  2.02D+00  2.02D+00  1.46D+00  1.41D+00  1.61D+00
                    CP:  1.64D+00  1.35D+00
 E= -4069.81182520063     Delta-E=       -0.000000000033 Rises=F Damp=F
 DIIS: error= 5.67D-08 at cycle  18 NSaved=  18.
 NSaved=18 IEnMin=18 EnMin= -4069.81182520063     IErMin=18 ErrMin= 5.67D-08
 ErrMax= 5.67D-08  0.00D+00 EMaxC= 1.00D-01 BMatC= 6.88D-12 BMatP= 1.93D-11
 IDIUse=1 WtCom= 1.00D+00 WtEn= 0.00D+00
 Coeff-Com:  0.120D-05-0.274D-05-0.144D-05 0.259D-05 0.629D-04 0.160D-03
 Coeff-Com:  0.281D-03-0.851D-04-0.119D-02-0.491D-02 0.179D-02 0.187D-01
 Coeff-Com:  0.136D-01-0.399D-01-0.153D+00-0.135D+00 0.375D+00 0.925D+00
 Coeff:      0.120D-05-0.274D-05-0.144D-05 0.259D-05 0.629D-04 0.160D-03
 Coeff:      0.281D-03-0.851D-04-0.119D-02-0.491D-02 0.179D-02 0.187D-01
 Coeff:      0.136D-01-0.399D-01-0.153D+00-0.135D+00 0.375D+00 0.925D+00
 Gap=     0.123 Goal=   None    Shift=    0.000
 RMSDP=1.08D-08 MaxDP=8.36D-07 DE=-3.27D-11 OVMax= 7.38D-06

 Cycle  19  Pass 1  IDiag  1:
 RMSU=  3.17D-09    CP:  9.64D-01  1.50D+00  6.89D-01  6.29D-01  8.92D-01
                    CP:  9.34D-01  1.16D+00  1.33D+00  1.75D+00  2.22D+00
                    CP:  2.02D+00  2.03D+00  1.47D+00  1.45D+00  1.75D+00
                    CP:  1.94D+00  1.87D+00  1.23D+00
 E= -4069.81182520069     Delta-E=       -0.000000000065 Rises=F Damp=F
 DIIS: error= 4.21D-08 at cycle  19 NSaved=  19.
 NSaved=19 IEnMin=19 EnMin= -4069.81182520069     IErMin=19 ErrMin= 4.21D-08
 ErrMax= 4.21D-08  0.00D+00 EMaxC= 1.00D-01 BMatC= 2.59D-12 BMatP= 6.88D-12
 IDIUse=1 WtCom= 1.00D+00 WtEn= 0.00D+00
 Coeff-Com:  0.325D-05-0.659D-05-0.108D-04-0.131D-04 0.172D-04 0.149D-03
 Coeff-Com:  0.552D-03 0.871D-03-0.839D-03-0.692D-02-0.494D-02 0.152D-01
 Coeff-Com:  0.231D-01 0.732D-02-0.925D-01-0.204D+00-0.304D-01 0.592D+00
 Coeff-Com:  0.701D+00
 Coeff:      0.325D-05-0.659D-05-0.108D-04-0.131D-04 0.172D-04 0.149D-03
 Coeff:      0.552D-03 0.871D-03-0.839D-03-0.692D-02-0.494D-02 0.152D-01
 Coeff:      0.231D-01 0.732D-02-0.925D-01-0.204D+00-0.304D-01 0.592D+00
 Coeff:      0.701D+00
 Gap=     0.123 Goal=   None    Shift=    0.000
 RMSDP=6.05D-09 MaxDP=3.84D-07 DE=-6.55D-11 OVMax= 3.46D-06

 SCF Done:  E(RCAM-B3LYP) =  -4069.81182520     A.U. after   19 cycles
            NFock= 19  Conv=0.60D-08     -V/T= 2.0102
 KE= 4.028801724946D+03 PE=-3.692907918574D+04 EE= 1.510662463224D+04
 Leave Link  502 at Sat Sep 11 22:29:42 2021, MaxMem= 23488102400 cpu:           11550.5 elap:             505.4
 (Enter /sw/apps/gaussian-16.0/g16/l801.exe)
 DoSCS=F DFT=T ScalE2(SS,OS)=  1.000000  1.000000
 ExpMin= 3.36D-02 ExpMax= 4.95D+03 ExpMxC= 7.45D+02 IAcc=3 IRadAn=         5 AccDes= 0.00D+00
 HarFok:  IExCor=  205 AccDes= 0.00D+00 IRadAn=         5 IDoV=-2 UseB2=F ITyADJ=14
 ICtDFT= 12500011 ScaDFX=  1.000000  1.000000  1.000000  1.000000
 GSVD:  LWork=       -9588 too small for GESVD, short by       45590 words or       45590 for optimal perf.
 Largest valence mixing into a core orbital is  2.03D-04
 Largest core mixing into a valence orbital is  5.24D-05
 Range of M.O.s used for correlation:    95  1572
 NBasis=  1572 NAE=   312 NBE=   312 NFC=    94 NFV=     0
 NROrb=   1478 NOA=   218 NOB=   218 NVA=  1260 NVB=  1260
 Leave Link  801 at Sat Sep 11 22:29:42 2021, MaxMem= 23488102400 cpu:               8.1 elap:               0.4
 (Enter /sw/apps/gaussian-16.0/g16/l914.exe)
 RHF ground state
 Two-electron integrals replicated using symmetry.
 MDV= 23488102400 DFT=T DoStab=F Mixed=T DoRPA=T DoScal=F NonHer=T
 Making orbital integer symmetry assigments:
 Orbital symmetries:
       Occupied  (A) (A) (A) (A) (A) (A) (A) (A) (A) (A) (A) (A)
                 (A) (A) (A) (A) (A) (A) (A) (A) (A) (A) (A) (A)
                 (A) (A) (A) (A) (A) (A) (A) (A) (A) (A) (A) (A)
                 (A) (A) (A) (A) (A) (A) (A) (A) (A) (A) (A) (A)
                 (A) (A) (A) (A) (A) (A) (A) (A) (A) (A) (A) (A)
                 (A) (A) (A) (A) (A) (A) (A) (A) (A) (A) (A) (A)
                 (A) (A) (A) (A) (A) (A) (A) (A) (A) (A) (A) (A)
                 (A) (A) (A) (A) (A) (A) (A) (A) (A) (A) (A) (A)
                 (A) (A) (A) (A) (A) (A) (A) (A) (A) (A) (A) (A)
                 (A) (A) (A) (A) (A) (A) (A) (A) (A) (A) (A) (A)
                 (A) (A) (A) (A) (A) (A) (A) (A) (A) (A) (A) (A)
                 (A) (A) (A) (A) (A) (A) (A) (A) (A) (A) (A) (A)
                 (A) (A) (A) (A) (A) (A) (A) (A) (A) (A) (A) (A)
                 (A) (A) (A) (A) (A) (A) (A) (A) (A) (A) (A) (A)
                 (A) (A) (A) (A) (A) (A) (A) (A) (A) (A) (A) (A)
                 (A) (A) (A) (A) (A) (A) (A) (A) (A) (A) (A) (A)
                 (A) (A) (A) (A) (A) (A) (A) (A) (A) (A) (A) (A)
                 (A) (A) (A) (A) (A) (A) (A) (A) (A) (A) (A) (A)
                 (A) (A) (A) (A) (A) (A) (A) (A) (A) (A) (A) (A)
                 (A) (A) (A) (A) (A) (A) (A) (A) (A) (A) (A) (A)
                 (A) (A) (A) (A) (A) (A) (A) (A) (A) (A) (A) (A)
                 (A) (A) (A) (A) (A) (A) (A) (A) (A) (A) (A) (A)
                 (A) (A) (A) (A) (A) (A) (A) (A) (A) (A) (A) (A)
                 (A) (A) (A) (A) (A) (A) (A) (A) (A) (A) (A) (A)
                 (A) (A) (A) (A) (A) (A) (A) (A) (A) (A) (A) (A)
                 (A) (A) (A) (A) (A) (A) (A) (A) (A) (A) (A) (A)
       Virtual   (A) (A) (A) (A) (A) (A) (A) (A) (A) (A) (A) (A)
                 (A) (A) (A) (A) (A) (A) (A) (A) (A) (A) (A) (A)
                 (A) (A) (A) (A) (A) (A) (A) (A) (A) (A) (A) (A)
                 (A) (A) (A) (A) (A) (A) (A) (A) (A) (A) (A) (A)
                 (A) (A) (A) (A) (A) (A) (A) (A) (A) (A) (A) (A)
                 (A) (A) (A) (A) (A) (A) (A) (A) (A) (A) (A) (A)
                 (A) (A) (A) (A) (A) (A) (A) (A) (A) (A) (A) (A)
                 (A) (A) (A) (A) (A) (A) (A) (A) (A) (A) (A) (A)
                 (A) (A) (A) (A) (A) (A) (A) (A) (A) (A) (A) (A)
                 (A) (A) (A) (A) (A) (A) (A) (A) (A) (A) (A) (A)
                 (A) (A) (A) (A) (A) (A) (A) (A) (A) (A) (A) (A)
                 (A) (A) (A) (A) (A) (A) (A) (A) (A) (A) (A) (A)
                 (A) (A) (A) (A) (A) (A) (A) (A) (A) (A) (A) (A)
                 (A) (A) (A) (A) (A) (A) (A) (A) (A) (A) (A) (A)
                 (A) (A) (A) (A) (A) (A) (A) (A) (A) (A) (A) (A)
                 (A) (A) (A) (A) (A) (A) (A) (A) (A) (A) (A) (A)
                 (A) (A) (A) (A) (A) (A) (A) (A) (A) (A) (A) (A)
                 (A) (A) (A) (A) (A) (A) (A) (A) (A) (A) (A) (A)
                 (A) (A) (A) (A) (A) (A) (A) (A) (A) (A) (A) (A)
                 (A) (A) (A) (A) (A) (A) (A) (A) (A) (A) (A) (A)
                 (A) (A) (A) (A) (A) (A) (A) (A) (A) (A) (A) (A)
                 (A) (A) (A) (A) (A) (A) (A) (A) (A) (A) (A) (A)
                 (A) (A) (A) (A) (A) (A) (A) (A) (A) (A) (A) (A)
                 (A) (A) (A) (A) (A) (A) (A) (A) (A) (A) (A) (A)
                 (A) (A) (A) (A) (A) (A) (A) (A) (A) (A) (A) (A)
                 (A) (A) (A) (A) (A) (A) (A) (A) (A) (A) (A) (A)
                 (A) (A) (A) (A) (A) (A) (A) (A) (A) (A) (A) (A)
                 (A) (A) (A) (A) (A) (A) (A) (A) (A) (A) (A) (A)
                 (A) (A) (A) (A) (A) (A) (A) (A) (A) (A) (A) (A)
                 (A) (A) (A) (A) (A) (A) (A) (A) (A) (A) (A) (A)
                 (A) (A) (A) (A) (A) (A) (A) (A) (A) (A) (A) (A)
                 (A) (A) (A) (A) (A) (A) (A) (A) (A) (A) (A) (A)
                 (A) (A) (A) (A) (A) (A) (A) (A) (A) (A) (A) (A)
                 (A) (A) (A) (A) (A) (A) (A) (A) (A) (A) (A) (A)
                 (A) (A) (A) (A) (A) (A) (A) (A) (A) (A) (A) (A)
                 (A) (A) (A) (A) (A) (A) (A) (A) (A) (A) (A) (A)
                 (A) (A) (A) (A) (A) (A) (A) (A) (A) (A) (A) (A)
                 (A) (A) (A) (A) (A) (A) (A) (A) (A) (A) (A) (A)
                 (A) (A) (A) (A) (A) (A) (A) (A) (A) (A) (A) (A)
                 (A) (A) (A) (A) (A) (A) (A) (A) (A) (A) (A) (A)
                 (A) (A) (A) (A) (A) (A) (A) (A) (A) (A) (A) (A)
                 (A) (A) (A) (A) (A) (A) (A) (A) (A) (A) (A) (A)
                 (A) (A) (A) (A) (A) (A) (A) (A) (A) (A) (A) (A)
                 (A) (A) (A) (A) (A) (A) (A) (A) (A) (A) (A) (A)
                 (A) (A) (A) (A) (A) (A) (A) (A) (A) (A) (A) (A)
                 (A) (A) (A) (A) (A) (A) (A) (A) (A) (A) (A) (A)
                 (A) (A) (A) (A) (A) (A) (A) (A) (A) (A) (A) (A)
                 (A) (A) (A) (A) (A) (A) (A) (A) (A) (A) (A) (A)
                 (A) (A) (A) (A) (A) (A) (A) (A) (A) (A) (A) (A)
                 (A) (A) (A) (A) (A) (A) (A) (A) (A) (A) (A) (A)
                 (A) (A) (A) (A) (A) (A) (A) (A) (A) (A) (A) (A)
                 (A) (A) (A) (A) (A) (A) (A) (A) (A) (A) (A) (A)
                 (A) (A) (A) (A) (A) (A) (A) (A) (A) (A) (A) (A)
                 (A) (A) (A) (A) (A) (A) (A) (A) (A) (A) (A) (A)
                 (A) (A) (A) (A) (A) (A) (A) (A) (A) (A) (A) (A)
                 (A) (A) (A) (A) (A) (A) (A) (A) (A) (A) (A) (A)
                 (A) (A) (A) (A) (A) (A) (A) (A) (A) (A) (A) (A)
                 (A) (A) (A) (A) (A) (A) (A) (A) (A) (A) (A) (A)
                 (A) (A) (A) (A) (A) (A) (A) (A) (A) (A) (A) (A)
                 (A) (A) (A) (A) (A) (A) (A) (A) (A) (A) (A) (A)
                 (A) (A) (A) (A) (A) (A) (A) (A) (A) (A) (A) (A)
                 (A) (A) (A) (A) (A) (A) (A) (A) (A) (A) (A) (A)
                 (A) (A) (A) (A) (A) (A) (A) (A) (A) (A) (A) (A)
                 (A) (A) (A) (A) (A) (A) (A) (A) (A) (A) (A) (A)
                 (A) (A) (A) (A) (A) (A) (A) (A) (A) (A) (A) (A)
                 (A) (A) (A) (A) (A) (A) (A) (A) (A) (A) (A) (A)
                 (A) (A) (A) (A) (A) (A) (A) (A) (A) (A) (A) (A)
                 (A) (A) (A) (A) (A) (A) (A) (A) (A) (A) (A) (A)
                 (A) (A) (A) (A) (A) (A) (A) (A) (A) (A) (A) (A)
                 (A) (A) (A) (A) (A) (A) (A) (A) (A) (A) (A) (A)
                 (A) (A) (A) (A) (A) (A) (A) (A) (A) (A) (A) (A)
                 (A) (A) (A) (A) (A) (A) (A) (A) (A) (A) (A) (A)
                 (A) (A) (A) (A) (A) (A) (A) (A) (A) (A) (A) (A)
                 (A) (A) (A) (A) (A) (A) (A) (A) (A) (A) (A) (A)
                 (A) (A) (A) (A) (A) (A) (A) (A) (A) (A) (A) (A)
                 (A) (A) (A) (A) (A) (A) (A) (A) (A) (A) (A) (A)
                 (A) (A) (A) (A) (A) (A) (A) (A) (A) (A) (A) (A)
                 (A) (A) (A) (A) (A) (A) (A) (A) (A) (A) (A) (A)
                 (A) (A) (A) (A) (A) (A) (A) (A) (A) (A) (A) (A)
                 (A) (A) (A) (A) (A) (A) (A) (A) (A) (A) (A) (A)
                 (A) (A) (A) (A) (A) (A) (A) (A) (A) (A) (A) (A)
                 (A) (A) (A) (A) (A) (A) (A) (A) (A) (A) (A) (A)
                 (A) (A) (A) (A) (A) (A) (A) (A) (A) (A) (A) (A)
                 (A) (A) (A) (A) (A) (A) (A) (A) (A) (A) (A) (A)
                 (A) (A) (A) (A) (A) (A) (A) (A) (A) (A) (A) (A)
                 (A) (A) (A) (A) (A) (A) (A) (A) (A) (A) (A) (A)
                 (A) (A) (A) (A) (A) (A) (A) (A) (A) (A) (A) (A)
                 (A) (A) (A) (A) (A) (A) (A) (A) (A) (A) (A) (A)
                 (A) (A) (A) (A) (A) (A) (A) (A) (A) (A) (A) (A)
                 (A) (A) (A) (A) (A) (A) (A) (A) (A) (A) (A) (A)
                 (A) (A) (A) (A) (A) (A) (A) (A) (A) (A) (A) (A)
                 (A) (A) (A) (A) (A) (A) (A) (A) (A) (A) (A) (A)
                 (A) (A) (A) (A) (A) (A) (A) (A) (A) (A) (A) (A)
                 (A) (A) (A) (A) (A) (A) (A) (A) (A) (A) (A) (A)
                 (A) (A) (A) (A) (A) (A) (A) (A) (A) (A) (A) (A)
                 (A) (A) (A) (A) (A) (A) (A) (A) (A) (A) (A) (A)
                 (A) (A) (A) (A) (A) (A) (A) (A) (A) (A) (A) (A)
                 (A) (A) (A) (A) (A) (A) (A) (A) (A) (A) (A) (A)
                 (A) (A) (A) (A) (A) (A) (A) (A) (A) (A) (A) (A)
                 (A) (A) (A) (A) (A) (A) (A) (A) (A) (A) (A) (A)
                 (A) (A) (A) (A) (A) (A) (A) (A) (A) (A) (A) (A)
                 (A) (A) (A) (A) (A) (A) (A) (A) (A) (A) (A) (A)
                 (A) (A) (A) (A) (A) (A) (A) (A) (A) (A) (A) (A)
                 (A) (A) (A) (A) (A) (A) (A) (A) (A) (A) (A) (A)
                 (A) (A) (A) (A) (A) (A) (A) (A) (A) (A) (A) (A)
    20 initial guesses have been made.
 Convergence on wavefunction:    0.001000000000000
 Davidson Disk Diagonalization:  ConvIn= 1.00D-03 SkipCon=T Conv= 1.00D-03.
 Max sub-space:  2000 roots to seek:    20 dimension of matrix:       549360
 Iteration     1 Dimension    20 NMult     0 NNew     20
 CISAX will form    20 AO SS matrices at one time.
 NMat=    20 NSing=    20 JSym2X= 0.
 FoFJK:  IHMeth= 1 ICntrl=       0 DoSepK=T KAlg= 0 I1Cent=           0 FoldK=F
 IRaf=         1 NMat=      40 IRICut=       1 DoRegI=T DoRafI=F ISym2E= 0 IDoP0=3 IntGTp=3.
 FoFCou: FMM=T IPFlag=           0 FMFlag=      100000 FMFlg1=        2001
         NFxFlg=           0 DoJE=F BraDBF=F KetDBF=F FulRan=T
         wScrn=  0.000000 ICntrl=       500 IOpCl=  0 I1Cent=           0 NGrid=           0
         NMat0=   20 NMatS0=     20 NMatT0=    0 NMatD0=   20 NMtDS0=    0 NMtDT0=    0
 Symmetry not used in FoFCou.
 FMM levels:  10  Number of levels for PrismC:   9
 New state      1 was old state      7
 New state      2 was old state      6
 New state      3 was old state      2
 New state      4 was old state      3
 New state      5 was old state      1
 Excitation Energies [eV] at current iteration:
 Root      1 :     2.614108564356403
 Root      2 :     2.619037194951876
 Root      3 :     2.669415152704130
 Root      4 :     2.701626079691795
 Root      5 :     2.789556691405323
 Root      6 :     2.834427952884086
 Root      7 :     3.591608412496977
 Root      8 :     3.626080183788347
 Root      9 :     3.630722489290135
 Root     10 :     3.670918029112969
 Root     11 :     3.734035654825420
 Root     12 :     3.757454789760966
 Root     13 :     4.294842173147864
 Root     14 :     4.317149691141129
 Root     15 :     4.724916608460859
 Root     16 :     4.742784280073423
 Root     17 :     5.016570862016496
 Root     18 :     5.016778395094065
 Root     19 :     5.047506873766861
 Root     20 :     5.081037523388194
 Iteration     2 Dimension    30 NMult    20 NNew     10
 CISAX will form    10 AO SS matrices at one time.
 NMat=    10 NSing=    10 JSym2X= 0.
 New state      1 was old state      3
 Root      1 not converged, maximum delta is    0.156133831957832
 New state      2 was old state      4
 Root      2 not converged, maximum delta is    0.159884026796918
 New state      3 was old state      2
 Root      3 not converged, maximum delta is    0.284311775635292
 New state      4 was old state      1
 Root      4 not converged, maximum delta is    0.293654893567245
 Root      5 not converged, maximum delta is    0.002984058831176
 Excitation Energies [eV] at current iteration:
 Root      1 :     1.796111354419035   Change is   -0.873303798285095
 Root      2 :     1.812661709935055   Change is   -0.888964369756740
 Root      3 :     2.235177237735986   Change is   -0.383859957215891
 Root      4 :     2.239817932730503   Change is   -0.374290631625900
 Root      5 :     2.789435026742173   Change is   -0.000121664663149
 Iteration     3 Dimension    40 NMult    30 NNew     10
 CISAX will form    10 AO SS matrices at one time.
 NMat=    10 NSing=    10 JSym2X= 0.
 Root      1 not converged, maximum delta is    0.056577759622042
 Root      2 not converged, maximum delta is    0.057514166644868
 Root      3 not converged, maximum delta is    0.084174568971915
 Root      4 not converged, maximum delta is    0.083921671542737
 Root      5 has converged.
 Excitation Energies [eV] at current iteration:
 Root      1 :     1.689171758878794   Change is   -0.106939595540241
 Root      2 :     1.704053104753914   Change is   -0.108608605181141
 Root      3 :     2.194106213891044   Change is   -0.041071023844942
 Root      4 :     2.200790808235035   Change is   -0.039027124495468
 Root      5 :     2.789434346577511   Change is   -0.000000680164663
 Iteration     4 Dimension    48 NMult    40 NNew      8
 CISAX will form     8 AO SS matrices at one time.
 NMat=     8 NSing=     8 JSym2X= 0.
 Root      1 not converged, maximum delta is    0.010975315187915
 Root      2 not converged, maximum delta is    0.010917882883571
 Root      3 not converged, maximum delta is    0.010812717232544
 Root      4 not converged, maximum delta is    0.010726568907288
 Root      5 has converged.
 Excitation Energies [eV] at current iteration:
 Root      1 :     1.672403239895893   Change is   -0.016768518982901
 Root      2 :     1.687230200908888   Change is   -0.016822903845026
 Root      3 :     2.186857098517924   Change is   -0.007249115373120
 Root      4 :     2.194009102234284   Change is   -0.006781706000751
 Root      5 :     2.789434346577658   Change is    0.000000000000147
 Iteration     5 Dimension    56 NMult    48 NNew      8
 CISAX will form     8 AO SS matrices at one time.
 NMat=     8 NSing=     8 JSym2X= 0.
 Root      1 not converged, maximum delta is    0.001799645657314
 Root      2 not converged, maximum delta is    0.001802038235713
 Root      3 not converged, maximum delta is    0.002454270542145
 Root      4 not converged, maximum delta is    0.002338778331094
 Root      5 has converged.
 Excitation Energies [eV] at current iteration:
 Root      1 :     1.670637437140337   Change is   -0.001765802755556
 Root      2 :     1.685447821894956   Change is   -0.001782379013932
 Root      3 :     2.186016684820480   Change is   -0.000840413697444
 Root      4 :     2.193232402376219   Change is   -0.000776699858066
 Root      5 :     2.789434346577481   Change is   -0.000000000000177
 Iteration     6 Dimension    64 NMult    56 NNew      8
 CISAX will form     8 AO SS matrices at one time.
 NMat=     8 NSing=     8 JSym2X= 0.
 Root      1 not converged, maximum delta is    0.001116672603156
 Root      2 not converged, maximum delta is    0.001128484270539
 Root      3 not converged, maximum delta is    0.001032914859874
 Root      4 has converged.
 Root      5 has converged.
 Excitation Energies [eV] at current iteration:
 Root      1 :     1.670386083344910   Change is   -0.000251353795427
 Root      2 :     1.685191624837448   Change is   -0.000256197057508
 Root      3 :     2.185889449750323   Change is   -0.000127235070157
 Root      4 :     2.193114593829902   Change is   -0.000117808546317
 Root      5 :     2.789434346577540   Change is    0.000000000000059
 Iteration     7 Dimension    70 NMult    64 NNew      6
 CISAX will form     6 AO SS matrices at one time.
 NMat=     6 NSing=     6 JSym2X= 0.
 Root      1 has converged.
 Root      2 has converged.
 Root      3 has converged.
 Root      4 has converged.
 Root      5 has converged.
 Excitation Energies [eV] at current iteration:
 Root      1 :     1.670361687925964   Change is   -0.000024395418945
[...]
 Alpha virt. eigenvalues --    1.83547   1.83906   1.83928   1.84196   1.84210
 Alpha virt. eigenvalues --    1.84538   1.84617   1.84798   1.84986   1.85137
 Alpha virt. eigenvalues --    1.85268   1.85368   1.85445   1.85503   1.85681
 Alpha virt. eigenvalues --    1.85909   1.86038   1.86394   1.86532   1.86661
 Alpha virt. eigenvalues --    1.86732   1.86837   1.86950   1.87043   1.87197
 Alpha virt. eigenvalues --    1.87489   1.87613   1.87772   1.87844   1.88023
 Alpha virt. eigenvalues --    1.88038   1.88185   1.88210   1.88583   1.88709
 Alpha virt. eigenvalues --    1.88944   1.88989   1.89077   1.89289   1.89674
 Alpha virt. eigenvalues --    1.89804   1.89892   1.89927   1.90196   1.90289
 Alpha virt. eigenvalues --    1.90895   1.90914   1.91430   1.91512   1.91591
 Alpha virt. eigenvalues --    1.91600   1.92186   1.92319   1.92667   1.92793
 Alpha virt. eigenvalues --    1.93150   1.93157   1.93505   1.93512   1.94318
 Alpha virt. eigenvalues --    1.94448   1.94824   1.94860   1.95601   1.95638
 Alpha virt. eigenvalues --    1.95813   1.95892   1.96056   1.96159   1.96172
 Alpha virt. eigenvalues --    1.96319   1.96486   1.96759   1.96946   1.97072
 Alpha virt. eigenvalues --    1.97541   1.97614   1.97801   1.97998   1.98168
 Alpha virt. eigenvalues --    1.98336   1.98340   1.98825   1.99078   1.99299
 Alpha virt. eigenvalues --    1.99934   1.99988   2.00729   2.00827   2.01097
 Alpha virt. eigenvalues --    2.01163   2.01517   2.01607   2.01646   2.01827
 Alpha virt. eigenvalues --    2.01838   2.01885   2.02714   2.02954   2.03144
 Alpha virt. eigenvalues --    2.03381   2.03397   2.03521   2.03571   2.03648
 Alpha virt. eigenvalues --    2.04027   2.04200   2.04986   2.05133   2.05639
 Alpha virt. eigenvalues --    2.05687   2.06252   2.06294   2.07023   2.07062
 Alpha virt. eigenvalues --    2.07344   2.07346   2.08571   2.08767   2.09008
 Alpha virt. eigenvalues --    2.09154   2.09616   2.09760   2.10945   2.11042
 Alpha virt. eigenvalues --    2.11351   2.11411   2.11534   2.11705   2.11872
 Alpha virt. eigenvalues --    2.11901   2.12467   2.12632   2.12807   2.12870
 Alpha virt. eigenvalues --    2.12977   2.13000   2.13631   2.13934   2.14254
 Alpha virt. eigenvalues --    2.14298   2.15415   2.15507   2.16078   2.16086
 Alpha virt. eigenvalues --    2.16597   2.16691   2.16916   2.17169   2.17581
 Alpha virt. eigenvalues --    2.17653   2.17870   2.17929   2.18007   2.18232
 Alpha virt. eigenvalues --    2.18487   2.18664   2.19031   2.19228   2.19807
 Alpha virt. eigenvalues --    2.19819   2.20210   2.20238   2.20370   2.20442
 Alpha virt. eigenvalues --    2.21180   2.21318   2.21763   2.21841   2.21870
 Alpha virt. eigenvalues --    2.21903   2.22704   2.22849   2.23341   2.23476
 Alpha virt. eigenvalues --    2.24423   2.24566   2.25015   2.25128   2.26437
 Alpha virt. eigenvalues --    2.26462   2.26946   2.27007   2.27198   2.27264
 Alpha virt. eigenvalues --    2.28304   2.28313   2.29437   2.29439   2.29877
 Alpha virt. eigenvalues --    2.29902   2.30612   2.30620   2.30812   2.31201
 Alpha virt. eigenvalues --    2.31244   2.31332   2.32245   2.32291   2.33234
 Alpha virt. eigenvalues --    2.33302   2.33482   2.33626   2.34140   2.34301
 Alpha virt. eigenvalues --    2.35284   2.35524   2.35908   2.35964   2.36335
 Alpha virt. eigenvalues --    2.36453   2.36518   2.36795   2.37677   2.37821
 Alpha virt. eigenvalues --    2.38391   2.38436   2.38779   2.39023   2.39666
 Alpha virt. eigenvalues --    2.39779   2.40266   2.40345   2.40651   2.40824
 Alpha virt. eigenvalues --    2.41208   2.41431   2.41695   2.41855   2.42115
 Alpha virt. eigenvalues --    2.42195   2.42827   2.43029   2.43111   2.43670
 Alpha virt. eigenvalues --    2.43975   2.44331   2.44803   2.44899   2.44980
 Alpha virt. eigenvalues --    2.45068   2.45566   2.45709   2.46286   2.46478
 Alpha virt. eigenvalues --    2.46491   2.46641   2.46790   2.46964   2.47367
 Alpha virt. eigenvalues --    2.47410   2.47878   2.47882   2.49395   2.49479
 Alpha virt. eigenvalues --    2.49892   2.50236   2.50459   2.50722   2.51253
 Alpha virt. eigenvalues --    2.51282   2.51609   2.52054   2.52387   2.52603
 Alpha virt. eigenvalues --    2.52972   2.53154   2.53967   2.54084   2.54287
 Alpha virt. eigenvalues --    2.54328   2.54795   2.54948   2.55659   2.55689
 Alpha virt. eigenvalues --    2.58036   2.58073   2.58805   2.58893   2.60282
 Alpha virt. eigenvalues --    2.60366   2.60776   2.60912   2.61814   2.61880
 Alpha virt. eigenvalues --    2.62419   2.62697   2.63111   2.63116   2.64102
 Alpha virt. eigenvalues --    2.64206   2.64402   2.64415   2.65085   2.65240
 Alpha virt. eigenvalues --    2.65846   2.65952   2.66812   2.66942   2.67042
 Alpha virt. eigenvalues --    2.67074   2.67965   2.68071   2.68808   2.69006
 Alpha virt. eigenvalues --    2.69024   2.69182   2.69553   2.69579   2.70124
 Alpha virt. eigenvalues --    2.70159   2.71045   2.71138   2.71869   2.72211
 Alpha virt. eigenvalues --    2.72461   2.72705   2.72810   2.72970   2.73274
 Alpha virt. eigenvalues --    2.73430   2.73438   2.73677   2.74485   2.74670
 Alpha virt. eigenvalues --    2.75033   2.75135   2.76501   2.76752   2.77041
 Alpha virt. eigenvalues --    2.77390   2.77591   2.77627   2.78287   2.78368
 Alpha virt. eigenvalues --    2.78668   2.78888   2.79133   2.79297   2.80254
 Alpha virt. eigenvalues --    2.80516   2.80658   2.80748   2.81125   2.81271
 Alpha virt. eigenvalues --    2.81958   2.82096   2.82310   2.82502   2.83834
 Alpha virt. eigenvalues --    2.83868   2.83905   2.83943   2.84505   2.84706
 Alpha virt. eigenvalues --    2.84862   2.85044   2.85677   2.85840   2.86628
 Alpha virt. eigenvalues --    2.87130   2.87151   2.87750   2.88226   2.88334
 Alpha virt. eigenvalues --    2.88586   2.88661   2.88848   2.89097   2.90633
 Alpha virt. eigenvalues --    2.90656   2.91042   2.91345   2.93294   2.93317
 Alpha virt. eigenvalues --    2.93746   2.94363   2.94556   2.94728   2.95444
 Alpha virt. eigenvalues --    2.95527   2.95786   2.96344   2.96350   2.96599
 Alpha virt. eigenvalues --    2.96825   2.97324   2.97973   2.98016   2.98320
 Alpha virt. eigenvalues --    2.98382   2.98518   2.98545   2.98742   2.98751
 Alpha virt. eigenvalues --    2.98894   2.99047   2.99757   2.99786   2.99972
 Alpha virt. eigenvalues --    3.00188   3.00320   3.00381   3.00619   3.00963
 Alpha virt. eigenvalues --    3.01877   3.02084   3.02146   3.02201   3.02785
 Alpha virt. eigenvalues --    3.02882   3.03132   3.03298   3.03501   3.03676
 Alpha virt. eigenvalues --    3.04022   3.04328   3.04406   3.04600   3.04691
 Alpha virt. eigenvalues --    3.04706   3.05328   3.05455   3.06134   3.06276
 Alpha virt. eigenvalues --    3.06907   3.06965   3.07905   3.08319   3.09335
 Alpha virt. eigenvalues --    3.09569   3.09858   3.10403   3.10605   3.10711
 Alpha virt. eigenvalues --    3.11452   3.11487   3.11876   3.12102   3.12271
 Alpha virt. eigenvalues --    3.12334   3.13449   3.13620   3.13666   3.13807
 Alpha virt. eigenvalues --    3.14235   3.14421   3.15969   3.16084   3.17423
 Alpha virt. eigenvalues --    3.17485   3.17863   3.18256   3.19009   3.19299
 Alpha virt. eigenvalues --    3.22451   3.22549   3.24111   3.24403   3.24826
 Alpha virt. eigenvalues --    3.25150   3.26626   3.26669   3.27363   3.27785
 Alpha virt. eigenvalues --    3.29170   3.29246   3.31347   3.31690   3.33157
 Alpha virt. eigenvalues --    3.33586   3.40201   3.40769   3.42799   3.42996
 Alpha virt. eigenvalues --    3.48660   3.48818   3.50190   3.50253   3.50809
 Alpha virt. eigenvalues --    3.51645   3.56721   3.56978   3.59267   3.59313
 Alpha virt. eigenvalues --    3.62482   3.63001   3.66101   3.66369   3.67330
 Alpha virt. eigenvalues --    3.67488   3.73417   3.73969   3.76205   3.76629
          Condensed to atoms (all electrons):
 Mulliken charges:
               1
     1  Mg   0.839349
     2  C   -0.002866
     3  C   -0.093876
     4  C   -0.045841
     5  C   -0.064039
     6  N   -0.256785
     7  C   -0.052470
     8  C   -0.014076
     9  C   -0.087084
    10  C    0.046494
    11  C    0.104856
    12  C    0.053401
    13  C   -0.071721
    14  H    0.035938
    15  N   -0.433172
    16  C    0.168677
    17  C   -0.176881
    18  C   -0.003799
    19  C    0.148888
    20  C    0.110144
    21  C    0.012572
    22  O   -0.249752
    23  C    0.062283
    24  N   -0.341171
    25  C    0.041285
    26  C   -0.028137
    27  C   -0.023912
    28  C    0.074835
    29  C    0.076240
    30  C    0.035161
    31  C   -0.004492
    32  N   -0.310411
    33  C    0.080380
    34  C   -0.169859
    35  C    0.008178
    36  C    0.083012
    37  C    0.127346
    38  C    0.045998
    39  O   -0.188959
    40  C   -0.005340
    41  C    0.212738
    42  O   -0.256889
    43  O   -0.304850
    44  C    0.157830
    45  H   -0.017654
    46  H   -0.016902
    47  H   -0.041732
    48  H    0.000649
    49  H   -0.003901
    50  H    0.025297
    51  H    0.016390
    52  H    0.016511
    53  H    0.011806
    54  H    0.044247
    55  H    0.017518
    56  H    0.018134
    57  H    0.005835
    58  H    0.026648
    59  H    0.040397
    60  H    0.037119
    61  H    0.035717
    62  H    0.032396
    63  H    0.016593
    64  H    0.009207
    65  H    0.023080
    66  H    0.012484
    67  H    0.004549
    68  H    0.006116
    69  H    0.004547
    70  H    0.008801
    71  H    0.018108
    72  H    0.029311
    73  H    0.047330
    74  H    0.009004
    75  H    0.045729
    76  H    0.034904
    77  H    0.042535
    78  H    0.046439
    79  H    0.053564
    80  Mg   0.838258
    81  C   -0.016779
    82  C   -0.087643
    83  C   -0.045416
    84  C   -0.064873
    85  N   -0.254559
    86  C   -0.049827
    87  C   -0.015162
    88  C   -0.090553
    89  C    0.045874
    90  C    0.114407
    91  C    0.062470
    92  C   -0.077843
    93  H    0.034757
    94  N   -0.423489
    95  C    0.163146
    96  C   -0.174482
    97  C   -0.007611
    98  C    0.152258
    99  C    0.099361
   100  C    0.015807
   101  O   -0.253174
   102  C    0.061049
   103  N   -0.350064
   104  C    0.037556
   105  C   -0.019829
   106  C   -0.034777
   107  C    0.088909
   108  C    0.073697
   109  C    0.034736
   110  C   -0.007706
   111  N   -0.324060
   112  C    0.078428
   113  C   -0.163229
   114  C    0.002057
   115  C    0.096263
   116  C    0.131520
   117  C    0.042282
   118  O   -0.188426
   119  C    0.000935
   120  C    0.211100
   121  O   -0.250851
   122  O   -0.305662
   123  C    0.152189
   124  H   -0.019683
   125  H   -0.015544
   126  H   -0.040570
   127  H   -0.000898
   128  H   -0.004217
   129  H    0.022313
   130  H    0.014397
   131  H    0.016198
   132  H    0.014375
   133  H    0.037770
   134  H    0.020509
   135  H    0.019767
   136  H    0.008742
   137  H    0.026065
   138  H    0.040329
   139  H    0.038105
   140  H    0.036523
   141  H    0.034441
   142  H    0.014520
   143  H    0.012236
   144  H    0.025112
   145  H    0.011567
   146  H    0.005541
   147  H    0.006142
   148  H    0.003556
   149  H    0.010994
   150  H    0.018083
   151  H    0.030307
   152  H    0.045754
   153  H    0.008530
   154  H    0.046709
   155  H    0.034826
   156  H    0.043488
   157  H    0.049592
   158  H    0.053376
 Sum of Mulliken charges =  -0.00000
 Mulliken charges with hydrogens summed into heavy atoms:
               1
     1  Mg   0.839349
     2  C   -0.002866
     3  C   -0.111530
     4  C   -0.062743
     5  C   -0.105772
     6  N   -0.256785
     7  C   -0.052470
     8  C   -0.013427
     9  C   -0.090985
    10  C    0.046494
    11  C    0.163054
    12  C    0.109454
    13  C   -0.000132
    15  N   -0.433172
    16  C    0.168677
    17  C   -0.176881
    18  C   -0.003799
    19  C    0.148888
    20  C    0.183024
    21  C    0.012572
    22  O   -0.249752
    23  C    0.167515
    24  N   -0.341171
    25  C    0.041285
    26  C   -0.011544
    27  C   -0.014705
    28  C    0.074835
    29  C    0.116353
    30  C    0.045824
    31  C    0.051729
    32  N   -0.310411
    33  C    0.080380
    34  C   -0.169859
    35  C    0.008178
    36  C    0.083012
    37  C    0.229409
    38  C    0.045998
    39  O   -0.188959
    40  C    0.029565
    41  C    0.212738
    42  O   -0.256889
    43  O   -0.304850
    44  C    0.300368
    80  Mg   0.838258
    81  C   -0.016779
    82  C   -0.107326
    83  C   -0.060960
    84  C   -0.105443
    85  N   -0.254559
    86  C   -0.049827
    87  C   -0.016060
    88  C   -0.094769
    89  C    0.045874
    90  C    0.167314
    91  C    0.114615
    92  C   -0.002809
    94  N   -0.423489
    95  C    0.163146
    96  C   -0.174482
    97  C   -0.007611
    98  C    0.152258
    99  C    0.174496
   100  C    0.015807
   101  O   -0.253174
   102  C    0.170118
   103  N   -0.350064
   104  C    0.037556
   105  C   -0.005309
   106  C   -0.022541
   107  C    0.088909
   108  C    0.115917
   109  C    0.044434
   110  C    0.051679
   111  N   -0.324060
   112  C    0.078428
   113  C   -0.163229
   114  C    0.002057
   115  C    0.096263
   116  C    0.232513
   117  C    0.042282
   118  O   -0.188426
   119  C    0.035761
   120  C    0.211100
   121  O   -0.250851
   122  O   -0.305662
   123  C    0.298645
 Electronic spatial extent (au):  <R**2>=         194062.6848
 Charge=             -0.0000 electrons
 Dipole moment (field-independent basis, Debye):
    X=              0.7393    Y=              3.1237    Z=             -0.7541  Tot=              3.2973
 Quadrupole moment (field-independent basis, Debye-Ang):
   XX=           -448.6015   YY=           -460.4568   ZZ=           -539.8101
   XY=              7.9021   XZ=             52.6442   YZ=             -2.2134
 Traceless Quadrupole moment (field-independent basis, Debye-Ang):
   XX=             34.3546   YY=             22.4993   ZZ=            -56.8539
   XY=              7.9021   XZ=             52.6442   YZ=             -2.2134
 Octapole moment (field-independent basis, Debye-Ang**2):
  XXX=            115.2163  YYY=            233.4047  ZZZ=            -23.8770  XYY=             -7.7100
  XXY=            351.9803  XXZ=            -83.9290  XZZ=             26.3794  YZZ=             84.7297
  YYZ=              7.4613  XYZ=            483.7556
 Hexadecapole moment (field-independent basis, Debye-Ang**3):
 XXXX=        -193172.7143 YYYY=         -32896.2645 ZZZZ=         -32075.0658 XXXY=           1379.5710
 XXXZ=           2952.4222 YYYX=           -137.6621 YYYZ=            -25.6700 ZZZX=           3053.4067
 ZZZY=             43.8652 XXYY=         -36325.8491 XXZZ=         -39680.1154 YYZZ=         -11393.3096
 XXYZ=             31.5397 YYXZ=          -1823.2714 ZZXY=            243.7172
 N-N= 1.372384100336D+04 E-N=-3.692907918272D+04  KE= 4.028801724946D+03
 Leave Link  601 at Sat Sep 11 22:49:56 2021, MaxMem= 23488102400 cpu:              13.2 elap:               0.7
 (Enter /sw/apps/gaussian-16.0/g16/l9999.exe)
 1\1\GINC-BP1-COMPUTE00084\SP\RCAM-B3LYP TD-FC\def2SVP\C68H72Mg2N8O8\OF
 15641\11-Sep-2021\0\\#p cam-b3lyp/Def2SVP td=(nstates=5)\\TDDFT excite
 d states in gaussian\\0,1\Mg,0,0.,0.,0.\C,0,-0.217,-2.218,2.801\C,0,-1
 .255,2.442,2.026\C,0,-0.245,1.85,-2.564\C,0,0.146,-2.824,-2.037\N,0,-0
 .617,-0.009,2.126\C,0,-0.594,-0.908,3.105\C,0,-0.936,-0.309,4.502\C,0,
 -1.773,0.964,4.032\C,0,-1.155,1.168,2.66\C,0,-3.263,0.685,3.863\C,0,0.
 345,0.11,5.299\C,0,0.124,0.397,6.787\H,0,1.168,0.033,7.733\N,0,-0.185,
 1.961,-0.152\C,0,-0.703,2.8,0.777\C,0,-0.62,4.156,0.193\C,0,-0.187,4.0
 15,-1.225\C,0,-0.214,2.583,-1.38\C,0,-0.887,5.406,0.974\C,0,0.181,5.01
 3,-2.277\O,0,0.303,4.69,-3.508\C,0,0.31,6.414,-1.837\N,0,-0.265,-0.413
 ,-2.029\C,0,-0.279,0.569,-2.937\C,0,-0.196,0.024,-4.332\C,0,0.124,-1.5
 33,-4.18\C,0,0.086,-1.632,-2.635\C,0,-1.451,0.205,-5.197\C,0,1.373,-2.
 07,-4.923\C,0,2.626,-1.49,-4.306\N,0,0.15,-2.144,0.303\C,0,0.173,-3.13
 6,-0.688\C,0,0.173,-4.438,0.004\C,0,0.133,-4.111,1.358\C,0,0.083,-2.69
 5,1.502\C,0,0.149,-5.715,-0.623\C,0,0.096,-4.629,2.716\O,0,0.208,-5.74
 7,3.221\C,0,-0.255,-3.428,3.701\C,0,0.717,-3.482,4.848\O,0,1.931,-3.25
 5,4.669\O,0,0.038,-3.556,6.003\C,0,0.943,-3.583,7.183\H,0,-1.859,3.22,
 2.497\H,0,-0.218,2.453,-3.474\H,0,0.276,-3.747,-2.605\H,0,-1.554,-0.94
 9,5.132\H,0,-1.585,1.831,4.665\H,0,-3.484,-0.377,3.969\H,0,-3.511,1.02
 7,2.858\H,0,-3.852,1.301,4.543\H,0,0.669,1.096,4.966\H,0,1.13,-0.639,5
 .189\H,0,-0.844,0.026,7.125\H,0,0.062,1.477,6.921\H,0,-1.344,5.186,1.9
 38\H,0,-1.651,5.963,0.432\H,0,0.007,6.02,1.084\H,0,-0.635,6.744,-1.405
 \H,0,0.665,6.97,-2.704\H,0,1.048,6.466,-1.036\H,0,0.608,0.501,-4.891\H
 ,0,-0.692,-2.156,-4.547\H,0,-1.267,0.74,-6.129\H,0,-2.204,0.714,-4.596
 \H,0,-1.967,-0.72,-5.453\H,0,1.356,-1.759,-5.967\H,0,1.452,-3.157,-4.9
 02\H,0,2.714,-0.522,-4.798\H,0,3.487,-2.121,-4.529\H,0,2.495,-1.303,-3
 .24\H,0,0.867,-6.333,-0.084\H,0,0.404,-5.642,-1.68\H,0,-0.891,-5.999,-
 0.463\H,0,-1.283,-3.581,4.028\H,0,0.698,-4.478,7.755\H,0,0.833,-2.619,
 7.68\H,0,2.,-3.754,6.976\Mg,0,15.7599,1.4144,1.20449\C,0,15.00008,4.07
 216,3.49317\C,0,17.08652,-0.2828,3.84914\C,0,16.84464,-0.74419,-0.8525
 1\C,0,15.43416,3.7319,-1.37791\N,0,15.95836,1.9323,3.34567\C,0,15.5777
 3,2.94371,4.11152\C,0,15.75701,2.70055,5.63411\C,0,16.91625,1.59135,5.
 56563\C,0,16.6208,1.01407,4.18283\C,0,18.31559,2.18367,5.54691\C,0,14.
 45763,2.1327,6.3058\C,0,14.45903,2.16228,7.83579\H,0,13.20023,2.42436,
 8.52804\N,0,16.3614,-0.45347,1.50084\C,0,16.85086,-0.97915,2.64337\C,0
 ,17.16633,-2.3831,2.33748\C,0,16.97742,-2.5989,0.87719\C,0,16.73528,-1
 .23898,0.43891\C,0,17.52238,-3.38632,3.39588\C,0,17.02169,-3.82444,0.0
 1564\O,0,17.06434,-3.74742,-1.26307\C,0,17.10791,-5.11474,0.71506\N,0,
 16.30029,1.52369,-0.8001\C,0,16.68881,0.42586,-1.47221\C,0,16.7608,0.6
 9219,-2.95689\C,0,16.10379,2.13504,-3.16689\C,0,15.83484,2.50767,-1.69
 238\C,0,18.16165,0.67729,-3.56827\C,0,14.93047,2.23338,-4.17997\C,0,13
 .72885,1.48292,-3.65244\N,0,15.12397,3.47206,1.03225\C,0,15.08906,4.25
 879,-0.1399\C,0,14.69606,5.62442,0.2639\C,0,14.55081,5.54237,1.65697\C
 ,0,14.85297,4.22406,2.09316\C,0,14.56682,6.74416,-0.60535\C,0,14.2209,
 6.2739,2.85894\O,0,13.80039,7.40479,3.09975\C,0,14.61986,5.38675,4.115
 99\C,0,13.46368,5.39786,5.07809\O,0,12.37842,4.87563,4.76809\O,0,13.89
 366,5.82668,6.27876\C,0,12.78504,5.84465,7.26995\H,0,17.72925,-0.80221
 ,4.56048\H,0,17.10876,-1.4778,-1.61772\H,0,15.21551,4.48727,-2.13573\H
 ,0,16.09949,3.5622,6.1945\H,0,16.78256,0.83245,6.33216\H,0,18.29634,3.
 26013,5.46326\H,0,18.80872,1.74625,4.6887\H,0,18.87899,1.84743,6.42204
 \H,0,14.41265,1.04879,6.13888\H,0,13.58598,2.63637,5.93544\H,0,15.2571
 4,2.79993,8.235\H,0,14.70607,1.16283,8.20197\H,0,17.74385,-2.89928,4.3
 5355\H,0,18.4723,-3.84275,3.0972\H,0,16.77084,-4.17158,3.50178\H,0,17.
 99946,-5.12927,1.33746\H,0,17.03878,-5.87525,-0.06515\H,0,16.25045,-5.
 20406,1.39138\H,0,16.1849,-0.03998,-3.5095\H,0,16.83447,2.86406,-3.547
 \H,0,18.26892,-0.04893,-4.39601\H,0,18.87479,0.4663,-2.78248\H,0,18.51
 1,1.63679,-3.94578\H,0,15.20439,1.75628,-5.12417\H,0,14.64025,3.25377,
 -4.40705\H,0,13.93852,0.4482,-3.93963\H,0,12.81547,1.845,-4.12008\H,0,
 13.69127,1.51996,-2.55751\H,0,13.65925,7.25823,-0.31804\H,0,14.53708,6
 .43635,-1.64849\H,0,15.48501,7.28599,-0.36328\H,0,15.51959,5.82245,4.5
 5215\H,0,12.73549,6.85991,7.6755\H,0,13.00783,5.02804,7.98218\H,0,11.7
 7603,5.71691,6.89573\\Version=ES64L-G16RevA.03\State=1-A\HF=-4069.8118
 252\RMSD=6.050e-09\PG=C01 [X(C68H72Mg2N8O8)]\\@


 YOU KNOW YOU'VE SPOKEN TOO LONG WHEN THE AUDIENCE STOPS LOOKING AT
 THEIR WATCHES AND STARTS SHAKING THEM.
 Job cpu time:       0 days 11 hours 18 minutes 43.0 seconds.
 Elapsed time:       0 days  0 hours 28 minutes 52.0 seconds.
 File lengths (MBytes):  RWF=  13225 Int=      0 D2E=      0 Chk=    574 Scr=      1
 Normal termination of Gaussian 16 at Sat Sep 11 22:49:56 2021.
