 Entering Gaussian System, Link 0=g16
 Initial command:
 /sw/apps/gaussian-16.0/g16/l1.exe "/tmp/Gau-193390.inp" -scrdir="/tmp/"
 Entering Link 1 = /sw/apps/gaussian-16.0/g16/l1.exe PID=    193391.
  
 Copyright (c) 1988,1990,1992,1993,1995,1998,2003,2009,2016,
            Gaussian, Inc.  All Rights Reserved.
  
 This is part of the Gaussian(R) 16 program.  It is based on
 the Gaussian(R) 09 system (copyright 2009, Gaussian, Inc.),
 the Gaussian(R) 03 system (copyright 2003, Gaussian, Inc.),
 the Gaussian(R) 98 system (copyright 1998, Gaussian, Inc.),
 the Gaussian(R) 94 system (copyright 1995, Gaussian, Inc.),
 the Gaussian 92(TM) system (copyright 1992, Gaussian, Inc.),
 the Gaussian 90(TM) system (copyright 1990, Gaussian, Inc.),
 the Gaussian 88(TM) system (copyright 1988, Gaussian, Inc.),
 the Gaussian 86(TM) system (copyright 1986, Carnegie Mellon
 University), and the Gaussian 82(TM) system (copyright 1983,
 Carnegie Mellon University). Gaussian is a federally registered
 trademark of Gaussian, Inc.
  
 This software contains proprietary and confidential information,
 including trade secrets, belonging to Gaussian, Inc.
  
 This software is provided under written license and may be
 used, copied, transmitted, or stored only in accord with that
 written license.
  
 The following legend is applicable only to US Government
 contracts under FAR:
  
                    RESTRICTED RIGHTS LEGEND
  
 Use, reproduction and disclosure by the US Government is
 subject to restrictions as set forth in subparagraphs (a)
 and (c) of the Commercial Computer Software - Restricted
 Rights clause in FAR 52.227-19.
  
 Gaussian, Inc.
 340 Quinnipiac St., Bldg. 40, Wallingford CT 06492
  
  
 ---------------------------------------------------------------
 Warning -- This program may not be used in any manner that
 competes with the business of Gaussian, Inc. or will provide
 assistance to any competitor of Gaussian, Inc.  The licensee
 of this program is prohibited from giving any competitor of
 Gaussian, Inc. access to this program.  By using this program,
 the user acknowledges that Gaussian, Inc. is engaged in the
 business of creating and licensing software in the field of
 computational chemistry and represents and warrants to the
 licensee that it is not a competitor of Gaussian, Inc. and that
 it will not use this program in any manner prohibited above.
 ---------------------------------------------------------------
  

 Cite this work as:
 Gaussian 16, Revision A.03,
 M. J. Frisch, G. W. Trucks, H. B. Schlegel, G. E. Scuseria, 
 M. A. Robb, J. R. Cheeseman, G. Scalmani, V. Barone, 
 G. A. Petersson, H. Nakatsuji, X. Li, M. Caricato, A. V. Marenich, 
 J. Bloino, B. G. Janesko, R. Gomperts, B. Mennucci, H. P. Hratchian, 
 J. V. Ortiz, A. F. Izmaylov, J. L. Sonnenberg, D. Williams-Young, 
 F. Ding, F. Lipparini, F. Egidi, J. Goings, B. Peng, A. Petrone, 
 T. Henderson, D. Ranasinghe, V. G. Zakrzewski, J. Gao, N. Rega, 
 G. Zheng, W. Liang, M. Hada, M. Ehara, K. Toyota, R. Fukuda, 
 J. Hasegawa, M. Ishida, T. Nakajima, Y. Honda, O. Kitao, H. Nakai, 
 T. Vreven, K. Throssell, J. A. Montgomery, Jr., J. E. Peralta, 
 F. Ogliaro, M. J. Bearpark, J. J. Heyd, E. N. Brothers, K. N. Kudin, 
 V. N. Staroverov, T. A. Keith, R. Kobayashi, J. Normand, 
 K. Raghavachari, A. P. Rendell, J. C. Burant, S. S. Iyengar, 
 J. Tomasi, M. Cossi, J. M. Millam, M. Klene, C. Adamo, R. Cammi, 
 J. W. Ochterski, R. L. Martin, K. Morokuma, O. Farkas, 
 J. B. Foresman, and D. J. Fox, Gaussian, Inc., Wallingford CT, 2016.
 
 ******************************************
 Gaussian 16:  ES64L-G16RevA.03 25-Dec-2016
                10-Sep-2021 
 ******************************************
 %nproc=24
 Will use up to   24 processors via shared memory.
 %mem=175gb
 -----------------------------------
 #p cam-b3lyp/Def2SVP td=(nstates=5)
 -----------------------------------
 1/38=1,172=1/1;
 2/12=2,17=6,18=5,40=1/2;
 3/5=43,7=101,11=9,25=1,30=1,74=-40/1,2,3,8;
 4//1;
 5/5=2,38=5/2;
 8/6=1,10=1,108=5/1;
 9/41=5,42=1,70=2/14;
 6/7=2,8=2,9=2,10=2/1;
 99/5=1,9=1/99;
 Leave Link    1 at Fri Sep 10 05:59:07 2021, MaxMem= 23488102400 cpu:               0.9 elap:               0.0
 (Enter /sw/apps/gaussian-16.0/g16/l101.exe)
 --------------------------------
 TDDFT excited states in gaussian
 --------------------------------
 Symbolic Z-matrix:
 Charge =  0 Multiplicity = 1
 Mg                    0.        0.        0. 
 C                    -0.217    -2.218     2.801 
 C                    -1.255     2.442     2.026 
 C                    -0.245     1.85     -2.564 
 C                     0.146    -2.824    -2.037 
 N                    -0.617    -0.009     2.126 
 C                    -0.594    -0.908     3.105 
 C                    -0.936    -0.309     4.502 
 C                    -1.773     0.964     4.032 
 C                    -1.155     1.168     2.66 
 C                    -3.263     0.685     3.863 
 C                     0.345     0.11      5.299 
 C                     0.124     0.397     6.787 
 H                     1.168     0.033     7.733 
 N                    -0.185     1.961    -0.152 
 C                    -0.703     2.8       0.777 
 C                    -0.62      4.156     0.193 
 C                    -0.187     4.015    -1.225 
 C                    -0.214     2.583    -1.38 
 C                    -0.887     5.406     0.974 
 C                     0.181     5.013    -2.277 
 O                     0.303     4.69     -3.508 
 C                     0.31      6.414    -1.837 
 N                    -0.265    -0.413    -2.029 
 C                    -0.279     0.569    -2.937 
 C                    -0.196     0.024    -4.332 
 C                     0.124    -1.533    -4.18 
 C                     0.086    -1.632    -2.635 
 C                    -1.451     0.205    -5.197 
 C                     1.373    -2.07     -4.923 
 C                     2.626    -1.49     -4.306 
 N                     0.15     -2.144     0.303 
 C                     0.173    -3.136    -0.688 
 C                     0.173    -4.438     0.004 
 C                     0.133    -4.111     1.358 
 C                     0.083    -2.695     1.502 
 C                     0.149    -5.715    -0.623 
 C                     0.096    -4.629     2.716 
 O                     0.208    -5.747     3.221 
 C                    -0.255    -3.428     3.701 
 C                     0.717    -3.482     4.848 
 O                     1.931    -3.255     4.669 
 O                     0.038    -3.556     6.003 
 C                     0.943    -3.583     7.183 
 H                    -1.859     3.22      2.497 
 H                    -0.218     2.453    -3.474 
 H                     0.276    -3.747    -2.605 
 H                    -1.554    -0.949     5.132 
 H                    -1.585     1.831     4.665 
 H                    -3.484    -0.377     3.969 
 H                    -3.511     1.027     2.858 
 H                    -3.852     1.301     4.543 
 H                     0.669     1.096     4.966 
 H                     1.13     -0.639     5.189 
 H                    -0.844     0.026     7.125 
 H                     0.062     1.477     6.921 
 H                    -1.344     5.186     1.938 
 H                    -1.651     5.963     0.432 
 H                     0.007     6.02      1.084 
 H                    -0.635     6.744    -1.405 
 H                     0.665     6.97     -2.704 
 H                     1.048     6.466    -1.036 
 H                     0.608     0.501    -4.891 
 H                    -0.692    -2.156    -4.547 
 H                    -1.267     0.74     -6.129 
 H                    -2.204     0.714    -4.596 
 H                    -1.967    -0.72     -5.453 
 H                     1.356    -1.759    -5.967 
 H                     1.452    -3.157    -4.902 
 H                     2.714    -0.522    -4.798 
 H                     3.487    -2.121    -4.529 
 H                     2.495    -1.303    -3.24 
 H                     0.867    -6.333    -0.084 
 H                     0.404    -5.642    -1.68 
 H                    -0.891    -5.999    -0.463 
 H                    -1.283    -3.581     4.028 
 H                     0.698    -4.478     7.755 
 H                     0.833    -2.619     7.68 
 H                     2.       -3.754     6.976 
 Mg                    8.9327    0.81299   0.68459 
 C                     10.96539   0.0511    3.54234 
 C                     6.27013   0.98052   2.80997 
 C                     7.0456    1.03946  -1.85609 
 C                     11.46885  -0.51849  -1.30056 
 N                     8.76597   0.53351   2.87236 
 C                     9.616     0.30785   3.86275 
 C                     9.00015   0.43966   5.28152 
 C                     7.46468   0.15892   4.9042 
 C                     7.48329   0.61704   3.44733 
 C                     7.0968   -1.31517   4.93669 
 C                     9.19015   1.87573   5.88454 
 C                     8.89016   1.98978   7.38079 
 H                     9.69593   2.90485   8.18444 
 N                     7.06297   1.45945   0.52711 
 C                     6.12352   1.47636   1.49583 
 C                     4.91067   2.02604   0.87051 
 C                     5.16287   2.17844  -0.58822 
 C                     6.45463   1.53142  -0.70141 
 C                     3.69753   2.42474   1.65965 
 C                     4.36667   2.79214  -1.69981 
 O                     4.67032   2.60155  -2.93038 
 C                     3.16663   3.54576  -1.30809 
 N                     9.11843   0.14111  -1.27409 
 C                     8.17688   0.41962  -2.19271 
 C                     8.65342   0.07583  -3.5838 
 C                     10.20804  -0.26757  -3.43275 
 C                     10.34667  -0.14406  -1.89948 
 C                     7.93808  -1.09219  -4.26233 
 C                     11.19493   0.52779  -4.3306 
 C                     11.21545   1.98079  -3.91377 
 N                     10.94407   0.0928    1.00671 
 C                     11.82227  -0.44552   0.04076 
 C                     13.03083  -0.90187   0.75739 
 C                     12.76016  -0.6161    2.10408 
 C                     11.46547  -0.042     2.22098 
 C                     14.1598  -1.53497   0.16516 
 C                     13.27099  -0.67932   3.45454 
 O                     14.348   -0.9891    3.96229 
 C                     12.08062  -0.36638   4.46027 
 C                     12.57377   0.63801   5.46551 
 O                     12.87862   1.79023   5.11046 
 O                     12.39832   0.14387   6.70463 
 C                     12.86242   1.10857   7.73701 
 H                     5.33524   0.83338   3.35146 
 H                     6.48031   1.19455  -2.77797 
 H                     12.34466  -0.85496  -1.8595 
 H                     9.34747  -0.29546   5.99758 
 H                     6.79368   0.7809    5.49094 
 H                     7.96142  -1.94283   5.09361 
 H                     6.6449   -1.52681   3.97646 
 H                     6.31674  -1.49267   5.68257 
 H                     8.41067   2.53758   5.48565 
 H                     10.17708   2.24538   5.68466 
 H                     8.82677   1.00748   7.86452 
 H                     7.89047   2.41371   7.50295 
 H                     3.74235   2.04242   2.68689 
 H                     2.84162   1.90639   1.21401 
 H                     3.51232   3.50067   1.63257 
 H                     2.49449   2.89307  -0.75611 
 H                     2.78165   3.98279  -2.23149 
 H                     3.46447   4.34504  -0.62029 
 H                     8.54368   0.9224   -4.25041 
 H                     10.41971  -1.31731  -3.68388 
 H                     7.48489  -0.82105  -5.23453 
 H                     7.18507  -1.47154  -3.58438 
 H                     8.55473  -1.97194  -4.43836 
 H                     10.86061   0.50799  -5.37079 
 H                     12.20725   0.1382   -4.31023 
 H                     10.34814   2.39887  -4.43346 
 H                     12.13774   2.45912  -4.23721 
 H                     11.036    2.08399  -2.8373 
 H                     15.03768  -1.08562   0.61003 
 H                     14.15816  -1.41973  -0.91673 
 H                     13.98375  -2.57064   0.46792 
 H                     11.7923  -1.30771   4.92967 
 H                     13.59454   0.58378   8.35852 
 H                     11.94621   1.47394   8.23782 
 H                     13.44168   1.96103   7.40203 
 
 ITRead=  0  0  0  0  0  0  0  0  0  0  0  0  0  0  0  0  0  0  0  0
 ITRead=  0  0  0  0  0  0  0  0  0  0  0  0  0  0  0  0  0  0  0  0
 ITRead=  0  0  0  0  0  0  0  0  0  0  0  0  0  0  0  0  0  0  0  0
 ITRead=  0  0  0  0  0  0  0  0  0  0  0  0  0  0  0  0  0  0  0  0
 ITRead=  0  0  0  0  0  0  0  0  0  0  0  0  0  0  0  0  0  0  0  0
 ITRead=  0  0  0  0  0  0  0  0  0  0  0  0  0  0  0  0  0  0  0  0
 ITRead=  0  0  0  0  0  0  0  0  0  0  0  0  0  0  0  0  0  0  0  0
 ITRead=  0  0  0  0  0  0  0  0  0  0  0  0  0  0  0  0  0  0
 MicOpt= -1 -1 -1 -1 -1 -1 -1 -1 -1 -1 -1 -1 -1 -1 -1 -1 -1 -1 -1 -1
 MicOpt= -1 -1 -1 -1 -1 -1 -1 -1 -1 -1 -1 -1 -1 -1 -1 -1 -1 -1 -1 -1
 MicOpt= -1 -1 -1 -1 -1 -1 -1 -1 -1 -1 -1 -1 -1 -1 -1 -1 -1 -1 -1 -1
 MicOpt= -1 -1 -1 -1 -1 -1 -1 -1 -1 -1 -1 -1 -1 -1 -1 -1 -1 -1 -1 -1
 MicOpt= -1 -1 -1 -1 -1 -1 -1 -1 -1 -1 -1 -1 -1 -1 -1 -1 -1 -1 -1 -1
 MicOpt= -1 -1 -1 -1 -1 -1 -1 -1 -1 -1 -1 -1 -1 -1 -1 -1 -1 -1 -1 -1
 MicOpt= -1 -1 -1 -1 -1 -1 -1 -1 -1 -1 -1 -1 -1 -1 -1 -1 -1 -1 -1 -1
 MicOpt= -1 -1 -1 -1 -1 -1 -1 -1 -1 -1 -1 -1 -1 -1 -1 -1 -1 -1
 NAtoms=    158 NQM=      158 NQMF=       0 NMMI=      0 NMMIF=      0
                NMic=       0 NMicF=      0.
                    Isotopes and Nuclear Properties:
 (Nuclear quadrupole moments (NQMom) in fm**2, nuclear magnetic moments (NMagM)
  in nuclear magnetons)

  Atom         1           2           3           4           5           6           7           8           9          10
 IAtWgt=          24          12          12          12          12          14          12          12          12          12
 AtmWgt=  23.9850450  12.0000000  12.0000000  12.0000000  12.0000000  14.0030740  12.0000000  12.0000000  12.0000000  12.0000000
 NucSpn=           0           0           0           0           0           2           0           0           0           0
 AtZEff=  -0.0000000  -0.0000000  -0.0000000  -0.0000000  -0.0000000  -0.0000000  -0.0000000  -0.0000000  -0.0000000  -0.0000000
 NQMom=    0.0000000   0.0000000   0.0000000   0.0000000   0.0000000   2.0440000   0.0000000   0.0000000   0.0000000   0.0000000
 NMagM=    0.0000000   0.0000000   0.0000000   0.0000000   0.0000000   0.4037610   0.0000000   0.0000000   0.0000000   0.0000000
 AtZNuc=  12.0000000   6.0000000   6.0000000   6.0000000   6.0000000   7.0000000   6.0000000   6.0000000   6.0000000   6.0000000

  Atom        11          12          13          14          15          16          17          18          19          20
 IAtWgt=          12          12          12           1          14          12          12          12          12          12
 AtmWgt=  12.0000000  12.0000000  12.0000000   1.0078250  14.0030740  12.0000000  12.0000000  12.0000000  12.0000000  12.0000000
 NucSpn=           0           0           0           1           2           0           0           0           0           0
 AtZEff=  -0.0000000  -0.0000000  -0.0000000  -0.0000000  -0.0000000  -0.0000000  -0.0000000  -0.0000000  -0.0000000  -0.0000000
 NQMom=    0.0000000   0.0000000   0.0000000   0.0000000   2.0440000   0.0000000   0.0000000   0.0000000   0.0000000   0.0000000
 NMagM=    0.0000000   0.0000000   0.0000000   2.7928460   0.4037610   0.0000000   0.0000000   0.0000000   0.0000000   0.0000000
 AtZNuc=   6.0000000   6.0000000   6.0000000   1.0000000   7.0000000   6.0000000   6.0000000   6.0000000   6.0000000   6.0000000

  Atom        21          22          23          24          25          26          27          28          29          30
 IAtWgt=          12          16          12          14          12          12          12          12          12          12
 AtmWgt=  12.0000000  15.9949146  12.0000000  14.0030740  12.0000000  12.0000000  12.0000000  12.0000000  12.0000000  12.0000000
 NucSpn=           0           0           0           2           0           0           0           0           0           0
 AtZEff=  -0.0000000  -0.0000000  -0.0000000  -0.0000000  -0.0000000  -0.0000000  -0.0000000  -0.0000000  -0.0000000  -0.0000000
 NQMom=    0.0000000   0.0000000   0.0000000   2.0440000   0.0000000   0.0000000   0.0000000   0.0000000   0.0000000   0.0000000
 NMagM=    0.0000000   0.0000000   0.0000000   0.4037610   0.0000000   0.0000000   0.0000000   0.0000000   0.0000000   0.0000000
 AtZNuc=   6.0000000   8.0000000   6.0000000   7.0000000   6.0000000   6.0000000   6.0000000   6.0000000   6.0000000   6.0000000

  Atom        31          32          33          34          35          36          37          38          39          40
 IAtWgt=          12          14          12          12          12          12          12          12          16          12
 AtmWgt=  12.0000000  14.0030740  12.0000000  12.0000000  12.0000000  12.0000000  12.0000000  12.0000000  15.9949146  12.0000000
 NucSpn=           0           2           0           0           0           0           0           0           0           0
 AtZEff=  -0.0000000  -0.0000000  -0.0000000  -0.0000000  -0.0000000  -0.0000000  -0.0000000  -0.0000000  -0.0000000  -0.0000000
 NQMom=    0.0000000   2.0440000   0.0000000   0.0000000   0.0000000   0.0000000   0.0000000   0.0000000   0.0000000   0.0000000
 NMagM=    0.0000000   0.4037610   0.0000000   0.0000000   0.0000000   0.0000000   0.0000000   0.0000000   0.0000000   0.0000000
 AtZNuc=   6.0000000   7.0000000   6.0000000   6.0000000   6.0000000   6.0000000   6.0000000   6.0000000   8.0000000   6.0000000

  Atom        41          42          43          44          45          46          47          48          49          50
 IAtWgt=          12          16          16          12           1           1           1           1           1           1
 AtmWgt=  12.0000000  15.9949146  15.9949146  12.0000000   1.0078250   1.0078250   1.0078250   1.0078250   1.0078250   1.0078250
 NucSpn=           0           0           0           0           1           1           1           1           1           1
 AtZEff=  -0.0000000  -0.0000000  -0.0000000  -0.0000000  -0.0000000  -0.0000000  -0.0000000  -0.0000000  -0.0000000  -0.0000000
 NQMom=    0.0000000   0.0000000   0.0000000   0.0000000   0.0000000   0.0000000   0.0000000   0.0000000   0.0000000   0.0000000
 NMagM=    0.0000000   0.0000000   0.0000000   0.0000000   2.7928460   2.7928460   2.7928460   2.7928460   2.7928460   2.7928460
 AtZNuc=   6.0000000   8.0000000   8.0000000   6.0000000   1.0000000   1.0000000   1.0000000   1.0000000   1.0000000   1.0000000

  Atom        51          52          53          54          55          56          57          58          59          60
 IAtWgt=           1           1           1           1           1           1           1           1           1           1
 AtmWgt=   1.0078250   1.0078250   1.0078250   1.0078250   1.0078250   1.0078250   1.0078250   1.0078250   1.0078250   1.0078250
 NucSpn=           1           1           1           1           1           1           1           1           1           1
 AtZEff=  -0.0000000  -0.0000000  -0.0000000  -0.0000000  -0.0000000  -0.0000000  -0.0000000  -0.0000000  -0.0000000  -0.0000000
 NQMom=    0.0000000   0.0000000   0.0000000   0.0000000   0.0000000   0.0000000   0.0000000   0.0000000   0.0000000   0.0000000
 NMagM=    2.7928460   2.7928460   2.7928460   2.7928460   2.7928460   2.7928460   2.7928460   2.7928460   2.7928460   2.7928460
 AtZNuc=   1.0000000   1.0000000   1.0000000   1.0000000   1.0000000   1.0000000   1.0000000   1.0000000   1.0000000   1.0000000

  Atom        61          62          63          64          65          66          67          68          69          70
 IAtWgt=           1           1           1           1           1           1           1           1           1           1
 AtmWgt=   1.0078250   1.0078250   1.0078250   1.0078250   1.0078250   1.0078250   1.0078250   1.0078250   1.0078250   1.0078250
 NucSpn=           1           1           1           1           1           1           1           1           1           1
 AtZEff=  -0.0000000  -0.0000000  -0.0000000  -0.0000000  -0.0000000  -0.0000000  -0.0000000  -0.0000000  -0.0000000  -0.0000000
 NQMom=    0.0000000   0.0000000   0.0000000   0.0000000   0.0000000   0.0000000   0.0000000   0.0000000   0.0000000   0.0000000
 NMagM=    2.7928460   2.7928460   2.7928460   2.7928460   2.7928460   2.7928460   2.7928460   2.7928460   2.7928460   2.7928460
 AtZNuc=   1.0000000   1.0000000   1.0000000   1.0000000   1.0000000   1.0000000   1.0000000   1.0000000   1.0000000   1.0000000

  Atom        71          72          73          74          75          76          77          78          79          80
 IAtWgt=           1           1           1           1           1           1           1           1           1          24
 AtmWgt=   1.0078250   1.0078250   1.0078250   1.0078250   1.0078250   1.0078250   1.0078250   1.0078250   1.0078250  23.9850450
 NucSpn=           1           1           1           1           1           1           1           1           1           0
 AtZEff=  -0.0000000  -0.0000000  -0.0000000  -0.0000000  -0.0000000  -0.0000000  -0.0000000  -0.0000000  -0.0000000  -0.0000000
 NQMom=    0.0000000   0.0000000   0.0000000   0.0000000   0.0000000   0.0000000   0.0000000   0.0000000   0.0000000   0.0000000
 NMagM=    2.7928460   2.7928460   2.7928460   2.7928460   2.7928460   2.7928460   2.7928460   2.7928460   2.7928460   0.0000000
 AtZNuc=   1.0000000   1.0000000   1.0000000   1.0000000   1.0000000   1.0000000   1.0000000   1.0000000   1.0000000  12.0000000

  Atom        81          82          83          84          85          86          87          88          89          90
 IAtWgt=          12          12          12          12          14          12          12          12          12          12
 AtmWgt=  12.0000000  12.0000000  12.0000000  12.0000000  14.0030740  12.0000000  12.0000000  12.0000000  12.0000000  12.0000000
 NucSpn=           0           0           0           0           2           0           0           0           0           0
 AtZEff=  -0.0000000  -0.0000000  -0.0000000  -0.0000000  -0.0000000  -0.0000000  -0.0000000  -0.0000000  -0.0000000  -0.0000000
 NQMom=    0.0000000   0.0000000   0.0000000   0.0000000   2.0440000   0.0000000   0.0000000   0.0000000   0.0000000   0.0000000
 NMagM=    0.0000000   0.0000000   0.0000000   0.0000000   0.4037610   0.0000000   0.0000000   0.0000000   0.0000000   0.0000000
 AtZNuc=   6.0000000   6.0000000   6.0000000   6.0000000   7.0000000   6.0000000   6.0000000   6.0000000   6.0000000   6.0000000

  Atom        91          92          93          94          95          96          97          98          99         100
 IAtWgt=          12          12           1          14          12          12          12          12          12          12
 AtmWgt=  12.0000000  12.0000000   1.0078250  14.0030740  12.0000000  12.0000000  12.0000000  12.0000000  12.0000000  12.0000000
 NucSpn=           0           0           1           2           0           0           0           0           0           0
 AtZEff=  -0.0000000  -0.0000000  -0.0000000  -0.0000000  -0.0000000  -0.0000000  -0.0000000  -0.0000000  -0.0000000  -0.0000000
 NQMom=    0.0000000   0.0000000   0.0000000   2.0440000   0.0000000   0.0000000   0.0000000   0.0000000   0.0000000   0.0000000
 NMagM=    0.0000000   0.0000000   2.7928460   0.4037610   0.0000000   0.0000000   0.0000000   0.0000000   0.0000000   0.0000000
 AtZNuc=   6.0000000   6.0000000   1.0000000   7.0000000   6.0000000   6.0000000   6.0000000   6.0000000   6.0000000   6.0000000

  Atom       101         102         103         104         105         106         107         108         109         110
 IAtWgt=          16          12          14          12          12          12          12          12          12          12
 AtmWgt=  15.9949146  12.0000000  14.0030740  12.0000000  12.0000000  12.0000000  12.0000000  12.0000000  12.0000000  12.0000000
 NucSpn=           0           0           2           0           0           0           0           0           0           0
 AtZEff=  -0.0000000  -0.0000000  -0.0000000  -0.0000000  -0.0000000  -0.0000000  -0.0000000  -0.0000000  -0.0000000  -0.0000000
 NQMom=    0.0000000   0.0000000   2.0440000   0.0000000   0.0000000   0.0000000   0.0000000   0.0000000   0.0000000   0.0000000
 NMagM=    0.0000000   0.0000000   0.4037610   0.0000000   0.0000000   0.0000000   0.0000000   0.0000000   0.0000000   0.0000000
 AtZNuc=   8.0000000   6.0000000   7.0000000   6.0000000   6.0000000   6.0000000   6.0000000   6.0000000   6.0000000   6.0000000

  Atom       111         112         113         114         115         116         117         118         119         120
 IAtWgt=          14          12          12          12          12          12          12          16          12          12
 AtmWgt=  14.0030740  12.0000000  12.0000000  12.0000000  12.0000000  12.0000000  12.0000000  15.9949146  12.0000000  12.0000000
 NucSpn=           2           0           0           0           0           0           0           0           0           0
 AtZEff=  -0.0000000  -0.0000000  -0.0000000  -0.0000000  -0.0000000  -0.0000000  -0.0000000  -0.0000000  -0.0000000  -0.0000000
 NQMom=    2.0440000   0.0000000   0.0000000   0.0000000   0.0000000   0.0000000   0.0000000   0.0000000   0.0000000   0.0000000
 NMagM=    0.4037610   0.0000000   0.0000000   0.0000000   0.0000000   0.0000000   0.0000000   0.0000000   0.0000000   0.0000000
 AtZNuc=   7.0000000   6.0000000   6.0000000   6.0000000   6.0000000   6.0000000   6.0000000   8.0000000   6.0000000   6.0000000

  Atom       121         122         123         124         125         126         127         128         129         130
 IAtWgt=          16          16          12           1           1           1           1           1           1           1
 AtmWgt=  15.9949146  15.9949146  12.0000000   1.0078250   1.0078250   1.0078250   1.0078250   1.0078250   1.0078250   1.0078250
 NucSpn=           0           0           0           1           1           1           1           1           1           1
 AtZEff=  -0.0000000  -0.0000000  -0.0000000  -0.0000000  -0.0000000  -0.0000000  -0.0000000  -0.0000000  -0.0000000  -0.0000000
 NQMom=    0.0000000   0.0000000   0.0000000   0.0000000   0.0000000   0.0000000   0.0000000   0.0000000   0.0000000   0.0000000
 NMagM=    0.0000000   0.0000000   0.0000000   2.7928460   2.7928460   2.7928460   2.7928460   2.7928460   2.7928460   2.7928460
 AtZNuc=   8.0000000   8.0000000   6.0000000   1.0000000   1.0000000   1.0000000   1.0000000   1.0000000   1.0000000   1.0000000

  Atom       131         132         133         134         135         136         137         138         139         140
 IAtWgt=           1           1           1           1           1           1           1           1           1           1
 AtmWgt=   1.0078250   1.0078250   1.0078250   1.0078250   1.0078250   1.0078250   1.0078250   1.0078250   1.0078250   1.0078250
 NucSpn=           1           1           1           1           1           1           1           1           1           1
 AtZEff=  -0.0000000  -0.0000000  -0.0000000  -0.0000000  -0.0000000  -0.0000000  -0.0000000  -0.0000000  -0.0000000  -0.0000000
 NQMom=    0.0000000   0.0000000   0.0000000   0.0000000   0.0000000   0.0000000   0.0000000   0.0000000   0.0000000   0.0000000
 NMagM=    2.7928460   2.7928460   2.7928460   2.7928460   2.7928460   2.7928460   2.7928460   2.7928460   2.7928460   2.7928460
 AtZNuc=   1.0000000   1.0000000   1.0000000   1.0000000   1.0000000   1.0000000   1.0000000   1.0000000   1.0000000   1.0000000

  Atom       141         142         143         144         145         146         147         148         149         150
 IAtWgt=           1           1           1           1           1           1           1           1           1           1
 AtmWgt=   1.0078250   1.0078250   1.0078250   1.0078250   1.0078250   1.0078250   1.0078250   1.0078250   1.0078250   1.0078250
 NucSpn=           1           1           1           1           1           1           1           1           1           1
 AtZEff=  -0.0000000  -0.0000000  -0.0000000  -0.0000000  -0.0000000  -0.0000000  -0.0000000  -0.0000000  -0.0000000  -0.0000000
 NQMom=    0.0000000   0.0000000   0.0000000   0.0000000   0.0000000   0.0000000   0.0000000   0.0000000   0.0000000   0.0000000
 NMagM=    2.7928460   2.7928460   2.7928460   2.7928460   2.7928460   2.7928460   2.7928460   2.7928460   2.7928460   2.7928460
 AtZNuc=   1.0000000   1.0000000   1.0000000   1.0000000   1.0000000   1.0000000   1.0000000   1.0000000   1.0000000   1.0000000

  Atom       151         152         153         154         155         156         157         158
 IAtWgt=           1           1           1           1           1           1           1           1
 AtmWgt=   1.0078250   1.0078250   1.0078250   1.0078250   1.0078250   1.0078250   1.0078250   1.0078250
 NucSpn=           1           1           1           1           1           1           1           1
 AtZEff=  -0.0000000  -0.0000000  -0.0000000  -0.0000000  -0.0000000  -0.0000000  -0.0000000  -0.0000000
 NQMom=    0.0000000   0.0000000   0.0000000   0.0000000   0.0000000   0.0000000   0.0000000   0.0000000
 NMagM=    2.7928460   2.7928460   2.7928460   2.7928460   2.7928460   2.7928460   2.7928460   2.7928460
 AtZNuc=   1.0000000   1.0000000   1.0000000   1.0000000   1.0000000   1.0000000   1.0000000   1.0000000
 Leave Link  101 at Fri Sep 10 05:59:08 2021, MaxMem= 23488102400 cpu:               3.2 elap:               0.2
 (Enter /sw/apps/gaussian-16.0/g16/l202.exe)
 Stoichiometry    C68H72Mg2N8O8
 Framework group  C1[X(C68H72Mg2N8O8)]
 Deg. of freedom   468
 Full point group                 C1      NOp   1
 Largest Abelian subgroup         C1      NOp   1
 Largest concise Abelian subgroup C1      NOp   1
                         Standard orientation:                         
 ---------------------------------------------------------------------
 Center     Atomic      Atomic             Coordinates (Angstroms)
 Number     Number       Type             X           Y           Z
 ---------------------------------------------------------------------
      1         12           0        4.693080   -0.191307   -0.068374
      2          6           0        4.463076    3.043548   -1.583308
      3          6           0        5.514879    1.393139    2.839760
      4          6           0        5.344302   -3.036799    1.170862
      5          6           0        4.973251   -1.513134   -3.280840
      6          7           0        4.925360    1.951048    0.438583
      7          6           0        4.750526    3.093932   -0.217482
      8          6           0        4.826930    4.350871    0.699927
      9          6           0        5.704442    3.744595    1.885001
     10          6           0        5.333700    2.279499    1.736777
     11          6           0        7.206860    3.895323    1.669307
     12          6           0        3.416187    4.804350    1.205784
     13          6           0        3.364588    6.200701    1.832598
     14          1           0        2.178649    7.017971    1.625308
     15          7           0        4.857184   -0.760849    1.816179
     16          6           0        5.183870    0.021208    2.873037
     17          6           0        5.174274   -0.866705    4.055492
     18          6           0        5.001573   -2.265105    3.573056
     19          6           0        5.088175   -2.077154    2.147380
     20          6           0        5.270694   -0.363561    5.463079
     21          6           0        4.802263   -3.565987    4.284472
     22          8           0        4.906763   -4.691203    3.686522
     23          6           0        4.565714   -3.490584    5.737538
     24          7           0        5.321250   -1.996046   -0.908584
     25          6           0        5.472807   -3.091624   -0.156439
     26          6           0        5.649686   -4.316056   -1.004625
     27          6           0        5.343514   -3.862652   -2.504770
     28          6           0        5.110588   -2.352638   -2.252036
     29          6           0        7.033145   -4.978145   -0.943880
     30          6           0        4.257779   -4.658140   -3.272102
     31          6           0        2.902671   -4.409841   -2.648301
     32          7           0        4.540954    0.571209   -2.094817
     33          6           0        4.715804   -0.152403   -3.283299
     34          6           0        4.623436    0.812682   -4.394220
     35          6           0        4.416452    2.041205   -3.769933
     36          6           0        4.407927    1.859238   -2.357451
     37          6           0        4.786822    0.511830   -5.775244
     38          6           0        4.225098    3.468976   -3.966686
     39          8           0        4.051309    4.193536   -4.947656
     40          6           0        4.369305    4.192977   -2.555710
     41          6           0        3.211680    5.142996   -2.411915
     42          8           0        2.043444    4.716740   -2.307537
     43          8           0        3.677766    6.380131   -2.182123
     44          6           0        2.579634    7.366670   -2.000461
     45          1           0        6.008389    1.764704    3.739942
     46          1           0        5.464516   -4.053247    1.551413
     47          1           0        4.966603   -1.865148   -4.314037
     48          1           0        5.338532    5.205917    0.257679
     49          1           0        5.387972    4.118958    2.858357
     50          1           0        7.429875    4.279924    0.674185
     51          1           0        7.620406    2.894113    1.791991
     52          1           0        7.652433    4.502258    2.457894
     53          1           0        3.133598    4.202667    2.069602
     54          1           0        2.680212    4.741918    0.403432
     55          1           0        4.265983    6.771783    1.608410
     56          1           0        3.377305    6.089049    2.916836
     57          1           0        5.555350    0.687416    5.494099
     58          1           0        6.105416   -0.884989    5.931118
     59          1           0        4.357532   -0.549300    6.028736
     60          1           0        5.411891   -2.995767    6.214706
     61          1           0        4.356647   -4.509519    6.061438
     62          1           0        3.696981   -2.857799    5.921481
     63          1           0        4.946245   -5.096223   -0.716640
     64          1           0        6.225467   -3.934120   -3.141736
     65          1           0        7.004298   -6.026045   -0.644250
     66          1           0        7.656483   -4.394818   -0.266776
     67          1           0        7.607194   -4.923146   -1.868466
     68          1           0        4.451599   -5.727990   -3.202816
     69          1           0        4.201147   -4.399142   -4.329440
     70          1           0        2.880781   -5.120455   -1.822843
     71          1           0        2.109152   -4.620582   -3.366023
     72          1           0        2.839242   -3.409732   -2.219062
     73          1           0        3.999287    1.052182   -6.300390
     74          1           0        4.720706   -0.560574   -5.957403
     75          1           0        5.788487    0.904130   -5.950241
     76          1           0        5.326708    4.712960   -2.566597
     77          1           0        2.740240    8.163164   -2.727123
     78          1           0        2.578191    7.637803   -0.944577
     79          1           0        1.579918    7.031988   -2.279556
     80         12           0       -4.236473   -1.210541    0.315029
     81          6           0       -6.723532    1.366641    0.087632
     82          6           0       -1.995171    1.230778    1.121943
     83          6           0       -1.936399   -3.383938    0.083733
     84          6           0       -6.351543   -3.226559   -1.584410
     85          7           0       -4.452004    0.978777    0.544538
     86          6           0       -5.458055    1.838803    0.493918
     87          6           0       -5.105346    3.270507    0.979070
     88          6           0       -3.521391    3.229552    0.717801
     89          6           0       -3.293131    1.723968    0.835294
     90          6           0       -3.131463    3.663693   -0.685342
     91          6           0       -5.431485    3.483866    2.498985
     92          6           0       -5.402862    4.941370    2.964418
     93          1           0       -6.358452    5.365311    3.984023
     94          7           0       -2.383539   -1.200134    1.025753
     95          6           0       -1.630368   -0.119257    1.318513
     96          6           0       -0.339088   -0.644130    1.788920
     97          6           0       -0.333385   -2.119496    1.594023
     98          6           0       -1.569802   -2.292981    0.858314
     99          6           0        0.706375    0.221675    2.429857
    100          6           0        0.632220   -3.194608    1.991434
    101          8           0        0.554870   -4.380346    1.510944
    102          6           0        1.726807   -2.794161    2.887541
    103          7           0       -4.058340   -2.962889   -0.789459
    104          6           0       -2.976097   -3.751149   -0.665596
    105          6           0       -3.191763   -5.083989   -1.341938
    106          6           0       -4.740396   -5.118373   -1.739602
    107          6           0       -5.150144   -3.700591   -1.284201
    108          6           0       -2.341461   -5.344421   -2.585139
    109          6           0       -5.571294   -6.327550   -1.229520
    110          6           0       -5.698193   -6.268352    0.275727
    111          7           0       -6.256151   -1.069638   -0.439352
    112          6           0       -6.937636   -2.016777   -1.234708
    113          6           0       -8.242934   -1.425317   -1.593598
    114          6           0       -8.220697   -0.155845   -0.996565
    115          6           0       -6.980387    0.038590   -0.330753
    116          6           0       -9.234959   -2.034046   -2.413024
    117          6           0       -8.960192    1.068071   -0.787136
    118          8           0      -10.102533    1.447255   -1.042093
    119          6           0       -7.973391    2.157551   -0.182436
    120          6           0       -8.658952    2.806024    0.988884
    121          8           0       -8.922600    2.147857    2.010604
    122          8           0       -8.693635    4.137373    0.797356
    123          6           0       -9.354492    4.825895    1.937991
    124          1           0       -1.167368    1.939473    1.159030
    125          1           0       -1.221022   -4.209337    0.063219
    126          1           0       -7.107090   -3.830019   -2.092006
    127          1           0       -5.556679    4.069409    0.403023
    128          1           0       -2.978808    3.759369    1.496429
    129          1           0       -3.995650    3.815692   -1.314808
    130          1           0       -2.512530    2.867692   -1.078218
    131          1           0       -2.491388    4.549543   -0.641645
    132          1           0       -4.609171    3.077863    3.102068
    133          1           0       -6.375846    3.042321    2.751659
    134          1           0       -5.403403    5.643277    2.121653
    135          1           0       -4.450346    5.126560    3.466852
    136          1           0        0.489764    1.287368    2.285707
    137          1           0        1.639087    0.057218    1.879525
    138          1           0        0.868849   -0.022905    3.481734
    139          1           0        2.305740   -2.001936    2.418847
    140          1           0        2.258582   -3.716397    3.129548
    141          1           0        1.294127   -2.369859    3.800439
    142          1           0       -2.985489   -5.900882   -0.661329
    143          1           0       -4.880422   -5.150907   -2.830087
    144          1           0       -1.730167   -6.263612   -2.511123
    145          1           0       -1.711412   -4.481378   -2.754676
    146          1           0       -2.897137   -5.411800   -3.518888
    147          1           0       -5.058338   -7.264234   -1.461156
    148          1           0       -6.562168   -6.386202   -1.667375
    149          1           0       -4.762574   -6.718993    0.620160
    150          1           0       -6.559627   -6.842755    0.610428
    151          1           0       -5.713880   -5.230715    0.628862
    152          1           0      -10.187580   -1.857987   -1.931345
    153          1           0       -9.045102   -3.097380   -2.543576
    154          1           0       -9.091492   -1.474456   -3.341218
    155          1           0       -7.750998    2.873665   -0.974452
    156          1           0      -10.172606    5.421363    1.521116
    157          1           0       -8.549593    5.373666    2.463187
    158          1           0       -9.884872    4.210787    2.655474
 ---------------------------------------------------------------------
 Rotational constants (GHZ):           0.0254270           0.0130252           0.0109959
 Leave Link  202 at Fri Sep 10 05:59:08 2021, MaxMem= 23488102400 cpu:               0.2 elap:               0.0
 (Enter /sw/apps/gaussian-16.0/g16/l301.exe)
 Standard basis: def2SVP (5D, 7F)
 Ernie: Thresh=  0.10000D-02 Tol=  0.10000D-05 Strict=F.
 There are  1658 symmetry adapted cartesian basis functions of A   symmetry.
 There are  1572 symmetry adapted basis functions of A   symmetry.
  1572 basis functions,  2678 primitive gaussians,  1658 cartesian basis functions
   312 alpha electrons      312 beta electrons
       nuclear repulsion energy     15710.9150355425 Hartrees.
 IExCor=20419 DFT=T Ex+Corr=CAM-B3LYP ExCW=0 ScaHFX=  1.000000
 ScaDFX=  1.000000  1.000000  1.000000  0.810000 ScalE2=  1.000000  1.000000
 IRadAn=      5 IRanWt=     -1 IRanGd=            0 ICorTp=0 IEmpDi=  4
 HFx  wShort=  0.000000 wLong=  0.330000 cFull=  0.190000 cShort=  0.000000 cLong=  0.460000
 DFx  wShort=  0.000000 wLong=  0.330000 cFull=  0.190000 cShort=  0.000000 cLong=  0.460000
 NAtoms=  158 NActive=  158 NUniq=  158 SFac= 1.00D+00 NAtFMM=   60 NAOKFM=T Big=T
 Integral buffers will be    131072 words long.
 Raffenetti 1 integral format.
 Two-electron integral symmetry is turned on.
 Leave Link  301 at Fri Sep 10 05:59:08 2021, MaxMem= 23488102400 cpu:               1.3 elap:               0.1
 (Enter /sw/apps/gaussian-16.0/g16/l302.exe)
 NPDir=0 NMtPBC=     1 NCelOv=     1 NCel=       1 NClECP=     1 NCelD=      1
         NCelK=      1 NCelE2=     1 NClLst=     1 CellRange=     0.0.
 One-electron integrals computed using PRISM.
 One-electron integral symmetry used in STVInt
   1 Symmetry operations used in ECPInt.
 ECPInt:  NShTT=  271216 NPrTT=  987664 LenC2=  153824 LenP2D=  326278.
 LDataN:  DoStor=T MaxTD1= 4 Len=   56
 NBasis=  1572 RedAO= T EigKep=  3.35D-04  NBF=  1572
 NBsUse=  1572 1.00D-06 EigRej= -1.00D+00 NBFU=  1572
 Precomputing XC quadrature grid using
 IXCGrd= 4 IRadAn=           5 IRanWt=          -1 IRanGd=           0 AccXCQ= 0.00D+00.
 Generated NRdTot=       0 NPtTot=           0 NUsed=           0 NTot=          32
 NSgBfM=  1480  1480  1480  1480  1480 MxSgAt=   158 MxSgA2=   158.
 Leave Link  302 at Fri Sep 10 05:59:13 2021, MaxMem= 23488102400 cpu:             128.2 elap:               5.4
 (Enter /sw/apps/gaussian-16.0/g16/l303.exe)
 DipDrv:  MaxL=1.
 Leave Link  303 at Fri Sep 10 05:59:14 2021, MaxMem= 23488102400 cpu:               9.8 elap:               0.5
 (Enter /sw/apps/gaussian-16.0/g16/l308.exe)
 Leave Link  308 at Fri Sep 10 05:59:14 2021, MaxMem= 23488102400 cpu:              15.4 elap:               0.8
 (Enter /sw/apps/gaussian-16.0/g16/l401.exe)
 ExpMin= 3.36D-02 ExpMax= 4.95D+03 ExpMxC= 7.45D+02 IAcc=3 IRadAn=         5 AccDes= 0.00D+00
 Harris functional with IExCor=20419 and IRadAn=       5 diagonalized for initial guess.
 HarFok:  IExCor=20419 AccDes= 0.00D+00 IRadAn=         5 IDoV= 1 UseB2=F ITyADJ=14
 ICtDFT=  3500011 ScaDFX=  1.000000  1.000000  1.000000  1.000000
 FoFCou: FMM=F IPFlag=           0 FMFlag=      100000 FMFlg1=        2001
         NFxFlg=           0 DoJE=T BraDBF=F KetDBF=T FulRan=T
         wScrn=  0.000000 ICntrl=       500 IOpCl=  0 I1Cent=   200000004 NGrid=           0
         NMat0=    1 NMatS0=      1 NMatT0=    0 NMatD0=    1 NMtDS0=    0 NMtDT0=    0
 Petite list used in FoFCou.
 Harris En= -3918.66085968378    
 JPrj=0 DoOrth=F DoCkMO=F.
 Leave Link  401 at Fri Sep 10 05:59:23 2021, MaxMem= 23488102400 cpu:             197.6 elap:               8.3
 (Enter /sw/apps/gaussian-16.0/g16/l502.exe)
 Integral symmetry usage will be decided dynamically.
 Closed shell SCF:
 Using DIIS extrapolation, IDIIS=  1040.
 NGot= 23488102400 LenX= 23482547354 LenY= 23479796732
 Requested convergence on RMS density matrix=1.00D-08 within 128 cycles.
 Requested convergence on MAX density matrix=1.00D-06.
 Requested convergence on             energy=1.00D-06.
 No special actions if energy rises.
 Fock matrices will be formed incrementally for  20 cycles.

 Cycle   1  Pass 1  IDiag  1:
 FoFJK:  IHMeth= 1 ICntrl=       0 DoSepK=T KAlg= 0 I1Cent=           0 FoldK=F
 IRaf=         1 NMat=       1 IRICut=       1 DoRegI=T DoRafI=F ISym2E= 0 IDoP0=0 IntGTp=1.
 FoFCou: FMM=T IPFlag=           0 FMFlag=      100000 FMFlg1=        2001
         NFxFlg=           0 DoJE=T BraDBF=F KetDBF=F FulRan=T
         wScrn=  0.000000 ICntrl=       500 IOpCl=  0 I1Cent=           0 NGrid=           0
         NMat0=    1 NMatS0=      1 NMatT0=    0 NMatD0=    1 NMtDS0=    0 NMtDT0=    0
 Symmetry not used in FoFCou.
 FMM levels:  10  Number of levels for PrismC:   9
 E= -4068.94509709815    
 DIIS: error= 1.68D-02 at cycle   1 NSaved=   1.
 NSaved= 1 IEnMin= 1 EnMin= -4068.94509709815     IErMin= 1 ErrMin= 1.68D-02
 ErrMax= 1.68D-02  0.00D+00 EMaxC= 1.00D-01 BMatC= 1.69D+00 BMatP= 1.69D+00
 IDIUse=3 WtCom= 8.32D-01 WtEn= 1.68D-01
 Coeff-Com:  0.100D+01
 Coeff-En:   0.100D+01
 Coeff:      0.100D+01
 Gap=     0.116 Goal=   None    Shift=    0.000
 GapD=    0.116 DampG=1.000 DampE=0.500 DampFc=0.5000 IDamp=-1.
 Damping current iteration by 5.00D-01
 RMSDP=1.59D-03 MaxDP=1.36D-01              OVMax= 2.10D-01

 Cycle   2  Pass 1  IDiag  1:
 RMSU=  7.80D-04    CP:  9.82D-01
 E= -4069.33601779240     Delta-E=       -0.390920694248 Rises=F Damp=T
 DIIS: error= 9.59D-03 at cycle   2 NSaved=   2.
 NSaved= 2 IEnMin= 2 EnMin= -4069.33601779240     IErMin= 2 ErrMin= 9.59D-03
 ErrMax= 9.59D-03  0.00D+00 EMaxC= 1.00D-01 BMatC= 3.07D-01 BMatP= 1.69D+00
 IDIUse=3 WtCom= 9.04D-01 WtEn= 9.59D-02
 Coeff-Com: -0.212D+00 0.121D+01
 Coeff-En:   0.000D+00 0.100D+01
 Coeff:     -0.192D+00 0.119D+01
 Gap=     0.132 Goal=   None    Shift=    0.000
 RMSDP=7.77D-04 MaxDP=9.38D-02 DE=-3.91D-01 OVMax= 2.02D-01

 Cycle   3  Pass 1  IDiag  1:
 RMSU=  7.44D-04    CP:  9.67D-01  1.24D+00
 E= -4069.62063807240     Delta-E=       -0.284620279999 Rises=F Damp=F
 DIIS: error= 1.55D-02 at cycle   3 NSaved=   3.
 NSaved= 3 IEnMin= 3 EnMin= -4069.62063807240     IErMin= 2 ErrMin= 9.59D-03
 ErrMax= 1.55D-02  0.00D+00 EMaxC= 1.00D-01 BMatC= 2.09D-01 BMatP= 3.07D-01
 IDIUse=3 WtCom= 8.45D-01 WtEn= 1.55D-01
 Coeff-Com: -0.270D+00 0.658D+00 0.612D+00
 Coeff-En:   0.000D+00 0.000D+00 0.100D+01
 Coeff:     -0.228D+00 0.556D+00 0.672D+00
 Gap=     0.117 Goal=   None    Shift=    0.000
 RMSDP=5.20D-04 MaxDP=5.06D-02 DE=-2.85D-01 OVMax= 1.50D-01

 Cycle   4  Pass 1  IDiag  1:
 RMSU=  2.71D-04    CP:  9.64D-01  1.54D+00  5.00D-01
 E= -4069.76438872212     Delta-E=       -0.143750649720 Rises=F Damp=F
 DIIS: error= 6.90D-03 at cycle   4 NSaved=   4.
 NSaved= 4 IEnMin= 4 EnMin= -4069.76438872212     IErMin= 4 ErrMin= 6.90D-03
 ErrMax= 6.90D-03  0.00D+00 EMaxC= 1.00D-01 BMatC= 5.11D-02 BMatP= 2.09D-01
 IDIUse=3 WtCom= 9.31D-01 WtEn= 6.90D-02
 Coeff-Com: -0.111D+00 0.231D+00 0.407D+00 0.473D+00
 Coeff-En:   0.000D+00 0.000D+00 0.220D+00 0.780D+00
 Coeff:     -0.104D+00 0.215D+00 0.394D+00 0.494D+00
 Gap=     0.117 Goal=   None    Shift=    0.000
 RMSDP=2.07D-04 MaxDP=1.96D-02 DE=-1.44D-01 OVMax= 6.66D-02

 Cycle   5  Pass 1  IDiag  1:
 RMSU=  8.03D-05    CP:  9.64D-01  1.49D+00  6.86D-01  5.45D-01
 E= -4069.81158871758     Delta-E=       -0.047199995464 Rises=F Damp=F
 DIIS: error= 7.16D-04 at cycle   5 NSaved=   5.
 NSaved= 5 IEnMin= 5 EnMin= -4069.81158871758     IErMin= 5 ErrMin= 7.16D-04
 ErrMax= 7.16D-04  0.00D+00 EMaxC= 1.00D-01 BMatC= 1.32D-03 BMatP= 5.11D-02
 IDIUse=3 WtCom= 9.93D-01 WtEn= 7.16D-03
 Coeff-Com: -0.385D-01 0.757D-01 0.171D+00 0.255D+00 0.536D+00
 Coeff-En:   0.000D+00 0.000D+00 0.000D+00 0.000D+00 0.100D+01
 Coeff:     -0.382D-01 0.752D-01 0.170D+00 0.254D+00 0.540D+00
 Gap=     0.116 Goal=   None    Shift=    0.000
 RMSDP=4.51D-05 MaxDP=4.45D-03 DE=-4.72D-02 OVMax= 1.90D-02

 Cycle   6  Pass 1  IDiag  1:
 RMSU=  3.22D-05    CP:  9.63D-01  1.49D+00  6.77D-01  6.21D-01  7.22D-01
 E= -4069.81280563335     Delta-E=       -0.001216915767 Rises=F Damp=F
 DIIS: error= 1.63D-04 at cycle   6 NSaved=   6.
 NSaved= 6 IEnMin= 6 EnMin= -4069.81280563335     IErMin= 6 ErrMin= 1.63D-04
 ErrMax= 1.63D-04  0.00D+00 EMaxC= 1.00D-01 BMatC= 2.08D-04 BMatP= 1.32D-03
 IDIUse=3 WtCom= 9.98D-01 WtEn= 1.63D-03
 Coeff-Com:  0.174D-02-0.575D-02 0.132D-01 0.428D-01 0.308D+00 0.640D+00
 Coeff-En:   0.000D+00 0.000D+00 0.000D+00 0.000D+00 0.123D+00 0.877D+00
 Coeff:      0.174D-02-0.574D-02 0.132D-01 0.428D-01 0.307D+00 0.641D+00
 Gap=     0.117 Goal=   None    Shift=    0.000
 RMSDP=1.79D-05 MaxDP=1.31D-03 DE=-1.22D-03 OVMax= 7.65D-03

 Cycle   7  Pass 1  IDiag  1:
 RMSU=  1.17D-05    CP:  9.63D-01  1.49D+00  6.83D-01  6.19D-01  8.37D-01
                    CP:  7.38D-01
 E= -4069.81303869875     Delta-E=       -0.000233065395 Rises=F Damp=F
 DIIS: error= 1.05D-04 at cycle   7 NSaved=   7.
 NSaved= 7 IEnMin= 7 EnMin= -4069.81303869875     IErMin= 7 ErrMin= 1.05D-04
 ErrMax= 1.05D-04  0.00D+00 EMaxC= 1.00D-01 BMatC= 2.70D-05 BMatP= 2.08D-04
 IDIUse=3 WtCom= 9.99D-01 WtEn= 1.05D-03
 Coeff-Com:  0.461D-02-0.102D-01-0.869D-02-0.285D-02 0.111D+00 0.341D+00
 Coeff-Com:  0.565D+00
 Coeff-En:   0.000D+00 0.000D+00 0.000D+00 0.000D+00 0.000D+00 0.000D+00
 Coeff-En:   0.100D+01
 Coeff:      0.461D-02-0.101D-01-0.868D-02-0.285D-02 0.111D+00 0.341D+00
 Coeff:      0.565D+00
 Gap=     0.117 Goal=   None    Shift=    0.000
 RMSDP=6.73D-06 MaxDP=1.04D-03 DE=-2.33D-04 OVMax= 3.17D-03

 Cycle   8  Pass 1  IDiag  1:
 RMSU=  4.91D-06    CP:  9.63D-01  1.50D+00  6.84D-01  6.24D-01  8.38D-01
                    CP:  8.53D-01  8.06D-01
 E= -4069.81307068888     Delta-E=       -0.000031990130 Rises=F Damp=F
 DIIS: error= 5.97D-05 at cycle   8 NSaved=   8.
 NSaved= 8 IEnMin= 8 EnMin= -4069.81307068888     IErMin= 8 ErrMin= 5.97D-05
 ErrMax= 5.97D-05  0.00D+00 EMaxC= 1.00D-01 BMatC= 5.35D-06 BMatP= 2.70D-05
 IDIUse=1 WtCom= 1.00D+00 WtEn= 0.00D+00
 Coeff-Com:  0.229D-02-0.455D-02-0.790D-02-0.122D-01-0.715D-02 0.348D-01
 Coeff-Com:  0.322D+00 0.672D+00
 Coeff:      0.229D-02-0.455D-02-0.790D-02-0.122D-01-0.715D-02 0.348D-01
 Coeff:      0.322D+00 0.672D+00
 Gap=     0.117 Goal=   None    Shift=    0.000
 RMSDP=3.52D-06 MaxDP=4.45D-04 DE=-3.20D-05 OVMax= 1.09D-03

 Cycle   9  Pass 1  IDiag  1:
 RMSU=  2.02D-06    CP:  9.63D-01  1.50D+00  6.84D-01  6.25D-01  8.55D-01
                    CP:  8.83D-01  9.97D-01  9.63D-01
 E= -4069.81307896768     Delta-E=       -0.000008278803 Rises=F Damp=F
 DIIS: error= 1.87D-05 at cycle   9 NSaved=   9.
 NSaved= 9 IEnMin= 9 EnMin= -4069.81307896768     IErMin= 9 ErrMin= 1.87D-05
 ErrMax= 1.87D-05  0.00D+00 EMaxC= 1.00D-01 BMatC= 7.92D-07 BMatP= 5.35D-06
 IDIUse=1 WtCom= 1.00D+00 WtEn= 0.00D+00
 Coeff-Com:  0.512D-03-0.861D-03-0.277D-02-0.614D-02-0.196D-01-0.404D-01
 Coeff-Com:  0.948D-01 0.333D+00 0.641D+00
 Coeff:      0.512D-03-0.861D-03-0.277D-02-0.614D-02-0.196D-01-0.404D-01
 Coeff:      0.948D-01 0.333D+00 0.641D+00
 Gap=     0.117 Goal=   None    Shift=    0.000
 RMSDP=1.47D-06 MaxDP=1.34D-04 DE=-8.28D-06 OVMax= 8.04D-04

 Cycle  10  Pass 1  IDiag  1:
 RMSU=  9.77D-07    CP:  9.63D-01  1.50D+00  6.84D-01  6.26D-01  8.59D-01
                    CP:  8.93D-01  1.04D+00  1.12D+00  1.07D+00
 E= -4069.81308074298     Delta-E=       -0.000001775297 Rises=F Damp=F
 DIIS: error= 1.14D-05 at cycle  10 NSaved=  10.
 NSaved=10 IEnMin=10 EnMin= -4069.81308074298     IErMin=10 ErrMin= 1.14D-05
 ErrMax= 1.14D-05  0.00D+00 EMaxC= 1.00D-01 BMatC= 1.84D-07 BMatP= 7.92D-07
 IDIUse=1 WtCom= 1.00D+00 WtEn= 0.00D+00
 Coeff-Com: -0.426D-03 0.897D-03 0.117D-02 0.956D-03-0.398D-02-0.319D-01
 Coeff-Com: -0.421D-01-0.672D-01 0.238D+00 0.905D+00
 Coeff:     -0.426D-03 0.897D-03 0.117D-02 0.956D-03-0.398D-02-0.319D-01
 Coeff:     -0.421D-01-0.672D-01 0.238D+00 0.905D+00
 Gap=     0.117 Goal=   None    Shift=    0.000
 RMSDP=1.26D-06 MaxDP=1.25D-04 DE=-1.78D-06 OVMax= 7.00D-04

 Cycle  11  Pass 1  IDiag  1:
 RMSU=  5.52D-07    CP:  9.63D-01  1.50D+00  6.84D-01  6.26D-01  8.61D-01
                    CP:  9.03D-01  1.09D+00  1.23D+00  1.39D+00  1.36D+00
 E= -4069.81308157680     Delta-E=       -0.000000833821 Rises=F Damp=F
 DIIS: error= 4.23D-06 at cycle  11 NSaved=  11.
 NSaved=11 IEnMin=11 EnMin= -4069.81308157680     IErMin=11 ErrMin= 4.23D-06
 ErrMax= 4.23D-06  0.00D+00 EMaxC= 1.00D-01 BMatC= 7.46D-08 BMatP= 1.84D-07
 IDIUse=1 WtCom= 1.00D+00 WtEn= 0.00D+00
 Coeff-Com: -0.346D-03 0.676D-03 0.134D-02 0.208D-02 0.405D-02-0.920D-02
 Coeff-Com: -0.404D-01-0.128D+00-0.374D-01 0.492D+00 0.715D+00
 Coeff:     -0.346D-03 0.676D-03 0.134D-02 0.208D-02 0.405D-02-0.920D-02
 Coeff:     -0.404D-01-0.128D+00-0.374D-01 0.492D+00 0.715D+00
 Gap=     0.117 Goal=   None    Shift=    0.000
 RMSDP=7.21D-07 MaxDP=6.86D-05 DE=-8.34D-07 OVMax= 4.20D-04

 Cycle  12  Pass 1  IDiag  1:
 RMSU=  2.85D-07    CP:  9.63D-01  1.50D+00  6.84D-01  6.26D-01  8.62D-01
                    CP:  9.05D-01  1.11D+00  1.30D+00  1.55D+00  1.76D+00
                    CP:  1.17D+00
 E= -4069.81308186702     Delta-E=       -0.000000290223 Rises=F Damp=F
 DIIS: error= 2.27D-06 at cycle  12 NSaved=  12.
 NSaved=12 IEnMin=12 EnMin= -4069.81308186702     IErMin=12 ErrMin= 2.27D-06
 ErrMax= 2.27D-06  0.00D+00 EMaxC= 1.00D-01 BMatC= 1.90D-08 BMatP= 7.46D-08
 IDIUse=1 WtCom= 1.00D+00 WtEn= 0.00D+00
 Coeff-Com: -0.345D-04 0.505D-04 0.307D-03 0.690D-03 0.368D-02 0.314D-02
 Coeff-Com: -0.127D-02-0.429D-01-0.784D-01-0.210D-01 0.294D+00 0.842D+00
 Coeff:     -0.345D-04 0.505D-04 0.307D-03 0.690D-03 0.368D-02 0.314D-02
 Coeff:     -0.127D-02-0.429D-01-0.784D-01-0.210D-01 0.294D+00 0.842D+00
 Gap=     0.117 Goal=   None    Shift=    0.000
 RMSDP=4.37D-07 MaxDP=3.54D-05 DE=-2.90D-07 OVMax= 2.71D-04

 Cycle  13  Pass 1  IDiag  1:
 RMSU=  1.75D-07    CP:  9.63D-01  1.50D+00  6.84D-01  6.26D-01  8.62D-01
                    CP:  9.05D-01  1.12D+00  1.32D+00  1.66D+00  1.97D+00
                    CP:  1.56D+00  1.19D+00
 E= -4069.81308196651     Delta-E=       -0.000000099488 Rises=F Damp=F
 DIIS: error= 1.52D-06 at cycle  13 NSaved=  13.
 NSaved=13 IEnMin=13 EnMin= -4069.81308196651     IErMin=13 ErrMin= 1.52D-06
 ErrMax= 1.52D-06  0.00D+00 EMaxC= 1.00D-01 BMatC= 9.03D-09 BMatP= 1.90D-08
 IDIUse=1 WtCom= 1.00D+00 WtEn= 0.00D+00
 Coeff-Com:  0.118D-03-0.243D-03-0.345D-03-0.413D-03 0.865D-03 0.494D-02
 Coeff-Com:  0.176D-01 0.224D-01-0.349D-01-0.228D+00-0.152D+00 0.540D+00
 Coeff-Com:  0.830D+00
 Coeff:      0.118D-03-0.243D-03-0.345D-03-0.413D-03 0.865D-03 0.494D-02
 Coeff:      0.176D-01 0.224D-01-0.349D-01-0.228D+00-0.152D+00 0.540D+00
 Coeff:      0.830D+00
 Gap=     0.117 Goal=   None    Shift=    0.000
 RMSDP=3.68D-07 MaxDP=2.40D-05 DE=-9.95D-08 OVMax= 2.27D-04

 Cycle  14  Pass 1  IDiag  1:
 RMSU=  8.28D-08    CP:  9.63D-01  1.50D+00  6.84D-01  6.26D-01  8.63D-01
                    CP:  9.06D-01  1.12D+00  1.35D+00  1.73D+00  2.17D+00
                    CP:  1.82D+00  1.71D+00  1.15D+00
 E= -4069.81308200927     Delta-E=       -0.000000042761 Rises=F Damp=F
 DIIS: error= 6.64D-07 at cycle  14 NSaved=  14.
 NSaved=14 IEnMin=14 EnMin= -4069.81308200927     IErMin=14 ErrMin= 6.64D-07
 ErrMax= 6.64D-07  0.00D+00 EMaxC= 1.00D-01 BMatC= 1.54D-09 BMatP= 9.03D-09
 IDIUse=1 WtCom= 1.00D+00 WtEn= 0.00D+00
 Coeff-Com:  0.730D-04-0.144D-03-0.261D-03-0.403D-03-0.388D-03 0.139D-02
 Coeff-Com:  0.103D-01 0.211D-01 0.374D-02-0.105D+00-0.151D+00 0.700D-01
 Coeff-Com:  0.436D+00 0.715D+00
 Coeff:      0.730D-04-0.144D-03-0.261D-03-0.403D-03-0.388D-03 0.139D-02
 Coeff:      0.103D-01 0.211D-01 0.374D-02-0.105D+00-0.151D+00 0.700D-01
 Coeff:      0.436D+00 0.715D+00
 Gap=     0.117 Goal=   None    Shift=    0.000
 RMSDP=1.19D-07 MaxDP=7.66D-06 DE=-4.28D-08 OVMax= 6.65D-05

 Cycle  15  Pass 1  IDiag  1:
 RMSU=  4.15D-08    CP:  9.63D-01  1.50D+00  6.84D-01  6.26D-01  8.63D-01
                    CP:  9.05D-01  1.13D+00  1.35D+00  1.75D+00  2.22D+00
                    CP:  1.94D+00  1.86D+00  1.40D+00  1.02D+00
 E= -4069.81308201442     Delta-E=       -0.000000005151 Rises=F Damp=F
 DIIS: error= 3.63D-07 at cycle  15 NSaved=  15.
 NSaved=15 IEnMin=15 EnMin= -4069.81308201442     IErMin=15 ErrMin= 3.63D-07
 ErrMax= 3.63D-07  0.00D+00 EMaxC= 1.00D-01 BMatC= 2.37D-10 BMatP= 1.54D-09
 IDIUse=1 WtCom= 1.00D+00 WtEn= 0.00D+00
 Coeff-Com:  0.920D-05-0.165D-04-0.450D-04-0.997D-04-0.297D-03-0.453D-03
 Coeff-Com:  0.141D-02 0.376D-02 0.847D-02-0.316D-02-0.337D-01-0.696D-01
 Coeff-Com:  0.491D-01 0.289D+00 0.755D+00
 Coeff:      0.920D-05-0.165D-04-0.450D-04-0.997D-04-0.297D-03-0.453D-03
 Coeff:      0.141D-02 0.376D-02 0.847D-02-0.316D-02-0.337D-01-0.696D-01
 Coeff:      0.491D-01 0.289D+00 0.755D+00
 Gap=     0.117 Goal=   None    Shift=    0.000
 RMSDP=3.88D-08 MaxDP=2.67D-06 DE=-5.15D-09 OVMax= 2.73D-05

 Cycle  16  Pass 1  IDiag  1:
 RMSU=  1.99D-08    CP:  9.63D-01  1.50D+00  6.84D-01  6.26D-01  8.63D-01
                    CP:  9.05D-01  1.13D+00  1.36D+00  1.76D+00  2.23D+00
                    CP:  1.96D+00  1.91D+00  1.47D+00  1.22D+00  1.13D+00
 E= -4069.81308201510     Delta-E=       -0.000000000680 Rises=F Damp=F
 DIIS: error= 1.62D-07 at cycle  16 NSaved=  16.
 NSaved=16 IEnMin=16 EnMin= -4069.81308201510     IErMin=16 ErrMin= 1.62D-07
 ErrMax= 1.62D-07  0.00D+00 EMaxC= 1.00D-01 BMatC= 1.03D-10 BMatP= 2.37D-10
 IDIUse=1 WtCom= 1.00D+00 WtEn= 0.00D+00
 Coeff-Com: -0.141D-04 0.286D-04 0.444D-04 0.478D-04-0.525D-04-0.645D-03
 Coeff-Com: -0.176D-02-0.404D-02 0.424D-02 0.246D-01 0.214D-01-0.625D-01
 Coeff-Com: -0.798D-01-0.474D-01 0.414D+00 0.732D+00
 Coeff:     -0.141D-04 0.286D-04 0.444D-04 0.478D-04-0.525D-04-0.645D-03
 Coeff:     -0.176D-02-0.404D-02 0.424D-02 0.246D-01 0.214D-01-0.625D-01
 Coeff:     -0.798D-01-0.474D-01 0.414D+00 0.732D+00
 Gap=     0.117 Goal=   None    Shift=    0.000
 RMSDP=2.56D-08 MaxDP=1.59D-06 DE=-6.80D-10 OVMax= 1.31D-05

 Cycle  17  Pass 1  IDiag  1:
 RMSU=  1.10D-08    CP:  9.63D-01  1.50D+00  6.84D-01  6.26D-01  8.63D-01
                    CP:  9.05D-01  1.13D+00  1.36D+00  1.76D+00  2.24D+00
                    CP:  1.97D+00  1.94D+00  1.52D+00  1.31D+00  1.42D+00
                    CP:  1.22D+00
 E= -4069.81308201551     Delta-E=       -0.000000000411 Rises=F Damp=F
 DIIS: error= 9.44D-08 at cycle  17 NSaved=  17.
 NSaved=17 IEnMin=17 EnMin= -4069.81308201551     IErMin=17 ErrMin= 9.44D-08
 ErrMax= 9.44D-08  0.00D+00 EMaxC= 1.00D-01 BMatC= 1.98D-11 BMatP= 1.03D-10
 IDIUse=1 WtCom= 1.00D+00 WtEn= 0.00D+00
 Coeff-Com: -0.816D-05 0.160D-04 0.307D-04 0.439D-04 0.719D-04-0.162D-03
 Coeff-Com: -0.945D-03-0.296D-02 0.753D-04 0.103D-01 0.188D-01-0.927D-02
 Coeff-Com: -0.370D-01-0.102D+00-0.510D-02 0.275D+00 0.853D+00
 Coeff:     -0.816D-05 0.160D-04 0.307D-04 0.439D-04 0.719D-04-0.162D-03
 Coeff:     -0.945D-03-0.296D-02 0.753D-04 0.103D-01 0.188D-01-0.927D-02
 Coeff:     -0.370D-01-0.102D+00-0.510D-02 0.275D+00 0.853D+00
 Gap=     0.117 Goal=   None    Shift=    0.000
 RMSDP=1.39D-08 MaxDP=1.02D-06 DE=-4.11D-10 OVMax= 9.62D-06

 Cycle  18  Pass 1  IDiag  1:
 RMSU=  5.56D-09    CP:  9.63D-01  1.50D+00  6.84D-01  6.26D-01  8.63D-01
                    CP:  9.05D-01  1.13D+00  1.36D+00  1.76D+00  2.24D+00
                    CP:  1.98D+00  1.94D+00  1.54D+00  1.37D+00  1.57D+00
                    CP:  1.62D+00  1.37D+00
 E= -4069.81308201548     Delta-E=        0.000000000029 Rises=F Damp=F
 DIIS: error= 5.38D-08 at cycle  18 NSaved=  18.
 NSaved=18 IEnMin=17 EnMin= -4069.81308201551     IErMin=18 ErrMin= 5.38D-08
 ErrMax= 5.38D-08  0.00D+00 EMaxC= 1.00D-01 BMatC= 9.18D-12 BMatP= 1.98D-11
 IDIUse=1 WtCom= 1.00D+00 WtEn= 0.00D+00
 Coeff-Com:  0.550D-06-0.146D-05 0.102D-05 0.590D-05 0.681D-04 0.142D-03
 Coeff-Com:  0.193D-03-0.234D-03-0.117D-02-0.377D-02 0.252D-02 0.150D-01
 Coeff-Com:  0.127D-01-0.413D-01-0.143D+00-0.149D+00 0.445D+00 0.863D+00
 Coeff:      0.550D-06-0.146D-05 0.102D-05 0.590D-05 0.681D-04 0.142D-03
 Coeff:      0.193D-03-0.234D-03-0.117D-02-0.377D-02 0.252D-02 0.150D-01
 Coeff:      0.127D-01-0.413D-01-0.143D+00-0.149D+00 0.445D+00 0.863D+00
 Gap=     0.117 Goal=   None    Shift=    0.000
 RMSDP=1.10D-08 MaxDP=7.14D-07 DE= 2.91D-11 OVMax= 6.10D-06

 Cycle  19  Pass 1  IDiag  1:
 RMSU=  3.26D-09    CP:  9.63D-01  1.50D+00  6.84D-01  6.26D-01  8.63D-01
                    CP:  9.05D-01  1.13D+00  1.36D+00  1.76D+00  2.24D+00
                    CP:  1.98D+00  1.95D+00  1.55D+00  1.41D+00  1.70D+00
                    CP:  1.88D+00  1.89D+00  1.18D+00
 E= -4069.81308201549     Delta-E=       -0.000000000004 Rises=F Damp=F
 DIIS: error= 2.53D-08 at cycle  19 NSaved=  19.
 NSaved=19 IEnMin=17 EnMin= -4069.81308201551     IErMin=19 ErrMin= 2.53D-08
 ErrMax= 2.53D-08  0.00D+00 EMaxC= 1.00D-01 BMatC= 2.58D-12 BMatP= 9.18D-12
 IDIUse=1 WtCom= 1.00D+00 WtEn= 0.00D+00
 Coeff-Com:  0.316D-05-0.643D-05-0.100D-04-0.117D-04 0.237D-04 0.144D-03
 Coeff-Com:  0.475D-03 0.841D-03-0.719D-03-0.643D-02-0.498D-02 0.128D-01
 Coeff-Com:  0.232D-01 0.893D-02-0.868D-01-0.207D+00-0.639D-02 0.517D+00
 Coeff-Com:  0.749D+00
 Coeff:      0.316D-05-0.643D-05-0.100D-04-0.117D-04 0.237D-04 0.144D-03
 Coeff:      0.475D-03 0.841D-03-0.719D-03-0.643D-02-0.498D-02 0.128D-01
 Coeff:      0.232D-01 0.893D-02-0.868D-01-0.207D+00-0.639D-02 0.517D+00
 Coeff:      0.749D+00
 Gap=     0.117 Goal=   None    Shift=    0.000
 RMSDP=6.36D-09 MaxDP=4.45D-07 DE=-3.64D-12 OVMax= 4.28D-06

 SCF Done:  E(RCAM-B3LYP) =  -4069.81308202     A.U. after   19 cycles
            NFock= 19  Conv=0.64D-08     -V/T= 2.0102
 KE= 4.028786785061D+03 PE=-4.090243415292D+04 EE= 1.709291925030D+04
 Leave Link  502 at Fri Sep 10 06:12:18 2021, MaxMem= 23488102400 cpu:           17940.0 elap:             775.3
 (Enter /sw/apps/gaussian-16.0/g16/l801.exe)
 DoSCS=F DFT=T ScalE2(SS,OS)=  1.000000  1.000000
 ExpMin= 3.36D-02 ExpMax= 4.95D+03 ExpMxC= 7.45D+02 IAcc=3 IRadAn=         5 AccDes= 0.00D+00
 HarFok:  IExCor=  205 AccDes= 0.00D+00 IRadAn=         5 IDoV=-2 UseB2=F ITyADJ=14
 ICtDFT= 12500011 ScaDFX=  1.000000  1.000000  1.000000  1.000000
 GSVD:  LWork=       -9588 too small for GESVD, short by       45590 words or       45590 for optimal perf.
 Largest valence mixing into a core orbital is  2.04D-04
 Largest core mixing into a valence orbital is  5.24D-05
 Range of M.O.s used for correlation:    95  1572
 NBasis=  1572 NAE=   312 NBE=   312 NFC=    94 NFV=     0
 NROrb=   1478 NOA=   218 NOB=   218 NVA=  1260 NVB=  1260
 Leave Link  801 at Fri Sep 10 06:12:18 2021, MaxMem= 23488102400 cpu:               7.8 elap:               0.4
 (Enter /sw/apps/gaussian-16.0/g16/l914.exe)
 RHF ground state
 Two-electron integrals replicated using symmetry.
 MDV= 23488102400 DFT=T DoStab=F Mixed=T DoRPA=T DoScal=F NonHer=T
 Making orbital integer symmetry assigments:
 Orbital symmetries:
       Occupied  (A) (A) (A) (A) (A) (A) (A) (A) (A) (A) (A) (A)
                 (A) (A) (A) (A) (A) (A) (A) (A) (A) (A) (A) (A)
                 (A) (A) (A) (A) (A) (A) (A) (A) (A) (A) (A) (A)
                 (A) (A) (A) (A) (A) (A) (A) (A) (A) (A) (A) (A)
                 (A) (A) (A) (A) (A) (A) (A) (A) (A) (A) (A) (A)
                 (A) (A) (A) (A) (A) (A) (A) (A) (A) (A) (A) (A)
                 (A) (A) (A) (A) (A) (A) (A) (A) (A) (A) (A) (A)
                 (A) (A) (A) (A) (A) (A) (A) (A) (A) (A) (A) (A)
                 (A) (A) (A) (A) (A) (A) (A) (A) (A) (A) (A) (A)
                 (A) (A) (A) (A) (A) (A) (A) (A) (A) (A) (A) (A)
                 (A) (A) (A) (A) (A) (A) (A) (A) (A) (A) (A) (A)
                 (A) (A) (A) (A) (A) (A) (A) (A) (A) (A) (A) (A)
                 (A) (A) (A) (A) (A) (A) (A) (A) (A) (A) (A) (A)
                 (A) (A) (A) (A) (A) (A) (A) (A) (A) (A) (A) (A)
                 (A) (A) (A) (A) (A) (A) (A) (A) (A) (A) (A) (A)
                 (A) (A) (A) (A) (A) (A) (A) (A) (A) (A) (A) (A)
                 (A) (A) (A) (A) (A) (A) (A) (A) (A) (A) (A) (A)
                 (A) (A) (A) (A) (A) (A) (A) (A) (A) (A) (A) (A)
                 (A) (A) (A) (A) (A) (A) (A) (A) (A) (A) (A) (A)
                 (A) (A) (A) (A) (A) (A) (A) (A) (A) (A) (A) (A)
                 (A) (A) (A) (A) (A) (A) (A) (A) (A) (A) (A) (A)
                 (A) (A) (A) (A) (A) (A) (A) (A) (A) (A) (A) (A)
                 (A) (A) (A) (A) (A) (A) (A) (A) (A) (A) (A) (A)
                 (A) (A) (A) (A) (A) (A) (A) (A) (A) (A) (A) (A)
                 (A) (A) (A) (A) (A) (A) (A) (A) (A) (A) (A) (A)
                 (A) (A) (A) (A) (A) (A) (A) (A) (A) (A) (A) (A)
       Virtual   (A) (A) (A) (A) (A) (A) (A) (A) (A) (A) (A) (A)
                 (A) (A) (A) (A) (A) (A) (A) (A) (A) (A) (A) (A)
                 (A) (A) (A) (A) (A) (A) (A) (A) (A) (A) (A) (A)
                 (A) (A) (A) (A) (A) (A) (A) (A) (A) (A) (A) (A)
                 (A) (A) (A) (A) (A) (A) (A) (A) (A) (A) (A) (A)
                 (A) (A) (A) (A) (A) (A) (A) (A) (A) (A) (A) (A)
                 (A) (A) (A) (A) (A) (A) (A) (A) (A) (A) (A) (A)
                 (A) (A) (A) (A) (A) (A) (A) (A) (A) (A) (A) (A)
                 (A) (A) (A) (A) (A) (A) (A) (A) (A) (A) (A) (A)
                 (A) (A) (A) (A) (A) (A) (A) (A) (A) (A) (A) (A)
                 (A) (A) (A) (A) (A) (A) (A) (A) (A) (A) (A) (A)
                 (A) (A) (A) (A) (A) (A) (A) (A) (A) (A) (A) (A)
                 (A) (A) (A) (A) (A) (A) (A) (A) (A) (A) (A) (A)
                 (A) (A) (A) (A) (A) (A) (A) (A) (A) (A) (A) (A)
                 (A) (A) (A) (A) (A) (A) (A) (A) (A) (A) (A) (A)
                 (A) (A) (A) (A) (A) (A) (A) (A) (A) (A) (A) (A)
                 (A) (A) (A) (A) (A) (A) (A) (A) (A) (A) (A) (A)
                 (A) (A) (A) (A) (A) (A) (A) (A) (A) (A) (A) (A)
                 (A) (A) (A) (A) (A) (A) (A) (A) (A) (A) (A) (A)
                 (A) (A) (A) (A) (A) (A) (A) (A) (A) (A) (A) (A)
                 (A) (A) (A) (A) (A) (A) (A) (A) (A) (A) (A) (A)
                 (A) (A) (A) (A) (A) (A) (A) (A) (A) (A) (A) (A)
                 (A) (A) (A) (A) (A) (A) (A) (A) (A) (A) (A) (A)
                 (A) (A) (A) (A) (A) (A) (A) (A) (A) (A) (A) (A)
                 (A) (A) (A) (A) (A) (A) (A) (A) (A) (A) (A) (A)
                 (A) (A) (A) (A) (A) (A) (A) (A) (A) (A) (A) (A)
                 (A) (A) (A) (A) (A) (A) (A) (A) (A) (A) (A) (A)
                 (A) (A) (A) (A) (A) (A) (A) (A) (A) (A) (A) (A)
                 (A) (A) (A) (A) (A) (A) (A) (A) (A) (A) (A) (A)
                 (A) (A) (A) (A) (A) (A) (A) (A) (A) (A) (A) (A)
                 (A) (A) (A) (A) (A) (A) (A) (A) (A) (A) (A) (A)
                 (A) (A) (A) (A) (A) (A) (A) (A) (A) (A) (A) (A)
                 (A) (A) (A) (A) (A) (A) (A) (A) (A) (A) (A) (A)
                 (A) (A) (A) (A) (A) (A) (A) (A) (A) (A) (A) (A)
                 (A) (A) (A) (A) (A) (A) (A) (A) (A) (A) (A) (A)
                 (A) (A) (A) (A) (A) (A) (A) (A) (A) (A) (A) (A)
                 (A) (A) (A) (A) (A) (A) (A) (A) (A) (A) (A) (A)
                 (A) (A) (A) (A) (A) (A) (A) (A) (A) (A) (A) (A)
                 (A) (A) (A) (A) (A) (A) (A) (A) (A) (A) (A) (A)
                 (A) (A) (A) (A) (A) (A) (A) (A) (A) (A) (A) (A)
                 (A) (A) (A) (A) (A) (A) (A) (A) (A) (A) (A) (A)
                 (A) (A) (A) (A) (A) (A) (A) (A) (A) (A) (A) (A)
                 (A) (A) (A) (A) (A) (A) (A) (A) (A) (A) (A) (A)
                 (A) (A) (A) (A) (A) (A) (A) (A) (A) (A) (A) (A)
                 (A) (A) (A) (A) (A) (A) (A) (A) (A) (A) (A) (A)
                 (A) (A) (A) (A) (A) (A) (A) (A) (A) (A) (A) (A)
                 (A) (A) (A) (A) (A) (A) (A) (A) (A) (A) (A) (A)
                 (A) (A) (A) (A) (A) (A) (A) (A) (A) (A) (A) (A)
                 (A) (A) (A) (A) (A) (A) (A) (A) (A) (A) (A) (A)
                 (A) (A) (A) (A) (A) (A) (A) (A) (A) (A) (A) (A)
                 (A) (A) (A) (A) (A) (A) (A) (A) (A) (A) (A) (A)
                 (A) (A) (A) (A) (A) (A) (A) (A) (A) (A) (A) (A)
                 (A) (A) (A) (A) (A) (A) (A) (A) (A) (A) (A) (A)
                 (A) (A) (A) (A) (A) (A) (A) (A) (A) (A) (A) (A)
                 (A) (A) (A) (A) (A) (A) (A) (A) (A) (A) (A) (A)
                 (A) (A) (A) (A) (A) (A) (A) (A) (A) (A) (A) (A)
                 (A) (A) (A) (A) (A) (A) (A) (A) (A) (A) (A) (A)
                 (A) (A) (A) (A) (A) (A) (A) (A) (A) (A) (A) (A)
                 (A) (A) (A) (A) (A) (A) (A) (A) (A) (A) (A) (A)
                 (A) (A) (A) (A) (A) (A) (A) (A) (A) (A) (A) (A)
                 (A) (A) (A) (A) (A) (A) (A) (A) (A) (A) (A) (A)
                 (A) (A) (A) (A) (A) (A) (A) (A) (A) (A) (A) (A)
                 (A) (A) (A) (A) (A) (A) (A) (A) (A) (A) (A) (A)
                 (A) (A) (A) (A) (A) (A) (A) (A) (A) (A) (A) (A)
                 (A) (A) (A) (A) (A) (A) (A) (A) (A) (A) (A) (A)
                 (A) (A) (A) (A) (A) (A) (A) (A) (A) (A) (A) (A)
                 (A) (A) (A) (A) (A) (A) (A) (A) (A) (A) (A) (A)
                 (A) (A) (A) (A) (A) (A) (A) (A) (A) (A) (A) (A)
                 (A) (A) (A) (A) (A) (A) (A) (A) (A) (A) (A) (A)
                 (A) (A) (A) (A) (A) (A) (A) (A) (A) (A) (A) (A)
                 (A) (A) (A) (A) (A) (A) (A) (A) (A) (A) (A) (A)
                 (A) (A) (A) (A) (A) (A) (A) (A) (A) (A) (A) (A)
                 (A) (A) (A) (A) (A) (A) (A) (A) (A) (A) (A) (A)
                 (A) (A) (A) (A) (A) (A) (A) (A) (A) (A) (A) (A)
                 (A) (A) (A) (A) (A) (A) (A) (A) (A) (A) (A) (A)
                 (A) (A) (A) (A) (A) (A) (A) (A) (A) (A) (A) (A)
                 (A) (A) (A) (A) (A) (A) (A) (A) (A) (A) (A) (A)
                 (A) (A) (A) (A) (A) (A) (A) (A) (A) (A) (A) (A)
                 (A) (A) (A) (A) (A) (A) (A) (A) (A) (A) (A) (A)
                 (A) (A) (A) (A) (A) (A) (A) (A) (A) (A) (A) (A)
                 (A) (A) (A) (A) (A) (A) (A) (A) (A) (A) (A) (A)
                 (A) (A) (A) (A) (A) (A) (A) (A) (A) (A) (A) (A)
                 (A) (A) (A) (A) (A) (A) (A) (A) (A) (A) (A) (A)
                 (A) (A) (A) (A) (A) (A) (A) (A) (A) (A) (A) (A)
                 (A) (A) (A) (A) (A) (A) (A) (A) (A) (A) (A) (A)
                 (A) (A) (A) (A) (A) (A) (A) (A) (A) (A) (A) (A)
                 (A) (A) (A) (A) (A) (A) (A) (A) (A) (A) (A) (A)
                 (A) (A) (A) (A) (A) (A) (A) (A) (A) (A) (A) (A)
                 (A) (A) (A) (A) (A) (A) (A) (A) (A) (A) (A) (A)
                 (A) (A) (A) (A) (A) (A) (A) (A) (A) (A) (A) (A)
                 (A) (A) (A) (A) (A) (A) (A) (A) (A) (A) (A) (A)
                 (A) (A) (A) (A) (A) (A) (A) (A) (A) (A) (A) (A)
                 (A) (A) (A) (A) (A) (A) (A) (A) (A) (A) (A) (A)
                 (A) (A) (A) (A) (A) (A) (A) (A) (A) (A) (A) (A)
                 (A) (A) (A) (A) (A) (A) (A) (A) (A) (A) (A) (A)
                 (A) (A) (A) (A) (A) (A) (A) (A) (A) (A) (A) (A)
                 (A) (A) (A) (A) (A) (A) (A) (A) (A) (A) (A) (A)
                 (A) (A) (A) (A) (A) (A) (A) (A) (A) (A) (A) (A)
                 (A) (A) (A) (A) (A) (A) (A) (A) (A) (A) (A) (A)
                 (A) (A) (A) (A) (A) (A) (A) (A) (A) (A) (A) (A)
                 (A) (A) (A) (A) (A) (A) (A) (A) (A) (A) (A) (A)
                 (A) (A) (A) (A) (A) (A) (A) (A) (A) (A) (A) (A)
                 (A) (A) (A) (A) (A) (A) (A) (A) (A) (A) (A) (A)
                 (A) (A) (A) (A) (A) (A) (A) (A) (A) (A) (A) (A)
                 (A) (A) (A) (A) (A) (A) (A) (A) (A) (A) (A) (A)
    20 initial guesses have been made.
 Convergence on wavefunction:    0.001000000000000
 Davidson Disk Diagonalization:  ConvIn= 1.00D-03 SkipCon=T Conv= 1.00D-03.
 Max sub-space:  2000 roots to seek:    20 dimension of matrix:       549360
 Iteration     1 Dimension    20 NMult     0 NNew     20
 CISAX will form    20 AO SS matrices at one time.
 NMat=    20 NSing=    20 JSym2X= 0.
 FoFJK:  IHMeth= 1 ICntrl=       0 DoSepK=T KAlg= 0 I1Cent=           0 FoldK=F
 IRaf=         1 NMat=      40 IRICut=       1 DoRegI=T DoRafI=F ISym2E= 0 IDoP0=3 IntGTp=3.
 FoFCou: FMM=T IPFlag=           0 FMFlag=      100000 FMFlg1=        2001
         NFxFlg=           0 DoJE=F BraDBF=F KetDBF=F FulRan=T
         wScrn=  0.000000 ICntrl=       500 IOpCl=  0 I1Cent=           0 NGrid=           0
         NMat0=   20 NMatS0=     20 NMatT0=    0 NMatD0=   20 NMtDS0=    0 NMtDT0=    0
 Symmetry not used in FoFCou.
 FMM levels:  10  Number of levels for PrismC:   9
 New state      2 was old state      4
 New state      3 was old state      7
 New state      4 was old state      6
 New state      5 was old state      2
 Excitation Energies [eV] at current iteration:
 Root      1 :     2.214847665872560
 Root      2 :     2.530181993873371
 Root      3 :     2.601359716982891
 Root      4 :     2.626169103601773
 Root      5 :     2.644574008341513
 Root      6 :     2.726537631124661
 Root      7 :     3.042463772924965
 Root      8 :     3.329447426859278
 Root      9 :     3.633111478766134
 Root     10 :     3.670255939106727
 Root     11 :     3.734786296297490
 Root     12 :     3.796066289579800
 Root     13 :     4.095019817034552
 Root     14 :     4.100308871118447
 Root     15 :     4.237528956828862
 Root     16 :     4.363088698616039
 Root     17 :     4.460438342617818
 Root     18 :     4.587122407886097
 Root     19 :     4.683408774886400
 Root     20 :     4.956796059777736
 Iteration     2 Dimension    30 NMult    20 NNew     10
 CISAX will form    10 AO SS matrices at one time.
 NMat=    10 NSing=    10 JSym2X= 0.
 New state      1 was old state      5
 Root      1 not converged, maximum delta is    0.169808511883363
 New state      2 was old state      6
 Root      2 not converged, maximum delta is    0.240446665815202
 New state      3 was old state      1
 Root      3 not converged, maximum delta is    0.091169889805010
 New state      4 was old state      3
 Root      4 not converged, maximum delta is    0.290293694596315
 New state      5 was old state      4
 Root      5 not converged, maximum delta is    0.305966797330600
 Excitation Energies [eV] at current iteration:
 Root      1 :     1.759552530455821   Change is   -0.885021477885692
 Root      2 :     2.111356358623425   Change is   -0.615181272501237
 Root      3 :     2.207384057286030   Change is   -0.007463608586530
 Root      4 :     2.236637578560746   Change is   -0.364722138422145
 Root      5 :     2.253602090370751   Change is   -0.372567013231022
 Iteration     3 Dimension    40 NMult    30 NNew     10
 CISAX will form    10 AO SS matrices at one time.
 NMat=    10 NSing=    10 JSym2X= 0.
 Root      1 not converged, maximum delta is    0.050949557692366
 Root      2 not converged, maximum delta is    0.171971011681071
 New state      3 was old state      4
 Root      3 not converged, maximum delta is    0.280238869570044
 New state      4 was old state      3
 Root      4 not converged, maximum delta is    0.297984466596276
 Root      5 not converged, maximum delta is    0.427789591626797
 Excitation Energies [eV] at current iteration:
 Root      1 :     1.657012608832130   Change is   -0.102539921623690
 Root      2 :     1.779584398498176   Change is   -0.331771960125249
 Root      3 :     2.187176026829325   Change is   -0.049461551731420
 Root      4 :     2.198788649523727   Change is   -0.008595407762303
 Root      5 :     2.215408214238533   Change is   -0.038193876132218
 Iteration     4 Dimension    50 NMult    40 NNew     10
 CISAX will form    10 AO SS matrices at one time.
 NMat=    10 NSing=    10 JSym2X= 0.
 Root      1 not converged, maximum delta is    0.024822885847714
 Root      2 not converged, maximum delta is    0.038164177480498
 Root      3 not converged, maximum delta is    0.014452152411068
 Root      4 not converged, maximum delta is    0.119510575065760
 Root      5 not converged, maximum delta is    0.088250756462784
 Excitation Energies [eV] at current iteration:
 Root      1 :     1.640860142101948   Change is   -0.016152466730182
 Root      2 :     1.703472822069839   Change is   -0.076111576428337
 Root      3 :     2.179670010444182   Change is   -0.007506016385144
 Root      4 :     2.193251082326393   Change is   -0.005537567197334
 Root      5 :     2.212761351104592   Change is   -0.002646863133941
 Iteration     5 Dimension    60 NMult    50 NNew     10
 CISAX will form    10 AO SS matrices at one time.
 NMat=    10 NSing=    10 JSym2X= 0.
 Root      1 not converged, maximum delta is    0.005088647568711
 Root      2 not converged, maximum delta is    0.008871372270227
 Root      3 not converged, maximum delta is    0.002037762577393
 Root      4 not converged, maximum delta is    0.010986392520708
 Root      5 not converged, maximum delta is    0.008327789663561
 Excitation Energies [eV] at current iteration:
 Root      1 :     1.639091650835916   Change is   -0.001768491266032
 Root      2 :     1.694753689983434   Change is   -0.008719132086406
 Root      3 :     2.178845493633669   Change is   -0.000824516810513
 Root      4 :     2.192582043824335   Change is   -0.000669038502058
 Root      5 :     2.212564411675194   Change is   -0.000196939429398
 Iteration     6 Dimension    70 NMult    60 NNew     10
 CISAX will form    10 AO SS matrices at one time.
 NMat=    10 NSing=    10 JSym2X= 0.
 Root      1 not converged, maximum delta is    0.001023440537545
 Root      2 not converged, maximum delta is    0.004042461102409
 Root      3 has converged.
 Root      4 not converged, maximum delta is    0.001679958973496
 Root      5 not converged, maximum delta is    0.001361629433719
 Excitation Energies [eV] at current iteration:
 Root      1 :     1.638853128772603   Change is   -0.000238522063313
 Root      2 :     1.693447601530987   Change is   -0.001306088452446
 Root      3 :     2.178718682188169   Change is   -0.000126811445500
 Root      4 :     2.192479189589707   Change is   -0.000102854234628
 Root      5 :     2.212535098654999   Change is   -0.000029313020195
 Iteration     7 Dimension    78 NMult    70 NNew      8
 CISAX will form     8 AO SS matrices at one time.
 NMat=     8 NSing=     8 JSym2X= 0.
[...]
 Alpha virt. eigenvalues --    1.84560   1.84733   1.84944   1.85000   1.85109
 Alpha virt. eigenvalues --    1.85285   1.85463   1.85634   1.85788   1.86052
 Alpha virt. eigenvalues --    1.86192   1.86198   1.86523   1.86606   1.86719
 Alpha virt. eigenvalues --    1.86877   1.87070   1.87200   1.87302   1.87445
 Alpha virt. eigenvalues --    1.87458   1.87870   1.87984   1.88005   1.88092
 Alpha virt. eigenvalues --    1.88417   1.88461   1.88549   1.88694   1.88915
 Alpha virt. eigenvalues --    1.89041   1.89241   1.89284   1.89368   1.89919
 Alpha virt. eigenvalues --    1.90064   1.90240   1.90444   1.90722   1.90826
 Alpha virt. eigenvalues --    1.91081   1.91182   1.91474   1.91639   1.91932
 Alpha virt. eigenvalues --    1.92025   1.92477   1.92579   1.92829   1.92986
 Alpha virt. eigenvalues --    1.93410   1.93595   1.94098   1.94300   1.94482
 Alpha virt. eigenvalues --    1.94706   1.95251   1.95423   1.95587   1.95655
 Alpha virt. eigenvalues --    1.95793   1.95834   1.96034   1.96119   1.96417
 Alpha virt. eigenvalues --    1.96474   1.96638   1.96899   1.97037   1.97329
 Alpha virt. eigenvalues --    1.97667   1.97832   1.98013   1.98045   1.98115
 Alpha virt. eigenvalues --    1.98395   1.98435   1.98566   1.99234   1.99493
 Alpha virt. eigenvalues --    1.99745   2.00234   2.00699   2.00877   2.00964
 Alpha virt. eigenvalues --    2.01104   2.01391   2.01537   2.01682   2.01877
 Alpha virt. eigenvalues --    2.01967   2.02281   2.02713   2.02970   2.03176
 Alpha virt. eigenvalues --    2.03221   2.03298   2.03448   2.03812   2.03877
 Alpha virt. eigenvalues --    2.04048   2.04407   2.05176   2.05429   2.05568
 Alpha virt. eigenvalues --    2.06006   2.06239   2.06622   2.06989   2.07258
 Alpha virt. eigenvalues --    2.07414   2.07605   2.08582   2.09063   2.09203
 Alpha virt. eigenvalues --    2.09328   2.09906   2.10761   2.10977   2.11210
 Alpha virt. eigenvalues --    2.11289   2.11344   2.11656   2.11750   2.12129
 Alpha virt. eigenvalues --    2.12478   2.12545   2.12578   2.12726   2.13112
 Alpha virt. eigenvalues --    2.13270   2.13448   2.13661   2.13959   2.14216
 Alpha virt. eigenvalues --    2.14508   2.15426   2.15625   2.15946   2.16360
 Alpha virt. eigenvalues --    2.16598   2.16891   2.17098   2.17308   2.17612
 Alpha virt. eigenvalues --    2.17891   2.17961   2.18153   2.18186   2.18280
 Alpha virt. eigenvalues --    2.18718   2.18963   2.19362   2.19431   2.19716
 Alpha virt. eigenvalues --    2.19984   2.20086   2.20168   2.20618   2.20917
 Alpha virt. eigenvalues --    2.21212   2.21452   2.21488   2.21675   2.22044
 Alpha virt. eigenvalues --    2.22817   2.22946   2.23182   2.23372   2.23599
 Alpha virt. eigenvalues --    2.24434   2.24836   2.25297   2.25972   2.26234
 Alpha virt. eigenvalues --    2.26690   2.26840   2.27204   2.27518   2.27535
 Alpha virt. eigenvalues --    2.28136   2.28746   2.29464   2.29481   2.29835
 Alpha virt. eigenvalues --    2.30165   2.30205   2.30757   2.30910   2.31101
 Alpha virt. eigenvalues --    2.31398   2.31470   2.32531   2.32631   2.33294
 Alpha virt. eigenvalues --    2.33607   2.33684   2.33757   2.34245   2.34334
 Alpha virt. eigenvalues --    2.35065   2.35493   2.35573   2.36299   2.36477
 Alpha virt. eigenvalues --    2.36734   2.36884   2.37131   2.37569   2.37915
 Alpha virt. eigenvalues --    2.38298   2.38681   2.39114   2.39383   2.39613
 Alpha virt. eigenvalues --    2.40009   2.40227   2.40405   2.40755   2.40992
 Alpha virt. eigenvalues --    2.41082   2.41445   2.41710   2.41886   2.42075
 Alpha virt. eigenvalues --    2.42642   2.43096   2.43123   2.43372   2.43400
 Alpha virt. eigenvalues --    2.43943   2.44470   2.44658   2.44807   2.45228
 Alpha virt. eigenvalues --    2.45357   2.45497   2.45948   2.46193   2.46355
 Alpha virt. eigenvalues --    2.46624   2.46907   2.47018   2.47171   2.47505
 Alpha virt. eigenvalues --    2.47625   2.47832   2.48497   2.49173   2.49960
 Alpha virt. eigenvalues --    2.50171   2.50188   2.50518   2.50818   2.51101
 Alpha virt. eigenvalues --    2.51532   2.51662   2.52185   2.52364   2.52632
 Alpha virt. eigenvalues --    2.52847   2.53515   2.53798   2.53961   2.54459
 Alpha virt. eigenvalues --    2.54670   2.54996   2.55347   2.55561   2.56524
 Alpha virt. eigenvalues --    2.57732   2.58488   2.58829   2.59307   2.59980
 Alpha virt. eigenvalues --    2.60377   2.60528   2.61254   2.61938   2.62241
 Alpha virt. eigenvalues --    2.62260   2.62747   2.62862   2.63428   2.63679
 Alpha virt. eigenvalues --    2.64182   2.64562   2.64648   2.64914   2.65308
 Alpha virt. eigenvalues --    2.65496   2.66197   2.66595   2.66905   2.67048
 Alpha virt. eigenvalues --    2.67462   2.67852   2.68302   2.68626   2.68766
 Alpha virt. eigenvalues --    2.69196   2.69242   2.69408   2.69835   2.69910
 Alpha virt. eigenvalues --    2.70391   2.70768   2.71320   2.71915   2.72142
 Alpha virt. eigenvalues --    2.72372   2.72494   2.72773   2.72946   2.73163
 Alpha virt. eigenvalues --    2.73400   2.73519   2.73626   2.74312   2.74689
 Alpha virt. eigenvalues --    2.74780   2.75342   2.76450   2.76759   2.76934
 Alpha virt. eigenvalues --    2.77186   2.77268   2.77926   2.78039   2.78461
 Alpha virt. eigenvalues --    2.78735   2.78921   2.78987   2.79450   2.80194
 Alpha virt. eigenvalues --    2.80502   2.80796   2.80859   2.81333   2.81512
 Alpha virt. eigenvalues --    2.81649   2.82155   2.82384   2.82550   2.83440
 Alpha virt. eigenvalues --    2.83605   2.84070   2.84293   2.84461   2.84748
 Alpha virt. eigenvalues --    2.85061   2.85097   2.85666   2.86544   2.86795
 Alpha virt. eigenvalues --    2.87254   2.87312   2.87340   2.88027   2.88287
 Alpha virt. eigenvalues --    2.88771   2.88852   2.88954   2.90150   2.90493
 Alpha virt. eigenvalues --    2.90868   2.91149   2.91413   2.92929   2.93603
 Alpha virt. eigenvalues --    2.93961   2.94027   2.94595   2.95142   2.95202
 Alpha virt. eigenvalues --    2.95730   2.95868   2.95980   2.96552   2.96787
 Alpha virt. eigenvalues --    2.96873   2.97022   2.97508   2.97996   2.98240
 Alpha virt. eigenvalues --    2.98446   2.98553   2.98628   2.98880   2.98972
 Alpha virt. eigenvalues --    2.99113   2.99401   2.99708   2.99911   3.00105
 Alpha virt. eigenvalues --    3.00156   3.00213   3.00551   3.01177   3.01719
 Alpha virt. eigenvalues --    3.01789   3.02014   3.02168   3.02394   3.02684
 Alpha virt. eigenvalues --    3.02792   3.03092   3.03628   3.03968   3.04107
 Alpha virt. eigenvalues --    3.04222   3.04312   3.04643   3.04677   3.04891
 Alpha virt. eigenvalues --    3.05330   3.05569   3.05910   3.06258   3.06540
 Alpha virt. eigenvalues --    3.06747   3.07390   3.08038   3.08919   3.09071
 Alpha virt. eigenvalues --    3.09584   3.10078   3.10336   3.10617   3.11078
 Alpha virt. eigenvalues --    3.11372   3.11622   3.11806   3.12022   3.12357
 Alpha virt. eigenvalues --    3.12546   3.13120   3.13694   3.13827   3.13965
 Alpha virt. eigenvalues --    3.14081   3.14618   3.16017   3.16190   3.17079
 Alpha virt. eigenvalues --    3.17711   3.18010   3.18321   3.19004   3.19621
 Alpha virt. eigenvalues --    3.21913   3.22749   3.23717   3.24347   3.24658
 Alpha virt. eigenvalues --    3.25364   3.26207   3.26852   3.27380   3.27605
 Alpha virt. eigenvalues --    3.28698   3.29347   3.31238   3.31597   3.33181
 Alpha virt. eigenvalues --    3.33412   3.40214   3.40366   3.42593   3.43270
 Alpha virt. eigenvalues --    3.48349   3.48877   3.49723   3.50504   3.51071
 Alpha virt. eigenvalues --    3.51310   3.56538   3.57251   3.58976   3.59533
 Alpha virt. eigenvalues --    3.62633   3.62734   3.66494   3.66802   3.67129
 Alpha virt. eigenvalues --    3.67666   3.72881   3.74150   3.75694   3.76815
          Condensed to atoms (all electrons):
 Mulliken charges:
               1
     1  Mg   0.830415
     2  C   -0.003271
     3  C   -0.096507
     4  C   -0.035127
     5  C   -0.062238
     6  N   -0.255122
     7  C   -0.054913
     8  C   -0.012996
     9  C   -0.086411
    10  C    0.042912
    11  C    0.104525
    12  C    0.052262
    13  C   -0.071577
    14  H    0.034506
    15  N   -0.442239
    16  C    0.169223
    17  C   -0.184334
    18  C    0.006508
    19  C    0.129773
    20  C    0.111235
    21  C    0.013016
    22  O   -0.248180
    23  C    0.068958
    24  N   -0.339741
    25  C    0.039645
    26  C   -0.028721
    27  C   -0.024641
    28  C    0.078513
    29  C    0.075735
    30  C    0.034289
    31  C   -0.006202
    32  N   -0.309824
    33  C    0.081737
    34  C   -0.168532
    35  C    0.008727
    36  C    0.082755
    37  C    0.127079
    38  C    0.046480
    39  O   -0.187373
    40  C   -0.005869
    41  C    0.213532
    42  O   -0.259460
    43  O   -0.304079
    44  C    0.157510
    45  H   -0.017482
    46  H   -0.014552
    47  H   -0.040004
    48  H    0.001916
    49  H   -0.004307
    50  H    0.025971
    51  H    0.017568
    52  H    0.017385
    53  H    0.009094
    54  H    0.041329
    55  H    0.019960
    56  H    0.018468
    57  H    0.005859
    58  H    0.028481
    59  H    0.037769
    60  H    0.037932
    61  H    0.038446
    62  H    0.025912
    63  H    0.023262
    64  H    0.009368
    65  H    0.024818
    66  H    0.011751
    67  H    0.004768
    68  H    0.006864
    69  H    0.003039
    70  H    0.019021
    71  H    0.017011
    72  H    0.029403
    73  H    0.048227
    74  H    0.010390
    75  H    0.046711
    76  H    0.035986
    77  H    0.044500
    78  H    0.046072
    79  H    0.052496
    80  Mg   0.838085
    81  C   -0.016945
    82  C   -0.088462
    83  C   -0.046062
    84  C   -0.065074
    85  N   -0.254700
    86  C   -0.049292
    87  C   -0.015219
    88  C   -0.090287
    89  C    0.045003
    90  C    0.113862
    91  C    0.062829
    92  C   -0.076969
    93  H    0.033222
    94  N   -0.423709
    95  C    0.164458
    96  C   -0.185039
    97  C   -0.005490
    98  C    0.152178
    99  C    0.111076
   100  C    0.016515
   101  O   -0.251879
   102  C    0.033439
   103  N   -0.349825
   104  C    0.037702
   105  C   -0.019875
   106  C   -0.034723
   107  C    0.088738
   108  C    0.073333
   109  C    0.034955
   110  C   -0.007573
   111  N   -0.323964
   112  C    0.078216
   113  C   -0.163575
   114  C    0.002131
   115  C    0.096040
   116  C    0.131547
   117  C    0.042030
   118  O   -0.188790
   119  C    0.001040
   120  C    0.211118
   121  O   -0.251531
   122  O   -0.305408
   123  C    0.152324
   124  H   -0.014355
   125  H   -0.015860
   126  H   -0.041214
   127  H   -0.000805
   128  H   -0.005999
   129  H    0.020874
   130  H    0.020787
   131  H    0.020002
   132  H    0.012979
   133  H    0.037037
   134  H    0.020961
   135  H    0.018506
   136  H    0.008682
   137  H    0.027860
   138  H    0.035420
   139  H    0.053151
   140  H    0.051270
   141  H    0.023635
   142  H    0.014154
   143  H    0.011984
   144  H    0.023731
   145  H    0.012325
   146  H    0.005150
   147  H    0.005493
   148  H    0.003341
   149  H    0.010819
   150  H    0.017370
   151  H    0.030436
   152  H    0.045348
   153  H    0.007939
   154  H    0.046846
   155  H    0.035450
   156  H    0.043501
   157  H    0.049220
   158  H    0.053102
 Sum of Mulliken charges =  -0.00000
 Mulliken charges with hydrogens summed into heavy atoms:
               1
     1  Mg   0.830415
     2  C   -0.003271
     3  C   -0.113989
     4  C   -0.049680
     5  C   -0.102242
     6  N   -0.255122
     7  C   -0.054913
     8  C   -0.011080
     9  C   -0.090719
    10  C    0.042912
    11  C    0.165448
    12  C    0.102685
    13  C    0.001357
    15  N   -0.442239
    16  C    0.169223
    17  C   -0.184334
    18  C    0.006508
    19  C    0.129773
    20  C    0.183344
    21  C    0.013016
    22  O   -0.248180
    23  C    0.171247
    24  N   -0.339741
    25  C    0.039645
    26  C   -0.005459
    27  C   -0.015273
    28  C    0.078513
    29  C    0.117072
    30  C    0.044192
    31  C    0.059233
    32  N   -0.309824
    33  C    0.081737
    34  C   -0.168532
    35  C    0.008727
    36  C    0.082755
    37  C    0.232407
    38  C    0.046480
    39  O   -0.187373
    40  C    0.030117
    41  C    0.213532
    42  O   -0.259460
    43  O   -0.304079
    44  C    0.300578
    80  Mg   0.838085
    81  C   -0.016945
    82  C   -0.102817
    83  C   -0.061922
    84  C   -0.106288
    85  N   -0.254700
    86  C   -0.049292
    87  C   -0.016023
    88  C   -0.096286
    89  C    0.045003
    90  C    0.175525
    91  C    0.112845
    92  C   -0.004280
    94  N   -0.423709
    95  C    0.164458
    96  C   -0.185039
    97  C   -0.005490
    98  C    0.152178
    99  C    0.183039
   100  C    0.016515
   101  O   -0.251879
   102  C    0.161495
   103  N   -0.349825
   104  C    0.037702
   105  C   -0.005721
   106  C   -0.022739
   107  C    0.088738
   108  C    0.114539
   109  C    0.043789
   110  C    0.051052
   111  N   -0.323964
   112  C    0.078216
   113  C   -0.163575
   114  C    0.002131
   115  C    0.096040
   116  C    0.231680
   117  C    0.042030
   118  O   -0.188790
   119  C    0.036491
   120  C    0.211118
   121  O   -0.251531
   122  O   -0.305408
   123  C    0.298146
 Electronic spatial extent (au):  <R**2>=         101928.9788
 Charge=             -0.0000 electrons
 Dipole moment (field-independent basis, Debye):
    X=              6.7428    Y=              2.2381    Z=              3.6789  Tot=              8.0005
 Quadrupole moment (field-independent basis, Debye-Ang):
   XX=           -551.6912   YY=           -484.8629   ZZ=           -499.6610
   XY=             16.8310   XZ=             18.8175   YZ=             53.5696
 Traceless Quadrupole moment (field-independent basis, Debye-Ang):
   XX=            -39.6195   YY=             27.2088   ZZ=             12.4107
   XY=             16.8310   XZ=             18.8175   YZ=             53.5696
 Octapole moment (field-independent basis, Debye-Ang**2):
  XXX=            793.2575  YYY=            290.7615  ZZZ=            170.6611  XYY=           -234.1829
  XXY=            -25.3685  XXZ=             52.2451  XZZ=             60.8040  YZZ=           -103.2535
  YYZ=            -47.8474  XYZ=             65.7132
 Hexadecapole moment (field-independent basis, Debye-Ang**3):
 XXXX=         -91862.8849 YYYY=         -34939.4475 ZZZZ=         -17220.6353 XXXY=            783.0131
 XXXZ=           -290.9237 YYYX=            228.9404 YYYZ=            809.2396 ZZZX=            790.7692
 ZZZY=            348.0228 XXYY=         -18548.4250 XXZZ=         -16560.3280 YYZZ=          -9402.4022
 XXYZ=           1672.1618 YYXZ=           -253.4235 ZZXY=           -470.4030
 N-N= 1.571091503554D+04 E-N=-4.090243413987D+04  KE= 4.028786785061D+03
 Leave Link  601 at Fri Sep 10 06:47:30 2021, MaxMem= 23488102400 cpu:              19.0 elap:               0.9
 (Enter /sw/apps/gaussian-16.0/g16/l9999.exe)
 1\1\GINC-BP1-COMPUTE00105\SP\RCAM-B3LYP TD-FC\def2SVP\C68H72Mg2N8O8\OF
 15641\10-Sep-2021\0\\#p cam-b3lyp/Def2SVP td=(nstates=5)\\TDDFT excite
 d states in gaussian\\0,1\Mg,0,0.,0.,0.\C,0,-0.217,-2.218,2.801\C,0,-1
 .255,2.442,2.026\C,0,-0.245,1.85,-2.564\C,0,0.146,-2.824,-2.037\N,0,-0
 .617,-0.009,2.126\C,0,-0.594,-0.908,3.105\C,0,-0.936,-0.309,4.502\C,0,
 -1.773,0.964,4.032\C,0,-1.155,1.168,2.66\C,0,-3.263,0.685,3.863\C,0,0.
 345,0.11,5.299\C,0,0.124,0.397,6.787\H,0,1.168,0.033,7.733\N,0,-0.185,
 1.961,-0.152\C,0,-0.703,2.8,0.777\C,0,-0.62,4.156,0.193\C,0,-0.187,4.0
 15,-1.225\C,0,-0.214,2.583,-1.38\C,0,-0.887,5.406,0.974\C,0,0.181,5.01
 3,-2.277\O,0,0.303,4.69,-3.508\C,0,0.31,6.414,-1.837\N,0,-0.265,-0.413
 ,-2.029\C,0,-0.279,0.569,-2.937\C,0,-0.196,0.024,-4.332\C,0,0.124,-1.5
 33,-4.18\C,0,0.086,-1.632,-2.635\C,0,-1.451,0.205,-5.197\C,0,1.373,-2.
 07,-4.923\C,0,2.626,-1.49,-4.306\N,0,0.15,-2.144,0.303\C,0,0.173,-3.13
 6,-0.688\C,0,0.173,-4.438,0.004\C,0,0.133,-4.111,1.358\C,0,0.083,-2.69
 5,1.502\C,0,0.149,-5.715,-0.623\C,0,0.096,-4.629,2.716\O,0,0.208,-5.74
 7,3.221\C,0,-0.255,-3.428,3.701\C,0,0.717,-3.482,4.848\O,0,1.931,-3.25
 5,4.669\O,0,0.038,-3.556,6.003\C,0,0.943,-3.583,7.183\H,0,-1.859,3.22,
 2.497\H,0,-0.218,2.453,-3.474\H,0,0.276,-3.747,-2.605\H,0,-1.554,-0.94
 9,5.132\H,0,-1.585,1.831,4.665\H,0,-3.484,-0.377,3.969\H,0,-3.511,1.02
 7,2.858\H,0,-3.852,1.301,4.543\H,0,0.669,1.096,4.966\H,0,1.13,-0.639,5
 .189\H,0,-0.844,0.026,7.125\H,0,0.062,1.477,6.921\H,0,-1.344,5.186,1.9
 38\H,0,-1.651,5.963,0.432\H,0,0.007,6.02,1.084\H,0,-0.635,6.744,-1.405
 \H,0,0.665,6.97,-2.704\H,0,1.048,6.466,-1.036\H,0,0.608,0.501,-4.891\H
 ,0,-0.692,-2.156,-4.547\H,0,-1.267,0.74,-6.129\H,0,-2.204,0.714,-4.596
 \H,0,-1.967,-0.72,-5.453\H,0,1.356,-1.759,-5.967\H,0,1.452,-3.157,-4.9
 02\H,0,2.714,-0.522,-4.798\H,0,3.487,-2.121,-4.529\H,0,2.495,-1.303,-3
 .24\H,0,0.867,-6.333,-0.084\H,0,0.404,-5.642,-1.68\H,0,-0.891,-5.999,-
 0.463\H,0,-1.283,-3.581,4.028\H,0,0.698,-4.478,7.755\H,0,0.833,-2.619,
 7.68\H,0,2.,-3.754,6.976\Mg,0,8.9327,0.81299,0.68459\C,0,10.96539,0.05
 11,3.54234\C,0,6.27013,0.98052,2.80997\C,0,7.0456,1.03946,-1.85609\C,0
 ,11.46885,-0.51849,-1.30056\N,0,8.76597,0.53351,2.87236\C,0,9.616,0.30
 785,3.86275\C,0,9.00015,0.43966,5.28152\C,0,7.46468,0.15892,4.9042\C,0
 ,7.48329,0.61704,3.44733\C,0,7.0968,-1.31517,4.93669\C,0,9.19015,1.875
 73,5.88454\C,0,8.89016,1.98978,7.38079\H,0,9.69593,2.90485,8.18444\N,0
 ,7.06297,1.45945,0.52711\C,0,6.12352,1.47636,1.49583\C,0,4.91067,2.026
 04,0.87051\C,0,5.16287,2.17844,-0.58822\C,0,6.45463,1.53142,-0.70141\C
 ,0,3.69753,2.42474,1.65965\C,0,4.36667,2.79214,-1.69981\O,0,4.67032,2.
 60155,-2.93038\C,0,3.16663,3.54576,-1.30809\N,0,9.11843,0.14111,-1.274
 09\C,0,8.17688,0.41962,-2.19271\C,0,8.65342,0.07583,-3.5838\C,0,10.208
 04,-0.26757,-3.43275\C,0,10.34667,-0.14406,-1.89948\C,0,7.93808,-1.092
 19,-4.26233\C,0,11.19493,0.52779,-4.3306\C,0,11.21545,1.98079,-3.91377
 \N,0,10.94407,0.0928,1.00671\C,0,11.82227,-0.44552,0.04076\C,0,13.0308
 3,-0.90187,0.75739\C,0,12.76016,-0.6161,2.10408\C,0,11.46547,-0.042,2.
 22098\C,0,14.1598,-1.53497,0.16516\C,0,13.27099,-0.67932,3.45454\O,0,1
 4.348,-0.9891,3.96229\C,0,12.08062,-0.36638,4.46027\C,0,12.57377,0.638
 01,5.46551\O,0,12.87862,1.79023,5.11046\O,0,12.39832,0.14387,6.70463\C
 ,0,12.86242,1.10857,7.73701\H,0,5.33524,0.83338,3.35146\H,0,6.48031,1.
 19455,-2.77797\H,0,12.34466,-0.85496,-1.8595\H,0,9.34747,-0.29546,5.99
 758\H,0,6.79368,0.7809,5.49094\H,0,7.96142,-1.94283,5.09361\H,0,6.6449
 ,-1.52681,3.97646\H,0,6.31674,-1.49267,5.68257\H,0,8.41067,2.53758,5.4
 8565\H,0,10.17708,2.24538,5.68466\H,0,8.82677,1.00748,7.86452\H,0,7.89
 047,2.41371,7.50295\H,0,3.74235,2.04242,2.68689\H,0,2.84162,1.90639,1.
 21401\H,0,3.51232,3.50067,1.63257\H,0,2.49449,2.89307,-0.75611\H,0,2.7
 8165,3.98279,-2.23149\H,0,3.46447,4.34504,-0.62029\H,0,8.54368,0.9224,
 -4.25041\H,0,10.41971,-1.31731,-3.68388\H,0,7.48489,-0.82105,-5.23453\
 H,0,7.18507,-1.47154,-3.58438\H,0,8.55473,-1.97194,-4.43836\H,0,10.860
 61,0.50799,-5.37079\H,0,12.20725,0.1382,-4.31023\H,0,10.34814,2.39887,
 -4.43346\H,0,12.13774,2.45912,-4.23721\H,0,11.036,2.08399,-2.8373\H,0,
 15.03768,-1.08562,0.61003\H,0,14.15816,-1.41973,-0.91673\H,0,13.98375,
 -2.57064,0.46792\H,0,11.7923,-1.30771,4.92967\H,0,13.59454,0.58378,8.3
 5852\H,0,11.94621,1.47394,8.23782\H,0,13.44168,1.96103,7.40203\\Versio
 n=ES64L-G16RevA.03\State=1-A\HF=-4069.813082\RMSD=6.357e-09\PG=C01 [X(
 C68H72Mg2N8O8)]\\@


 THERE ARE TWO THINGS THAT EVERYBODY THINKS THEY CAN DO BETTER THAN
 ANYONE ELSE - PUNCH THE FIRE, AND EDIT A DAILY PAPER.
 -- UNCLE ESEK, "CENTURY MAGAZINE", 1885
 Job cpu time:       0 days 19 hours  4 minutes 21.4 seconds.
 Elapsed time:       0 days  0 hours 48 minutes 22.6 seconds.
 File lengths (MBytes):  RWF=  13225 Int=      0 D2E=      0 Chk=    574 Scr=      1
 Normal termination of Gaussian 16 at Fri Sep 10 06:47:31 2021.
