 Entering Gaussian System, Link 0=g16
 Initial command:
 /sw/apps/gaussian-16.0/g16/l1.exe "/tmp/Gau-124356.inp" -scrdir="/tmp/"
 Entering Link 1 = /sw/apps/gaussian-16.0/g16/l1.exe PID=    124357.
  
 Copyright (c) 1988,1990,1992,1993,1995,1998,2003,2009,2016,
            Gaussian, Inc.  All Rights Reserved.
  
 This is part of the Gaussian(R) 16 program.  It is based on
 the Gaussian(R) 09 system (copyright 2009, Gaussian, Inc.),
 the Gaussian(R) 03 system (copyright 2003, Gaussian, Inc.),
 the Gaussian(R) 98 system (copyright 1998, Gaussian, Inc.),
 the Gaussian(R) 94 system (copyright 1995, Gaussian, Inc.),
 the Gaussian 92(TM) system (copyright 1992, Gaussian, Inc.),
 the Gaussian 90(TM) system (copyright 1990, Gaussian, Inc.),
 the Gaussian 88(TM) system (copyright 1988, Gaussian, Inc.),
 the Gaussian 86(TM) system (copyright 1986, Carnegie Mellon
 University), and the Gaussian 82(TM) system (copyright 1983,
 Carnegie Mellon University). Gaussian is a federally registered
 trademark of Gaussian, Inc.
  
 This software contains proprietary and confidential information,
 including trade secrets, belonging to Gaussian, Inc.
  
 This software is provided under written license and may be
 used, copied, transmitted, or stored only in accord with that
 written license.
  
 The following legend is applicable only to US Government
 contracts under FAR:
  
                    RESTRICTED RIGHTS LEGEND
  
 Use, reproduction and disclosure by the US Government is
 subject to restrictions as set forth in subparagraphs (a)
 and (c) of the Commercial Computer Software - Restricted
 Rights clause in FAR 52.227-19.
  
 Gaussian, Inc.
 340 Quinnipiac St., Bldg. 40, Wallingford CT 06492
  
  
 ---------------------------------------------------------------
 Warning -- This program may not be used in any manner that
 competes with the business of Gaussian, Inc. or will provide
 assistance to any competitor of Gaussian, Inc.  The licensee
 of this program is prohibited from giving any competitor of
 Gaussian, Inc. access to this program.  By using this program,
 the user acknowledges that Gaussian, Inc. is engaged in the
 business of creating and licensing software in the field of
 computational chemistry and represents and warrants to the
 licensee that it is not a competitor of Gaussian, Inc. and that
 it will not use this program in any manner prohibited above.
 ---------------------------------------------------------------
  

 Cite this work as:
 Gaussian 16, Revision A.03,
 M. J. Frisch, G. W. Trucks, H. B. Schlegel, G. E. Scuseria, 
 M. A. Robb, J. R. Cheeseman, G. Scalmani, V. Barone, 
 G. A. Petersson, H. Nakatsuji, X. Li, M. Caricato, A. V. Marenich, 
 J. Bloino, B. G. Janesko, R. Gomperts, B. Mennucci, H. P. Hratchian, 
 J. V. Ortiz, A. F. Izmaylov, J. L. Sonnenberg, D. Williams-Young, 
 F. Ding, F. Lipparini, F. Egidi, J. Goings, B. Peng, A. Petrone, 
 T. Henderson, D. Ranasinghe, V. G. Zakrzewski, J. Gao, N. Rega, 
 G. Zheng, W. Liang, M. Hada, M. Ehara, K. Toyota, R. Fukuda, 
 J. Hasegawa, M. Ishida, T. Nakajima, Y. Honda, O. Kitao, H. Nakai, 
 T. Vreven, K. Throssell, J. A. Montgomery, Jr., J. E. Peralta, 
 F. Ogliaro, M. J. Bearpark, J. J. Heyd, E. N. Brothers, K. N. Kudin, 
 V. N. Staroverov, T. A. Keith, R. Kobayashi, J. Normand, 
 K. Raghavachari, A. P. Rendell, J. C. Burant, S. S. Iyengar, 
 J. Tomasi, M. Cossi, J. M. Millam, M. Klene, C. Adamo, R. Cammi, 
 J. W. Ochterski, R. L. Martin, K. Morokuma, O. Farkas, 
 J. B. Foresman, and D. J. Fox, Gaussian, Inc., Wallingford CT, 2016.
 
 ******************************************
 Gaussian 16:  ES64L-G16RevA.03 25-Dec-2016
                 4-Sep-2021 
 ******************************************
 %nproc=24
 Will use up to   24 processors via shared memory.
 %mem=175gb
 -----------------------------------
 #p cam-b3lyp/Def2SVP td=(nstates=5)
 -----------------------------------
 1/38=1,172=1/1;
 2/12=2,17=6,18=5,40=1/2;
 3/5=43,7=101,11=9,25=1,30=1,74=-40/1,2,3,8;
 4//1;
 5/5=2,38=5/2;
 8/6=1,10=1,108=5/1;
 9/41=5,42=1,70=2/14;
 6/7=2,8=2,9=2,10=2/1;
 99/5=1,9=1/99;
 Leave Link    1 at Sat Sep  4 08:51:39 2021, MaxMem= 23488102400 cpu:               0.9 elap:               0.0
 (Enter /sw/apps/gaussian-16.0/g16/l101.exe)
 --------------------------------
 TDDFT excited states in gaussian
 --------------------------------
 Symbolic Z-matrix:
 Charge =  0 Multiplicity = 1
 Mg                    0.        0.        0. 
 C                    -0.217    -2.218     2.801 
 C                    -1.255     2.442     2.026 
 C                    -0.245     1.85     -2.564 
 C                     0.146    -2.824    -2.037 
 N                    -0.617    -0.009     2.126 
 C                    -0.594    -0.908     3.105 
 C                    -0.936    -0.309     4.502 
 C                    -1.773     0.964     4.032 
 C                    -1.155     1.168     2.66 
 C                    -3.263     0.685     3.863 
 C                     0.345     0.11      5.299 
 C                     0.124     0.397     6.787 
 H                     1.168     0.033     7.733 
 N                    -0.185     1.961    -0.152 
 C                    -0.703     2.8       0.777 
 C                    -0.62      4.156     0.193 
 C                    -0.187     4.015    -1.225 
 C                    -0.214     2.583    -1.38 
 C                    -0.887     5.406     0.974 
 C                     0.181     5.013    -2.277 
 O                     0.303     4.69     -3.508 
 C                     0.31      6.414    -1.837 
 N                    -0.265    -0.413    -2.029 
 C                    -0.279     0.569    -2.937 
 C                    -0.196     0.024    -4.332 
 C                     0.124    -1.533    -4.18 
 C                     0.086    -1.632    -2.635 
 C                    -1.451     0.205    -5.197 
 C                     1.373    -2.07     -4.923 
 C                     2.626    -1.49     -4.306 
 N                     0.15     -2.144     0.303 
 C                     0.173    -3.136    -0.688 
 C                     0.173    -4.438     0.004 
 C                     0.133    -4.111     1.358 
 C                     0.083    -2.695     1.502 
 C                     0.149    -5.715    -0.623 
 C                     0.096    -4.629     2.716 
 O                     0.208    -5.747     3.221 
 C                    -0.255    -3.428     3.701 
 C                     0.717    -3.482     4.848 
 O                     1.931    -3.255     4.669 
 O                     0.038    -3.556     6.003 
 C                     0.943    -3.583     7.183 
 H                    -1.859     3.22      2.497 
 H                    -0.218     2.453    -3.474 
 H                     0.276    -3.747    -2.605 
 H                    -1.554    -0.949     5.132 
 H                    -1.585     1.831     4.665 
 H                    -3.484    -0.377     3.969 
 H                    -3.511     1.027     2.858 
 H                    -3.852     1.301     4.543 
 H                     0.669     1.096     4.966 
 H                     1.13     -0.639     5.189 
 H                    -0.844     0.026     7.125 
 H                     0.062     1.477     6.921 
 H                    -1.344     5.186     1.938 
 H                    -1.651     5.963     0.432 
 H                     0.007     6.02      1.084 
 H                    -0.635     6.744    -1.405 
 H                     0.665     6.97     -2.704 
 H                     1.048     6.466    -1.036 
 H                     0.608     0.501    -4.891 
 H                    -0.692    -2.156    -4.547 
 H                    -1.267     0.74     -6.129 
 H                    -2.204     0.714    -4.596 
 H                    -1.967    -0.72     -5.453 
 H                     1.356    -1.759    -5.967 
 H                     1.452    -3.157    -4.902 
 H                     2.714    -0.522    -4.798 
 H                     3.487    -2.121    -4.529 
 H                     2.495    -1.303    -3.24 
 H                     0.867    -6.333    -0.084 
 H                     0.404    -5.642    -1.68 
 H                    -0.891    -5.999    -0.463 
 H                    -1.283    -3.581     4.028 
 H                     0.698    -4.478     7.755 
 H                     0.833    -2.619     7.68 
 H                     2.       -3.754     6.976 
 Mg                    13.1457   1.18889   0.99307 
 C                     12.53432   4.36868   2.5404 
 C                     12.3568   2.65404  -1.98444 
 C                     13.23691  -1.69127  -0.33501 
 C                     12.76786  -0.25915   4.14047 
 N                     12.54046   3.25191   0.47355 
 C                     12.40161   4.39023   1.13634 
 C                     12.18307   5.63597   0.23638 
 C                     11.58288   4.8963   -1.0565 
 C                     12.2238   3.52236  -0.87159 
 C                     10.07319   4.72955  -1.00777 
 C                     13.52614   6.37566  -0.09683 
 C                     13.35867   7.76757  -0.71025 
 H                     14.32811   8.80276  -0.36233 
 N                     13.32191   0.65764  -0.91095 
 C                     12.97351   1.38365  -1.99391 
 C                     13.28354   0.54148  -3.15959 
 C                     13.68961  -0.80438  -2.67123 
 C                     13.40568  -0.66824  -1.25668 
 C                     13.25751   1.06004  -4.56807 
 C                     14.2304  -2.01796  -3.36474 
 O                     14.28947  -3.15717  -2.7803 
 C                     14.60175  -1.85458  -4.77785 
 N                     12.81225  -0.72105   1.74361 
 C                     12.96932  -1.80661   0.96592 
 C                     12.94616  -3.07379   1.78696 
 C                     12.9831  -2.59756   3.3132 
 C                     12.92879  -1.06848   3.10256 
 C                     11.7397  -3.9864    1.56792 
 C                     14.11275  -3.18112   4.20538 
 C                     15.45508  -2.65962   3.74541 
 N                     12.91174   1.90665   3.01746 
 C                     12.74445   1.12898   4.18421 
 C                     12.51052   2.06598   5.30213 
 C                     12.53525   3.33277   4.69953 
 C                     12.74803   3.19393   3.30134 
 C                     12.2642   1.70108   6.65575 
 C                     12.41915   4.75532   4.92666 
 O                     12.32131   5.47083   5.92275 
 C                     12.28725   5.48262   3.51953 
 C                     13.23735   6.64869   3.50851 
 O                     14.46625   6.46313   3.55281 
 O                     12.55229   7.77262   3.22949 
 C                     13.45342   8.95529   3.19649 
 H                     11.90994   2.95386  -2.93276 
 H                     13.36965  -2.70333  -0.72436 
 H                     12.73855  -0.62683   5.16839 
 H                     11.46763   6.35352   0.61983 
 H                     11.9332   5.35996  -1.975 
 H                     9.66507   5.0314   -0.05464 
 H                     9.88759   3.67791  -1.18285 
 H                     9.6081    5.26082  -1.8431 
 H                     14.02095   5.86117  -0.93063 
 H                     14.15318   6.43644   0.77136 
 H                     12.3354   8.14647  -0.5994 
 H                     13.50008   7.68981  -1.79098 
 H                     12.76313   2.0375   -4.62778 
 H                     12.6077   0.39143  -5.14302 
 H                     14.24702   1.07452  -5.02995 
 H                     13.73396  -1.52346  -5.34333 
 H                     15.04995  -2.805    -5.07399 
 H                     15.34945  -1.05715  -4.85315 
 H                     13.8209  -3.68031   1.58681 
 H                     12.06289  -2.87389   3.84864 
 H                     12.01843  -5.01263   1.26256 
 H                     11.09693  -3.53046   0.82664 
 H                     11.07312  -4.08393   2.42312 
 H                     14.15121  -4.26857   4.10474 
 H                     13.98816  -2.95952   5.26007 
 H                     15.71057  -3.33029   2.91957 
 H                     16.18697  -2.72514   4.54796 
 H                     15.36392  -1.64823   3.33256 
 H                     12.8534   2.36864   7.27032 
 H                     12.52055   0.65983   6.83978 
 H                     11.18619   1.87444   6.71141 
 H                     11.24926   5.79924   3.41043 
 H                     13.04821   9.68554   3.90375 
 H                     13.50826   9.25954   2.13433 
 H                     14.46038   8.8289    3.57664 
 
 ITRead=  0  0  0  0  0  0  0  0  0  0  0  0  0  0  0  0  0  0  0  0
 ITRead=  0  0  0  0  0  0  0  0  0  0  0  0  0  0  0  0  0  0  0  0
 ITRead=  0  0  0  0  0  0  0  0  0  0  0  0  0  0  0  0  0  0  0  0
 ITRead=  0  0  0  0  0  0  0  0  0  0  0  0  0  0  0  0  0  0  0  0
 ITRead=  0  0  0  0  0  0  0  0  0  0  0  0  0  0  0  0  0  0  0  0
 ITRead=  0  0  0  0  0  0  0  0  0  0  0  0  0  0  0  0  0  0  0  0
 ITRead=  0  0  0  0  0  0  0  0  0  0  0  0  0  0  0  0  0  0  0  0
 ITRead=  0  0  0  0  0  0  0  0  0  0  0  0  0  0  0  0  0  0
 MicOpt= -1 -1 -1 -1 -1 -1 -1 -1 -1 -1 -1 -1 -1 -1 -1 -1 -1 -1 -1 -1
 MicOpt= -1 -1 -1 -1 -1 -1 -1 -1 -1 -1 -1 -1 -1 -1 -1 -1 -1 -1 -1 -1
 MicOpt= -1 -1 -1 -1 -1 -1 -1 -1 -1 -1 -1 -1 -1 -1 -1 -1 -1 -1 -1 -1
 MicOpt= -1 -1 -1 -1 -1 -1 -1 -1 -1 -1 -1 -1 -1 -1 -1 -1 -1 -1 -1 -1
 MicOpt= -1 -1 -1 -1 -1 -1 -1 -1 -1 -1 -1 -1 -1 -1 -1 -1 -1 -1 -1 -1
 MicOpt= -1 -1 -1 -1 -1 -1 -1 -1 -1 -1 -1 -1 -1 -1 -1 -1 -1 -1 -1 -1
 MicOpt= -1 -1 -1 -1 -1 -1 -1 -1 -1 -1 -1 -1 -1 -1 -1 -1 -1 -1 -1 -1
 MicOpt= -1 -1 -1 -1 -1 -1 -1 -1 -1 -1 -1 -1 -1 -1 -1 -1 -1 -1
 NAtoms=    158 NQM=      158 NQMF=       0 NMMI=      0 NMMIF=      0
                NMic=       0 NMicF=      0.
                    Isotopes and Nuclear Properties:
 (Nuclear quadrupole moments (NQMom) in fm**2, nuclear magnetic moments (NMagM)
  in nuclear magnetons)

  Atom         1           2           3           4           5           6           7           8           9          10
 IAtWgt=          24          12          12          12          12          14          12          12          12          12
 AtmWgt=  23.9850450  12.0000000  12.0000000  12.0000000  12.0000000  14.0030740  12.0000000  12.0000000  12.0000000  12.0000000
 NucSpn=           0           0           0           0           0           2           0           0           0           0
 AtZEff=  -0.0000000  -0.0000000  -0.0000000  -0.0000000  -0.0000000  -0.0000000  -0.0000000  -0.0000000  -0.0000000  -0.0000000
 NQMom=    0.0000000   0.0000000   0.0000000   0.0000000   0.0000000   2.0440000   0.0000000   0.0000000   0.0000000   0.0000000
 NMagM=    0.0000000   0.0000000   0.0000000   0.0000000   0.0000000   0.4037610   0.0000000   0.0000000   0.0000000   0.0000000
 AtZNuc=  12.0000000   6.0000000   6.0000000   6.0000000   6.0000000   7.0000000   6.0000000   6.0000000   6.0000000   6.0000000

  Atom        11          12          13          14          15          16          17          18          19          20
 IAtWgt=          12          12          12           1          14          12          12          12          12          12
 AtmWgt=  12.0000000  12.0000000  12.0000000   1.0078250  14.0030740  12.0000000  12.0000000  12.0000000  12.0000000  12.0000000
 NucSpn=           0           0           0           1           2           0           0           0           0           0
 AtZEff=  -0.0000000  -0.0000000  -0.0000000  -0.0000000  -0.0000000  -0.0000000  -0.0000000  -0.0000000  -0.0000000  -0.0000000
 NQMom=    0.0000000   0.0000000   0.0000000   0.0000000   2.0440000   0.0000000   0.0000000   0.0000000   0.0000000   0.0000000
 NMagM=    0.0000000   0.0000000   0.0000000   2.7928460   0.4037610   0.0000000   0.0000000   0.0000000   0.0000000   0.0000000
 AtZNuc=   6.0000000   6.0000000   6.0000000   1.0000000   7.0000000   6.0000000   6.0000000   6.0000000   6.0000000   6.0000000

  Atom        21          22          23          24          25          26          27          28          29          30
 IAtWgt=          12          16          12          14          12          12          12          12          12          12
 AtmWgt=  12.0000000  15.9949146  12.0000000  14.0030740  12.0000000  12.0000000  12.0000000  12.0000000  12.0000000  12.0000000
 NucSpn=           0           0           0           2           0           0           0           0           0           0
 AtZEff=  -0.0000000  -0.0000000  -0.0000000  -0.0000000  -0.0000000  -0.0000000  -0.0000000  -0.0000000  -0.0000000  -0.0000000
 NQMom=    0.0000000   0.0000000   0.0000000   2.0440000   0.0000000   0.0000000   0.0000000   0.0000000   0.0000000   0.0000000
 NMagM=    0.0000000   0.0000000   0.0000000   0.4037610   0.0000000   0.0000000   0.0000000   0.0000000   0.0000000   0.0000000
 AtZNuc=   6.0000000   8.0000000   6.0000000   7.0000000   6.0000000   6.0000000   6.0000000   6.0000000   6.0000000   6.0000000

  Atom        31          32          33          34          35          36          37          38          39          40
 IAtWgt=          12          14          12          12          12          12          12          12          16          12
 AtmWgt=  12.0000000  14.0030740  12.0000000  12.0000000  12.0000000  12.0000000  12.0000000  12.0000000  15.9949146  12.0000000
 NucSpn=           0           2           0           0           0           0           0           0           0           0
 AtZEff=  -0.0000000  -0.0000000  -0.0000000  -0.0000000  -0.0000000  -0.0000000  -0.0000000  -0.0000000  -0.0000000  -0.0000000
 NQMom=    0.0000000   2.0440000   0.0000000   0.0000000   0.0000000   0.0000000   0.0000000   0.0000000   0.0000000   0.0000000
 NMagM=    0.0000000   0.4037610   0.0000000   0.0000000   0.0000000   0.0000000   0.0000000   0.0000000   0.0000000   0.0000000
 AtZNuc=   6.0000000   7.0000000   6.0000000   6.0000000   6.0000000   6.0000000   6.0000000   6.0000000   8.0000000   6.0000000

  Atom        41          42          43          44          45          46          47          48          49          50
 IAtWgt=          12          16          16          12           1           1           1           1           1           1
 AtmWgt=  12.0000000  15.9949146  15.9949146  12.0000000   1.0078250   1.0078250   1.0078250   1.0078250   1.0078250   1.0078250
 NucSpn=           0           0           0           0           1           1           1           1           1           1
 AtZEff=  -0.0000000  -0.0000000  -0.0000000  -0.0000000  -0.0000000  -0.0000000  -0.0000000  -0.0000000  -0.0000000  -0.0000000
 NQMom=    0.0000000   0.0000000   0.0000000   0.0000000   0.0000000   0.0000000   0.0000000   0.0000000   0.0000000   0.0000000
 NMagM=    0.0000000   0.0000000   0.0000000   0.0000000   2.7928460   2.7928460   2.7928460   2.7928460   2.7928460   2.7928460
 AtZNuc=   6.0000000   8.0000000   8.0000000   6.0000000   1.0000000   1.0000000   1.0000000   1.0000000   1.0000000   1.0000000

  Atom        51          52          53          54          55          56          57          58          59          60
 IAtWgt=           1           1           1           1           1           1           1           1           1           1
 AtmWgt=   1.0078250   1.0078250   1.0078250   1.0078250   1.0078250   1.0078250   1.0078250   1.0078250   1.0078250   1.0078250
 NucSpn=           1           1           1           1           1           1           1           1           1           1
 AtZEff=  -0.0000000  -0.0000000  -0.0000000  -0.0000000  -0.0000000  -0.0000000  -0.0000000  -0.0000000  -0.0000000  -0.0000000
 NQMom=    0.0000000   0.0000000   0.0000000   0.0000000   0.0000000   0.0000000   0.0000000   0.0000000   0.0000000   0.0000000
 NMagM=    2.7928460   2.7928460   2.7928460   2.7928460   2.7928460   2.7928460   2.7928460   2.7928460   2.7928460   2.7928460
 AtZNuc=   1.0000000   1.0000000   1.0000000   1.0000000   1.0000000   1.0000000   1.0000000   1.0000000   1.0000000   1.0000000

  Atom        61          62          63          64          65          66          67          68          69          70
 IAtWgt=           1           1           1           1           1           1           1           1           1           1
 AtmWgt=   1.0078250   1.0078250   1.0078250   1.0078250   1.0078250   1.0078250   1.0078250   1.0078250   1.0078250   1.0078250
 NucSpn=           1           1           1           1           1           1           1           1           1           1
 AtZEff=  -0.0000000  -0.0000000  -0.0000000  -0.0000000  -0.0000000  -0.0000000  -0.0000000  -0.0000000  -0.0000000  -0.0000000
 NQMom=    0.0000000   0.0000000   0.0000000   0.0000000   0.0000000   0.0000000   0.0000000   0.0000000   0.0000000   0.0000000
 NMagM=    2.7928460   2.7928460   2.7928460   2.7928460   2.7928460   2.7928460   2.7928460   2.7928460   2.7928460   2.7928460
 AtZNuc=   1.0000000   1.0000000   1.0000000   1.0000000   1.0000000   1.0000000   1.0000000   1.0000000   1.0000000   1.0000000

  Atom        71          72          73          74          75          76          77          78          79          80
 IAtWgt=           1           1           1           1           1           1           1           1           1          24
 AtmWgt=   1.0078250   1.0078250   1.0078250   1.0078250   1.0078250   1.0078250   1.0078250   1.0078250   1.0078250  23.9850450
 NucSpn=           1           1           1           1           1           1           1           1           1           0
 AtZEff=  -0.0000000  -0.0000000  -0.0000000  -0.0000000  -0.0000000  -0.0000000  -0.0000000  -0.0000000  -0.0000000  -0.0000000
 NQMom=    0.0000000   0.0000000   0.0000000   0.0000000   0.0000000   0.0000000   0.0000000   0.0000000   0.0000000   0.0000000
 NMagM=    2.7928460   2.7928460   2.7928460   2.7928460   2.7928460   2.7928460   2.7928460   2.7928460   2.7928460   0.0000000
 AtZNuc=   1.0000000   1.0000000   1.0000000   1.0000000   1.0000000   1.0000000   1.0000000   1.0000000   1.0000000  12.0000000

  Atom        81          82          83          84          85          86          87          88          89          90
 IAtWgt=          12          12          12          12          14          12          12          12          12          12
 AtmWgt=  12.0000000  12.0000000  12.0000000  12.0000000  14.0030740  12.0000000  12.0000000  12.0000000  12.0000000  12.0000000
 NucSpn=           0           0           0           0           2           0           0           0           0           0
 AtZEff=  -0.0000000  -0.0000000  -0.0000000  -0.0000000  -0.0000000  -0.0000000  -0.0000000  -0.0000000  -0.0000000  -0.0000000
 NQMom=    0.0000000   0.0000000   0.0000000   0.0000000   2.0440000   0.0000000   0.0000000   0.0000000   0.0000000   0.0000000
 NMagM=    0.0000000   0.0000000   0.0000000   0.0000000   0.4037610   0.0000000   0.0000000   0.0000000   0.0000000   0.0000000
 AtZNuc=   6.0000000   6.0000000   6.0000000   6.0000000   7.0000000   6.0000000   6.0000000   6.0000000   6.0000000   6.0000000

  Atom        91          92          93          94          95          96          97          98          99         100
 IAtWgt=          12          12           1          14          12          12          12          12          12          12
 AtmWgt=  12.0000000  12.0000000   1.0078250  14.0030740  12.0000000  12.0000000  12.0000000  12.0000000  12.0000000  12.0000000
 NucSpn=           0           0           1           2           0           0           0           0           0           0
 AtZEff=  -0.0000000  -0.0000000  -0.0000000  -0.0000000  -0.0000000  -0.0000000  -0.0000000  -0.0000000  -0.0000000  -0.0000000
 NQMom=    0.0000000   0.0000000   0.0000000   2.0440000   0.0000000   0.0000000   0.0000000   0.0000000   0.0000000   0.0000000
 NMagM=    0.0000000   0.0000000   2.7928460   0.4037610   0.0000000   0.0000000   0.0000000   0.0000000   0.0000000   0.0000000
 AtZNuc=   6.0000000   6.0000000   1.0000000   7.0000000   6.0000000   6.0000000   6.0000000   6.0000000   6.0000000   6.0000000

  Atom       101         102         103         104         105         106         107         108         109         110
 IAtWgt=          16          12          14          12          12          12          12          12          12          12
 AtmWgt=  15.9949146  12.0000000  14.0030740  12.0000000  12.0000000  12.0000000  12.0000000  12.0000000  12.0000000  12.0000000
 NucSpn=           0           0           2           0           0           0           0           0           0           0
 AtZEff=  -0.0000000  -0.0000000  -0.0000000  -0.0000000  -0.0000000  -0.0000000  -0.0000000  -0.0000000  -0.0000000  -0.0000000
 NQMom=    0.0000000   0.0000000   2.0440000   0.0000000   0.0000000   0.0000000   0.0000000   0.0000000   0.0000000   0.0000000
 NMagM=    0.0000000   0.0000000   0.4037610   0.0000000   0.0000000   0.0000000   0.0000000   0.0000000   0.0000000   0.0000000
 AtZNuc=   8.0000000   6.0000000   7.0000000   6.0000000   6.0000000   6.0000000   6.0000000   6.0000000   6.0000000   6.0000000

  Atom       111         112         113         114         115         116         117         118         119         120
 IAtWgt=          14          12          12          12          12          12          12          16          12          12
 AtmWgt=  14.0030740  12.0000000  12.0000000  12.0000000  12.0000000  12.0000000  12.0000000  15.9949146  12.0000000  12.0000000
 NucSpn=           2           0           0           0           0           0           0           0           0           0
 AtZEff=  -0.0000000  -0.0000000  -0.0000000  -0.0000000  -0.0000000  -0.0000000  -0.0000000  -0.0000000  -0.0000000  -0.0000000
 NQMom=    2.0440000   0.0000000   0.0000000   0.0000000   0.0000000   0.0000000   0.0000000   0.0000000   0.0000000   0.0000000
 NMagM=    0.4037610   0.0000000   0.0000000   0.0000000   0.0000000   0.0000000   0.0000000   0.0000000   0.0000000   0.0000000
 AtZNuc=   7.0000000   6.0000000   6.0000000   6.0000000   6.0000000   6.0000000   6.0000000   8.0000000   6.0000000   6.0000000

  Atom       121         122         123         124         125         126         127         128         129         130
 IAtWgt=          16          16          12           1           1           1           1           1           1           1
 AtmWgt=  15.9949146  15.9949146  12.0000000   1.0078250   1.0078250   1.0078250   1.0078250   1.0078250   1.0078250   1.0078250
 NucSpn=           0           0           0           1           1           1           1           1           1           1
 AtZEff=  -0.0000000  -0.0000000  -0.0000000  -0.0000000  -0.0000000  -0.0000000  -0.0000000  -0.0000000  -0.0000000  -0.0000000
 NQMom=    0.0000000   0.0000000   0.0000000   0.0000000   0.0000000   0.0000000   0.0000000   0.0000000   0.0000000   0.0000000
 NMagM=    0.0000000   0.0000000   0.0000000   2.7928460   2.7928460   2.7928460   2.7928460   2.7928460   2.7928460   2.7928460
 AtZNuc=   8.0000000   8.0000000   6.0000000   1.0000000   1.0000000   1.0000000   1.0000000   1.0000000   1.0000000   1.0000000

  Atom       131         132         133         134         135         136         137         138         139         140
 IAtWgt=           1           1           1           1           1           1           1           1           1           1
 AtmWgt=   1.0078250   1.0078250   1.0078250   1.0078250   1.0078250   1.0078250   1.0078250   1.0078250   1.0078250   1.0078250
 NucSpn=           1           1           1           1           1           1           1           1           1           1
 AtZEff=  -0.0000000  -0.0000000  -0.0000000  -0.0000000  -0.0000000  -0.0000000  -0.0000000  -0.0000000  -0.0000000  -0.0000000
 NQMom=    0.0000000   0.0000000   0.0000000   0.0000000   0.0000000   0.0000000   0.0000000   0.0000000   0.0000000   0.0000000
 NMagM=    2.7928460   2.7928460   2.7928460   2.7928460   2.7928460   2.7928460   2.7928460   2.7928460   2.7928460   2.7928460
 AtZNuc=   1.0000000   1.0000000   1.0000000   1.0000000   1.0000000   1.0000000   1.0000000   1.0000000   1.0000000   1.0000000

  Atom       141         142         143         144         145         146         147         148         149         150
 IAtWgt=           1           1           1           1           1           1           1           1           1           1
 AtmWgt=   1.0078250   1.0078250   1.0078250   1.0078250   1.0078250   1.0078250   1.0078250   1.0078250   1.0078250   1.0078250
 NucSpn=           1           1           1           1           1           1           1           1           1           1
 AtZEff=  -0.0000000  -0.0000000  -0.0000000  -0.0000000  -0.0000000  -0.0000000  -0.0000000  -0.0000000  -0.0000000  -0.0000000
 NQMom=    0.0000000   0.0000000   0.0000000   0.0000000   0.0000000   0.0000000   0.0000000   0.0000000   0.0000000   0.0000000
 NMagM=    2.7928460   2.7928460   2.7928460   2.7928460   2.7928460   2.7928460   2.7928460   2.7928460   2.7928460   2.7928460
 AtZNuc=   1.0000000   1.0000000   1.0000000   1.0000000   1.0000000   1.0000000   1.0000000   1.0000000   1.0000000   1.0000000

  Atom       151         152         153         154         155         156         157         158
 IAtWgt=           1           1           1           1           1           1           1           1
 AtmWgt=   1.0078250   1.0078250   1.0078250   1.0078250   1.0078250   1.0078250   1.0078250   1.0078250
 NucSpn=           1           1           1           1           1           1           1           1
 AtZEff=  -0.0000000  -0.0000000  -0.0000000  -0.0000000  -0.0000000  -0.0000000  -0.0000000  -0.0000000
 NQMom=    0.0000000   0.0000000   0.0000000   0.0000000   0.0000000   0.0000000   0.0000000   0.0000000
 NMagM=    2.7928460   2.7928460   2.7928460   2.7928460   2.7928460   2.7928460   2.7928460   2.7928460
 AtZNuc=   1.0000000   1.0000000   1.0000000   1.0000000   1.0000000   1.0000000   1.0000000   1.0000000
 Leave Link  101 at Sat Sep  4 08:51:39 2021, MaxMem= 23488102400 cpu:               3.3 elap:               0.2
 (Enter /sw/apps/gaussian-16.0/g16/l202.exe)
 Stoichiometry    C68H72Mg2N8O8
 Framework group  C1[X(C68H72Mg2N8O8)]
 Deg. of freedom   468
 Full point group                 C1      NOp   1
 Largest Abelian subgroup         C1      NOp   1
 Largest concise Abelian subgroup C1      NOp   1
                         Standard orientation:                         
 ---------------------------------------------------------------------
 Center     Atomic      Atomic             Coordinates (Angstroms)
 Number     Number       Type             X           Y           Z
 ---------------------------------------------------------------------
      1         12           0        6.492223    0.707210    0.520127
      2          6           0        7.040140   -2.174701   -1.530870
      3          6           0        7.166244    2.609344   -2.231353
      4          6           0        6.460856    3.255019    2.408065
      5          6           0        6.980407   -1.352781    3.288480
      6          7           0        7.020955    0.169232   -1.561138
      7          6           0        7.140035   -0.971573   -2.233116
      8          6           0        7.306021   -0.769472   -3.769013
      9          6           0        7.892083    0.713268   -3.765920
     10          6           0        7.296425    1.207163   -2.459328
     11          6           0        9.412994    0.767039   -3.663732
     12          6           0        5.939358   -0.843726   -4.529572
     13          6           0        6.045018   -0.982826   -6.051032
     14          1           0        5.059533   -1.793556   -6.750235
     15          7           0        6.292251    2.623382    0.082925
     16          6           0        6.600388    3.222294   -1.092507
     17          6           0        6.272931    4.653812   -0.918701
     18          6           0        5.928232    4.871066    0.513806
     19          6           0        6.242757    3.580521    1.071432
     20          6           0        6.259505    5.637814   -2.047997
     21          6           0        5.409233    6.057197    1.263381
     22          8           0        5.398293    6.102882    2.541023
     23          6           0        4.990505    7.214924    0.452594
     24          7           0        6.907260    0.977100    2.548067
     25          6           0        6.760405    2.172746    3.129314
     26          6           0        6.837434    2.066610    4.623550
     27          6           0        6.825471    0.505069    4.957013
     28          6           0        6.825899   -0.045362    3.509499
     29          6           0        8.062770    2.718949    5.278543
     30          6           0        5.734845    0.003526    5.936507
     31          6           0        4.370423    0.139219    5.298512
     32          7           0        6.757070   -1.419628    0.862852
     33          6           0        6.966310   -2.055435    2.095184
     34          6           0        7.197867   -3.483542    1.810652
     35          6           0        7.123201   -3.577002    0.422295
     36          6           0        6.887668   -2.284479   -0.127434
     37          6           0        7.496090   -4.487493    2.773760
     38          6           0        7.212103   -4.464045   -0.726229
     39          8           0        7.304463   -5.683393   -0.875067
     40          6           0        7.283197   -3.572373   -2.043686
     41          6           0        6.299783   -4.140242   -3.030464
     42          8           0        5.072206   -4.089158   -2.811802
     43          8           0        6.937473   -4.436262   -4.173383
     44          6           0        6.013169   -4.976858   -5.205648
     45          1           0        7.587361    3.304022   -2.960753
     46          1           0        6.348654    4.088829    3.104203
     47          1           0        7.055792   -2.070063    4.107794
     48          1           0        8.014719   -1.448910   -4.242865
     49          1           0        7.513835    1.302101   -4.601340
     50          1           0        9.835089   -0.220803   -3.479545
     51          1           0        9.625142    1.433625   -2.827581
     52          1           0        9.843746    1.244423   -4.544263
     53          1           0        5.439620    0.122850   -4.465901
     54          1           0        5.322039   -1.651859   -4.135665
     55          1           0        7.054196   -1.260301   -6.356770
     56          1           0        5.887873   -0.000034   -6.495582
     57          1           0        6.715465    5.222992   -2.946089
     58          1           0        6.917887    6.458278   -1.763251
     59          1           0        5.258566    6.021475   -2.246130
     60          1           0        5.835471    7.562020   -0.142475
     61          1           0        4.564670    7.933557    1.151937
     62          1           0        4.228044    6.891917   -0.256820
     63          1           0        5.976075    2.538951    5.094060
     64          1           0        7.761139    0.176381    5.409962
     65          1           0        7.810972    3.467787    6.029904
     66          1           0        8.678174    3.148913    4.488796
     67          1           0        8.760049    2.020653    5.740714
     68          1           0        5.728223    0.611789    6.840342
     69          1           0        5.871066   -1.035434    6.236937
     70          1           0        4.111236    1.178602    5.496851
     71          1           0        3.659495   -0.537858    5.773232
     72          1           0        4.423018    0.017283    4.216454
     73          1           0        6.894913   -5.356056    2.505143
     74          1           0        7.270408   -4.146622    3.783947
     75          1           0        8.565136   -4.617159    2.605882
     76          1           0        8.308563   -3.631606   -2.407333
     77          1           0        6.408853   -5.944017   -5.515927
     78          1           0        5.912693   -4.203362   -5.967235
     79          1           0        5.018918   -5.262462   -4.860345
     80         12           0       -6.657045   -0.810087    0.459663
     81          6           0       -6.741624    1.813090   -1.987962
     82          6           0       -6.064587    1.597897    2.801714
     83          6           0       -6.129952   -3.126072    2.563427
     84          6           0       -6.116037   -3.046047   -2.158257
     85          7           0       -6.452037    1.386736    0.304077
     86          6           0       -6.564674    2.278873   -0.668418
     87          6           0       -6.563454    3.755552   -0.189906
     88          6           0       -5.782446    3.557538    1.199230
     89          6           0       -6.146112    2.100698    1.478593
     90          6           0       -4.272322    3.654547    1.059739
     91          6           0       -8.012970    4.310524    0.040131
     92          6           0       -8.101056    5.828987    0.208228
     93          1           0       -9.267644    6.522442   -0.330912
     94          7           0       -6.655487   -0.766876    2.443775
     95          6           0       -6.417871    0.300817    3.234247
     96          6           0       -6.513010   -0.193016    4.616729
     97          6           0       -6.663199   -1.673077    4.576855
     98          6           0       -6.463457   -1.920303    3.162965
     99          6           0       -6.538434    0.720911    5.807313
    100          6           0       -6.928372   -2.697837    5.637863
    101          8           0       -6.782870   -3.951546    5.414476
    102          6           0       -7.272883   -2.185878    6.972285
    103          7           0       -5.981048   -2.766315    0.263269
    104          6           0       -5.892478   -3.577707    1.331779
    105          6           0       -5.649804   -5.007862    0.912071
    106          6           0       -5.835557   -5.026904   -0.676231
    107          6           0       -6.076241   -3.521051   -0.920938
    108          6           0       -4.279886   -5.583124    1.270928
    109          6           0       -6.859687   -6.042406   -1.252902
    110          6           0       -8.260825   -5.653666   -0.839285
    111          7           0       -6.643198   -0.704452   -1.698281
    112          6           0       -6.368468   -1.754224   -2.601921
    113          6           0       -6.364844   -1.170675   -3.959085
    114          6           0       -6.616943    0.193176   -3.747304
    115          6           0       -6.747045    0.445581   -2.354877
    116          6           0       -6.100910   -1.875785   -5.167088
    117          6           0       -6.792042    1.478579   -4.384324
    118          8           0       -6.873618    1.867039   -5.548870
    119          6           0       -6.754963    2.606499   -3.265039
    120          6           0       -7.915332    3.533926   -3.501590
    121          8           0       -9.084280    3.128635   -3.375533
    122          8           0       -7.455684    4.792603   -3.623381
    123          6           0       -8.570550    5.750883   -3.848340
    124          1           0       -5.651367    2.243209    3.577412
    125          1           0       -6.046199   -3.980997    3.238384
    126          1           0       -6.052282   -3.694374   -3.034769
    127          1           0       -6.018047    4.439675   -0.828869
    128          1           0       -6.183608    4.205950    1.973813
    129          1           0       -3.966774    3.723343    0.026279
    130          1           0       -3.876703    2.754619    1.512136
    131          1           0       -3.891008    4.486024    1.659389
    132          1           0       -8.365859    3.991211    1.029205
    133          1           0       -8.670907    3.995240   -0.746217
    134          1           0       -7.177347    6.332329   -0.102163
    135          1           0       -8.184858    6.055872    1.273837
    136          1           0       -6.244700    1.742572    5.536508
    137          1           0       -5.749002    0.382496    6.487116
    138          1           0       -7.493855    0.697710    6.335806
    139          1           0       -6.467415   -1.551609    7.334766
    140          1           0       -7.513735   -3.067041    7.570133
    141          1           0       -8.159916   -1.548663    6.884255
    142          1           0       -6.379853   -5.671305    1.359247
    143          1           0       -4.899067   -5.283492   -1.192941
    144          1           0       -4.339424   -6.502482    1.883561
    145          1           0       -3.713074   -4.818977    1.786035
    146          1           0       -3.638792   -5.813283    0.421673
    147          1           0       -6.679227   -7.038030   -0.840200
    148          1           0       -6.819783   -6.129657   -2.333548
    149          1           0       -8.348746   -6.079258    0.164820
    150          1           0       -8.994179   -6.086183   -1.516901
    151          1           0       -8.355936   -4.565620   -0.745620
    152          1           0       -6.832201   -1.539507   -5.890013
    153          1           0       -6.153402   -2.952350   -5.018639
    154          1           0       -5.081024   -1.538751   -5.370798
    155          1           0       -5.796532    3.120205   -3.349244
    156          1           0       -8.343380    6.294520   -4.770582
    157          1           0       -8.645559    6.345531   -2.918541
    158          1           0       -9.545981    5.339476   -4.080149
 ---------------------------------------------------------------------
 Rotational constants (GHZ):           0.0203330           0.0077997           0.0076388
 Leave Link  202 at Sat Sep  4 08:51:39 2021, MaxMem= 23488102400 cpu:               0.2 elap:               0.0
 (Enter /sw/apps/gaussian-16.0/g16/l301.exe)
 Standard basis: def2SVP (5D, 7F)
 Ernie: Thresh=  0.10000D-02 Tol=  0.10000D-05 Strict=F.
 There are  1658 symmetry adapted cartesian basis functions of A   symmetry.
 There are  1572 symmetry adapted basis functions of A   symmetry.
  1572 basis functions,  2678 primitive gaussians,  1658 cartesian basis functions
   312 alpha electrons      312 beta electrons
       nuclear repulsion energy     14238.7492651479 Hartrees.
 IExCor=20419 DFT=T Ex+Corr=CAM-B3LYP ExCW=0 ScaHFX=  1.000000
 ScaDFX=  1.000000  1.000000  1.000000  0.810000 ScalE2=  1.000000  1.000000
 IRadAn=      5 IRanWt=     -1 IRanGd=            0 ICorTp=0 IEmpDi=  4
 HFx  wShort=  0.000000 wLong=  0.330000 cFull=  0.190000 cShort=  0.000000 cLong=  0.460000
 DFx  wShort=  0.000000 wLong=  0.330000 cFull=  0.190000 cShort=  0.000000 cLong=  0.460000
 NAtoms=  158 NActive=  158 NUniq=  158 SFac= 1.00D+00 NAtFMM=   60 NAOKFM=T Big=T
 Integral buffers will be    131072 words long.
 Raffenetti 1 integral format.
 Two-electron integral symmetry is turned on.
 Leave Link  301 at Sat Sep  4 08:51:39 2021, MaxMem= 23488102400 cpu:               1.5 elap:               0.1
 (Enter /sw/apps/gaussian-16.0/g16/l302.exe)
 NPDir=0 NMtPBC=     1 NCelOv=     1 NCel=       1 NClECP=     1 NCelD=      1
         NCelK=      1 NCelE2=     1 NClLst=     1 CellRange=     0.0.
 One-electron integrals computed using PRISM.
 One-electron integral symmetry used in STVInt
   1 Symmetry operations used in ECPInt.
 ECPInt:  NShTT=  271216 NPrTT=  987664 LenC2=  116493 LenP2D=  255032.
 LDataN:  DoStor=T MaxTD1= 4 Len=   56
 NBasis=  1572 RedAO= T EigKep=  3.36D-04  NBF=  1572
 NBsUse=  1572 1.00D-06 EigRej= -1.00D+00 NBFU=  1572
 Precomputing XC quadrature grid using
 IXCGrd= 4 IRadAn=           5 IRanWt=          -1 IRanGd=           0 AccXCQ= 0.00D+00.
 Generated NRdTot=       0 NPtTot=           0 NUsed=           0 NTot=          32
 NSgBfM=   982   964   966   969   982 MxSgAt=   158 MxSgA2=   154.
 Leave Link  302 at Sat Sep  4 08:51:44 2021, MaxMem= 23488102400 cpu:             110.4 elap:               4.6
 (Enter /sw/apps/gaussian-16.0/g16/l303.exe)
 DipDrv:  MaxL=1.
 Leave Link  303 at Sat Sep  4 08:51:44 2021, MaxMem= 23488102400 cpu:               8.9 elap:               0.4
 (Enter /sw/apps/gaussian-16.0/g16/l308.exe)
 Leave Link  308 at Sat Sep  4 08:51:45 2021, MaxMem= 23488102400 cpu:              13.3 elap:               0.6
 (Enter /sw/apps/gaussian-16.0/g16/l401.exe)
 ExpMin= 3.36D-02 ExpMax= 4.95D+03 ExpMxC= 7.45D+02 IAcc=3 IRadAn=         5 AccDes= 0.00D+00
 Harris functional with IExCor=20419 and IRadAn=       5 diagonalized for initial guess.
 HarFok:  IExCor=20419 AccDes= 0.00D+00 IRadAn=         5 IDoV= 1 UseB2=F ITyADJ=14
 ICtDFT=  3500011 ScaDFX=  1.000000  1.000000  1.000000  1.000000
 FoFCou: FMM=F IPFlag=           0 FMFlag=      100000 FMFlg1=        2001
         NFxFlg=           0 DoJE=T BraDBF=F KetDBF=T FulRan=T
         wScrn=  0.000000 ICntrl=       500 IOpCl=  0 I1Cent=   200000004 NGrid=           0
         NMat0=    1 NMatS0=      1 NMatT0=    0 NMatD0=    1 NMtDS0=    0 NMtDT0=    0
 Petite list used in FoFCou.
 Harris En= -3918.65801542321    
 JPrj=0 DoOrth=F DoCkMO=F.
 Leave Link  401 at Sat Sep  4 08:51:51 2021, MaxMem= 23488102400 cpu:             162.9 elap:               6.8
 (Enter /sw/apps/gaussian-16.0/g16/l502.exe)
 Integral symmetry usage will be decided dynamically.
 Closed shell SCF:
 Using DIIS extrapolation, IDIIS=  1040.
 NGot= 23488102400 LenX= 23482547354 LenY= 23479796732
 Requested convergence on RMS density matrix=1.00D-08 within 128 cycles.
 Requested convergence on MAX density matrix=1.00D-06.
 Requested convergence on             energy=1.00D-06.
 No special actions if energy rises.
 Fock matrices will be formed incrementally for  20 cycles.

 Cycle   1  Pass 1  IDiag  1:
 FoFJK:  IHMeth= 1 ICntrl=       0 DoSepK=T KAlg= 0 I1Cent=           0 FoldK=F
 IRaf=         1 NMat=       1 IRICut=       1 DoRegI=T DoRafI=F ISym2E= 0 IDoP0=0 IntGTp=1.
 FoFCou: FMM=T IPFlag=           0 FMFlag=      100000 FMFlg1=        2001
         NFxFlg=           0 DoJE=T BraDBF=F KetDBF=F FulRan=T
         wScrn=  0.000000 ICntrl=       500 IOpCl=  0 I1Cent=           0 NGrid=           0
         NMat0=    1 NMatS0=      1 NMatT0=    0 NMatD0=    1 NMtDS0=    0 NMtDT0=    0
 Symmetry not used in FoFCou.
 FMM levels:  10  Number of levels for PrismC:   9
 E= -4068.94946197753    
 DIIS: error= 2.04D-02 at cycle   1 NSaved=   1.
 NSaved= 1 IEnMin= 1 EnMin= -4068.94946197753     IErMin= 1 ErrMin= 2.04D-02
 ErrMax= 2.04D-02  0.00D+00 EMaxC= 1.00D-01 BMatC= 1.69D+00 BMatP= 1.69D+00
 IDIUse=3 WtCom= 7.96D-01 WtEn= 2.04D-01
 Coeff-Com:  0.100D+01
 Coeff-En:   0.100D+01
 Coeff:      0.100D+01
 Gap=     0.120 Goal=   None    Shift=    0.000
 GapD=    0.120 DampG=1.000 DampE=0.500 DampFc=0.5000 IDamp=-1.
 Damping current iteration by 5.00D-01
 RMSDP=1.57D-03 MaxDP=1.35D-01              OVMax= 2.04D-01

 Cycle   2  Pass 1  IDiag  1:
 RMSU=  7.69D-04    CP:  9.82D-01
 E= -4069.33824774253     Delta-E=       -0.388785765001 Rises=F Damp=T
 DIIS: error= 1.27D-02 at cycle   2 NSaved=   2.
 NSaved= 2 IEnMin= 2 EnMin= -4069.33824774253     IErMin= 2 ErrMin= 1.27D-02
 ErrMax= 1.27D-02  0.00D+00 EMaxC= 1.00D-01 BMatC= 3.07D-01 BMatP= 1.69D+00
 IDIUse=3 WtCom= 8.73D-01 WtEn= 1.27D-01
 Coeff-Com: -0.213D+00 0.121D+01
 Coeff-En:   0.000D+00 0.100D+01
 Coeff:     -0.186D+00 0.119D+01
 Gap=     0.135 Goal=   None    Shift=    0.000
 RMSDP=7.65D-04 MaxDP=9.40D-02 DE=-3.89D-01 OVMax= 1.91D-01

 Cycle   3  Pass 1  IDiag  1:
 RMSU=  7.32D-04    CP:  9.68D-01  1.24D+00
 E= -4069.62770710101     Delta-E=       -0.289459358479 Rises=F Damp=F
 DIIS: error= 1.57D-02 at cycle   3 NSaved=   3.
 NSaved= 3 IEnMin= 3 EnMin= -4069.62770710101     IErMin= 2 ErrMin= 1.27D-02
 ErrMax= 1.57D-02  0.00D+00 EMaxC= 1.00D-01 BMatC= 2.02D-01 BMatP= 3.07D-01
 IDIUse=3 WtCom= 8.43D-01 WtEn= 1.57D-01
 Coeff-Com: -0.267D+00 0.652D+00 0.615D+00
 Coeff-En:   0.000D+00 0.000D+00 0.100D+01
 Coeff:     -0.225D+00 0.549D+00 0.676D+00
 Gap=     0.123 Goal=   None    Shift=    0.000
 RMSDP=5.08D-04 MaxDP=4.96D-02 DE=-2.89D-01 OVMax= 1.46D-01

 Cycle   4  Pass 1  IDiag  1:
 RMSU=  2.66D-04    CP:  9.65D-01  1.55D+00  5.05D-01
 E= -4069.76505356591     Delta-E=       -0.137346464900 Rises=F Damp=F
 DIIS: error= 7.30D-03 at cycle   4 NSaved=   4.
 NSaved= 4 IEnMin= 4 EnMin= -4069.76505356591     IErMin= 4 ErrMin= 7.30D-03
 ErrMax= 7.30D-03  0.00D+00 EMaxC= 1.00D-01 BMatC= 5.05D-02 BMatP= 2.02D-01
 IDIUse=3 WtCom= 9.27D-01 WtEn= 7.30D-02
 Coeff-Com: -0.109D+00 0.226D+00 0.409D+00 0.474D+00
 Coeff-En:   0.000D+00 0.000D+00 0.221D+00 0.779D+00
 Coeff:     -0.101D+00 0.209D+00 0.395D+00 0.496D+00
 Gap=     0.122 Goal=   None    Shift=    0.000
 RMSDP=2.00D-04 MaxDP=2.07D-02 DE=-1.37D-01 OVMax= 6.38D-02

 Cycle   5  Pass 1  IDiag  1:
 RMSU=  7.61D-05    CP:  9.64D-01  1.49D+00  6.89D-01  5.49D-01
 E= -4069.81066228888     Delta-E=       -0.045608722969 Rises=F Damp=F
 DIIS: error= 7.97D-04 at cycle   5 NSaved=   5.
 NSaved= 5 IEnMin= 5 EnMin= -4069.81066228888     IErMin= 5 ErrMin= 7.97D-04
 ErrMax= 7.97D-04  0.00D+00 EMaxC= 1.00D-01 BMatC= 1.18D-03 BMatP= 5.05D-02
 IDIUse=3 WtCom= 9.92D-01 WtEn= 7.97D-03
 Coeff-Com: -0.359D-01 0.706D-01 0.166D+00 0.250D+00 0.550D+00
 Coeff-En:   0.000D+00 0.000D+00 0.000D+00 0.000D+00 0.100D+01
 Coeff:     -0.357D-01 0.700D-01 0.164D+00 0.248D+00 0.553D+00
 Gap=     0.121 Goal=   None    Shift=    0.000
 RMSDP=4.10D-05 MaxDP=4.24D-03 DE=-4.56D-02 OVMax= 1.76D-02

 Cycle   6  Pass 1  IDiag  1:
 RMSU=  3.04D-05    CP:  9.64D-01  1.49D+00  6.81D-01  6.21D-01  7.56D-01
 E= -4069.81168218000     Delta-E=       -0.001019891115 Rises=F Damp=F
 DIIS: error= 2.13D-04 at cycle   6 NSaved=   6.
 NSaved= 6 IEnMin= 6 EnMin= -4069.81168218000     IErMin= 6 ErrMin= 2.13D-04
 ErrMax= 2.13D-04  0.00D+00 EMaxC= 1.00D-01 BMatC= 1.78D-04 BMatP= 1.18D-03
 IDIUse=3 WtCom= 9.98D-01 WtEn= 2.13D-03
 Coeff-Com:  0.228D-02-0.673D-02 0.110D-01 0.399D-01 0.306D+00 0.647D+00
 Coeff-En:   0.000D+00 0.000D+00 0.000D+00 0.000D+00 0.105D+00 0.895D+00
 Coeff:      0.228D-02-0.671D-02 0.110D-01 0.398D-01 0.306D+00 0.648D+00
 Gap=     0.122 Goal=   None    Shift=    0.000
 RMSDP=1.59D-05 MaxDP=1.26D-03 DE=-1.02D-03 OVMax= 7.70D-03

 Cycle   7  Pass 1  IDiag  1:
 RMSU=  1.07D-05    CP:  9.64D-01  1.50D+00  6.87D-01  6.21D-01  8.58D-01
                    CP:  7.49D-01
 E= -4069.81187387262     Delta-E=       -0.000191692623 Rises=F Damp=F
 DIIS: error= 9.21D-05 at cycle   7 NSaved=   7.
 NSaved= 7 IEnMin= 7 EnMin= -4069.81187387262     IErMin= 7 ErrMin= 9.21D-05
 ErrMax= 9.21D-05  0.00D+00 EMaxC= 1.00D-01 BMatC= 2.10D-05 BMatP= 1.78D-04
 IDIUse=1 WtCom= 1.00D+00 WtEn= 0.00D+00
 Coeff-Com:  0.446D-02-0.976D-02-0.897D-02-0.379D-02 0.102D+00 0.330D+00
 Coeff-Com:  0.586D+00
 Coeff:      0.446D-02-0.976D-02-0.897D-02-0.379D-02 0.102D+00 0.330D+00
 Coeff:      0.586D+00
 Gap=     0.122 Goal=   None    Shift=    0.000
 RMSDP=6.47D-06 MaxDP=1.17D-03 DE=-1.92D-04 OVMax= 3.65D-03

 Cycle   8  Pass 1  IDiag  1:
 RMSU=  4.66D-06    CP:  9.64D-01  1.50D+00  6.87D-01  6.25D-01  8.62D-01
                    CP:  8.73D-01  8.25D-01
 E= -4069.81189986283     Delta-E=       -0.000025990208 Rises=F Damp=F
 DIIS: error= 5.21D-05 at cycle   8 NSaved=   8.
 NSaved= 8 IEnMin= 8 EnMin= -4069.81189986283     IErMin= 8 ErrMin= 5.21D-05
 ErrMax= 5.21D-05  0.00D+00 EMaxC= 1.00D-01 BMatC= 4.76D-06 BMatP= 2.10D-05
 IDIUse=1 WtCom= 1.00D+00 WtEn= 0.00D+00
 Coeff-Com:  0.214D-02-0.425D-02-0.773D-02-0.121D-01-0.117D-01 0.328D-01
 Coeff-Com:  0.341D+00 0.660D+00
 Coeff:      0.214D-02-0.425D-02-0.773D-02-0.121D-01-0.117D-01 0.328D-01
 Coeff:      0.341D+00 0.660D+00
 Gap=     0.122 Goal=   None    Shift=    0.000
 RMSDP=3.28D-06 MaxDP=4.08D-04 DE=-2.60D-05 OVMax= 1.14D-03

 Cycle   9  Pass 1  IDiag  1:
 RMSU=  1.91D-06    CP:  9.64D-01  1.50D+00  6.88D-01  6.27D-01  8.78D-01
                    CP:  9.00D-01  1.02D+00  9.44D-01
 E= -4069.81190749012     Delta-E=       -0.000007627292 Rises=F Damp=F
 DIIS: error= 1.92D-05 at cycle   9 NSaved=   9.
 NSaved= 9 IEnMin= 9 EnMin= -4069.81190749012     IErMin= 9 ErrMin= 1.92D-05
 ErrMax= 1.92D-05  0.00D+00 EMaxC= 1.00D-01 BMatC= 6.88D-07 BMatP= 4.76D-06
 IDIUse=1 WtCom= 1.00D+00 WtEn= 0.00D+00
 Coeff-Com:  0.460D-03-0.763D-03-0.265D-02-0.597D-02-0.212D-01-0.386D-01
 Coeff-Com:  0.102D+00 0.328D+00 0.638D+00
 Coeff:      0.460D-03-0.763D-03-0.265D-02-0.597D-02-0.212D-01-0.386D-01
 Coeff:      0.102D+00 0.328D+00 0.638D+00
 Gap=     0.122 Goal=   None    Shift=    0.000
 RMSDP=1.41D-06 MaxDP=1.62D-04 DE=-7.63D-06 OVMax= 7.71D-04

 Cycle  10  Pass 1  IDiag  1:
 RMSU=  9.35D-07    CP:  9.64D-01  1.50D+00  6.88D-01  6.27D-01  8.82D-01
                    CP:  9.13D-01  1.07D+00  1.11D+00  1.05D+00
 E= -4069.81190907352     Delta-E=       -0.000001583398 Rises=F Damp=F
 DIIS: error= 1.06D-05 at cycle  10 NSaved=  10.
 NSaved=10 IEnMin=10 EnMin= -4069.81190907352     IErMin=10 ErrMin= 1.06D-05
 ErrMax= 1.06D-05  0.00D+00 EMaxC= 1.00D-01 BMatC= 1.68D-07 BMatP= 6.88D-07
 IDIUse=1 WtCom= 1.00D+00 WtEn= 0.00D+00
 Coeff-Com: -0.428D-03 0.895D-03 0.124D-02 0.114D-02-0.373D-02-0.307D-01
 Coeff-Com: -0.471D-01-0.758D-01 0.252D+00 0.903D+00
 Coeff:     -0.428D-03 0.895D-03 0.124D-02 0.114D-02-0.373D-02-0.307D-01
 Coeff:     -0.471D-01-0.758D-01 0.252D+00 0.903D+00
 Gap=     0.122 Goal=   None    Shift=    0.000
 RMSDP=1.23D-06 MaxDP=1.36D-04 DE=-1.58D-06 OVMax= 6.15D-04

 Cycle  11  Pass 1  IDiag  1:
 RMSU=  5.15D-07    CP:  9.64D-01  1.50D+00  6.88D-01  6.28D-01  8.84D-01
                    CP:  9.23D-01  1.12D+00  1.22D+00  1.39D+00  1.37D+00
 E= -4069.81190985900     Delta-E=       -0.000000785487 Rises=F Damp=F
 DIIS: error= 3.84D-06 at cycle  11 NSaved=  11.
 NSaved=11 IEnMin=11 EnMin= -4069.81190985900     IErMin=11 ErrMin= 3.84D-06
 ErrMax= 3.84D-06  0.00D+00 EMaxC= 1.00D-01 BMatC= 6.06D-08 BMatP= 1.68D-07
 IDIUse=1 WtCom= 1.00D+00 WtEn= 0.00D+00
 Coeff-Com: -0.326D-03 0.634D-03 0.132D-02 0.211D-02 0.439D-02-0.821D-02
 Coeff-Com: -0.436D-01-0.131D+00-0.263D-01 0.468D+00 0.733D+00
 Coeff:     -0.326D-03 0.634D-03 0.132D-02 0.211D-02 0.439D-02-0.821D-02
 Coeff:     -0.436D-01-0.131D+00-0.263D-01 0.468D+00 0.733D+00
 Gap=     0.122 Goal=   None    Shift=    0.000
 RMSDP=6.83D-07 MaxDP=5.92D-05 DE=-7.85D-07 OVMax= 3.54D-04

 Cycle  12  Pass 1  IDiag  1:
 RMSU=  2.61D-07    CP:  9.64D-01  1.50D+00  6.88D-01  6.28D-01  8.85D-01
                    CP:  9.26D-01  1.14D+00  1.29D+00  1.56D+00  1.76D+00
                    CP:  1.20D+00
 E= -4069.81191012023     Delta-E=       -0.000000261225 Rises=F Damp=F
 DIIS: error= 2.51D-06 at cycle  12 NSaved=  12.
 NSaved=12 IEnMin=12 EnMin= -4069.81191012023     IErMin=12 ErrMin= 2.51D-06
 ErrMax= 2.51D-06  0.00D+00 EMaxC= 1.00D-01 BMatC= 1.41D-08 BMatP= 6.06D-08
 IDIUse=1 WtCom= 1.00D+00 WtEn= 0.00D+00
 Coeff-Com:  0.306D-05-0.225D-04 0.167D-03 0.491D-03 0.326D-02 0.416D-02
 Coeff-Com:  0.306D-02-0.331D-01-0.699D-01-0.765D-01 0.242D+00 0.927D+00
 Coeff:      0.306D-05-0.225D-04 0.167D-03 0.491D-03 0.326D-02 0.416D-02
 Coeff:      0.306D-02-0.331D-01-0.699D-01-0.765D-01 0.242D+00 0.927D+00
 Gap=     0.122 Goal=   None    Shift=    0.000
 RMSDP=4.41D-07 MaxDP=3.14D-05 DE=-2.61D-07 OVMax= 2.54D-04

 Cycle  13  Pass 1  IDiag  1:
 RMSU=  1.65D-07    CP:  9.64D-01  1.50D+00  6.88D-01  6.28D-01  8.85D-01
                    CP:  9.26D-01  1.14D+00  1.31D+00  1.67D+00  1.99D+00
                    CP:  1.62D+00  1.28D+00
 E= -4069.81191021215     Delta-E=       -0.000000091924 Rises=F Damp=F
 DIIS: error= 1.35D-06 at cycle  13 NSaved=  13.
 NSaved=13 IEnMin=13 EnMin= -4069.81191021215     IErMin=13 ErrMin= 1.35D-06
 ErrMax= 1.35D-06  0.00D+00 EMaxC= 1.00D-01 BMatC= 8.09D-09 BMatP= 1.41D-08
 IDIUse=1 WtCom= 1.00D+00 WtEn= 0.00D+00
 Coeff-Com:  0.120D-03-0.245D-03-0.371D-03-0.459D-03 0.562D-03 0.507D-02
 Coeff-Com:  0.195D-01 0.234D-01-0.349D-01-0.240D+00-0.160D+00 0.609D+00
 Coeff-Com:  0.779D+00
 Coeff:      0.120D-03-0.245D-03-0.371D-03-0.459D-03 0.562D-03 0.507D-02
 Coeff:      0.195D-01 0.234D-01-0.349D-01-0.240D+00-0.160D+00 0.609D+00
 Coeff:      0.779D+00
 Gap=     0.122 Goal=   None    Shift=    0.000
 RMSDP=3.36D-07 MaxDP=2.25D-05 DE=-9.19D-08 OVMax= 1.83D-04

 Cycle  14  Pass 1  IDiag  1:
 RMSU=  7.60D-08    CP:  9.64D-01  1.50D+00  6.88D-01  6.28D-01  8.86D-01
                    CP:  9.27D-01  1.15D+00  1.34D+00  1.74D+00  2.18D+00
                    CP:  1.88D+00  1.80D+00  1.08D+00
 E= -4069.81191024776     Delta-E=       -0.000000035612 Rises=F Damp=F
 DIIS: error= 8.05D-07 at cycle  14 NSaved=  14.
 NSaved=14 IEnMin=14 EnMin= -4069.81191024776     IErMin=14 ErrMin= 8.05D-07
 ErrMax= 8.05D-07  0.00D+00 EMaxC= 1.00D-01 BMatC= 1.20D-09 BMatP= 8.09D-09
 IDIUse=1 WtCom= 1.00D+00 WtEn= 0.00D+00
 Coeff-Com:  0.659D-04-0.130D-03-0.244D-03-0.384D-03-0.480D-03 0.128D-02
 Coeff-Com:  0.106D-01 0.193D-01 0.334D-02-0.981D-01-0.143D+00 0.100D+00
 Coeff-Com:  0.396D+00 0.712D+00
 Coeff:      0.659D-04-0.130D-03-0.244D-03-0.384D-03-0.480D-03 0.128D-02
 Coeff:      0.106D-01 0.193D-01 0.334D-02-0.981D-01-0.143D+00 0.100D+00
 Coeff:      0.396D+00 0.712D+00
 Gap=     0.122 Goal=   None    Shift=    0.000
 RMSDP=1.01D-07 MaxDP=6.71D-06 DE=-3.56D-08 OVMax= 6.14D-05

 Cycle  15  Pass 1  IDiag  1:
 RMSU=  3.86D-08    CP:  9.64D-01  1.50D+00  6.88D-01  6.28D-01  8.85D-01
                    CP:  9.26D-01  1.15D+00  1.34D+00  1.76D+00  2.22D+00
                    CP:  1.98D+00  1.93D+00  1.32D+00  1.02D+00
 E= -4069.81191025162     Delta-E=       -0.000000003856 Rises=F Damp=F
 DIIS: error= 4.57D-07 at cycle  15 NSaved=  15.
 NSaved=15 IEnMin=15 EnMin= -4069.81191025162     IErMin=15 ErrMin= 4.57D-07
 ErrMax= 4.57D-07  0.00D+00 EMaxC= 1.00D-01 BMatC= 2.41D-10 BMatP= 1.20D-09
 IDIUse=1 WtCom= 1.00D+00 WtEn= 0.00D+00
 Coeff-Com:  0.581D-05-0.979D-05-0.345D-04-0.850D-04-0.309D-03-0.508D-03
 Coeff-Com:  0.118D-02 0.283D-02 0.875D-02 0.149D-02-0.333D-01-0.704D-01
 Coeff-Com:  0.263D-01 0.316D+00 0.748D+00
 Coeff:      0.581D-05-0.979D-05-0.345D-04-0.850D-04-0.309D-03-0.508D-03
 Coeff:      0.118D-02 0.283D-02 0.875D-02 0.149D-02-0.333D-01-0.704D-01
 Coeff:      0.263D-01 0.316D+00 0.748D+00
 Gap=     0.122 Goal=   None    Shift=    0.000
 RMSDP=4.10D-08 MaxDP=2.68D-06 DE=-3.86D-09 OVMax= 2.32D-05

 Cycle  16  Pass 1  IDiag  1:
 RMSU=  1.87D-08    CP:  9.64D-01  1.50D+00  6.88D-01  6.28D-01  8.85D-01
                    CP:  9.26D-01  1.15D+00  1.34D+00  1.77D+00  2.24D+00
                    CP:  2.01D+00  2.00D+00  1.39D+00  1.24D+00  1.14D+00
 E= -4069.81191025236     Delta-E=       -0.000000000742 Rises=F Damp=F
 DIIS: error= 2.49D-07 at cycle  16 NSaved=  16.
 NSaved=16 IEnMin=16 EnMin= -4069.81191025236     IErMin=16 ErrMin= 2.49D-07
 ErrMax= 2.49D-07  0.00D+00 EMaxC= 1.00D-01 BMatC= 7.73D-11 BMatP= 2.41D-10
 IDIUse=1 WtCom= 1.00D+00 WtEn= 0.00D+00
 Coeff-Com: -0.141D-04 0.285D-04 0.465D-04 0.528D-04-0.298D-04-0.629D-03
 Coeff-Com: -0.196D-02-0.419D-02 0.451D-02 0.256D-01 0.198D-01-0.639D-01
 Coeff-Com: -0.863D-01-0.223D-01 0.384D+00 0.745D+00
 Coeff:     -0.141D-04 0.285D-04 0.465D-04 0.528D-04-0.298D-04-0.629D-03
 Coeff:     -0.196D-02-0.419D-02 0.451D-02 0.256D-01 0.198D-01-0.639D-01
 Coeff:     -0.863D-01-0.223D-01 0.384D+00 0.745D+00
 Gap=     0.122 Goal=   None    Shift=    0.000
 RMSDP=2.30D-08 MaxDP=1.59D-06 DE=-7.42D-10 OVMax= 1.59D-05

 Cycle  17  Pass 1  IDiag  1:
 RMSU=  1.11D-08    CP:  9.64D-01  1.50D+00  6.88D-01  6.28D-01  8.85D-01
                    CP:  9.26D-01  1.15D+00  1.34D+00  1.77D+00  2.24D+00
                    CP:  2.02D+00  2.02D+00  1.44D+00  1.34D+00  1.44D+00
                    CP:  1.23D+00
 E= -4069.81191025277     Delta-E=       -0.000000000411 Rises=F Damp=F
 DIIS: error= 1.31D-07 at cycle  17 NSaved=  17.
 NSaved=17 IEnMin=17 EnMin= -4069.81191025277     IErMin=17 ErrMin= 1.31D-07
 ErrMax= 1.31D-07  0.00D+00 EMaxC= 1.00D-01 BMatC= 2.11D-11 BMatP= 7.73D-11
 IDIUse=1 WtCom= 1.00D+00 WtEn= 0.00D+00
 Coeff-Com: -0.818D-05 0.160D-04 0.318D-04 0.465D-04 0.811D-04-0.161D-03
 Coeff-Com: -0.111D-02-0.305D-02 0.338D-03 0.112D-01 0.188D-01-0.111D-01
 Coeff-Com: -0.450D-01-0.100D+00-0.280D-01 0.356D+00 0.802D+00
 Coeff:     -0.818D-05 0.160D-04 0.318D-04 0.465D-04 0.811D-04-0.161D-03
 Coeff:     -0.111D-02-0.305D-02 0.338D-03 0.112D-01 0.188D-01-0.111D-01
 Coeff:     -0.450D-01-0.100D+00-0.280D-01 0.356D+00 0.802D+00
 Gap=     0.122 Goal=   None    Shift=    0.000
 RMSDP=1.40D-08 MaxDP=1.00D-06 DE=-4.11D-10 OVMax= 8.03D-06

 Cycle  18  Pass 1  IDiag  1:
 RMSU=  5.29D-09    CP:  9.64D-01  1.50D+00  6.88D-01  6.28D-01  8.85D-01
                    CP:  9.26D-01  1.15D+00  1.34D+00  1.77D+00  2.24D+00
                    CP:  2.02D+00  2.03D+00  1.46D+00  1.41D+00  1.61D+00
                    CP:  1.64D+00  1.32D+00
 E= -4069.81191025292     Delta-E=       -0.000000000146 Rises=F Damp=F
 DIIS: error= 6.63D-08 at cycle  18 NSaved=  18.
 NSaved=18 IEnMin=18 EnMin= -4069.81191025292     IErMin=18 ErrMin= 6.63D-08
 ErrMax= 6.63D-08  0.00D+00 EMaxC= 1.00D-01 BMatC= 6.81D-12 BMatP= 2.11D-11
 IDIUse=1 WtCom= 1.00D+00 WtEn= 0.00D+00
 Coeff-Com:  0.891D-06-0.212D-05-0.251D-06 0.424D-05 0.652D-04 0.151D-03
 Coeff-Com:  0.233D-03-0.176D-03-0.120D-02-0.431D-02 0.223D-02 0.179D-01
 Coeff-Com:  0.114D-01-0.420D-01-0.155D+00-0.981D-01 0.371D+00 0.898D+00
 Coeff:      0.891D-06-0.212D-05-0.251D-06 0.424D-05 0.652D-04 0.151D-03
 Coeff:      0.233D-03-0.176D-03-0.120D-02-0.431D-02 0.223D-02 0.179D-01
 Coeff:      0.114D-01-0.420D-01-0.155D+00-0.981D-01 0.371D+00 0.898D+00
 Gap=     0.122 Goal=   None    Shift=    0.000
 RMSDP=1.06D-08 MaxDP=8.56D-07 DE=-1.46D-10 OVMax= 7.34D-06

 Cycle  19  Pass 1  IDiag  1:
 RMSU=  3.30D-09    CP:  9.64D-01  1.50D+00  6.88D-01  6.28D-01  8.85D-01
                    CP:  9.26D-01  1.15D+00  1.34D+00  1.77D+00  2.24D+00
                    CP:  2.03D+00  2.03D+00  1.47D+00  1.45D+00  1.74D+00
                    CP:  1.92D+00  1.81D+00  1.19D+00
 E= -4069.81191025299     Delta-E=       -0.000000000073 Rises=F Damp=F
 DIIS: error= 3.63D-08 at cycle  19 NSaved=  19.
 NSaved=19 IEnMin=19 EnMin= -4069.81191025299     IErMin=19 ErrMin= 3.63D-08
 ErrMax= 3.63D-08  0.00D+00 EMaxC= 1.00D-01 BMatC= 2.96D-12 BMatP= 6.81D-12
 IDIUse=1 WtCom= 1.00D+00 WtEn= 0.00D+00
 Coeff-Com:  0.331D-05-0.672D-05-0.110D-04-0.131D-04 0.190D-04 0.152D-03
 Coeff-Com:  0.546D-03 0.891D-03-0.838D-03-0.697D-02-0.508D-02 0.156D-01
 Coeff-Com:  0.234D-01 0.602D-02-0.978D-01-0.197D+00-0.455D-01 0.596D+00
 Coeff-Com:  0.711D+00
 Coeff:      0.331D-05-0.672D-05-0.110D-04-0.131D-04 0.190D-04 0.152D-03
 Coeff:      0.546D-03 0.891D-03-0.838D-03-0.697D-02-0.508D-02 0.156D-01
 Coeff:      0.234D-01 0.602D-02-0.978D-01-0.197D+00-0.455D-01 0.596D+00
 Coeff:      0.711D+00
 Gap=     0.122 Goal=   None    Shift=    0.000
 RMSDP=6.54D-09 MaxDP=4.42D-07 DE=-7.28D-11 OVMax= 3.60D-06

 SCF Done:  E(RCAM-B3LYP) =  -4069.81191025     A.U. after   19 cycles
            NFock= 19  Conv=0.65D-08     -V/T= 2.0102
 KE= 4.028801891452D+03 PE=-3.795844224618D+04 EE= 1.562107917933D+04
 Leave Link  502 at Sat Sep  4 09:00:45 2021, MaxMem= 23488102400 cpu:           12216.8 elap:             533.2
 (Enter /sw/apps/gaussian-16.0/g16/l801.exe)
 DoSCS=F DFT=T ScalE2(SS,OS)=  1.000000  1.000000
 ExpMin= 3.36D-02 ExpMax= 4.95D+03 ExpMxC= 7.45D+02 IAcc=3 IRadAn=         5 AccDes= 0.00D+00
 HarFok:  IExCor=  205 AccDes= 0.00D+00 IRadAn=         5 IDoV=-2 UseB2=F ITyADJ=14
 ICtDFT= 12500011 ScaDFX=  1.000000  1.000000  1.000000  1.000000
 GSVD:  LWork=       -9588 too small for GESVD, short by       45590 words or       45590 for optimal perf.
 Largest valence mixing into a core orbital is  2.03D-04
 Largest core mixing into a valence orbital is  5.24D-05
 Range of M.O.s used for correlation:    95  1572
 NBasis=  1572 NAE=   312 NBE=   312 NFC=    94 NFV=     0
 NROrb=   1478 NOA=   218 NOB=   218 NVA=  1260 NVB=  1260
 Leave Link  801 at Sat Sep  4 09:00:45 2021, MaxMem= 23488102400 cpu:               8.2 elap:               0.4
 (Enter /sw/apps/gaussian-16.0/g16/l914.exe)
 RHF ground state
 Two-electron integrals replicated using symmetry.
 MDV= 23488102400 DFT=T DoStab=F Mixed=T DoRPA=T DoScal=F NonHer=T
 Making orbital integer symmetry assigments:
 Orbital symmetries:
       Occupied  (A) (A) (A) (A) (A) (A) (A) (A) (A) (A) (A) (A)
                 (A) (A) (A) (A) (A) (A) (A) (A) (A) (A) (A) (A)
                 (A) (A) (A) (A) (A) (A) (A) (A) (A) (A) (A) (A)
                 (A) (A) (A) (A) (A) (A) (A) (A) (A) (A) (A) (A)
                 (A) (A) (A) (A) (A) (A) (A) (A) (A) (A) (A) (A)
                 (A) (A) (A) (A) (A) (A) (A) (A) (A) (A) (A) (A)
                 (A) (A) (A) (A) (A) (A) (A) (A) (A) (A) (A) (A)
                 (A) (A) (A) (A) (A) (A) (A) (A) (A) (A) (A) (A)
                 (A) (A) (A) (A) (A) (A) (A) (A) (A) (A) (A) (A)
                 (A) (A) (A) (A) (A) (A) (A) (A) (A) (A) (A) (A)
                 (A) (A) (A) (A) (A) (A) (A) (A) (A) (A) (A) (A)
                 (A) (A) (A) (A) (A) (A) (A) (A) (A) (A) (A) (A)
                 (A) (A) (A) (A) (A) (A) (A) (A) (A) (A) (A) (A)
                 (A) (A) (A) (A) (A) (A) (A) (A) (A) (A) (A) (A)
                 (A) (A) (A) (A) (A) (A) (A) (A) (A) (A) (A) (A)
                 (A) (A) (A) (A) (A) (A) (A) (A) (A) (A) (A) (A)
                 (A) (A) (A) (A) (A) (A) (A) (A) (A) (A) (A) (A)
                 (A) (A) (A) (A) (A) (A) (A) (A) (A) (A) (A) (A)
                 (A) (A) (A) (A) (A) (A) (A) (A) (A) (A) (A) (A)
                 (A) (A) (A) (A) (A) (A) (A) (A) (A) (A) (A) (A)
                 (A) (A) (A) (A) (A) (A) (A) (A) (A) (A) (A) (A)
                 (A) (A) (A) (A) (A) (A) (A) (A) (A) (A) (A) (A)
                 (A) (A) (A) (A) (A) (A) (A) (A) (A) (A) (A) (A)
                 (A) (A) (A) (A) (A) (A) (A) (A) (A) (A) (A) (A)
                 (A) (A) (A) (A) (A) (A) (A) (A) (A) (A) (A) (A)
                 (A) (A) (A) (A) (A) (A) (A) (A) (A) (A) (A) (A)
       Virtual   (A) (A) (A) (A) (A) (A) (A) (A) (A) (A) (A) (A)
                 (A) (A) (A) (A) (A) (A) (A) (A) (A) (A) (A) (A)
                 (A) (A) (A) (A) (A) (A) (A) (A) (A) (A) (A) (A)
                 (A) (A) (A) (A) (A) (A) (A) (A) (A) (A) (A) (A)
                 (A) (A) (A) (A) (A) (A) (A) (A) (A) (A) (A) (A)
                 (A) (A) (A) (A) (A) (A) (A) (A) (A) (A) (A) (A)
                 (A) (A) (A) (A) (A) (A) (A) (A) (A) (A) (A) (A)
                 (A) (A) (A) (A) (A) (A) (A) (A) (A) (A) (A) (A)
                 (A) (A) (A) (A) (A) (A) (A) (A) (A) (A) (A) (A)
                 (A) (A) (A) (A) (A) (A) (A) (A) (A) (A) (A) (A)
                 (A) (A) (A) (A) (A) (A) (A) (A) (A) (A) (A) (A)
                 (A) (A) (A) (A) (A) (A) (A) (A) (A) (A) (A) (A)
                 (A) (A) (A) (A) (A) (A) (A) (A) (A) (A) (A) (A)
                 (A) (A) (A) (A) (A) (A) (A) (A) (A) (A) (A) (A)
                 (A) (A) (A) (A) (A) (A) (A) (A) (A) (A) (A) (A)
                 (A) (A) (A) (A) (A) (A) (A) (A) (A) (A) (A) (A)
                 (A) (A) (A) (A) (A) (A) (A) (A) (A) (A) (A) (A)
                 (A) (A) (A) (A) (A) (A) (A) (A) (A) (A) (A) (A)
                 (A) (A) (A) (A) (A) (A) (A) (A) (A) (A) (A) (A)
                 (A) (A) (A) (A) (A) (A) (A) (A) (A) (A) (A) (A)
                 (A) (A) (A) (A) (A) (A) (A) (A) (A) (A) (A) (A)
                 (A) (A) (A) (A) (A) (A) (A) (A) (A) (A) (A) (A)
                 (A) (A) (A) (A) (A) (A) (A) (A) (A) (A) (A) (A)
                 (A) (A) (A) (A) (A) (A) (A) (A) (A) (A) (A) (A)
                 (A) (A) (A) (A) (A) (A) (A) (A) (A) (A) (A) (A)
                 (A) (A) (A) (A) (A) (A) (A) (A) (A) (A) (A) (A)
                 (A) (A) (A) (A) (A) (A) (A) (A) (A) (A) (A) (A)
                 (A) (A) (A) (A) (A) (A) (A) (A) (A) (A) (A) (A)
                 (A) (A) (A) (A) (A) (A) (A) (A) (A) (A) (A) (A)
                 (A) (A) (A) (A) (A) (A) (A) (A) (A) (A) (A) (A)
                 (A) (A) (A) (A) (A) (A) (A) (A) (A) (A) (A) (A)
                 (A) (A) (A) (A) (A) (A) (A) (A) (A) (A) (A) (A)
                 (A) (A) (A) (A) (A) (A) (A) (A) (A) (A) (A) (A)
                 (A) (A) (A) (A) (A) (A) (A) (A) (A) (A) (A) (A)
                 (A) (A) (A) (A) (A) (A) (A) (A) (A) (A) (A) (A)
                 (A) (A) (A) (A) (A) (A) (A) (A) (A) (A) (A) (A)
                 (A) (A) (A) (A) (A) (A) (A) (A) (A) (A) (A) (A)
                 (A) (A) (A) (A) (A) (A) (A) (A) (A) (A) (A) (A)
                 (A) (A) (A) (A) (A) (A) (A) (A) (A) (A) (A) (A)
                 (A) (A) (A) (A) (A) (A) (A) (A) (A) (A) (A) (A)
                 (A) (A) (A) (A) (A) (A) (A) (A) (A) (A) (A) (A)
                 (A) (A) (A) (A) (A) (A) (A) (A) (A) (A) (A) (A)
                 (A) (A) (A) (A) (A) (A) (A) (A) (A) (A) (A) (A)
                 (A) (A) (A) (A) (A) (A) (A) (A) (A) (A) (A) (A)
                 (A) (A) (A) (A) (A) (A) (A) (A) (A) (A) (A) (A)
                 (A) (A) (A) (A) (A) (A) (A) (A) (A) (A) (A) (A)
                 (A) (A) (A) (A) (A) (A) (A) (A) (A) (A) (A) (A)
                 (A) (A) (A) (A) (A) (A) (A) (A) (A) (A) (A) (A)
                 (A) (A) (A) (A) (A) (A) (A) (A) (A) (A) (A) (A)
                 (A) (A) (A) (A) (A) (A) (A) (A) (A) (A) (A) (A)
                 (A) (A) (A) (A) (A) (A) (A) (A) (A) (A) (A) (A)
                 (A) (A) (A) (A) (A) (A) (A) (A) (A) (A) (A) (A)
                 (A) (A) (A) (A) (A) (A) (A) (A) (A) (A) (A) (A)
                 (A) (A) (A) (A) (A) (A) (A) (A) (A) (A) (A) (A)
                 (A) (A) (A) (A) (A) (A) (A) (A) (A) (A) (A) (A)
                 (A) (A) (A) (A) (A) (A) (A) (A) (A) (A) (A) (A)
                 (A) (A) (A) (A) (A) (A) (A) (A) (A) (A) (A) (A)
                 (A) (A) (A) (A) (A) (A) (A) (A) (A) (A) (A) (A)
                 (A) (A) (A) (A) (A) (A) (A) (A) (A) (A) (A) (A)
                 (A) (A) (A) (A) (A) (A) (A) (A) (A) (A) (A) (A)
                 (A) (A) (A) (A) (A) (A) (A) (A) (A) (A) (A) (A)
                 (A) (A) (A) (A) (A) (A) (A) (A) (A) (A) (A) (A)
                 (A) (A) (A) (A) (A) (A) (A) (A) (A) (A) (A) (A)
                 (A) (A) (A) (A) (A) (A) (A) (A) (A) (A) (A) (A)
                 (A) (A) (A) (A) (A) (A) (A) (A) (A) (A) (A) (A)
                 (A) (A) (A) (A) (A) (A) (A) (A) (A) (A) (A) (A)
                 (A) (A) (A) (A) (A) (A) (A) (A) (A) (A) (A) (A)
                 (A) (A) (A) (A) (A) (A) (A) (A) (A) (A) (A) (A)
                 (A) (A) (A) (A) (A) (A) (A) (A) (A) (A) (A) (A)
                 (A) (A) (A) (A) (A) (A) (A) (A) (A) (A) (A) (A)
                 (A) (A) (A) (A) (A) (A) (A) (A) (A) (A) (A) (A)
                 (A) (A) (A) (A) (A) (A) (A) (A) (A) (A) (A) (A)
                 (A) (A) (A) (A) (A) (A) (A) (A) (A) (A) (A) (A)
                 (A) (A) (A) (A) (A) (A) (A) (A) (A) (A) (A) (A)
                 (A) (A) (A) (A) (A) (A) (A) (A) (A) (A) (A) (A)
                 (A) (A) (A) (A) (A) (A) (A) (A) (A) (A) (A) (A)
                 (A) (A) (A) (A) (A) (A) (A) (A) (A) (A) (A) (A)
                 (A) (A) (A) (A) (A) (A) (A) (A) (A) (A) (A) (A)
                 (A) (A) (A) (A) (A) (A) (A) (A) (A) (A) (A) (A)
                 (A) (A) (A) (A) (A) (A) (A) (A) (A) (A) (A) (A)
                 (A) (A) (A) (A) (A) (A) (A) (A) (A) (A) (A) (A)
                 (A) (A) (A) (A) (A) (A) (A) (A) (A) (A) (A) (A)
                 (A) (A) (A) (A) (A) (A) (A) (A) (A) (A) (A) (A)
                 (A) (A) (A) (A) (A) (A) (A) (A) (A) (A) (A) (A)
                 (A) (A) (A) (A) (A) (A) (A) (A) (A) (A) (A) (A)
                 (A) (A) (A) (A) (A) (A) (A) (A) (A) (A) (A) (A)
                 (A) (A) (A) (A) (A) (A) (A) (A) (A) (A) (A) (A)
                 (A) (A) (A) (A) (A) (A) (A) (A) (A) (A) (A) (A)
                 (A) (A) (A) (A) (A) (A) (A) (A) (A) (A) (A) (A)
                 (A) (A) (A) (A) (A) (A) (A) (A) (A) (A) (A) (A)
                 (A) (A) (A) (A) (A) (A) (A) (A) (A) (A) (A) (A)
                 (A) (A) (A) (A) (A) (A) (A) (A) (A) (A) (A) (A)
                 (A) (A) (A) (A) (A) (A) (A) (A) (A) (A) (A) (A)
                 (A) (A) (A) (A) (A) (A) (A) (A) (A) (A) (A) (A)
                 (A) (A) (A) (A) (A) (A) (A) (A) (A) (A) (A) (A)
                 (A) (A) (A) (A) (A) (A) (A) (A) (A) (A) (A) (A)
                 (A) (A) (A) (A) (A) (A) (A) (A) (A) (A) (A) (A)
                 (A) (A) (A) (A) (A) (A) (A) (A) (A) (A) (A) (A)
                 (A) (A) (A) (A) (A) (A) (A) (A) (A) (A) (A) (A)
                 (A) (A) (A) (A) (A) (A) (A) (A) (A) (A) (A) (A)
                 (A) (A) (A) (A) (A) (A) (A) (A) (A) (A) (A) (A)
                 (A) (A) (A) (A) (A) (A) (A) (A) (A) (A) (A) (A)
                 (A) (A) (A) (A) (A) (A) (A) (A) (A) (A) (A) (A)
                 (A) (A) (A) (A) (A) (A) (A) (A) (A) (A) (A) (A)
                 (A) (A) (A) (A) (A) (A) (A) (A) (A) (A) (A) (A)
    20 initial guesses have been made.
 Convergence on wavefunction:    0.001000000000000
 Davidson Disk Diagonalization:  ConvIn= 1.00D-03 SkipCon=T Conv= 1.00D-03.
 Max sub-space:  2000 roots to seek:    20 dimension of matrix:       549360
 Iteration     1 Dimension    20 NMult     0 NNew     20
 CISAX will form    20 AO SS matrices at one time.
 NMat=    20 NSing=    20 JSym2X= 0.
 FoFJK:  IHMeth= 1 ICntrl=       0 DoSepK=T KAlg= 0 I1Cent=           0 FoldK=F
 IRaf=         1 NMat=      40 IRICut=       1 DoRegI=T DoRafI=F ISym2E= 0 IDoP0=3 IntGTp=3.
 FoFCou: FMM=T IPFlag=           0 FMFlag=      100000 FMFlg1=        2001
         NFxFlg=           0 DoJE=F BraDBF=F KetDBF=F FulRan=T
         wScrn=  0.000000 ICntrl=       500 IOpCl=  0 I1Cent=           0 NGrid=           0
         NMat0=   20 NMatS0=     20 NMatT0=    0 NMatD0=   20 NMtDS0=    0 NMtDT0=    0
 Symmetry not used in FoFCou.
 FMM levels:  10  Number of levels for PrismC:   9
 New state      1 was old state      7
 New state      2 was old state      6
 New state      3 was old state      1
 New state      4 was old state      2
 New state      5 was old state      3
 Excitation Energies [eV] at current iteration:
 Root      1 :     2.614058444791043
 Root      2 :     2.617862875940397
 Root      3 :     2.650517983916356
 Root      4 :     2.677385370075460
 Root      5 :     2.692851563267749
 Root      6 :     2.737796296057530
 Root      7 :     3.439988814803444
 Root      8 :     3.537980491675219
 Root      9 :     3.630928150001673
 Root     10 :     3.668363792363581
 Root     11 :     3.736868411603184
 Root     12 :     3.760006058601258
 Root     13 :     4.298587874042877
 Root     14 :     4.310580351656132
 Root     15 :     4.556056300815834
 Root     16 :     4.672396171319997
 Root     17 :     4.869674363577571
 Root     18 :     4.904997895841747
 Root     19 :     4.965432511839349
 Root     20 :     4.998052197058139
 Iteration     2 Dimension    30 NMult    20 NNew     10
 CISAX will form    10 AO SS matrices at one time.
 NMat=    10 NSing=    10 JSym2X= 0.
 New state      1 was old state      4
 Root      1 not converged, maximum delta is    0.179497753762006
 New state      2 was old state      5
 Root      2 not converged, maximum delta is    0.180782938896225
 New state      3 was old state      2
 Root      3 not converged, maximum delta is    0.377907871212083
 New state      4 was old state      1
 Root      4 not converged, maximum delta is    0.374454281696004
 New state      5 was old state      3
 Root      5 not converged, maximum delta is    0.001358191681811
 Excitation Energies [eV] at current iteration:
 Root      1 :     1.799538416326354   Change is   -0.877846953749106
 Root      2 :     1.807227193011890   Change is   -0.885624370255858
 Root      3 :     2.234900043658161   Change is   -0.382962832282236
 Root      4 :     2.239470133343176   Change is   -0.374588311447867
 Root      5 :     2.650338335170289   Change is   -0.000179648746066
 Iteration     3 Dimension    40 NMult    30 NNew     10
 CISAX will form    10 AO SS matrices at one time.
 NMat=    10 NSing=    10 JSym2X= 0.
 Root      1 not converged, maximum delta is    0.065097440550423
 Root      2 not converged, maximum delta is    0.066071890320159
 Root      3 not converged, maximum delta is    0.051170248172212
 Root      4 not converged, maximum delta is    0.050942935048117
 Root      5 has converged.
 Excitation Energies [eV] at current iteration:
 Root      1 :     1.692397859856829   Change is   -0.107140556469525
 Root      2 :     1.698973640396666   Change is   -0.108253552615224
 Root      3 :     2.193644461751684   Change is   -0.041255581906477
 Root      4 :     2.200030951676961   Change is   -0.039439181666214
 Root      5 :     2.650337458477868   Change is   -0.000000876692422
 Iteration     4 Dimension    48 NMult    40 NNew      8
 CISAX will form     8 AO SS matrices at one time.
 NMat=     8 NSing=     8 JSym2X= 0.
 Root      1 not converged, maximum delta is    0.012518203504349
 Root      2 not converged, maximum delta is    0.012700439402797
 Root      3 not converged, maximum delta is    0.009738897044403
 Root      4 not converged, maximum delta is    0.009116183290372
 Root      5 has converged.
 Excitation Energies [eV] at current iteration:
 Root      1 :     1.675671758800541   Change is   -0.016726101056288
 Root      2 :     1.682098765835649   Change is   -0.016874874561017
 Root      3 :     2.186371319290233   Change is   -0.007273142461452
 Root      4 :     2.193194147137901   Change is   -0.006836804539061
 Root      5 :     2.650337458476813   Change is   -0.000000000001055
 Iteration     5 Dimension    56 NMult    48 NNew      8
 CISAX will form     8 AO SS matrices at one time.
 NMat=     8 NSing=     8 JSym2X= 0.
 Root      1 not converged, maximum delta is    0.002078306379822
 Root      2 not converged, maximum delta is    0.002049688932424
 Root      3 not converged, maximum delta is    0.002499452487735
 Root      4 not converged, maximum delta is    0.002393368373436
 Root      5 has converged.
 Excitation Energies [eV] at current iteration:
 Root      1 :     1.673894232390667   Change is   -0.001777526409874
 Root      2 :     1.680326585850620   Change is   -0.001772179985029
 Root      3 :     2.185529079530618   Change is   -0.000842239759615
 Root      4 :     2.192406948322391   Change is   -0.000787198815509
 Root      5 :     2.650337458476596   Change is   -0.000000000000217
 Iteration     6 Dimension    64 NMult    56 NNew      8
 CISAX will form     8 AO SS matrices at one time.
 NMat=     8 NSing=     8 JSym2X= 0.
 Root      1 not converged, maximum delta is    0.001288435949653
 Root      2 not converged, maximum delta is    0.001300397554114
 Root      3 not converged, maximum delta is    0.001062534127711
 Root      4 not converged, maximum delta is    0.001019034664253
 Root      5 has converged.
 Excitation Energies [eV] at current iteration:
 Root      1 :     1.673640685785349   Change is   -0.000253546605318
 Root      2 :     1.680071847396226   Change is   -0.000254738454395
 Root      3 :     2.185401129997679   Change is   -0.000127949532939
 Root      4 :     2.192287466508978   Change is   -0.000119481813413
 Root      5 :     2.650337458476596   Change is    0.000000000000000
 Iteration     7 Dimension    72 NMult    64 NNew      8
 CISAX will form     8 AO SS matrices at one time.
 NMat=     8 NSing=     8 JSym2X= 0.
 Root      1 has converged.
 Root      2 has converged.
 Root      3 has converged.
 Root      4 has converged.
 Root      5 has converged.
 Excitation Energies [eV] at current iteration:
[...]
 Alpha virt. eigenvalues --    1.84425   1.84586   1.84791   1.84832   1.85075
 Alpha virt. eigenvalues --    1.85176   1.85254   1.85383   1.85439   1.85536
 Alpha virt. eigenvalues --    1.85847   1.85951   1.86335   1.86447   1.86525
 Alpha virt. eigenvalues --    1.86700   1.86760   1.86902   1.87016   1.87085
 Alpha virt. eigenvalues --    1.87429   1.87525   1.87663   1.87811   1.87846
 Alpha virt. eigenvalues --    1.88020   1.88083   1.88226   1.88519   1.88625
 Alpha virt. eigenvalues --    1.88817   1.88985   1.89100   1.89148   1.89599
 Alpha virt. eigenvalues --    1.89708   1.89720   1.89923   1.90100   1.90234
 Alpha virt. eigenvalues --    1.90736   1.90946   1.91334   1.91420   1.91515
 Alpha virt. eigenvalues --    1.91626   1.92138   1.92220   1.92628   1.92701
 Alpha virt. eigenvalues --    1.92961   1.93208   1.93309   1.93575   1.94256
 Alpha virt. eigenvalues --    1.94373   1.94662   1.94883   1.95441   1.95682
 Alpha virt. eigenvalues --    1.95717   1.95851   1.95986   1.96105   1.96124
 Alpha virt. eigenvalues --    1.96207   1.96536   1.96574   1.96882   1.96987
 Alpha virt. eigenvalues --    1.97428   1.97590   1.97815   1.97842   1.98160
 Alpha virt. eigenvalues --    1.98210   1.98375   1.98670   1.99123   1.99131
 Alpha virt. eigenvalues --    1.99817   1.99966   2.00638   2.00780   2.00983
 Alpha virt. eigenvalues --    2.01135   2.01478   2.01581   2.01632   2.01648
 Alpha virt. eigenvalues --    2.01705   2.01854   2.02756   2.02769   2.03213
 Alpha virt. eigenvalues --    2.03226   2.03389   2.03414   2.03477   2.03556
 Alpha virt. eigenvalues --    2.04019   2.04073   2.04936   2.05031   2.05489
 Alpha virt. eigenvalues --    2.05682   2.06053   2.06326   2.06895   2.07049
 Alpha virt. eigenvalues --    2.07168   2.07396   2.08547   2.08609   2.08965
 Alpha virt. eigenvalues --    2.09041   2.09579   2.09648   2.10740   2.11113
 Alpha virt. eigenvalues --    2.11164   2.11451   2.11538   2.11558   2.11711
 Alpha virt. eigenvalues --    2.11905   2.12454   2.12498   2.12783   2.12819
 Alpha virt. eigenvalues --    2.12857   2.12914   2.13656   2.13773   2.14105
 Alpha virt. eigenvalues --    2.14346   2.15314   2.15455   2.15915   2.16127
 Alpha virt. eigenvalues --    2.16495   2.16646   2.16740   2.17210   2.17394
 Alpha virt. eigenvalues --    2.17681   2.17729   2.17975   2.18040   2.18071
 Alpha virt. eigenvalues --    2.18311   2.18693   2.18862   2.19258   2.19628
 Alpha virt. eigenvalues --    2.19848   2.20029   2.20195   2.20280   2.20472
 Alpha virt. eigenvalues --    2.21112   2.21255   2.21644   2.21731   2.21798
 Alpha virt. eigenvalues --    2.21903   2.22661   2.22748   2.23288   2.23401
 Alpha virt. eigenvalues --    2.24367   2.24476   2.24917   2.25068   2.26287
 Alpha virt. eigenvalues --    2.26472   2.26754   2.27052   2.27090   2.27236
 Alpha virt. eigenvalues --    2.28124   2.28350   2.29247   2.29488   2.29722
 Alpha virt. eigenvalues --    2.29915   2.30447   2.30639   2.30832   2.31065
 Alpha virt. eigenvalues --    2.31175   2.31260   2.32089   2.32301   2.33120
 Alpha virt. eigenvalues --    2.33264   2.33441   2.33530   2.34114   2.34202
 Alpha virt. eigenvalues --    2.35315   2.35362   2.35787   2.35941   2.36314
 Alpha virt. eigenvalues --    2.36371   2.36518   2.36603   2.37627   2.37740
 Alpha virt. eigenvalues --    2.38221   2.38430   2.38801   2.38855   2.39591
 Alpha virt. eigenvalues --    2.39704   2.40152   2.40333   2.40477   2.40849
 Alpha virt. eigenvalues --    2.41235   2.41267   2.41655   2.41740   2.42030
 Alpha virt. eigenvalues --    2.42146   2.42893   2.42905   2.43044   2.43529
 Alpha virt. eigenvalues --    2.44012   2.44151   2.44713   2.44842   2.44886
 Alpha virt. eigenvalues --    2.45027   2.45524   2.45610   2.46268   2.46314
 Alpha virt. eigenvalues --    2.46459   2.46530   2.46782   2.46820   2.47228
 Alpha virt. eigenvalues --    2.47425   2.47688   2.47938   2.49275   2.49459
 Alpha virt. eigenvalues --    2.49948   2.50031   2.50495   2.50512   2.51109
 Alpha virt. eigenvalues --    2.51287   2.51643   2.51869   2.52406   2.52431
 Alpha virt. eigenvalues --    2.52796   2.53191   2.53891   2.54016   2.54107
 Alpha virt. eigenvalues --    2.54331   2.54760   2.54848   2.55486   2.55707
 Alpha virt. eigenvalues --    2.57836   2.58118   2.58617   2.58956   2.60194
 Alpha virt. eigenvalues --    2.60308   2.60604   2.60947   2.61683   2.61864
 Alpha virt. eigenvalues --    2.62461   2.62519   2.62935   2.63160   2.63921
 Alpha virt. eigenvalues --    2.64204   2.64242   2.64506   2.65056   2.65142
 Alpha virt. eigenvalues --    2.65778   2.65876   2.66743   2.66864   2.66889
 Alpha virt. eigenvalues --    2.67092   2.67880   2.68021   2.68831   2.68847
 Alpha virt. eigenvalues --    2.69008   2.69035   2.69359   2.69622   2.69974
 Alpha virt. eigenvalues --    2.70174   2.70957   2.71084   2.71905   2.72029
 Alpha virt. eigenvalues --    2.72492   2.72636   2.72738   2.72819   2.73235
 Alpha virt. eigenvalues --    2.73340   2.73450   2.73519   2.74486   2.74530
 Alpha virt. eigenvalues --    2.74953   2.75073   2.76555   2.76560   2.77080
 Alpha virt. eigenvalues --    2.77212   2.77426   2.77623   2.78144   2.78317
 Alpha virt. eigenvalues --    2.78708   2.78723   2.79108   2.79166   2.80279
 Alpha virt. eigenvalues --    2.80310   2.80574   2.80685   2.81092   2.81163
 Alpha virt. eigenvalues --    2.81915   2.81988   2.82312   2.82365   2.83725
 Alpha virt. eigenvalues --    2.83742   2.83866   2.83899   2.84516   2.84555
 Alpha virt. eigenvalues --    2.84847   2.84931   2.85629   2.85712   2.86668
 Alpha virt. eigenvalues --    2.86966   2.87156   2.87596   2.88116   2.88251
 Alpha virt. eigenvalues --    2.88486   2.88638   2.88891   2.88905   2.90482
 Alpha virt. eigenvalues --    2.90675   2.91111   2.91152   2.93140   2.93334
 Alpha virt. eigenvalues --    2.93793   2.94174   2.94514   2.94610   2.95365
 Alpha virt. eigenvalues --    2.95471   2.95801   2.96189   2.96391   2.96409
 Alpha virt. eigenvalues --    2.96852   2.97166   2.97809   2.98057   2.98182
 Alpha virt. eigenvalues --    2.98340   2.98343   2.98584   2.98586   2.98785
 Alpha virt. eigenvalues --    2.98851   2.98944   2.99544   2.99825   2.99998
 Alpha virt. eigenvalues --    3.00014   3.00204   3.00353   3.00447   3.01002
 Alpha virt. eigenvalues --    3.01939   3.01951   3.02006   3.02113   3.02719
 Alpha virt. eigenvalues --    3.02805   3.02970   3.03295   3.03327   3.03714
 Alpha virt. eigenvalues --    3.04070   3.04133   3.04429   3.04453   3.04517
 Alpha virt. eigenvalues --    3.04737   3.05260   3.05390   3.06089   3.06215
 Alpha virt. eigenvalues --    3.06799   3.06966   3.07951   3.08109   3.09385
 Alpha virt. eigenvalues --    3.09408   3.09681   3.10415   3.10429   3.10747
 Alpha virt. eigenvalues --    3.11287   3.11555   3.11939   3.11952   3.12125
 Alpha virt. eigenvalues --    3.12304   3.13271   3.13600   3.13646   3.13720
 Alpha virt. eigenvalues --    3.14084   3.14438   3.15872   3.16034   3.17239
 Alpha virt. eigenvalues --    3.17526   3.17898   3.18031   3.19048   3.19091
 Alpha virt. eigenvalues --    3.22294   3.22570   3.23924   3.24440   3.24656
 Alpha virt. eigenvalues --    3.25182   3.26481   3.26669   3.27406   3.27598
 Alpha virt. eigenvalues --    3.29090   3.29187   3.31387   3.31501   3.33202
 Alpha virt. eigenvalues --    3.33393   3.40212   3.40625   3.42778   3.42830
 Alpha virt. eigenvalues --    3.48638   3.48697   3.50001   3.50299   3.50849
 Alpha virt. eigenvalues --    3.51449   3.56521   3.57021   3.59070   3.59370
 Alpha virt. eigenvalues --    3.62521   3.62814   3.66128   3.66136   3.67177
 Alpha virt. eigenvalues --    3.67502   3.73260   3.73988   3.76043   3.76651
          Condensed to atoms (all electrons):
 Mulliken charges:
               1
     1  Mg   0.838589
     2  C   -0.002931
     3  C   -0.093823
     4  C   -0.046143
     5  C   -0.063996
     6  N   -0.256799
     7  C   -0.052336
     8  C   -0.014030
     9  C   -0.087036
    10  C    0.046315
    11  C    0.104764
    12  C    0.053376
    13  C   -0.072052
    14  H    0.036576
    15  N   -0.433119
    16  C    0.168302
    17  C   -0.177055
    18  C   -0.004235
    19  C    0.148629
    20  C    0.110104
    21  C    0.011899
    22  O   -0.250124
    23  C    0.062608
    24  N   -0.341110
    25  C    0.041261
    26  C   -0.028101
    27  C   -0.023976
    28  C    0.074785
    29  C    0.076176
    30  C    0.035187
    31  C   -0.004478
    32  N   -0.310479
    33  C    0.080421
    34  C   -0.169657
    35  C    0.008410
    36  C    0.082986
    37  C    0.127310
    38  C    0.046126
    39  O   -0.188298
    40  C   -0.005323
    41  C    0.212947
    42  O   -0.257243
    43  O   -0.304727
    44  C    0.157711
    45  H   -0.017370
    46  H   -0.017155
    47  H   -0.041450
    48  H    0.001051
    49  H   -0.003710
    50  H    0.025495
    51  H    0.016366
    52  H    0.016889
    53  H    0.011392
    54  H    0.044018
    55  H    0.017868
    56  H    0.018322
    57  H    0.006228
    58  H    0.026846
    59  H    0.039581
    60  H    0.037710
    61  H    0.035102
    62  H    0.031310
    63  H    0.016037
    64  H    0.009596
    65  H    0.022970
    66  H    0.012701
    67  H    0.004874
    68  H    0.006141
    69  H    0.005006
    70  H    0.008052
    71  H    0.018176
    72  H    0.029135
    73  H    0.047654
    74  H    0.009147
    75  H    0.046123
    76  H    0.035312
    77  H    0.043011
    78  H    0.046668
    79  H    0.053493
    80  Mg   0.838079
    81  C   -0.017025
    82  C   -0.087924
    83  C   -0.045331
    84  C   -0.064151
    85  N   -0.254580
    86  C   -0.049866
    87  C   -0.015095
    88  C   -0.090484
    89  C    0.045786
    90  C    0.114341
    91  C    0.062566
    92  C   -0.077715
    93  H    0.034512
    94  N   -0.423530
    95  C    0.163035
    96  C   -0.174607
    97  C   -0.007757
    98  C    0.152241
    99  C    0.099370
   100  C    0.015533
   101  O   -0.252998
   102  C    0.061228
   103  N   -0.349988
   104  C    0.037928
   105  C   -0.020162
   106  C   -0.034858
   107  C    0.088920
   108  C    0.073114
   109  C    0.034672
   110  C   -0.007632
   111  N   -0.324065
   112  C    0.078401
   113  C   -0.163037
   114  C    0.001988
   115  C    0.096279
   116  C    0.131531
   117  C    0.042173
   118  O   -0.188623
   119  C    0.000977
   120  C    0.211172
   121  O   -0.250996
   122  O   -0.305795
   123  C    0.152114
   124  H   -0.019619
   125  H   -0.015306
   126  H   -0.040227
   127  H   -0.001152
   128  H   -0.004464
   129  H    0.021964
   130  H    0.015036
   131  H    0.016370
   132  H    0.013968
   133  H    0.037561
   134  H    0.020510
   135  H    0.019634
   136  H    0.008752
   137  H    0.026126
   138  H    0.039583
   139  H    0.038171
   140  H    0.036286
   141  H    0.033748
   142  H    0.014146
   143  H    0.013614
   144  H    0.025116
   145  H    0.012231
   146  H    0.007556
   147  H    0.006567
   148  H    0.003580
   149  H    0.010877
   150  H    0.017614
   151  H    0.029818
   152  H    0.045548
   153  H    0.008692
   154  H    0.046992
   155  H    0.034489
   156  H    0.043460
   157  H    0.049465
   158  H    0.053553
 Sum of Mulliken charges =  -0.00000
 Mulliken charges with hydrogens summed into heavy atoms:
               1
     1  Mg   0.838589
     2  C   -0.002931
     3  C   -0.111193
     4  C   -0.063299
     5  C   -0.105446
     6  N   -0.256799
     7  C   -0.052336
     8  C   -0.012980
     9  C   -0.090746
    10  C    0.046315
    11  C    0.163513
    12  C    0.108786
    13  C    0.000714
    15  N   -0.433119
    16  C    0.168302
    17  C   -0.177055
    18  C   -0.004235
    19  C    0.148629
    20  C    0.182759
    21  C    0.011899
    22  O   -0.250124
    23  C    0.166729
    24  N   -0.341110
    25  C    0.041261
    26  C   -0.012064
    27  C   -0.014380
    28  C    0.074785
    29  C    0.116722
    30  C    0.046334
    31  C    0.050885
    32  N   -0.310479
    33  C    0.080421
    34  C   -0.169657
    35  C    0.008410
    36  C    0.082986
    37  C    0.230235
    38  C    0.046126
    39  O   -0.188298
    40  C    0.029989
    41  C    0.212947
    42  O   -0.257243
    43  O   -0.304727
    44  C    0.300884
    80  Mg   0.838079
    81  C   -0.017025
    82  C   -0.107543
    83  C   -0.060637
    84  C   -0.104377
    85  N   -0.254580
    86  C   -0.049866
    87  C   -0.016247
    88  C   -0.094948
    89  C    0.045786
    90  C    0.167711
    91  C    0.114096
    92  C   -0.003059
    94  N   -0.423530
    95  C    0.163035
    96  C   -0.174607
    97  C   -0.007757
    98  C    0.152241
    99  C    0.173831
   100  C    0.015533
   101  O   -0.252998
   102  C    0.169433
   103  N   -0.349988
   104  C    0.037928
   105  C   -0.006016
   106  C   -0.021244
   107  C    0.088920
   108  C    0.118016
   109  C    0.044818
   110  C    0.050678
   111  N   -0.324065
   112  C    0.078401
   113  C   -0.163037
   114  C    0.001988
   115  C    0.096279
   116  C    0.232763
   117  C    0.042173
   118  O   -0.188623
   119  C    0.035466
   120  C    0.211172
   121  O   -0.250996
   122  O   -0.305795
   123  C    0.298593
 Electronic spatial extent (au):  <R**2>=         150592.1612
 Charge=             -0.0000 electrons
 Dipole moment (field-independent basis, Debye):
    X=              3.4859    Y=              5.2639    Z=              1.4060  Tot=              6.4682
 Quadrupole moment (field-independent basis, Debye-Ang):
   XX=           -519.9998   YY=           -509.6430   ZZ=           -488.9323
   XY=             11.6530   XZ=            -45.4984   YZ=              8.8476
 Traceless Quadrupole moment (field-independent basis, Debye-Ang):
   XX=            -13.8081   YY=             -3.4513   ZZ=             17.2594
   XY=             11.6530   XZ=            -45.4984   YZ=              8.8476
 Octapole moment (field-independent basis, Debye-Ang**2):
  XXX=            469.0555  YYY=            225.0344  ZZZ=            147.2742  XYY=           -340.4754
  XXY=            274.4555  XXZ=            133.6230  XZZ=            335.7527  YZZ=            -61.1342
  YYZ=           -290.5220  XYZ=           -302.2139
 Hexadecapole moment (field-independent basis, Debye-Ang**3):
 XXXX=        -141015.6252 YYYY=         -34870.7009 ZZZZ=         -31082.9503 XXXY=            191.7044
 XXXZ=          -2653.4187 YYYX=           -106.2265 YYYZ=           -580.2457 ZZZX=          -1567.0590
 ZZZY=           1013.5879 XXYY=         -28801.3368 XXZZ=         -27389.2798 YYZZ=         -11142.7882
 XXYZ=             88.6012 YYXZ=            429.7790 ZZXY=           -937.6417
 N-N= 1.423874926515D+04 E-N=-3.795844224501D+04  KE= 4.028801891452D+03
 Leave Link  601 at Sat Sep  4 09:22:01 2021, MaxMem= 23488102400 cpu:              15.8 elap:               0.8
 (Enter /sw/apps/gaussian-16.0/g16/l9999.exe)
 1\1\GINC-BP1-COMPUTE00083\SP\RCAM-B3LYP TD-FC\def2SVP\C68H72Mg2N8O8\OF
 15641\04-Sep-2021\0\\#p cam-b3lyp/Def2SVP td=(nstates=5)\\TDDFT excite
 d states in gaussian\\0,1\Mg,0,0.,0.,0.\C,0,-0.217,-2.218,2.801\C,0,-1
 .255,2.442,2.026\C,0,-0.245,1.85,-2.564\C,0,0.146,-2.824,-2.037\N,0,-0
 .617,-0.009,2.126\C,0,-0.594,-0.908,3.105\C,0,-0.936,-0.309,4.502\C,0,
 -1.773,0.964,4.032\C,0,-1.155,1.168,2.66\C,0,-3.263,0.685,3.863\C,0,0.
 345,0.11,5.299\C,0,0.124,0.397,6.787\H,0,1.168,0.033,7.733\N,0,-0.185,
 1.961,-0.152\C,0,-0.703,2.8,0.777\C,0,-0.62,4.156,0.193\C,0,-0.187,4.0
 15,-1.225\C,0,-0.214,2.583,-1.38\C,0,-0.887,5.406,0.974\C,0,0.181,5.01
 3,-2.277\O,0,0.303,4.69,-3.508\C,0,0.31,6.414,-1.837\N,0,-0.265,-0.413
 ,-2.029\C,0,-0.279,0.569,-2.937\C,0,-0.196,0.024,-4.332\C,0,0.124,-1.5
 33,-4.18\C,0,0.086,-1.632,-2.635\C,0,-1.451,0.205,-5.197\C,0,1.373,-2.
 07,-4.923\C,0,2.626,-1.49,-4.306\N,0,0.15,-2.144,0.303\C,0,0.173,-3.13
 6,-0.688\C,0,0.173,-4.438,0.004\C,0,0.133,-4.111,1.358\C,0,0.083,-2.69
 5,1.502\C,0,0.149,-5.715,-0.623\C,0,0.096,-4.629,2.716\O,0,0.208,-5.74
 7,3.221\C,0,-0.255,-3.428,3.701\C,0,0.717,-3.482,4.848\O,0,1.931,-3.25
 5,4.669\O,0,0.038,-3.556,6.003\C,0,0.943,-3.583,7.183\H,0,-1.859,3.22,
 2.497\H,0,-0.218,2.453,-3.474\H,0,0.276,-3.747,-2.605\H,0,-1.554,-0.94
 9,5.132\H,0,-1.585,1.831,4.665\H,0,-3.484,-0.377,3.969\H,0,-3.511,1.02
 7,2.858\H,0,-3.852,1.301,4.543\H,0,0.669,1.096,4.966\H,0,1.13,-0.639,5
 .189\H,0,-0.844,0.026,7.125\H,0,0.062,1.477,6.921\H,0,-1.344,5.186,1.9
 38\H,0,-1.651,5.963,0.432\H,0,0.007,6.02,1.084\H,0,-0.635,6.744,-1.405
 \H,0,0.665,6.97,-2.704\H,0,1.048,6.466,-1.036\H,0,0.608,0.501,-4.891\H
 ,0,-0.692,-2.156,-4.547\H,0,-1.267,0.74,-6.129\H,0,-2.204,0.714,-4.596
 \H,0,-1.967,-0.72,-5.453\H,0,1.356,-1.759,-5.967\H,0,1.452,-3.157,-4.9
 02\H,0,2.714,-0.522,-4.798\H,0,3.487,-2.121,-4.529\H,0,2.495,-1.303,-3
 .24\H,0,0.867,-6.333,-0.084\H,0,0.404,-5.642,-1.68\H,0,-0.891,-5.999,-
 0.463\H,0,-1.283,-3.581,4.028\H,0,0.698,-4.478,7.755\H,0,0.833,-2.619,
 7.68\H,0,2.,-3.754,6.976\Mg,0,13.1457,1.18889,0.99307\C,0,12.53432,4.3
 6868,2.5404\C,0,12.3568,2.65404,-1.98444\C,0,13.23691,-1.69127,-0.3350
 1\C,0,12.76786,-0.25915,4.14047\N,0,12.54046,3.25191,0.47355\C,0,12.40
 161,4.39023,1.13634\C,0,12.18307,5.63597,0.23638\C,0,11.58288,4.8963,-
 1.0565\C,0,12.2238,3.52236,-0.87159\C,0,10.07319,4.72955,-1.00777\C,0,
 13.52614,6.37566,-0.09683\C,0,13.35867,7.76757,-0.71025\H,0,14.32811,8
 .80276,-0.36233\N,0,13.32191,0.65764,-0.91095\C,0,12.97351,1.38365,-1.
 99391\C,0,13.28354,0.54148,-3.15959\C,0,13.68961,-0.80438,-2.67123\C,0
 ,13.40568,-0.66824,-1.25668\C,0,13.25751,1.06004,-4.56807\C,0,14.2304,
 -2.01796,-3.36474\O,0,14.28947,-3.15717,-2.7803\C,0,14.60175,-1.85458,
 -4.77785\N,0,12.81225,-0.72105,1.74361\C,0,12.96932,-1.80661,0.96592\C
 ,0,12.94616,-3.07379,1.78696\C,0,12.9831,-2.59756,3.3132\C,0,12.92879,
 -1.06848,3.10256\C,0,11.7397,-3.9864,1.56792\C,0,14.11275,-3.18112,4.2
 0538\C,0,15.45508,-2.65962,3.74541\N,0,12.91174,1.90665,3.01746\C,0,12
 .74445,1.12898,4.18421\C,0,12.51052,2.06598,5.30213\C,0,12.53525,3.332
 77,4.69953\C,0,12.74803,3.19393,3.30134\C,0,12.2642,1.70108,6.65575\C,
 0,12.41915,4.75532,4.92666\O,0,12.32131,5.47083,5.92275\C,0,12.28725,5
 .48262,3.51953\C,0,13.23735,6.64869,3.50851\O,0,14.46625,6.46313,3.552
 81\O,0,12.55229,7.77262,3.22949\C,0,13.45342,8.95529,3.19649\H,0,11.90
 994,2.95386,-2.93276\H,0,13.36965,-2.70333,-0.72436\H,0,12.73855,-0.62
 683,5.16839\H,0,11.46763,6.35352,0.61983\H,0,11.9332,5.35996,-1.975\H,
 0,9.66507,5.0314,-0.05464\H,0,9.88759,3.67791,-1.18285\H,0,9.6081,5.26
 082,-1.8431\H,0,14.02095,5.86117,-0.93063\H,0,14.15318,6.43644,0.77136
 \H,0,12.3354,8.14647,-0.5994\H,0,13.50008,7.68981,-1.79098\H,0,12.7631
 3,2.0375,-4.62778\H,0,12.6077,0.39143,-5.14302\H,0,14.24702,1.07452,-5
 .02995\H,0,13.73396,-1.52346,-5.34333\H,0,15.04995,-2.805,-5.07399\H,0
 ,15.34945,-1.05715,-4.85315\H,0,13.8209,-3.68031,1.58681\H,0,12.06289,
 -2.87389,3.84864\H,0,12.01843,-5.01263,1.26256\H,0,11.09693,-3.53046,0
 .82664\H,0,11.07312,-4.08393,2.42312\H,0,14.15121,-4.26857,4.10474\H,0
 ,13.98816,-2.95952,5.26007\H,0,15.71057,-3.33029,2.91957\H,0,16.18697,
 -2.72514,4.54796\H,0,15.36392,-1.64823,3.33256\H,0,12.8534,2.36864,7.2
 7032\H,0,12.52055,0.65983,6.83978\H,0,11.18619,1.87444,6.71141\H,0,11.
 24926,5.79924,3.41043\H,0,13.04821,9.68554,3.90375\H,0,13.50826,9.2595
 4,2.13433\H,0,14.46038,8.8289,3.57664\\Version=ES64L-G16RevA.03\State=
 1-A\HF=-4069.8119103\RMSD=6.544e-09\PG=C01 [X(C68H72Mg2N8O8)]\\@


 THE DIFFICULTY IN SCIENCE IS OFTEN NOT SO MUCH HOW
 TO MAKE A DISCOVERY BUT RATHER TO KNOW ONE HAS MADE IT.

                                                   -- J. D. BERNAL
 Job cpu time:       0 days 11 hours 54 minutes 29.8 seconds.
 Elapsed time:       0 days  0 hours 30 minutes 22.1 seconds.
 File lengths (MBytes):  RWF=  13225 Int=      0 D2E=      0 Chk=    574 Scr=      1
 Normal termination of Gaussian 16 at Sat Sep  4 09:22:02 2021.
