 Entering Gaussian System, Link 0=g16
 Initial command:
 /sw/apps/gaussian-16.0/g16/l1.exe "/tmp/Gau-208570.inp" -scrdir="/tmp/"
 Entering Link 1 = /sw/apps/gaussian-16.0/g16/l1.exe PID=    208571.
  
 Copyright (c) 1988,1990,1992,1993,1995,1998,2003,2009,2016,
            Gaussian, Inc.  All Rights Reserved.
  
 This is part of the Gaussian(R) 16 program.  It is based on
 the Gaussian(R) 09 system (copyright 2009, Gaussian, Inc.),
 the Gaussian(R) 03 system (copyright 2003, Gaussian, Inc.),
 the Gaussian(R) 98 system (copyright 1998, Gaussian, Inc.),
 the Gaussian(R) 94 system (copyright 1995, Gaussian, Inc.),
 the Gaussian 92(TM) system (copyright 1992, Gaussian, Inc.),
 the Gaussian 90(TM) system (copyright 1990, Gaussian, Inc.),
 the Gaussian 88(TM) system (copyright 1988, Gaussian, Inc.),
 the Gaussian 86(TM) system (copyright 1986, Carnegie Mellon
 University), and the Gaussian 82(TM) system (copyright 1983,
 Carnegie Mellon University). Gaussian is a federally registered
 trademark of Gaussian, Inc.
  
 This software contains proprietary and confidential information,
 including trade secrets, belonging to Gaussian, Inc.
  
 This software is provided under written license and may be
 used, copied, transmitted, or stored only in accord with that
 written license.
  
 The following legend is applicable only to US Government
 contracts under FAR:
  
                    RESTRICTED RIGHTS LEGEND
  
 Use, reproduction and disclosure by the US Government is
 subject to restrictions as set forth in subparagraphs (a)
 and (c) of the Commercial Computer Software - Restricted
 Rights clause in FAR 52.227-19.
  
 Gaussian, Inc.
 340 Quinnipiac St., Bldg. 40, Wallingford CT 06492
  
  
 ---------------------------------------------------------------
 Warning -- This program may not be used in any manner that
 competes with the business of Gaussian, Inc. or will provide
 assistance to any competitor of Gaussian, Inc.  The licensee
 of this program is prohibited from giving any competitor of
 Gaussian, Inc. access to this program.  By using this program,
 the user acknowledges that Gaussian, Inc. is engaged in the
 business of creating and licensing software in the field of
 computational chemistry and represents and warrants to the
 licensee that it is not a competitor of Gaussian, Inc. and that
 it will not use this program in any manner prohibited above.
 ---------------------------------------------------------------
  

 Cite this work as:
 Gaussian 16, Revision A.03,
 M. J. Frisch, G. W. Trucks, H. B. Schlegel, G. E. Scuseria, 
 M. A. Robb, J. R. Cheeseman, G. Scalmani, V. Barone, 
 G. A. Petersson, H. Nakatsuji, X. Li, M. Caricato, A. V. Marenich, 
 J. Bloino, B. G. Janesko, R. Gomperts, B. Mennucci, H. P. Hratchian, 
 J. V. Ortiz, A. F. Izmaylov, J. L. Sonnenberg, D. Williams-Young, 
 F. Ding, F. Lipparini, F. Egidi, J. Goings, B. Peng, A. Petrone, 
 T. Henderson, D. Ranasinghe, V. G. Zakrzewski, J. Gao, N. Rega, 
 G. Zheng, W. Liang, M. Hada, M. Ehara, K. Toyota, R. Fukuda, 
 J. Hasegawa, M. Ishida, T. Nakajima, Y. Honda, O. Kitao, H. Nakai, 
 T. Vreven, K. Throssell, J. A. Montgomery, Jr., J. E. Peralta, 
 F. Ogliaro, M. J. Bearpark, J. J. Heyd, E. N. Brothers, K. N. Kudin, 
 V. N. Staroverov, T. A. Keith, R. Kobayashi, J. Normand, 
 K. Raghavachari, A. P. Rendell, J. C. Burant, S. S. Iyengar, 
 J. Tomasi, M. Cossi, J. M. Millam, M. Klene, C. Adamo, R. Cammi, 
 J. W. Ochterski, R. L. Martin, K. Morokuma, O. Farkas, 
 J. B. Foresman, and D. J. Fox, Gaussian, Inc., Wallingford CT, 2016.
 
 ******************************************
 Gaussian 16:  ES64L-G16RevA.03 25-Dec-2016
                11-Sep-2021 
 ******************************************
 %nproc=24
 Will use up to   24 processors via shared memory.
 %mem=175gb
 -----------------------------------
 #p cam-b3lyp/Def2SVP td=(nstates=5)
 -----------------------------------
 1/38=1,172=1/1;
 2/12=2,17=6,18=5,40=1/2;
 3/5=43,7=101,11=9,25=1,30=1,74=-40/1,2,3,8;
 4//1;
 5/5=2,38=5/2;
 8/6=1,10=1,108=5/1;
 9/41=5,42=1,70=2/14;
 6/7=2,8=2,9=2,10=2/1;
 99/5=1,9=1/99;
 Leave Link    1 at Sat Sep 11 13:32:47 2021, MaxMem= 23488102400 cpu:               0.8 elap:               0.0
 (Enter /sw/apps/gaussian-16.0/g16/l101.exe)
 --------------------------------
 TDDFT excited states in gaussian
 --------------------------------
 Symbolic Z-matrix:
 Charge =  0 Multiplicity = 1
 Mg                    0.        0.        0. 
 C                    -0.217    -2.218     2.801 
 C                    -1.255     2.442     2.026 
 C                    -0.245     1.85     -2.564 
 C                     0.146    -2.824    -2.037 
 N                    -0.617    -0.009     2.126 
 C                    -0.594    -0.908     3.105 
 C                    -0.936    -0.309     4.502 
 C                    -1.773     0.964     4.032 
 C                    -1.155     1.168     2.66 
 C                    -3.263     0.685     3.863 
 C                     0.345     0.11      5.299 
 C                     0.124     0.397     6.787 
 H                     1.168     0.033     7.733 
 N                    -0.185     1.961    -0.152 
 C                    -0.703     2.8       0.777 
 C                    -0.62      4.156     0.193 
 C                    -0.187     4.015    -1.225 
 C                    -0.214     2.583    -1.38 
 C                    -0.887     5.406     0.974 
 C                     0.181     5.013    -2.277 
 O                     0.303     4.69     -3.508 
 C                     0.31      6.414    -1.837 
 N                    -0.265    -0.413    -2.029 
 C                    -0.279     0.569    -2.937 
 C                    -0.196     0.024    -4.332 
 C                     0.124    -1.533    -4.18 
 C                     0.086    -1.632    -2.635 
 C                    -1.451     0.205    -5.197 
 C                     1.373    -2.07     -4.923 
 C                     2.626    -1.49     -4.306 
 N                     0.15     -2.144     0.303 
 C                     0.173    -3.136    -0.688 
 C                     0.173    -4.438     0.004 
 C                     0.133    -4.111     1.358 
 C                     0.083    -2.695     1.502 
 C                     0.149    -5.715    -0.623 
 C                     0.096    -4.629     2.716 
 O                     0.208    -5.747     3.221 
 C                    -0.255    -3.428     3.701 
 C                     0.717    -3.482     4.848 
 O                     1.931    -3.255     4.669 
 O                     0.038    -3.556     6.003 
 C                     0.943    -3.583     7.183 
 H                    -1.859     3.22      2.497 
 H                    -0.218     2.453    -3.474 
 H                     0.276    -3.747    -2.605 
 H                    -1.554    -0.949     5.132 
 H                    -1.585     1.831     4.665 
 H                    -3.484    -0.377     3.969 
 H                    -3.511     1.027     2.858 
 H                    -3.852     1.301     4.543 
 H                     0.669     1.096     4.966 
 H                     1.13     -0.639     5.189 
 H                    -0.844     0.026     7.125 
 H                     0.062     1.477     6.921 
 H                    -1.344     5.186     1.938 
 H                    -1.651     5.963     0.432 
 H                     0.007     6.02      1.084 
 H                    -0.635     6.744    -1.405 
 H                     0.665     6.97     -2.704 
 H                     1.048     6.466    -1.036 
 H                     0.608     0.501    -4.891 
 H                    -0.692    -2.156    -4.547 
 H                    -1.267     0.74     -6.129 
 H                    -2.204     0.714    -4.596 
 H                    -1.967    -0.72     -5.453 
 H                     1.356    -1.759    -5.967 
 H                     1.452    -3.157    -4.902 
 H                     2.714    -0.522    -4.798 
 H                     3.487    -2.121    -4.529 
 H                     2.495    -1.303    -3.24 
 H                     0.867    -6.333    -0.084 
 H                     0.404    -5.642    -1.68 
 H                    -0.891    -5.999    -0.463 
 H                    -1.283    -3.581     4.028 
 H                     0.698    -4.478     7.755 
 H                     0.833    -2.619     7.68 
 H                     2.       -3.754     6.976 
 Mg                    13.14607   1.18387   1.00547 
 C                     11.72213  -0.7352    3.6829 
 C                     13.10549   3.86932   3.10816 
 C                     13.97589   3.00096  -1.45969 
 C                     12.02902  -1.2922   -1.17788 
 N                     12.47707   1.4121    3.10132 
 C                     12.01078   0.59916   4.0373 
 C                     11.92007   1.23191   5.45186 
 C                     11.82516   2.77549   5.01919 
 C                     12.54382   2.69686   3.67382 
 C                     10.40097   3.24508   4.7732 
 C                     13.20149   0.95474   6.31392 
 C                     13.05635   1.27519   7.80322 
 H                     13.74579   0.42381   8.76877 
 N                     13.94277   3.00095   0.96006 
 C                     13.84639   3.95566   1.90902 
 C                     14.58826   5.11515   1.39001 
 C                     14.99096   4.82466  -0.01291 
 C                     14.28546   3.57882  -0.23708 
 C                     14.91903   6.31291   2.23225 
 C                     15.8562   5.55469  -0.99506 
 O                     15.87665   5.24107  -2.23765 
 C                     16.60776   6.70709  -0.47678 
 N                     12.83882   1.007    -1.04311 
 C                     13.3501   1.90895  -1.89926 
 C                     13.23791   1.43037  -3.32712 
 C                     12.76194  -0.09352  -3.23332 
 C                     12.58775  -0.2105   -1.70317 
 C                     12.27083   2.2115   -4.21649 
 C                     13.6377  -1.15038  -3.96048 
 C                     14.9825  -1.2633   -3.27921 
 N                     12.23632  -0.76618   1.19971 
 C                     11.82563  -1.62364   0.1556 
 C                     11.15853  -2.78354   0.78173 
 C                     11.20738  -2.50714   2.1564 
 C                     11.84095  -1.25326   2.37056 
 C                     10.56747  -3.8773    0.08858 
 C                     10.85756  -2.98599   3.47437 
 O                     10.38239  -4.02889   3.9219 
 C                     11.06236  -1.80078   4.51347 
 C                     11.82421  -2.34261   5.69183 
 O                     12.99753  -2.73334   5.56037 
 O                     11.122   -2.1093    6.81559 
 C                     11.842   -2.61886   8.01299 
 H                     12.92752   4.82252   3.60678 
 H                     14.3399   3.53611  -2.3398 
 H                     11.74057  -2.15333  -1.78444 
 H                     11.04159   0.95031   6.01997 
 H                     12.37354   3.41313   5.70771 
 H                     9.69478   2.4292    4.81535 
 H                     10.40461   3.69177   3.78756 
 H                     10.14413   4.04993   5.46789 
 H                     13.98011   1.67863   6.04099 
 H                     13.53021  -0.05911   6.1928 
 H                     12.00829   1.41582   8.09435 
 H                     13.52064   2.24533   7.99629 
 H                     14.35004   6.31467   3.17015 
 H                     14.55532   7.19381   1.69225 
 H                     15.99167   6.42265   2.40567 
 H                     15.91362   7.43341  -0.06074 
 H                     17.23541   7.04285  -1.30454 
 H                     17.24168   6.36808   0.35017 
 H                     14.19937   1.46826  -3.82435 
 H                     11.76484  -0.23688  -3.67498 
 H                     12.74988   2.62582  -5.12364 
 H                     11.82689   3.00201  -3.62611 
 H                     11.39733   1.65391  -4.55009 
 H                     13.83579  -0.8358   -4.98808 
 H                     13.17963  -2.13272  -4.00705 
 H                     15.55101  -0.43729  -3.71692 
 H                     15.44534  -2.22261  -3.50179 
 H                     14.89618  -1.07051  -2.20355 
 H                     10.86214  -4.77536   0.61505 
 H                     10.88181  -3.9047   -0.95267 
 H                     9.50887  -3.62414   0.19126 
 H                     10.07324  -1.43892   4.79679 
 H                     11.15967  -3.30068   8.52994 
 H                     12.17249  -1.72057   8.5676 
 H                     12.69819  -3.26215   7.84691 
 
 ITRead=  0  0  0  0  0  0  0  0  0  0  0  0  0  0  0  0  0  0  0  0
 ITRead=  0  0  0  0  0  0  0  0  0  0  0  0  0  0  0  0  0  0  0  0
 ITRead=  0  0  0  0  0  0  0  0  0  0  0  0  0  0  0  0  0  0  0  0
 ITRead=  0  0  0  0  0  0  0  0  0  0  0  0  0  0  0  0  0  0  0  0
 ITRead=  0  0  0  0  0  0  0  0  0  0  0  0  0  0  0  0  0  0  0  0
 ITRead=  0  0  0  0  0  0  0  0  0  0  0  0  0  0  0  0  0  0  0  0
 ITRead=  0  0  0  0  0  0  0  0  0  0  0  0  0  0  0  0  0  0  0  0
 ITRead=  0  0  0  0  0  0  0  0  0  0  0  0  0  0  0  0  0  0
 MicOpt= -1 -1 -1 -1 -1 -1 -1 -1 -1 -1 -1 -1 -1 -1 -1 -1 -1 -1 -1 -1
 MicOpt= -1 -1 -1 -1 -1 -1 -1 -1 -1 -1 -1 -1 -1 -1 -1 -1 -1 -1 -1 -1
 MicOpt= -1 -1 -1 -1 -1 -1 -1 -1 -1 -1 -1 -1 -1 -1 -1 -1 -1 -1 -1 -1
 MicOpt= -1 -1 -1 -1 -1 -1 -1 -1 -1 -1 -1 -1 -1 -1 -1 -1 -1 -1 -1 -1
 MicOpt= -1 -1 -1 -1 -1 -1 -1 -1 -1 -1 -1 -1 -1 -1 -1 -1 -1 -1 -1 -1
 MicOpt= -1 -1 -1 -1 -1 -1 -1 -1 -1 -1 -1 -1 -1 -1 -1 -1 -1 -1 -1 -1
 MicOpt= -1 -1 -1 -1 -1 -1 -1 -1 -1 -1 -1 -1 -1 -1 -1 -1 -1 -1 -1 -1
 MicOpt= -1 -1 -1 -1 -1 -1 -1 -1 -1 -1 -1 -1 -1 -1 -1 -1 -1 -1
 NAtoms=    158 NQM=      158 NQMF=       0 NMMI=      0 NMMIF=      0
                NMic=       0 NMicF=      0.
                    Isotopes and Nuclear Properties:
 (Nuclear quadrupole moments (NQMom) in fm**2, nuclear magnetic moments (NMagM)
  in nuclear magnetons)

  Atom         1           2           3           4           5           6           7           8           9          10
 IAtWgt=          24          12          12          12          12          14          12          12          12          12
 AtmWgt=  23.9850450  12.0000000  12.0000000  12.0000000  12.0000000  14.0030740  12.0000000  12.0000000  12.0000000  12.0000000
 NucSpn=           0           0           0           0           0           2           0           0           0           0
 AtZEff=  -0.0000000  -0.0000000  -0.0000000  -0.0000000  -0.0000000  -0.0000000  -0.0000000  -0.0000000  -0.0000000  -0.0000000
 NQMom=    0.0000000   0.0000000   0.0000000   0.0000000   0.0000000   2.0440000   0.0000000   0.0000000   0.0000000   0.0000000
 NMagM=    0.0000000   0.0000000   0.0000000   0.0000000   0.0000000   0.4037610   0.0000000   0.0000000   0.0000000   0.0000000
 AtZNuc=  12.0000000   6.0000000   6.0000000   6.0000000   6.0000000   7.0000000   6.0000000   6.0000000   6.0000000   6.0000000

  Atom        11          12          13          14          15          16          17          18          19          20
 IAtWgt=          12          12          12           1          14          12          12          12          12          12
 AtmWgt=  12.0000000  12.0000000  12.0000000   1.0078250  14.0030740  12.0000000  12.0000000  12.0000000  12.0000000  12.0000000
 NucSpn=           0           0           0           1           2           0           0           0           0           0
 AtZEff=  -0.0000000  -0.0000000  -0.0000000  -0.0000000  -0.0000000  -0.0000000  -0.0000000  -0.0000000  -0.0000000  -0.0000000
 NQMom=    0.0000000   0.0000000   0.0000000   0.0000000   2.0440000   0.0000000   0.0000000   0.0000000   0.0000000   0.0000000
 NMagM=    0.0000000   0.0000000   0.0000000   2.7928460   0.4037610   0.0000000   0.0000000   0.0000000   0.0000000   0.0000000
 AtZNuc=   6.0000000   6.0000000   6.0000000   1.0000000   7.0000000   6.0000000   6.0000000   6.0000000   6.0000000   6.0000000

  Atom        21          22          23          24          25          26          27          28          29          30
 IAtWgt=          12          16          12          14          12          12          12          12          12          12
 AtmWgt=  12.0000000  15.9949146  12.0000000  14.0030740  12.0000000  12.0000000  12.0000000  12.0000000  12.0000000  12.0000000
 NucSpn=           0           0           0           2           0           0           0           0           0           0
 AtZEff=  -0.0000000  -0.0000000  -0.0000000  -0.0000000  -0.0000000  -0.0000000  -0.0000000  -0.0000000  -0.0000000  -0.0000000
 NQMom=    0.0000000   0.0000000   0.0000000   2.0440000   0.0000000   0.0000000   0.0000000   0.0000000   0.0000000   0.0000000
 NMagM=    0.0000000   0.0000000   0.0000000   0.4037610   0.0000000   0.0000000   0.0000000   0.0000000   0.0000000   0.0000000
 AtZNuc=   6.0000000   8.0000000   6.0000000   7.0000000   6.0000000   6.0000000   6.0000000   6.0000000   6.0000000   6.0000000

  Atom        31          32          33          34          35          36          37          38          39          40
 IAtWgt=          12          14          12          12          12          12          12          12          16          12
 AtmWgt=  12.0000000  14.0030740  12.0000000  12.0000000  12.0000000  12.0000000  12.0000000  12.0000000  15.9949146  12.0000000
 NucSpn=           0           2           0           0           0           0           0           0           0           0
 AtZEff=  -0.0000000  -0.0000000  -0.0000000  -0.0000000  -0.0000000  -0.0000000  -0.0000000  -0.0000000  -0.0000000  -0.0000000
 NQMom=    0.0000000   2.0440000   0.0000000   0.0000000   0.0000000   0.0000000   0.0000000   0.0000000   0.0000000   0.0000000
 NMagM=    0.0000000   0.4037610   0.0000000   0.0000000   0.0000000   0.0000000   0.0000000   0.0000000   0.0000000   0.0000000
 AtZNuc=   6.0000000   7.0000000   6.0000000   6.0000000   6.0000000   6.0000000   6.0000000   6.0000000   8.0000000   6.0000000

  Atom        41          42          43          44          45          46          47          48          49          50
 IAtWgt=          12          16          16          12           1           1           1           1           1           1
 AtmWgt=  12.0000000  15.9949146  15.9949146  12.0000000   1.0078250   1.0078250   1.0078250   1.0078250   1.0078250   1.0078250
 NucSpn=           0           0           0           0           1           1           1           1           1           1
 AtZEff=  -0.0000000  -0.0000000  -0.0000000  -0.0000000  -0.0000000  -0.0000000  -0.0000000  -0.0000000  -0.0000000  -0.0000000
 NQMom=    0.0000000   0.0000000   0.0000000   0.0000000   0.0000000   0.0000000   0.0000000   0.0000000   0.0000000   0.0000000
 NMagM=    0.0000000   0.0000000   0.0000000   0.0000000   2.7928460   2.7928460   2.7928460   2.7928460   2.7928460   2.7928460
 AtZNuc=   6.0000000   8.0000000   8.0000000   6.0000000   1.0000000   1.0000000   1.0000000   1.0000000   1.0000000   1.0000000

  Atom        51          52          53          54          55          56          57          58          59          60
 IAtWgt=           1           1           1           1           1           1           1           1           1           1
 AtmWgt=   1.0078250   1.0078250   1.0078250   1.0078250   1.0078250   1.0078250   1.0078250   1.0078250   1.0078250   1.0078250
 NucSpn=           1           1           1           1           1           1           1           1           1           1
 AtZEff=  -0.0000000  -0.0000000  -0.0000000  -0.0000000  -0.0000000  -0.0000000  -0.0000000  -0.0000000  -0.0000000  -0.0000000
 NQMom=    0.0000000   0.0000000   0.0000000   0.0000000   0.0000000   0.0000000   0.0000000   0.0000000   0.0000000   0.0000000
 NMagM=    2.7928460   2.7928460   2.7928460   2.7928460   2.7928460   2.7928460   2.7928460   2.7928460   2.7928460   2.7928460
 AtZNuc=   1.0000000   1.0000000   1.0000000   1.0000000   1.0000000   1.0000000   1.0000000   1.0000000   1.0000000   1.0000000

  Atom        61          62          63          64          65          66          67          68          69          70
 IAtWgt=           1           1           1           1           1           1           1           1           1           1
 AtmWgt=   1.0078250   1.0078250   1.0078250   1.0078250   1.0078250   1.0078250   1.0078250   1.0078250   1.0078250   1.0078250
 NucSpn=           1           1           1           1           1           1           1           1           1           1
 AtZEff=  -0.0000000  -0.0000000  -0.0000000  -0.0000000  -0.0000000  -0.0000000  -0.0000000  -0.0000000  -0.0000000  -0.0000000
 NQMom=    0.0000000   0.0000000   0.0000000   0.0000000   0.0000000   0.0000000   0.0000000   0.0000000   0.0000000   0.0000000
 NMagM=    2.7928460   2.7928460   2.7928460   2.7928460   2.7928460   2.7928460   2.7928460   2.7928460   2.7928460   2.7928460
 AtZNuc=   1.0000000   1.0000000   1.0000000   1.0000000   1.0000000   1.0000000   1.0000000   1.0000000   1.0000000   1.0000000

  Atom        71          72          73          74          75          76          77          78          79          80
 IAtWgt=           1           1           1           1           1           1           1           1           1          24
 AtmWgt=   1.0078250   1.0078250   1.0078250   1.0078250   1.0078250   1.0078250   1.0078250   1.0078250   1.0078250  23.9850450
 NucSpn=           1           1           1           1           1           1           1           1           1           0
 AtZEff=  -0.0000000  -0.0000000  -0.0000000  -0.0000000  -0.0000000  -0.0000000  -0.0000000  -0.0000000  -0.0000000  -0.0000000
 NQMom=    0.0000000   0.0000000   0.0000000   0.0000000   0.0000000   0.0000000   0.0000000   0.0000000   0.0000000   0.0000000
 NMagM=    2.7928460   2.7928460   2.7928460   2.7928460   2.7928460   2.7928460   2.7928460   2.7928460   2.7928460   0.0000000
 AtZNuc=   1.0000000   1.0000000   1.0000000   1.0000000   1.0000000   1.0000000   1.0000000   1.0000000   1.0000000  12.0000000

  Atom        81          82          83          84          85          86          87          88          89          90
 IAtWgt=          12          12          12          12          14          12          12          12          12          12
 AtmWgt=  12.0000000  12.0000000  12.0000000  12.0000000  14.0030740  12.0000000  12.0000000  12.0000000  12.0000000  12.0000000
 NucSpn=           0           0           0           0           2           0           0           0           0           0
 AtZEff=  -0.0000000  -0.0000000  -0.0000000  -0.0000000  -0.0000000  -0.0000000  -0.0000000  -0.0000000  -0.0000000  -0.0000000
 NQMom=    0.0000000   0.0000000   0.0000000   0.0000000   2.0440000   0.0000000   0.0000000   0.0000000   0.0000000   0.0000000
 NMagM=    0.0000000   0.0000000   0.0000000   0.0000000   0.4037610   0.0000000   0.0000000   0.0000000   0.0000000   0.0000000
 AtZNuc=   6.0000000   6.0000000   6.0000000   6.0000000   7.0000000   6.0000000   6.0000000   6.0000000   6.0000000   6.0000000

  Atom        91          92          93          94          95          96          97          98          99         100
 IAtWgt=          12          12           1          14          12          12          12          12          12          12
 AtmWgt=  12.0000000  12.0000000   1.0078250  14.0030740  12.0000000  12.0000000  12.0000000  12.0000000  12.0000000  12.0000000
 NucSpn=           0           0           1           2           0           0           0           0           0           0
 AtZEff=  -0.0000000  -0.0000000  -0.0000000  -0.0000000  -0.0000000  -0.0000000  -0.0000000  -0.0000000  -0.0000000  -0.0000000
 NQMom=    0.0000000   0.0000000   0.0000000   2.0440000   0.0000000   0.0000000   0.0000000   0.0000000   0.0000000   0.0000000
 NMagM=    0.0000000   0.0000000   2.7928460   0.4037610   0.0000000   0.0000000   0.0000000   0.0000000   0.0000000   0.0000000
 AtZNuc=   6.0000000   6.0000000   1.0000000   7.0000000   6.0000000   6.0000000   6.0000000   6.0000000   6.0000000   6.0000000

  Atom       101         102         103         104         105         106         107         108         109         110
 IAtWgt=          16          12          14          12          12          12          12          12          12          12
 AtmWgt=  15.9949146  12.0000000  14.0030740  12.0000000  12.0000000  12.0000000  12.0000000  12.0000000  12.0000000  12.0000000
 NucSpn=           0           0           2           0           0           0           0           0           0           0
 AtZEff=  -0.0000000  -0.0000000  -0.0000000  -0.0000000  -0.0000000  -0.0000000  -0.0000000  -0.0000000  -0.0000000  -0.0000000
 NQMom=    0.0000000   0.0000000   2.0440000   0.0000000   0.0000000   0.0000000   0.0000000   0.0000000   0.0000000   0.0000000
 NMagM=    0.0000000   0.0000000   0.4037610   0.0000000   0.0000000   0.0000000   0.0000000   0.0000000   0.0000000   0.0000000
 AtZNuc=   8.0000000   6.0000000   7.0000000   6.0000000   6.0000000   6.0000000   6.0000000   6.0000000   6.0000000   6.0000000

  Atom       111         112         113         114         115         116         117         118         119         120
 IAtWgt=          14          12          12          12          12          12          12          16          12          12
 AtmWgt=  14.0030740  12.0000000  12.0000000  12.0000000  12.0000000  12.0000000  12.0000000  15.9949146  12.0000000  12.0000000
 NucSpn=           2           0           0           0           0           0           0           0           0           0
 AtZEff=  -0.0000000  -0.0000000  -0.0000000  -0.0000000  -0.0000000  -0.0000000  -0.0000000  -0.0000000  -0.0000000  -0.0000000
 NQMom=    2.0440000   0.0000000   0.0000000   0.0000000   0.0000000   0.0000000   0.0000000   0.0000000   0.0000000   0.0000000
 NMagM=    0.4037610   0.0000000   0.0000000   0.0000000   0.0000000   0.0000000   0.0000000   0.0000000   0.0000000   0.0000000
 AtZNuc=   7.0000000   6.0000000   6.0000000   6.0000000   6.0000000   6.0000000   6.0000000   8.0000000   6.0000000   6.0000000

  Atom       121         122         123         124         125         126         127         128         129         130
 IAtWgt=          16          16          12           1           1           1           1           1           1           1
 AtmWgt=  15.9949146  15.9949146  12.0000000   1.0078250   1.0078250   1.0078250   1.0078250   1.0078250   1.0078250   1.0078250
 NucSpn=           0           0           0           1           1           1           1           1           1           1
 AtZEff=  -0.0000000  -0.0000000  -0.0000000  -0.0000000  -0.0000000  -0.0000000  -0.0000000  -0.0000000  -0.0000000  -0.0000000
 NQMom=    0.0000000   0.0000000   0.0000000   0.0000000   0.0000000   0.0000000   0.0000000   0.0000000   0.0000000   0.0000000
 NMagM=    0.0000000   0.0000000   0.0000000   2.7928460   2.7928460   2.7928460   2.7928460   2.7928460   2.7928460   2.7928460
 AtZNuc=   8.0000000   8.0000000   6.0000000   1.0000000   1.0000000   1.0000000   1.0000000   1.0000000   1.0000000   1.0000000

  Atom       131         132         133         134         135         136         137         138         139         140
 IAtWgt=           1           1           1           1           1           1           1           1           1           1
 AtmWgt=   1.0078250   1.0078250   1.0078250   1.0078250   1.0078250   1.0078250   1.0078250   1.0078250   1.0078250   1.0078250
 NucSpn=           1           1           1           1           1           1           1           1           1           1
 AtZEff=  -0.0000000  -0.0000000  -0.0000000  -0.0000000  -0.0000000  -0.0000000  -0.0000000  -0.0000000  -0.0000000  -0.0000000
 NQMom=    0.0000000   0.0000000   0.0000000   0.0000000   0.0000000   0.0000000   0.0000000   0.0000000   0.0000000   0.0000000
 NMagM=    2.7928460   2.7928460   2.7928460   2.7928460   2.7928460   2.7928460   2.7928460   2.7928460   2.7928460   2.7928460
 AtZNuc=   1.0000000   1.0000000   1.0000000   1.0000000   1.0000000   1.0000000   1.0000000   1.0000000   1.0000000   1.0000000

  Atom       141         142         143         144         145         146         147         148         149         150
 IAtWgt=           1           1           1           1           1           1           1           1           1           1
 AtmWgt=   1.0078250   1.0078250   1.0078250   1.0078250   1.0078250   1.0078250   1.0078250   1.0078250   1.0078250   1.0078250
 NucSpn=           1           1           1           1           1           1           1           1           1           1
 AtZEff=  -0.0000000  -0.0000000  -0.0000000  -0.0000000  -0.0000000  -0.0000000  -0.0000000  -0.0000000  -0.0000000  -0.0000000
 NQMom=    0.0000000   0.0000000   0.0000000   0.0000000   0.0000000   0.0000000   0.0000000   0.0000000   0.0000000   0.0000000
 NMagM=    2.7928460   2.7928460   2.7928460   2.7928460   2.7928460   2.7928460   2.7928460   2.7928460   2.7928460   2.7928460
 AtZNuc=   1.0000000   1.0000000   1.0000000   1.0000000   1.0000000   1.0000000   1.0000000   1.0000000   1.0000000   1.0000000

  Atom       151         152         153         154         155         156         157         158
 IAtWgt=           1           1           1           1           1           1           1           1
 AtmWgt=   1.0078250   1.0078250   1.0078250   1.0078250   1.0078250   1.0078250   1.0078250   1.0078250
 NucSpn=           1           1           1           1           1           1           1           1
 AtZEff=  -0.0000000  -0.0000000  -0.0000000  -0.0000000  -0.0000000  -0.0000000  -0.0000000  -0.0000000
 NQMom=    0.0000000   0.0000000   0.0000000   0.0000000   0.0000000   0.0000000   0.0000000   0.0000000
 NMagM=    2.7928460   2.7928460   2.7928460   2.7928460   2.7928460   2.7928460   2.7928460   2.7928460
 AtZNuc=   1.0000000   1.0000000   1.0000000   1.0000000   1.0000000   1.0000000   1.0000000   1.0000000
 Leave Link  101 at Sat Sep 11 13:32:47 2021, MaxMem= 23488102400 cpu:               3.6 elap:               0.2
 (Enter /sw/apps/gaussian-16.0/g16/l202.exe)
 Stoichiometry    C68H72Mg2N8O8
 Framework group  C1[X(C68H72Mg2N8O8)]
 Deg. of freedom   468
 Full point group                 C1      NOp   1
 Largest Abelian subgroup         C1      NOp   1
 Largest concise Abelian subgroup C1      NOp   1
                         Standard orientation:                         
 ---------------------------------------------------------------------
 Center     Atomic      Atomic             Coordinates (Angstroms)
 Number     Number       Type             X           Y           Z
 ---------------------------------------------------------------------
      1         12           0        6.377064   -1.106136    0.188965
      2          6           0        6.791136    2.406358   -0.361621
      3          6           0        7.168109   -0.535718    3.458818
      4          6           0        6.462868   -4.248976    0.603470
      5          6           0        6.738420   -1.538002   -3.250304
      6          7           0        6.892680    0.744625    1.288724
      7          6           0        6.957884    2.034604    0.974283
      8          6           0        7.145287    2.963295    2.211129
      9          6           0        7.806752    1.915678    3.214603
     10          6           0        7.227710    0.633326    2.643455
     11          6           0        9.327626    1.854419    3.116159
     12          6           0        5.782224    3.502161    2.761958
     13          6           0        5.891739    4.663760    3.753950
     14          1           0        4.871034    5.700627    3.733602
     15          7           0        6.279060   -2.183548    1.841971
     16          6           0        6.626179   -1.785869    3.089628
     17          6           0        6.371472   -2.944565    3.972367
     18          6           0        6.027910   -4.107982    3.108354
     19          6           0        6.271589   -3.559693    1.798630
     20          6           0        6.416918   -2.865588    5.467509
     21          6           0        5.565088   -5.497203    3.414935
     22          8           0        5.547149   -6.419131    2.529327
     23          6           0        5.212373   -5.777378    4.818550
     24          7           0        6.790556   -2.697355   -1.097379
     25          6           0        6.701099   -3.964459   -0.678537
     26          6           0        6.761620   -4.925304   -1.828777
     27          6           0        6.666964   -4.036982   -3.152287
     28          6           0        6.649705   -2.634974   -2.494758
     29          6           0        8.014036   -5.810109   -1.896509
     30          6           0        5.544852   -4.393145   -4.159477
     31          6           0        4.193920   -4.090144   -3.550979
     32          7           0        6.529721    0.190254   -1.545138
     33          6           0        6.696968   -0.204057   -2.880511
     34          6           0        6.856890    1.026165   -3.677409
     35          6           0        6.787693    2.056674   -2.741938
     36          6           0        6.622943    1.503987   -1.439752
     37          6           0        7.096050    1.086180   -5.078707
     38          6           0        6.839295    3.495085   -2.536585
     39          8           0        6.869945    4.476658   -3.280270
     40          6           0        6.965780    3.773909   -0.973868
     41          6           0        5.961732    4.836600   -0.619062
     42          8           0        4.736835    4.608746   -0.690310
     43          8           0        6.591721    5.864420   -0.029791
     44          6           0        5.648440    6.941063    0.374206
     45          1           0        7.629710   -0.513455    4.447944
     46          1           0        6.388576   -5.335222    0.687071
     47          1           0        6.770831   -1.590786   -4.340083
     48          1           0        7.821577    3.803107    2.050593
     49          1           0        7.465401    2.062207    4.239167
     50          1           0        9.697026    2.448675    2.280500
     51          1           0        9.567626    0.801112    2.969745
     52          1           0        9.788787    2.138069    4.062546
     53          1           0        5.332377    2.748273    3.407986
     54          1           0        5.121312    3.788462    1.943085
     55          1           0        6.887534    5.107711    3.739482
     56          1           0        5.788580    4.262685    4.762264
     57          1           0        6.857520   -1.928606    5.805858
     58          1           0        7.114499   -3.631538    5.805755
     59          1           0        5.438501   -3.034966    5.917335
     60          1           0        6.078401   -5.585619    5.452407
     61          1           0        4.818927   -6.793178    4.832725
     62          1           0        4.439535   -5.076332    5.135103
     63          1           0        5.922254   -5.619024   -1.803404
     64          1           0        7.581157   -4.086400   -3.744303
     65          1           0        7.795563   -6.878232   -1.905862
     66          1           0        8.656496   -5.549702   -1.055840
     67          1           0        8.671094   -5.608272   -2.742058
     68          1           0        5.562883   -5.458645   -4.386041
     69          1           0        5.625284   -3.852170   -5.102413
     70          1           0        3.987055   -4.982307   -2.960993
     71          1           0        3.445670   -3.957096   -4.333048
     72          1           0        4.248105   -3.248224   -2.860531
     73          1           0        6.453007    1.877249   -5.464289
     74          1           0        6.880792    0.131623   -5.558381
     75          1           0        8.158219    1.330056   -5.092011
     76          1           0        7.989382    4.102033   -0.795838
     77          1           0        5.996149    7.863610   -0.090810
     78          1           0        5.593438    6.912547    1.462584
     79          1           0        4.638319    6.874171   -0.031406
     80         12           0       -6.832201   -0.380468   -0.280487
     81          6           0       -5.263774    2.842942   -0.449986
     82          6           0       -7.280355    0.178621    3.054355
     83          6           0       -7.808106   -3.387324   -0.008717
     84          6           0       -5.267209   -1.146602   -3.298694
     85          7           0       -6.298644    1.328709    1.018077
     86          6           0       -5.760633    2.524510    0.831094
     87          6           0       -5.827285    3.460295    2.067801
     88          6           0       -5.940492    2.339105    3.211903
     89          6           0       -6.578741    1.218487    2.393656
     90          6           0       -4.590996    1.854166    3.714931
     91          6           0       -7.091570    4.389356    2.046900
     92          6           0       -7.061982    5.538455    3.057079
     93          1           0       -7.661712    6.814619    2.677354
     94          7           0       -7.883961   -1.264883    1.151360
     95          6           0       -7.971341   -0.891910    2.445400
     96          6           0       -8.851213   -1.879015    3.090076
     97          6           0       -9.143584   -2.958618    2.108388
     98          6           0       -8.253636   -2.581247    1.028720
     99          6           0       -9.391549   -1.702670    4.479445
    100          6           0      -10.061591   -4.142832    2.141632
    101          8           0       -9.980037   -5.082583    1.273864
    102          6           0      -10.996546   -4.215962    3.273883
    103          7           0       -6.410716   -2.103165   -1.365397
    104          6           0       -7.009822   -3.270095   -1.070000
    105          6           0       -6.764689   -4.297640   -2.149107
    106          6           0       -6.075039   -3.501042   -3.352187
    107          6           0       -5.954417   -2.107708   -2.696859
    108          6           0       -5.883718   -5.481993   -1.752137
    109          6           0       -6.752786   -3.606207   -4.745840
    110          6           0       -8.095680   -2.912411   -4.720361
    111          7           0       -5.655904    0.694651   -1.739429
    112          6           0       -5.077450    0.175843   -2.918539
    113          6           0       -4.276209    1.259479   -3.523663
    114          6           0       -4.426710    2.335107   -2.635477
    115          6           0       -5.246310    1.942863   -1.542823
    116          6           0       -3.500609    1.156097   -4.712728
    117          6           0       -4.069936    3.709907   -2.368357
    118          8           0       -3.467502    4.586814   -2.986270
    119          6           0       -4.492786    4.061086   -0.876959
    120          6           0       -5.219024    5.378153   -0.897971
    121          8           0       -6.315248    5.486308   -1.475229
    122          8           0       -4.609773    6.230800   -0.054066
    123          6           0       -5.300244    7.547832   -0.031765
    124          1           0       -7.266680    0.154575    4.144365
    125          1           0       -8.206809   -4.404372   -0.020205
    126          1           0       -4.828644   -1.275869   -4.290468
    127          1           0       -4.943390    4.066196    2.227135
    128          1           0       -6.606807    2.655328    4.010271
    129          1           0       -3.775382    2.259508    3.134747
    130          1           0       -4.615882    0.775601    3.630603
    131          1           0       -4.486423    2.070703    4.781946
    132          1           0       -7.954907    3.827761    2.426396
    133          1           0       -7.262255    4.778397    1.061947
    134          1           0       -6.060016    5.693986    3.475216
    135          1           0       -7.671739    5.258185    3.919435
    136          1           0       -8.871638   -0.898186    5.014148
    137          1           0       -9.137120   -2.609361    5.038951
    138          1           0      -10.475373   -1.569558    4.496142
    139          1           0      -10.435825   -4.220012    4.205567
    140          1           0      -11.628872   -5.083453    3.075163
    141          1           0      -11.610347   -3.308306    3.279929
    142          1           0       -7.698015   -4.722149   -2.498065
    143          1           0       -5.048892   -3.851110   -3.537385
    144          1           0       -6.377163   -6.461372   -1.898423
    145          1           0       -5.587475   -5.355964   -0.719232
    146          1           0       -4.923799   -5.535188   -2.262944
    147          1           0       -6.948561   -4.652323   -4.993780
    148          1           0       -6.153960   -3.191343   -5.549758
    149          1           0       -8.758978   -3.674018   -4.299556
    150          1           0       -8.402345   -2.634321   -5.726672
    151          1           0       -8.086929   -2.063390   -4.026999
    152          1           0       -3.683691    2.056973   -5.283181
    153          1           0       -3.760485    0.265248   -5.280720
    154          1           0       -2.496277    1.092083   -4.285543
    155          1           0       -3.581162    4.105751   -0.279868
    156          1           0       -4.549178    8.306440   -0.272813
    157          1           0       -5.783470    7.615040    0.961067
    158          1           0       -6.044492    7.736561   -0.796580
 ---------------------------------------------------------------------
 Rotational constants (GHZ):           0.0213595           0.0083529           0.0075025
 Leave Link  202 at Sat Sep 11 13:32:47 2021, MaxMem= 23488102400 cpu:               0.2 elap:               0.0
 (Enter /sw/apps/gaussian-16.0/g16/l301.exe)
 Standard basis: def2SVP (5D, 7F)
 Ernie: Thresh=  0.10000D-02 Tol=  0.10000D-05 Strict=F.
 There are  1658 symmetry adapted cartesian basis functions of A   symmetry.
 There are  1572 symmetry adapted basis functions of A   symmetry.
  1572 basis functions,  2678 primitive gaussians,  1658 cartesian basis functions
   312 alpha electrons      312 beta electrons
       nuclear repulsion energy     14337.8673715912 Hartrees.
 IExCor=20419 DFT=T Ex+Corr=CAM-B3LYP ExCW=0 ScaHFX=  1.000000
 ScaDFX=  1.000000  1.000000  1.000000  0.810000 ScalE2=  1.000000  1.000000
 IRadAn=      5 IRanWt=     -1 IRanGd=            0 ICorTp=0 IEmpDi=  4
 HFx  wShort=  0.000000 wLong=  0.330000 cFull=  0.190000 cShort=  0.000000 cLong=  0.460000
 DFx  wShort=  0.000000 wLong=  0.330000 cFull=  0.190000 cShort=  0.000000 cLong=  0.460000
 NAtoms=  158 NActive=  158 NUniq=  158 SFac= 1.00D+00 NAtFMM=   60 NAOKFM=T Big=T
 Integral buffers will be    131072 words long.
 Raffenetti 1 integral format.
 Two-electron integral symmetry is turned on.
 Leave Link  301 at Sat Sep 11 13:32:47 2021, MaxMem= 23488102400 cpu:               1.4 elap:               0.1
 (Enter /sw/apps/gaussian-16.0/g16/l302.exe)
 NPDir=0 NMtPBC=     1 NCelOv=     1 NCel=       1 NClECP=     1 NCelD=      1
         NCelK=      1 NCelE2=     1 NClLst=     1 CellRange=     0.0.
 One-electron integrals computed using PRISM.
 One-electron integral symmetry used in STVInt
   1 Symmetry operations used in ECPInt.
 ECPInt:  NShTT=  271216 NPrTT=  987664 LenC2=  119247 LenP2D=  258938.
 LDataN:  DoStor=T MaxTD1= 4 Len=   56
 NBasis=  1572 RedAO= T EigKep=  3.36D-04  NBF=  1572
 NBsUse=  1572 1.00D-06 EigRej= -1.00D+00 NBFU=  1572
 Precomputing XC quadrature grid using
 IXCGrd= 4 IRadAn=           5 IRanWt=          -1 IRanGd=           0 AccXCQ= 0.00D+00.
 Generated NRdTot=       0 NPtTot=           0 NUsed=           0 NTot=          32
 NSgBfM=   960   960   960   960   960 MxSgAt=   158 MxSgA2=   157.
 Leave Link  302 at Sat Sep 11 13:32:52 2021, MaxMem= 23488102400 cpu:             120.2 elap:               5.0
 (Enter /sw/apps/gaussian-16.0/g16/l303.exe)
 DipDrv:  MaxL=1.
 Leave Link  303 at Sat Sep 11 13:32:53 2021, MaxMem= 23488102400 cpu:               9.2 elap:               0.4
 (Enter /sw/apps/gaussian-16.0/g16/l308.exe)
 Leave Link  308 at Sat Sep 11 13:32:53 2021, MaxMem= 23488102400 cpu:              14.9 elap:               0.7
 (Enter /sw/apps/gaussian-16.0/g16/l401.exe)
 ExpMin= 3.36D-02 ExpMax= 4.95D+03 ExpMxC= 7.45D+02 IAcc=3 IRadAn=         5 AccDes= 0.00D+00
 Harris functional with IExCor=20419 and IRadAn=       5 diagonalized for initial guess.
 HarFok:  IExCor=20419 AccDes= 0.00D+00 IRadAn=         5 IDoV= 1 UseB2=F ITyADJ=14
 ICtDFT=  3500011 ScaDFX=  1.000000  1.000000  1.000000  1.000000
 FoFCou: FMM=F IPFlag=           0 FMFlag=      100000 FMFlg1=        2001
         NFxFlg=           0 DoJE=T BraDBF=F KetDBF=T FulRan=T
         wScrn=  0.000000 ICntrl=       500 IOpCl=  0 I1Cent=   200000004 NGrid=           0
         NMat0=    1 NMatS0=      1 NMatT0=    0 NMatD0=    1 NMtDS0=    0 NMtDT0=    0
 Petite list used in FoFCou.
 Harris En= -3918.65801754265    
 JPrj=0 DoOrth=F DoCkMO=F.
 Leave Link  401 at Sat Sep 11 13:33:00 2021, MaxMem= 23488102400 cpu:             167.3 elap:               7.0
 (Enter /sw/apps/gaussian-16.0/g16/l502.exe)
 Integral symmetry usage will be decided dynamically.
 Closed shell SCF:
 Using DIIS extrapolation, IDIIS=  1040.
 NGot= 23488102400 LenX= 23482547354 LenY= 23479796732
 Requested convergence on RMS density matrix=1.00D-08 within 128 cycles.
 Requested convergence on MAX density matrix=1.00D-06.
 Requested convergence on             energy=1.00D-06.
 No special actions if energy rises.
 Fock matrices will be formed incrementally for  20 cycles.

 Cycle   1  Pass 1  IDiag  1:
 FoFJK:  IHMeth= 1 ICntrl=       0 DoSepK=T KAlg= 0 I1Cent=           0 FoldK=F
 IRaf=         1 NMat=       1 IRICut=       1 DoRegI=T DoRafI=F ISym2E= 0 IDoP0=0 IntGTp=1.
 FoFCou: FMM=T IPFlag=           0 FMFlag=      100000 FMFlg1=        2001
         NFxFlg=           0 DoJE=T BraDBF=F KetDBF=F FulRan=T
         wScrn=  0.000000 ICntrl=       500 IOpCl=  0 I1Cent=           0 NGrid=           0
         NMat0=    1 NMatS0=      1 NMatT0=    0 NMatD0=    1 NMtDS0=    0 NMtDT0=    0
 Symmetry not used in FoFCou.
 FMM levels:  10  Number of levels for PrismC:   9
 E= -4068.94801880765    
 DIIS: error= 2.04D-02 at cycle   1 NSaved=   1.
 NSaved= 1 IEnMin= 1 EnMin= -4068.94801880765     IErMin= 1 ErrMin= 2.04D-02
 ErrMax= 2.04D-02  0.00D+00 EMaxC= 1.00D-01 BMatC= 1.69D+00 BMatP= 1.69D+00
 IDIUse=3 WtCom= 7.96D-01 WtEn= 2.04D-01
 Coeff-Com:  0.100D+01
 Coeff-En:   0.100D+01
 Coeff:      0.100D+01
 Gap=     0.120 Goal=   None    Shift=    0.000
 GapD=    0.120 DampG=1.000 DampE=0.500 DampFc=0.5000 IDamp=-1.
 Damping current iteration by 5.00D-01
 RMSDP=1.57D-03 MaxDP=1.34D-01              OVMax= 2.08D-01

 Cycle   2  Pass 1  IDiag  1:
 RMSU=  7.70D-04    CP:  9.82D-01
 E= -4069.33676698666     Delta-E=       -0.388748179012 Rises=F Damp=T
 DIIS: error= 1.27D-02 at cycle   2 NSaved=   2.
 NSaved= 2 IEnMin= 2 EnMin= -4069.33676698666     IErMin= 2 ErrMin= 1.27D-02
 ErrMax= 1.27D-02  0.00D+00 EMaxC= 1.00D-01 BMatC= 3.07D-01 BMatP= 1.69D+00
 IDIUse=3 WtCom= 8.73D-01 WtEn= 1.27D-01
 Coeff-Com: -0.212D+00 0.121D+01
 Coeff-En:   0.000D+00 0.100D+01
 Coeff:     -0.185D+00 0.119D+01
 Gap=     0.136 Goal=   None    Shift=    0.000
 RMSDP=7.67D-04 MaxDP=9.53D-02 DE=-3.89D-01 OVMax= 1.91D-01

 Cycle   3  Pass 1  IDiag  1:
 RMSU=  7.35D-04    CP:  9.68D-01  1.23D+00
 E= -4069.62484456717     Delta-E=       -0.288077580510 Rises=F Damp=F
 DIIS: error= 1.58D-02 at cycle   3 NSaved=   3.
 NSaved= 3 IEnMin= 3 EnMin= -4069.62484456717     IErMin= 2 ErrMin= 1.27D-02
 ErrMax= 1.58D-02  0.00D+00 EMaxC= 1.00D-01 BMatC= 2.03D-01 BMatP= 3.07D-01
 IDIUse=3 WtCom= 8.42D-01 WtEn= 1.58D-01
 Coeff-Com: -0.267D+00 0.653D+00 0.615D+00
 Coeff-En:   0.000D+00 0.000D+00 0.100D+01
 Coeff:     -0.225D+00 0.550D+00 0.675D+00
 Gap=     0.124 Goal=   None    Shift=    0.000
 RMSDP=5.14D-04 MaxDP=4.81D-02 DE=-2.88D-01 OVMax= 1.51D-01

 Cycle   4  Pass 1  IDiag  1:
 RMSU=  2.68D-04    CP:  9.65D-01  1.55D+00  5.01D-01
 E= -4069.76296515901     Delta-E=       -0.138120591833 Rises=F Damp=F
 DIIS: error= 7.30D-03 at cycle   4 NSaved=   4.
 NSaved= 4 IEnMin= 4 EnMin= -4069.76296515901     IErMin= 4 ErrMin= 7.30D-03
 ErrMax= 7.30D-03  0.00D+00 EMaxC= 1.00D-01 BMatC= 5.14D-02 BMatP= 2.03D-01
 IDIUse=3 WtCom= 9.27D-01 WtEn= 7.30D-02
 Coeff-Com: -0.109D+00 0.227D+00 0.409D+00 0.473D+00
 Coeff-En:   0.000D+00 0.000D+00 0.225D+00 0.775D+00
 Coeff:     -0.101D+00 0.210D+00 0.396D+00 0.495D+00
 Gap=     0.122 Goal=   None    Shift=    0.000
 RMSDP=2.05D-04 MaxDP=2.01D-02 DE=-1.38D-01 OVMax= 6.79D-02

 Cycle   5  Pass 1  IDiag  1:
 RMSU=  7.81D-05    CP:  9.64D-01  1.49D+00  6.88D-01  5.44D-01
 E= -4069.80989629725     Delta-E=       -0.046931138240 Rises=F Damp=F
 DIIS: error= 7.40D-04 at cycle   5 NSaved=   5.
 NSaved= 5 IEnMin= 5 EnMin= -4069.80989629725     IErMin= 5 ErrMin= 7.40D-04
 ErrMax= 7.40D-04  0.00D+00 EMaxC= 1.00D-01 BMatC= 1.26D-03 BMatP= 5.14D-02
 IDIUse=3 WtCom= 9.93D-01 WtEn= 7.40D-03
 Coeff-Com: -0.370D-01 0.727D-01 0.170D+00 0.253D+00 0.541D+00
 Coeff-En:   0.000D+00 0.000D+00 0.000D+00 0.000D+00 0.100D+01
 Coeff:     -0.367D-01 0.722D-01 0.168D+00 0.251D+00 0.545D+00
 Gap=     0.122 Goal=   None    Shift=    0.000
 RMSDP=4.35D-05 MaxDP=4.30D-03 DE=-4.69D-02 OVMax= 1.90D-02

 Cycle   6  Pass 1  IDiag  1:
 RMSU=  3.17D-05    CP:  9.64D-01  1.49D+00  6.79D-01  6.19D-01  7.38D-01
 E= -4069.81102856247     Delta-E=       -0.001132265221 Rises=F Damp=F
 DIIS: error= 1.94D-04 at cycle   6 NSaved=   6.
 NSaved= 6 IEnMin= 6 EnMin= -4069.81102856247     IErMin= 6 ErrMin= 1.94D-04
 ErrMax= 1.94D-04  0.00D+00 EMaxC= 1.00D-01 BMatC= 1.93D-04 BMatP= 1.26D-03
 IDIUse=3 WtCom= 9.98D-01 WtEn= 1.94D-03
 Coeff-Com:  0.209D-02-0.638D-02 0.122D-01 0.417D-01 0.306D+00 0.644D+00
 Coeff-En:   0.000D+00 0.000D+00 0.000D+00 0.000D+00 0.114D+00 0.886D+00
 Coeff:      0.208D-02-0.637D-02 0.122D-01 0.416D-01 0.306D+00 0.645D+00
 Gap=     0.122 Goal=   None    Shift=    0.000
 RMSDP=1.70D-05 MaxDP=1.19D-03 DE=-1.13D-03 OVMax= 7.96D-03

 Cycle   7  Pass 1  IDiag  1:
 RMSU=  1.12D-05    CP:  9.64D-01  1.49D+00  6.85D-01  6.18D-01  8.47D-01
                    CP:  7.39D-01
 E= -4069.81124237840     Delta-E=       -0.000213815933 Rises=F Damp=F
 DIIS: error= 9.16D-05 at cycle   7 NSaved=   7.
 NSaved= 7 IEnMin= 7 EnMin= -4069.81124237840     IErMin= 7 ErrMin= 9.16D-05
 ErrMax= 9.16D-05  0.00D+00 EMaxC= 1.00D-01 BMatC= 2.40D-05 BMatP= 1.93D-04
 IDIUse=1 WtCom= 1.00D+00 WtEn= 0.00D+00
 Coeff-Com:  0.456D-02-0.100D-01-0.891D-02-0.326D-02 0.107D+00 0.336D+00
 Coeff-Com:  0.575D+00
 Coeff:      0.456D-02-0.100D-01-0.891D-02-0.326D-02 0.107D+00 0.336D+00
 Coeff:      0.575D+00
 Gap=     0.122 Goal=   None    Shift=    0.000
 RMSDP=6.71D-06 MaxDP=1.09D-03 DE=-2.14D-04 OVMax= 3.45D-03

 Cycle   8  Pass 1  IDiag  1:
 RMSU=  4.80D-06    CP:  9.64D-01  1.49D+00  6.86D-01  6.23D-01  8.49D-01
                    CP:  8.63D-01  8.17D-01
 E= -4069.81127212627     Delta-E=       -0.000029747869 Rises=F Damp=F
 DIIS: error= 5.27D-05 at cycle   8 NSaved=   8.
 NSaved= 8 IEnMin= 8 EnMin= -4069.81127212627     IErMin= 8 ErrMin= 5.27D-05
 ErrMax= 5.27D-05  0.00D+00 EMaxC= 1.00D-01 BMatC= 5.00D-06 BMatP= 2.40D-05
 IDIUse=1 WtCom= 1.00D+00 WtEn= 0.00D+00
 Coeff-Com:  0.220D-02-0.436D-02-0.783D-02-0.121D-01-0.964D-02 0.326D-01
 Coeff-Com:  0.328D+00 0.671D+00
 Coeff:      0.220D-02-0.436D-02-0.783D-02-0.121D-01-0.964D-02 0.326D-01
 Coeff:      0.328D+00 0.671D+00
 Gap=     0.122 Goal=   None    Shift=    0.000
 RMSDP=3.37D-06 MaxDP=3.80D-04 DE=-2.97D-05 OVMax= 1.08D-03

 Cycle   9  Pass 1  IDiag  1:
 RMSU=  1.96D-06    CP:  9.64D-01  1.49D+00  6.86D-01  6.24D-01  8.66D-01
                    CP:  8.90D-01  1.01D+00  9.64D-01
 E= -4069.81128018756     Delta-E=       -0.000008061288 Rises=F Damp=F
 DIIS: error= 2.02D-05 at cycle   9 NSaved=   9.
 NSaved= 9 IEnMin= 9 EnMin= -4069.81128018756     IErMin= 9 ErrMin= 2.02D-05
 ErrMax= 2.02D-05  0.00D+00 EMaxC= 1.00D-01 BMatC= 7.47D-07 BMatP= 5.00D-06
 IDIUse=1 WtCom= 1.00D+00 WtEn= 0.00D+00
 Coeff-Com:  0.469D-03-0.777D-03-0.270D-02-0.605D-02-0.204D-01-0.406D-01
 Coeff-Com:  0.972D-01 0.332D+00 0.641D+00
 Coeff:      0.469D-03-0.777D-03-0.270D-02-0.605D-02-0.204D-01-0.406D-01
 Coeff:      0.972D-01 0.332D+00 0.641D+00
 Gap=     0.122 Goal=   None    Shift=    0.000
 RMSDP=1.47D-06 MaxDP=1.44D-04 DE=-8.06D-06 OVMax= 7.77D-04

 Cycle  10  Pass 1  IDiag  1:
 RMSU=  9.67D-07    CP:  9.64D-01  1.49D+00  6.86D-01  6.25D-01  8.70D-01
                    CP:  9.02D-01  1.06D+00  1.13D+00  1.06D+00
 E= -4069.81128191005     Delta-E=       -0.000001722496 Rises=F Damp=F
 DIIS: error= 1.06D-05 at cycle  10 NSaved=  10.
 NSaved=10 IEnMin=10 EnMin= -4069.81128191005     IErMin=10 ErrMin= 1.06D-05
 ErrMax= 1.06D-05  0.00D+00 EMaxC= 1.00D-01 BMatC= 1.84D-07 BMatP= 7.47D-07
 IDIUse=1 WtCom= 1.00D+00 WtEn= 0.00D+00
 Coeff-Com: -0.435D-03 0.913D-03 0.125D-02 0.110D-02-0.359D-02-0.317D-01
 Coeff-Com: -0.446D-01-0.765D-01 0.245D+00 0.909D+00
 Coeff:     -0.435D-03 0.913D-03 0.125D-02 0.110D-02-0.359D-02-0.317D-01
 Coeff:     -0.446D-01-0.765D-01 0.245D+00 0.909D+00
 Gap=     0.122 Goal=   None    Shift=    0.000
 RMSDP=1.27D-06 MaxDP=1.26D-04 DE=-1.72D-06 OVMax= 6.49D-04

 Cycle  11  Pass 1  IDiag  1:
 RMSU=  5.45D-07    CP:  9.64D-01  1.49D+00  6.86D-01  6.25D-01  8.72D-01
                    CP:  9.12D-01  1.10D+00  1.25D+00  1.41D+00  1.37D+00
 E= -4069.81128276495     Delta-E=       -0.000000854892 Rises=F Damp=F
 DIIS: error= 4.26D-06 at cycle  11 NSaved=  11.
 NSaved=11 IEnMin=11 EnMin= -4069.81128276495     IErMin=11 ErrMin= 4.26D-06
 ErrMax= 4.26D-06  0.00D+00 EMaxC= 1.00D-01 BMatC= 7.14D-08 BMatP= 1.84D-07
 IDIUse=1 WtCom= 1.00D+00 WtEn= 0.00D+00
 Coeff-Com: -0.341D-03 0.664D-03 0.137D-02 0.215D-02 0.445D-02-0.886D-02
 Coeff-Com: -0.419D-01-0.135D+00-0.316D-01 0.487D+00 0.722D+00
 Coeff:     -0.341D-03 0.664D-03 0.137D-02 0.215D-02 0.445D-02-0.886D-02
 Coeff:     -0.419D-01-0.135D+00-0.316D-01 0.487D+00 0.722D+00
 Gap=     0.122 Goal=   None    Shift=    0.000
 RMSDP=7.23D-07 MaxDP=6.52D-05 DE=-8.55D-07 OVMax= 4.07D-04

 Cycle  12  Pass 1  IDiag  1:
 RMSU=  2.77D-07    CP:  9.64D-01  1.49D+00  6.86D-01  6.25D-01  8.73D-01
                    CP:  9.15D-01  1.13D+00  1.31D+00  1.58D+00  1.77D+00
                    CP:  1.18D+00
 E= -4069.81128305752     Delta-E=       -0.000000292570 Rises=F Damp=F
 DIIS: error= 2.71D-06 at cycle  12 NSaved=  12.
 NSaved=12 IEnMin=12 EnMin= -4069.81128305752     IErMin=12 ErrMin= 2.71D-06
 ErrMax= 2.71D-06  0.00D+00 EMaxC= 1.00D-01 BMatC= 1.76D-08 BMatP= 7.14D-08
 IDIUse=1 WtCom= 1.00D+00 WtEn= 0.00D+00
 Coeff-Com: -0.121D-04 0.617D-05 0.234D-03 0.592D-03 0.357D-02 0.379D-02
 Coeff-Com:  0.164D-02-0.389D-01-0.738D-01-0.522D-01 0.263D+00 0.892D+00
 Coeff:     -0.121D-04 0.617D-05 0.234D-03 0.592D-03 0.357D-02 0.379D-02
 Coeff:      0.164D-02-0.389D-01-0.738D-01-0.522D-01 0.263D+00 0.892D+00
 Gap=     0.122 Goal=   None    Shift=    0.000
 RMSDP=4.56D-07 MaxDP=3.12D-05 DE=-2.93D-07 OVMax= 2.62D-04

 Cycle  13  Pass 1  IDiag  1:
 RMSU=  1.73D-07    CP:  9.64D-01  1.49D+00  6.86D-01  6.25D-01  8.73D-01
                    CP:  9.15D-01  1.13D+00  1.34D+00  1.69D+00  2.00D+00
                    CP:  1.60D+00  1.24D+00
 E= -4069.81128315950     Delta-E=       -0.000000101980 Rises=F Damp=F
 DIIS: error= 1.35D-06 at cycle  13 NSaved=  13.
 NSaved=13 IEnMin=13 EnMin= -4069.81128315950     IErMin=13 ErrMin= 1.35D-06
 ErrMax= 1.35D-06  0.00D+00 EMaxC= 1.00D-01 BMatC= 9.36D-09 BMatP= 1.76D-08
 IDIUse=1 WtCom= 1.00D+00 WtEn= 0.00D+00
 Coeff-Com:  0.122D-03-0.250D-03-0.370D-03-0.450D-03 0.721D-03 0.510D-02
 Coeff-Com:  0.191D-01 0.232D-01-0.346D-01-0.240D+00-0.158D+00 0.586D+00
 Coeff-Com:  0.800D+00
 Coeff:      0.122D-03-0.250D-03-0.370D-03-0.450D-03 0.721D-03 0.510D-02
 Coeff:      0.191D-01 0.232D-01-0.346D-01-0.240D+00-0.158D+00 0.586D+00
 Coeff:      0.800D+00
 Gap=     0.122 Goal=   None    Shift=    0.000
 RMSDP=3.67D-07 MaxDP=2.17D-05 DE=-1.02D-07 OVMax= 2.25D-04

 Cycle  14  Pass 1  IDiag  1:
 RMSU=  8.02D-08    CP:  9.64D-01  1.49D+00  6.86D-01  6.25D-01  8.73D-01
                    CP:  9.16D-01  1.14D+00  1.37D+00  1.77D+00  2.20D+00
                    CP:  1.86D+00  1.76D+00  1.11D+00
 E= -4069.81128320173     Delta-E=       -0.000000042230 Rises=F Damp=F
 DIIS: error= 7.48D-07 at cycle  14 NSaved=  14.
 NSaved=14 IEnMin=14 EnMin= -4069.81128320173     IErMin=14 ErrMin= 7.48D-07
 ErrMax= 7.48D-07  0.00D+00 EMaxC= 1.00D-01 BMatC= 1.43D-09 BMatP= 9.36D-09
 IDIUse=1 WtCom= 1.00D+00 WtEn= 0.00D+00
 Coeff-Com:  0.693D-04-0.137D-03-0.256D-03-0.399D-03-0.452D-03 0.130D-02
 Coeff-Com:  0.105D-01 0.202D-01 0.423D-02-0.103D+00-0.146D+00 0.853D-01
 Coeff-Com:  0.411D+00 0.718D+00
 Coeff:      0.693D-04-0.137D-03-0.256D-03-0.399D-03-0.452D-03 0.130D-02
 Coeff:      0.105D-01 0.202D-01 0.423D-02-0.103D+00-0.146D+00 0.853D-01
 Coeff:      0.411D+00 0.718D+00
 Gap=     0.122 Goal=   None    Shift=    0.000
 RMSDP=1.13D-07 MaxDP=7.27D-06 DE=-4.22D-08 OVMax= 6.16D-05

 Cycle  15  Pass 1  IDiag  1:
 RMSU=  3.98D-08    CP:  9.64D-01  1.49D+00  6.86D-01  6.25D-01  8.73D-01
                    CP:  9.16D-01  1.14D+00  1.37D+00  1.79D+00  2.25D+00
                    CP:  1.97D+00  1.91D+00  1.35D+00  1.04D+00
 E= -4069.81128320640     Delta-E=       -0.000000004678 Rises=F Damp=F
 DIIS: error= 3.53D-07 at cycle  15 NSaved=  15.
 NSaved=15 IEnMin=15 EnMin= -4069.81128320640     IErMin=15 ErrMin= 3.53D-07
 ErrMax= 3.53D-07  0.00D+00 EMaxC= 1.00D-01 BMatC= 2.33D-10 BMatP= 1.43D-09
 IDIUse=1 WtCom= 1.00D+00 WtEn= 0.00D+00
 Coeff-Com:  0.627D-05-0.107D-04-0.364D-04-0.878D-04-0.300D-03-0.521D-03
 Coeff-Com:  0.117D-02 0.289D-02 0.889D-02 0.357D-03-0.307D-01-0.721D-01
 Coeff-Com:  0.365D-01 0.291D+00 0.762D+00
 Coeff:      0.627D-05-0.107D-04-0.364D-04-0.878D-04-0.300D-03-0.521D-03
 Coeff:      0.117D-02 0.289D-02 0.889D-02 0.357D-03-0.307D-01-0.721D-01
 Coeff:      0.365D-01 0.291D+00 0.762D+00
 Gap=     0.122 Goal=   None    Shift=    0.000
 RMSDP=3.94D-08 MaxDP=2.32D-06 DE=-4.68D-09 OVMax= 2.89D-05

 Cycle  16  Pass 1  IDiag  1:
 RMSU=  1.94D-08    CP:  9.64D-01  1.49D+00  6.86D-01  6.25D-01  8.73D-01
                    CP:  9.16D-01  1.14D+00  1.37D+00  1.79D+00  2.26D+00
                    CP:  1.99D+00  1.96D+00  1.42D+00  1.24D+00  1.14D+00
 E= -4069.81128320736     Delta-E=       -0.000000000953 Rises=F Damp=F
 DIIS: error= 1.95D-07 at cycle  16 NSaved=  16.
 NSaved=16 IEnMin=16 EnMin= -4069.81128320736     IErMin=16 ErrMin= 1.95D-07
 ErrMax= 1.95D-07  0.00D+00 EMaxC= 1.00D-01 BMatC= 9.26D-11 BMatP= 2.33D-10
 IDIUse=1 WtCom= 1.00D+00 WtEn= 0.00D+00
 Coeff-Com: -0.142D-04 0.288D-04 0.463D-04 0.514D-04-0.386D-04-0.639D-03
 Coeff-Com: -0.188D-02-0.420D-02 0.438D-02 0.252D-01 0.209D-01-0.643D-01
 Coeff-Com: -0.782D-01-0.429D-01 0.404D+00 0.738D+00
 Coeff:     -0.142D-04 0.288D-04 0.463D-04 0.514D-04-0.386D-04-0.639D-03
 Coeff:     -0.188D-02-0.420D-02 0.438D-02 0.252D-01 0.209D-01-0.643D-01
 Coeff:     -0.782D-01-0.429D-01 0.404D+00 0.738D+00
 Gap=     0.122 Goal=   None    Shift=    0.000
 RMSDP=2.43D-08 MaxDP=1.59D-06 DE=-9.53D-10 OVMax= 1.31D-05

 Cycle  17  Pass 1  IDiag  1:
 RMSU=  1.09D-08    CP:  9.64D-01  1.49D+00  6.86D-01  6.25D-01  8.73D-01
                    CP:  9.16D-01  1.14D+00  1.37D+00  1.80D+00  2.26D+00
                    CP:  2.01D+00  1.99D+00  1.47D+00  1.34D+00  1.44D+00
                    CP:  1.23D+00
 E= -4069.81128320768     Delta-E=       -0.000000000327 Rises=F Damp=F
 DIIS: error= 9.49D-08 at cycle  17 NSaved=  17.
 NSaved=17 IEnMin=17 EnMin= -4069.81128320768     IErMin=17 ErrMin= 9.49D-08
 ErrMax= 9.49D-08  0.00D+00 EMaxC= 1.00D-01 BMatC= 1.91D-11 BMatP= 9.26D-11
 IDIUse=1 WtCom= 1.00D+00 WtEn= 0.00D+00
 Coeff-Com: -0.761D-05 0.148D-04 0.298D-04 0.436D-04 0.802D-04-0.137D-03
 Coeff-Com: -0.943D-03-0.289D-02 0.616D-04 0.984D-02 0.180D-01-0.859D-02
 Coeff-Com: -0.355D-01-0.102D+00-0.185D-01 0.291D+00 0.849D+00
 Coeff:     -0.761D-05 0.148D-04 0.298D-04 0.436D-04 0.802D-04-0.137D-03
 Coeff:     -0.943D-03-0.289D-02 0.616D-04 0.984D-02 0.180D-01-0.859D-02
 Coeff:     -0.355D-01-0.102D+00-0.185D-01 0.291D+00 0.849D+00
 Gap=     0.122 Goal=   None    Shift=    0.000
 RMSDP=1.38D-08 MaxDP=8.98D-07 DE=-3.27D-10 OVMax= 9.78D-06

 Cycle  18  Pass 1  IDiag  1:
 RMSU=  5.37D-09    CP:  9.64D-01  1.49D+00  6.86D-01  6.25D-01  8.73D-01
                    CP:  9.16D-01  1.14D+00  1.37D+00  1.80D+00  2.26D+00
                    CP:  2.01D+00  1.99D+00  1.49D+00  1.40D+00  1.60D+00
                    CP:  1.63D+00  1.35D+00
 E= -4069.81128320789     Delta-E=       -0.000000000204 Rises=F Damp=F
 DIIS: error= 6.84D-08 at cycle  18 NSaved=  18.
 NSaved=18 IEnMin=18 EnMin= -4069.81128320789     IErMin=18 ErrMin= 6.84D-08
 ErrMax= 6.84D-08  0.00D+00 EMaxC= 1.00D-01 BMatC= 8.37D-12 BMatP= 1.91D-11
 IDIUse=1 WtCom= 1.00D+00 WtEn= 0.00D+00
 Coeff-Com:  0.113D-05-0.260D-05-0.111D-05 0.326D-05 0.651D-04 0.160D-03
 Coeff-Com:  0.266D-03-0.621D-04-0.125D-02-0.470D-02 0.155D-02 0.170D-01
 Coeff-Com:  0.135D-01-0.394D-01-0.152D+00-0.156D+00 0.413D+00 0.907D+00
 Coeff:      0.113D-05-0.260D-05-0.111D-05 0.326D-05 0.651D-04 0.160D-03
 Coeff:      0.266D-03-0.621D-04-0.125D-02-0.470D-02 0.155D-02 0.170D-01
 Coeff:      0.135D-01-0.394D-01-0.152D+00-0.156D+00 0.413D+00 0.907D+00
 Gap=     0.122 Goal=   None    Shift=    0.000
 RMSDP=1.13D-08 MaxDP=6.68D-07 DE=-2.04D-10 OVMax= 6.06D-06

 Cycle  19  Pass 1  IDiag  1:
 RMSU=  3.18D-09    CP:  9.64D-01  1.49D+00  6.86D-01  6.25D-01  8.73D-01
                    CP:  9.16D-01  1.14D+00  1.37D+00  1.80D+00  2.27D+00
                    CP:  2.01D+00  2.00D+00  1.50D+00  1.44D+00  1.74D+00
                    CP:  1.92D+00  1.87D+00  1.22D+00
 E= -4069.81128320795     Delta-E=       -0.000000000058 Rises=F Damp=F
 DIIS: error= 2.99D-08 at cycle  19 NSaved=  19.
 NSaved=19 IEnMin=19 EnMin= -4069.81128320795     IErMin=19 ErrMin= 2.99D-08
 ErrMax= 2.99D-08  0.00D+00 EMaxC= 1.00D-01 BMatC= 2.19D-12 BMatP= 8.37D-12
 IDIUse=1 WtCom= 1.00D+00 WtEn= 0.00D+00
 Coeff-Com:  0.308D-05-0.624D-05-0.102D-04-0.121D-04 0.189D-04 0.137D-03
 Coeff-Com:  0.486D-03 0.830D-03-0.699D-03-0.636D-02-0.483D-02 0.132D-01
 Coeff-Com:  0.214D-01 0.903D-02-0.832D-01-0.196D+00-0.152D-02 0.531D+00
 Coeff-Com:  0.717D+00
 Coeff:      0.308D-05-0.624D-05-0.102D-04-0.121D-04 0.189D-04 0.137D-03
 Coeff:      0.486D-03 0.830D-03-0.699D-03-0.636D-02-0.483D-02 0.132D-01
 Coeff:      0.214D-01 0.903D-02-0.832D-01-0.196D+00-0.152D-02 0.531D+00
 Coeff:      0.717D+00
 Gap=     0.122 Goal=   None    Shift=    0.000
 RMSDP=5.38D-09 MaxDP=4.14D-07 DE=-5.82D-11 OVMax= 3.85D-06

 SCF Done:  E(RCAM-B3LYP) =  -4069.81128321     A.U. after   19 cycles
            NFock= 19  Conv=0.54D-08     -V/T= 2.0102
 KE= 4.028802207312D+03 PE=-3.815709410760D+04 EE= 1.572061324549D+04
 Leave Link  502 at Sat Sep 11 13:42:05 2021, MaxMem= 23488102400 cpu:           12476.5 elap:             544.6
 (Enter /sw/apps/gaussian-16.0/g16/l801.exe)
 DoSCS=F DFT=T ScalE2(SS,OS)=  1.000000  1.000000
 ExpMin= 3.36D-02 ExpMax= 4.95D+03 ExpMxC= 7.45D+02 IAcc=3 IRadAn=         5 AccDes= 0.00D+00
 HarFok:  IExCor=  205 AccDes= 0.00D+00 IRadAn=         5 IDoV=-2 UseB2=F ITyADJ=14
 ICtDFT= 12500011 ScaDFX=  1.000000  1.000000  1.000000  1.000000
 GSVD:  LWork=       -9588 too small for GESVD, short by       45590 words or       45590 for optimal perf.
 Largest valence mixing into a core orbital is  2.03D-04
 Largest core mixing into a valence orbital is  5.23D-05
 Range of M.O.s used for correlation:    95  1572
 NBasis=  1572 NAE=   312 NBE=   312 NFC=    94 NFV=     0
 NROrb=   1478 NOA=   218 NOB=   218 NVA=  1260 NVB=  1260
 Leave Link  801 at Sat Sep 11 13:42:06 2021, MaxMem= 23488102400 cpu:               9.5 elap:               0.4
 (Enter /sw/apps/gaussian-16.0/g16/l914.exe)
 RHF ground state
 Two-electron integrals replicated using symmetry.
 MDV= 23488102400 DFT=T DoStab=F Mixed=T DoRPA=T DoScal=F NonHer=T
 Making orbital integer symmetry assigments:
 Orbital symmetries:
       Occupied  (A) (A) (A) (A) (A) (A) (A) (A) (A) (A) (A) (A)
                 (A) (A) (A) (A) (A) (A) (A) (A) (A) (A) (A) (A)
                 (A) (A) (A) (A) (A) (A) (A) (A) (A) (A) (A) (A)
                 (A) (A) (A) (A) (A) (A) (A) (A) (A) (A) (A) (A)
                 (A) (A) (A) (A) (A) (A) (A) (A) (A) (A) (A) (A)
                 (A) (A) (A) (A) (A) (A) (A) (A) (A) (A) (A) (A)
                 (A) (A) (A) (A) (A) (A) (A) (A) (A) (A) (A) (A)
                 (A) (A) (A) (A) (A) (A) (A) (A) (A) (A) (A) (A)
                 (A) (A) (A) (A) (A) (A) (A) (A) (A) (A) (A) (A)
                 (A) (A) (A) (A) (A) (A) (A) (A) (A) (A) (A) (A)
                 (A) (A) (A) (A) (A) (A) (A) (A) (A) (A) (A) (A)
                 (A) (A) (A) (A) (A) (A) (A) (A) (A) (A) (A) (A)
                 (A) (A) (A) (A) (A) (A) (A) (A) (A) (A) (A) (A)
                 (A) (A) (A) (A) (A) (A) (A) (A) (A) (A) (A) (A)
                 (A) (A) (A) (A) (A) (A) (A) (A) (A) (A) (A) (A)
                 (A) (A) (A) (A) (A) (A) (A) (A) (A) (A) (A) (A)
                 (A) (A) (A) (A) (A) (A) (A) (A) (A) (A) (A) (A)
                 (A) (A) (A) (A) (A) (A) (A) (A) (A) (A) (A) (A)
                 (A) (A) (A) (A) (A) (A) (A) (A) (A) (A) (A) (A)
                 (A) (A) (A) (A) (A) (A) (A) (A) (A) (A) (A) (A)
                 (A) (A) (A) (A) (A) (A) (A) (A) (A) (A) (A) (A)
                 (A) (A) (A) (A) (A) (A) (A) (A) (A) (A) (A) (A)
                 (A) (A) (A) (A) (A) (A) (A) (A) (A) (A) (A) (A)
                 (A) (A) (A) (A) (A) (A) (A) (A) (A) (A) (A) (A)
                 (A) (A) (A) (A) (A) (A) (A) (A) (A) (A) (A) (A)
                 (A) (A) (A) (A) (A) (A) (A) (A) (A) (A) (A) (A)
       Virtual   (A) (A) (A) (A) (A) (A) (A) (A) (A) (A) (A) (A)
                 (A) (A) (A) (A) (A) (A) (A) (A) (A) (A) (A) (A)
                 (A) (A) (A) (A) (A) (A) (A) (A) (A) (A) (A) (A)
                 (A) (A) (A) (A) (A) (A) (A) (A) (A) (A) (A) (A)
                 (A) (A) (A) (A) (A) (A) (A) (A) (A) (A) (A) (A)
                 (A) (A) (A) (A) (A) (A) (A) (A) (A) (A) (A) (A)
                 (A) (A) (A) (A) (A) (A) (A) (A) (A) (A) (A) (A)
                 (A) (A) (A) (A) (A) (A) (A) (A) (A) (A) (A) (A)
                 (A) (A) (A) (A) (A) (A) (A) (A) (A) (A) (A) (A)
                 (A) (A) (A) (A) (A) (A) (A) (A) (A) (A) (A) (A)
                 (A) (A) (A) (A) (A) (A) (A) (A) (A) (A) (A) (A)
                 (A) (A) (A) (A) (A) (A) (A) (A) (A) (A) (A) (A)
                 (A) (A) (A) (A) (A) (A) (A) (A) (A) (A) (A) (A)
                 (A) (A) (A) (A) (A) (A) (A) (A) (A) (A) (A) (A)
                 (A) (A) (A) (A) (A) (A) (A) (A) (A) (A) (A) (A)
                 (A) (A) (A) (A) (A) (A) (A) (A) (A) (A) (A) (A)
                 (A) (A) (A) (A) (A) (A) (A) (A) (A) (A) (A) (A)
                 (A) (A) (A) (A) (A) (A) (A) (A) (A) (A) (A) (A)
                 (A) (A) (A) (A) (A) (A) (A) (A) (A) (A) (A) (A)
                 (A) (A) (A) (A) (A) (A) (A) (A) (A) (A) (A) (A)
                 (A) (A) (A) (A) (A) (A) (A) (A) (A) (A) (A) (A)
                 (A) (A) (A) (A) (A) (A) (A) (A) (A) (A) (A) (A)
                 (A) (A) (A) (A) (A) (A) (A) (A) (A) (A) (A) (A)
                 (A) (A) (A) (A) (A) (A) (A) (A) (A) (A) (A) (A)
                 (A) (A) (A) (A) (A) (A) (A) (A) (A) (A) (A) (A)
                 (A) (A) (A) (A) (A) (A) (A) (A) (A) (A) (A) (A)
                 (A) (A) (A) (A) (A) (A) (A) (A) (A) (A) (A) (A)
                 (A) (A) (A) (A) (A) (A) (A) (A) (A) (A) (A) (A)
                 (A) (A) (A) (A) (A) (A) (A) (A) (A) (A) (A) (A)
                 (A) (A) (A) (A) (A) (A) (A) (A) (A) (A) (A) (A)
                 (A) (A) (A) (A) (A) (A) (A) (A) (A) (A) (A) (A)
                 (A) (A) (A) (A) (A) (A) (A) (A) (A) (A) (A) (A)
                 (A) (A) (A) (A) (A) (A) (A) (A) (A) (A) (A) (A)
                 (A) (A) (A) (A) (A) (A) (A) (A) (A) (A) (A) (A)
                 (A) (A) (A) (A) (A) (A) (A) (A) (A) (A) (A) (A)
                 (A) (A) (A) (A) (A) (A) (A) (A) (A) (A) (A) (A)
                 (A) (A) (A) (A) (A) (A) (A) (A) (A) (A) (A) (A)
                 (A) (A) (A) (A) (A) (A) (A) (A) (A) (A) (A) (A)
                 (A) (A) (A) (A) (A) (A) (A) (A) (A) (A) (A) (A)
                 (A) (A) (A) (A) (A) (A) (A) (A) (A) (A) (A) (A)
                 (A) (A) (A) (A) (A) (A) (A) (A) (A) (A) (A) (A)
                 (A) (A) (A) (A) (A) (A) (A) (A) (A) (A) (A) (A)
                 (A) (A) (A) (A) (A) (A) (A) (A) (A) (A) (A) (A)
                 (A) (A) (A) (A) (A) (A) (A) (A) (A) (A) (A) (A)
                 (A) (A) (A) (A) (A) (A) (A) (A) (A) (A) (A) (A)
                 (A) (A) (A) (A) (A) (A) (A) (A) (A) (A) (A) (A)
                 (A) (A) (A) (A) (A) (A) (A) (A) (A) (A) (A) (A)
                 (A) (A) (A) (A) (A) (A) (A) (A) (A) (A) (A) (A)
                 (A) (A) (A) (A) (A) (A) (A) (A) (A) (A) (A) (A)
                 (A) (A) (A) (A) (A) (A) (A) (A) (A) (A) (A) (A)
                 (A) (A) (A) (A) (A) (A) (A) (A) (A) (A) (A) (A)
                 (A) (A) (A) (A) (A) (A) (A) (A) (A) (A) (A) (A)
                 (A) (A) (A) (A) (A) (A) (A) (A) (A) (A) (A) (A)
                 (A) (A) (A) (A) (A) (A) (A) (A) (A) (A) (A) (A)
                 (A) (A) (A) (A) (A) (A) (A) (A) (A) (A) (A) (A)
                 (A) (A) (A) (A) (A) (A) (A) (A) (A) (A) (A) (A)
                 (A) (A) (A) (A) (A) (A) (A) (A) (A) (A) (A) (A)
                 (A) (A) (A) (A) (A) (A) (A) (A) (A) (A) (A) (A)
                 (A) (A) (A) (A) (A) (A) (A) (A) (A) (A) (A) (A)
                 (A) (A) (A) (A) (A) (A) (A) (A) (A) (A) (A) (A)
                 (A) (A) (A) (A) (A) (A) (A) (A) (A) (A) (A) (A)
                 (A) (A) (A) (A) (A) (A) (A) (A) (A) (A) (A) (A)
                 (A) (A) (A) (A) (A) (A) (A) (A) (A) (A) (A) (A)
                 (A) (A) (A) (A) (A) (A) (A) (A) (A) (A) (A) (A)
                 (A) (A) (A) (A) (A) (A) (A) (A) (A) (A) (A) (A)
                 (A) (A) (A) (A) (A) (A) (A) (A) (A) (A) (A) (A)
                 (A) (A) (A) (A) (A) (A) (A) (A) (A) (A) (A) (A)
                 (A) (A) (A) (A) (A) (A) (A) (A) (A) (A) (A) (A)
                 (A) (A) (A) (A) (A) (A) (A) (A) (A) (A) (A) (A)
                 (A) (A) (A) (A) (A) (A) (A) (A) (A) (A) (A) (A)
                 (A) (A) (A) (A) (A) (A) (A) (A) (A) (A) (A) (A)
                 (A) (A) (A) (A) (A) (A) (A) (A) (A) (A) (A) (A)
                 (A) (A) (A) (A) (A) (A) (A) (A) (A) (A) (A) (A)
                 (A) (A) (A) (A) (A) (A) (A) (A) (A) (A) (A) (A)
                 (A) (A) (A) (A) (A) (A) (A) (A) (A) (A) (A) (A)
                 (A) (A) (A) (A) (A) (A) (A) (A) (A) (A) (A) (A)
                 (A) (A) (A) (A) (A) (A) (A) (A) (A) (A) (A) (A)
                 (A) (A) (A) (A) (A) (A) (A) (A) (A) (A) (A) (A)
                 (A) (A) (A) (A) (A) (A) (A) (A) (A) (A) (A) (A)
                 (A) (A) (A) (A) (A) (A) (A) (A) (A) (A) (A) (A)
                 (A) (A) (A) (A) (A) (A) (A) (A) (A) (A) (A) (A)
                 (A) (A) (A) (A) (A) (A) (A) (A) (A) (A) (A) (A)
                 (A) (A) (A) (A) (A) (A) (A) (A) (A) (A) (A) (A)
                 (A) (A) (A) (A) (A) (A) (A) (A) (A) (A) (A) (A)
                 (A) (A) (A) (A) (A) (A) (A) (A) (A) (A) (A) (A)
                 (A) (A) (A) (A) (A) (A) (A) (A) (A) (A) (A) (A)
                 (A) (A) (A) (A) (A) (A) (A) (A) (A) (A) (A) (A)
                 (A) (A) (A) (A) (A) (A) (A) (A) (A) (A) (A) (A)
                 (A) (A) (A) (A) (A) (A) (A) (A) (A) (A) (A) (A)
                 (A) (A) (A) (A) (A) (A) (A) (A) (A) (A) (A) (A)
                 (A) (A) (A) (A) (A) (A) (A) (A) (A) (A) (A) (A)
                 (A) (A) (A) (A) (A) (A) (A) (A) (A) (A) (A) (A)
                 (A) (A) (A) (A) (A) (A) (A) (A) (A) (A) (A) (A)
                 (A) (A) (A) (A) (A) (A) (A) (A) (A) (A) (A) (A)
                 (A) (A) (A) (A) (A) (A) (A) (A) (A) (A) (A) (A)
                 (A) (A) (A) (A) (A) (A) (A) (A) (A) (A) (A) (A)
                 (A) (A) (A) (A) (A) (A) (A) (A) (A) (A) (A) (A)
                 (A) (A) (A) (A) (A) (A) (A) (A) (A) (A) (A) (A)
                 (A) (A) (A) (A) (A) (A) (A) (A) (A) (A) (A) (A)
                 (A) (A) (A) (A) (A) (A) (A) (A) (A) (A) (A) (A)
                 (A) (A) (A) (A) (A) (A) (A) (A) (A) (A) (A) (A)
                 (A) (A) (A) (A) (A) (A) (A) (A) (A) (A) (A) (A)
                 (A) (A) (A) (A) (A) (A) (A) (A) (A) (A) (A) (A)
                 (A) (A) (A) (A) (A) (A) (A) (A) (A) (A) (A) (A)
                 (A) (A) (A) (A) (A) (A) (A) (A) (A) (A) (A) (A)
    20 initial guesses have been made.
 Convergence on wavefunction:    0.001000000000000
 Davidson Disk Diagonalization:  ConvIn= 1.00D-03 SkipCon=T Conv= 1.00D-03.
 Max sub-space:  2000 roots to seek:    20 dimension of matrix:       549360
 Iteration     1 Dimension    20 NMult     0 NNew     20
 CISAX will form    20 AO SS matrices at one time.
 NMat=    20 NSing=    20 JSym2X= 0.
 FoFJK:  IHMeth= 1 ICntrl=       0 DoSepK=T KAlg= 0 I1Cent=           0 FoldK=F
 IRaf=         1 NMat=      40 IRICut=       1 DoRegI=T DoRafI=F ISym2E= 0 IDoP0=3 IntGTp=3.
 FoFCou: FMM=T IPFlag=           0 FMFlag=      100000 FMFlg1=        2001
         NFxFlg=           0 DoJE=F BraDBF=F KetDBF=F FulRan=T
         wScrn=  0.000000 ICntrl=       500 IOpCl=  0 I1Cent=           0 NGrid=           0
         NMat0=   20 NMatS0=     20 NMatT0=    0 NMatD0=   20 NMtDS0=    0 NMtDT0=    0
 Symmetry not used in FoFCou.
 FMM levels:  10  Number of levels for PrismC:   9
 New state      1 was old state      7
 New state      2 was old state      6
 New state      3 was old state      2
 New state      4 was old state      1
 New state      5 was old state      3
 Excitation Energies [eV] at current iteration:
 Root      1 :     2.612681152532555
 Root      2 :     2.620507409546664
 Root      3 :     2.658915806768813
 Root      4 :     2.661487319778620
 Root      5 :     2.713472139194022
 Root      6 :     2.713624214006887
 Root      7 :     3.447399059914552
 Root      8 :     3.512792760356309
 Root      9 :     3.620827008902763
 Root     10 :     3.665030326053879
 Root     11 :     3.739421696979876
 Root     12 :     3.760665062547475
 Root     13 :     4.282182256478161
 Root     14 :     4.325251391377543
 Root     15 :     4.567528755781390
 Root     16 :     4.658253102871003
 Root     17 :     4.788417174699387
 Root     18 :     4.931468955434219
 Root     19 :     4.973953877408678
 Root     20 :     4.977660475122573
 Iteration     2 Dimension    30 NMult    20 NNew     10
 CISAX will form    10 AO SS matrices at one time.
 NMat=    10 NSing=    10 JSym2X= 0.
 New state      1 was old state      3
 Root      1 not converged, maximum delta is    0.145183359622991
 New state      2 was old state      5
 Root      2 not converged, maximum delta is    0.151043046067289
 New state      3 was old state      1
 Root      3 not converged, maximum delta is    0.317272440025224
 New state      4 was old state      2
 Root      4 not converged, maximum delta is    0.310539116471765
 New state      5 was old state      4
 Root      5 not converged, maximum delta is    0.005782396401256
 Excitation Energies [eV] at current iteration:
 Root      1 :     1.790560503747303   Change is   -0.868355303021510
 Root      2 :     1.817783100072151   Change is   -0.895689039121871
 Root      3 :     2.233890918488372   Change is   -0.378790234044182
 Root      4 :     2.240984417388693   Change is   -0.379522992157971
 Root      5 :     2.660980476197292   Change is   -0.000506843581328
 Iteration     3 Dimension    40 NMult    30 NNew     10
 CISAX will form    10 AO SS matrices at one time.
 NMat=    10 NSing=    10 JSym2X= 0.
 Root      1 not converged, maximum delta is    0.053360916000570
 Root      2 not converged, maximum delta is    0.054128378071236
 Root      3 not converged, maximum delta is    0.084803558715666
 Root      4 not converged, maximum delta is    0.084301928802410
 Root      5 has converged.
 Excitation Energies [eV] at current iteration:
 Root      1 :     1.684090052767062   Change is   -0.106470450980241
 Root      2 :     1.708829262157146   Change is   -0.108953837915005
 Root      3 :     2.193234942336371   Change is   -0.040655976152001
 Root      4 :     2.201100951154681   Change is   -0.039883466234012
 Root      5 :     2.660978315030016   Change is   -0.000002161167276
 Iteration     4 Dimension    48 NMult    40 NNew      8
 CISAX will form     8 AO SS matrices at one time.
 NMat=     8 NSing=     8 JSym2X= 0.
 Root      1 not converged, maximum delta is    0.010441661069225
 Root      2 not converged, maximum delta is    0.010220254615877
 Root      3 not converged, maximum delta is    0.014988674146267
 Root      4 not converged, maximum delta is    0.014805688099959
 Root      5 has converged.
 Excitation Energies [eV] at current iteration:
 Root      1 :     1.667376877585006   Change is   -0.016713175182057
 Root      2 :     1.691954045389361   Change is   -0.016875216767785
 Root      3 :     2.186018756373142   Change is   -0.007216185963229
 Root      4 :     2.194195569919540   Change is   -0.006905381235141
 Root      5 :     2.660978315014785   Change is   -0.000000000015231
 Iteration     5 Dimension    56 NMult    48 NNew      8
 CISAX will form     8 AO SS matrices at one time.
 NMat=     8 NSing=     8 JSym2X= 0.
 Root      1 not converged, maximum delta is    0.001656157810606
 Root      2 not converged, maximum delta is    0.001685798903143
 Root      3 not converged, maximum delta is    0.002303854471615
 Root      4 not converged, maximum delta is    0.002213558922407
 Root      5 has converged.
 Excitation Energies [eV] at current iteration:
 Root      1 :     1.665629381129118   Change is   -0.001747496455887
 Root      2 :     1.690147952695970   Change is   -0.001806092693391
 Root      3 :     2.185184318581113   Change is   -0.000834437792029
 Root      4 :     2.193405909265958   Change is   -0.000789660653582
 Root      5 :     2.660978315003663   Change is   -0.000000000011122
 Iteration     6 Dimension    64 NMult    56 NNew      8
 CISAX will form     8 AO SS matrices at one time.
 NMat=     8 NSing=     8 JSym2X= 0.
 Root      1 not converged, maximum delta is    0.001051398395440
 Root      2 not converged, maximum delta is    0.001072190414590
 Root      3 has converged.
 Root      4 has converged.
 Root      5 has converged.
 Excitation Energies [eV] at current iteration:
 Root      1 :     1.665380777668121   Change is   -0.000248603460997
 Root      2 :     1.689888564606131   Change is   -0.000259388089839
 Root      3 :     2.185057800356113   Change is   -0.000126518224999
 Root      4 :     2.193285579526925   Change is   -0.000120329739032
 Root      5 :     2.660978314990564   Change is   -0.000000000013099
 Iteration     7 Dimension    68 NMult    64 NNew      4
 CISAX will form     4 AO SS matrices at one time.
 NMat=     4 NSing=     4 JSym2X= 0.
 Root      1 has converged.
 Root      2 has converged.
 Root      3 has converged.
 Root      4 has converged.
 Root      5 has converged.
 Excitation Energies [eV] at current iteration:
 Root      1 :     1.665356546781938   Change is   -0.000024230886183
[...]
 Alpha virt. eigenvalues --    1.84522   1.84600   1.84860   1.84876   1.85168
 Alpha virt. eigenvalues --    1.85192   1.85346   1.85404   1.85531   1.85562
 Alpha virt. eigenvalues --    1.85937   1.85979   1.86420   1.86451   1.86617
 Alpha virt. eigenvalues --    1.86722   1.86852   1.86889   1.87123   1.87123
 Alpha virt. eigenvalues --    1.87514   1.87563   1.87767   1.87853   1.87933
 Alpha virt. eigenvalues --    1.88085   1.88106   1.88251   1.88599   1.88640
 Alpha virt. eigenvalues --    1.88889   1.89006   1.89144   1.89186   1.89686
 Alpha virt. eigenvalues --    1.89728   1.89809   1.89952   1.90189   1.90267
 Alpha virt. eigenvalues --    1.90832   1.90974   1.91419   1.91494   1.91514
 Alpha virt. eigenvalues --    1.91665   1.92227   1.92263   1.92693   1.92725
 Alpha virt. eigenvalues --    1.93051   1.93228   1.93400   1.93574   1.94345
 Alpha virt. eigenvalues --    1.94376   1.94751   1.94889   1.95532   1.95658
 Alpha virt. eigenvalues --    1.95804   1.95891   1.96075   1.96113   1.96211
 Alpha virt. eigenvalues --    1.96261   1.96559   1.96666   1.96961   1.97000
 Alpha virt. eigenvalues --    1.97521   1.97616   1.97885   1.97904   1.98245
 Alpha virt. eigenvalues --    1.98245   1.98435   1.98779   1.99144   1.99215
 Alpha virt. eigenvalues --    1.99898   2.00000   2.00727   2.00804   2.01079
 Alpha virt. eigenvalues --    2.01181   2.01561   2.01575   2.01685   2.01739
 Alpha virt. eigenvalues --    2.01807   2.01900   2.02785   2.02855   2.03207
 Alpha virt. eigenvalues --    2.03297   2.03458   2.03487   2.03571   2.03609
 Alpha virt. eigenvalues --    2.04103   2.04112   2.05023   2.05048   2.05579
 Alpha virt. eigenvalues --    2.05700   2.06150   2.06364   2.07002   2.07129
 Alpha virt. eigenvalues --    2.07268   2.07441   2.08613   2.08642   2.09051
 Alpha virt. eigenvalues --    2.09082   2.09666   2.09691   2.10833   2.11101
 Alpha virt. eigenvalues --    2.11258   2.11488   2.11603   2.11609   2.11794
 Alpha virt. eigenvalues --    2.11935   2.12533   2.12536   2.12870   2.12870
 Alpha virt. eigenvalues --    2.12906   2.12949   2.13693   2.13835   2.14199
 Alpha virt. eigenvalues --    2.14325   2.15404   2.15476   2.16004   2.16160
 Alpha virt. eigenvalues --    2.16585   2.16662   2.16840   2.17277   2.17485
 Alpha virt. eigenvalues --    2.17718   2.17773   2.18006   2.18078   2.18139
 Alpha virt. eigenvalues --    2.18415   2.18757   2.18952   2.19318   2.19715
 Alpha virt. eigenvalues --    2.19894   2.20106   2.20298   2.20328   2.20505
 Alpha virt. eigenvalues --    2.21203   2.21234   2.21741   2.21839   2.21851
 Alpha virt. eigenvalues --    2.21965   2.22744   2.22770   2.23386   2.23425
 Alpha virt. eigenvalues --    2.24460   2.24490   2.25009   2.25066   2.26383
 Alpha virt. eigenvalues --    2.26521   2.26846   2.27081   2.27187   2.27287
 Alpha virt. eigenvalues --    2.28204   2.28379   2.29332   2.29504   2.29809
 Alpha virt. eigenvalues --    2.29959   2.30525   2.30698   2.30901   2.31152
 Alpha virt. eigenvalues --    2.31274   2.31287   2.32181   2.32306   2.33209
 Alpha virt. eigenvalues --    2.33305   2.33532   2.33558   2.34200   2.34204
 Alpha virt. eigenvalues --    2.35390   2.35468   2.35864   2.35976   2.36408
 Alpha virt. eigenvalues --    2.36409   2.36511   2.36694   2.37722   2.37750
 Alpha virt. eigenvalues --    2.38313   2.38441   2.38838   2.38924   2.39678
 Alpha virt. eigenvalues --    2.39742   2.40241   2.40330   2.40556   2.40892
 Alpha virt. eigenvalues --    2.41271   2.41334   2.41741   2.41759   2.42132
 Alpha virt. eigenvalues --    2.42218   2.42877   2.42993   2.43154   2.43658
 Alpha virt. eigenvalues --    2.44034   2.44252   2.44799   2.44874   2.44972
 Alpha virt. eigenvalues --    2.45063   2.45620   2.45647   2.46349   2.46364
 Alpha virt. eigenvalues --    2.46555   2.46579   2.46877   2.46885   2.47331
 Alpha virt. eigenvalues --    2.47458   2.47780   2.47951   2.49365   2.49445
 Alpha virt. eigenvalues --    2.49949   2.50118   2.50507   2.50598   2.51196
 Alpha virt. eigenvalues --    2.51343   2.51670   2.51953   2.52450   2.52510
 Alpha virt. eigenvalues --    2.52875   2.53221   2.53979   2.54023   2.54203
 Alpha virt. eigenvalues --    2.54334   2.54860   2.54887   2.55584   2.55737
 Alpha virt. eigenvalues --    2.57925   2.58135   2.58703   2.58957   2.60291
 Alpha virt. eigenvalues --    2.60376   2.60674   2.60971   2.61768   2.61875
 Alpha virt. eigenvalues --    2.62485   2.62596   2.63027   2.63194   2.63997
 Alpha virt. eigenvalues --    2.64270   2.64293   2.64471   2.65143   2.65154
 Alpha virt. eigenvalues --    2.65848   2.65908   2.66831   2.66868   2.66966
 Alpha virt. eigenvalues --    2.67103   2.67970   2.68033   2.68868   2.68920
 Alpha virt. eigenvalues --    2.69098   2.69105   2.69444   2.69643   2.70060
 Alpha virt. eigenvalues --    2.70191   2.71050   2.71120   2.71952   2.72136
 Alpha virt. eigenvalues --    2.72564   2.72736   2.72797   2.72947   2.73325
 Alpha virt. eigenvalues --    2.73332   2.73548   2.73664   2.74577   2.74588
 Alpha virt. eigenvalues --    2.75051   2.75117   2.76574   2.76653   2.77148
 Alpha virt. eigenvalues --    2.77318   2.77517   2.77649   2.78243   2.78335
 Alpha virt. eigenvalues --    2.78743   2.78810   2.79203   2.79207   2.80302
 Alpha virt. eigenvalues --    2.80412   2.80686   2.80754   2.81208   2.81229
 Alpha virt. eigenvalues --    2.82009   2.82071   2.82393   2.82407   2.83815
 Alpha virt. eigenvalues --    2.83856   2.83891   2.83997   2.84586   2.84615
 Alpha virt. eigenvalues --    2.84939   2.84943   2.85723   2.85732   2.86714
 Alpha virt. eigenvalues --    2.87072   2.87238   2.87717   2.88211   2.88278
 Alpha virt. eigenvalues --    2.88580   2.88681   2.88932   2.89005   2.90556
 Alpha virt. eigenvalues --    2.90696   2.91114   2.91244   2.93221   2.93368
 Alpha virt. eigenvalues --    2.93814   2.94261   2.94607   2.94608   2.95426
 Alpha virt. eigenvalues --    2.95499   2.95908   2.96307   2.96409   2.96507
 Alpha virt. eigenvalues --    2.96934   2.97278   2.97895   2.98060   2.98267
 Alpha virt. eigenvalues --    2.98404   2.98440   2.98615   2.98686   2.98862
 Alpha virt. eigenvalues --    2.98947   2.98991   2.99629   2.99826   3.00080
 Alpha virt. eigenvalues --    3.00111   3.00300   3.00370   3.00537   3.01027
 Alpha virt. eigenvalues --    3.01933   3.02040   3.02093   3.02149   3.02839
 Alpha virt. eigenvalues --    3.02869   3.03052   3.03340   3.03378   3.03742
 Alpha virt. eigenvalues --    3.04092   3.04222   3.04464   3.04537   3.04604
 Alpha virt. eigenvalues --    3.04814   3.05345   3.05385   3.06170   3.06198
 Alpha virt. eigenvalues --    3.06865   3.06968   3.07947   3.08191   3.09388
 Alpha virt. eigenvalues --    3.09460   3.09747   3.10453   3.10501   3.10773
 Alpha virt. eigenvalues --    3.11380   3.11509   3.11925   3.12017   3.12215
 Alpha virt. eigenvalues --    3.12338   3.13351   3.13689   3.13693   3.13728
 Alpha virt. eigenvalues --    3.14212   3.14549   3.15962   3.16012   3.17346
 Alpha virt. eigenvalues --    3.17592   3.17911   3.18130   3.19078   3.19188
 Alpha virt. eigenvalues --    3.22437   3.22671   3.24026   3.24516   3.24785
 Alpha virt. eigenvalues --    3.25287   3.26581   3.26716   3.27451   3.27697
 Alpha virt. eigenvalues --    3.29241   3.29301   3.31436   3.31603   3.33235
 Alpha virt. eigenvalues --    3.33488   3.40337   3.40780   3.42855   3.42876
 Alpha virt. eigenvalues --    3.48754   3.48781   3.50091   3.50331   3.50885
 Alpha virt. eigenvalues --    3.51544   3.56621   3.57059   3.59165   3.59387
 Alpha virt. eigenvalues --    3.62585   3.62924   3.66146   3.66241   3.67328
 Alpha virt. eigenvalues --    3.67621   3.73410   3.74118   3.76189   3.76784
          Condensed to atoms (all electrons):
 Mulliken charges:
               1
     1  Mg   0.838663
     2  C   -0.002704
     3  C   -0.094328
     4  C   -0.045962
     5  C   -0.064060
     6  N   -0.256720
     7  C   -0.052463
     8  C   -0.013945
     9  C   -0.086952
    10  C    0.046188
    11  C    0.104853
    12  C    0.053549
    13  C   -0.071627
    14  H    0.036080
    15  N   -0.433079
    16  C    0.168221
    17  C   -0.177421
    18  C   -0.004206
    19  C    0.148579
    20  C    0.110266
    21  C    0.012118
    22  O   -0.249808
    23  C    0.062577
    24  N   -0.341102
    25  C    0.041076
    26  C   -0.028084
    27  C   -0.024004
    28  C    0.074845
    29  C    0.076200
    30  C    0.035175
    31  C   -0.004432
    32  N   -0.310643
    33  C    0.080611
    34  C   -0.169347
    35  C    0.008767
    36  C    0.083251
    37  C    0.127128
    38  C    0.046807
    39  O   -0.187410
    40  C   -0.005590
    41  C    0.212952
    42  O   -0.255952
    43  O   -0.305154
    44  C    0.157266
    45  H   -0.017837
    46  H   -0.017043
    47  H   -0.041444
    48  H    0.001088
    49  H   -0.004364
    50  H    0.025559
    51  H    0.016405
    52  H    0.016462
    53  H    0.010695
    54  H    0.044689
    55  H    0.017952
    56  H    0.017393
    57  H    0.005676
    58  H    0.026686
    59  H    0.038977
    60  H    0.037301
    61  H    0.035482
    62  H    0.031140
    63  H    0.016300
    64  H    0.009521
    65  H    0.023062
    66  H    0.012581
    67  H    0.004729
    68  H    0.006196
    69  H    0.004848
    70  H    0.008549
    71  H    0.017571
    72  H    0.029263
    73  H    0.048495
    74  H    0.008978
    75  H    0.045993
    76  H    0.035030
    77  H    0.043094
    78  H    0.045726
    79  H    0.055069
    80  Mg   0.837610
    81  C   -0.016637
    82  C   -0.087968
    83  C   -0.045637
    84  C   -0.064870
    85  N   -0.254456
    86  C   -0.049731
    87  C   -0.015041
    88  C   -0.090528
    89  C    0.045630
    90  C    0.114362
    91  C    0.062596
    92  C   -0.077623
    93  H    0.034683
    94  N   -0.423404
    95  C    0.162659
    96  C   -0.175014
    97  C   -0.008076
    98  C    0.151916
    99  C    0.099535
   100  C    0.015321
   101  O   -0.253490
   102  C    0.061306
   103  N   -0.350007
   104  C    0.037372
   105  C   -0.019736
   106  C   -0.034831
   107  C    0.089108
   108  C    0.073723
   109  C    0.034765
   110  C   -0.007620
   111  N   -0.324305
   112  C    0.078663
   113  C   -0.162831
   114  C    0.003117
   115  C    0.096050
   116  C    0.131428
   117  C    0.043516
   118  O   -0.185745
   119  C    0.000492
   120  C    0.211320
   121  O   -0.251416
   122  O   -0.305289
   123  C    0.152120
   124  H   -0.020307
   125  H   -0.015871
   126  H   -0.040400
   127  H   -0.000383
   128  H   -0.004796
   129  H    0.023160
   130  H    0.014236
   131  H    0.015303
   132  H    0.013757
   133  H    0.037808
   134  H    0.020589
   135  H    0.019209
   136  H    0.008350
   137  H    0.025612
   138  H    0.039411
   139  H    0.037993
   140  H    0.036063
   141  H    0.033753
   142  H    0.014137
   143  H    0.012414
   144  H    0.024836
   145  H    0.011697
   146  H    0.005658
   147  H    0.005998
   148  H    0.003612
   149  H    0.010791
   150  H    0.017779
   151  H    0.030250
   152  H    0.046335
   153  H    0.007841
   154  H    0.049009
   155  H    0.036653
   156  H    0.044164
   157  H    0.048876
   158  H    0.053425
 Sum of Mulliken charges =  -0.00000
 Mulliken charges with hydrogens summed into heavy atoms:
               1
     1  Mg   0.838663
     2  C   -0.002704
     3  C   -0.112165
     4  C   -0.063004
     5  C   -0.105505
     6  N   -0.256720
     7  C   -0.052463
     8  C   -0.012857
     9  C   -0.091315
    10  C    0.046188
    11  C    0.163278
    12  C    0.108932
    13  C   -0.000203
    15  N   -0.433079
    16  C    0.168221
    17  C   -0.177421
    18  C   -0.004206
    19  C    0.148579
    20  C    0.181606
    21  C    0.012118
    22  O   -0.249808
    23  C    0.166500
    24  N   -0.341102
    25  C    0.041076
    26  C   -0.011784
    27  C   -0.014482
    28  C    0.074845
    29  C    0.116571
    30  C    0.046219
    31  C    0.050951
    32  N   -0.310643
    33  C    0.080611
    34  C   -0.169347
    35  C    0.008767
    36  C    0.083251
    37  C    0.230594
    38  C    0.046807
    39  O   -0.187410
    40  C    0.029440
    41  C    0.212952
    42  O   -0.255952
    43  O   -0.305154
    44  C    0.301154
    80  Mg   0.837610
    81  C   -0.016637
    82  C   -0.108275
    83  C   -0.061508
    84  C   -0.105270
    85  N   -0.254456
    86  C   -0.049731
    87  C   -0.015424
    88  C   -0.095324
    89  C    0.045630
    90  C    0.167061
    91  C    0.114161
    92  C   -0.003142
    94  N   -0.423404
    95  C    0.162659
    96  C   -0.175014
    97  C   -0.008076
    98  C    0.151916
    99  C    0.172908
   100  C    0.015321
   101  O   -0.253490
   102  C    0.169115
   103  N   -0.350007
   104  C    0.037372
   105  C   -0.005598
   106  C   -0.022418
   107  C    0.089108
   108  C    0.115913
   109  C    0.044375
   110  C    0.051200
   111  N   -0.324305
   112  C    0.078663
   113  C   -0.162831
   114  C    0.003117
   115  C    0.096050
   116  C    0.234612
   117  C    0.043516
   118  O   -0.185745
   119  C    0.037145
   120  C    0.211320
   121  O   -0.251416
   122  O   -0.305289
   123  C    0.298586
 Electronic spatial extent (au):  <R**2>=         146745.2324
 Charge=             -0.0000 electrons
 Dipole moment (field-independent basis, Debye):
    X=              1.7298    Y=             -1.7686    Z=              8.1463  Tot=              8.5136
 Quadrupole moment (field-independent basis, Debye-Ang):
   XX=           -494.5172   YY=           -537.5020   ZZ=           -460.3789
   XY=            -12.8829   XZ=             -4.8187   YZ=             56.0794
 Traceless Quadrupole moment (field-independent basis, Debye-Ang):
   XX=              2.9489   YY=            -40.0360   ZZ=             37.0871
   XY=            -12.8829   XZ=             -4.8187   YZ=             56.0794
 Octapole moment (field-independent basis, Debye-Ang**2):
  XXX=            233.2024  YYY=            458.7866  ZZZ=            121.8926  XYY=             24.0869
  XXY=            103.4217  XXZ=            456.3268  XZZ=             -4.4153  YZZ=           -211.5610
  YYZ=            105.5587  XYZ=             50.6953
 Hexadecapole moment (field-independent basis, Debye-Ang**3):
 XXXX=        -136096.2922 YYYY=         -39575.7593 ZZZZ=         -22382.9547 XXXY=          -1442.5587
 XXXZ=          -1399.0194 YYYX=           -489.6164 YYYZ=           1370.0305 ZZZX=            261.3545
 ZZZY=           -111.9813 XXYY=         -31610.2586 XXZZ=         -23992.1110 YYZZ=         -10695.0048
 XXYZ=           1659.6767 YYXZ=            -18.8458 ZZXY=           -106.4638
 N-N= 1.433786737159D+04 E-N=-3.815709409357D+04  KE= 4.028802207312D+03
 Leave Link  601 at Sat Sep 11 14:03:43 2021, MaxMem= 23488102400 cpu:              19.0 elap:               0.9
 (Enter /sw/apps/gaussian-16.0/g16/l9999.exe)
 1\1\GINC-BP1-COMPUTE00090\SP\RCAM-B3LYP TD-FC\def2SVP\C68H72Mg2N8O8\OF
 15641\11-Sep-2021\0\\#p cam-b3lyp/Def2SVP td=(nstates=5)\\TDDFT excite
 d states in gaussian\\0,1\Mg,0,0.,0.,0.\C,0,-0.217,-2.218,2.801\C,0,-1
 .255,2.442,2.026\C,0,-0.245,1.85,-2.564\C,0,0.146,-2.824,-2.037\N,0,-0
 .617,-0.009,2.126\C,0,-0.594,-0.908,3.105\C,0,-0.936,-0.309,4.502\C,0,
 -1.773,0.964,4.032\C,0,-1.155,1.168,2.66\C,0,-3.263,0.685,3.863\C,0,0.
 345,0.11,5.299\C,0,0.124,0.397,6.787\H,0,1.168,0.033,7.733\N,0,-0.185,
 1.961,-0.152\C,0,-0.703,2.8,0.777\C,0,-0.62,4.156,0.193\C,0,-0.187,4.0
 15,-1.225\C,0,-0.214,2.583,-1.38\C,0,-0.887,5.406,0.974\C,0,0.181,5.01
 3,-2.277\O,0,0.303,4.69,-3.508\C,0,0.31,6.414,-1.837\N,0,-0.265,-0.413
 ,-2.029\C,0,-0.279,0.569,-2.937\C,0,-0.196,0.024,-4.332\C,0,0.124,-1.5
 33,-4.18\C,0,0.086,-1.632,-2.635\C,0,-1.451,0.205,-5.197\C,0,1.373,-2.
 07,-4.923\C,0,2.626,-1.49,-4.306\N,0,0.15,-2.144,0.303\C,0,0.173,-3.13
 6,-0.688\C,0,0.173,-4.438,0.004\C,0,0.133,-4.111,1.358\C,0,0.083,-2.69
 5,1.502\C,0,0.149,-5.715,-0.623\C,0,0.096,-4.629,2.716\O,0,0.208,-5.74
 7,3.221\C,0,-0.255,-3.428,3.701\C,0,0.717,-3.482,4.848\O,0,1.931,-3.25
 5,4.669\O,0,0.038,-3.556,6.003\C,0,0.943,-3.583,7.183\H,0,-1.859,3.22,
 2.497\H,0,-0.218,2.453,-3.474\H,0,0.276,-3.747,-2.605\H,0,-1.554,-0.94
 9,5.132\H,0,-1.585,1.831,4.665\H,0,-3.484,-0.377,3.969\H,0,-3.511,1.02
 7,2.858\H,0,-3.852,1.301,4.543\H,0,0.669,1.096,4.966\H,0,1.13,-0.639,5
 .189\H,0,-0.844,0.026,7.125\H,0,0.062,1.477,6.921\H,0,-1.344,5.186,1.9
 38\H,0,-1.651,5.963,0.432\H,0,0.007,6.02,1.084\H,0,-0.635,6.744,-1.405
 \H,0,0.665,6.97,-2.704\H,0,1.048,6.466,-1.036\H,0,0.608,0.501,-4.891\H
 ,0,-0.692,-2.156,-4.547\H,0,-1.267,0.74,-6.129\H,0,-2.204,0.714,-4.596
 \H,0,-1.967,-0.72,-5.453\H,0,1.356,-1.759,-5.967\H,0,1.452,-3.157,-4.9
 02\H,0,2.714,-0.522,-4.798\H,0,3.487,-2.121,-4.529\H,0,2.495,-1.303,-3
 .24\H,0,0.867,-6.333,-0.084\H,0,0.404,-5.642,-1.68\H,0,-0.891,-5.999,-
 0.463\H,0,-1.283,-3.581,4.028\H,0,0.698,-4.478,7.755\H,0,0.833,-2.619,
 7.68\H,0,2.,-3.754,6.976\Mg,0,13.14607,1.18387,1.00547\C,0,11.72213,-0
 .7352,3.6829\C,0,13.10549,3.86932,3.10816\C,0,13.97589,3.00096,-1.4596
 9\C,0,12.02902,-1.2922,-1.17788\N,0,12.47707,1.4121,3.10132\C,0,12.010
 78,0.59916,4.0373\C,0,11.92007,1.23191,5.45186\C,0,11.82516,2.77549,5.
 01919\C,0,12.54382,2.69686,3.67382\C,0,10.40097,3.24508,4.7732\C,0,13.
 20149,0.95474,6.31392\C,0,13.05635,1.27519,7.80322\H,0,13.74579,0.4238
 1,8.76877\N,0,13.94277,3.00095,0.96006\C,0,13.84639,3.95566,1.90902\C,
 0,14.58826,5.11515,1.39001\C,0,14.99096,4.82466,-0.01291\C,0,14.28546,
 3.57882,-0.23708\C,0,14.91903,6.31291,2.23225\C,0,15.8562,5.55469,-0.9
 9506\O,0,15.87665,5.24107,-2.23765\C,0,16.60776,6.70709,-0.47678\N,0,1
 2.83882,1.007,-1.04311\C,0,13.3501,1.90895,-1.89926\C,0,13.23791,1.430
 37,-3.32712\C,0,12.76194,-0.09352,-3.23332\C,0,12.58775,-0.2105,-1.703
 17\C,0,12.27083,2.2115,-4.21649\C,0,13.6377,-1.15038,-3.96048\C,0,14.9
 825,-1.2633,-3.27921\N,0,12.23632,-0.76618,1.19971\C,0,11.82563,-1.623
 64,0.1556\C,0,11.15853,-2.78354,0.78173\C,0,11.20738,-2.50714,2.1564\C
 ,0,11.84095,-1.25326,2.37056\C,0,10.56747,-3.8773,0.08858\C,0,10.85756
 ,-2.98599,3.47437\O,0,10.38239,-4.02889,3.9219\C,0,11.06236,-1.80078,4
 .51347\C,0,11.82421,-2.34261,5.69183\O,0,12.99753,-2.73334,5.56037\O,0
 ,11.122,-2.1093,6.81559\C,0,11.842,-2.61886,8.01299\H,0,12.92752,4.822
 52,3.60678\H,0,14.3399,3.53611,-2.3398\H,0,11.74057,-2.15333,-1.78444\
 H,0,11.04159,0.95031,6.01997\H,0,12.37354,3.41313,5.70771\H,0,9.69478,
 2.4292,4.81535\H,0,10.40461,3.69177,3.78756\H,0,10.14413,4.04993,5.467
 89\H,0,13.98011,1.67863,6.04099\H,0,13.53021,-0.05911,6.1928\H,0,12.00
 829,1.41582,8.09435\H,0,13.52064,2.24533,7.99629\H,0,14.35004,6.31467,
 3.17015\H,0,14.55532,7.19381,1.69225\H,0,15.99167,6.42265,2.40567\H,0,
 15.91362,7.43341,-0.06074\H,0,17.23541,7.04285,-1.30454\H,0,17.24168,6
 .36808,0.35017\H,0,14.19937,1.46826,-3.82435\H,0,11.76484,-0.23688,-3.
 67498\H,0,12.74988,2.62582,-5.12364\H,0,11.82689,3.00201,-3.62611\H,0,
 11.39733,1.65391,-4.55009\H,0,13.83579,-0.8358,-4.98808\H,0,13.17963,-
 2.13272,-4.00705\H,0,15.55101,-0.43729,-3.71692\H,0,15.44534,-2.22261,
 -3.50179\H,0,14.89618,-1.07051,-2.20355\H,0,10.86214,-4.77536,0.61505\
 H,0,10.88181,-3.9047,-0.95267\H,0,9.50887,-3.62414,0.19126\H,0,10.0732
 4,-1.43892,4.79679\H,0,11.15967,-3.30068,8.52994\H,0,12.17249,-1.72057
 ,8.5676\H,0,12.69819,-3.26215,7.84691\\Version=ES64L-G16RevA.03\State=
 1-A\HF=-4069.8112832\RMSD=5.384e-09\PG=C01 [X(C68H72Mg2N8O8)]\\@


 THE SECRET OF SUCCESS IN LIFE IS TO EAT WHAT YOU LIKE, AND LET THE FOOD
 FIGHT IT OUT INSIDE YOU. -- FROM A FORTUNE COOKIE
 Job cpu time:       0 days 12 hours  7 minutes 25.6 seconds.
 Elapsed time:       0 days  0 hours 30 minutes 55.4 seconds.
 File lengths (MBytes):  RWF=  13225 Int=      0 D2E=      0 Chk=    574 Scr=      1
 Normal termination of Gaussian 16 at Sat Sep 11 14:03:44 2021.
