 Entering Gaussian System, Link 0=g16
 Initial command:
 /sw/apps/gaussian-16.0/g16/l1.exe "/tmp/Gau-96874.inp" -scrdir="/tmp/"
 Entering Link 1 = /sw/apps/gaussian-16.0/g16/l1.exe PID=     96875.
  
 Copyright (c) 1988,1990,1992,1993,1995,1998,2003,2009,2016,
            Gaussian, Inc.  All Rights Reserved.
  
 This is part of the Gaussian(R) 16 program.  It is based on
 the Gaussian(R) 09 system (copyright 2009, Gaussian, Inc.),
 the Gaussian(R) 03 system (copyright 2003, Gaussian, Inc.),
 the Gaussian(R) 98 system (copyright 1998, Gaussian, Inc.),
 the Gaussian(R) 94 system (copyright 1995, Gaussian, Inc.),
 the Gaussian 92(TM) system (copyright 1992, Gaussian, Inc.),
 the Gaussian 90(TM) system (copyright 1990, Gaussian, Inc.),
 the Gaussian 88(TM) system (copyright 1988, Gaussian, Inc.),
 the Gaussian 86(TM) system (copyright 1986, Carnegie Mellon
 University), and the Gaussian 82(TM) system (copyright 1983,
 Carnegie Mellon University). Gaussian is a federally registered
 trademark of Gaussian, Inc.
  
 This software contains proprietary and confidential information,
 including trade secrets, belonging to Gaussian, Inc.
  
 This software is provided under written license and may be
 used, copied, transmitted, or stored only in accord with that
 written license.
  
 The following legend is applicable only to US Government
 contracts under FAR:
  
                    RESTRICTED RIGHTS LEGEND
  
 Use, reproduction and disclosure by the US Government is
 subject to restrictions as set forth in subparagraphs (a)
 and (c) of the Commercial Computer Software - Restricted
 Rights clause in FAR 52.227-19.
  
 Gaussian, Inc.
 340 Quinnipiac St., Bldg. 40, Wallingford CT 06492
  
  
 ---------------------------------------------------------------
 Warning -- This program may not be used in any manner that
 competes with the business of Gaussian, Inc. or will provide
 assistance to any competitor of Gaussian, Inc.  The licensee
 of this program is prohibited from giving any competitor of
 Gaussian, Inc. access to this program.  By using this program,
 the user acknowledges that Gaussian, Inc. is engaged in the
 business of creating and licensing software in the field of
 computational chemistry and represents and warrants to the
 licensee that it is not a competitor of Gaussian, Inc. and that
 it will not use this program in any manner prohibited above.
 ---------------------------------------------------------------
  

 Cite this work as:
 Gaussian 16, Revision A.03,
 M. J. Frisch, G. W. Trucks, H. B. Schlegel, G. E. Scuseria, 
 M. A. Robb, J. R. Cheeseman, G. Scalmani, V. Barone, 
 G. A. Petersson, H. Nakatsuji, X. Li, M. Caricato, A. V. Marenich, 
 J. Bloino, B. G. Janesko, R. Gomperts, B. Mennucci, H. P. Hratchian, 
 J. V. Ortiz, A. F. Izmaylov, J. L. Sonnenberg, D. Williams-Young, 
 F. Ding, F. Lipparini, F. Egidi, J. Goings, B. Peng, A. Petrone, 
 T. Henderson, D. Ranasinghe, V. G. Zakrzewski, J. Gao, N. Rega, 
 G. Zheng, W. Liang, M. Hada, M. Ehara, K. Toyota, R. Fukuda, 
 J. Hasegawa, M. Ishida, T. Nakajima, Y. Honda, O. Kitao, H. Nakai, 
 T. Vreven, K. Throssell, J. A. Montgomery, Jr., J. E. Peralta, 
 F. Ogliaro, M. J. Bearpark, J. J. Heyd, E. N. Brothers, K. N. Kudin, 
 V. N. Staroverov, T. A. Keith, R. Kobayashi, J. Normand, 
 K. Raghavachari, A. P. Rendell, J. C. Burant, S. S. Iyengar, 
 J. Tomasi, M. Cossi, J. M. Millam, M. Klene, C. Adamo, R. Cammi, 
 J. W. Ochterski, R. L. Martin, K. Morokuma, O. Farkas, 
 J. B. Foresman, and D. J. Fox, Gaussian, Inc., Wallingford CT, 2016.
 
 ******************************************
 Gaussian 16:  ES64L-G16RevA.03 25-Dec-2016
                12-Sep-2021 
 ******************************************
 %nproc=24
 Will use up to   24 processors via shared memory.
 %mem=175gb
 -----------------------------------
 #p cam-b3lyp/Def2SVP td=(nstates=5)
 -----------------------------------
 1/38=1,172=1/1;
 2/12=2,17=6,18=5,40=1/2;
 3/5=43,7=101,11=9,25=1,30=1,74=-40/1,2,3,8;
 4//1;
 5/5=2,38=5/2;
 8/6=1,10=1,108=5/1;
 9/41=5,42=1,70=2/14;
 6/7=2,8=2,9=2,10=2/1;
 99/5=1,9=1/99;
 Leave Link    1 at Sun Sep 12 13:11:33 2021, MaxMem= 23488102400 cpu:               0.5 elap:               0.0
 (Enter /sw/apps/gaussian-16.0/g16/l101.exe)
 --------------------------------
 TDDFT excited states in gaussian
 --------------------------------
 Symbolic Z-matrix:
 Charge =  0 Multiplicity = 1
 Mg                    0.        0.        0. 
 C                    -0.217    -2.218     2.801 
 C                    -1.255     2.442     2.026 
 C                    -0.245     1.85     -2.564 
 C                     0.146    -2.824    -2.037 
 N                    -0.617    -0.009     2.126 
 C                    -0.594    -0.908     3.105 
 C                    -0.936    -0.309     4.502 
 C                    -1.773     0.964     4.032 
 C                    -1.155     1.168     2.66 
 C                    -3.263     0.685     3.863 
 C                     0.345     0.11      5.299 
 C                     0.124     0.397     6.787 
 H                     1.168     0.033     7.733 
 N                    -0.185     1.961    -0.152 
 C                    -0.703     2.8       0.777 
 C                    -0.62      4.156     0.193 
 C                    -0.187     4.015    -1.225 
 C                    -0.214     2.583    -1.38 
 C                    -0.887     5.406     0.974 
 C                     0.181     5.013    -2.277 
 O                     0.303     4.69     -3.508 
 C                     0.31      6.414    -1.837 
 N                    -0.265    -0.413    -2.029 
 C                    -0.279     0.569    -2.937 
 C                    -0.196     0.024    -4.332 
 C                     0.124    -1.533    -4.18 
 C                     0.086    -1.632    -2.635 
 C                    -1.451     0.205    -5.197 
 C                     1.373    -2.07     -4.923 
 C                     2.626    -1.49     -4.306 
 N                     0.15     -2.144     0.303 
 C                     0.173    -3.136    -0.688 
 C                     0.173    -4.438     0.004 
 C                     0.133    -4.111     1.358 
 C                     0.083    -2.695     1.502 
 C                     0.149    -5.715    -0.623 
 C                     0.096    -4.629     2.716 
 O                     0.208    -5.747     3.221 
 C                    -0.255    -3.428     3.701 
 C                     0.717    -3.482     4.848 
 O                     1.931    -3.255     4.669 
 O                     0.038    -3.556     6.003 
 C                     0.943    -3.583     7.183 
 H                    -1.859     3.22      2.497 
 H                    -0.218     2.453    -3.474 
 H                     0.276    -3.747    -2.605 
 H                    -1.554    -0.949     5.132 
 H                    -1.585     1.831     4.665 
 H                    -3.484    -0.377     3.969 
 H                    -3.511     1.027     2.858 
 H                    -3.852     1.301     4.543 
 H                     0.669     1.096     4.966 
 H                     1.13     -0.639     5.189 
 H                    -0.844     0.026     7.125 
 H                     0.062     1.477     6.921 
 H                    -1.344     5.186     1.938 
 H                    -1.651     5.963     0.432 
 H                     0.007     6.02      1.084 
 H                    -0.635     6.744    -1.405 
 H                     0.665     6.97     -2.704 
 H                     1.048     6.466    -1.036 
 H                     0.608     0.501    -4.891 
 H                    -0.692    -2.156    -4.547 
 H                    -1.267     0.74     -6.129 
 H                    -2.204     0.714    -4.596 
 H                    -1.967    -0.72     -5.453 
 H                     1.356    -1.759    -5.967 
 H                     1.452    -3.157    -4.902 
 H                     2.714    -0.522    -4.798 
 H                     3.487    -2.121    -4.529 
 H                     2.495    -1.303    -3.24 
 H                     0.867    -6.333    -0.084 
 H                     0.404    -5.642    -1.68 
 H                    -0.891    -5.999    -0.463 
 H                    -1.283    -3.581     4.028 
 H                     0.698    -4.478     7.755 
 H                     0.833    -2.619     7.68 
 H                     2.       -3.754     6.976 
 Mg                    31.54049   2.83764   2.38839 
 C                     31.20764   5.85036   0.46698 
 C                     31.03287   1.11091  -0.50908 
 C                     31.37942   0.18125   4.11613 
 C                     30.88385   4.74318   5.23153 
 N                     31.17909   3.50643   0.31129 
 C                     31.13502   4.67539  -0.30995 
 C                     31.08655   4.57938  -1.85849 
 C                     30.4642   3.10472  -1.98862 
 C                     30.94772   2.51761  -0.66417 
 C                     28.94461   3.09085  -1.99079 
 C                     32.51291   4.66019  -2.50731 
 C                     32.51906   4.88339  -4.02121 
 H                     33.57793   5.70635  -4.59914 
 N                     31.73641   0.93879   1.84567 
 C                     31.5112   0.41465   0.62263 
 C                     31.77715  -1.02682   0.74746 
 C                     32.01802  -1.33678   2.18295 
 C                     31.693   -0.05998   2.78646 
 C                     31.86342  -1.94399  -0.43777 
 C                     32.45469  -2.58063   2.89596 
 O                     32.36882  -2.69179   4.16997 
 C                     32.89827  -3.69911   2.05113 
 N                     30.97615   2.4666    4.35466 
 C                     31.04858   1.22792   4.87267 
 C                     30.85784   1.25103   6.3705 
 C                     30.88317   2.79595   6.78302 
 C                     30.99996   3.43067   5.37985 
 C                     29.57125   0.60759   6.88727 
 C                     31.90743   3.21683   7.87225 
 C                     33.31505   3.07442   7.3396 
 N                     31.3021   4.93877   2.83166 
 C                     31.00607   5.51786   4.08509 
 C                     30.82773   6.96755   3.8637 
 C                     31.01112   7.12923   2.48214 
 C                     31.26449   5.86641   1.88164 
 C                     30.4894   7.92586   4.86034 
 C                     31.03747   8.07957   1.39363 
 O                     30.97578   9.30545   1.30904 
 C                     31.04065   7.27674   0.02182 
 C                     32.10874   7.86557  -0.8585 
 O                     33.30822   7.77737  -0.54212 
 O                     31.55867   8.24119  -2.02756 
 C                     32.58077   8.8213   -2.93893 
 H                     30.65916   0.4767   -1.31344 
 H                     31.41973  -0.6889    4.77544 
 H                     30.77404   5.41932   6.08209 
 H                     30.4363   5.30105  -2.33823 
 H                     30.89868   2.56513  -2.82614 
 H                     28.5325   4.06755  -1.78494 
 H                     28.65574   2.38823  -1.22013 
 H                     28.57277   2.67566  -2.9319 
 H                     32.98374   3.66975  -2.46151 
 H                     33.10713   5.41402  -2.0285 
 H                     31.5381   5.20113  -4.395 
 H                     32.69512   3.92351  -4.51279 
 H                     31.47835  -1.46459  -1.34624 
 H                     31.1702  -2.77167  -0.25273 
 H                     32.86679  -2.34944  -0.58447 
 H                     32.09415  -3.98308   1.37644 
 H                     33.25475  -4.46455   2.74315 
 H                     33.72878  -3.356     1.42412 
 H                     31.6707   0.74008   6.87179 
 H                     29.91789   3.12313   7.19657 
 H                     29.7517  -0.20218   7.61925 
 H                     29.01107   0.236     6.03954 
 H                     28.86396   1.29497   7.34819 
 H                     31.83435   2.55329   8.73742 
 H                     31.76438   4.23067   8.23096 
 H                     33.53122   2.01308   7.49427 
 H                     34.00271   3.70326   7.9015 
 H                     33.34851   3.26377   6.2604 
 H                     31.12069   8.78789   4.69043 
 H                     30.62616   7.52317   5.8618 
 H                     29.43449   8.08891   4.62401 
 H                     30.04739   7.37541  -0.4178 
 H                     32.22697   9.81714  -3.2232 
 H                     32.7106   8.08192  -3.75146 
 H                     33.55239   9.05393  -2.51906 
 
 ITRead=  0  0  0  0  0  0  0  0  0  0  0  0  0  0  0  0  0  0  0  0
 ITRead=  0  0  0  0  0  0  0  0  0  0  0  0  0  0  0  0  0  0  0  0
 ITRead=  0  0  0  0  0  0  0  0  0  0  0  0  0  0  0  0  0  0  0  0
 ITRead=  0  0  0  0  0  0  0  0  0  0  0  0  0  0  0  0  0  0  0  0
 ITRead=  0  0  0  0  0  0  0  0  0  0  0  0  0  0  0  0  0  0  0  0
 ITRead=  0  0  0  0  0  0  0  0  0  0  0  0  0  0  0  0  0  0  0  0
 ITRead=  0  0  0  0  0  0  0  0  0  0  0  0  0  0  0  0  0  0  0  0
 ITRead=  0  0  0  0  0  0  0  0  0  0  0  0  0  0  0  0  0  0
 MicOpt= -1 -1 -1 -1 -1 -1 -1 -1 -1 -1 -1 -1 -1 -1 -1 -1 -1 -1 -1 -1
 MicOpt= -1 -1 -1 -1 -1 -1 -1 -1 -1 -1 -1 -1 -1 -1 -1 -1 -1 -1 -1 -1
 MicOpt= -1 -1 -1 -1 -1 -1 -1 -1 -1 -1 -1 -1 -1 -1 -1 -1 -1 -1 -1 -1
 MicOpt= -1 -1 -1 -1 -1 -1 -1 -1 -1 -1 -1 -1 -1 -1 -1 -1 -1 -1 -1 -1
 MicOpt= -1 -1 -1 -1 -1 -1 -1 -1 -1 -1 -1 -1 -1 -1 -1 -1 -1 -1 -1 -1
 MicOpt= -1 -1 -1 -1 -1 -1 -1 -1 -1 -1 -1 -1 -1 -1 -1 -1 -1 -1 -1 -1
 MicOpt= -1 -1 -1 -1 -1 -1 -1 -1 -1 -1 -1 -1 -1 -1 -1 -1 -1 -1 -1 -1
 MicOpt= -1 -1 -1 -1 -1 -1 -1 -1 -1 -1 -1 -1 -1 -1 -1 -1 -1 -1
 NAtoms=    158 NQM=      158 NQMF=       0 NMMI=      0 NMMIF=      0
                NMic=       0 NMicF=      0.
                    Isotopes and Nuclear Properties:
 (Nuclear quadrupole moments (NQMom) in fm**2, nuclear magnetic moments (NMagM)
  in nuclear magnetons)

  Atom         1           2           3           4           5           6           7           8           9          10
 IAtWgt=          24          12          12          12          12          14          12          12          12          12
 AtmWgt=  23.9850450  12.0000000  12.0000000  12.0000000  12.0000000  14.0030740  12.0000000  12.0000000  12.0000000  12.0000000
 NucSpn=           0           0           0           0           0           2           0           0           0           0
 AtZEff=  -0.0000000  -0.0000000  -0.0000000  -0.0000000  -0.0000000  -0.0000000  -0.0000000  -0.0000000  -0.0000000  -0.0000000
 NQMom=    0.0000000   0.0000000   0.0000000   0.0000000   0.0000000   2.0440000   0.0000000   0.0000000   0.0000000   0.0000000
 NMagM=    0.0000000   0.0000000   0.0000000   0.0000000   0.0000000   0.4037610   0.0000000   0.0000000   0.0000000   0.0000000
 AtZNuc=  12.0000000   6.0000000   6.0000000   6.0000000   6.0000000   7.0000000   6.0000000   6.0000000   6.0000000   6.0000000

  Atom        11          12          13          14          15          16          17          18          19          20
 IAtWgt=          12          12          12           1          14          12          12          12          12          12
 AtmWgt=  12.0000000  12.0000000  12.0000000   1.0078250  14.0030740  12.0000000  12.0000000  12.0000000  12.0000000  12.0000000
 NucSpn=           0           0           0           1           2           0           0           0           0           0
 AtZEff=  -0.0000000  -0.0000000  -0.0000000  -0.0000000  -0.0000000  -0.0000000  -0.0000000  -0.0000000  -0.0000000  -0.0000000
 NQMom=    0.0000000   0.0000000   0.0000000   0.0000000   2.0440000   0.0000000   0.0000000   0.0000000   0.0000000   0.0000000
 NMagM=    0.0000000   0.0000000   0.0000000   2.7928460   0.4037610   0.0000000   0.0000000   0.0000000   0.0000000   0.0000000
 AtZNuc=   6.0000000   6.0000000   6.0000000   1.0000000   7.0000000   6.0000000   6.0000000   6.0000000   6.0000000   6.0000000

  Atom        21          22          23          24          25          26          27          28          29          30
 IAtWgt=          12          16          12          14          12          12          12          12          12          12
 AtmWgt=  12.0000000  15.9949146  12.0000000  14.0030740  12.0000000  12.0000000  12.0000000  12.0000000  12.0000000  12.0000000
 NucSpn=           0           0           0           2           0           0           0           0           0           0
 AtZEff=  -0.0000000  -0.0000000  -0.0000000  -0.0000000  -0.0000000  -0.0000000  -0.0000000  -0.0000000  -0.0000000  -0.0000000
 NQMom=    0.0000000   0.0000000   0.0000000   2.0440000   0.0000000   0.0000000   0.0000000   0.0000000   0.0000000   0.0000000
 NMagM=    0.0000000   0.0000000   0.0000000   0.4037610   0.0000000   0.0000000   0.0000000   0.0000000   0.0000000   0.0000000
 AtZNuc=   6.0000000   8.0000000   6.0000000   7.0000000   6.0000000   6.0000000   6.0000000   6.0000000   6.0000000   6.0000000

  Atom        31          32          33          34          35          36          37          38          39          40
 IAtWgt=          12          14          12          12          12          12          12          12          16          12
 AtmWgt=  12.0000000  14.0030740  12.0000000  12.0000000  12.0000000  12.0000000  12.0000000  12.0000000  15.9949146  12.0000000
 NucSpn=           0           2           0           0           0           0           0           0           0           0
 AtZEff=  -0.0000000  -0.0000000  -0.0000000  -0.0000000  -0.0000000  -0.0000000  -0.0000000  -0.0000000  -0.0000000  -0.0000000
 NQMom=    0.0000000   2.0440000   0.0000000   0.0000000   0.0000000   0.0000000   0.0000000   0.0000000   0.0000000   0.0000000
 NMagM=    0.0000000   0.4037610   0.0000000   0.0000000   0.0000000   0.0000000   0.0000000   0.0000000   0.0000000   0.0000000
 AtZNuc=   6.0000000   7.0000000   6.0000000   6.0000000   6.0000000   6.0000000   6.0000000   6.0000000   8.0000000   6.0000000

  Atom        41          42          43          44          45          46          47          48          49          50
 IAtWgt=          12          16          16          12           1           1           1           1           1           1
 AtmWgt=  12.0000000  15.9949146  15.9949146  12.0000000   1.0078250   1.0078250   1.0078250   1.0078250   1.0078250   1.0078250
 NucSpn=           0           0           0           0           1           1           1           1           1           1
 AtZEff=  -0.0000000  -0.0000000  -0.0000000  -0.0000000  -0.0000000  -0.0000000  -0.0000000  -0.0000000  -0.0000000  -0.0000000
 NQMom=    0.0000000   0.0000000   0.0000000   0.0000000   0.0000000   0.0000000   0.0000000   0.0000000   0.0000000   0.0000000
 NMagM=    0.0000000   0.0000000   0.0000000   0.0000000   2.7928460   2.7928460   2.7928460   2.7928460   2.7928460   2.7928460
 AtZNuc=   6.0000000   8.0000000   8.0000000   6.0000000   1.0000000   1.0000000   1.0000000   1.0000000   1.0000000   1.0000000

  Atom        51          52          53          54          55          56          57          58          59          60
 IAtWgt=           1           1           1           1           1           1           1           1           1           1
 AtmWgt=   1.0078250   1.0078250   1.0078250   1.0078250   1.0078250   1.0078250   1.0078250   1.0078250   1.0078250   1.0078250
 NucSpn=           1           1           1           1           1           1           1           1           1           1
 AtZEff=  -0.0000000  -0.0000000  -0.0000000  -0.0000000  -0.0000000  -0.0000000  -0.0000000  -0.0000000  -0.0000000  -0.0000000
 NQMom=    0.0000000   0.0000000   0.0000000   0.0000000   0.0000000   0.0000000   0.0000000   0.0000000   0.0000000   0.0000000
 NMagM=    2.7928460   2.7928460   2.7928460   2.7928460   2.7928460   2.7928460   2.7928460   2.7928460   2.7928460   2.7928460
 AtZNuc=   1.0000000   1.0000000   1.0000000   1.0000000   1.0000000   1.0000000   1.0000000   1.0000000   1.0000000   1.0000000

  Atom        61          62          63          64          65          66          67          68          69          70
 IAtWgt=           1           1           1           1           1           1           1           1           1           1
 AtmWgt=   1.0078250   1.0078250   1.0078250   1.0078250   1.0078250   1.0078250   1.0078250   1.0078250   1.0078250   1.0078250
 NucSpn=           1           1           1           1           1           1           1           1           1           1
 AtZEff=  -0.0000000  -0.0000000  -0.0000000  -0.0000000  -0.0000000  -0.0000000  -0.0000000  -0.0000000  -0.0000000  -0.0000000
 NQMom=    0.0000000   0.0000000   0.0000000   0.0000000   0.0000000   0.0000000   0.0000000   0.0000000   0.0000000   0.0000000
 NMagM=    2.7928460   2.7928460   2.7928460   2.7928460   2.7928460   2.7928460   2.7928460   2.7928460   2.7928460   2.7928460
 AtZNuc=   1.0000000   1.0000000   1.0000000   1.0000000   1.0000000   1.0000000   1.0000000   1.0000000   1.0000000   1.0000000

  Atom        71          72          73          74          75          76          77          78          79          80
 IAtWgt=           1           1           1           1           1           1           1           1           1          24
 AtmWgt=   1.0078250   1.0078250   1.0078250   1.0078250   1.0078250   1.0078250   1.0078250   1.0078250   1.0078250  23.9850450
 NucSpn=           1           1           1           1           1           1           1           1           1           0
 AtZEff=  -0.0000000  -0.0000000  -0.0000000  -0.0000000  -0.0000000  -0.0000000  -0.0000000  -0.0000000  -0.0000000  -0.0000000
 NQMom=    0.0000000   0.0000000   0.0000000   0.0000000   0.0000000   0.0000000   0.0000000   0.0000000   0.0000000   0.0000000
 NMagM=    2.7928460   2.7928460   2.7928460   2.7928460   2.7928460   2.7928460   2.7928460   2.7928460   2.7928460   0.0000000
 AtZNuc=   1.0000000   1.0000000   1.0000000   1.0000000   1.0000000   1.0000000   1.0000000   1.0000000   1.0000000  12.0000000

  Atom        81          82          83          84          85          86          87          88          89          90
 IAtWgt=          12          12          12          12          14          12          12          12          12          12
 AtmWgt=  12.0000000  12.0000000  12.0000000  12.0000000  14.0030740  12.0000000  12.0000000  12.0000000  12.0000000  12.0000000
 NucSpn=           0           0           0           0           2           0           0           0           0           0
 AtZEff=  -0.0000000  -0.0000000  -0.0000000  -0.0000000  -0.0000000  -0.0000000  -0.0000000  -0.0000000  -0.0000000  -0.0000000
 NQMom=    0.0000000   0.0000000   0.0000000   0.0000000   2.0440000   0.0000000   0.0000000   0.0000000   0.0000000   0.0000000
 NMagM=    0.0000000   0.0000000   0.0000000   0.0000000   0.4037610   0.0000000   0.0000000   0.0000000   0.0000000   0.0000000
 AtZNuc=   6.0000000   6.0000000   6.0000000   6.0000000   7.0000000   6.0000000   6.0000000   6.0000000   6.0000000   6.0000000

  Atom        91          92          93          94          95          96          97          98          99         100
 IAtWgt=          12          12           1          14          12          12          12          12          12          12
 AtmWgt=  12.0000000  12.0000000   1.0078250  14.0030740  12.0000000  12.0000000  12.0000000  12.0000000  12.0000000  12.0000000
 NucSpn=           0           0           1           2           0           0           0           0           0           0
 AtZEff=  -0.0000000  -0.0000000  -0.0000000  -0.0000000  -0.0000000  -0.0000000  -0.0000000  -0.0000000  -0.0000000  -0.0000000
 NQMom=    0.0000000   0.0000000   0.0000000   2.0440000   0.0000000   0.0000000   0.0000000   0.0000000   0.0000000   0.0000000
 NMagM=    0.0000000   0.0000000   2.7928460   0.4037610   0.0000000   0.0000000   0.0000000   0.0000000   0.0000000   0.0000000
 AtZNuc=   6.0000000   6.0000000   1.0000000   7.0000000   6.0000000   6.0000000   6.0000000   6.0000000   6.0000000   6.0000000

  Atom       101         102         103         104         105         106         107         108         109         110
 IAtWgt=          16          12          14          12          12          12          12          12          12          12
 AtmWgt=  15.9949146  12.0000000  14.0030740  12.0000000  12.0000000  12.0000000  12.0000000  12.0000000  12.0000000  12.0000000
 NucSpn=           0           0           2           0           0           0           0           0           0           0
 AtZEff=  -0.0000000  -0.0000000  -0.0000000  -0.0000000  -0.0000000  -0.0000000  -0.0000000  -0.0000000  -0.0000000  -0.0000000
 NQMom=    0.0000000   0.0000000   2.0440000   0.0000000   0.0000000   0.0000000   0.0000000   0.0000000   0.0000000   0.0000000
 NMagM=    0.0000000   0.0000000   0.4037610   0.0000000   0.0000000   0.0000000   0.0000000   0.0000000   0.0000000   0.0000000
 AtZNuc=   8.0000000   6.0000000   7.0000000   6.0000000   6.0000000   6.0000000   6.0000000   6.0000000   6.0000000   6.0000000

  Atom       111         112         113         114         115         116         117         118         119         120
 IAtWgt=          14          12          12          12          12          12          12          16          12          12
 AtmWgt=  14.0030740  12.0000000  12.0000000  12.0000000  12.0000000  12.0000000  12.0000000  15.9949146  12.0000000  12.0000000
 NucSpn=           2           0           0           0           0           0           0           0           0           0
 AtZEff=  -0.0000000  -0.0000000  -0.0000000  -0.0000000  -0.0000000  -0.0000000  -0.0000000  -0.0000000  -0.0000000  -0.0000000
 NQMom=    2.0440000   0.0000000   0.0000000   0.0000000   0.0000000   0.0000000   0.0000000   0.0000000   0.0000000   0.0000000
 NMagM=    0.4037610   0.0000000   0.0000000   0.0000000   0.0000000   0.0000000   0.0000000   0.0000000   0.0000000   0.0000000
 AtZNuc=   7.0000000   6.0000000   6.0000000   6.0000000   6.0000000   6.0000000   6.0000000   8.0000000   6.0000000   6.0000000

  Atom       121         122         123         124         125         126         127         128         129         130
 IAtWgt=          16          16          12           1           1           1           1           1           1           1
 AtmWgt=  15.9949146  15.9949146  12.0000000   1.0078250   1.0078250   1.0078250   1.0078250   1.0078250   1.0078250   1.0078250
 NucSpn=           0           0           0           1           1           1           1           1           1           1
 AtZEff=  -0.0000000  -0.0000000  -0.0000000  -0.0000000  -0.0000000  -0.0000000  -0.0000000  -0.0000000  -0.0000000  -0.0000000
 NQMom=    0.0000000   0.0000000   0.0000000   0.0000000   0.0000000   0.0000000   0.0000000   0.0000000   0.0000000   0.0000000
 NMagM=    0.0000000   0.0000000   0.0000000   2.7928460   2.7928460   2.7928460   2.7928460   2.7928460   2.7928460   2.7928460
 AtZNuc=   8.0000000   8.0000000   6.0000000   1.0000000   1.0000000   1.0000000   1.0000000   1.0000000   1.0000000   1.0000000

  Atom       131         132         133         134         135         136         137         138         139         140
 IAtWgt=           1           1           1           1           1           1           1           1           1           1
 AtmWgt=   1.0078250   1.0078250   1.0078250   1.0078250   1.0078250   1.0078250   1.0078250   1.0078250   1.0078250   1.0078250
 NucSpn=           1           1           1           1           1           1           1           1           1           1
 AtZEff=  -0.0000000  -0.0000000  -0.0000000  -0.0000000  -0.0000000  -0.0000000  -0.0000000  -0.0000000  -0.0000000  -0.0000000
 NQMom=    0.0000000   0.0000000   0.0000000   0.0000000   0.0000000   0.0000000   0.0000000   0.0000000   0.0000000   0.0000000
 NMagM=    2.7928460   2.7928460   2.7928460   2.7928460   2.7928460   2.7928460   2.7928460   2.7928460   2.7928460   2.7928460
 AtZNuc=   1.0000000   1.0000000   1.0000000   1.0000000   1.0000000   1.0000000   1.0000000   1.0000000   1.0000000   1.0000000

  Atom       141         142         143         144         145         146         147         148         149         150
 IAtWgt=           1           1           1           1           1           1           1           1           1           1
 AtmWgt=   1.0078250   1.0078250   1.0078250   1.0078250   1.0078250   1.0078250   1.0078250   1.0078250   1.0078250   1.0078250
 NucSpn=           1           1           1           1           1           1           1           1           1           1
 AtZEff=  -0.0000000  -0.0000000  -0.0000000  -0.0000000  -0.0000000  -0.0000000  -0.0000000  -0.0000000  -0.0000000  -0.0000000
 NQMom=    0.0000000   0.0000000   0.0000000   0.0000000   0.0000000   0.0000000   0.0000000   0.0000000   0.0000000   0.0000000
 NMagM=    2.7928460   2.7928460   2.7928460   2.7928460   2.7928460   2.7928460   2.7928460   2.7928460   2.7928460   2.7928460
 AtZNuc=   1.0000000   1.0000000   1.0000000   1.0000000   1.0000000   1.0000000   1.0000000   1.0000000   1.0000000   1.0000000

  Atom       151         152         153         154         155         156         157         158
 IAtWgt=           1           1           1           1           1           1           1           1
 AtmWgt=   1.0078250   1.0078250   1.0078250   1.0078250   1.0078250   1.0078250   1.0078250   1.0078250
 NucSpn=           1           1           1           1           1           1           1           1
 AtZEff=  -0.0000000  -0.0000000  -0.0000000  -0.0000000  -0.0000000  -0.0000000  -0.0000000  -0.0000000
 NQMom=    0.0000000   0.0000000   0.0000000   0.0000000   0.0000000   0.0000000   0.0000000   0.0000000
 NMagM=    2.7928460   2.7928460   2.7928460   2.7928460   2.7928460   2.7928460   2.7928460   2.7928460
 AtZNuc=   1.0000000   1.0000000   1.0000000   1.0000000   1.0000000   1.0000000   1.0000000   1.0000000
 Leave Link  101 at Sun Sep 12 13:11:34 2021, MaxMem= 23488102400 cpu:               3.2 elap:               0.2
 (Enter /sw/apps/gaussian-16.0/g16/l202.exe)
 Stoichiometry    C68H72Mg2N8O8
 Framework group  C1[X(C68H72Mg2N8O8)]
 Deg. of freedom   468
 Full point group                 C1      NOp   1
 Largest Abelian subgroup         C1      NOp   1
 Largest concise Abelian subgroup C1      NOp   1
                         Standard orientation:                         
 ---------------------------------------------------------------------
 Center     Atomic      Atomic             Coordinates (Angstroms)
 Number     Number       Type             X           Y           Z
 ---------------------------------------------------------------------
      1         12           0       15.773087    0.786967    0.205633
      2          6           0       16.157464   -2.748460   -0.200849
      3          6           0       16.648688    1.109385   -3.076505
      4          6           0       15.883208    3.924143    0.655765
      5          6           0       16.044359    0.272519    3.641825
      6          7           0       16.310037   -0.704911   -1.339240
      7          6           0       16.361372   -2.032561   -1.382608
      8          6           0       16.577786   -2.595881   -2.818996
      9          6           0       17.270216   -1.324237   -3.486422
     10          6           0       16.681567   -0.236650   -2.605189
     11          6           0       18.788167   -1.308887   -3.337790
     12          6           0       15.227641   -2.951101   -3.527979
     13          6           0       15.358677   -3.803775   -4.793337
     14          1           0       14.333417   -4.796248   -5.078273
     15          7           0       15.723785    2.270787   -1.097707
     16          6           0       16.102389    2.219937   -2.397460
     17          6           0       15.876231    3.576350   -2.941220
     18          6           0       15.514656    4.467878   -1.804322
     19          6           0       15.720978    3.584406   -0.685266
     20          6           0       15.961224    3.902454   -4.400734
     21          6           0       15.066058    5.893458   -1.736404
     22          8           0       15.028390    6.542953   -0.635808
     23          6           0       14.752113    6.545255   -3.020788
     24          7           0       16.158829    1.968194    1.882994
     25          6           0       16.085938    3.302206    1.819097
     26          6           0       16.119805    3.917023    3.186866
     27          6           0       15.986110    2.706202    4.219238
     28          6           0       15.980475    1.533368    3.207953
     29          6           0       17.373697    4.736730    3.521301
     30          6           0       14.839036    2.790565    5.257277
     31          6           0       13.503554    2.677874    4.556645
     32          7           0       15.873931   -0.930183    1.529367
     33          6           0       16.007150   -0.911992    2.925289
     34          6           0       16.140546   -2.313098    3.364804
     35          6           0       16.091981   -3.052744    2.184800
     36          6           0       15.964378   -2.167956    1.076125
     37          6           0       16.341972   -2.750981    4.703505
     38          6           0       16.142963   -4.383188    1.600697
     39          8           0       16.149606   -5.529062    2.052827
     40          6           0       16.309924   -4.232248    0.024255
     41          6           0       15.311218   -5.148739   -0.628385
     42          8           0       14.085831   -4.934712   -0.528467
     43          8           0       15.952357   -5.986909   -1.457212
     44          6           0       15.015649   -6.904273   -2.159477
     45          1           0       17.136422    1.349138   -4.023382
     46          1           0       15.815767    4.993534    0.866225
     47          1           0       16.047900    0.029486    4.705957
     48          1           0       17.245994   -3.455460   -2.874188
     49          1           0       16.955712   -1.185564   -4.520626
     50          1           0       19.132620   -2.110365   -2.684410
     51          1           0       19.028626   -0.336703   -2.907058
     52          1           0       19.273216   -1.332352   -4.313984
     53          1           0       14.798385   -2.046064   -3.957757
     54          1           0       14.543908   -3.439899   -2.833061
     55          1           0       16.351845   -4.246405   -4.874607
     56          1           0       15.284158   -3.144826   -5.658458
     57          1           0       16.406733    3.086316   -4.968172
     58          1           0       16.670815    4.723292   -4.502786
     59          1           0       14.995885    4.197728   -4.812152
     60          1           0       15.633928    6.521549   -3.661405
     61          1           0       14.363484    7.531704   -2.770318
     62          1           0       13.985040    5.964115   -3.533454
     63          1           0       15.284356    4.601351    3.328798
     64          1           0       16.884379    2.584053    4.824932
     65          1           0       17.159571    5.765258    3.812821
     66          1           0       18.037256    4.705134    2.657598
     67          1           0       18.007099    4.307242    4.297033
     68          1           0       14.855519    3.755404    5.763003
     69          1           0       14.891989    2.014757    6.021195
     70          1           0       13.316281    3.698238    4.224052
     71          1           0       12.734145    2.347552    5.255292
     72          1           0       13.572584    2.052457    3.666379
     73          1           0       15.685529   -3.609371    4.845696
     74          1           0       16.118028   -1.958517    5.417266
     75          1           0       17.402367   -3.001375    4.676669
     76          1           0       17.336516   -4.511808   -0.210429
     77          1           0       15.346922   -7.921825   -1.951921
     78          1           0       14.989831   -6.583072   -3.200903
     79          1           0       13.995356   -6.937719   -1.775780
     80         12           0      -15.943680   -0.820792    0.061002
     81          6           0      -15.910709    2.670252   -0.770031
     82          6           0      -15.126540    0.082870    3.246953
     83          6           0      -15.523065   -3.896008    0.719459
     84          6           0      -15.625717   -1.492098   -3.343987
     85          7           0      -15.592027    1.153055    0.995081
     86          6           0      -15.668080    2.413573    0.595508
     87          6           0      -15.552852    3.458430    1.737673
     88          6           0      -14.751684    2.562802    2.802969
     89          6           0      -15.207430    1.177425    2.349448
     90          6           0      -13.242572    2.644872    2.644239
     91          6           0      -16.954294    3.894565    2.292423
     92          6           0      -16.933270    5.133411    3.190514
     93          1           0      -18.062892    6.056810    3.129189
     94          7           0      -15.887870   -1.764608    1.805897
     95          6           0      -15.556971   -1.240118    3.004515
     96          6           0      -15.650115   -2.347919    3.967972
     97          6           0      -15.902818   -3.605628    3.213627
     98          6           0      -15.757168   -3.130356    1.852384
     99          6           0      -15.581789   -2.142363    5.453398
    100          6           0      -16.210392   -5.007239    3.646189
    101          8           0      -16.157355   -5.991661    2.827084
    102          6           0      -16.484235   -5.206637    5.076835
    103          7           0      -15.409256   -2.453250   -1.110253
    104          6           0      -15.349165   -3.690033   -0.586167
    105          6           0      -15.216435   -4.735094   -1.668128
    106          6           0      -15.444047   -3.957365   -3.046868
    107          6           0      -15.586739   -2.518127   -2.504994
    108          6           0      -13.880548   -5.476322   -1.716769
    109          6           0      -16.550219   -4.505282   -3.989652
    110          6           0      -17.910113   -4.306478   -3.359925
    111          7           0      -15.978376    0.337451   -1.762548
    112          6           0      -15.799999   -0.139650   -3.079599
    113          6           0      -15.791298    1.037808   -3.971752
    114          6           0      -15.943354    2.128590   -3.102526
    115          6           0      -16.019737    1.665139   -1.761299
    116          6           0      -15.607835    1.010854   -5.383039
    117          6           0      -16.045956    3.567432   -3.013642
    118          8           0      -16.130674    4.484344   -3.829631
    119          6           0      -15.902417    3.991042   -1.488401
    120          6           0      -17.001903    4.967553   -1.172085
    121          8           0      -18.192341    4.608504   -1.195962
    122          8           0      -16.460015    6.098514   -0.684588
    123          6           0      -17.511710    7.093920   -0.345597
    124          1           0      -14.649965    0.239833    4.215001
    125          1           0      -15.480951   -4.975719    0.880478
    126          1           0      -15.629417   -1.624285   -4.428048
    127          1           0      -14.978333    4.342479    1.488340
    128          1           0      -15.087097    2.761369    3.817582
    129          1           0      -12.959824    3.201297    1.762991
    130          1           0      -12.898274    1.621495    2.572158
    131          1           0      -12.789563    3.051981    3.552743
    132          1           0      -17.302635    3.144916    3.014527
    133          1           0      -17.652472    4.040818    1.491315
    134          1           0      -15.985424    5.680261    3.116332
    135          1           0      -16.973675    4.807275    4.232637
    136          1           0      -15.225517   -1.135590    5.704197
    137          1           0      -14.800222   -2.809429    5.832901
    138          1           0      -16.522559   -2.378878    5.955070
    139          1           0      -15.627917   -4.873364    5.658301
    140          1           0      -16.769639   -6.255694    5.176288
    141          1           0      -17.327277   -4.568316    5.363957
    142          1           0      -15.978629   -5.497652   -1.564834
    143          1           0      -14.541111   -3.968618   -3.674894
    144          1           0      -13.987385   -6.574382   -1.633485
    145          1           0      -13.249359   -5.094572   -0.925319
    146          1           0      -13.278985   -5.286256   -2.604010
    147          1           0      -16.428107   -5.581949   -4.131145
    148          1           0      -16.544353   -4.048436   -4.973656
    149          1           0      -18.001132   -5.168284   -2.692017
    150          1           0      -18.688769   -4.312201   -4.119997
    151          1           0      -17.927642   -3.404045   -2.737870
    152          1           0      -16.332688    1.694655   -5.804345
    153          1           0      -15.730449    0.005591   -5.780778
    154          1           0      -14.572766    1.356073   -5.451794
    155          1           0      -14.913394    4.433379   -1.362939
    156          1           0      -17.271567    8.011127   -0.892172
    157          1           0      -17.521548    7.153702    0.758972
    158          1           0      -18.518811    6.897451   -0.694309
 ---------------------------------------------------------------------
 Rotational constants (GHZ):           0.0202852           0.0016434           0.0016085
 Leave Link  202 at Sun Sep 12 13:11:34 2021, MaxMem= 23488102400 cpu:               0.2 elap:               0.0
 (Enter /sw/apps/gaussian-16.0/g16/l301.exe)
 Standard basis: def2SVP (5D, 7F)
 Ernie: Thresh=  0.10000D-02 Tol=  0.10000D-05 Strict=F.
 There are  1658 symmetry adapted cartesian basis functions of A   symmetry.
 There are  1572 symmetry adapted basis functions of A   symmetry.
  1572 basis functions,  2678 primitive gaussians,  1658 cartesian basis functions
   312 alpha electrons      312 beta electrons
       nuclear repulsion energy     12305.1380199512 Hartrees.
 IExCor=20419 DFT=T Ex+Corr=CAM-B3LYP ExCW=0 ScaHFX=  1.000000
 ScaDFX=  1.000000  1.000000  1.000000  0.810000 ScalE2=  1.000000  1.000000
 IRadAn=      5 IRanWt=     -1 IRanGd=            0 ICorTp=0 IEmpDi=  4
 HFx  wShort=  0.000000 wLong=  0.330000 cFull=  0.190000 cShort=  0.000000 cLong=  0.460000
 DFx  wShort=  0.000000 wLong=  0.330000 cFull=  0.190000 cShort=  0.000000 cLong=  0.460000
 NAtoms=  158 NActive=  158 NUniq=  158 SFac= 1.00D+00 NAtFMM=   60 NAOKFM=T Big=T
 Integral buffers will be    131072 words long.
 Raffenetti 1 integral format.
 Two-electron integral symmetry is turned on.
 Leave Link  301 at Sun Sep 12 13:11:34 2021, MaxMem= 23488102400 cpu:               1.3 elap:               0.1
 (Enter /sw/apps/gaussian-16.0/g16/l302.exe)
 NPDir=0 NMtPBC=     1 NCelOv=     1 NCel=       1 NClECP=     1 NCelD=      1
         NCelK=      1 NCelE2=     1 NClLst=     1 CellRange=     0.0.
 One-electron integrals computed using PRISM.
 One-electron integral symmetry used in STVInt
   1 Symmetry operations used in ECPInt.
 ECPInt:  NShTT=  271216 NPrTT=  987664 LenC2=  103957 LenP2D=  239866.
 LDataN:  DoStor=T MaxTD1= 4 Len=   56
 NBasis=  1572 RedAO= T EigKep=  3.36D-04  NBF=  1572
 NBsUse=  1572 1.00D-06 EigRej= -1.00D+00 NBFU=  1572
 Precomputing XC quadrature grid using
 IXCGrd= 4 IRadAn=           5 IRanWt=          -1 IRanGd=           0 AccXCQ= 0.00D+00.
 Generated NRdTot=       0 NPtTot=           0 NUsed=           0 NTot=          32
 NSgBfM=   812   812   812   812   812 MxSgAt=   158 MxSgA2=    79.
 Leave Link  302 at Sun Sep 12 13:11:38 2021, MaxMem= 23488102400 cpu:              96.8 elap:               4.1
 (Enter /sw/apps/gaussian-16.0/g16/l303.exe)
 DipDrv:  MaxL=1.
 Leave Link  303 at Sun Sep 12 13:11:38 2021, MaxMem= 23488102400 cpu:               7.7 elap:               0.4
 (Enter /sw/apps/gaussian-16.0/g16/l308.exe)
 Leave Link  308 at Sun Sep 12 13:11:39 2021, MaxMem= 23488102400 cpu:              13.6 elap:               0.6
 (Enter /sw/apps/gaussian-16.0/g16/l401.exe)
 ExpMin= 3.36D-02 ExpMax= 4.95D+03 ExpMxC= 7.45D+02 IAcc=3 IRadAn=         5 AccDes= 0.00D+00
 Harris functional with IExCor=20419 and IRadAn=       5 diagonalized for initial guess.
 HarFok:  IExCor=20419 AccDes= 0.00D+00 IRadAn=         5 IDoV= 1 UseB2=F ITyADJ=14
 ICtDFT=  3500011 ScaDFX=  1.000000  1.000000  1.000000  1.000000
 FoFCou: FMM=F IPFlag=           0 FMFlag=      100000 FMFlg1=        2001
         NFxFlg=           0 DoJE=T BraDBF=F KetDBF=T FulRan=T
         wScrn=  0.000000 ICntrl=       500 IOpCl=  0 I1Cent=   200000004 NGrid=           0
         NMat0=    1 NMatS0=      1 NMatT0=    0 NMatD0=    1 NMtDS0=    0 NMtDT0=    0
 Petite list used in FoFCou.
 Harris En= -3918.65801931433    
 JPrj=0 DoOrth=F DoCkMO=F.
 Leave Link  401 at Sun Sep 12 13:11:45 2021, MaxMem= 23488102400 cpu:             155.7 elap:               6.5
 (Enter /sw/apps/gaussian-16.0/g16/l502.exe)
 Integral symmetry usage will be decided dynamically.
 Closed shell SCF:
 Using DIIS extrapolation, IDIIS=  1040.
 NGot= 23488102400 LenX= 23482547354 LenY= 23479796732
 Requested convergence on RMS density matrix=1.00D-08 within 128 cycles.
 Requested convergence on MAX density matrix=1.00D-06.
 Requested convergence on             energy=1.00D-06.
 No special actions if energy rises.
 Fock matrices will be formed incrementally for  20 cycles.

 Cycle   1  Pass 1  IDiag  1:
 FoFJK:  IHMeth= 1 ICntrl=       0 DoSepK=T KAlg= 0 I1Cent=           0 FoldK=F
 IRaf=         1 NMat=       1 IRICut=       1 DoRegI=T DoRafI=F ISym2E= 0 IDoP0=0 IntGTp=1.
 FoFCou: FMM=T IPFlag=           0 FMFlag=      100000 FMFlg1=        2001
         NFxFlg=           0 DoJE=T BraDBF=F KetDBF=F FulRan=T
         wScrn=  0.000000 ICntrl=       500 IOpCl=  0 I1Cent=           0 NGrid=           0
         NMat0=    1 NMatS0=      1 NMatT0=    0 NMatD0=    1 NMtDS0=    0 NMtDT0=    0
 Symmetry not used in FoFCou.
 FMM levels:  10  Number of levels for PrismC:   9
 E= -4068.94935652478    
 DIIS: error= 2.04D-02 at cycle   1 NSaved=   1.
 NSaved= 1 IEnMin= 1 EnMin= -4068.94935652478     IErMin= 1 ErrMin= 2.04D-02
 ErrMax= 2.04D-02  0.00D+00 EMaxC= 1.00D-01 BMatC= 1.69D+00 BMatP= 1.69D+00
 IDIUse=3 WtCom= 7.96D-01 WtEn= 2.04D-01
 Coeff-Com:  0.100D+01
 Coeff-En:   0.100D+01
 Coeff:      0.100D+01
 Gap=     0.120 Goal=   None    Shift=    0.000
 GapD=    0.120 DampG=1.000 DampE=0.500 DampFc=0.5000 IDamp=-1.
 Damping current iteration by 5.00D-01
 RMSDP=1.57D-03 MaxDP=1.35D-01              OVMax= 2.02D-01

 Cycle   2  Pass 1  IDiag  1:
 RMSU=  7.69D-04    CP:  9.82D-01
 E= -4069.33828430698     Delta-E=       -0.388927782202 Rises=F Damp=T
 DIIS: error= 1.27D-02 at cycle   2 NSaved=   2.
 NSaved= 2 IEnMin= 2 EnMin= -4069.33828430698     IErMin= 2 ErrMin= 1.27D-02
 ErrMax= 1.27D-02  0.00D+00 EMaxC= 1.00D-01 BMatC= 3.07D-01 BMatP= 1.69D+00
 IDIUse=3 WtCom= 8.73D-01 WtEn= 1.27D-01
 Coeff-Com: -0.213D+00 0.121D+01
 Coeff-En:   0.000D+00 0.100D+01
 Coeff:     -0.186D+00 0.119D+01
 Gap=     0.138 Goal=   None    Shift=    0.000
 RMSDP=7.64D-04 MaxDP=9.43D-02 DE=-3.89D-01 OVMax= 1.88D-01

 Cycle   3  Pass 1  IDiag  1:
 RMSU=  7.32D-04    CP:  9.68D-01  1.24D+00
 E= -4069.62818917255     Delta-E=       -0.289904865573 Rises=F Damp=F
 DIIS: error= 1.58D-02 at cycle   3 NSaved=   3.
 NSaved= 3 IEnMin= 3 EnMin= -4069.62818917255     IErMin= 2 ErrMin= 1.27D-02
 ErrMax= 1.58D-02  0.00D+00 EMaxC= 1.00D-01 BMatC= 2.02D-01 BMatP= 3.07D-01
 IDIUse=3 WtCom= 8.42D-01 WtEn= 1.58D-01
 Coeff-Com: -0.267D+00 0.652D+00 0.616D+00
 Coeff-En:   0.000D+00 0.000D+00 0.100D+01
 Coeff:     -0.225D+00 0.549D+00 0.676D+00
 Gap=     0.125 Goal=   None    Shift=    0.000
 RMSDP=5.07D-04 MaxDP=4.86D-02 DE=-2.90D-01 OVMax= 1.42D-01

 Cycle   4  Pass 1  IDiag  1:
 RMSU=  2.65D-04    CP:  9.65D-01  1.55D+00  5.06D-01
 E= -4069.76522980210     Delta-E=       -0.137040629548 Rises=F Damp=F
 DIIS: error= 7.32D-03 at cycle   4 NSaved=   4.
 NSaved= 4 IEnMin= 4 EnMin= -4069.76522980210     IErMin= 4 ErrMin= 7.32D-03
 ErrMax= 7.32D-03  0.00D+00 EMaxC= 1.00D-01 BMatC= 5.03D-02 BMatP= 2.02D-01
 IDIUse=3 WtCom= 9.27D-01 WtEn= 7.32D-02
 Coeff-Com: -0.109D+00 0.226D+00 0.409D+00 0.474D+00
 Coeff-En:   0.000D+00 0.000D+00 0.220D+00 0.780D+00
 Coeff:     -0.101D+00 0.209D+00 0.395D+00 0.497D+00
 Gap=     0.123 Goal=   None    Shift=    0.000
 RMSDP=1.99D-04 MaxDP=2.02D-02 DE=-1.37D-01 OVMax= 6.13D-02

 Cycle   5  Pass 1  IDiag  1:
 RMSU=  7.56D-05    CP:  9.64D-01  1.49D+00  6.89D-01  5.50D-01
 E= -4069.81057198166     Delta-E=       -0.045342179554 Rises=F Damp=F
 DIIS: error= 7.90D-04 at cycle   5 NSaved=   5.
 NSaved= 5 IEnMin= 5 EnMin= -4069.81057198166     IErMin= 5 ErrMin= 7.90D-04
 ErrMax= 7.90D-04  0.00D+00 EMaxC= 1.00D-01 BMatC= 1.16D-03 BMatP= 5.03D-02
 IDIUse=3 WtCom= 9.92D-01 WtEn= 7.90D-03
 Coeff-Com: -0.356D-01 0.699D-01 0.165D+00 0.249D+00 0.552D+00
 Coeff-En:   0.000D+00 0.000D+00 0.000D+00 0.000D+00 0.100D+01
 Coeff:     -0.353D-01 0.694D-01 0.163D+00 0.247D+00 0.556D+00
 Gap=     0.123 Goal=   None    Shift=    0.000
 RMSDP=4.05D-05 MaxDP=4.17D-03 DE=-4.53D-02 OVMax= 1.62D-02

 Cycle   6  Pass 1  IDiag  1:
 RMSU=  3.01D-05    CP:  9.64D-01  1.49D+00  6.81D-01  6.22D-01  7.61D-01
 E= -4069.81156810935     Delta-E=       -0.000996127699 Rises=F Damp=F
 DIIS: error= 2.21D-04 at cycle   6 NSaved=   6.
 NSaved= 6 IEnMin= 6 EnMin= -4069.81156810935     IErMin= 6 ErrMin= 2.21D-04
 ErrMax= 2.21D-04  0.00D+00 EMaxC= 1.00D-01 BMatC= 1.74D-04 BMatP= 1.16D-03
 IDIUse=3 WtCom= 9.98D-01 WtEn= 2.21D-03
 Coeff-Com:  0.234D-02-0.683D-02 0.107D-01 0.396D-01 0.306D+00 0.648D+00
 Coeff-En:   0.000D+00 0.000D+00 0.000D+00 0.000D+00 0.101D+00 0.899D+00
 Coeff:      0.233D-02-0.681D-02 0.107D-01 0.395D-01 0.306D+00 0.649D+00
 Gap=     0.123 Goal=   None    Shift=    0.000
 RMSDP=1.57D-05 MaxDP=1.24D-03 DE=-9.96D-04 OVMax= 7.18D-03

 Cycle   7  Pass 1  IDiag  1:
 RMSU=  1.06D-05    CP:  9.64D-01  1.50D+00  6.87D-01  6.21D-01  8.61D-01
                    CP:  7.51D-01
 E= -4069.81175445848     Delta-E=       -0.000186349125 Rises=F Damp=F
 DIIS: error= 8.31D-05 at cycle   7 NSaved=   7.
 NSaved= 7 IEnMin= 7 EnMin= -4069.81175445848     IErMin= 7 ErrMin= 8.31D-05
 ErrMax= 8.31D-05  0.00D+00 EMaxC= 1.00D-01 BMatC= 2.03D-05 BMatP= 1.74D-04
 IDIUse=1 WtCom= 1.00D+00 WtEn= 0.00D+00
 Coeff-Com:  0.444D-02-0.971D-02-0.900D-02-0.391D-02 0.101D+00 0.328D+00
 Coeff-Com:  0.589D+00
 Coeff:      0.444D-02-0.971D-02-0.900D-02-0.391D-02 0.101D+00 0.328D+00
 Coeff:      0.589D+00
 Gap=     0.123 Goal=   None    Shift=    0.000
 RMSDP=6.47D-06 MaxDP=1.12D-03 DE=-1.86D-04 OVMax= 3.40D-03

 Cycle   8  Pass 1  IDiag  1:
 RMSU=  4.65D-06    CP:  9.64D-01  1.50D+00  6.88D-01  6.26D-01  8.65D-01
                    CP:  8.77D-01  8.25D-01
 E= -4069.81177971645     Delta-E=       -0.000025257965 Rises=F Damp=F
 DIIS: error= 4.99D-05 at cycle   8 NSaved=   8.
 NSaved= 8 IEnMin= 8 EnMin= -4069.81177971645     IErMin= 8 ErrMin= 4.99D-05
 ErrMax= 4.99D-05  0.00D+00 EMaxC= 1.00D-01 BMatC= 4.78D-06 BMatP= 2.03D-05
 IDIUse=1 WtCom= 1.00D+00 WtEn= 0.00D+00
 Coeff-Com:  0.214D-02-0.424D-02-0.773D-02-0.121D-01-0.120D-01 0.334D-01
 Coeff-Com:  0.346D+00 0.655D+00
 Coeff:      0.214D-02-0.424D-02-0.773D-02-0.121D-01-0.120D-01 0.334D-01
 Coeff:      0.346D+00 0.655D+00
 Gap=     0.123 Goal=   None    Shift=    0.000
 RMSDP=3.25D-06 MaxDP=3.52D-04 DE=-2.53D-05 OVMax= 1.12D-03

 Cycle   9  Pass 1  IDiag  1:
 RMSU=  1.90D-06    CP:  9.64D-01  1.50D+00  6.88D-01  6.27D-01  8.82D-01
                    CP:  9.02D-01  1.02D+00  9.37D-01
 E= -4069.81178735108     Delta-E=       -0.000007634635 Rises=F Damp=F
 DIIS: error= 1.93D-05 at cycle   9 NSaved=   9.
 NSaved= 9 IEnMin= 9 EnMin= -4069.81178735108     IErMin= 9 ErrMin= 1.93D-05
 ErrMax= 1.93D-05  0.00D+00 EMaxC= 1.00D-01 BMatC= 6.80D-07 BMatP= 4.78D-06
 IDIUse=1 WtCom= 1.00D+00 WtEn= 0.00D+00
 Coeff-Com:  0.461D-03-0.764D-03-0.265D-02-0.597D-02-0.213D-01-0.383D-01
 Coeff-Com:  0.105D+00 0.325D+00 0.638D+00
 Coeff:      0.461D-03-0.764D-03-0.265D-02-0.597D-02-0.213D-01-0.383D-01
 Coeff:      0.105D+00 0.325D+00 0.638D+00
 Gap=     0.123 Goal=   None    Shift=    0.000
 RMSDP=1.41D-06 MaxDP=1.51D-04 DE=-7.63D-06 OVMax= 7.46D-04

 Cycle  10  Pass 1  IDiag  1:
 RMSU=  9.34D-07    CP:  9.64D-01  1.50D+00  6.88D-01  6.28D-01  8.85D-01
                    CP:  9.16D-01  1.07D+00  1.10D+00  1.05D+00
 E= -4069.81178892060     Delta-E=       -0.000001569515 Rises=F Damp=F
 DIIS: error= 1.03D-05 at cycle  10 NSaved=  10.
 NSaved=10 IEnMin=10 EnMin= -4069.81178892060     IErMin=10 ErrMin= 1.03D-05
 ErrMax= 1.03D-05  0.00D+00 EMaxC= 1.00D-01 BMatC= 1.70D-07 BMatP= 6.80D-07
 IDIUse=1 WtCom= 1.00D+00 WtEn= 0.00D+00
 Coeff-Com: -0.426D-03 0.893D-03 0.123D-02 0.113D-02-0.377D-02-0.309D-01
 Coeff-Com: -0.468D-01-0.763D-01 0.256D+00 0.899D+00
 Coeff:     -0.426D-03 0.893D-03 0.123D-02 0.113D-02-0.377D-02-0.309D-01
 Coeff:     -0.468D-01-0.763D-01 0.256D+00 0.899D+00
 Gap=     0.123 Goal=   None    Shift=    0.000
 RMSDP=1.22D-06 MaxDP=1.25D-04 DE=-1.57D-06 OVMax= 6.03D-04

 Cycle  11  Pass 1  IDiag  1:
 RMSU=  5.12D-07    CP:  9.64D-01  1.50D+00  6.88D-01  6.28D-01  8.88D-01
                    CP:  9.27D-01  1.12D+00  1.21D+00  1.39D+00  1.37D+00
 E= -4069.81178970069     Delta-E=       -0.000000780090 Rises=F Damp=F
 DIIS: error= 3.91D-06 at cycle  11 NSaved=  11.
 NSaved=11 IEnMin=11 EnMin= -4069.81178970069     IErMin=11 ErrMin= 3.91D-06
 ErrMax= 3.91D-06  0.00D+00 EMaxC= 1.00D-01 BMatC= 6.01D-08 BMatP= 1.70D-07
 IDIUse=1 WtCom= 1.00D+00 WtEn= 0.00D+00
 Coeff-Com: -0.325D-03 0.632D-03 0.132D-02 0.211D-02 0.441D-02-0.830D-02
 Coeff-Com: -0.438D-01-0.132D+00-0.222D-01 0.463D+00 0.735D+00
 Coeff:     -0.325D-03 0.632D-03 0.132D-02 0.211D-02 0.441D-02-0.830D-02
 Coeff:     -0.438D-01-0.132D+00-0.222D-01 0.463D+00 0.735D+00
 Gap=     0.123 Goal=   None    Shift=    0.000
 RMSDP=6.82D-07 MaxDP=5.70D-05 DE=-7.80D-07 OVMax= 3.67D-04

 Cycle  12  Pass 1  IDiag  1:
 RMSU=  2.61D-07    CP:  9.64D-01  1.50D+00  6.88D-01  6.28D-01  8.89D-01
                    CP:  9.29D-01  1.14D+00  1.28D+00  1.56D+00  1.76D+00
                    CP:  1.20D+00
 E= -4069.81178995987     Delta-E=       -0.000000259184 Rises=F Damp=F
 DIIS: error= 2.34D-06 at cycle  12 NSaved=  12.
 NSaved=12 IEnMin=12 EnMin= -4069.81178995987     IErMin=12 ErrMin= 2.34D-06
 ErrMax= 2.34D-06  0.00D+00 EMaxC= 1.00D-01 BMatC= 1.45D-08 BMatP= 6.01D-08
 IDIUse=1 WtCom= 1.00D+00 WtEn= 0.00D+00
 Coeff-Com:  0.192D-05-0.202D-04 0.171D-03 0.498D-03 0.327D-02 0.410D-02
 Coeff-Com:  0.301D-02-0.343D-01-0.675D-01-0.786D-01 0.248D+00 0.921D+00
 Coeff:      0.192D-05-0.202D-04 0.171D-03 0.498D-03 0.327D-02 0.410D-02
 Coeff:      0.301D-02-0.343D-01-0.675D-01-0.786D-01 0.248D+00 0.921D+00
 Gap=     0.123 Goal=   None    Shift=    0.000
 RMSDP=4.37D-07 MaxDP=3.09D-05 DE=-2.59D-07 OVMax= 2.47D-04

 Cycle  13  Pass 1  IDiag  1:
 RMSU=  1.64D-07    CP:  9.64D-01  1.50D+00  6.88D-01  6.28D-01  8.89D-01
                    CP:  9.29D-01  1.15D+00  1.31D+00  1.67D+00  1.99D+00
                    CP:  1.62D+00  1.28D+00
 E= -4069.81179005111     Delta-E=       -0.000000091244 Rises=F Damp=F
 DIIS: error= 1.25D-06 at cycle  13 NSaved=  13.
 NSaved=13 IEnMin=13 EnMin= -4069.81179005111     IErMin=13 ErrMin= 1.25D-06
 ErrMax= 1.25D-06  0.00D+00 EMaxC= 1.00D-01 BMatC= 8.00D-09 BMatP= 1.45D-08
 IDIUse=1 WtCom= 1.00D+00 WtEn= 0.00D+00
 Coeff-Com:  0.120D-03-0.245D-03-0.370D-03-0.458D-03 0.554D-03 0.508D-02
 Coeff-Com:  0.198D-01 0.228D-01-0.341D-01-0.241D+00-0.156D+00 0.601D+00
 Coeff-Com:  0.784D+00
 Coeff:      0.120D-03-0.245D-03-0.370D-03-0.458D-03 0.554D-03 0.508D-02
 Coeff:      0.198D-01 0.228D-01-0.341D-01-0.241D+00-0.156D+00 0.601D+00
 Coeff:      0.784D+00
 Gap=     0.123 Goal=   None    Shift=    0.000
 RMSDP=3.36D-07 MaxDP=2.25D-05 DE=-9.12D-08 OVMax= 1.93D-04

 Cycle  14  Pass 1  IDiag  1:
 RMSU=  7.56D-08    CP:  9.64D-01  1.50D+00  6.88D-01  6.28D-01  8.89D-01
                    CP:  9.30D-01  1.15D+00  1.33D+00  1.74D+00  2.18D+00
                    CP:  1.88D+00  1.79D+00  1.09D+00
 E= -4069.81179008636     Delta-E=       -0.000000035250 Rises=F Damp=F
 DIIS: error= 6.11D-07 at cycle  14 NSaved=  14.
 NSaved=14 IEnMin=14 EnMin= -4069.81179008636     IErMin=14 ErrMin= 6.11D-07
 ErrMax= 6.11D-07  0.00D+00 EMaxC= 1.00D-01 BMatC= 1.23D-09 BMatP= 8.00D-09
 IDIUse=1 WtCom= 1.00D+00 WtEn= 0.00D+00
 Coeff-Com:  0.659D-04-0.130D-03-0.245D-03-0.385D-03-0.487D-03 0.129D-02
 Coeff-Com:  0.108D-01 0.190D-01 0.359D-02-0.990D-01-0.142D+00 0.948D-01
 Coeff-Com:  0.403D+00 0.709D+00
 Coeff:      0.659D-04-0.130D-03-0.245D-03-0.385D-03-0.487D-03 0.129D-02
 Coeff:      0.108D-01 0.190D-01 0.359D-02-0.990D-01-0.142D+00 0.948D-01
 Coeff:      0.403D+00 0.709D+00
 Gap=     0.123 Goal=   None    Shift=    0.000
 RMSDP=1.00D-07 MaxDP=6.57D-06 DE=-3.53D-08 OVMax= 5.48D-05

 Cycle  15  Pass 1  IDiag  1:
 RMSU=  3.82D-08    CP:  9.64D-01  1.50D+00  6.88D-01  6.28D-01  8.89D-01
                    CP:  9.30D-01  1.15D+00  1.33D+00  1.76D+00  2.22D+00
                    CP:  1.98D+00  1.93D+00  1.32D+00  1.03D+00
 E= -4069.81179009040     Delta-E=       -0.000000004035 Rises=F Damp=F
 DIIS: error= 3.54D-07 at cycle  15 NSaved=  15.
 NSaved=15 IEnMin=15 EnMin= -4069.81179009040     IErMin=15 ErrMin= 3.54D-07
 ErrMax= 3.54D-07  0.00D+00 EMaxC= 1.00D-01 BMatC= 2.26D-10 BMatP= 1.23D-09
 IDIUse=1 WtCom= 1.00D+00 WtEn= 0.00D+00
 Coeff-Com:  0.510D-05-0.841D-05-0.317D-04-0.804D-04-0.300D-03-0.515D-03
 Coeff-Com:  0.112D-02 0.248D-02 0.875D-02 0.198D-02-0.308D-01-0.730D-01
 Coeff-Com:  0.277D-01 0.299D+00 0.763D+00
 Coeff:      0.510D-05-0.841D-05-0.317D-04-0.804D-04-0.300D-03-0.515D-03
 Coeff:      0.112D-02 0.248D-02 0.875D-02 0.198D-02-0.308D-01-0.730D-01
 Coeff:      0.277D-01 0.299D+00 0.763D+00
 Gap=     0.123 Goal=   None    Shift=    0.000
 RMSDP=4.08D-08 MaxDP=2.68D-06 DE=-4.03D-09 OVMax= 2.63D-05

 Cycle  16  Pass 1  IDiag  1:
 RMSU=  1.86D-08    CP:  9.64D-01  1.50D+00  6.88D-01  6.28D-01  8.89D-01
                    CP:  9.30D-01  1.15D+00  1.34D+00  1.76D+00  2.23D+00
                    CP:  2.01D+00  1.99D+00  1.40D+00  1.24D+00  1.14D+00
 E= -4069.81179009111     Delta-E=       -0.000000000711 Rises=F Damp=F
 DIIS: error= 1.80D-07 at cycle  16 NSaved=  16.
 NSaved=16 IEnMin=16 EnMin= -4069.81179009111     IErMin=16 ErrMin= 1.80D-07
 ErrMax= 1.80D-07  0.00D+00 EMaxC= 1.00D-01 BMatC= 8.02D-11 BMatP= 2.26D-10
 IDIUse=1 WtCom= 1.00D+00 WtEn= 0.00D+00
 Coeff-Com: -0.142D-04 0.288D-04 0.471D-04 0.540D-04-0.256D-04-0.633D-03
 Coeff-Com: -0.200D-02-0.426D-02 0.458D-02 0.256D-01 0.206D-01-0.646D-01
 Coeff-Com: -0.840D-01-0.356D-01 0.396D+00 0.744D+00
 Coeff:     -0.142D-04 0.288D-04 0.471D-04 0.540D-04-0.256D-04-0.633D-03
 Coeff:     -0.200D-02-0.426D-02 0.458D-02 0.256D-01 0.206D-01-0.646D-01
 Coeff:     -0.840D-01-0.356D-01 0.396D+00 0.744D+00
 Gap=     0.123 Goal=   None    Shift=    0.000
 RMSDP=2.28D-08 MaxDP=1.57D-06 DE=-7.11D-10 OVMax= 1.35D-05

 Cycle  17  Pass 1  IDiag  1:
 RMSU=  1.04D-08    CP:  9.64D-01  1.50D+00  6.88D-01  6.28D-01  8.89D-01
                    CP:  9.30D-01  1.16D+00  1.34D+00  1.76D+00  2.24D+00
                    CP:  2.02D+00  2.01D+00  1.45D+00  1.34D+00  1.44D+00
                    CP:  1.25D+00
 E= -4069.81179009127     Delta-E=       -0.000000000162 Rises=F Damp=F
 DIIS: error= 1.03D-07 at cycle  17 NSaved=  17.
 NSaved=17 IEnMin=17 EnMin= -4069.81179009127     IErMin=17 ErrMin= 1.03D-07
 ErrMax= 1.03D-07  0.00D+00 EMaxC= 1.00D-01 BMatC= 1.80D-11 BMatP= 8.02D-11
 IDIUse=1 WtCom= 1.00D+00 WtEn= 0.00D+00
 Coeff-Com: -0.724D-05 0.141D-04 0.287D-04 0.428D-04 0.842D-04-0.124D-03
 Coeff-Com: -0.981D-03-0.281D-02 0.173D-03 0.931D-02 0.175D-01-0.749D-02
 Coeff-Com: -0.377D-01-0.102D+00-0.323D-01 0.301D+00 0.855D+00
 Coeff:     -0.724D-05 0.141D-04 0.287D-04 0.428D-04 0.842D-04-0.124D-03
 Coeff:     -0.981D-03-0.281D-02 0.173D-03 0.931D-02 0.175D-01-0.749D-02
 Coeff:     -0.377D-01-0.102D+00-0.323D-01 0.301D+00 0.855D+00
 Gap=     0.123 Goal=   None    Shift=    0.000
 RMSDP=1.38D-08 MaxDP=1.06D-06 DE=-1.62D-10 OVMax= 8.58D-06

 Cycle  18  Pass 1  IDiag  1:
 RMSU=  4.86D-09    CP:  9.64D-01  1.50D+00  6.88D-01  6.28D-01  8.89D-01
                    CP:  9.30D-01  1.16D+00  1.34D+00  1.76D+00  2.24D+00
                    CP:  2.03D+00  2.02D+00  1.47D+00  1.41D+00  1.62D+00
                    CP:  1.66D+00  1.39D+00
 E= -4069.81179009128     Delta-E=       -0.000000000013 Rises=F Damp=F
 DIIS: error= 5.13D-08 at cycle  18 NSaved=  18.
 NSaved=18 IEnMin=18 EnMin= -4069.81179009128     IErMin=18 ErrMin= 5.13D-08
 ErrMax= 5.13D-08  0.00D+00 EMaxC= 1.00D-01 BMatC= 6.77D-12 BMatP= 1.80D-11
 IDIUse=1 WtCom= 1.00D+00 WtEn= 0.00D+00
 Coeff-Com:  0.201D-05-0.432D-05-0.442D-05-0.152D-05 0.592D-04 0.182D-03
 Coeff-Com:  0.399D-03 0.205D-03-0.128D-02-0.611D-02 0.848D-05 0.203D-01
 Coeff-Com:  0.182D-01-0.332D-01-0.162D+00-0.184D+00 0.348D+00 0.100D+01
 Coeff:      0.201D-05-0.432D-05-0.442D-05-0.152D-05 0.592D-04 0.182D-03
 Coeff:      0.399D-03 0.205D-03-0.128D-02-0.611D-02 0.848D-05 0.203D-01
 Coeff:      0.182D-01-0.332D-01-0.162D+00-0.184D+00 0.348D+00 0.100D+01
 Gap=     0.123 Goal=   None    Shift=    0.000
 RMSDP=1.16D-08 MaxDP=8.03D-07 DE=-1.27D-11 OVMax= 7.08D-06

 Cycle  19  Pass 1  IDiag  1:
 RMSU=  2.82D-09    CP:  9.64D-01  1.50D+00  6.88D-01  6.28D-01  8.89D-01
                    CP:  9.30D-01  1.16D+00  1.34D+00  1.76D+00  2.24D+00
                    CP:  2.03D+00  2.03D+00  1.48D+00  1.46D+00  1.77D+00
                    CP:  1.99D+00  1.93D+00  1.37D+00
 E= -4069.81179009166     Delta-E=       -0.000000000380 Rises=F Damp=F
 DIIS: error= 4.26D-08 at cycle  19 NSaved=  19.
 NSaved=19 IEnMin=19 EnMin= -4069.81179009166     IErMin=19 ErrMin= 4.26D-08
 ErrMax= 4.26D-08  0.00D+00 EMaxC= 1.00D-01 BMatC= 1.56D-12 BMatP= 6.77D-12
 IDIUse=1 WtCom= 1.00D+00 WtEn= 0.00D+00
 Coeff-Com:  0.295D-05-0.595D-05-0.101D-04-0.125D-04 0.116D-04 0.124D-03
 Coeff-Com:  0.489D-03 0.810D-03-0.637D-03-0.610D-02-0.487D-02 0.126D-01
 Coeff-Com:  0.206D-01 0.106D-01-0.730D-01-0.182D+00-0.340D-01 0.512D+00
 Coeff-Com:  0.744D+00
 Coeff:      0.295D-05-0.595D-05-0.101D-04-0.125D-04 0.116D-04 0.124D-03
 Coeff:      0.489D-03 0.810D-03-0.637D-03-0.610D-02-0.487D-02 0.126D-01
 Coeff:      0.206D-01 0.106D-01-0.730D-01-0.182D+00-0.340D-01 0.512D+00
 Coeff:      0.744D+00
 Gap=     0.123 Goal=   None    Shift=    0.000
 RMSDP=4.77D-09 MaxDP=3.29D-07 DE=-3.80D-10 OVMax= 2.77D-06

 SCF Done:  E(RCAM-B3LYP) =  -4069.81179009     A.U. after   19 cycles
            NFock= 19  Conv=0.48D-08     -V/T= 2.0102
 KE= 4.028801995205D+03 PE=-3.409110337502D+04 EE= 1.368735156977D+04
 Leave Link  502 at Sun Sep 12 13:20:05 2021, MaxMem= 23488102400 cpu:           11407.3 elap:             499.3
 (Enter /sw/apps/gaussian-16.0/g16/l801.exe)
 DoSCS=F DFT=T ScalE2(SS,OS)=  1.000000  1.000000
 ExpMin= 3.36D-02 ExpMax= 4.95D+03 ExpMxC= 7.45D+02 IAcc=3 IRadAn=         5 AccDes= 0.00D+00
 HarFok:  IExCor=  205 AccDes= 0.00D+00 IRadAn=         5 IDoV=-2 UseB2=F ITyADJ=14
 ICtDFT= 12500011 ScaDFX=  1.000000  1.000000  1.000000  1.000000
 GSVD:  LWork=       -9588 too small for GESVD, short by       45590 words or       45590 for optimal perf.
 Largest valence mixing into a core orbital is  2.03D-04
 Largest core mixing into a valence orbital is  5.24D-05
 Range of M.O.s used for correlation:    95  1572
 NBasis=  1572 NAE=   312 NBE=   312 NFC=    94 NFV=     0
 NROrb=   1478 NOA=   218 NOB=   218 NVA=  1260 NVB=  1260
 Leave Link  801 at Sun Sep 12 13:20:05 2021, MaxMem= 23488102400 cpu:               8.8 elap:               0.4
 (Enter /sw/apps/gaussian-16.0/g16/l914.exe)
 RHF ground state
 Two-electron integrals replicated using symmetry.
 MDV= 23488102400 DFT=T DoStab=F Mixed=T DoRPA=T DoScal=F NonHer=T
 Making orbital integer symmetry assigments:
 Orbital symmetries:
       Occupied  (A) (A) (A) (A) (A) (A) (A) (A) (A) (A) (A) (A)
                 (A) (A) (A) (A) (A) (A) (A) (A) (A) (A) (A) (A)
                 (A) (A) (A) (A) (A) (A) (A) (A) (A) (A) (A) (A)
                 (A) (A) (A) (A) (A) (A) (A) (A) (A) (A) (A) (A)
                 (A) (A) (A) (A) (A) (A) (A) (A) (A) (A) (A) (A)
                 (A) (A) (A) (A) (A) (A) (A) (A) (A) (A) (A) (A)
                 (A) (A) (A) (A) (A) (A) (A) (A) (A) (A) (A) (A)
                 (A) (A) (A) (A) (A) (A) (A) (A) (A) (A) (A) (A)
                 (A) (A) (A) (A) (A) (A) (A) (A) (A) (A) (A) (A)
                 (A) (A) (A) (A) (A) (A) (A) (A) (A) (A) (A) (A)
                 (A) (A) (A) (A) (A) (A) (A) (A) (A) (A) (A) (A)
                 (A) (A) (A) (A) (A) (A) (A) (A) (A) (A) (A) (A)
                 (A) (A) (A) (A) (A) (A) (A) (A) (A) (A) (A) (A)
                 (A) (A) (A) (A) (A) (A) (A) (A) (A) (A) (A) (A)
                 (A) (A) (A) (A) (A) (A) (A) (A) (A) (A) (A) (A)
                 (A) (A) (A) (A) (A) (A) (A) (A) (A) (A) (A) (A)
                 (A) (A) (A) (A) (A) (A) (A) (A) (A) (A) (A) (A)
                 (A) (A) (A) (A) (A) (A) (A) (A) (A) (A) (A) (A)
                 (A) (A) (A) (A) (A) (A) (A) (A) (A) (A) (A) (A)
                 (A) (A) (A) (A) (A) (A) (A) (A) (A) (A) (A) (A)
                 (A) (A) (A) (A) (A) (A) (A) (A) (A) (A) (A) (A)
                 (A) (A) (A) (A) (A) (A) (A) (A) (A) (A) (A) (A)
                 (A) (A) (A) (A) (A) (A) (A) (A) (A) (A) (A) (A)
                 (A) (A) (A) (A) (A) (A) (A) (A) (A) (A) (A) (A)
                 (A) (A) (A) (A) (A) (A) (A) (A) (A) (A) (A) (A)
                 (A) (A) (A) (A) (A) (A) (A) (A) (A) (A) (A) (A)
       Virtual   (A) (A) (A) (A) (A) (A) (A) (A) (A) (A) (A) (A)
                 (A) (A) (A) (A) (A) (A) (A) (A) (A) (A) (A) (A)
                 (A) (A) (A) (A) (A) (A) (A) (A) (A) (A) (A) (A)
                 (A) (A) (A) (A) (A) (A) (A) (A) (A) (A) (A) (A)
                 (A) (A) (A) (A) (A) (A) (A) (A) (A) (A) (A) (A)
                 (A) (A) (A) (A) (A) (A) (A) (A) (A) (A) (A) (A)
                 (A) (A) (A) (A) (A) (A) (A) (A) (A) (A) (A) (A)
                 (A) (A) (A) (A) (A) (A) (A) (A) (A) (A) (A) (A)
                 (A) (A) (A) (A) (A) (A) (A) (A) (A) (A) (A) (A)
                 (A) (A) (A) (A) (A) (A) (A) (A) (A) (A) (A) (A)
                 (A) (A) (A) (A) (A) (A) (A) (A) (A) (A) (A) (A)
                 (A) (A) (A) (A) (A) (A) (A) (A) (A) (A) (A) (A)
                 (A) (A) (A) (A) (A) (A) (A) (A) (A) (A) (A) (A)
                 (A) (A) (A) (A) (A) (A) (A) (A) (A) (A) (A) (A)
                 (A) (A) (A) (A) (A) (A) (A) (A) (A) (A) (A) (A)
                 (A) (A) (A) (A) (A) (A) (A) (A) (A) (A) (A) (A)
                 (A) (A) (A) (A) (A) (A) (A) (A) (A) (A) (A) (A)
                 (A) (A) (A) (A) (A) (A) (A) (A) (A) (A) (A) (A)
                 (A) (A) (A) (A) (A) (A) (A) (A) (A) (A) (A) (A)
                 (A) (A) (A) (A) (A) (A) (A) (A) (A) (A) (A) (A)
                 (A) (A) (A) (A) (A) (A) (A) (A) (A) (A) (A) (A)
                 (A) (A) (A) (A) (A) (A) (A) (A) (A) (A) (A) (A)
                 (A) (A) (A) (A) (A) (A) (A) (A) (A) (A) (A) (A)
                 (A) (A) (A) (A) (A) (A) (A) (A) (A) (A) (A) (A)
                 (A) (A) (A) (A) (A) (A) (A) (A) (A) (A) (A) (A)
                 (A) (A) (A) (A) (A) (A) (A) (A) (A) (A) (A) (A)
                 (A) (A) (A) (A) (A) (A) (A) (A) (A) (A) (A) (A)
                 (A) (A) (A) (A) (A) (A) (A) (A) (A) (A) (A) (A)
                 (A) (A) (A) (A) (A) (A) (A) (A) (A) (A) (A) (A)
                 (A) (A) (A) (A) (A) (A) (A) (A) (A) (A) (A) (A)
                 (A) (A) (A) (A) (A) (A) (A) (A) (A) (A) (A) (A)
                 (A) (A) (A) (A) (A) (A) (A) (A) (A) (A) (A) (A)
                 (A) (A) (A) (A) (A) (A) (A) (A) (A) (A) (A) (A)
                 (A) (A) (A) (A) (A) (A) (A) (A) (A) (A) (A) (A)
                 (A) (A) (A) (A) (A) (A) (A) (A) (A) (A) (A) (A)
                 (A) (A) (A) (A) (A) (A) (A) (A) (A) (A) (A) (A)
                 (A) (A) (A) (A) (A) (A) (A) (A) (A) (A) (A) (A)
                 (A) (A) (A) (A) (A) (A) (A) (A) (A) (A) (A) (A)
                 (A) (A) (A) (A) (A) (A) (A) (A) (A) (A) (A) (A)
                 (A) (A) (A) (A) (A) (A) (A) (A) (A) (A) (A) (A)
                 (A) (A) (A) (A) (A) (A) (A) (A) (A) (A) (A) (A)
                 (A) (A) (A) (A) (A) (A) (A) (A) (A) (A) (A) (A)
                 (A) (A) (A) (A) (A) (A) (A) (A) (A) (A) (A) (A)
                 (A) (A) (A) (A) (A) (A) (A) (A) (A) (A) (A) (A)
                 (A) (A) (A) (A) (A) (A) (A) (A) (A) (A) (A) (A)
                 (A) (A) (A) (A) (A) (A) (A) (A) (A) (A) (A) (A)
                 (A) (A) (A) (A) (A) (A) (A) (A) (A) (A) (A) (A)
                 (A) (A) (A) (A) (A) (A) (A) (A) (A) (A) (A) (A)
                 (A) (A) (A) (A) (A) (A) (A) (A) (A) (A) (A) (A)
                 (A) (A) (A) (A) (A) (A) (A) (A) (A) (A) (A) (A)
                 (A) (A) (A) (A) (A) (A) (A) (A) (A) (A) (A) (A)
                 (A) (A) (A) (A) (A) (A) (A) (A) (A) (A) (A) (A)
                 (A) (A) (A) (A) (A) (A) (A) (A) (A) (A) (A) (A)
                 (A) (A) (A) (A) (A) (A) (A) (A) (A) (A) (A) (A)
                 (A) (A) (A) (A) (A) (A) (A) (A) (A) (A) (A) (A)
                 (A) (A) (A) (A) (A) (A) (A) (A) (A) (A) (A) (A)
                 (A) (A) (A) (A) (A) (A) (A) (A) (A) (A) (A) (A)
                 (A) (A) (A) (A) (A) (A) (A) (A) (A) (A) (A) (A)
                 (A) (A) (A) (A) (A) (A) (A) (A) (A) (A) (A) (A)
                 (A) (A) (A) (A) (A) (A) (A) (A) (A) (A) (A) (A)
                 (A) (A) (A) (A) (A) (A) (A) (A) (A) (A) (A) (A)
                 (A) (A) (A) (A) (A) (A) (A) (A) (A) (A) (A) (A)
                 (A) (A) (A) (A) (A) (A) (A) (A) (A) (A) (A) (A)
                 (A) (A) (A) (A) (A) (A) (A) (A) (A) (A) (A) (A)
                 (A) (A) (A) (A) (A) (A) (A) (A) (A) (A) (A) (A)
                 (A) (A) (A) (A) (A) (A) (A) (A) (A) (A) (A) (A)
                 (A) (A) (A) (A) (A) (A) (A) (A) (A) (A) (A) (A)
                 (A) (A) (A) (A) (A) (A) (A) (A) (A) (A) (A) (A)
                 (A) (A) (A) (A) (A) (A) (A) (A) (A) (A) (A) (A)
                 (A) (A) (A) (A) (A) (A) (A) (A) (A) (A) (A) (A)
                 (A) (A) (A) (A) (A) (A) (A) (A) (A) (A) (A) (A)
                 (A) (A) (A) (A) (A) (A) (A) (A) (A) (A) (A) (A)
                 (A) (A) (A) (A) (A) (A) (A) (A) (A) (A) (A) (A)
                 (A) (A) (A) (A) (A) (A) (A) (A) (A) (A) (A) (A)
                 (A) (A) (A) (A) (A) (A) (A) (A) (A) (A) (A) (A)
                 (A) (A) (A) (A) (A) (A) (A) (A) (A) (A) (A) (A)
                 (A) (A) (A) (A) (A) (A) (A) (A) (A) (A) (A) (A)
                 (A) (A) (A) (A) (A) (A) (A) (A) (A) (A) (A) (A)
                 (A) (A) (A) (A) (A) (A) (A) (A) (A) (A) (A) (A)
                 (A) (A) (A) (A) (A) (A) (A) (A) (A) (A) (A) (A)
                 (A) (A) (A) (A) (A) (A) (A) (A) (A) (A) (A) (A)
                 (A) (A) (A) (A) (A) (A) (A) (A) (A) (A) (A) (A)
                 (A) (A) (A) (A) (A) (A) (A) (A) (A) (A) (A) (A)
                 (A) (A) (A) (A) (A) (A) (A) (A) (A) (A) (A) (A)
                 (A) (A) (A) (A) (A) (A) (A) (A) (A) (A) (A) (A)
                 (A) (A) (A) (A) (A) (A) (A) (A) (A) (A) (A) (A)
                 (A) (A) (A) (A) (A) (A) (A) (A) (A) (A) (A) (A)
                 (A) (A) (A) (A) (A) (A) (A) (A) (A) (A) (A) (A)
                 (A) (A) (A) (A) (A) (A) (A) (A) (A) (A) (A) (A)
                 (A) (A) (A) (A) (A) (A) (A) (A) (A) (A) (A) (A)
                 (A) (A) (A) (A) (A) (A) (A) (A) (A) (A) (A) (A)
                 (A) (A) (A) (A) (A) (A) (A) (A) (A) (A) (A) (A)
                 (A) (A) (A) (A) (A) (A) (A) (A) (A) (A) (A) (A)
                 (A) (A) (A) (A) (A) (A) (A) (A) (A) (A) (A) (A)
                 (A) (A) (A) (A) (A) (A) (A) (A) (A) (A) (A) (A)
                 (A) (A) (A) (A) (A) (A) (A) (A) (A) (A) (A) (A)
                 (A) (A) (A) (A) (A) (A) (A) (A) (A) (A) (A) (A)
                 (A) (A) (A) (A) (A) (A) (A) (A) (A) (A) (A) (A)
                 (A) (A) (A) (A) (A) (A) (A) (A) (A) (A) (A) (A)
                 (A) (A) (A) (A) (A) (A) (A) (A) (A) (A) (A) (A)
                 (A) (A) (A) (A) (A) (A) (A) (A) (A) (A) (A) (A)
                 (A) (A) (A) (A) (A) (A) (A) (A) (A) (A) (A) (A)
                 (A) (A) (A) (A) (A) (A) (A) (A) (A) (A) (A) (A)
                 (A) (A) (A) (A) (A) (A) (A) (A) (A) (A) (A) (A)
                 (A) (A) (A) (A) (A) (A) (A) (A) (A) (A) (A) (A)
    20 initial guesses have been made.
 Convergence on wavefunction:    0.001000000000000
 Davidson Disk Diagonalization:  ConvIn= 1.00D-03 SkipCon=T Conv= 1.00D-03.
 Max sub-space:  2000 roots to seek:    20 dimension of matrix:       549360
 Iteration     1 Dimension    20 NMult     0 NNew     20
 CISAX will form    20 AO SS matrices at one time.
 NMat=    20 NSing=    20 JSym2X= 0.
 FoFJK:  IHMeth= 1 ICntrl=       0 DoSepK=T KAlg= 0 I1Cent=           0 FoldK=F
 IRaf=         1 NMat=      40 IRICut=       1 DoRegI=T DoRafI=F ISym2E= 0 IDoP0=3 IntGTp=3.
 FoFCou: FMM=T IPFlag=           0 FMFlag=      100000 FMFlg1=        2001
         NFxFlg=           0 DoJE=F BraDBF=F KetDBF=F FulRan=T
         wScrn=  0.000000 ICntrl=       500 IOpCl=  0 I1Cent=           0 NGrid=           0
         NMat0=   20 NMatS0=     20 NMatT0=    0 NMatD0=   20 NMtDS0=    0 NMtDT0=    0
 Symmetry not used in FoFCou.
 FMM levels:  10  Number of levels for PrismC:   9
 New state      1 was old state      8
 New state      2 was old state      5
 New state      3 was old state      1
 New state      5 was old state      2
 Excitation Energies [eV] at current iteration:
 Root      1 :     2.614457311689977
 Root      2 :     2.619310118720931
 Root      3 :     2.680396440792574
 Root      4 :     2.690272410963618
 Root      5 :     3.065826500486827
 Root      6 :     3.067404352196693
 Root      7 :     3.629214121985022
 Root      8 :     3.669388258761460
 Root      9 :     3.735445930147478
 Root     10 :     3.759030579688212
 Root     11 :     3.861287578426494
 Root     12 :     3.869147368346110
 Root     13 :     4.303373434320078
 Root     14 :     4.306824811485442
 Root     15 :     4.978150559251198
 Root     16 :     5.000083665507017
 Root     17 :     5.272427342008388
 Root     18 :     5.294468861105370
 Root     19 :     5.304300786156832
 Root     20 :     5.328285199284561
 Iteration     2 Dimension    30 NMult    20 NNew     10
 CISAX will form    10 AO SS matrices at one time.
 NMat=    10 NSing=    10 JSym2X= 0.
 New state      1 was old state      3
 Root      1 not converged, maximum delta is    0.187573434806970
 New state      2 was old state      4
 Root      2 not converged, maximum delta is    0.188909566640864
 New state      3 was old state      2
 Root      3 not converged, maximum delta is    0.074249010556414
 New state      4 was old state      1
 Root      4 not converged, maximum delta is    0.089524848485876
 Root      5 has converged.
 Excitation Energies [eV] at current iteration:
 Root      1 :     1.801364644530612   Change is   -0.879031796261962
 Root      2 :     1.807451110211769   Change is   -0.882821300751850
 Root      3 :     2.235880776634944   Change is   -0.383429342085987
 Root      4 :     2.239140828914127   Change is   -0.375316482775851
 Root      5 :     3.065820297198842   Change is   -0.000006203287986
 Iteration     3 Dimension    38 NMult    30 NNew      8
 CISAX will form     8 AO SS matrices at one time.
 NMat=     8 NSing=     8 JSym2X= 0.
 Root      1 not converged, maximum delta is    0.069644162926521
 Root      2 not converged, maximum delta is    0.070801348025275
 Root      3 not converged, maximum delta is    0.043972711124665
 Root      4 not converged, maximum delta is    0.042556266834039
 Root      5 has converged.
 Excitation Energies [eV] at current iteration:
 Root      1 :     1.694120035112082   Change is   -0.107244609418529
 Root      2 :     1.699063255896059   Change is   -0.108387854315710
 Root      3 :     2.194435884473444   Change is   -0.041444892161500
 Root      4 :     2.200259999250783   Change is   -0.038880829663344
 Root      5 :     3.065820297198681   Change is   -0.000000000000161
 Iteration     4 Dimension    46 NMult    38 NNew      8
 CISAX will form     8 AO SS matrices at one time.
 NMat=     8 NSing=     8 JSym2X= 0.
 Root      1 not converged, maximum delta is    0.013072199823655
 Root      2 not converged, maximum delta is    0.013329253200123
 Root      3 not converged, maximum delta is    0.009719372466683
 Root      4 not converged, maximum delta is    0.008889684632963
 Root      5 has converged.
 Excitation Energies [eV] at current iteration:
 Root      1 :     1.677407150583193   Change is   -0.016712884528890
 Root      2 :     1.682182955657855   Change is   -0.016880300238204
 Root      3 :     2.187137119825521   Change is   -0.007298764647924
 Root      4 :     2.193486501064130   Change is   -0.006773498186653
 Root      5 :     3.065820297198708   Change is    0.000000000000027
 Iteration     5 Dimension    54 NMult    46 NNew      8
 CISAX will form     8 AO SS matrices at one time.
 NMat=     8 NSing=     8 JSym2X= 0.
 Root      1 not converged, maximum delta is    0.002172191408034
 Root      2 not converged, maximum delta is    0.002172623896806
 Root      3 not converged, maximum delta is    0.002500687782623
 Root      4 not converged, maximum delta is    0.002386019609588
 Root      5 has converged.
 Excitation Energies [eV] at current iteration:
 Root      1 :     1.675628837152602   Change is   -0.001778313430591
 Root      2 :     1.680410120501459   Change is   -0.001772835156396
 Root      3 :     2.186291333451360   Change is   -0.000845786374161
 Root      4 :     2.192710308172750   Change is   -0.000776192891380
 Root      5 :     3.065820297198842   Change is    0.000000000000134
 Iteration     6 Dimension    62 NMult    54 NNew      8
 CISAX will form     8 AO SS matrices at one time.
 NMat=     8 NSing=     8 JSym2X= 0.
 Root      1 not converged, maximum delta is    0.001360682659075
 Root      2 not converged, maximum delta is    0.001381925008749
 Root      3 not converged, maximum delta is    0.001069233588457
 Root      4 not converged, maximum delta is    0.001013777003383
 Root      5 has converged.
 Excitation Energies [eV] at current iteration:
 Root      1 :     1.675375032881101   Change is   -0.000253804271501
 Root      2 :     1.680155059088461   Change is   -0.000255061412998
 Root      3 :     2.186163169457072   Change is   -0.000128163994288
 Root      4 :     2.192592554036257   Change is   -0.000117754136494
 Root      5 :     3.065820297198708   Change is   -0.000000000000134
 Iteration     7 Dimension    70 NMult    62 NNew      8
 CISAX will form     8 AO SS matrices at one time.
 NMat=     8 NSing=     8 JSym2X= 0.
 Root      1 has converged.
 Root      2 has converged.
 Root      3 has converged.
 Root      4 has converged.
 Root      5 has converged.
 Excitation Energies [eV] at current iteration:
 Root      1 :     1.675350817068746   Change is   -0.000024215812355
 Root      2 :     1.680131261085580   Change is   -0.000023798002881
[...]
 Alpha virt. eigenvalues --    1.84481   1.84487   1.84743   1.84849   1.85079
 Alpha virt. eigenvalues --    1.85138   1.85304   1.85312   1.85443   1.85523
 Alpha virt. eigenvalues --    1.85855   1.85905   1.86337   1.86397   1.86594
 Alpha virt. eigenvalues --    1.86607   1.86780   1.86820   1.86995   1.87075
 Alpha virt. eigenvalues --    1.87436   1.87482   1.87718   1.87725   1.87905
 Alpha virt. eigenvalues --    1.87968   1.88077   1.88132   1.88528   1.88574
 Alpha virt. eigenvalues --    1.88862   1.88893   1.89026   1.89161   1.89615
 Alpha virt. eigenvalues --    1.89665   1.89785   1.89832   1.90144   1.90157
 Alpha virt. eigenvalues --    1.90789   1.90847   1.91380   1.91386   1.91477
 Alpha virt. eigenvalues --    1.91544   1.92135   1.92191   1.92614   1.92664
 Alpha virt. eigenvalues --    1.93019   1.93103   1.93374   1.93455   1.94262
 Alpha virt. eigenvalues --    1.94318   1.94726   1.94769   1.95510   1.95545
 Alpha virt. eigenvalues --    1.95765   1.95765   1.96001   1.96032   1.96125
 Alpha virt. eigenvalues --    1.96188   1.96434   1.96631   1.96889   1.96937
 Alpha virt. eigenvalues --    1.97486   1.97493   1.97753   1.97871   1.98119
 Alpha virt. eigenvalues --    1.98207   1.98300   1.98713   1.99024   1.99173
 Alpha virt. eigenvalues --    1.99860   1.99884   2.00677   2.00696   2.01034
 Alpha virt. eigenvalues --    2.01047   2.01459   2.01519   2.01559   2.01709
 Alpha virt. eigenvalues --    2.01757   2.01775   2.02662   2.02823   2.03092
 Alpha virt. eigenvalues --    2.03271   2.03330   2.03442   2.03471   2.03522
 Alpha virt. eigenvalues --    2.03977   2.04072   2.04929   2.04996   2.05551
 Alpha virt. eigenvalues --    2.05582   2.06117   2.06238   2.06940   2.06982
 Alpha virt. eigenvalues --    2.07220   2.07297   2.08507   2.08623   2.08954
 Alpha virt. eigenvalues --    2.09019   2.09562   2.09627   2.10813   2.10984
 Alpha virt. eigenvalues --    2.11219   2.11357   2.11482   2.11577   2.11765
 Alpha virt. eigenvalues --    2.11816   2.12415   2.12502   2.12752   2.12819
 Alpha virt. eigenvalues --    2.12842   2.12871   2.13580   2.13805   2.14172
 Alpha virt. eigenvalues --    2.14203   2.15357   2.15373   2.15962   2.16030
 Alpha virt. eigenvalues --    2.16542   2.16558   2.16790   2.17120   2.17452
 Alpha virt. eigenvalues --    2.17599   2.17741   2.17882   2.17952   2.18104
 Alpha virt. eigenvalues --    2.18362   2.18620   2.18905   2.19182   2.19678
 Alpha virt. eigenvalues --    2.19767   2.20076   2.20190   2.20247   2.20387
 Alpha virt. eigenvalues --    2.21122   2.21185   2.21706   2.21711   2.21780
 Alpha virt. eigenvalues --    2.21823   2.22650   2.22716   2.23289   2.23348
 Alpha virt. eigenvalues --    2.24366   2.24430   2.24954   2.24992   2.26335
 Alpha virt. eigenvalues --    2.26387   2.26814   2.26956   2.27138   2.27149
 Alpha virt. eigenvalues --    2.28173   2.28262   2.29304   2.29384   2.29771
 Alpha virt. eigenvalues --    2.29825   2.30491   2.30567   2.30771   2.31117
 Alpha virt. eigenvalues --    2.31147   2.31217   2.32155   2.32187   2.33171
 Alpha virt. eigenvalues --    2.33181   2.33429   2.33496   2.34087   2.34173
 Alpha virt. eigenvalues --    2.35243   2.35406   2.35833   2.35855   2.36280
 Alpha virt. eigenvalues --    2.36385   2.36394   2.36659   2.37622   2.37691
 Alpha virt. eigenvalues --    2.38293   2.38329   2.38728   2.38893   2.39613
 Alpha virt. eigenvalues --    2.39646   2.40211   2.40215   2.40521   2.40772
 Alpha virt. eigenvalues --    2.41156   2.41304   2.41638   2.41720   2.42071
 Alpha virt. eigenvalues --    2.42073   2.42767   2.42976   2.43010   2.43568
 Alpha virt. eigenvalues --    2.43921   2.44204   2.44749   2.44765   2.44931
 Alpha virt. eigenvalues --    2.44938   2.45513   2.45580   2.46229   2.46336
 Alpha virt. eigenvalues --    2.46438   2.46511   2.46740   2.46833   2.47285
 Alpha virt. eigenvalues --    2.47317   2.47747   2.47827   2.49336   2.49343
 Alpha virt. eigenvalues --    2.49833   2.50100   2.50398   2.50582   2.51154
 Alpha virt. eigenvalues --    2.51205   2.51552   2.51920   2.52335   2.52473
 Alpha virt. eigenvalues --    2.52843   2.53102   2.53909   2.53951   2.54184
 Alpha virt. eigenvalues --    2.54225   2.54743   2.54820   2.55552   2.55604
 Alpha virt. eigenvalues --    2.57898   2.58016   2.58676   2.58840   2.60235
 Alpha virt. eigenvalues --    2.60239   2.60646   2.60859   2.61743   2.61757
 Alpha virt. eigenvalues --    2.62365   2.62566   2.62988   2.63059   2.63969
 Alpha virt. eigenvalues --    2.64153   2.64274   2.64360   2.65032   2.65111
 Alpha virt. eigenvalues --    2.65794   2.65820   2.66753   2.66808   2.66942
 Alpha virt. eigenvalues --    2.66989   2.67912   2.67940   2.68751   2.68890
 Alpha virt. eigenvalues --    2.68962   2.69055   2.69420   2.69524   2.70029
 Alpha virt. eigenvalues --    2.70068   2.70997   2.71011   2.71823   2.72085
 Alpha virt. eigenvalues --    2.72420   2.72663   2.72685   2.72860   2.73216
 Alpha virt. eigenvalues --    2.73305   2.73395   2.73563   2.74434   2.74541
 Alpha virt. eigenvalues --    2.74982   2.75006   2.76447   2.76621   2.76991
 Alpha virt. eigenvalues --    2.77263   2.77489   2.77533   2.78223   2.78225
 Alpha virt. eigenvalues --    2.78616   2.78761   2.79082   2.79165   2.80193
 Alpha virt. eigenvalues --    2.80377   2.80613   2.80621   2.81074   2.81146
 Alpha virt. eigenvalues --    2.81912   2.81965   2.82258   2.82371   2.83773
 Alpha virt. eigenvalues --    2.83783   2.83799   2.83826   2.84450   2.84575
 Alpha virt. eigenvalues --    2.84808   2.84912   2.85618   2.85699   2.86581
 Alpha virt. eigenvalues --    2.87026   2.87095   2.87638   2.88163   2.88188
 Alpha virt. eigenvalues --    2.88536   2.88537   2.88793   2.88964   2.90528
 Alpha virt. eigenvalues --    2.90580   2.90990   2.91217   2.93187   2.93242
 Alpha virt. eigenvalues --    2.93691   2.94230   2.94495   2.94588   2.95394
 Alpha virt. eigenvalues --    2.95400   2.95758   2.96233   2.96295   2.96470
 Alpha virt. eigenvalues --    2.96790   2.97208   2.97849   2.97955   2.98241
 Alpha virt. eigenvalues --    2.98277   2.98394   2.98493   2.98631   2.98696
 Alpha virt. eigenvalues --    2.98842   2.98914   2.99615   2.99722   2.99935
 Alpha virt. eigenvalues --    3.00063   3.00252   3.00259   3.00493   3.00912
 Alpha virt. eigenvalues --    3.01822   3.02018   3.02036   3.02066   3.02742
 Alpha virt. eigenvalues --    3.02766   3.03010   3.03239   3.03360   3.03628
 Alpha virt. eigenvalues --    3.03972   3.04199   3.04350   3.04479   3.04576
 Alpha virt. eigenvalues --    3.04643   3.05273   3.05326   3.06084   3.06144
 Alpha virt. eigenvalues --    3.06836   3.06856   3.07843   3.08177   3.09278
 Alpha virt. eigenvalues --    3.09434   3.09726   3.10351   3.10474   3.10657
 Alpha virt. eigenvalues --    3.11360   3.11399   3.11817   3.11976   3.12203
 Alpha virt. eigenvalues --    3.12221   3.13316   3.13567   3.13607   3.13671
 Alpha virt. eigenvalues --    3.14124   3.14390   3.15906   3.15949   3.17295
 Alpha virt. eigenvalues --    3.17435   3.17800   3.18111   3.18951   3.19160
 Alpha virt. eigenvalues --    3.22338   3.22513   3.23980   3.24354   3.24706
 Alpha virt. eigenvalues --    3.25107   3.26537   3.26573   3.27311   3.27654
 Alpha virt. eigenvalues --    3.29133   3.29136   3.31295   3.31558   3.33102
 Alpha virt. eigenvalues --    3.33451   3.40175   3.40664   3.42737   3.42852
 Alpha virt. eigenvalues --    3.48612   3.48692   3.50056   3.50198   3.50753
 Alpha virt. eigenvalues --    3.51509   3.56585   3.56922   3.59133   3.59257
 Alpha virt. eigenvalues --    3.62431   3.62871   3.66036   3.66221   3.67220
 Alpha virt. eigenvalues --    3.67457   3.73305   3.73935   3.76090   3.76593
          Condensed to atoms (all electrons):
 Mulliken charges:
               1
     1  Mg   0.838699
     2  C   -0.002960
     3  C   -0.094098
     4  C   -0.045884
     5  C   -0.063990
     6  N   -0.256778
     7  C   -0.052455
     8  C   -0.014014
     9  C   -0.087001
    10  C    0.046332
    11  C    0.104811
    12  C    0.053447
    13  C   -0.071825
    14  H    0.036166
    15  N   -0.433150
    16  C    0.168431
    17  C   -0.177121
    18  C   -0.003994
    19  C    0.148723
    20  C    0.110168
    21  C    0.012294
    22  O   -0.249639
    23  C    0.062468
    24  N   -0.341118
    25  C    0.041245
    26  C   -0.028152
    27  C   -0.023988
    28  C    0.074843
    29  C    0.076179
    30  C    0.035147
    31  C   -0.004497
    32  N   -0.310470
    33  C    0.080396
    34  C   -0.169754
    35  C    0.008350
    36  C    0.082992
    37  C    0.127320
    38  C    0.046106
    39  O   -0.188465
    40  C   -0.005345
    41  C    0.212875
    42  O   -0.257107
    43  O   -0.304791
    44  C    0.157688
    45  H   -0.017564
    46  H   -0.016844
    47  H   -0.041539
    48  H    0.000940
    49  H   -0.003993
    50  H    0.025468
    51  H    0.016439
    52  H    0.016688
    53  H    0.011228
    54  H    0.044113
    55  H    0.017870
    56  H    0.017988
    57  H    0.005905
    58  H    0.026849
    59  H    0.039612
    60  H    0.037367
    61  H    0.035669
    62  H    0.031540
    63  H    0.016532
    64  H    0.009444
    65  H    0.023196
    66  H    0.012567
    67  H    0.004735
    68  H    0.006327
    69  H    0.004693
    70  H    0.008776
    71  H    0.018073
    72  H    0.029023
    73  H    0.047533
    74  H    0.009067
    75  H    0.046001
    76  H    0.035156
    77  H    0.042942
    78  H    0.046432
    79  H    0.053683
    80  Mg   0.837802
    81  C   -0.016836
    82  C   -0.087751
    83  C   -0.045482
    84  C   -0.064856
    85  N   -0.254563
    86  C   -0.049835
    87  C   -0.015093
    88  C   -0.090504
    89  C    0.045747
    90  C    0.114354
    91  C    0.062518
    92  C   -0.077914
    93  H    0.034886
    94  N   -0.423490
    95  C    0.162924
    96  C   -0.174572
    97  C   -0.007769
    98  C    0.152130
    99  C    0.099341
   100  C    0.015602
   101  O   -0.253142
   102  C    0.061192
   103  N   -0.350043
   104  C    0.037533
   105  C   -0.019865
   106  C   -0.034786
   107  C    0.088879
   108  C    0.073638
   109  C    0.034729
   110  C   -0.007675
   111  N   -0.324082
   112  C    0.078415
   113  C   -0.163160
   114  C    0.002233
   115  C    0.096171
   116  C    0.131491
   117  C    0.042361
   118  O   -0.187941
   119  C    0.000935
   120  C    0.211267
   121  O   -0.251037
   122  O   -0.305631
   123  C    0.152034
   124  H   -0.019592
   125  H   -0.015527
   126  H   -0.040492
   127  H   -0.000650
   128  H   -0.004296
   129  H    0.022454
   130  H    0.014469
   131  H    0.016346
   132  H    0.013929
   133  H    0.037657
   134  H    0.020799
   135  H    0.019624
   136  H    0.008798
   137  H    0.026239
   138  H    0.039825
   139  H    0.038312
   140  H    0.036444
   141  H    0.033889
   142  H    0.014411
   143  H    0.012414
   144  H    0.025183
   145  H    0.011697
   146  H    0.005686
   147  H    0.006274
   148  H    0.003618
   149  H    0.010951
   150  H    0.017910
   151  H    0.030102
   152  H    0.045966
   153  H    0.008493
   154  H    0.046915
   155  H    0.035021
   156  H    0.043888
   157  H    0.049514
   158  H    0.053570
 Sum of Mulliken charges =  -0.00000
 Mulliken charges with hydrogens summed into heavy atoms:
               1
     1  Mg   0.838699
     2  C   -0.002960
     3  C   -0.111661
     4  C   -0.062729
     5  C   -0.105528
     6  N   -0.256778
     7  C   -0.052455
     8  C   -0.013074
     9  C   -0.090994
    10  C    0.046332
    11  C    0.163406
    12  C    0.108788
    13  C    0.000199
    15  N   -0.433150
    16  C    0.168431
    17  C   -0.177121
    18  C   -0.003994
    19  C    0.148723
    20  C    0.182534
    21  C    0.012294
    22  O   -0.249639
    23  C    0.167044
    24  N   -0.341118
    25  C    0.041245
    26  C   -0.011620
    27  C   -0.014545
    28  C    0.074843
    29  C    0.116678
    30  C    0.046167
    31  C    0.051375
    32  N   -0.310470
    33  C    0.080396
    34  C   -0.169754
    35  C    0.008350
    36  C    0.082992
    37  C    0.229921
    38  C    0.046106
    39  O   -0.188465
    40  C    0.029811
    41  C    0.212875
    42  O   -0.257107
    43  O   -0.304791
    44  C    0.300745
    80  Mg   0.837802
    81  C   -0.016836
    82  C   -0.107343
    83  C   -0.061009
    84  C   -0.105348
    85  N   -0.254563
    86  C   -0.049835
    87  C   -0.015743
    88  C   -0.094799
    89  C    0.045747
    90  C    0.167622
    91  C    0.114104
    92  C   -0.002605
    94  N   -0.423490
    95  C    0.162924
    96  C   -0.174572
    97  C   -0.007769
    98  C    0.152130
    99  C    0.174202
   100  C    0.015602
   101  O   -0.253142
   102  C    0.169837
   103  N   -0.350043
   104  C    0.037533
   105  C   -0.005454
   106  C   -0.022372
   107  C    0.088879
   108  C    0.116205
   109  C    0.044621
   110  C    0.051289
   111  N   -0.324082
   112  C    0.078415
   113  C   -0.163160
   114  C    0.002233
   115  C    0.096171
   116  C    0.232865
   117  C    0.042361
   118  O   -0.187941
   119  C    0.035956
   120  C    0.211267
   121  O   -0.251037
   122  O   -0.305631
   123  C    0.299005
 Electronic spatial extent (au):  <R**2>=         615372.0284
 Charge=             -0.0000 electrons
 Dipole moment (field-independent basis, Debye):
    X=              3.9191    Y=              1.6908    Z=              0.3456  Tot=              4.2822
 Quadrupole moment (field-independent basis, Debye-Ang):
   XX=           -519.0088   YY=           -548.3935   ZZ=           -450.2696
   XY=             40.0859   XZ=           -125.5785   YZ=             45.3217
 Traceless Quadrupole moment (field-independent basis, Debye-Ang):
   XX=            -13.1182   YY=            -42.5029   ZZ=             55.6211
   XY=             40.0859   XZ=           -125.5785   YZ=             45.3217
 Octapole moment (field-independent basis, Debye-Ang**2):
  XXX=           3000.7739  YYY=            104.8157  ZZZ=            107.1280  XYY=           -284.0454
  XXY=            279.9029  XXZ=            124.2610  XZZ=            278.1136  YZZ=            -54.1835
  YYZ=           -147.8715  XYZ=           -287.5099
 Hexadecapole moment (field-independent basis, Debye-Ang**3):
 XXXX=        -789630.4719 YYYY=         -42242.6134 ZZZZ=         -24326.8112 XXXY=          10442.3862
 XXXZ=         -34371.5816 YYYX=          -6140.4045 YYYZ=           1386.0205 ZZZX=          -1621.1117
 ZZZY=            -73.0094 XXYY=        -145300.5073 XXZZ=        -119014.3284 YYZZ=         -10884.5378
 XXYZ=          11514.9769 YYXZ=          -2950.8121 ZZXY=           3125.8271
 N-N= 1.230513801995D+04 E-N=-3.409110336772D+04  KE= 4.028801995205D+03
 Leave Link  601 at Sun Sep 12 13:37:55 2021, MaxMem= 23488102400 cpu:              15.0 elap:               0.7
 (Enter /sw/apps/gaussian-16.0/g16/l9999.exe)
 1\1\GINC-BP1-COMPUTE00082\SP\RCAM-B3LYP TD-FC\def2SVP\C68H72Mg2N8O8\OF
 15641\12-Sep-2021\0\\#p cam-b3lyp/Def2SVP td=(nstates=5)\\TDDFT excite
 d states in gaussian\\0,1\Mg,0,0.,0.,0.\C,0,-0.217,-2.218,2.801\C,0,-1
 .255,2.442,2.026\C,0,-0.245,1.85,-2.564\C,0,0.146,-2.824,-2.037\N,0,-0
 .617,-0.009,2.126\C,0,-0.594,-0.908,3.105\C,0,-0.936,-0.309,4.502\C,0,
 -1.773,0.964,4.032\C,0,-1.155,1.168,2.66\C,0,-3.263,0.685,3.863\C,0,0.
 345,0.11,5.299\C,0,0.124,0.397,6.787\H,0,1.168,0.033,7.733\N,0,-0.185,
 1.961,-0.152\C,0,-0.703,2.8,0.777\C,0,-0.62,4.156,0.193\C,0,-0.187,4.0
 15,-1.225\C,0,-0.214,2.583,-1.38\C,0,-0.887,5.406,0.974\C,0,0.181,5.01
 3,-2.277\O,0,0.303,4.69,-3.508\C,0,0.31,6.414,-1.837\N,0,-0.265,-0.413
 ,-2.029\C,0,-0.279,0.569,-2.937\C,0,-0.196,0.024,-4.332\C,0,0.124,-1.5
 33,-4.18\C,0,0.086,-1.632,-2.635\C,0,-1.451,0.205,-5.197\C,0,1.373,-2.
 07,-4.923\C,0,2.626,-1.49,-4.306\N,0,0.15,-2.144,0.303\C,0,0.173,-3.13
 6,-0.688\C,0,0.173,-4.438,0.004\C,0,0.133,-4.111,1.358\C,0,0.083,-2.69
 5,1.502\C,0,0.149,-5.715,-0.623\C,0,0.096,-4.629,2.716\O,0,0.208,-5.74
 7,3.221\C,0,-0.255,-3.428,3.701\C,0,0.717,-3.482,4.848\O,0,1.931,-3.25
 5,4.669\O,0,0.038,-3.556,6.003\C,0,0.943,-3.583,7.183\H,0,-1.859,3.22,
 2.497\H,0,-0.218,2.453,-3.474\H,0,0.276,-3.747,-2.605\H,0,-1.554,-0.94
 9,5.132\H,0,-1.585,1.831,4.665\H,0,-3.484,-0.377,3.969\H,0,-3.511,1.02
 7,2.858\H,0,-3.852,1.301,4.543\H,0,0.669,1.096,4.966\H,0,1.13,-0.639,5
 .189\H,0,-0.844,0.026,7.125\H,0,0.062,1.477,6.921\H,0,-1.344,5.186,1.9
 38\H,0,-1.651,5.963,0.432\H,0,0.007,6.02,1.084\H,0,-0.635,6.744,-1.405
 \H,0,0.665,6.97,-2.704\H,0,1.048,6.466,-1.036\H,0,0.608,0.501,-4.891\H
 ,0,-0.692,-2.156,-4.547\H,0,-1.267,0.74,-6.129\H,0,-2.204,0.714,-4.596
 \H,0,-1.967,-0.72,-5.453\H,0,1.356,-1.759,-5.967\H,0,1.452,-3.157,-4.9
 02\H,0,2.714,-0.522,-4.798\H,0,3.487,-2.121,-4.529\H,0,2.495,-1.303,-3
 .24\H,0,0.867,-6.333,-0.084\H,0,0.404,-5.642,-1.68\H,0,-0.891,-5.999,-
 0.463\H,0,-1.283,-3.581,4.028\H,0,0.698,-4.478,7.755\H,0,0.833,-2.619,
 7.68\H,0,2.,-3.754,6.976\Mg,0,31.54049,2.83764,2.38839\C,0,31.20764,5.
 85036,0.46698\C,0,31.03287,1.11091,-0.50908\C,0,31.37942,0.18125,4.116
 13\C,0,30.88385,4.74318,5.23153\N,0,31.17909,3.50643,0.31129\C,0,31.13
 502,4.67539,-0.30995\C,0,31.08655,4.57938,-1.85849\C,0,30.4642,3.10472
 ,-1.98862\C,0,30.94772,2.51761,-0.66417\C,0,28.94461,3.09085,-1.99079\
 C,0,32.51291,4.66019,-2.50731\C,0,32.51906,4.88339,-4.02121\H,0,33.577
 93,5.70635,-4.59914\N,0,31.73641,0.93879,1.84567\C,0,31.5112,0.41465,0
 .62263\C,0,31.77715,-1.02682,0.74746\C,0,32.01802,-1.33678,2.18295\C,0
 ,31.693,-0.05998,2.78646\C,0,31.86342,-1.94399,-0.43777\C,0,32.45469,-
 2.58063,2.89596\O,0,32.36882,-2.69179,4.16997\C,0,32.89827,-3.69911,2.
 05113\N,0,30.97615,2.4666,4.35466\C,0,31.04858,1.22792,4.87267\C,0,30.
 85784,1.25103,6.3705\C,0,30.88317,2.79595,6.78302\C,0,30.99996,3.43067
 ,5.37985\C,0,29.57125,0.60759,6.88727\C,0,31.90743,3.21683,7.87225\C,0
 ,33.31505,3.07442,7.3396\N,0,31.3021,4.93877,2.83166\C,0,31.00607,5.51
 786,4.08509\C,0,30.82773,6.96755,3.8637\C,0,31.01112,7.12923,2.48214\C
 ,0,31.26449,5.86641,1.88164\C,0,30.4894,7.92586,4.86034\C,0,31.03747,8
 .07957,1.39363\O,0,30.97578,9.30545,1.30904\C,0,31.04065,7.27674,0.021
 82\C,0,32.10874,7.86557,-0.8585\O,0,33.30822,7.77737,-0.54212\O,0,31.5
 5867,8.24119,-2.02756\C,0,32.58077,8.8213,-2.93893\H,0,30.65916,0.4767
 ,-1.31344\H,0,31.41973,-0.6889,4.77544\H,0,30.77404,5.41932,6.08209\H,
 0,30.4363,5.30105,-2.33823\H,0,30.89868,2.56513,-2.82614\H,0,28.5325,4
 .06755,-1.78494\H,0,28.65574,2.38823,-1.22013\H,0,28.57277,2.67566,-2.
 9319\H,0,32.98374,3.66975,-2.46151\H,0,33.10713,5.41402,-2.0285\H,0,31
 .5381,5.20113,-4.395\H,0,32.69512,3.92351,-4.51279\H,0,31.47835,-1.464
 59,-1.34624\H,0,31.1702,-2.77167,-0.25273\H,0,32.86679,-2.34944,-0.584
 47\H,0,32.09415,-3.98308,1.37644\H,0,33.25475,-4.46455,2.74315\H,0,33.
 72878,-3.356,1.42412\H,0,31.6707,0.74008,6.87179\H,0,29.91789,3.12313,
 7.19657\H,0,29.7517,-0.20218,7.61925\H,0,29.01107,0.236,6.03954\H,0,28
 .86396,1.29497,7.34819\H,0,31.83435,2.55329,8.73742\H,0,31.76438,4.230
 67,8.23096\H,0,33.53122,2.01308,7.49427\H,0,34.00271,3.70326,7.9015\H,
 0,33.34851,3.26377,6.2604\H,0,31.12069,8.78789,4.69043\H,0,30.62616,7.
 52317,5.8618\H,0,29.43449,8.08891,4.62401\H,0,30.04739,7.37541,-0.4178
 \H,0,32.22697,9.81714,-3.2232\H,0,32.7106,8.08192,-3.75146\H,0,33.5523
 9,9.05393,-2.51906\\Version=ES64L-G16RevA.03\State=1-A\HF=-4069.811790
 1\RMSD=4.770e-09\PG=C01 [X(C68H72Mg2N8O8)]\\@


 The number of Unix installations has grown to 10,
  with more expected.
                  -- The Unix Programmer's Manual,
                     2nd Edition, June, 1972.
 Job cpu time:       0 days 10 hours 18 minutes  8.9 seconds.
 Elapsed time:       0 days  0 hours 26 minutes 20.9 seconds.
 File lengths (MBytes):  RWF=  13225 Int=      0 D2E=      0 Chk=    574 Scr=      1
 Normal termination of Gaussian 16 at Sun Sep 12 13:37:56 2021.
