 Entering Gaussian System, Link 0=g16
 Initial command:
 /sw/apps/gaussian-16.0/g16/l1.exe "/tmp/Gau-251990.inp" -scrdir="/tmp/"
 Entering Link 1 = /sw/apps/gaussian-16.0/g16/l1.exe PID=    251991.
  
 Copyright (c) 1988,1990,1992,1993,1995,1998,2003,2009,2016,
            Gaussian, Inc.  All Rights Reserved.
  
 This is part of the Gaussian(R) 16 program.  It is based on
 the Gaussian(R) 09 system (copyright 2009, Gaussian, Inc.),
 the Gaussian(R) 03 system (copyright 2003, Gaussian, Inc.),
 the Gaussian(R) 98 system (copyright 1998, Gaussian, Inc.),
 the Gaussian(R) 94 system (copyright 1995, Gaussian, Inc.),
 the Gaussian 92(TM) system (copyright 1992, Gaussian, Inc.),
 the Gaussian 90(TM) system (copyright 1990, Gaussian, Inc.),
 the Gaussian 88(TM) system (copyright 1988, Gaussian, Inc.),
 the Gaussian 86(TM) system (copyright 1986, Carnegie Mellon
 University), and the Gaussian 82(TM) system (copyright 1983,
 Carnegie Mellon University). Gaussian is a federally registered
 trademark of Gaussian, Inc.
  
 This software contains proprietary and confidential information,
 including trade secrets, belonging to Gaussian, Inc.
  
 This software is provided under written license and may be
 used, copied, transmitted, or stored only in accord with that
 written license.
  
 The following legend is applicable only to US Government
 contracts under FAR:
  
                    RESTRICTED RIGHTS LEGEND
  
 Use, reproduction and disclosure by the US Government is
 subject to restrictions as set forth in subparagraphs (a)
 and (c) of the Commercial Computer Software - Restricted
 Rights clause in FAR 52.227-19.
  
 Gaussian, Inc.
 340 Quinnipiac St., Bldg. 40, Wallingford CT 06492
  
  
 ---------------------------------------------------------------
 Warning -- This program may not be used in any manner that
 competes with the business of Gaussian, Inc. or will provide
 assistance to any competitor of Gaussian, Inc.  The licensee
 of this program is prohibited from giving any competitor of
 Gaussian, Inc. access to this program.  By using this program,
 the user acknowledges that Gaussian, Inc. is engaged in the
 business of creating and licensing software in the field of
 computational chemistry and represents and warrants to the
 licensee that it is not a competitor of Gaussian, Inc. and that
 it will not use this program in any manner prohibited above.
 ---------------------------------------------------------------
  

 Cite this work as:
 Gaussian 16, Revision A.03,
 M. J. Frisch, G. W. Trucks, H. B. Schlegel, G. E. Scuseria, 
 M. A. Robb, J. R. Cheeseman, G. Scalmani, V. Barone, 
 G. A. Petersson, H. Nakatsuji, X. Li, M. Caricato, A. V. Marenich, 
 J. Bloino, B. G. Janesko, R. Gomperts, B. Mennucci, H. P. Hratchian, 
 J. V. Ortiz, A. F. Izmaylov, J. L. Sonnenberg, D. Williams-Young, 
 F. Ding, F. Lipparini, F. Egidi, J. Goings, B. Peng, A. Petrone, 
 T. Henderson, D. Ranasinghe, V. G. Zakrzewski, J. Gao, N. Rega, 
 G. Zheng, W. Liang, M. Hada, M. Ehara, K. Toyota, R. Fukuda, 
 J. Hasegawa, M. Ishida, T. Nakajima, Y. Honda, O. Kitao, H. Nakai, 
 T. Vreven, K. Throssell, J. A. Montgomery, Jr., J. E. Peralta, 
 F. Ogliaro, M. J. Bearpark, J. J. Heyd, E. N. Brothers, K. N. Kudin, 
 V. N. Staroverov, T. A. Keith, R. Kobayashi, J. Normand, 
 K. Raghavachari, A. P. Rendell, J. C. Burant, S. S. Iyengar, 
 J. Tomasi, M. Cossi, J. M. Millam, M. Klene, C. Adamo, R. Cammi, 
 J. W. Ochterski, R. L. Martin, K. Morokuma, O. Farkas, 
 J. B. Foresman, and D. J. Fox, Gaussian, Inc., Wallingford CT, 2016.
 
 ******************************************
 Gaussian 16:  ES64L-G16RevA.03 25-Dec-2016
                 3-Sep-2021 
 ******************************************
 %nproc=24
 Will use up to   24 processors via shared memory.
 %mem=175gb
 -----------------------------------
 #p cam-b3lyp/Def2SVP td=(nstates=5)
 -----------------------------------
 1/38=1,172=1/1;
 2/12=2,17=6,18=5,40=1/2;
 3/5=43,7=101,11=9,25=1,30=1,74=-40/1,2,3,8;
 4//1;
 5/5=2,38=5/2;
 8/6=1,10=1,108=5/1;
 9/41=5,42=1,70=2/14;
 6/7=2,8=2,9=2,10=2/1;
 99/5=1,9=1/99;
 Leave Link    1 at Fri Sep  3 12:53:38 2021, MaxMem= 23488102400 cpu:               0.5 elap:               0.0
 (Enter /sw/apps/gaussian-16.0/g16/l101.exe)
 --------------------------------
 TDDFT excited states in gaussian
 --------------------------------
 Symbolic Z-matrix:
 Charge =  0 Multiplicity = 1
 Mg                    0.        0.        0. 
 C                    -0.217    -2.218     2.801 
 C                    -1.255     2.442     2.026 
 C                    -0.245     1.85     -2.564 
 C                     0.146    -2.824    -2.037 
 N                    -0.617    -0.009     2.126 
 C                    -0.594    -0.908     3.105 
 C                    -0.936    -0.309     4.502 
 C                    -1.773     0.964     4.032 
 C                    -1.155     1.168     2.66 
 C                    -3.263     0.685     3.863 
 C                     0.345     0.11      5.299 
 C                     0.124     0.397     6.787 
 H                     1.168     0.033     7.733 
 N                    -0.185     1.961    -0.152 
 C                    -0.703     2.8       0.777 
 C                    -0.62      4.156     0.193 
 C                    -0.187     4.015    -1.225 
 C                    -0.214     2.583    -1.38 
 C                    -0.887     5.406     0.974 
 C                     0.181     5.013    -2.277 
 O                     0.303     4.69     -3.508 
 C                     0.31      6.414    -1.837 
 N                    -0.265    -0.413    -2.029 
 C                    -0.279     0.569    -2.937 
 C                    -0.196     0.024    -4.332 
 C                     0.124    -1.533    -4.18 
 C                     0.086    -1.632    -2.635 
 C                    -1.451     0.205    -5.197 
 C                     1.373    -2.07     -4.923 
 C                     2.626    -1.49     -4.306 
 N                     0.15     -2.144     0.303 
 C                     0.173    -3.136    -0.688 
 C                     0.173    -4.438     0.004 
 C                     0.133    -4.111     1.358 
 C                     0.083    -2.695     1.502 
 C                     0.149    -5.715    -0.623 
 C                     0.096    -4.629     2.716 
 O                     0.208    -5.747     3.221 
 C                    -0.255    -3.428     3.701 
 C                     0.717    -3.482     4.848 
 O                     1.931    -3.255     4.669 
 O                     0.038    -3.556     6.003 
 C                     0.943    -3.583     7.183 
 H                    -1.859     3.22      2.497 
 H                    -0.218     2.453    -3.474 
 H                     0.276    -3.747    -2.605 
 H                    -1.554    -0.949     5.132 
 H                    -1.585     1.831     4.665 
 H                    -3.484    -0.377     3.969 
 H                    -3.511     1.027     2.858 
 H                    -3.852     1.301     4.543 
 H                     0.669     1.096     4.966 
 H                     1.13     -0.639     5.189 
 H                    -0.844     0.026     7.125 
 H                     0.062     1.477     6.921 
 H                    -1.344     5.186     1.938 
 H                    -1.651     5.963     0.432 
 H                     0.007     6.02      1.084 
 H                    -0.635     6.744    -1.405 
 H                     0.665     6.97     -2.704 
 H                     1.048     6.466    -1.036 
 H                     0.608     0.501    -4.891 
 H                    -0.692    -2.156    -4.547 
 H                    -1.267     0.74     -6.129 
 H                    -2.204     0.714    -4.596 
 H                    -1.967    -0.72     -5.453 
 H                     1.356    -1.759    -5.967 
 H                     1.452    -3.157    -4.902 
 H                     2.714    -0.522    -4.798 
 H                     3.487    -2.121    -4.529 
 H                     2.495    -1.303    -3.24 
 H                     0.867    -6.333    -0.084 
 H                     0.404    -5.642    -1.68 
 H                    -0.891    -5.999    -0.463 
 H                    -1.283    -3.581     4.028 
 H                     0.698    -4.478     7.755 
 H                     0.833    -2.619     7.68 
 H                     2.       -3.754     6.976 
 Mg                    7.89118   0.70672   0.5926 
 C                     7.66267   3.14934  -2.02664 
 C                     7.40425  -1.68026  -1.79483 
 C                     7.63764  -1.43131   2.92327 
 C                     7.21934   3.272     2.85394 
 N                     7.58617   0.84153  -1.59396 
 C                     7.58005   1.81895  -2.4878 
 C                     7.56056   1.3402   -3.96427 
 C                     6.90896  -0.11004  -3.73823 
 C                     7.35291  -0.35564  -2.29766 
 C                     5.38978  -0.09955  -3.77465 
 C                     9.00107   1.2335   -4.5771 
 C                     9.04244   1.07157  -6.09823 
 H                     10.13037   1.70705  -6.8365 
 N                     8.05652  -1.2704    0.54526 
 C                     7.84451  -2.07957  -0.51379 
 C                     8.07643  -3.44833  -0.02709 
 C                     8.28165  -3.39396   1.44588 
 C                     7.97249  -2.00186   1.70389 
 C                     8.16644  -4.6336   -0.94385 
 C                     8.67672  -4.42729   2.45699 
 O                     8.56292  -4.21549   3.71597 
 C                     9.11267  -5.72825   1.92885 
 N                     7.27957   0.84742   2.57464 
 C                     7.31459  -0.22373   3.38664 
 C                     7.0944    0.17564   4.82623 
 C                     7.14511   1.77401   4.84123 
 C                     7.30383   2.03638   3.32751 
 C                     5.78399  -0.29763   5.45491 
 C                     8.15625   2.43693   5.81632 
 C                     9.57083   2.14341   5.37113 
 N                     7.6898    2.85553   0.4922 
 C                     7.38138   3.73389   1.55402 
 C                     7.23915   5.08509   0.97398 
 C                     7.45369   4.89378  -0.39929 
 C                     7.69147   3.51713  -0.65965 
 C                     6.90187   6.26718   1.69163 
 C                     7.52257   5.54174  -1.68929 
 O                     7.48932   6.70852  -2.07821 
 C                     7.53576   4.42193  -2.81722 
 C                     8.63387   4.75509  -3.78968 
 O                     9.82455   4.72936  -3.43159 
 O                     8.11567   4.83577  -5.02876 
 C                     9.16824   5.15346  -6.03025 
 H                     7.03302  -2.4891   -2.4248 
 H                     7.64575  -2.10986   3.77942 
 H                     7.10726   4.14075   3.50616 
 H                     6.93595   1.92962  -4.62473 
 H                     7.34828  -0.84855  -4.40378 
 H                     4.995     0.90412  -3.829 
 H                     5.07027  -0.58279  -2.86063 
 H                     5.02792  -0.73049  -4.59154 
 H                     9.4492    0.27841  -4.27423 
 H                     9.60186   2.07333  -4.28663 
 H                     8.07634   1.30169  -6.56367 
 H                     9.20737   0.01666  -6.33055 
 H                     7.81021  -4.39003  -1.9524 
 H                     7.45177  -5.37762  -0.57567 
 H                     9.16348  -5.07894  -0.95989 
 H                     8.31625  -6.15868   1.32644 
 H                     9.43844  -6.30234   2.79842 
 H                     9.96287  -5.56595   1.25696 
 H                     7.88571  -0.20702   5.45908 
 H                     6.17909   2.20957   5.13607 
 H                     5.93203  -0.90182   6.36985 
 H                     5.23295  -0.86001   4.71287 
 H                     5.08275   0.49435   5.71226 
 H                     8.0514    2.01165   6.81747 
 H                     8.02817   3.51038   5.90739 
 H                     9.76068   1.15095   5.79073 
 H                     10.26063   2.88146   5.7755 
 H                     9.63005   2.0568    4.27996 
 H                     7.55508   7.04922   1.328 
 H                     7.00971   6.12509   2.76492 
 H                     5.85572   6.38303   1.39597 
 H                     6.5539    4.42371  -3.29212 
 H                     8.842     6.05237  -6.56243 
 H                     9.29819   4.23266  -6.62941 
 H                     10.13608   5.46787  -5.65758 
 
 ITRead=  0  0  0  0  0  0  0  0  0  0  0  0  0  0  0  0  0  0  0  0
 ITRead=  0  0  0  0  0  0  0  0  0  0  0  0  0  0  0  0  0  0  0  0
 ITRead=  0  0  0  0  0  0  0  0  0  0  0  0  0  0  0  0  0  0  0  0
 ITRead=  0  0  0  0  0  0  0  0  0  0  0  0  0  0  0  0  0  0  0  0
 ITRead=  0  0  0  0  0  0  0  0  0  0  0  0  0  0  0  0  0  0  0  0
 ITRead=  0  0  0  0  0  0  0  0  0  0  0  0  0  0  0  0  0  0  0  0
 ITRead=  0  0  0  0  0  0  0  0  0  0  0  0  0  0  0  0  0  0  0  0
 ITRead=  0  0  0  0  0  0  0  0  0  0  0  0  0  0  0  0  0  0
 MicOpt= -1 -1 -1 -1 -1 -1 -1 -1 -1 -1 -1 -1 -1 -1 -1 -1 -1 -1 -1 -1
 MicOpt= -1 -1 -1 -1 -1 -1 -1 -1 -1 -1 -1 -1 -1 -1 -1 -1 -1 -1 -1 -1
 MicOpt= -1 -1 -1 -1 -1 -1 -1 -1 -1 -1 -1 -1 -1 -1 -1 -1 -1 -1 -1 -1
 MicOpt= -1 -1 -1 -1 -1 -1 -1 -1 -1 -1 -1 -1 -1 -1 -1 -1 -1 -1 -1 -1
 MicOpt= -1 -1 -1 -1 -1 -1 -1 -1 -1 -1 -1 -1 -1 -1 -1 -1 -1 -1 -1 -1
 MicOpt= -1 -1 -1 -1 -1 -1 -1 -1 -1 -1 -1 -1 -1 -1 -1 -1 -1 -1 -1 -1
 MicOpt= -1 -1 -1 -1 -1 -1 -1 -1 -1 -1 -1 -1 -1 -1 -1 -1 -1 -1 -1 -1
 MicOpt= -1 -1 -1 -1 -1 -1 -1 -1 -1 -1 -1 -1 -1 -1 -1 -1 -1 -1
 NAtoms=    158 NQM=      158 NQMF=       0 NMMI=      0 NMMIF=      0
                NMic=       0 NMicF=      0.
                    Isotopes and Nuclear Properties:
 (Nuclear quadrupole moments (NQMom) in fm**2, nuclear magnetic moments (NMagM)
  in nuclear magnetons)

  Atom         1           2           3           4           5           6           7           8           9          10
 IAtWgt=          24          12          12          12          12          14          12          12          12          12
 AtmWgt=  23.9850450  12.0000000  12.0000000  12.0000000  12.0000000  14.0030740  12.0000000  12.0000000  12.0000000  12.0000000
 NucSpn=           0           0           0           0           0           2           0           0           0           0
 AtZEff=  -0.0000000  -0.0000000  -0.0000000  -0.0000000  -0.0000000  -0.0000000  -0.0000000  -0.0000000  -0.0000000  -0.0000000
 NQMom=    0.0000000   0.0000000   0.0000000   0.0000000   0.0000000   2.0440000   0.0000000   0.0000000   0.0000000   0.0000000
 NMagM=    0.0000000   0.0000000   0.0000000   0.0000000   0.0000000   0.4037610   0.0000000   0.0000000   0.0000000   0.0000000
 AtZNuc=  12.0000000   6.0000000   6.0000000   6.0000000   6.0000000   7.0000000   6.0000000   6.0000000   6.0000000   6.0000000

  Atom        11          12          13          14          15          16          17          18          19          20
 IAtWgt=          12          12          12           1          14          12          12          12          12          12
 AtmWgt=  12.0000000  12.0000000  12.0000000   1.0078250  14.0030740  12.0000000  12.0000000  12.0000000  12.0000000  12.0000000
 NucSpn=           0           0           0           1           2           0           0           0           0           0
 AtZEff=  -0.0000000  -0.0000000  -0.0000000  -0.0000000  -0.0000000  -0.0000000  -0.0000000  -0.0000000  -0.0000000  -0.0000000
 NQMom=    0.0000000   0.0000000   0.0000000   0.0000000   2.0440000   0.0000000   0.0000000   0.0000000   0.0000000   0.0000000
 NMagM=    0.0000000   0.0000000   0.0000000   2.7928460   0.4037610   0.0000000   0.0000000   0.0000000   0.0000000   0.0000000
 AtZNuc=   6.0000000   6.0000000   6.0000000   1.0000000   7.0000000   6.0000000   6.0000000   6.0000000   6.0000000   6.0000000

  Atom        21          22          23          24          25          26          27          28          29          30
 IAtWgt=          12          16          12          14          12          12          12          12          12          12
 AtmWgt=  12.0000000  15.9949146  12.0000000  14.0030740  12.0000000  12.0000000  12.0000000  12.0000000  12.0000000  12.0000000
 NucSpn=           0           0           0           2           0           0           0           0           0           0
 AtZEff=  -0.0000000  -0.0000000  -0.0000000  -0.0000000  -0.0000000  -0.0000000  -0.0000000  -0.0000000  -0.0000000  -0.0000000
 NQMom=    0.0000000   0.0000000   0.0000000   2.0440000   0.0000000   0.0000000   0.0000000   0.0000000   0.0000000   0.0000000
 NMagM=    0.0000000   0.0000000   0.0000000   0.4037610   0.0000000   0.0000000   0.0000000   0.0000000   0.0000000   0.0000000
 AtZNuc=   6.0000000   8.0000000   6.0000000   7.0000000   6.0000000   6.0000000   6.0000000   6.0000000   6.0000000   6.0000000

  Atom        31          32          33          34          35          36          37          38          39          40
 IAtWgt=          12          14          12          12          12          12          12          12          16          12
 AtmWgt=  12.0000000  14.0030740  12.0000000  12.0000000  12.0000000  12.0000000  12.0000000  12.0000000  15.9949146  12.0000000
 NucSpn=           0           2           0           0           0           0           0           0           0           0
 AtZEff=  -0.0000000  -0.0000000  -0.0000000  -0.0000000  -0.0000000  -0.0000000  -0.0000000  -0.0000000  -0.0000000  -0.0000000
 NQMom=    0.0000000   2.0440000   0.0000000   0.0000000   0.0000000   0.0000000   0.0000000   0.0000000   0.0000000   0.0000000
 NMagM=    0.0000000   0.4037610   0.0000000   0.0000000   0.0000000   0.0000000   0.0000000   0.0000000   0.0000000   0.0000000
 AtZNuc=   6.0000000   7.0000000   6.0000000   6.0000000   6.0000000   6.0000000   6.0000000   6.0000000   8.0000000   6.0000000

  Atom        41          42          43          44          45          46          47          48          49          50
 IAtWgt=          12          16          16          12           1           1           1           1           1           1
 AtmWgt=  12.0000000  15.9949146  15.9949146  12.0000000   1.0078250   1.0078250   1.0078250   1.0078250   1.0078250   1.0078250
 NucSpn=           0           0           0           0           1           1           1           1           1           1
 AtZEff=  -0.0000000  -0.0000000  -0.0000000  -0.0000000  -0.0000000  -0.0000000  -0.0000000  -0.0000000  -0.0000000  -0.0000000
 NQMom=    0.0000000   0.0000000   0.0000000   0.0000000   0.0000000   0.0000000   0.0000000   0.0000000   0.0000000   0.0000000
 NMagM=    0.0000000   0.0000000   0.0000000   0.0000000   2.7928460   2.7928460   2.7928460   2.7928460   2.7928460   2.7928460
 AtZNuc=   6.0000000   8.0000000   8.0000000   6.0000000   1.0000000   1.0000000   1.0000000   1.0000000   1.0000000   1.0000000

  Atom        51          52          53          54          55          56          57          58          59          60
 IAtWgt=           1           1           1           1           1           1           1           1           1           1
 AtmWgt=   1.0078250   1.0078250   1.0078250   1.0078250   1.0078250   1.0078250   1.0078250   1.0078250   1.0078250   1.0078250
 NucSpn=           1           1           1           1           1           1           1           1           1           1
 AtZEff=  -0.0000000  -0.0000000  -0.0000000  -0.0000000  -0.0000000  -0.0000000  -0.0000000  -0.0000000  -0.0000000  -0.0000000
 NQMom=    0.0000000   0.0000000   0.0000000   0.0000000   0.0000000   0.0000000   0.0000000   0.0000000   0.0000000   0.0000000
 NMagM=    2.7928460   2.7928460   2.7928460   2.7928460   2.7928460   2.7928460   2.7928460   2.7928460   2.7928460   2.7928460
 AtZNuc=   1.0000000   1.0000000   1.0000000   1.0000000   1.0000000   1.0000000   1.0000000   1.0000000   1.0000000   1.0000000

  Atom        61          62          63          64          65          66          67          68          69          70
 IAtWgt=           1           1           1           1           1           1           1           1           1           1
 AtmWgt=   1.0078250   1.0078250   1.0078250   1.0078250   1.0078250   1.0078250   1.0078250   1.0078250   1.0078250   1.0078250
 NucSpn=           1           1           1           1           1           1           1           1           1           1
 AtZEff=  -0.0000000  -0.0000000  -0.0000000  -0.0000000  -0.0000000  -0.0000000  -0.0000000  -0.0000000  -0.0000000  -0.0000000
 NQMom=    0.0000000   0.0000000   0.0000000   0.0000000   0.0000000   0.0000000   0.0000000   0.0000000   0.0000000   0.0000000
 NMagM=    2.7928460   2.7928460   2.7928460   2.7928460   2.7928460   2.7928460   2.7928460   2.7928460   2.7928460   2.7928460
 AtZNuc=   1.0000000   1.0000000   1.0000000   1.0000000   1.0000000   1.0000000   1.0000000   1.0000000   1.0000000   1.0000000

  Atom        71          72          73          74          75          76          77          78          79          80
 IAtWgt=           1           1           1           1           1           1           1           1           1          24
 AtmWgt=   1.0078250   1.0078250   1.0078250   1.0078250   1.0078250   1.0078250   1.0078250   1.0078250   1.0078250  23.9850450
 NucSpn=           1           1           1           1           1           1           1           1           1           0
 AtZEff=  -0.0000000  -0.0000000  -0.0000000  -0.0000000  -0.0000000  -0.0000000  -0.0000000  -0.0000000  -0.0000000  -0.0000000
 NQMom=    0.0000000   0.0000000   0.0000000   0.0000000   0.0000000   0.0000000   0.0000000   0.0000000   0.0000000   0.0000000
 NMagM=    2.7928460   2.7928460   2.7928460   2.7928460   2.7928460   2.7928460   2.7928460   2.7928460   2.7928460   0.0000000
 AtZNuc=   1.0000000   1.0000000   1.0000000   1.0000000   1.0000000   1.0000000   1.0000000   1.0000000   1.0000000  12.0000000

  Atom        81          82          83          84          85          86          87          88          89          90
 IAtWgt=          12          12          12          12          14          12          12          12          12          12
 AtmWgt=  12.0000000  12.0000000  12.0000000  12.0000000  14.0030740  12.0000000  12.0000000  12.0000000  12.0000000  12.0000000
 NucSpn=           0           0           0           0           2           0           0           0           0           0
 AtZEff=  -0.0000000  -0.0000000  -0.0000000  -0.0000000  -0.0000000  -0.0000000  -0.0000000  -0.0000000  -0.0000000  -0.0000000
 NQMom=    0.0000000   0.0000000   0.0000000   0.0000000   2.0440000   0.0000000   0.0000000   0.0000000   0.0000000   0.0000000
 NMagM=    0.0000000   0.0000000   0.0000000   0.0000000   0.4037610   0.0000000   0.0000000   0.0000000   0.0000000   0.0000000
 AtZNuc=   6.0000000   6.0000000   6.0000000   6.0000000   7.0000000   6.0000000   6.0000000   6.0000000   6.0000000   6.0000000

  Atom        91          92          93          94          95          96          97          98          99         100
 IAtWgt=          12          12           1          14          12          12          12          12          12          12
 AtmWgt=  12.0000000  12.0000000   1.0078250  14.0030740  12.0000000  12.0000000  12.0000000  12.0000000  12.0000000  12.0000000
 NucSpn=           0           0           1           2           0           0           0           0           0           0
 AtZEff=  -0.0000000  -0.0000000  -0.0000000  -0.0000000  -0.0000000  -0.0000000  -0.0000000  -0.0000000  -0.0000000  -0.0000000
 NQMom=    0.0000000   0.0000000   0.0000000   2.0440000   0.0000000   0.0000000   0.0000000   0.0000000   0.0000000   0.0000000
 NMagM=    0.0000000   0.0000000   2.7928460   0.4037610   0.0000000   0.0000000   0.0000000   0.0000000   0.0000000   0.0000000
 AtZNuc=   6.0000000   6.0000000   1.0000000   7.0000000   6.0000000   6.0000000   6.0000000   6.0000000   6.0000000   6.0000000

  Atom       101         102         103         104         105         106         107         108         109         110
 IAtWgt=          16          12          14          12          12          12          12          12          12          12
 AtmWgt=  15.9949146  12.0000000  14.0030740  12.0000000  12.0000000  12.0000000  12.0000000  12.0000000  12.0000000  12.0000000
 NucSpn=           0           0           2           0           0           0           0           0           0           0
 AtZEff=  -0.0000000  -0.0000000  -0.0000000  -0.0000000  -0.0000000  -0.0000000  -0.0000000  -0.0000000  -0.0000000  -0.0000000
 NQMom=    0.0000000   0.0000000   2.0440000   0.0000000   0.0000000   0.0000000   0.0000000   0.0000000   0.0000000   0.0000000
 NMagM=    0.0000000   0.0000000   0.4037610   0.0000000   0.0000000   0.0000000   0.0000000   0.0000000   0.0000000   0.0000000
 AtZNuc=   8.0000000   6.0000000   7.0000000   6.0000000   6.0000000   6.0000000   6.0000000   6.0000000   6.0000000   6.0000000

  Atom       111         112         113         114         115         116         117         118         119         120
 IAtWgt=          14          12          12          12          12          12          12          16          12          12
 AtmWgt=  14.0030740  12.0000000  12.0000000  12.0000000  12.0000000  12.0000000  12.0000000  15.9949146  12.0000000  12.0000000
 NucSpn=           2           0           0           0           0           0           0           0           0           0
 AtZEff=  -0.0000000  -0.0000000  -0.0000000  -0.0000000  -0.0000000  -0.0000000  -0.0000000  -0.0000000  -0.0000000  -0.0000000
 NQMom=    2.0440000   0.0000000   0.0000000   0.0000000   0.0000000   0.0000000   0.0000000   0.0000000   0.0000000   0.0000000
 NMagM=    0.4037610   0.0000000   0.0000000   0.0000000   0.0000000   0.0000000   0.0000000   0.0000000   0.0000000   0.0000000
 AtZNuc=   7.0000000   6.0000000   6.0000000   6.0000000   6.0000000   6.0000000   6.0000000   8.0000000   6.0000000   6.0000000

  Atom       121         122         123         124         125         126         127         128         129         130
 IAtWgt=          16          16          12           1           1           1           1           1           1           1
 AtmWgt=  15.9949146  15.9949146  12.0000000   1.0078250   1.0078250   1.0078250   1.0078250   1.0078250   1.0078250   1.0078250
 NucSpn=           0           0           0           1           1           1           1           1           1           1
 AtZEff=  -0.0000000  -0.0000000  -0.0000000  -0.0000000  -0.0000000  -0.0000000  -0.0000000  -0.0000000  -0.0000000  -0.0000000
 NQMom=    0.0000000   0.0000000   0.0000000   0.0000000   0.0000000   0.0000000   0.0000000   0.0000000   0.0000000   0.0000000
 NMagM=    0.0000000   0.0000000   0.0000000   2.7928460   2.7928460   2.7928460   2.7928460   2.7928460   2.7928460   2.7928460
 AtZNuc=   8.0000000   8.0000000   6.0000000   1.0000000   1.0000000   1.0000000   1.0000000   1.0000000   1.0000000   1.0000000

  Atom       131         132         133         134         135         136         137         138         139         140
 IAtWgt=           1           1           1           1           1           1           1           1           1           1
 AtmWgt=   1.0078250   1.0078250   1.0078250   1.0078250   1.0078250   1.0078250   1.0078250   1.0078250   1.0078250   1.0078250
 NucSpn=           1           1           1           1           1           1           1           1           1           1
 AtZEff=  -0.0000000  -0.0000000  -0.0000000  -0.0000000  -0.0000000  -0.0000000  -0.0000000  -0.0000000  -0.0000000  -0.0000000
 NQMom=    0.0000000   0.0000000   0.0000000   0.0000000   0.0000000   0.0000000   0.0000000   0.0000000   0.0000000   0.0000000
 NMagM=    2.7928460   2.7928460   2.7928460   2.7928460   2.7928460   2.7928460   2.7928460   2.7928460   2.7928460   2.7928460
 AtZNuc=   1.0000000   1.0000000   1.0000000   1.0000000   1.0000000   1.0000000   1.0000000   1.0000000   1.0000000   1.0000000

  Atom       141         142         143         144         145         146         147         148         149         150
 IAtWgt=           1           1           1           1           1           1           1           1           1           1
 AtmWgt=   1.0078250   1.0078250   1.0078250   1.0078250   1.0078250   1.0078250   1.0078250   1.0078250   1.0078250   1.0078250
 NucSpn=           1           1           1           1           1           1           1           1           1           1
 AtZEff=  -0.0000000  -0.0000000  -0.0000000  -0.0000000  -0.0000000  -0.0000000  -0.0000000  -0.0000000  -0.0000000  -0.0000000
 NQMom=    0.0000000   0.0000000   0.0000000   0.0000000   0.0000000   0.0000000   0.0000000   0.0000000   0.0000000   0.0000000
 NMagM=    2.7928460   2.7928460   2.7928460   2.7928460   2.7928460   2.7928460   2.7928460   2.7928460   2.7928460   2.7928460
 AtZNuc=   1.0000000   1.0000000   1.0000000   1.0000000   1.0000000   1.0000000   1.0000000   1.0000000   1.0000000   1.0000000

  Atom       151         152         153         154         155         156         157         158
 IAtWgt=           1           1           1           1           1           1           1           1
 AtmWgt=   1.0078250   1.0078250   1.0078250   1.0078250   1.0078250   1.0078250   1.0078250   1.0078250
 NucSpn=           1           1           1           1           1           1           1           1
 AtZEff=  -0.0000000  -0.0000000  -0.0000000  -0.0000000  -0.0000000  -0.0000000  -0.0000000  -0.0000000
 NQMom=    0.0000000   0.0000000   0.0000000   0.0000000   0.0000000   0.0000000   0.0000000   0.0000000
 NMagM=    2.7928460   2.7928460   2.7928460   2.7928460   2.7928460   2.7928460   2.7928460   2.7928460
 AtZNuc=   1.0000000   1.0000000   1.0000000   1.0000000   1.0000000   1.0000000   1.0000000   1.0000000
 Leave Link  101 at Fri Sep  3 12:53:38 2021, MaxMem= 23488102400 cpu:               3.4 elap:               0.2
 (Enter /sw/apps/gaussian-16.0/g16/l202.exe)
 Stoichiometry    C68H72Mg2N8O8
 Framework group  C1[X(C68H72Mg2N8O8)]
 Deg. of freedom   468
 Full point group                 C1      NOp   1
 Largest Abelian subgroup         C1      NOp   1
 Largest concise Abelian subgroup C1      NOp   1
                         Standard orientation:                         
 ---------------------------------------------------------------------
 Center     Atomic      Atomic             Coordinates (Angstroms)
 Number     Number       Type             X           Y           Z
 ---------------------------------------------------------------------
      1         12           0       -3.173438   -2.237975    0.175670
      2          6           0       -5.401549    0.563311    0.198717
      3          6           0       -4.052452   -2.720813   -3.085812
      4          6           0       -1.568791   -4.971912    0.261224
      5          6           0       -3.349428   -2.218708    3.656233
      6          7           0       -4.559705   -1.148876   -1.163274
      7          6           0       -5.307582   -0.055735   -1.049720
      8          6           0       -5.923108    0.414878   -2.401396
      9          6           0       -5.899808   -0.973189   -3.185441
     10          6           0       -4.745851   -1.642568   -2.460019
     11          6           0       -7.159193   -1.809219   -2.981716
     12          6           0       -5.037608    1.490998   -3.115250
     13          6           0       -5.717563    2.237370   -4.266746
     14          1           0       -5.402510    3.642896   -4.473114
     15          7           0       -2.472040   -3.358344   -1.292547
     16          6           0       -2.941223   -3.416353   -2.562110
     17          6           0       -2.086013   -4.394341   -3.268394
     18          6           0       -1.203059   -5.040120   -2.257724
     19          6           0       -1.737687   -4.494471   -1.036324
     20          6           0       -2.123528   -4.600098   -4.751636
     21          6           0       -0.065812   -6.005210   -2.373499
     22          8           0        0.412567   -6.617645   -1.358289
     23          6           0        0.421838   -6.285448   -3.736108
     24          7           0       -2.717529   -3.569296    1.717542
     25          6           0       -1.958225   -4.647881    1.495967
     26          6           0       -1.533308   -5.290263    2.783107
     27          6           0       -1.961767   -4.280607    3.943611
     28          6           0       -2.671260   -3.211622    3.076338
     29          6           0       -2.127856   -6.676505    3.067459
     30          6           0       -0.850842   -3.819516    4.920166
     31          6           0        0.151021   -2.955971    4.186913
     32          7           0       -4.039525   -0.950413    1.693274
     33          6           0       -4.010594   -1.146059    3.081640
     34          6           0       -4.820912   -0.072724    3.686127
     35          6           0       -5.281550    0.667880    2.599314
     36          6           0       -4.811704    0.078229    1.391071
     37          6           0       -5.095583    0.083417    5.073430
     38          6           0       -6.081658    1.805830    2.176522
     39          8           0       -6.649119    2.731168    2.758958
     40          6           0       -6.291827    1.712791    0.600769
     41          6           0       -5.993823    3.068928    0.021634
     42          8           0       -4.836950    3.536109    0.049048
     43          8           0       -7.055558    3.496270   -0.678822
     44          6           0       -6.815042    4.823876   -1.304736
     45          1           0       -4.427131   -3.109285   -4.034836
     46          1           0       -0.927793   -5.852183    0.342966
     47          1           0       -3.380163   -2.099277    4.740781
     48          1           0       -6.945945    0.785289   -2.330523
     49          1           0       -5.658778   -0.840900   -4.240015
     50          1           0       -7.811148   -1.370009   -2.226752
     51          1           0       -6.808623   -2.789515   -2.658276
     52          1           0       -7.673242   -1.972471   -3.929281
     53          1           0       -4.238312    0.992502   -3.663600
     54          1           0       -4.652640    2.213514   -2.394767
     55          1           0       -6.797233    2.085242   -4.257900
     56          1           0       -5.388686    1.790341   -5.204939
     57          1           0       -2.983801   -4.107144   -5.202714
     58          1           0       -2.299171   -5.662188   -4.921409
     59          1           0       -1.191613   -4.300334   -5.231228
     60          1           0       -0.395619   -6.686841   -4.335438
     61          1           0        1.294016   -6.927346   -3.617269
     62          1           0        0.714429   -5.346278   -4.206532
     63          1           0       -0.453547   -5.430578    2.812341
     64          1           0       -2.727378   -4.705383    4.593287
     65          1           0       -1.376925   -7.450311    3.228805
     66          1           0       -2.786279   -6.937140    2.239305
     67          1           0       -2.815946   -6.714355    3.911567
     68          1           0       -0.307976   -4.679756    5.310331
     69          1           0       -1.232720   -3.254712    5.770705
     70          1           0        0.816046   -3.688474    3.730829
     71          1           0        0.692282   -2.321299    4.889365
     72          1           0       -0.321274   -2.397004    3.378841
     73          1           0       -4.980832    1.145556    5.289443
     74          1           0       -4.421039   -0.519502    5.680952
     75          1           0       -6.125450   -0.270669    5.116479
     76          1           0       -7.328167    1.417566    0.439642
     77          1           0       -7.611960    5.486805   -0.967571
     78          1           0       -6.722116    4.648803   -2.376706
     79          1           0       -5.935086    5.367475   -0.959023
     80         12           0        3.310965    2.343691   -0.111030
     81          6           0        5.190551   -0.693743   -0.457704
     82          6           0        2.938883    1.561094    3.188014
     83          6           0        1.279616    4.768892    0.132891
     84          6           0        2.860591    2.295915   -3.566543
     85          7           0        4.019916    0.628237    1.091824
     86          6           0        4.777959   -0.434141    0.865855
     87          6           0        5.179524   -1.220987    2.142242
     88          6           0        3.969943   -0.766155    3.095612
     89          6           0        3.638190    0.575810    2.446208
     90          6           0        2.748500   -1.663830    2.987899
     91          6           0        6.566328   -0.762528    2.715482
     92          6           0        7.163635   -1.692113    3.774191
     93          1           0        8.613197   -1.865078    3.810547
     94          7           0        2.669412    3.325535    1.489899
     95          6           0        2.608159    2.864557    2.756800
     96          6           0        2.045224    3.962657    3.557706
     97          6           0        1.625902    5.050614    2.632919
     98          6           0        1.827343    4.401062    1.353233
     99          6           0        2.020370    3.945373    5.058539
    100          6           0        1.114531    6.440558    2.862594
    101          8           0        0.586506    7.128307    1.918649
    102          6           0        1.164993    6.937535    4.245326
    103          7           0        2.048885    3.268920   -1.479771
    104          6           0        1.310528    4.336061   -1.127674
    105          6           0        0.696494    4.997911   -2.338177
    106          6           0        1.375347    4.293787   -3.603464
    107          6           0        2.236290    3.238974   -2.874407
    108          6           0       -0.824152    4.894206   -2.453401
    109          6           0        2.065064    5.222683   -4.639857
    110          6           0        3.286171    5.866546   -4.023641
    111          7           0        4.053287    1.161519   -1.760105
    112          6           0        3.716219    1.294784   -3.124922
    113          6           0        4.383913    0.192993   -3.847874
    114          6           0        5.049703   -0.523992   -2.842312
    115          6           0        4.797159    0.075994   -1.579090
    116          6           0        4.287838   -0.064183   -5.244565
    117          6           0        5.900075   -1.658177   -2.560905
    118          8           0        6.503514   -2.482705   -3.246290
    119          6           0        5.926123   -1.892584   -0.989043
    120          6           0        7.359058   -2.077501   -0.570684
    121          8           0        8.173121   -1.142968   -0.673445
    122          8           0        7.480478   -3.248969    0.079914
    123          6           0        8.881989   -3.472346    0.524529
    124          1           0        2.570376    1.299098    4.180212
    125          1           0        0.659127    5.667947    0.146368
    126          1           0        2.849305    2.268897   -4.658249
    127          1           0        5.179739   -2.298592    2.030318
    128          1           0        4.306442   -0.621703    4.118968
    129          1           0        2.852708   -2.392894    2.198111
    130          1           0        1.915171   -1.003691    2.785858
    131          1           0        2.536542   -2.129581    3.954587
    132          1           0        6.422533    0.142474    3.319670
    133          1           0        7.275122   -0.613312    1.924292
    134          1           0        6.659662   -2.665932    3.799262
    135          1           0        6.969563   -1.264410    4.760809
    136          1           0        2.244380    2.946597    5.453082
    137          1           0        0.984912    4.131878    5.363364
    138          1           0        2.661955    4.711394    5.499282
    139          1           0        0.590220    6.275228    4.888318
    140          1           0        0.840456    7.978624    4.193698
    141          1           0        2.202422    6.893627    4.595228
    142          1           0        0.927094    6.055969   -2.359080
    143          1           0        0.639922    3.738554   -4.204050
    144          1           0       -1.324716    5.878401   -2.523201
    145          1           0       -1.193944    4.339072   -1.601567
    146          1           0       -1.184310    4.299202   -3.290931
    147          1           0        1.394375    6.037456   -4.923545
    148          1           0        2.355079    4.711909   -5.551994
    149          1           0        2.868142    6.720253   -3.481866
    150          1           0        3.979596    6.190972   -4.796924
    151          1           0        3.750671    5.202859   -3.285117
    152          1           0        5.286531   -0.300413   -5.587063
    153          1           0        3.875073    0.789231   -5.778493
    154          1           0        3.602299   -0.915814   -5.239358
    155          1           0        5.321241   -2.775626   -0.779435
    156          1           0        9.197489   -4.436617    0.114251
    157          1           0        8.864978   -3.375036    1.626343
    158          1           0        9.645000   -2.813468    0.126855
 ---------------------------------------------------------------------
 Rotational constants (GHZ):           0.0218571           0.0162942           0.0139181
 Leave Link  202 at Fri Sep  3 12:53:38 2021, MaxMem= 23488102400 cpu:               0.2 elap:               0.0
 (Enter /sw/apps/gaussian-16.0/g16/l301.exe)
 Standard basis: def2SVP (5D, 7F)
 Ernie: Thresh=  0.10000D-02 Tol=  0.10000D-05 Strict=F.
 There are  1658 symmetry adapted cartesian basis functions of A   symmetry.
 There are  1572 symmetry adapted basis functions of A   symmetry.
  1572 basis functions,  2678 primitive gaussians,  1658 cartesian basis functions
   312 alpha electrons      312 beta electrons
       nuclear repulsion energy     15917.0568232855 Hartrees.
 IExCor=20419 DFT=T Ex+Corr=CAM-B3LYP ExCW=0 ScaHFX=  1.000000
 ScaDFX=  1.000000  1.000000  1.000000  0.810000 ScalE2=  1.000000  1.000000
 IRadAn=      5 IRanWt=     -1 IRanGd=            0 ICorTp=0 IEmpDi=  4
 HFx  wShort=  0.000000 wLong=  0.330000 cFull=  0.190000 cShort=  0.000000 cLong=  0.460000
 DFx  wShort=  0.000000 wLong=  0.330000 cFull=  0.190000 cShort=  0.000000 cLong=  0.460000
 NAtoms=  158 NActive=  158 NUniq=  158 SFac= 1.00D+00 NAtFMM=   60 NAOKFM=T Big=T
 Integral buffers will be    131072 words long.
 Raffenetti 1 integral format.
 Two-electron integral symmetry is turned on.
 Leave Link  301 at Fri Sep  3 12:53:38 2021, MaxMem= 23488102400 cpu:               1.4 elap:               0.1
 (Enter /sw/apps/gaussian-16.0/g16/l302.exe)
 NPDir=0 NMtPBC=     1 NCelOv=     1 NCel=       1 NClECP=     1 NCelD=      1
         NCelK=      1 NCelE2=     1 NClLst=     1 CellRange=     0.0.
 One-electron integrals computed using PRISM.
 One-electron integral symmetry used in STVInt
   1 Symmetry operations used in ECPInt.
 ECPInt:  NShTT=  271216 NPrTT=  987664 LenC2=  163766 LenP2D=  343836.
 LDataN:  DoStor=T MaxTD1= 4 Len=   56
 NBasis=  1572 RedAO= T EigKep=  3.36D-04  NBF=  1572
 NBsUse=  1572 1.00D-06 EigRej= -1.00D+00 NBFU=  1572
 Precomputing XC quadrature grid using
 IXCGrd= 4 IRadAn=           5 IRanWt=          -1 IRanGd=           0 AccXCQ= 0.00D+00.
 Generated NRdTot=       0 NPtTot=           0 NUsed=           0 NTot=          32
 NSgBfM=  1269  1243  1256  1268  1269 MxSgAt=   158 MxSgA2=   158.
 Leave Link  302 at Fri Sep  3 12:53:43 2021, MaxMem= 23488102400 cpu:             129.5 elap:               5.4
 (Enter /sw/apps/gaussian-16.0/g16/l303.exe)
 DipDrv:  MaxL=1.
 Leave Link  303 at Fri Sep  3 12:53:44 2021, MaxMem= 23488102400 cpu:              10.5 elap:               0.5
 (Enter /sw/apps/gaussian-16.0/g16/l308.exe)
 Leave Link  308 at Fri Sep  3 12:53:45 2021, MaxMem= 23488102400 cpu:              17.4 elap:               0.8
 (Enter /sw/apps/gaussian-16.0/g16/l401.exe)
 ExpMin= 3.36D-02 ExpMax= 4.95D+03 ExpMxC= 7.45D+02 IAcc=3 IRadAn=         5 AccDes= 0.00D+00
 Harris functional with IExCor=20419 and IRadAn=       5 diagonalized for initial guess.
 HarFok:  IExCor=20419 AccDes= 0.00D+00 IRadAn=         5 IDoV= 1 UseB2=F ITyADJ=14
 ICtDFT=  3500011 ScaDFX=  1.000000  1.000000  1.000000  1.000000
 FoFCou: FMM=F IPFlag=           0 FMFlag=      100000 FMFlg1=        2001
         NFxFlg=           0 DoJE=T BraDBF=F KetDBF=T FulRan=T
         wScrn=  0.000000 ICntrl=       500 IOpCl=  0 I1Cent=   200000004 NGrid=           0
         NMat0=    1 NMatS0=      1 NMatT0=    0 NMatD0=    1 NMtDS0=    0 NMtDT0=    0
 Petite list used in FoFCou.
 Harris En= -3918.65357068063    
 JPrj=0 DoOrth=F DoCkMO=F.
 Leave Link  401 at Fri Sep  3 12:53:53 2021, MaxMem= 23488102400 cpu:             203.9 elap:               8.5
 (Enter /sw/apps/gaussian-16.0/g16/l502.exe)
 Integral symmetry usage will be decided dynamically.
 Closed shell SCF:
 Using DIIS extrapolation, IDIIS=  1040.
 NGot= 23488102400 LenX= 23482547354 LenY= 23479796732
 Requested convergence on RMS density matrix=1.00D-08 within 128 cycles.
 Requested convergence on MAX density matrix=1.00D-06.
 Requested convergence on             energy=1.00D-06.
 No special actions if energy rises.
 Fock matrices will be formed incrementally for  20 cycles.

 Cycle   1  Pass 1  IDiag  1:
 FoFJK:  IHMeth= 1 ICntrl=       0 DoSepK=T KAlg= 0 I1Cent=           0 FoldK=F
 IRaf=         1 NMat=       1 IRICut=       1 DoRegI=T DoRafI=F ISym2E= 0 IDoP0=0 IntGTp=1.
 FoFCou: FMM=T IPFlag=           0 FMFlag=      100000 FMFlg1=        2001
         NFxFlg=           0 DoJE=T BraDBF=F KetDBF=F FulRan=T
         wScrn=  0.000000 ICntrl=       500 IOpCl=  0 I1Cent=           0 NGrid=           0
         NMat0=    1 NMatS0=      1 NMatT0=    0 NMatD0=    1 NMtDS0=    0 NMtDT0=    0
 Symmetry not used in FoFCou.
 FMM levels:  10  Number of levels for PrismC:   9
 E= -4068.94586151797    
 DIIS: error= 2.01D-02 at cycle   1 NSaved=   1.
 NSaved= 1 IEnMin= 1 EnMin= -4068.94586151797     IErMin= 1 ErrMin= 2.01D-02
 ErrMax= 2.01D-02  0.00D+00 EMaxC= 1.00D-01 BMatC= 1.69D+00 BMatP= 1.69D+00
 IDIUse=3 WtCom= 7.99D-01 WtEn= 2.01D-01
 Coeff-Com:  0.100D+01
 Coeff-En:   0.100D+01
 Coeff:      0.100D+01
 Gap=     0.121 Goal=   None    Shift=    0.000
 GapD=    0.121 DampG=1.000 DampE=0.500 DampFc=0.5000 IDamp=-1.
 Damping current iteration by 5.00D-01
 RMSDP=1.57D-03 MaxDP=1.35D-01              OVMax= 1.96D-01

 Cycle   2  Pass 1  IDiag  1:
 RMSU=  7.70D-04    CP:  9.82D-01
 E= -4069.33510846801     Delta-E=       -0.389246950039 Rises=F Damp=T
 DIIS: error= 1.25D-02 at cycle   2 NSaved=   2.
 NSaved= 2 IEnMin= 2 EnMin= -4069.33510846801     IErMin= 2 ErrMin= 1.25D-02
 ErrMax= 1.25D-02  0.00D+00 EMaxC= 1.00D-01 BMatC= 3.07D-01 BMatP= 1.69D+00
 IDIUse=3 WtCom= 8.75D-01 WtEn= 1.25D-01
 Coeff-Com: -0.213D+00 0.121D+01
 Coeff-En:   0.000D+00 0.100D+01
 Coeff:     -0.187D+00 0.119D+01
 Gap=     0.133 Goal=   None    Shift=    0.000
 RMSDP=7.66D-04 MaxDP=9.53D-02 DE=-3.89D-01 OVMax= 1.84D-01

 Cycle   3  Pass 1  IDiag  1:
 RMSU=  7.33D-04    CP:  9.68D-01  1.24D+00
 E= -4069.62590004672     Delta-E=       -0.290791578715 Rises=F Damp=F
 DIIS: error= 1.58D-02 at cycle   3 NSaved=   3.
 NSaved= 3 IEnMin= 3 EnMin= -4069.62590004672     IErMin= 2 ErrMin= 1.25D-02
 ErrMax= 1.58D-02  0.00D+00 EMaxC= 1.00D-01 BMatC= 2.02D-01 BMatP= 3.07D-01
 IDIUse=3 WtCom= 8.42D-01 WtEn= 1.58D-01
 Coeff-Com: -0.268D+00 0.652D+00 0.616D+00
 Coeff-En:   0.000D+00 0.000D+00 0.100D+01
 Coeff:     -0.225D+00 0.549D+00 0.676D+00
 Gap=     0.120 Goal=   None    Shift=    0.000
 RMSDP=5.04D-04 MaxDP=4.42D-02 DE=-2.91D-01 OVMax= 1.32D-01

 Cycle   4  Pass 1  IDiag  1:
 RMSU=  2.62D-04    CP:  9.65D-01  1.55D+00  5.11D-01
 E= -4069.76346132846     Delta-E=       -0.137561281739 Rises=F Damp=F
 DIIS: error= 7.29D-03 at cycle   4 NSaved=   4.
 NSaved= 4 IEnMin= 4 EnMin= -4069.76346132846     IErMin= 4 ErrMin= 7.29D-03
 ErrMax= 7.29D-03  0.00D+00 EMaxC= 1.00D-01 BMatC= 4.94D-02 BMatP= 2.02D-01
 IDIUse=3 WtCom= 9.27D-01 WtEn= 7.29D-02
 Coeff-Com: -0.108D+00 0.223D+00 0.407D+00 0.478D+00
 Coeff-En:   0.000D+00 0.000D+00 0.214D+00 0.786D+00
 Coeff:     -0.997D-01 0.207D+00 0.393D+00 0.500D+00
 Gap=     0.119 Goal=   None    Shift=    0.000
 RMSDP=1.93D-04 MaxDP=2.01D-02 DE=-1.38D-01 OVMax= 5.38D-02

 Cycle   5  Pass 1  IDiag  1:
 RMSU=  7.29D-05    CP:  9.64D-01  1.49D+00  6.89D-01  5.64D-01
 E= -4069.80719023338     Delta-E=       -0.043728904922 Rises=F Damp=F
 DIIS: error= 7.57D-04 at cycle   5 NSaved=   5.
 NSaved= 5 IEnMin= 5 EnMin= -4069.80719023338     IErMin= 5 ErrMin= 7.57D-04
 ErrMax= 7.57D-04  0.00D+00 EMaxC= 1.00D-01 BMatC= 1.01D-03 BMatP= 4.94D-02
 IDIUse=3 WtCom= 9.92D-01 WtEn= 7.57D-03
 Coeff-Com: -0.333D-01 0.651D-01 0.156D+00 0.242D+00 0.570D+00
 Coeff-En:   0.000D+00 0.000D+00 0.000D+00 0.000D+00 0.100D+01
 Coeff:     -0.331D-01 0.646D-01 0.155D+00 0.240D+00 0.574D+00
 Gap=     0.119 Goal=   None    Shift=    0.000
 RMSDP=3.64D-05 MaxDP=4.14D-03 DE=-4.37D-02 OVMax= 1.37D-02

 Cycle   6  Pass 1  IDiag  1:
 RMSU=  2.83D-05    CP:  9.64D-01  1.49D+00  6.84D-01  6.27D-01  7.94D-01
 E= -4069.80800784529     Delta-E=       -0.000817611901 Rises=F Damp=F
 DIIS: error= 2.81D-04 at cycle   6 NSaved=   6.
 NSaved= 6 IEnMin= 6 EnMin= -4069.80800784529     IErMin= 6 ErrMin= 2.81D-04
 ErrMax= 2.81D-04  0.00D+00 EMaxC= 1.00D-01 BMatC= 1.56D-04 BMatP= 1.01D-03
 IDIUse=3 WtCom= 9.97D-01 WtEn= 2.81D-03
 Coeff-Com:  0.259D-02-0.725D-02 0.918D-02 0.375D-01 0.311D+00 0.647D+00
 Coeff-En:   0.000D+00 0.000D+00 0.000D+00 0.000D+00 0.900D-01 0.910D+00
 Coeff:      0.258D-02-0.723D-02 0.916D-02 0.374D-01 0.310D+00 0.648D+00
 Gap=     0.119 Goal=   None    Shift=    0.000
 RMSDP=1.44D-05 MaxDP=1.24D-03 DE=-8.18D-04 OVMax= 6.62D-03

 Cycle   7  Pass 1  IDiag  1:
 RMSU=  1.00D-05    CP:  9.64D-01  1.50D+00  6.88D-01  6.29D-01  8.81D-01
                    CP:  7.54D-01
 E= -4069.80816514167     Delta-E=       -0.000157296388 Rises=F Damp=F
 DIIS: error= 8.79D-05 at cycle   7 NSaved=   7.
 NSaved= 7 IEnMin= 7 EnMin= -4069.80816514167     IErMin= 7 ErrMin= 8.79D-05
 ErrMax= 8.79D-05  0.00D+00 EMaxC= 1.00D-01 BMatC= 1.85D-05 BMatP= 1.56D-04
 IDIUse=1 WtCom= 1.00D+00 WtEn= 0.00D+00
 Coeff-Com:  0.432D-02-0.944D-02-0.888D-02-0.401D-02 0.101D+00 0.329D+00
 Coeff-Com:  0.589D+00
 Coeff:      0.432D-02-0.944D-02-0.888D-02-0.401D-02 0.101D+00 0.329D+00
 Coeff:      0.589D+00
 Gap=     0.119 Goal=   None    Shift=    0.000
 RMSDP=6.37D-06 MaxDP=1.22D-03 DE=-1.57D-04 OVMax= 3.59D-03

 Cycle   8  Pass 1  IDiag  1:
 RMSU=  4.64D-06    CP:  9.64D-01  1.50D+00  6.89D-01  6.33D-01  8.90D-01
                    CP:  8.83D-01  8.17D-01
 E= -4069.80818712311     Delta-E=       -0.000021981432 Rises=F Damp=F
 DIIS: error= 3.67D-05 at cycle   8 NSaved=   8.
 NSaved= 8 IEnMin= 8 EnMin= -4069.80818712311     IErMin= 8 ErrMin= 3.67D-05
 ErrMax= 3.67D-05  0.00D+00 EMaxC= 1.00D-01 BMatC= 4.42D-06 BMatP= 1.85D-05
 IDIUse=1 WtCom= 1.00D+00 WtEn= 0.00D+00
 Coeff-Com:  0.213D-02-0.422D-02-0.769D-02-0.121D-01-0.136D-01 0.441D-01
 Coeff-Com:  0.351D+00 0.640D+00
 Coeff:      0.213D-02-0.422D-02-0.769D-02-0.121D-01-0.136D-01 0.441D-01
 Coeff:      0.351D+00 0.640D+00
 Gap=     0.119 Goal=   None    Shift=    0.000
 RMSDP=3.36D-06 MaxDP=5.74D-04 DE=-2.20D-05 OVMax= 1.52D-03

 Cycle   9  Pass 1  IDiag  1:
 RMSU=  2.02D-06    CP:  9.64D-01  1.50D+00  6.90D-01  6.34D-01  9.06D-01
                    CP:  9.08D-01  1.03D+00  8.53D-01
 E= -4069.80819414356     Delta-E=       -0.000007020455 Rises=F Damp=F
 DIIS: error= 1.87D-05 at cycle   9 NSaved=   9.
 NSaved= 9 IEnMin= 9 EnMin= -4069.80819414356     IErMin= 9 ErrMin= 1.87D-05
 ErrMax= 1.87D-05  0.00D+00 EMaxC= 1.00D-01 BMatC= 8.01D-07 BMatP= 4.42D-06
 IDIUse=1 WtCom= 1.00D+00 WtEn= 0.00D+00
 Coeff-Com:  0.536D-03-0.917D-03-0.293D-02-0.643D-02-0.240D-01-0.306D-01
 Coeff-Com:  0.111D+00 0.363D+00 0.589D+00
 Coeff:      0.536D-03-0.917D-03-0.293D-02-0.643D-02-0.240D-01-0.306D-01
 Coeff:      0.111D+00 0.363D+00 0.589D+00
 Gap=     0.119 Goal=   None    Shift=    0.000
 RMSDP=1.39D-06 MaxDP=1.53D-04 DE=-7.02D-06 OVMax= 7.60D-04

 Cycle  10  Pass 1  IDiag  1:
 RMSU=  9.38D-07    CP:  9.64D-01  1.50D+00  6.90D-01  6.35D-01  9.09D-01
                    CP:  9.23D-01  1.06D+00  1.03D+00  9.57D-01
 E= -4069.80819575515     Delta-E=       -0.000001611588 Rises=F Damp=F
 DIIS: error= 9.15D-06 at cycle  10 NSaved=  10.
 NSaved=10 IEnMin=10 EnMin= -4069.80819575515     IErMin=10 ErrMin= 9.15D-06
 ErrMax= 9.15D-06  0.00D+00 EMaxC= 1.00D-01 BMatC= 1.32D-07 BMatP= 8.01D-07
 IDIUse=1 WtCom= 1.00D+00 WtEn= 0.00D+00
 Coeff-Com: -0.385D-03 0.816D-03 0.105D-02 0.828D-03-0.564D-02-0.298D-01
 Coeff-Com: -0.510D-01-0.340D-01 0.230D+00 0.888D+00
 Coeff:     -0.385D-03 0.816D-03 0.105D-02 0.828D-03-0.564D-02-0.298D-01
 Coeff:     -0.510D-01-0.340D-01 0.230D+00 0.888D+00
 Gap=     0.119 Goal=   None    Shift=    0.000
 RMSDP=1.17D-06 MaxDP=1.60D-04 DE=-1.61D-06 OVMax= 6.17D-04

 Cycle  11  Pass 1  IDiag  1:
 RMSU=  5.28D-07    CP:  9.64D-01  1.50D+00  6.90D-01  6.35D-01  9.12D-01
                    CP:  9.33D-01  1.12D+00  1.12D+00  1.27D+00  1.30D+00
 E= -4069.80819643878     Delta-E=       -0.000000683627 Rises=F Damp=F
 DIIS: error= 3.88D-06 at cycle  11 NSaved=  11.
 NSaved=11 IEnMin=11 EnMin= -4069.80819643878     IErMin=11 ErrMin= 3.88D-06
 ErrMax= 3.88D-06  0.00D+00 EMaxC= 1.00D-01 BMatC= 5.49D-08 BMatP= 1.32D-07
 IDIUse=1 WtCom= 1.00D+00 WtEn= 0.00D+00
 Coeff-Com: -0.335D-03 0.655D-03 0.132D-02 0.212D-02 0.355D-02-0.960D-02
 Coeff-Com: -0.529D-01-0.112D+00-0.370D-01 0.491D+00 0.713D+00
 Coeff:     -0.335D-03 0.655D-03 0.132D-02 0.212D-02 0.355D-02-0.960D-02
 Coeff:     -0.529D-01-0.112D+00-0.370D-01 0.491D+00 0.713D+00
 Gap=     0.119 Goal=   None    Shift=    0.000
 RMSDP=6.37D-07 MaxDP=4.01D-05 DE=-6.84D-07 OVMax= 3.23D-04

 Cycle  12  Pass 1  IDiag  1:
 RMSU=  2.60D-07    CP:  9.64D-01  1.50D+00  6.90D-01  6.35D-01  9.13D-01
                    CP:  9.36D-01  1.14D+00  1.18D+00  1.41D+00  1.67D+00
                    CP:  1.16D+00
 E= -4069.80819667332     Delta-E=       -0.000000234544 Rises=F Damp=F
 DIIS: error= 3.07D-06 at cycle  12 NSaved=  12.
 NSaved=12 IEnMin=12 EnMin= -4069.80819667332     IErMin=12 ErrMin= 3.07D-06
 ErrMax= 3.07D-06  0.00D+00 EMaxC= 1.00D-01 BMatC= 1.04D-08 BMatP= 5.49D-08
 IDIUse=1 WtCom= 1.00D+00 WtEn= 0.00D+00
 Coeff-Com: -0.259D-04 0.351D-04 0.269D-03 0.668D-03 0.327D-02 0.366D-02
 Coeff-Com: -0.429D-02-0.358D-01-0.795D-01-0.178D-01 0.246D+00 0.883D+00
 Coeff:     -0.259D-04 0.351D-04 0.269D-03 0.668D-03 0.327D-02 0.366D-02
 Coeff:     -0.429D-02-0.358D-01-0.795D-01-0.178D-01 0.246D+00 0.883D+00
 Gap=     0.119 Goal=   None    Shift=    0.000
 RMSDP=4.06D-07 MaxDP=2.36D-05 DE=-2.35D-07 OVMax= 2.51D-04

 Cycle  13  Pass 1  IDiag  1:
 RMSU=  1.66D-07    CP:  9.64D-01  1.50D+00  6.90D-01  6.35D-01  9.13D-01
                    CP:  9.37D-01  1.14D+00  1.21D+00  1.50D+00  1.88D+00
                    CP:  1.54D+00  1.22D+00
 E= -4069.80819675150     Delta-E=       -0.000000078184 Rises=F Damp=F
 DIIS: error= 2.50D-06 at cycle  13 NSaved=  13.
 NSaved=13 IEnMin=13 EnMin= -4069.80819675150     IErMin=13 ErrMin= 2.50D-06
 ErrMax= 2.50D-06  0.00D+00 EMaxC= 1.00D-01 BMatC= 8.06D-09 BMatP= 1.04D-08
 IDIUse=1 WtCom= 1.00D+00 WtEn= 0.00D+00
 Coeff-Com:  0.109D-03-0.224D-03-0.321D-03-0.367D-03 0.702D-03 0.553D-02
 Coeff-Com:  0.183D-01 0.189D-01-0.417D-01-0.207D+00-0.171D+00 0.625D+00
 Coeff-Com:  0.752D+00
 Coeff:      0.109D-03-0.224D-03-0.321D-03-0.367D-03 0.702D-03 0.553D-02
 Coeff:      0.183D-01 0.189D-01-0.417D-01-0.207D+00-0.171D+00 0.625D+00
 Coeff:      0.752D+00
 Gap=     0.119 Goal=   None    Shift=    0.000
 RMSDP=3.05D-07 MaxDP=1.59D-05 DE=-7.82D-08 OVMax= 1.67D-04

 Cycle  14  Pass 1  IDiag  1:
 RMSU=  7.90D-08    CP:  9.64D-01  1.50D+00  6.90D-01  6.35D-01  9.13D-01
                    CP:  9.37D-01  1.15D+00  1.23D+00  1.56D+00  2.05D+00
                    CP:  1.77D+00  1.74D+00  1.08D+00
 E= -4069.80819678533     Delta-E=       -0.000000033822 Rises=F Damp=F
 DIIS: error= 1.16D-06 at cycle  14 NSaved=  14.
 NSaved=14 IEnMin=14 EnMin= -4069.80819678533     IErMin=14 ErrMin= 1.16D-06
 ErrMax= 1.16D-06  0.00D+00 EMaxC= 1.00D-01 BMatC= 1.05D-09 BMatP= 8.06D-09
 IDIUse=1 WtCom= 1.00D+00 WtEn= 0.00D+00
 Coeff-Com:  0.702D-04-0.139D-03-0.257D-03-0.398D-03-0.509D-03 0.187D-02
 Coeff-Com:  0.118D-01 0.198D-01-0.974D-03-0.970D-01-0.171D+00 0.126D+00
 Coeff-Com:  0.359D+00 0.751D+00
 Coeff:      0.702D-04-0.139D-03-0.257D-03-0.398D-03-0.509D-03 0.187D-02
 Coeff:      0.118D-01 0.198D-01-0.974D-03-0.970D-01-0.171D+00 0.126D+00
 Coeff:      0.359D+00 0.751D+00
 Gap=     0.119 Goal=   None    Shift=    0.000
 RMSDP=1.18D-07 MaxDP=6.75D-06 DE=-3.38D-08 OVMax= 7.20D-05

 Cycle  15  Pass 1  IDiag  1:
 RMSU=  3.84D-08    CP:  9.64D-01  1.50D+00  6.90D-01  6.35D-01  9.13D-01
                    CP:  9.37D-01  1.15D+00  1.23D+00  1.58D+00  2.10D+00
                    CP:  1.88D+00  1.93D+00  1.32D+00  1.04D+00
 E= -4069.80819679003     Delta-E=       -0.000000004708 Rises=F Damp=F
 DIIS: error= 4.53D-07 at cycle  15 NSaved=  15.
 NSaved=15 IEnMin=15 EnMin= -4069.80819679003     IErMin=15 ErrMin= 4.53D-07
 ErrMax= 4.53D-07  0.00D+00 EMaxC= 1.00D-01 BMatC= 2.75D-10 BMatP= 1.05D-09
 IDIUse=1 WtCom= 1.00D+00 WtEn= 0.00D+00
 Coeff-Com:  0.120D-04-0.220D-04-0.563D-04-0.118D-03-0.376D-03-0.249D-03
 Coeff-Com:  0.211D-02 0.512D-02 0.695D-02-0.203D-02-0.504D-01-0.427D-01
 Coeff-Com:  0.287D-02 0.367D+00 0.711D+00
 Coeff:      0.120D-04-0.220D-04-0.563D-04-0.118D-03-0.376D-03-0.249D-03
 Coeff:      0.211D-02 0.512D-02 0.695D-02-0.203D-02-0.504D-01-0.427D-01
 Coeff:      0.287D-02 0.367D+00 0.711D+00
 Gap=     0.119 Goal=   None    Shift=    0.000
 RMSDP=3.78D-08 MaxDP=3.47D-06 DE=-4.71D-09 OVMax= 1.98D-05

 Cycle  16  Pass 1  IDiag  1:
 RMSU=  1.82D-08    CP:  9.64D-01  1.50D+00  6.90D-01  6.35D-01  9.13D-01
                    CP:  9.37D-01  1.15D+00  1.24D+00  1.58D+00  2.12D+00
                    CP:  1.90D+00  1.99D+00  1.39D+00  1.26D+00  1.16D+00
 E= -4069.80819679091     Delta-E=       -0.000000000877 Rises=F Damp=F
 DIIS: error= 1.34D-07 at cycle  16 NSaved=  16.
 NSaved=16 IEnMin=16 EnMin= -4069.80819679091     IErMin=16 ErrMin= 1.34D-07
 ErrMax= 1.34D-07  0.00D+00 EMaxC= 1.00D-01 BMatC= 7.00D-11 BMatP= 2.75D-10
 IDIUse=1 WtCom= 1.00D+00 WtEn= 0.00D+00
 Coeff-Com: -0.129D-04 0.263D-04 0.423D-04 0.467D-04-0.513D-04-0.614D-03
 Coeff-Com: -0.208D-02-0.317D-02 0.321D-02 0.250D-01 0.159D-01-0.467D-01
 Coeff-Com: -0.110D+00 0.281D-02 0.325D+00 0.791D+00
 Coeff:     -0.129D-04 0.263D-04 0.423D-04 0.467D-04-0.513D-04-0.614D-03
 Coeff:     -0.208D-02-0.317D-02 0.321D-02 0.250D-01 0.159D-01-0.467D-01
 Coeff:     -0.110D+00 0.281D-02 0.325D+00 0.791D+00
 Gap=     0.119 Goal=   None    Shift=    0.000
 RMSDP=2.58D-08 MaxDP=1.78D-06 DE=-8.77D-10 OVMax= 1.58D-05

 Cycle  17  Pass 1  IDiag  1:
 RMSU=  1.15D-08    CP:  9.64D-01  1.50D+00  6.90D-01  6.35D-01  9.13D-01
                    CP:  9.37D-01  1.15D+00  1.24D+00  1.58D+00  2.12D+00
                    CP:  1.91D+00  2.02D+00  1.44D+00  1.36D+00  1.46D+00
                    CP:  1.26D+00
 E= -4069.80819679156     Delta-E=       -0.000000000648 Rises=F Damp=F
 DIIS: error= 8.35D-08 at cycle  17 NSaved=  17.
 NSaved=17 IEnMin=17 EnMin= -4069.80819679156     IErMin=17 ErrMin= 8.35D-08
 ErrMax= 8.35D-08  0.00D+00 EMaxC= 1.00D-01 BMatC= 2.06D-11 BMatP= 7.00D-11
 IDIUse=1 WtCom= 1.00D+00 WtEn= 0.00D+00
 Coeff-Com: -0.832D-05 0.163D-04 0.324D-04 0.475D-04 0.767D-04-0.186D-03
 Coeff-Com: -0.135D-02-0.271D-02-0.188D-03 0.123D-01 0.180D-01-0.323D-02
 Coeff-Com: -0.554D-01-0.806D-01-0.677D-01 0.355D+00 0.826D+00
 Coeff:     -0.832D-05 0.163D-04 0.324D-04 0.475D-04 0.767D-04-0.186D-03
 Coeff:     -0.135D-02-0.271D-02-0.188D-03 0.123D-01 0.180D-01-0.323D-02
 Coeff:     -0.554D-01-0.806D-01-0.677D-01 0.355D+00 0.826D+00
 Gap=     0.119 Goal=   None    Shift=    0.000
 RMSDP=1.42D-08 MaxDP=7.63D-07 DE=-6.48D-10 OVMax= 8.51D-06

 Cycle  18  Pass 1  IDiag  1:
 RMSU=  5.24D-09    CP:  9.64D-01  1.50D+00  6.90D-01  6.35D-01  9.13D-01
                    CP:  9.37D-01  1.15D+00  1.24D+00  1.59D+00  2.13D+00
                    CP:  1.92D+00  2.03D+00  1.45D+00  1.43D+00  1.64D+00
                    CP:  1.67D+00  1.36D+00
 E= -4069.80819679145     Delta-E=        0.000000000113 Rises=F Damp=F
 DIIS: error= 6.81D-08 at cycle  18 NSaved=  18.
 NSaved=18 IEnMin=17 EnMin= -4069.80819679156     IErMin=18 ErrMin= 6.81D-08
 ErrMax= 6.81D-08  0.00D+00 EMaxC= 1.00D-01 BMatC= 6.82D-12 BMatP= 2.06D-11
 IDIUse=1 WtCom= 1.00D+00 WtEn= 0.00D+00
 Coeff-Com:  0.761D-06-0.187D-05 0.243D-06 0.507D-05 0.653D-04 0.157D-03
 Coeff-Com:  0.175D-03-0.159D-03-0.139D-02-0.378D-02 0.722D-03 0.196D-01
 Coeff-Com:  0.108D-01-0.295D-01-0.164D+00-0.123D+00 0.350D+00 0.941D+00
 Coeff:      0.761D-06-0.187D-05 0.243D-06 0.507D-05 0.653D-04 0.157D-03
 Coeff:      0.175D-03-0.159D-03-0.139D-02-0.378D-02 0.722D-03 0.196D-01
 Coeff:      0.108D-01-0.295D-01-0.164D+00-0.123D+00 0.350D+00 0.941D+00
 Gap=     0.119 Goal=   None    Shift=    0.000
 RMSDP=1.14D-08 MaxDP=9.31D-07 DE= 1.13D-10 OVMax= 6.81D-06

 Cycle  19  Pass 1  IDiag  1:
 RMSU=  3.16D-09    CP:  9.64D-01  1.50D+00  6.90D-01  6.35D-01  9.13D-01
                    CP:  9.37D-01  1.15D+00  1.24D+00  1.59D+00  2.13D+00
                    CP:  1.92D+00  2.04D+00  1.46D+00  1.46D+00  1.79D+00
                    CP:  1.98D+00  1.90D+00  1.30D+00
 E= -4069.80819679154     Delta-E=       -0.000000000095 Rises=F Damp=F
 DIIS: error= 2.30D-08 at cycle  19 NSaved=  19.
 NSaved=19 IEnMin=17 EnMin= -4069.80819679156     IErMin=19 ErrMin= 2.30D-08
 ErrMax= 2.30D-08  0.00D+00 EMaxC= 1.00D-01 BMatC= 2.43D-12 BMatP= 6.82D-12
 IDIUse=1 WtCom= 1.00D+00 WtEn= 0.00D+00
 Coeff-Com:  0.344D-05-0.695D-05-0.115D-04-0.142D-04 0.157D-04 0.161D-03
 Coeff-Com:  0.599D-03 0.882D-03-0.724D-03-0.660D-02-0.644D-02 0.143D-01
 Coeff-Com:  0.249D-01 0.137D-01-0.820D-01-0.209D+00-0.871D-01 0.566D+00
 Coeff-Com:  0.771D+00
 Coeff:      0.344D-05-0.695D-05-0.115D-04-0.142D-04 0.157D-04 0.161D-03
 Coeff:      0.599D-03 0.882D-03-0.724D-03-0.660D-02-0.644D-02 0.143D-01
 Coeff:      0.249D-01 0.137D-01-0.820D-01-0.209D+00-0.871D-01 0.566D+00
 Coeff:      0.771D+00
 Gap=     0.119 Goal=   None    Shift=    0.000
 RMSDP=6.79D-09 MaxDP=3.44D-07 DE=-9.46D-11 OVMax= 4.02D-06

 SCF Done:  E(RCAM-B3LYP) =  -4069.80819679     A.U. after   19 cycles
            NFock= 19  Conv=0.68D-08     -V/T= 2.0102
 KE= 4.028831827293D+03 PE=-4.131541335435D+04 EE= 1.729971650698D+04
 Leave Link  502 at Fri Sep  3 13:06:34 2021, MaxMem= 23488102400 cpu:           17637.7 elap:             760.7
 (Enter /sw/apps/gaussian-16.0/g16/l801.exe)
 DoSCS=F DFT=T ScalE2(SS,OS)=  1.000000  1.000000
 ExpMin= 3.36D-02 ExpMax= 4.95D+03 ExpMxC= 7.45D+02 IAcc=3 IRadAn=         5 AccDes= 0.00D+00
 HarFok:  IExCor=  205 AccDes= 0.00D+00 IRadAn=         5 IDoV=-2 UseB2=F ITyADJ=14
 ICtDFT= 12500011 ScaDFX=  1.000000  1.000000  1.000000  1.000000
 GSVD:  LWork=       -9588 too small for GESVD, short by       45590 words or       45590 for optimal perf.
 Largest valence mixing into a core orbital is  2.02D-04
 Largest core mixing into a valence orbital is  5.25D-05
 Range of M.O.s used for correlation:    95  1572
 NBasis=  1572 NAE=   312 NBE=   312 NFC=    94 NFV=     0
 NROrb=   1478 NOA=   218 NOB=   218 NVA=  1260 NVB=  1260
 Leave Link  801 at Fri Sep  3 13:06:34 2021, MaxMem= 23488102400 cpu:               8.8 elap:               0.4
 (Enter /sw/apps/gaussian-16.0/g16/l914.exe)
 RHF ground state
 Two-electron integrals replicated using symmetry.
 MDV= 23488102400 DFT=T DoStab=F Mixed=T DoRPA=T DoScal=F NonHer=T
 Making orbital integer symmetry assigments:
 Orbital symmetries:
       Occupied  (A) (A) (A) (A) (A) (A) (A) (A) (A) (A) (A) (A)
                 (A) (A) (A) (A) (A) (A) (A) (A) (A) (A) (A) (A)
                 (A) (A) (A) (A) (A) (A) (A) (A) (A) (A) (A) (A)
                 (A) (A) (A) (A) (A) (A) (A) (A) (A) (A) (A) (A)
                 (A) (A) (A) (A) (A) (A) (A) (A) (A) (A) (A) (A)
                 (A) (A) (A) (A) (A) (A) (A) (A) (A) (A) (A) (A)
                 (A) (A) (A) (A) (A) (A) (A) (A) (A) (A) (A) (A)
                 (A) (A) (A) (A) (A) (A) (A) (A) (A) (A) (A) (A)
                 (A) (A) (A) (A) (A) (A) (A) (A) (A) (A) (A) (A)
                 (A) (A) (A) (A) (A) (A) (A) (A) (A) (A) (A) (A)
                 (A) (A) (A) (A) (A) (A) (A) (A) (A) (A) (A) (A)
                 (A) (A) (A) (A) (A) (A) (A) (A) (A) (A) (A) (A)
                 (A) (A) (A) (A) (A) (A) (A) (A) (A) (A) (A) (A)
                 (A) (A) (A) (A) (A) (A) (A) (A) (A) (A) (A) (A)
                 (A) (A) (A) (A) (A) (A) (A) (A) (A) (A) (A) (A)
                 (A) (A) (A) (A) (A) (A) (A) (A) (A) (A) (A) (A)
                 (A) (A) (A) (A) (A) (A) (A) (A) (A) (A) (A) (A)
                 (A) (A) (A) (A) (A) (A) (A) (A) (A) (A) (A) (A)
                 (A) (A) (A) (A) (A) (A) (A) (A) (A) (A) (A) (A)
                 (A) (A) (A) (A) (A) (A) (A) (A) (A) (A) (A) (A)
                 (A) (A) (A) (A) (A) (A) (A) (A) (A) (A) (A) (A)
                 (A) (A) (A) (A) (A) (A) (A) (A) (A) (A) (A) (A)
                 (A) (A) (A) (A) (A) (A) (A) (A) (A) (A) (A) (A)
                 (A) (A) (A) (A) (A) (A) (A) (A) (A) (A) (A) (A)
                 (A) (A) (A) (A) (A) (A) (A) (A) (A) (A) (A) (A)
                 (A) (A) (A) (A) (A) (A) (A) (A) (A) (A) (A) (A)
       Virtual   (A) (A) (A) (A) (A) (A) (A) (A) (A) (A) (A) (A)
                 (A) (A) (A) (A) (A) (A) (A) (A) (A) (A) (A) (A)
                 (A) (A) (A) (A) (A) (A) (A) (A) (A) (A) (A) (A)
                 (A) (A) (A) (A) (A) (A) (A) (A) (A) (A) (A) (A)
                 (A) (A) (A) (A) (A) (A) (A) (A) (A) (A) (A) (A)
                 (A) (A) (A) (A) (A) (A) (A) (A) (A) (A) (A) (A)
                 (A) (A) (A) (A) (A) (A) (A) (A) (A) (A) (A) (A)
                 (A) (A) (A) (A) (A) (A) (A) (A) (A) (A) (A) (A)
                 (A) (A) (A) (A) (A) (A) (A) (A) (A) (A) (A) (A)
                 (A) (A) (A) (A) (A) (A) (A) (A) (A) (A) (A) (A)
                 (A) (A) (A) (A) (A) (A) (A) (A) (A) (A) (A) (A)
                 (A) (A) (A) (A) (A) (A) (A) (A) (A) (A) (A) (A)
                 (A) (A) (A) (A) (A) (A) (A) (A) (A) (A) (A) (A)
                 (A) (A) (A) (A) (A) (A) (A) (A) (A) (A) (A) (A)
                 (A) (A) (A) (A) (A) (A) (A) (A) (A) (A) (A) (A)
                 (A) (A) (A) (A) (A) (A) (A) (A) (A) (A) (A) (A)
                 (A) (A) (A) (A) (A) (A) (A) (A) (A) (A) (A) (A)
                 (A) (A) (A) (A) (A) (A) (A) (A) (A) (A) (A) (A)
                 (A) (A) (A) (A) (A) (A) (A) (A) (A) (A) (A) (A)
                 (A) (A) (A) (A) (A) (A) (A) (A) (A) (A) (A) (A)
                 (A) (A) (A) (A) (A) (A) (A) (A) (A) (A) (A) (A)
                 (A) (A) (A) (A) (A) (A) (A) (A) (A) (A) (A) (A)
                 (A) (A) (A) (A) (A) (A) (A) (A) (A) (A) (A) (A)
                 (A) (A) (A) (A) (A) (A) (A) (A) (A) (A) (A) (A)
                 (A) (A) (A) (A) (A) (A) (A) (A) (A) (A) (A) (A)
                 (A) (A) (A) (A) (A) (A) (A) (A) (A) (A) (A) (A)
                 (A) (A) (A) (A) (A) (A) (A) (A) (A) (A) (A) (A)
                 (A) (A) (A) (A) (A) (A) (A) (A) (A) (A) (A) (A)
                 (A) (A) (A) (A) (A) (A) (A) (A) (A) (A) (A) (A)
                 (A) (A) (A) (A) (A) (A) (A) (A) (A) (A) (A) (A)
                 (A) (A) (A) (A) (A) (A) (A) (A) (A) (A) (A) (A)
                 (A) (A) (A) (A) (A) (A) (A) (A) (A) (A) (A) (A)
                 (A) (A) (A) (A) (A) (A) (A) (A) (A) (A) (A) (A)
                 (A) (A) (A) (A) (A) (A) (A) (A) (A) (A) (A) (A)
                 (A) (A) (A) (A) (A) (A) (A) (A) (A) (A) (A) (A)
                 (A) (A) (A) (A) (A) (A) (A) (A) (A) (A) (A) (A)
                 (A) (A) (A) (A) (A) (A) (A) (A) (A) (A) (A) (A)
                 (A) (A) (A) (A) (A) (A) (A) (A) (A) (A) (A) (A)
                 (A) (A) (A) (A) (A) (A) (A) (A) (A) (A) (A) (A)
                 (A) (A) (A) (A) (A) (A) (A) (A) (A) (A) (A) (A)
                 (A) (A) (A) (A) (A) (A) (A) (A) (A) (A) (A) (A)
                 (A) (A) (A) (A) (A) (A) (A) (A) (A) (A) (A) (A)
                 (A) (A) (A) (A) (A) (A) (A) (A) (A) (A) (A) (A)
                 (A) (A) (A) (A) (A) (A) (A) (A) (A) (A) (A) (A)
                 (A) (A) (A) (A) (A) (A) (A) (A) (A) (A) (A) (A)
                 (A) (A) (A) (A) (A) (A) (A) (A) (A) (A) (A) (A)
                 (A) (A) (A) (A) (A) (A) (A) (A) (A) (A) (A) (A)
                 (A) (A) (A) (A) (A) (A) (A) (A) (A) (A) (A) (A)
                 (A) (A) (A) (A) (A) (A) (A) (A) (A) (A) (A) (A)
                 (A) (A) (A) (A) (A) (A) (A) (A) (A) (A) (A) (A)
                 (A) (A) (A) (A) (A) (A) (A) (A) (A) (A) (A) (A)
                 (A) (A) (A) (A) (A) (A) (A) (A) (A) (A) (A) (A)
                 (A) (A) (A) (A) (A) (A) (A) (A) (A) (A) (A) (A)
                 (A) (A) (A) (A) (A) (A) (A) (A) (A) (A) (A) (A)
                 (A) (A) (A) (A) (A) (A) (A) (A) (A) (A) (A) (A)
                 (A) (A) (A) (A) (A) (A) (A) (A) (A) (A) (A) (A)
                 (A) (A) (A) (A) (A) (A) (A) (A) (A) (A) (A) (A)
                 (A) (A) (A) (A) (A) (A) (A) (A) (A) (A) (A) (A)
                 (A) (A) (A) (A) (A) (A) (A) (A) (A) (A) (A) (A)
                 (A) (A) (A) (A) (A) (A) (A) (A) (A) (A) (A) (A)
                 (A) (A) (A) (A) (A) (A) (A) (A) (A) (A) (A) (A)
                 (A) (A) (A) (A) (A) (A) (A) (A) (A) (A) (A) (A)
                 (A) (A) (A) (A) (A) (A) (A) (A) (A) (A) (A) (A)
                 (A) (A) (A) (A) (A) (A) (A) (A) (A) (A) (A) (A)
                 (A) (A) (A) (A) (A) (A) (A) (A) (A) (A) (A) (A)
                 (A) (A) (A) (A) (A) (A) (A) (A) (A) (A) (A) (A)
                 (A) (A) (A) (A) (A) (A) (A) (A) (A) (A) (A) (A)
                 (A) (A) (A) (A) (A) (A) (A) (A) (A) (A) (A) (A)
                 (A) (A) (A) (A) (A) (A) (A) (A) (A) (A) (A) (A)
                 (A) (A) (A) (A) (A) (A) (A) (A) (A) (A) (A) (A)
                 (A) (A) (A) (A) (A) (A) (A) (A) (A) (A) (A) (A)
                 (A) (A) (A) (A) (A) (A) (A) (A) (A) (A) (A) (A)
                 (A) (A) (A) (A) (A) (A) (A) (A) (A) (A) (A) (A)
                 (A) (A) (A) (A) (A) (A) (A) (A) (A) (A) (A) (A)
                 (A) (A) (A) (A) (A) (A) (A) (A) (A) (A) (A) (A)
                 (A) (A) (A) (A) (A) (A) (A) (A) (A) (A) (A) (A)
                 (A) (A) (A) (A) (A) (A) (A) (A) (A) (A) (A) (A)
                 (A) (A) (A) (A) (A) (A) (A) (A) (A) (A) (A) (A)
                 (A) (A) (A) (A) (A) (A) (A) (A) (A) (A) (A) (A)
                 (A) (A) (A) (A) (A) (A) (A) (A) (A) (A) (A) (A)
                 (A) (A) (A) (A) (A) (A) (A) (A) (A) (A) (A) (A)
                 (A) (A) (A) (A) (A) (A) (A) (A) (A) (A) (A) (A)
                 (A) (A) (A) (A) (A) (A) (A) (A) (A) (A) (A) (A)
                 (A) (A) (A) (A) (A) (A) (A) (A) (A) (A) (A) (A)
                 (A) (A) (A) (A) (A) (A) (A) (A) (A) (A) (A) (A)
                 (A) (A) (A) (A) (A) (A) (A) (A) (A) (A) (A) (A)
                 (A) (A) (A) (A) (A) (A) (A) (A) (A) (A) (A) (A)
                 (A) (A) (A) (A) (A) (A) (A) (A) (A) (A) (A) (A)
                 (A) (A) (A) (A) (A) (A) (A) (A) (A) (A) (A) (A)
                 (A) (A) (A) (A) (A) (A) (A) (A) (A) (A) (A) (A)
                 (A) (A) (A) (A) (A) (A) (A) (A) (A) (A) (A) (A)
                 (A) (A) (A) (A) (A) (A) (A) (A) (A) (A) (A) (A)
                 (A) (A) (A) (A) (A) (A) (A) (A) (A) (A) (A) (A)
                 (A) (A) (A) (A) (A) (A) (A) (A) (A) (A) (A) (A)
                 (A) (A) (A) (A) (A) (A) (A) (A) (A) (A) (A) (A)
                 (A) (A) (A) (A) (A) (A) (A) (A) (A) (A) (A) (A)
                 (A) (A) (A) (A) (A) (A) (A) (A) (A) (A) (A) (A)
                 (A) (A) (A) (A) (A) (A) (A) (A) (A) (A) (A) (A)
                 (A) (A) (A) (A) (A) (A) (A) (A) (A) (A) (A) (A)
                 (A) (A) (A) (A) (A) (A) (A) (A) (A) (A) (A) (A)
                 (A) (A) (A) (A) (A) (A) (A) (A) (A) (A) (A) (A)
                 (A) (A) (A) (A) (A) (A) (A) (A) (A) (A) (A) (A)
                 (A) (A) (A) (A) (A) (A) (A) (A) (A) (A) (A) (A)
                 (A) (A) (A) (A) (A) (A) (A) (A) (A) (A) (A) (A)
                 (A) (A) (A) (A) (A) (A) (A) (A) (A) (A) (A) (A)
    20 initial guesses have been made.
 Convergence on wavefunction:    0.001000000000000
 Davidson Disk Diagonalization:  ConvIn= 1.00D-03 SkipCon=T Conv= 1.00D-03.
 Max sub-space:  2000 roots to seek:    20 dimension of matrix:       549360
 Iteration     1 Dimension    20 NMult     0 NNew     20
 CISAX will form    20 AO SS matrices at one time.
 NMat=    20 NSing=    20 JSym2X= 0.
 FoFJK:  IHMeth= 1 ICntrl=       0 DoSepK=T KAlg= 0 I1Cent=           0 FoldK=F
 IRaf=         1 NMat=      40 IRICut=       1 DoRegI=T DoRafI=F ISym2E= 0 IDoP0=3 IntGTp=3.
 FoFCou: FMM=T IPFlag=           0 FMFlag=      100000 FMFlg1=        2001
         NFxFlg=           0 DoJE=F BraDBF=F KetDBF=F FulRan=T
         wScrn=  0.000000 ICntrl=       500 IOpCl=  0 I1Cent=           0 NGrid=           0
         NMat0=   20 NMatS0=     20 NMatT0=    0 NMatD0=   20 NMtDS0=    0 NMtDT0=    0
 Symmetry not used in FoFCou.
 FMM levels:  10  Number of levels for PrismC:   9
 New state      2 was old state      4
 New state      3 was old state      2
 New state      4 was old state      6
 New state      5 was old state      7
 Excitation Energies [eV] at current iteration:
 Root      1 :     2.230766503389808
 Root      2 :     2.462346617808818
 Root      3 :     2.582675015426195
 Root      4 :     2.615355074101590
 Root      5 :     2.624641979996298
 Root      6 :     2.779067849195825
 Root      7 :     3.012344251426595
 Root      8 :     3.257064357006143
 Root      9 :     3.641575637645633
 Root     10 :     3.670479562644709
 Root     11 :     3.728305680153166
 Root     12 :     3.750386138870185
 Root     13 :     4.122833547015135
 Root     14 :     4.232420992628660
 Root     15 :     4.387525399721141
 Root     16 :     4.395661572454666
 Root     17 :     4.468401694922481
 Root     18 :     4.501568780729892
 Root     19 :     4.632276726414002
 Root     20 :     4.752328561675983
 Iteration     2 Dimension    30 NMult    20 NNew     10
 CISAX will form    10 AO SS matrices at one time.
 NMat=    10 NSing=    10 JSym2X= 0.
 New state      1 was old state      3
 Root      1 not converged, maximum delta is    0.191521888906859
 New state      2 was old state      4
 Root      2 not converged, maximum delta is    0.147377520489954
 New state      3 was old state      1
 Root      3 not converged, maximum delta is    0.009407740476713
 New state      4 was old state      5
 Root      4 not converged, maximum delta is    0.074417542089163
 New state      5 was old state      2
 Root      5 not converged, maximum delta is    0.006031680356325
 Excitation Energies [eV] at current iteration:
 Root      1 :     1.758373595006637   Change is   -0.824301420419558
 Root      2 :     2.226256402980909   Change is   -0.389098671120681
 Root      3 :     2.229520184564446   Change is   -0.001246318825362
 Root      4 :     2.246383900091288   Change is   -0.378258079905011
 Root      5 :     2.460693892923997   Change is   -0.001652724884821
 Iteration     3 Dimension    40 NMult    30 NNew     10
 CISAX will form    10 AO SS matrices at one time.
 NMat=    10 NSing=    10 JSym2X= 0.
 Root      1 not converged, maximum delta is    0.054712365683983
 No map to state      2
 New state      3 was old state      2
 Root      3 not converged, maximum delta is    0.049392639941496
 Root      4 not converged, maximum delta is    0.053585332822899
 New state      5 was old state      3
 Root      5 not converged, maximum delta is    0.011031442012683
 Excitation Energies [eV] at current iteration:
 Root      1 :     1.656023441747632   Change is   -0.102350153259005
 Root      2 :     1.823563457313096
 Root      3 :     2.187288998039662   Change is   -0.038967404941247
 Root      4 :     2.208583481357633   Change is   -0.037800418733654
 Root      5 :     2.229526264736751   Change is    0.000006080172305
 Iteration     4 Dimension    50 NMult    40 NNew     10
 CISAX will form    10 AO SS matrices at one time.
 NMat=    10 NSing=    10 JSym2X= 0.
 Root      1 not converged, maximum delta is    0.010668141614832
 Root      2 not converged, maximum delta is    0.031922822705940
 Root      3 not converged, maximum delta is    0.007466108637887
 Root      4 not converged, maximum delta is    0.007515700896464
 Root      5 has converged.
 Excitation Energies [eV] at current iteration:
 Root      1 :     1.639750976619931   Change is   -0.016272465127701
 Root      2 :     1.726388832122024   Change is   -0.097174625191072
 Root      3 :     2.180294656276319   Change is   -0.006994341763344
 Root      4 :     2.200727088954517   Change is   -0.007856392403116
 Root      5 :     2.229523375840872   Change is   -0.000002888895880
 Iteration     5 Dimension    58 NMult    50 NNew      8
 CISAX will form     8 AO SS matrices at one time.
 NMat=     8 NSing=     8 JSym2X= 0.
 Root      1 not converged, maximum delta is    0.001546452470264
 Root      2 not converged, maximum delta is    0.009815195727080
 Root      3 not converged, maximum delta is    0.001633436088287
 Root      4 not converged, maximum delta is    0.001920909006125
 Root      5 has converged.
 Excitation Energies [eV] at current iteration:
 Root      1 :     1.638092274980148   Change is   -0.001658701639783
 Root      2 :     1.713624466695039   Change is   -0.012764365426985
 Root      3 :     2.179458439225250   Change is   -0.000836217051068
 Root      4 :     2.199790621928980   Change is   -0.000936467025537
 Root      5 :     2.229523233999305   Change is   -0.000000141841567
 Iteration     6 Dimension    66 NMult    58 NNew      8
 CISAX will form     8 AO SS matrices at one time.
 NMat=     8 NSing=     8 JSym2X= 0.
 Root      1 has converged.
 Root      2 not converged, maximum delta is    0.002271785912739
 Root      3 has converged.
 Root      4 has converged.
 Root      5 has converged.
 Excitation Energies [eV] at current iteration:
 Root      1 :     1.637858431721434   Change is   -0.000233843258715
 Root      2 :     1.712369917048866   Change is   -0.001254549646173
 Root      3 :     2.179338160360109   Change is   -0.000120278865142
 Root      4 :     2.199662024565477   Change is   -0.000128597363503
 Root      5 :     2.229523215436381   Change is   -0.000000018562924
 Iteration     7 Dimension    68 NMult    66 NNew      2
 CISAX will form     2 AO SS matrices at one time.
 NMat=     2 NSing=     2 JSym2X= 0.
 Root      1 has converged.
 Root      2 has converged.
 Root      3 has converged.
 Root      4 has converged.
 Root      5 has converged.
 Excitation Energies [eV] at current iteration:
 Root      1 :     1.637858411746242   Change is   -0.000000019975192
 Root      2 :     1.712212246350361   Change is   -0.000157670698505
 Root      3 :     2.179337783949871   Change is   -0.000000376410238
[...]
 Alpha virt. eigenvalues --    1.83812   1.83846   1.84047   1.84309   1.84538
 Alpha virt. eigenvalues --    1.84726   1.84749   1.84796   1.85116   1.85257
 Alpha virt. eigenvalues --    1.85320   1.85370   1.85580   1.85711   1.85808
 Alpha virt. eigenvalues --    1.85983   1.86279   1.86438   1.86766   1.86830
 Alpha virt. eigenvalues --    1.87038   1.87105   1.87234   1.87277   1.87374
 Alpha virt. eigenvalues --    1.87648   1.87700   1.87855   1.87914   1.88043
 Alpha virt. eigenvalues --    1.88334   1.88432   1.88580   1.88718   1.88801
 Alpha virt. eigenvalues --    1.89280   1.89490   1.89555   1.89615   1.89968
 Alpha virt. eigenvalues --    1.90074   1.90219   1.90293   1.90704   1.90811
 Alpha virt. eigenvalues --    1.91279   1.91411   1.91551   1.91882   1.92020
 Alpha virt. eigenvalues --    1.92152   1.92434   1.92704   1.92856   1.93135
 Alpha virt. eigenvalues --    1.93204   1.93575   1.93814   1.94330   1.94513
 Alpha virt. eigenvalues --    1.94599   1.95084   1.95119   1.95343   1.95651
 Alpha virt. eigenvalues --    1.95863   1.95943   1.96037   1.96226   1.96450
 Alpha virt. eigenvalues --    1.96581   1.96754   1.97014   1.97357   1.97549
 Alpha virt. eigenvalues --    1.97719   1.97812   1.98033   1.98175   1.98475
 Alpha virt. eigenvalues --    1.98648   1.98710   1.98894   1.99240   1.99767
 Alpha virt. eigenvalues --    2.00322   2.00548   2.00787   2.00954   2.01232
 Alpha virt. eigenvalues --    2.01422   2.01599   2.01671   2.01873   2.01977
 Alpha virt. eigenvalues --    2.02490   2.02716   2.02852   2.03048   2.03308
 Alpha virt. eigenvalues --    2.03399   2.03578   2.03655   2.03793   2.04224
 Alpha virt. eigenvalues --    2.04618   2.04896   2.05177   2.05318   2.05952
 Alpha virt. eigenvalues --    2.06096   2.06577   2.06843   2.07011   2.07257
 Alpha virt. eigenvalues --    2.07581   2.08151   2.08830   2.08949   2.09083
 Alpha virt. eigenvalues --    2.09273   2.09629   2.09913   2.11069   2.11148
 Alpha virt. eigenvalues --    2.11289   2.11459   2.11698   2.11766   2.11926
 Alpha virt. eigenvalues --    2.12336   2.12474   2.12709   2.12791   2.12986
 Alpha virt. eigenvalues --    2.13207   2.13668   2.13963   2.14352   2.14677
 Alpha virt. eigenvalues --    2.14745   2.15351   2.15663   2.15855   2.16482
 Alpha virt. eigenvalues --    2.16634   2.16830   2.17295   2.17384   2.17516
 Alpha virt. eigenvalues --    2.17677   2.17969   2.18045   2.18341   2.18418
 Alpha virt. eigenvalues --    2.18666   2.18917   2.19170   2.19550   2.19830
 Alpha virt. eigenvalues --    2.20064   2.20155   2.20487   2.20660   2.21057
 Alpha virt. eigenvalues --    2.21479   2.21637   2.21674   2.22036   2.22112
 Alpha virt. eigenvalues --    2.22315   2.22825   2.23166   2.23597   2.23982
 Alpha virt. eigenvalues --    2.24513   2.24958   2.25165   2.25527   2.26248
 Alpha virt. eigenvalues --    2.26716   2.27022   2.27198   2.27311   2.27833
 Alpha virt. eigenvalues --    2.28093   2.28828   2.29204   2.29720   2.29896
 Alpha virt. eigenvalues --    2.30382   2.30594   2.30924   2.31127   2.31162
 Alpha virt. eigenvalues --    2.31368   2.31534   2.32270   2.32574   2.33097
 Alpha virt. eigenvalues --    2.33454   2.33646   2.33857   2.34159   2.34477
 Alpha virt. eigenvalues --    2.35368   2.35561   2.35726   2.36401   2.36551
 Alpha virt. eigenvalues --    2.36601   2.36688   2.36733   2.37890   2.38240
 Alpha virt. eigenvalues --    2.38455   2.38761   2.39112   2.39191   2.39641
 Alpha virt. eigenvalues --    2.40161   2.40185   2.40405   2.40613   2.41215
 Alpha virt. eigenvalues --    2.41257   2.41525   2.41855   2.41939   2.41989
 Alpha virt. eigenvalues --    2.42375   2.42900   2.43094   2.43245   2.43525
 Alpha virt. eigenvalues --    2.44137   2.44352   2.44664   2.44855   2.45204
 Alpha virt. eigenvalues --    2.45299   2.45540   2.45825   2.46294   2.46403
 Alpha virt. eigenvalues --    2.46611   2.46719   2.46746   2.47039   2.47175
 Alpha virt. eigenvalues --    2.47600   2.47724   2.48211   2.49365   2.49674
 Alpha virt. eigenvalues --    2.50043   2.50147   2.50582   2.50783   2.51087
 Alpha virt. eigenvalues --    2.51527   2.51854   2.51930   2.52391   2.52627
 Alpha virt. eigenvalues --    2.52744   2.53575   2.53864   2.54141   2.54286
 Alpha virt. eigenvalues --    2.54582   2.55045   2.55068   2.55512   2.55953
 Alpha virt. eigenvalues --    2.57830   2.58439   2.58682   2.59469   2.60143
 Alpha virt. eigenvalues --    2.60514   2.60560   2.61398   2.61663   2.62285
 Alpha virt. eigenvalues --    2.62436   2.62793   2.62876   2.63363   2.63847
 Alpha virt. eigenvalues --    2.64146   2.64668   2.64819   2.64951   2.65360
 Alpha virt. eigenvalues --    2.65752   2.66427   2.66666   2.66811   2.67110
 Alpha virt. eigenvalues --    2.67636   2.67879   2.68310   2.68758   2.68947
 Alpha virt. eigenvalues --    2.69106   2.69208   2.69371   2.69886   2.69958
 Alpha virt. eigenvalues --    2.70474   2.70869   2.71340   2.71992   2.72161
 Alpha virt. eigenvalues --    2.72576   2.72695   2.72801   2.72967   2.73115
 Alpha virt. eigenvalues --    2.73491   2.73554   2.73644   2.74450   2.74740
 Alpha virt. eigenvalues --    2.74898   2.75281   2.76459   2.76746   2.77152
 Alpha virt. eigenvalues --    2.77268   2.77397   2.77873   2.78173   2.78582
 Alpha virt. eigenvalues --    2.78628   2.78941   2.79043   2.79435   2.80309
 Alpha virt. eigenvalues --    2.80524   2.80542   2.80954   2.81053   2.81362
 Alpha virt. eigenvalues --    2.81853   2.82207   2.82222   2.82571   2.83682
 Alpha virt. eigenvalues --    2.83735   2.84089   2.84096   2.84442   2.84728
 Alpha virt. eigenvalues --    2.84798   2.85141   2.85627   2.85933   2.86866
 Alpha virt. eigenvalues --    2.86954   2.87423   2.87588   2.88143   2.88384
 Alpha virt. eigenvalues --    2.88521   2.88794   2.88957   2.89157   2.90425
 Alpha virt. eigenvalues --    2.90996   2.91201   2.91501   2.93091   2.93573
 Alpha virt. eigenvalues --    2.94011   2.94131   2.94627   2.94851   2.95315
 Alpha virt. eigenvalues --    2.95803   2.96027   2.96240   2.96570   2.96868
 Alpha virt. eigenvalues --    2.97063   2.97415   2.97800   2.98177   2.98265
 Alpha virt. eigenvalues --    2.98299   2.98498   2.98706   2.98758   2.98833
 Alpha virt. eigenvalues --    2.99112   2.99256   2.99894   3.00008   3.00062
 Alpha virt. eigenvalues --    3.00230   3.00378   3.00521   3.00727   3.01594
 Alpha virt. eigenvalues --    3.01996   3.02034   3.02377   3.02582   3.02718
 Alpha virt. eigenvalues --    3.02965   3.03048   3.03358   3.03796   3.04096
 Alpha virt. eigenvalues --    3.04312   3.04339   3.04492   3.04640   3.04809
 Alpha virt. eigenvalues --    3.05041   3.05209   3.05704   3.06108   3.06552
 Alpha virt. eigenvalues --    3.06734   3.07414   3.08175   3.08279   3.09403
 Alpha virt. eigenvalues --    3.09676   3.09688   3.10364   3.10930   3.11162
 Alpha virt. eigenvalues --    3.11245   3.11829   3.11878   3.12108   3.12592
 Alpha virt. eigenvalues --    3.12732   3.13251   3.13560   3.13913   3.13977
 Alpha virt. eigenvalues --    3.14080   3.14640   3.15931   3.16145   3.17196
 Alpha virt. eigenvalues --    3.17710   3.18073   3.18139   3.19085   3.19255
 Alpha virt. eigenvalues --    3.22279   3.22768   3.23865   3.24612   3.24631
 Alpha virt. eigenvalues --    3.25366   3.26412   3.26861   3.27531   3.27635
 Alpha virt. eigenvalues --    3.29080   3.29378   3.31445   3.31592   3.33325
 Alpha virt. eigenvalues --    3.33405   3.40404   3.40635   3.42787   3.43083
 Alpha virt. eigenvalues --    3.48583   3.48881   3.49927   3.50504   3.51076
 Alpha virt. eigenvalues --    3.51394   3.56474   3.57225   3.58986   3.59563
 Alpha virt. eigenvalues --    3.62707   3.62776   3.66187   3.66398   3.67190
 Alpha virt. eigenvalues --    3.67696   3.73267   3.74170   3.76051   3.76829
          Condensed to atoms (all electrons):
 Mulliken charges:
               1
     1  Mg   0.838900
     2  C   -0.002461
     3  C   -0.093813
     4  C   -0.046651
     5  C   -0.065139
     6  N   -0.256528
     7  C   -0.052870
     8  C   -0.013926
     9  C   -0.087051
    10  C    0.046307
    11  C    0.104719
    12  C    0.052726
    13  C   -0.071862
    14  H    0.035484
    15  N   -0.433449
    16  C    0.168984
    17  C   -0.176523
    18  C   -0.003061
    19  C    0.149161
    20  C    0.110159
    21  C    0.013190
    22  O   -0.249621
    23  C    0.062117
    24  N   -0.340800
    25  C    0.041045
    26  C   -0.028884
    27  C   -0.025242
    28  C    0.073713
    29  C    0.076223
    30  C    0.064632
    31  C   -0.049831
    32  N   -0.310458
    33  C    0.079881
    34  C   -0.170789
    35  C    0.008663
    36  C    0.083083
    37  C    0.127477
    38  C    0.046508
    39  O   -0.188054
    40  C   -0.005566
    41  C    0.212873
    42  O   -0.255993
    43  O   -0.304990
    44  C    0.156941
    45  H   -0.017060
    46  H   -0.016858
    47  H   -0.042867
    48  H    0.001313
    49  H   -0.003943
    50  H    0.025678
    51  H    0.016586
    52  H    0.017039
    53  H    0.010668
    54  H    0.044576
    55  H    0.018593
    56  H    0.017855
    57  H    0.005715
    58  H    0.027522
    59  H    0.040726
    60  H    0.036824
    61  H    0.038241
    62  H    0.033259
    63  H    0.015819
    64  H    0.009793
    65  H    0.023338
    66  H    0.013468
    67  H    0.004949
    68  H    0.004295
    69  H    0.001208
    70  H    0.020704
    71  H    0.022912
    72  H    0.036374
    73  H    0.046869
    74  H    0.007555
    75  H    0.046423
    76  H    0.035308
    77  H    0.043425
    78  H    0.045803
    79  H    0.055272
    80  Mg   0.836582
    81  C   -0.017110
    82  C   -0.088698
    83  C   -0.040938
    84  C   -0.065790
    85  N   -0.255061
    86  C   -0.050000
    87  C   -0.015516
    88  C   -0.082081
    89  C    0.046603
    90  C    0.098752
    91  C    0.063612
    92  C   -0.077344
    93  H    0.033954
    94  N   -0.424313
    95  C    0.163915
    96  C   -0.173087
    97  C   -0.004952
    98  C    0.152060
    99  C    0.098801
   100  C    0.017562
   101  O   -0.251413
   102  C    0.060969
   103  N   -0.350143
   104  C    0.038287
   105  C   -0.020615
   106  C   -0.033600
   107  C    0.088393
   108  C    0.070544
   109  C    0.035005
   110  C   -0.007411
   111  N   -0.323748
   112  C    0.077916
   113  C   -0.164880
   114  C    0.001544
   115  C    0.095703
   116  C    0.131977
   117  C    0.041265
   118  O   -0.189682
   119  C    0.001002
   120  C    0.210884
   121  O   -0.251606
   122  O   -0.305074
   123  C    0.152380
   124  H   -0.020822
   125  H   -0.012944
   126  H   -0.042577
   127  H   -0.000552
   128  H   -0.006836
   129  H    0.023665
   130  H    0.017442
   131  H    0.018944
   132  H    0.013391
   133  H    0.037284
   134  H    0.020451
   135  H    0.018809
   136  H    0.007369
   137  H    0.028304
   138  H    0.039254
   139  H    0.039787
   140  H    0.036322
   141  H    0.032398
   142  H    0.013400
   143  H    0.010082
   144  H    0.023136
   145  H    0.026339
   146  H    0.001874
   147  H    0.005291
   148  H    0.001964
   149  H    0.011028
   150  H    0.016825
   151  H    0.030461
   152  H    0.045383
   153  H    0.007623
   154  H    0.043083
   155  H    0.036770
   156  H    0.043596
   157  H    0.049222
   158  H    0.052976
 Sum of Mulliken charges =  -0.00000
 Mulliken charges with hydrogens summed into heavy atoms:
               1
     1  Mg   0.838900
     2  C   -0.002461
     3  C   -0.110873
     4  C   -0.063509
     5  C   -0.108005
     6  N   -0.256528
     7  C   -0.052870
     8  C   -0.012612
     9  C   -0.090994
    10  C    0.046307
    11  C    0.164022
    12  C    0.107971
    13  C    0.000071
    15  N   -0.433449
    16  C    0.168984
    17  C   -0.176523
    18  C   -0.003061
    19  C    0.149161
    20  C    0.184122
    21  C    0.013190
    22  O   -0.249621
    23  C    0.170440
    24  N   -0.340800
    25  C    0.041045
    26  C   -0.013065
    27  C   -0.015449
    28  C    0.073713
    29  C    0.117978
    30  C    0.070136
    31  C    0.030159
    32  N   -0.310458
    33  C    0.079881
    34  C   -0.170789
    35  C    0.008663
    36  C    0.083083
    37  C    0.228325
    38  C    0.046508
    39  O   -0.188054
    40  C    0.029742
    41  C    0.212873
    42  O   -0.255993
    43  O   -0.304990
    44  C    0.301442
    80  Mg   0.836582
    81  C   -0.017110
    82  C   -0.109520
    83  C   -0.053882
    84  C   -0.108367
    85  N   -0.255061
    86  C   -0.050000
    87  C   -0.016068
    88  C   -0.088916
    89  C    0.046603
    90  C    0.158802
    91  C    0.114287
    92  C   -0.004131
    94  N   -0.424313
    95  C    0.163915
    96  C   -0.173087
    97  C   -0.004952
    98  C    0.152060
    99  C    0.173727
   100  C    0.017562
   101  O   -0.251413
   102  C    0.169475
   103  N   -0.350143
   104  C    0.038287
   105  C   -0.007215
   106  C   -0.023518
   107  C    0.088393
   108  C    0.121893
   109  C    0.042259
   110  C    0.050903
   111  N   -0.323748
   112  C    0.077916
   113  C   -0.164880
   114  C    0.001544
   115  C    0.095703
   116  C    0.228066
   117  C    0.041265
   118  O   -0.189682
   119  C    0.037772
   120  C    0.210884
   121  O   -0.251606
   122  O   -0.305074
   123  C    0.298175
 Electronic spatial extent (au):  <R**2>=          88675.2587
 Charge=             -0.0000 electrons
 Dipole moment (field-independent basis, Debye):
    X=             -3.4867    Y=             -2.5639    Z=              0.2609  Tot=              4.3357
 Quadrupole moment (field-independent basis, Debye-Ang):
   XX=           -538.4092   YY=           -532.6650   ZZ=           -449.8435
   XY=             21.6812   XZ=             59.7676   YZ=            -22.2799
 Traceless Quadrupole moment (field-independent basis, Debye-Ang):
   XX=            -31.4366   YY=            -25.6924   ZZ=             57.1291
   XY=             21.6812   XZ=             59.7676   YZ=            -22.2799
 Octapole moment (field-independent basis, Debye-Ang**2):
  XXX=           -170.8915  YYY=             13.5327  ZZZ=             29.9663  XYY=             -6.1227
  XXY=            -97.0829  XXZ=             23.3067  XZZ=            -42.5379  YZZ=             -3.1558
  YYZ=            -50.8021  XYZ=              6.8807
 Hexadecapole moment (field-independent basis, Debye-Ang**3):
 XXXX=         -58469.3597 YYYY=         -39913.9617 ZZZZ=         -23916.3987 XXXY=           -977.1543
 XXXZ=           2726.8823 YYYX=           -423.6232 YYYZ=           -293.9612 ZZZX=            214.3155
 ZZZY=            340.1166 XXYY=         -15350.7220 XXZZ=         -13892.9168 YYZZ=          -9414.6449
 XXYZ=           -931.7062 YYXZ=            629.5889 ZZXY=            646.6571
 N-N= 1.591705682329D+04 E-N=-4.131541335202D+04  KE= 4.028831827294D+03
 Leave Link  601 at Fri Sep  3 13:33:18 2021, MaxMem= 23488102400 cpu:              16.2 elap:               0.8
 (Enter /sw/apps/gaussian-16.0/g16/l9999.exe)
 1\1\GINC-BP1-COMPUTE00089\SP\RCAM-B3LYP TD-FC\def2SVP\C68H72Mg2N8O8\OF
 15641\03-Sep-2021\0\\#p cam-b3lyp/Def2SVP td=(nstates=5)\\TDDFT excite
 d states in gaussian\\0,1\Mg,0,0.,0.,0.\C,0,-0.217,-2.218,2.801\C,0,-1
 .255,2.442,2.026\C,0,-0.245,1.85,-2.564\C,0,0.146,-2.824,-2.037\N,0,-0
 .617,-0.009,2.126\C,0,-0.594,-0.908,3.105\C,0,-0.936,-0.309,4.502\C,0,
 -1.773,0.964,4.032\C,0,-1.155,1.168,2.66\C,0,-3.263,0.685,3.863\C,0,0.
 345,0.11,5.299\C,0,0.124,0.397,6.787\H,0,1.168,0.033,7.733\N,0,-0.185,
 1.961,-0.152\C,0,-0.703,2.8,0.777\C,0,-0.62,4.156,0.193\C,0,-0.187,4.0
 15,-1.225\C,0,-0.214,2.583,-1.38\C,0,-0.887,5.406,0.974\C,0,0.181,5.01
 3,-2.277\O,0,0.303,4.69,-3.508\C,0,0.31,6.414,-1.837\N,0,-0.265,-0.413
 ,-2.029\C,0,-0.279,0.569,-2.937\C,0,-0.196,0.024,-4.332\C,0,0.124,-1.5
 33,-4.18\C,0,0.086,-1.632,-2.635\C,0,-1.451,0.205,-5.197\C,0,1.373,-2.
 07,-4.923\C,0,2.626,-1.49,-4.306\N,0,0.15,-2.144,0.303\C,0,0.173,-3.13
 6,-0.688\C,0,0.173,-4.438,0.004\C,0,0.133,-4.111,1.358\C,0,0.083,-2.69
 5,1.502\C,0,0.149,-5.715,-0.623\C,0,0.096,-4.629,2.716\O,0,0.208,-5.74
 7,3.221\C,0,-0.255,-3.428,3.701\C,0,0.717,-3.482,4.848\O,0,1.931,-3.25
 5,4.669\O,0,0.038,-3.556,6.003\C,0,0.943,-3.583,7.183\H,0,-1.859,3.22,
 2.497\H,0,-0.218,2.453,-3.474\H,0,0.276,-3.747,-2.605\H,0,-1.554,-0.94
 9,5.132\H,0,-1.585,1.831,4.665\H,0,-3.484,-0.377,3.969\H,0,-3.511,1.02
 7,2.858\H,0,-3.852,1.301,4.543\H,0,0.669,1.096,4.966\H,0,1.13,-0.639,5
 .189\H,0,-0.844,0.026,7.125\H,0,0.062,1.477,6.921\H,0,-1.344,5.186,1.9
 38\H,0,-1.651,5.963,0.432\H,0,0.007,6.02,1.084\H,0,-0.635,6.744,-1.405
 \H,0,0.665,6.97,-2.704\H,0,1.048,6.466,-1.036\H,0,0.608,0.501,-4.891\H
 ,0,-0.692,-2.156,-4.547\H,0,-1.267,0.74,-6.129\H,0,-2.204,0.714,-4.596
 \H,0,-1.967,-0.72,-5.453\H,0,1.356,-1.759,-5.967\H,0,1.452,-3.157,-4.9
 02\H,0,2.714,-0.522,-4.798\H,0,3.487,-2.121,-4.529\H,0,2.495,-1.303,-3
 .24\H,0,0.867,-6.333,-0.084\H,0,0.404,-5.642,-1.68\H,0,-0.891,-5.999,-
 0.463\H,0,-1.283,-3.581,4.028\H,0,0.698,-4.478,7.755\H,0,0.833,-2.619,
 7.68\H,0,2.,-3.754,6.976\Mg,0,7.89118,0.70672,0.5926\C,0,7.66267,3.149
 34,-2.02664\C,0,7.40425,-1.68026,-1.79483\C,0,7.63764,-1.43131,2.92327
 \C,0,7.21934,3.272,2.85394\N,0,7.58617,0.84153,-1.59396\C,0,7.58005,1.
 81895,-2.4878\C,0,7.56056,1.3402,-3.96427\C,0,6.90896,-0.11004,-3.7382
 3\C,0,7.35291,-0.35564,-2.29766\C,0,5.38978,-0.09955,-3.77465\C,0,9.00
 107,1.2335,-4.5771\C,0,9.04244,1.07157,-6.09823\H,0,10.13037,1.70705,-
 6.8365\N,0,8.05652,-1.2704,0.54526\C,0,7.84451,-2.07957,-0.51379\C,0,8
 .07643,-3.44833,-0.02709\C,0,8.28165,-3.39396,1.44588\C,0,7.97249,-2.0
 0186,1.70389\C,0,8.16644,-4.6336,-0.94385\C,0,8.67672,-4.42729,2.45699
 \O,0,8.56292,-4.21549,3.71597\C,0,9.11267,-5.72825,1.92885\N,0,7.27957
 ,0.84742,2.57464\C,0,7.31459,-0.22373,3.38664\C,0,7.0944,0.17564,4.826
 23\C,0,7.14511,1.77401,4.84123\C,0,7.30383,2.03638,3.32751\C,0,5.78399
 ,-0.29763,5.45491\C,0,8.15625,2.43693,5.81632\C,0,9.57083,2.14341,5.37
 113\N,0,7.6898,2.85553,0.4922\C,0,7.38138,3.73389,1.55402\C,0,7.23915,
 5.08509,0.97398\C,0,7.45369,4.89378,-0.39929\C,0,7.69147,3.51713,-0.65
 965\C,0,6.90187,6.26718,1.69163\C,0,7.52257,5.54174,-1.68929\O,0,7.489
 32,6.70852,-2.07821\C,0,7.53576,4.42193,-2.81722\C,0,8.63387,4.75509,-
 3.78968\O,0,9.82455,4.72936,-3.43159\O,0,8.11567,4.83577,-5.02876\C,0,
 9.16824,5.15346,-6.03025\H,0,7.03302,-2.4891,-2.4248\H,0,7.64575,-2.10
 986,3.77942\H,0,7.10726,4.14075,3.50616\H,0,6.93595,1.92962,-4.62473\H
 ,0,7.34828,-0.84855,-4.40378\H,0,4.995,0.90412,-3.829\H,0,5.07027,-0.5
 8279,-2.86063\H,0,5.02792,-0.73049,-4.59154\H,0,9.4492,0.27841,-4.2742
 3\H,0,9.60186,2.07333,-4.28663\H,0,8.07634,1.30169,-6.56367\H,0,9.2073
 7,0.01666,-6.33055\H,0,7.81021,-4.39003,-1.9524\H,0,7.45177,-5.37762,-
 0.57567\H,0,9.16348,-5.07894,-0.95989\H,0,8.31625,-6.15868,1.32644\H,0
 ,9.43844,-6.30234,2.79842\H,0,9.96287,-5.56595,1.25696\H,0,7.88571,-0.
 20702,5.45908\H,0,6.17909,2.20957,5.13607\H,0,5.93203,-0.90182,6.36985
 \H,0,5.23295,-0.86001,4.71287\H,0,5.08275,0.49435,5.71226\H,0,8.0514,2
 .01165,6.81747\H,0,8.02817,3.51038,5.90739\H,0,9.76068,1.15095,5.79073
 \H,0,10.26063,2.88146,5.7755\H,0,9.63005,2.0568,4.27996\H,0,7.55508,7.
 04922,1.328\H,0,7.00971,6.12509,2.76492\H,0,5.85572,6.38303,1.39597\H,
 0,6.5539,4.42371,-3.29212\H,0,8.842,6.05237,-6.56243\H,0,9.29819,4.232
 66,-6.62941\H,0,10.13608,5.46787,-5.65758\\Version=ES64L-G16RevA.03\St
 ate=1-A\HF=-4069.8081968\RMSD=6.794e-09\PG=C01 [X(C68H72Mg2N8O8)]\\@


 A true friend is someone who is there for
 you when he'd rather be anywhere else.
                               -- Len Wein
 Job cpu time:       0 days 15 hours 36 minutes 23.6 seconds.
 Elapsed time:       0 days  0 hours 39 minutes 40.9 seconds.
 File lengths (MBytes):  RWF=  13225 Int=      0 D2E=      0 Chk=    574 Scr=      1
 Normal termination of Gaussian 16 at Fri Sep  3 13:33:19 2021.
