 Entering Gaussian System, Link 0=g16
 Initial command:
 /sw/apps/gaussian-16.0/g16/l1.exe "/tmp/Gau-26068.inp" -scrdir="/tmp/"
 Entering Link 1 = /sw/apps/gaussian-16.0/g16/l1.exe PID=     26069.
  
 Copyright (c) 1988,1990,1992,1993,1995,1998,2003,2009,2016,
            Gaussian, Inc.  All Rights Reserved.
  
 This is part of the Gaussian(R) 16 program.  It is based on
 the Gaussian(R) 09 system (copyright 2009, Gaussian, Inc.),
 the Gaussian(R) 03 system (copyright 2003, Gaussian, Inc.),
 the Gaussian(R) 98 system (copyright 1998, Gaussian, Inc.),
 the Gaussian(R) 94 system (copyright 1995, Gaussian, Inc.),
 the Gaussian 92(TM) system (copyright 1992, Gaussian, Inc.),
 the Gaussian 90(TM) system (copyright 1990, Gaussian, Inc.),
 the Gaussian 88(TM) system (copyright 1988, Gaussian, Inc.),
 the Gaussian 86(TM) system (copyright 1986, Carnegie Mellon
 University), and the Gaussian 82(TM) system (copyright 1983,
 Carnegie Mellon University). Gaussian is a federally registered
 trademark of Gaussian, Inc.
  
 This software contains proprietary and confidential information,
 including trade secrets, belonging to Gaussian, Inc.
  
 This software is provided under written license and may be
 used, copied, transmitted, or stored only in accord with that
 written license.
  
 The following legend is applicable only to US Government
 contracts under FAR:
  
                    RESTRICTED RIGHTS LEGEND
  
 Use, reproduction and disclosure by the US Government is
 subject to restrictions as set forth in subparagraphs (a)
 and (c) of the Commercial Computer Software - Restricted
 Rights clause in FAR 52.227-19.
  
 Gaussian, Inc.
 340 Quinnipiac St., Bldg. 40, Wallingford CT 06492
  
  
 ---------------------------------------------------------------
 Warning -- This program may not be used in any manner that
 competes with the business of Gaussian, Inc. or will provide
 assistance to any competitor of Gaussian, Inc.  The licensee
 of this program is prohibited from giving any competitor of
 Gaussian, Inc. access to this program.  By using this program,
 the user acknowledges that Gaussian, Inc. is engaged in the
 business of creating and licensing software in the field of
 computational chemistry and represents and warrants to the
 licensee that it is not a competitor of Gaussian, Inc. and that
 it will not use this program in any manner prohibited above.
 ---------------------------------------------------------------
  

 Cite this work as:
 Gaussian 16, Revision A.03,
 M. J. Frisch, G. W. Trucks, H. B. Schlegel, G. E. Scuseria, 
 M. A. Robb, J. R. Cheeseman, G. Scalmani, V. Barone, 
 G. A. Petersson, H. Nakatsuji, X. Li, M. Caricato, A. V. Marenich, 
 J. Bloino, B. G. Janesko, R. Gomperts, B. Mennucci, H. P. Hratchian, 
 J. V. Ortiz, A. F. Izmaylov, J. L. Sonnenberg, D. Williams-Young, 
 F. Ding, F. Lipparini, F. Egidi, J. Goings, B. Peng, A. Petrone, 
 T. Henderson, D. Ranasinghe, V. G. Zakrzewski, J. Gao, N. Rega, 
 G. Zheng, W. Liang, M. Hada, M. Ehara, K. Toyota, R. Fukuda, 
 J. Hasegawa, M. Ishida, T. Nakajima, Y. Honda, O. Kitao, H. Nakai, 
 T. Vreven, K. Throssell, J. A. Montgomery, Jr., J. E. Peralta, 
 F. Ogliaro, M. J. Bearpark, J. J. Heyd, E. N. Brothers, K. N. Kudin, 
 V. N. Staroverov, T. A. Keith, R. Kobayashi, J. Normand, 
 K. Raghavachari, A. P. Rendell, J. C. Burant, S. S. Iyengar, 
 J. Tomasi, M. Cossi, J. M. Millam, M. Klene, C. Adamo, R. Cammi, 
 J. W. Ochterski, R. L. Martin, K. Morokuma, O. Farkas, 
 J. B. Foresman, and D. J. Fox, Gaussian, Inc., Wallingford CT, 2016.
 
 ******************************************
 Gaussian 16:  ES64L-G16RevA.03 25-Dec-2016
                12-Sep-2021 
 ******************************************
 %nproc=24
 Will use up to   24 processors via shared memory.
 %mem=175gb
 -----------------------------------
 #p cam-b3lyp/Def2SVP td=(nstates=5)
 -----------------------------------
 1/38=1,172=1/1;
 2/12=2,17=6,18=5,40=1/2;
 3/5=43,7=101,11=9,25=1,30=1,74=-40/1,2,3,8;
 4//1;
 5/5=2,38=5/2;
 8/6=1,10=1,108=5/1;
 9/41=5,42=1,70=2/14;
 6/7=2,8=2,9=2,10=2/1;
 99/5=1,9=1/99;
 Leave Link    1 at Sun Sep 12 04:31:35 2021, MaxMem= 23488102400 cpu:               0.8 elap:               0.0
 (Enter /sw/apps/gaussian-16.0/g16/l101.exe)
 --------------------------------
 TDDFT excited states in gaussian
 --------------------------------
 Symbolic Z-matrix:
 Charge =  0 Multiplicity = 1
 Mg                    0.        0.        0. 
 C                    -0.217    -2.218     2.801 
 C                    -1.255     2.442     2.026 
 C                    -0.245     1.85     -2.564 
 C                     0.146    -2.824    -2.037 
 N                    -0.617    -0.009     2.126 
 C                    -0.594    -0.908     3.105 
 C                    -0.936    -0.309     4.502 
 C                    -1.773     0.964     4.032 
 C                    -1.155     1.168     2.66 
 C                    -3.263     0.685     3.863 
 C                     0.345     0.11      5.299 
 C                     0.124     0.397     6.787 
 H                     1.168     0.033     7.733 
 N                    -0.185     1.961    -0.152 
 C                    -0.703     2.8       0.777 
 C                    -0.62      4.156     0.193 
 C                    -0.187     4.015    -1.225 
 C                    -0.214     2.583    -1.38 
 C                    -0.887     5.406     0.974 
 C                     0.181     5.013    -2.277 
 O                     0.303     4.69     -3.508 
 C                     0.31      6.414    -1.837 
 N                    -0.265    -0.413    -2.029 
 C                    -0.279     0.569    -2.937 
 C                    -0.196     0.024    -4.332 
 C                     0.124    -1.533    -4.18 
 C                     0.086    -1.632    -2.635 
 C                    -1.451     0.205    -5.197 
 C                     1.373    -2.07     -4.923 
 C                     2.626    -1.49     -4.306 
 N                     0.15     -2.144     0.303 
 C                     0.173    -3.136    -0.688 
 C                     0.173    -4.438     0.004 
 C                     0.133    -4.111     1.358 
 C                     0.083    -2.695     1.502 
 C                     0.149    -5.715    -0.623 
 C                     0.096    -4.629     2.716 
 O                     0.208    -5.747     3.221 
 C                    -0.255    -3.428     3.701 
 C                     0.717    -3.482     4.848 
 O                     1.931    -3.255     4.669 
 O                     0.038    -3.556     6.003 
 C                     0.943    -3.583     7.183 
 H                    -1.859     3.22      2.497 
 H                    -0.218     2.453    -3.474 
 H                     0.276    -3.747    -2.605 
 H                    -1.554    -0.949     5.132 
 H                    -1.585     1.831     4.665 
 H                    -3.484    -0.377     3.969 
 H                    -3.511     1.027     2.858 
 H                    -3.852     1.301     4.543 
 H                     0.669     1.096     4.966 
 H                     1.13     -0.639     5.189 
 H                    -0.844     0.026     7.125 
 H                     0.062     1.477     6.921 
 H                    -1.344     5.186     1.938 
 H                    -1.651     5.963     0.432 
 H                     0.007     6.02      1.084 
 H                    -0.635     6.744    -1.405 
 H                     0.665     6.97     -2.704 
 H                     1.048     6.466    -1.036 
 H                     0.608     0.501    -4.891 
 H                    -0.692    -2.156    -4.547 
 H                    -1.267     0.74     -6.129 
 H                    -2.204     0.714    -4.596 
 H                    -1.967    -0.72     -5.453 
 H                     1.356    -1.759    -5.967 
 H                     1.452    -3.157    -4.902 
 H                     2.714    -0.522    -4.798 
 H                     3.487    -2.121    -4.529 
 H                     2.495    -1.303    -3.24 
 H                     0.867    -6.333    -0.084 
 H                     0.404    -5.642    -1.68 
 H                    -0.891    -5.999    -0.463 
 H                    -1.283    -3.581     4.028 
 H                     0.698    -4.478     7.755 
 H                     0.833    -2.619     7.68 
 H                     2.       -3.754     6.976 
 Mg                    15.77378   1.42044   1.20508 
 C                     14.34985  -0.49863   3.88251 
 C                     15.7332   4.10589   3.30777 
 C                     16.6036   3.23753  -1.26008 
 C                     14.65674  -1.05563  -0.97827 
 N                     15.10478   1.64867   3.30094 
 C                     14.63849   0.83573   4.23691 
 C                     14.54778   1.46847   5.65147 
 C                     14.45287   3.01206   5.2188 
 C                     15.17153   2.93343   3.87343 
 C                     13.02868   3.48165   4.97281 
 C                     15.82921   1.19131   6.51353 
 C                     15.68406   1.51175   8.00283 
 H                     16.3735   0.66038   8.96838 
 N                     16.57048   3.23752   1.15967 
 C                     16.4741   4.19222   2.10863 
 C                     17.21598   5.35171   1.58962 
 C                     17.61867   5.06122   0.1867 
 C                     16.91318   3.81539  -0.03747 
 C                     17.54674   6.54948   2.43186 
 C                     18.48391   5.79126  -0.79545 
 O                     18.50437   5.47763  -2.03804 
 C                     19.23548   6.94366  -0.27717 
 N                     15.46653   1.24357  -0.8435 
 C                     15.97781   2.14552  -1.69965 
 C                     15.86562   1.66694  -3.1275 
 C                     15.38966   0.14305  -3.03371 
 C                     15.21546   0.02607  -1.50355 
 C                     14.89854   2.44806  -4.01688 
 C                     16.26541  -0.91381  -3.76087 
 C                     17.61021  -1.02673  -3.0796 
 N                     14.86404  -0.52961   1.39932 
 C                     14.45334  -1.38708   0.35521 
 C                     13.78624  -2.54697   0.98134 
 C                     13.83509  -2.27058   2.35601 
 C                     14.46866  -1.0167    2.57017 
 C                     13.19519  -3.64074   0.28819 
 C                     13.48528  -2.74942   3.67398 
 O                     13.0101  -3.79232   4.12152 
 C                     13.69008  -1.56422   4.71308 
 C                     14.45193  -2.10605   5.89144 
 O                     15.62524  -2.49677   5.75998 
 O                     13.74972  -1.87273   7.0152 
 C                     14.46972  -2.3823    8.2126 
 H                     15.55523   5.05909   3.80639 
 H                     16.96761   3.77268  -2.14019 
 H                     14.36828  -1.91677  -1.58482 
 H                     13.6693   1.18687   6.21958 
 H                     15.00125   3.6497    5.90732 
 H                     12.3225   2.66576   5.01496 
 H                     13.03232   3.92834   3.98717 
 H                     12.77184   4.28649   5.6675 
 H                     16.60782   1.9152    6.24061 
 H                     16.15793   0.17746   6.39241 
 H                     14.63601   1.65238   8.29396 
 H                     16.14835   2.48189   8.1959 
 H                     16.97776   6.55124   3.36976 
 H                     17.18303   7.43038   1.89186 
 H                     18.61938   6.65921   2.60528 
 H                     18.54133   7.66998   0.13887 
 H                     19.86312   7.27942  -1.10493 
 H                     19.8694   6.60465   0.54978 
 H                     16.82709   1.70482  -3.62474 
 H                     14.39255  -0.00031  -3.47537 
 H                     15.3776   2.86238  -4.92403 
 H                     14.45461   3.23857  -3.4265 
 H                     14.02504   1.89047  -4.35048 
 H                     16.4635  -0.59923  -4.78847 
 H                     15.80734  -1.89616  -3.80744 
 H                     18.17873  -0.20072  -3.51731 
 H                     18.07305  -1.98604  -3.30218 
 H                     17.5239  -0.83394  -2.00394 
 H                     13.48985  -4.53879   0.81466 
 H                     13.50953  -3.66813  -0.75306 
 H                     12.13659  -3.38757   0.39087 
 H                     12.70095  -1.20236   4.9964 
 H                     13.78738  -3.06411   8.72955 
 H                     14.8002  -1.484     8.76721 
 H                     15.3259  -3.02559   8.04652 
 
 ITRead=  0  0  0  0  0  0  0  0  0  0  0  0  0  0  0  0  0  0  0  0
 ITRead=  0  0  0  0  0  0  0  0  0  0  0  0  0  0  0  0  0  0  0  0
 ITRead=  0  0  0  0  0  0  0  0  0  0  0  0  0  0  0  0  0  0  0  0
 ITRead=  0  0  0  0  0  0  0  0  0  0  0  0  0  0  0  0  0  0  0  0
 ITRead=  0  0  0  0  0  0  0  0  0  0  0  0  0  0  0  0  0  0  0  0
 ITRead=  0  0  0  0  0  0  0  0  0  0  0  0  0  0  0  0  0  0  0  0
 ITRead=  0  0  0  0  0  0  0  0  0  0  0  0  0  0  0  0  0  0  0  0
 ITRead=  0  0  0  0  0  0  0  0  0  0  0  0  0  0  0  0  0  0
 MicOpt= -1 -1 -1 -1 -1 -1 -1 -1 -1 -1 -1 -1 -1 -1 -1 -1 -1 -1 -1 -1
 MicOpt= -1 -1 -1 -1 -1 -1 -1 -1 -1 -1 -1 -1 -1 -1 -1 -1 -1 -1 -1 -1
 MicOpt= -1 -1 -1 -1 -1 -1 -1 -1 -1 -1 -1 -1 -1 -1 -1 -1 -1 -1 -1 -1
 MicOpt= -1 -1 -1 -1 -1 -1 -1 -1 -1 -1 -1 -1 -1 -1 -1 -1 -1 -1 -1 -1
 MicOpt= -1 -1 -1 -1 -1 -1 -1 -1 -1 -1 -1 -1 -1 -1 -1 -1 -1 -1 -1 -1
 MicOpt= -1 -1 -1 -1 -1 -1 -1 -1 -1 -1 -1 -1 -1 -1 -1 -1 -1 -1 -1 -1
 MicOpt= -1 -1 -1 -1 -1 -1 -1 -1 -1 -1 -1 -1 -1 -1 -1 -1 -1 -1 -1 -1
 MicOpt= -1 -1 -1 -1 -1 -1 -1 -1 -1 -1 -1 -1 -1 -1 -1 -1 -1 -1
 NAtoms=    158 NQM=      158 NQMF=       0 NMMI=      0 NMMIF=      0
                NMic=       0 NMicF=      0.
                    Isotopes and Nuclear Properties:
 (Nuclear quadrupole moments (NQMom) in fm**2, nuclear magnetic moments (NMagM)
  in nuclear magnetons)

  Atom         1           2           3           4           5           6           7           8           9          10
 IAtWgt=          24          12          12          12          12          14          12          12          12          12
 AtmWgt=  23.9850450  12.0000000  12.0000000  12.0000000  12.0000000  14.0030740  12.0000000  12.0000000  12.0000000  12.0000000
 NucSpn=           0           0           0           0           0           2           0           0           0           0
 AtZEff=  -0.0000000  -0.0000000  -0.0000000  -0.0000000  -0.0000000  -0.0000000  -0.0000000  -0.0000000  -0.0000000  -0.0000000
 NQMom=    0.0000000   0.0000000   0.0000000   0.0000000   0.0000000   2.0440000   0.0000000   0.0000000   0.0000000   0.0000000
 NMagM=    0.0000000   0.0000000   0.0000000   0.0000000   0.0000000   0.4037610   0.0000000   0.0000000   0.0000000   0.0000000
 AtZNuc=  12.0000000   6.0000000   6.0000000   6.0000000   6.0000000   7.0000000   6.0000000   6.0000000   6.0000000   6.0000000

  Atom        11          12          13          14          15          16          17          18          19          20
 IAtWgt=          12          12          12           1          14          12          12          12          12          12
 AtmWgt=  12.0000000  12.0000000  12.0000000   1.0078250  14.0030740  12.0000000  12.0000000  12.0000000  12.0000000  12.0000000
 NucSpn=           0           0           0           1           2           0           0           0           0           0
 AtZEff=  -0.0000000  -0.0000000  -0.0000000  -0.0000000  -0.0000000  -0.0000000  -0.0000000  -0.0000000  -0.0000000  -0.0000000
 NQMom=    0.0000000   0.0000000   0.0000000   0.0000000   2.0440000   0.0000000   0.0000000   0.0000000   0.0000000   0.0000000
 NMagM=    0.0000000   0.0000000   0.0000000   2.7928460   0.4037610   0.0000000   0.0000000   0.0000000   0.0000000   0.0000000
 AtZNuc=   6.0000000   6.0000000   6.0000000   1.0000000   7.0000000   6.0000000   6.0000000   6.0000000   6.0000000   6.0000000

  Atom        21          22          23          24          25          26          27          28          29          30
 IAtWgt=          12          16          12          14          12          12          12          12          12          12
 AtmWgt=  12.0000000  15.9949146  12.0000000  14.0030740  12.0000000  12.0000000  12.0000000  12.0000000  12.0000000  12.0000000
 NucSpn=           0           0           0           2           0           0           0           0           0           0
 AtZEff=  -0.0000000  -0.0000000  -0.0000000  -0.0000000  -0.0000000  -0.0000000  -0.0000000  -0.0000000  -0.0000000  -0.0000000
 NQMom=    0.0000000   0.0000000   0.0000000   2.0440000   0.0000000   0.0000000   0.0000000   0.0000000   0.0000000   0.0000000
 NMagM=    0.0000000   0.0000000   0.0000000   0.4037610   0.0000000   0.0000000   0.0000000   0.0000000   0.0000000   0.0000000
 AtZNuc=   6.0000000   8.0000000   6.0000000   7.0000000   6.0000000   6.0000000   6.0000000   6.0000000   6.0000000   6.0000000

  Atom        31          32          33          34          35          36          37          38          39          40
 IAtWgt=          12          14          12          12          12          12          12          12          16          12
 AtmWgt=  12.0000000  14.0030740  12.0000000  12.0000000  12.0000000  12.0000000  12.0000000  12.0000000  15.9949146  12.0000000
 NucSpn=           0           2           0           0           0           0           0           0           0           0
 AtZEff=  -0.0000000  -0.0000000  -0.0000000  -0.0000000  -0.0000000  -0.0000000  -0.0000000  -0.0000000  -0.0000000  -0.0000000
 NQMom=    0.0000000   2.0440000   0.0000000   0.0000000   0.0000000   0.0000000   0.0000000   0.0000000   0.0000000   0.0000000
 NMagM=    0.0000000   0.4037610   0.0000000   0.0000000   0.0000000   0.0000000   0.0000000   0.0000000   0.0000000   0.0000000
 AtZNuc=   6.0000000   7.0000000   6.0000000   6.0000000   6.0000000   6.0000000   6.0000000   6.0000000   8.0000000   6.0000000

  Atom        41          42          43          44          45          46          47          48          49          50
 IAtWgt=          12          16          16          12           1           1           1           1           1           1
 AtmWgt=  12.0000000  15.9949146  15.9949146  12.0000000   1.0078250   1.0078250   1.0078250   1.0078250   1.0078250   1.0078250
 NucSpn=           0           0           0           0           1           1           1           1           1           1
 AtZEff=  -0.0000000  -0.0000000  -0.0000000  -0.0000000  -0.0000000  -0.0000000  -0.0000000  -0.0000000  -0.0000000  -0.0000000
 NQMom=    0.0000000   0.0000000   0.0000000   0.0000000   0.0000000   0.0000000   0.0000000   0.0000000   0.0000000   0.0000000
 NMagM=    0.0000000   0.0000000   0.0000000   0.0000000   2.7928460   2.7928460   2.7928460   2.7928460   2.7928460   2.7928460
 AtZNuc=   6.0000000   8.0000000   8.0000000   6.0000000   1.0000000   1.0000000   1.0000000   1.0000000   1.0000000   1.0000000

  Atom        51          52          53          54          55          56          57          58          59          60
 IAtWgt=           1           1           1           1           1           1           1           1           1           1
 AtmWgt=   1.0078250   1.0078250   1.0078250   1.0078250   1.0078250   1.0078250   1.0078250   1.0078250   1.0078250   1.0078250
 NucSpn=           1           1           1           1           1           1           1           1           1           1
 AtZEff=  -0.0000000  -0.0000000  -0.0000000  -0.0000000  -0.0000000  -0.0000000  -0.0000000  -0.0000000  -0.0000000  -0.0000000
 NQMom=    0.0000000   0.0000000   0.0000000   0.0000000   0.0000000   0.0000000   0.0000000   0.0000000   0.0000000   0.0000000
 NMagM=    2.7928460   2.7928460   2.7928460   2.7928460   2.7928460   2.7928460   2.7928460   2.7928460   2.7928460   2.7928460
 AtZNuc=   1.0000000   1.0000000   1.0000000   1.0000000   1.0000000   1.0000000   1.0000000   1.0000000   1.0000000   1.0000000

  Atom        61          62          63          64          65          66          67          68          69          70
 IAtWgt=           1           1           1           1           1           1           1           1           1           1
 AtmWgt=   1.0078250   1.0078250   1.0078250   1.0078250   1.0078250   1.0078250   1.0078250   1.0078250   1.0078250   1.0078250
 NucSpn=           1           1           1           1           1           1           1           1           1           1
 AtZEff=  -0.0000000  -0.0000000  -0.0000000  -0.0000000  -0.0000000  -0.0000000  -0.0000000  -0.0000000  -0.0000000  -0.0000000
 NQMom=    0.0000000   0.0000000   0.0000000   0.0000000   0.0000000   0.0000000   0.0000000   0.0000000   0.0000000   0.0000000
 NMagM=    2.7928460   2.7928460   2.7928460   2.7928460   2.7928460   2.7928460   2.7928460   2.7928460   2.7928460   2.7928460
 AtZNuc=   1.0000000   1.0000000   1.0000000   1.0000000   1.0000000   1.0000000   1.0000000   1.0000000   1.0000000   1.0000000

  Atom        71          72          73          74          75          76          77          78          79          80
 IAtWgt=           1           1           1           1           1           1           1           1           1          24
 AtmWgt=   1.0078250   1.0078250   1.0078250   1.0078250   1.0078250   1.0078250   1.0078250   1.0078250   1.0078250  23.9850450
 NucSpn=           1           1           1           1           1           1           1           1           1           0
 AtZEff=  -0.0000000  -0.0000000  -0.0000000  -0.0000000  -0.0000000  -0.0000000  -0.0000000  -0.0000000  -0.0000000  -0.0000000
 NQMom=    0.0000000   0.0000000   0.0000000   0.0000000   0.0000000   0.0000000   0.0000000   0.0000000   0.0000000   0.0000000
 NMagM=    2.7928460   2.7928460   2.7928460   2.7928460   2.7928460   2.7928460   2.7928460   2.7928460   2.7928460   0.0000000
 AtZNuc=   1.0000000   1.0000000   1.0000000   1.0000000   1.0000000   1.0000000   1.0000000   1.0000000   1.0000000  12.0000000

  Atom        81          82          83          84          85          86          87          88          89          90
 IAtWgt=          12          12          12          12          14          12          12          12          12          12
 AtmWgt=  12.0000000  12.0000000  12.0000000  12.0000000  14.0030740  12.0000000  12.0000000  12.0000000  12.0000000  12.0000000
 NucSpn=           0           0           0           0           2           0           0           0           0           0
 AtZEff=  -0.0000000  -0.0000000  -0.0000000  -0.0000000  -0.0000000  -0.0000000  -0.0000000  -0.0000000  -0.0000000  -0.0000000
 NQMom=    0.0000000   0.0000000   0.0000000   0.0000000   2.0440000   0.0000000   0.0000000   0.0000000   0.0000000   0.0000000
 NMagM=    0.0000000   0.0000000   0.0000000   0.0000000   0.4037610   0.0000000   0.0000000   0.0000000   0.0000000   0.0000000
 AtZNuc=   6.0000000   6.0000000   6.0000000   6.0000000   7.0000000   6.0000000   6.0000000   6.0000000   6.0000000   6.0000000

  Atom        91          92          93          94          95          96          97          98          99         100
 IAtWgt=          12          12           1          14          12          12          12          12          12          12
 AtmWgt=  12.0000000  12.0000000   1.0078250  14.0030740  12.0000000  12.0000000  12.0000000  12.0000000  12.0000000  12.0000000
 NucSpn=           0           0           1           2           0           0           0           0           0           0
 AtZEff=  -0.0000000  -0.0000000  -0.0000000  -0.0000000  -0.0000000  -0.0000000  -0.0000000  -0.0000000  -0.0000000  -0.0000000
 NQMom=    0.0000000   0.0000000   0.0000000   2.0440000   0.0000000   0.0000000   0.0000000   0.0000000   0.0000000   0.0000000
 NMagM=    0.0000000   0.0000000   2.7928460   0.4037610   0.0000000   0.0000000   0.0000000   0.0000000   0.0000000   0.0000000
 AtZNuc=   6.0000000   6.0000000   1.0000000   7.0000000   6.0000000   6.0000000   6.0000000   6.0000000   6.0000000   6.0000000

  Atom       101         102         103         104         105         106         107         108         109         110
 IAtWgt=          16          12          14          12          12          12          12          12          12          12
 AtmWgt=  15.9949146  12.0000000  14.0030740  12.0000000  12.0000000  12.0000000  12.0000000  12.0000000  12.0000000  12.0000000
 NucSpn=           0           0           2           0           0           0           0           0           0           0
 AtZEff=  -0.0000000  -0.0000000  -0.0000000  -0.0000000  -0.0000000  -0.0000000  -0.0000000  -0.0000000  -0.0000000  -0.0000000
 NQMom=    0.0000000   0.0000000   2.0440000   0.0000000   0.0000000   0.0000000   0.0000000   0.0000000   0.0000000   0.0000000
 NMagM=    0.0000000   0.0000000   0.4037610   0.0000000   0.0000000   0.0000000   0.0000000   0.0000000   0.0000000   0.0000000
 AtZNuc=   8.0000000   6.0000000   7.0000000   6.0000000   6.0000000   6.0000000   6.0000000   6.0000000   6.0000000   6.0000000

  Atom       111         112         113         114         115         116         117         118         119         120
 IAtWgt=          14          12          12          12          12          12          12          16          12          12
 AtmWgt=  14.0030740  12.0000000  12.0000000  12.0000000  12.0000000  12.0000000  12.0000000  15.9949146  12.0000000  12.0000000
 NucSpn=           2           0           0           0           0           0           0           0           0           0
 AtZEff=  -0.0000000  -0.0000000  -0.0000000  -0.0000000  -0.0000000  -0.0000000  -0.0000000  -0.0000000  -0.0000000  -0.0000000
 NQMom=    2.0440000   0.0000000   0.0000000   0.0000000   0.0000000   0.0000000   0.0000000   0.0000000   0.0000000   0.0000000
 NMagM=    0.4037610   0.0000000   0.0000000   0.0000000   0.0000000   0.0000000   0.0000000   0.0000000   0.0000000   0.0000000
 AtZNuc=   7.0000000   6.0000000   6.0000000   6.0000000   6.0000000   6.0000000   6.0000000   8.0000000   6.0000000   6.0000000

  Atom       121         122         123         124         125         126         127         128         129         130
 IAtWgt=          16          16          12           1           1           1           1           1           1           1
 AtmWgt=  15.9949146  15.9949146  12.0000000   1.0078250   1.0078250   1.0078250   1.0078250   1.0078250   1.0078250   1.0078250
 NucSpn=           0           0           0           1           1           1           1           1           1           1
 AtZEff=  -0.0000000  -0.0000000  -0.0000000  -0.0000000  -0.0000000  -0.0000000  -0.0000000  -0.0000000  -0.0000000  -0.0000000
 NQMom=    0.0000000   0.0000000   0.0000000   0.0000000   0.0000000   0.0000000   0.0000000   0.0000000   0.0000000   0.0000000
 NMagM=    0.0000000   0.0000000   0.0000000   2.7928460   2.7928460   2.7928460   2.7928460   2.7928460   2.7928460   2.7928460
 AtZNuc=   8.0000000   8.0000000   6.0000000   1.0000000   1.0000000   1.0000000   1.0000000   1.0000000   1.0000000   1.0000000

  Atom       131         132         133         134         135         136         137         138         139         140
 IAtWgt=           1           1           1           1           1           1           1           1           1           1
 AtmWgt=   1.0078250   1.0078250   1.0078250   1.0078250   1.0078250   1.0078250   1.0078250   1.0078250   1.0078250   1.0078250
 NucSpn=           1           1           1           1           1           1           1           1           1           1
 AtZEff=  -0.0000000  -0.0000000  -0.0000000  -0.0000000  -0.0000000  -0.0000000  -0.0000000  -0.0000000  -0.0000000  -0.0000000
 NQMom=    0.0000000   0.0000000   0.0000000   0.0000000   0.0000000   0.0000000   0.0000000   0.0000000   0.0000000   0.0000000
 NMagM=    2.7928460   2.7928460   2.7928460   2.7928460   2.7928460   2.7928460   2.7928460   2.7928460   2.7928460   2.7928460
 AtZNuc=   1.0000000   1.0000000   1.0000000   1.0000000   1.0000000   1.0000000   1.0000000   1.0000000   1.0000000   1.0000000

  Atom       141         142         143         144         145         146         147         148         149         150
 IAtWgt=           1           1           1           1           1           1           1           1           1           1
 AtmWgt=   1.0078250   1.0078250   1.0078250   1.0078250   1.0078250   1.0078250   1.0078250   1.0078250   1.0078250   1.0078250
 NucSpn=           1           1           1           1           1           1           1           1           1           1
 AtZEff=  -0.0000000  -0.0000000  -0.0000000  -0.0000000  -0.0000000  -0.0000000  -0.0000000  -0.0000000  -0.0000000  -0.0000000
 NQMom=    0.0000000   0.0000000   0.0000000   0.0000000   0.0000000   0.0000000   0.0000000   0.0000000   0.0000000   0.0000000
 NMagM=    2.7928460   2.7928460   2.7928460   2.7928460   2.7928460   2.7928460   2.7928460   2.7928460   2.7928460   2.7928460
 AtZNuc=   1.0000000   1.0000000   1.0000000   1.0000000   1.0000000   1.0000000   1.0000000   1.0000000   1.0000000   1.0000000

  Atom       151         152         153         154         155         156         157         158
 IAtWgt=           1           1           1           1           1           1           1           1
 AtmWgt=   1.0078250   1.0078250   1.0078250   1.0078250   1.0078250   1.0078250   1.0078250   1.0078250
 NucSpn=           1           1           1           1           1           1           1           1
 AtZEff=  -0.0000000  -0.0000000  -0.0000000  -0.0000000  -0.0000000  -0.0000000  -0.0000000  -0.0000000
 NQMom=    0.0000000   0.0000000   0.0000000   0.0000000   0.0000000   0.0000000   0.0000000   0.0000000
 NMagM=    2.7928460   2.7928460   2.7928460   2.7928460   2.7928460   2.7928460   2.7928460   2.7928460
 AtZNuc=   1.0000000   1.0000000   1.0000000   1.0000000   1.0000000   1.0000000   1.0000000   1.0000000
 Leave Link  101 at Sun Sep 12 04:31:35 2021, MaxMem= 23488102400 cpu:               5.1 elap:               0.2
 (Enter /sw/apps/gaussian-16.0/g16/l202.exe)
 Stoichiometry    C68H72Mg2N8O8
 Framework group  C1[X(C68H72Mg2N8O8)]
 Deg. of freedom   468
 Full point group                 C1      NOp   1
 Largest Abelian subgroup         C1      NOp   1
 Largest concise Abelian subgroup C1      NOp   1
                         Standard orientation:                         
 ---------------------------------------------------------------------
 Center     Atomic      Atomic             Coordinates (Angstroms)
 Number     Number       Type             X           Y           Z
 ---------------------------------------------------------------------
      1         12           0        7.721312   -1.024869    0.146860
      2          6           0        8.059116    2.497100   -0.395209
      3          6           0        8.537115   -0.450189    3.409876
      4          6           0        7.874369   -4.166796    0.548711
      5          6           0        8.052963   -1.437407   -3.297771
      6          7           0        8.212110    0.831971    1.247728
      7          6           0        8.248080    2.124086    0.937382
      8          6           0        8.430661    3.052008    2.175526
      9          6           0        9.123995    2.014315    3.167736
     10          6           0        8.564328    0.722654    2.598255
     11          6           0       10.644601    1.983801    3.052278
     12          6           0        7.063330    3.561603    2.743370
     13          6           0        7.160678    4.721684    3.738402
     14          1           0        6.119337    5.738016    3.733178
     15          7           0        7.663188   -2.109794    1.796833
     16          6           0        8.016152   -1.709622    3.042049
     17          6           0        7.794426   -2.876253    3.923236
     18          6           0        7.464550   -4.043276    3.058751
     19          6           0        7.682678   -3.485653    1.748463
     20          6           0        7.854902   -2.801609    5.418067
     21          6           0        7.032958   -5.442530    3.365260
     22          8           0        7.023565   -6.361532    2.476484
     23          6           0        6.701521   -5.734599    4.771633
     24          7           0        8.152130   -2.603003   -1.149875
     25          6           0        8.092617   -3.873098   -0.734782
     26          6           0        8.159499   -4.828516   -1.889183
     27          6           0        8.032446   -3.937643   -3.208256
     28          6           0        7.994542   -2.538566   -2.545372
     29          6           0        9.428479   -5.687878   -1.974026
     30          6           0        6.906536   -4.312633   -4.204312
     31          6           0        5.556675   -4.038813   -3.579814
     32          7           0        7.828806    0.280365   -1.583994
     33          6           0        7.989032   -0.105857   -2.922588
     34          6           0        8.115525    1.130092   -3.716626
     35          6           0        8.036194    2.155738   -2.776625
     36          6           0        7.896979    1.595322   -1.474763
     37          6           0        8.337853    1.199771   -5.120247
     38          6           0        8.061382    3.594166   -2.566512
     39          8           0        8.064186    4.578749   -3.306837
     40          6           0        8.199641    3.869999   -1.004261
     41          6           0        7.178608    4.911170   -0.634444
     42          8           0        5.957782    4.659138   -0.693009
     43          8           0        7.794486    5.949307   -0.048350
     44          6           0        6.834471    7.005470    0.370036
     45          1           0        9.009144   -0.422165    4.393921
     46          1           0        7.822686   -5.254595    0.629091
     47          1           0        8.074307   -1.485723   -4.388029
     48          1           0        9.088245    3.905721    2.010654
     49          1           0        8.791198    2.150414    4.196543
     50          1           0       10.992768    2.588236    2.214806
     51          1           0       10.903914    0.936018    2.899310
     52          1           0       11.110503    2.273300    3.994563
     53          1           0        6.635812    2.796625    3.391519
     54          1           0        6.387780    3.837502    1.932914
     55          1           0        8.147200    5.185491    3.714589
     56          1           0        7.076749    4.315107    4.746296
     57          1           0        8.280465   -1.857199    5.755010
     58          1           0        8.571333   -3.554646    5.745743
     59          1           0        6.885116   -2.992073    5.878037
     60          1           0        7.570543   -5.527791    5.396597
     61          1           0        6.328591   -6.758101    4.786377
     62          1           0        5.918423   -5.050246    5.099303
     63          1           0        7.334467   -5.538953   -1.857121
     64          1           0        8.940806   -3.966715   -3.810510
     65          1           0        9.231259   -6.760114   -1.984935
     66          1           0       10.074922   -5.417626   -1.139540
     67          1           0       10.071945   -5.470000   -2.826022
     68          1           0        6.943290   -5.376762   -4.435019
     69          1           0        6.965680   -3.766867   -5.146062
     70          1           0        5.374211   -4.936988   -2.990898
     71          1           0        4.797276   -3.918010   -4.353073
     72          1           0        5.601731   -3.198396   -2.886882
     73          1           0        7.674918    1.979177   -5.495763
     74          1           0        8.136355    0.242785   -5.601059
     75          1           0        9.394735    1.464866   -5.144371
     76          1           0        9.218412    4.217886   -0.836325
     77          1           0        7.158527    7.936399   -0.095360
     78          1           0        6.792148    6.972056    1.458841
     79          1           0        5.821440    6.919826   -0.024644
     80         12           0       -8.147701   -0.470206   -0.238871
     81          6           0       -6.645852    2.784471   -0.413701
     82          6           0       -8.569825    0.068160    3.102770
     83          6           0       -9.060373   -3.496892    0.032482
     84          6           0       -6.601391   -1.194365   -3.277002
     85          7           0       -7.633934    1.244751    1.060069
     86          6           0       -7.121985    2.451700    0.871597
     87          6           0       -7.193534    3.381643    2.112424
     88          6           0       -7.271641    2.254419    3.253541
     89          6           0       -7.896472    1.124139    2.438233
     90          6           0       -5.907236    1.794785    3.739833
     91          6           0       -8.476259    4.285321    2.108943
     92          6           0       -8.458354    5.431250    3.122990
     93          1           0       -9.087597    6.696490    2.754663
     94          7           0       -9.165638   -1.380457    1.201205
     95          6           0       -9.246050   -1.013824    2.497499
     96          6           0      -10.098855   -2.020559    3.148177
     97          6           0      -10.380522   -3.102352    2.165773
     98          6           0       -9.510341   -2.703508    1.077762
     99          6           0      -10.627117   -1.859907    4.544083
    100          6           0      -11.274308   -4.304784    2.204759
    101          8           0      -11.183689   -5.239676    1.332648
    102          6           0      -12.194988   -4.400537    3.346984
    103          7           0       -7.704031   -2.180336   -1.334763
    104          6           0       -8.276429   -3.360028   -1.037107
    105          6           0       -8.022863   -4.378684   -2.122661
    106          6           0       -7.362657   -3.564275   -3.330320
    107          6           0       -7.262557   -2.171098   -2.671185
    108          6           0       -7.114092   -5.546583   -1.739860
    109          6           0       -8.053609   -3.678089   -4.716785
    110          6           0       -9.409704   -3.011356   -4.673902
    111          7           0       -7.009372    0.633293   -1.706709
    112          6           0       -6.433816    0.130276   -2.894060
    113          6           0       -5.661119    1.231808   -3.503956
    114          6           0       -5.823157    2.301108   -2.610180
    115          6           0       -6.622578    1.888750   -1.510008
    116          6           0       -4.896882    1.148104   -4.701898
    117          6           0       -5.490933    3.681816   -2.341901
    118          8           0       -4.912998    4.572747   -2.963159
    119          6           0       -5.904099    4.019266   -0.844640
    120          6           0       -6.656644    5.321625   -0.852737
    121          8           0       -7.761146    5.409867   -1.417441
    122          8           0       -6.055177    6.183316   -0.012440
    123          6           0       -6.771481    7.486207    0.022368
    124          1           0       -8.543560    0.040583    4.192465
    125          1           0       -9.438819   -4.521656    0.021618
    126          1           0       -6.171375   -1.311363   -4.274033
    127          1           0       -6.320180    4.004524    2.264239
    128          1           0       -7.935215    2.554475    4.060387
    129          1           0       -5.106375    2.218373    3.152179
    130          1           0       -5.911547    0.716240    3.651778
    131          1           0       -5.795149    2.009644    4.806416
    132          1           0       -9.323946    3.705274    2.495866
    133          1           0       -8.665603    4.674313    1.127387
    134          1           0       -7.455114    5.605307    3.530612
    135          1           0       -9.052781    5.135840    3.990978
    136          1           0      -10.117451   -1.047069    5.075997
    137          1           0      -10.348457   -2.763284    5.097373
    138          1           0      -11.713127   -1.748531    4.573231
    139          1           0      -11.623968   -4.396639    4.272400
    140          1           0      -12.812049   -5.279789    3.152037
    141          1           0      -12.826661   -3.505353    3.363179
    142          1           0       -8.951368   -4.820538   -2.462882
    143          1           0       -6.331845   -3.893121   -3.528135
    144          1           0       -7.589515   -6.535108   -1.884327
    145          1           0       -6.808970   -5.418270   -0.709828
    146          1           0       -6.159039   -5.578802   -2.261428
    147          1           0       -8.231228   -4.727036   -4.966433
    148          1           0       -7.472144   -3.248532   -5.525727
    149          1           0      -10.052976   -3.787530   -4.248634
    150          1           0       -9.733018   -2.735935   -5.675725
    151          1           0       -9.410190   -2.164759   -3.977530
    152          1           0       -5.104211    2.047125   -5.266933
    153          1           0       -5.145240    0.254226   -5.270284
    154          1           0       -3.886789    1.102672   -4.286060
    155          1           0       -4.986958    4.080050   -0.257487
    156          1           0       -6.038408    8.260504   -0.224127
    157          1           0       -7.244879    7.540272    1.020729
    158          1           0       -7.527788    7.662700   -0.733474
 ---------------------------------------------------------------------
 Rotational constants (GHZ):           0.0213106           0.0061046           0.0056359
 Leave Link  202 at Sun Sep 12 04:31:35 2021, MaxMem= 23488102400 cpu:               0.3 elap:               0.0
 (Enter /sw/apps/gaussian-16.0/g16/l301.exe)
 Standard basis: def2SVP (5D, 7F)
 Ernie: Thresh=  0.10000D-02 Tol=  0.10000D-05 Strict=F.
 There are  1658 symmetry adapted cartesian basis functions of A   symmetry.
 There are  1572 symmetry adapted basis functions of A   symmetry.
  1572 basis functions,  2678 primitive gaussians,  1658 cartesian basis functions
   312 alpha electrons      312 beta electrons
       nuclear repulsion energy     13800.4183873729 Hartrees.
 IExCor=20419 DFT=T Ex+Corr=CAM-B3LYP ExCW=0 ScaHFX=  1.000000
 ScaDFX=  1.000000  1.000000  1.000000  0.810000 ScalE2=  1.000000  1.000000
 IRadAn=      5 IRanWt=     -1 IRanGd=            0 ICorTp=0 IEmpDi=  4
 HFx  wShort=  0.000000 wLong=  0.330000 cFull=  0.190000 cShort=  0.000000 cLong=  0.460000
 DFx  wShort=  0.000000 wLong=  0.330000 cFull=  0.190000 cShort=  0.000000 cLong=  0.460000
 NAtoms=  158 NActive=  158 NUniq=  158 SFac= 1.00D+00 NAtFMM=   60 NAOKFM=T Big=T
 Integral buffers will be    131072 words long.
 Raffenetti 1 integral format.
 Two-electron integral symmetry is turned on.
 Leave Link  301 at Sun Sep 12 04:31:35 2021, MaxMem= 23488102400 cpu:               1.5 elap:               0.1
 (Enter /sw/apps/gaussian-16.0/g16/l302.exe)
 NPDir=0 NMtPBC=     1 NCelOv=     1 NCel=       1 NClECP=     1 NCelD=      1
         NCelK=      1 NCelE2=     1 NClLst=     1 CellRange=     0.0.
 One-electron integrals computed using PRISM.
 One-electron integral symmetry used in STVInt
   1 Symmetry operations used in ECPInt.
 ECPInt:  NShTT=  271216 NPrTT=  987664 LenC2=  108373 LenP2D=  245332.
 LDataN:  DoStor=T MaxTD1= 4 Len=   56
 NBasis=  1572 RedAO= T EigKep=  3.36D-04  NBF=  1572
 NBsUse=  1572 1.00D-06 EigRej= -1.00D+00 NBFU=  1572
 Precomputing XC quadrature grid using
 IXCGrd= 4 IRadAn=           5 IRanWt=          -1 IRanGd=           0 AccXCQ= 0.00D+00.
 Generated NRdTot=       0 NPtTot=           0 NUsed=           0 NTot=          32
 NSgBfM=   840   831   831   840   840 MxSgAt=   158 MxSgA2=   150.
 Leave Link  302 at Sun Sep 12 04:31:40 2021, MaxMem= 23488102400 cpu:             108.3 elap:               4.5
 (Enter /sw/apps/gaussian-16.0/g16/l303.exe)
 DipDrv:  MaxL=1.
 Leave Link  303 at Sun Sep 12 04:31:40 2021, MaxMem= 23488102400 cpu:               9.8 elap:               0.4
 (Enter /sw/apps/gaussian-16.0/g16/l308.exe)
 Leave Link  308 at Sun Sep 12 04:31:41 2021, MaxMem= 23488102400 cpu:              14.8 elap:               0.7
 (Enter /sw/apps/gaussian-16.0/g16/l401.exe)
 ExpMin= 3.36D-02 ExpMax= 4.95D+03 ExpMxC= 7.45D+02 IAcc=3 IRadAn=         5 AccDes= 0.00D+00
 Harris functional with IExCor=20419 and IRadAn=       5 diagonalized for initial guess.
 HarFok:  IExCor=20419 AccDes= 0.00D+00 IRadAn=         5 IDoV= 1 UseB2=F ITyADJ=14
 ICtDFT=  3500011 ScaDFX=  1.000000  1.000000  1.000000  1.000000
 FoFCou: FMM=F IPFlag=           0 FMFlag=      100000 FMFlg1=        2001
         NFxFlg=           0 DoJE=T BraDBF=F KetDBF=T FulRan=T
         wScrn=  0.000000 ICntrl=       500 IOpCl=  0 I1Cent=   200000004 NGrid=           0
         NMat0=    1 NMatS0=      1 NMatT0=    0 NMatD0=    1 NMtDS0=    0 NMtDT0=    0
 Petite list used in FoFCou.
 Harris En= -3918.65801219145    
 JPrj=0 DoOrth=F DoCkMO=F.
 Leave Link  401 at Sun Sep 12 04:31:48 2021, MaxMem= 23488102400 cpu:             166.3 elap:               6.9
 (Enter /sw/apps/gaussian-16.0/g16/l502.exe)
 Integral symmetry usage will be decided dynamically.
 Closed shell SCF:
 Using DIIS extrapolation, IDIIS=  1040.
 NGot= 23488102400 LenX= 23482547354 LenY= 23479796732
 Requested convergence on RMS density matrix=1.00D-08 within 128 cycles.
 Requested convergence on MAX density matrix=1.00D-06.
 Requested convergence on             energy=1.00D-06.
 No special actions if energy rises.
 Fock matrices will be formed incrementally for  20 cycles.

 Cycle   1  Pass 1  IDiag  1:
 FoFJK:  IHMeth= 1 ICntrl=       0 DoSepK=T KAlg= 0 I1Cent=           0 FoldK=F
 IRaf=         1 NMat=       1 IRICut=       1 DoRegI=T DoRafI=F ISym2E= 0 IDoP0=0 IntGTp=1.
 FoFCou: FMM=T IPFlag=           0 FMFlag=      100000 FMFlg1=        2001
         NFxFlg=           0 DoJE=T BraDBF=F KetDBF=F FulRan=T
         wScrn=  0.000000 ICntrl=       500 IOpCl=  0 I1Cent=           0 NGrid=           0
         NMat0=    1 NMatS0=      1 NMatT0=    0 NMatD0=    1 NMtDS0=    0 NMtDT0=    0
 Symmetry not used in FoFCou.
 FMM levels:  10  Number of levels for PrismC:   9
 E= -4068.94861616490    
 DIIS: error= 2.04D-02 at cycle   1 NSaved=   1.
 NSaved= 1 IEnMin= 1 EnMin= -4068.94861616490     IErMin= 1 ErrMin= 2.04D-02
 ErrMax= 2.04D-02  0.00D+00 EMaxC= 1.00D-01 BMatC= 1.69D+00 BMatP= 1.69D+00
 IDIUse=3 WtCom= 7.96D-01 WtEn= 2.04D-01
 Coeff-Com:  0.100D+01
 Coeff-En:   0.100D+01
 Coeff:      0.100D+01
 Gap=     0.120 Goal=   None    Shift=    0.000
 GapD=    0.120 DampG=1.000 DampE=0.500 DampFc=0.5000 IDamp=-1.
 Damping current iteration by 5.00D-01
 RMSDP=1.57D-03 MaxDP=1.35D-01              OVMax= 2.06D-01

 Cycle   2  Pass 1  IDiag  1:
 RMSU=  7.70D-04    CP:  9.82D-01
 E= -4069.33743104456     Delta-E=       -0.388814879658 Rises=F Damp=T
 DIIS: error= 1.27D-02 at cycle   2 NSaved=   2.
 NSaved= 2 IEnMin= 2 EnMin= -4069.33743104456     IErMin= 2 ErrMin= 1.27D-02
 ErrMax= 1.27D-02  0.00D+00 EMaxC= 1.00D-01 BMatC= 3.07D-01 BMatP= 1.69D+00
 IDIUse=3 WtCom= 8.73D-01 WtEn= 1.27D-01
 Coeff-Com: -0.213D+00 0.121D+01
 Coeff-En:   0.000D+00 0.100D+01
 Coeff:     -0.186D+00 0.119D+01
 Gap=     0.136 Goal=   None    Shift=    0.000
 RMSDP=7.66D-04 MaxDP=9.48D-02 DE=-3.89D-01 OVMax= 1.90D-01

 Cycle   3  Pass 1  IDiag  1:
 RMSU=  7.34D-04    CP:  9.68D-01  1.24D+00
 E= -4069.62625501784     Delta-E=       -0.288823973286 Rises=F Damp=F
 DIIS: error= 1.58D-02 at cycle   3 NSaved=   3.
 NSaved= 3 IEnMin= 3 EnMin= -4069.62625501784     IErMin= 2 ErrMin= 1.27D-02
 ErrMax= 1.58D-02  0.00D+00 EMaxC= 1.00D-01 BMatC= 2.03D-01 BMatP= 3.07D-01
 IDIUse=3 WtCom= 8.42D-01 WtEn= 1.58D-01
 Coeff-Com: -0.267D+00 0.652D+00 0.615D+00
 Coeff-En:   0.000D+00 0.000D+00 0.100D+01
 Coeff:     -0.225D+00 0.549D+00 0.676D+00
 Gap=     0.124 Goal=   None    Shift=    0.000
 RMSDP=5.11D-04 MaxDP=4.80D-02 DE=-2.89D-01 OVMax= 1.47D-01

 Cycle   4  Pass 1  IDiag  1:
 RMSU=  2.67D-04    CP:  9.65D-01  1.55D+00  5.03D-01
 E= -4069.76393635615     Delta-E=       -0.137681338310 Rises=F Damp=F
 DIIS: error= 7.31D-03 at cycle   4 NSaved=   4.
 NSaved= 4 IEnMin= 4 EnMin= -4069.76393635615     IErMin= 4 ErrMin= 7.31D-03
 ErrMax= 7.31D-03  0.00D+00 EMaxC= 1.00D-01 BMatC= 5.09D-02 BMatP= 2.03D-01
 IDIUse=3 WtCom= 9.27D-01 WtEn= 7.31D-02
 Coeff-Com: -0.109D+00 0.226D+00 0.409D+00 0.473D+00
 Coeff-En:   0.000D+00 0.000D+00 0.223D+00 0.777D+00
 Coeff:     -0.101D+00 0.210D+00 0.396D+00 0.496D+00
 Gap=     0.123 Goal=   None    Shift=    0.000
 RMSDP=2.03D-04 MaxDP=2.02D-02 DE=-1.38D-01 OVMax= 6.51D-02

 Cycle   5  Pass 1  IDiag  1:
 RMSU=  7.71D-05    CP:  9.64D-01  1.49D+00  6.89D-01  5.46D-01
 E= -4069.81021135920     Delta-E=       -0.046275003049 Rises=F Damp=F
 DIIS: error= 7.62D-04 at cycle   5 NSaved=   5.
 NSaved= 5 IEnMin= 5 EnMin= -4069.81021135920     IErMin= 5 ErrMin= 7.62D-04
 ErrMax= 7.62D-04  0.00D+00 EMaxC= 1.00D-01 BMatC= 1.22D-03 BMatP= 5.09D-02
 IDIUse=3 WtCom= 9.92D-01 WtEn= 7.62D-03
 Coeff-Com: -0.364D-01 0.716D-01 0.168D+00 0.251D+00 0.546D+00
 Coeff-En:   0.000D+00 0.000D+00 0.000D+00 0.000D+00 0.100D+01
 Coeff:     -0.362D-01 0.710D-01 0.166D+00 0.249D+00 0.549D+00
 Gap=     0.122 Goal=   None    Shift=    0.000
 RMSDP=4.23D-05 MaxDP=4.22D-03 DE=-4.63D-02 OVMax= 1.78D-02

 Cycle   6  Pass 1  IDiag  1:
 RMSU=  3.10D-05    CP:  9.64D-01  1.49D+00  6.80D-01  6.20D-01  7.47D-01
 E= -4069.81128615312     Delta-E=       -0.001074793916 Rises=F Damp=F
 DIIS: error= 2.05D-04 at cycle   6 NSaved=   6.
 NSaved= 6 IEnMin= 6 EnMin= -4069.81128615312     IErMin= 6 ErrMin= 2.05D-04
 ErrMax= 2.05D-04  0.00D+00 EMaxC= 1.00D-01 BMatC= 1.85D-04 BMatP= 1.22D-03
 IDIUse=3 WtCom= 9.98D-01 WtEn= 2.05D-03
 Coeff-Com:  0.218D-02-0.655D-02 0.116D-01 0.409D-01 0.306D+00 0.645D+00
 Coeff-En:   0.000D+00 0.000D+00 0.000D+00 0.000D+00 0.110D+00 0.890D+00
 Coeff:      0.218D-02-0.653D-02 0.116D-01 0.408D-01 0.306D+00 0.646D+00
 Gap=     0.123 Goal=   None    Shift=    0.000
 RMSDP=1.65D-05 MaxDP=1.20D-03 DE=-1.07D-03 OVMax= 7.64D-03

 Cycle   7  Pass 1  IDiag  1:
 RMSU=  1.10D-05    CP:  9.64D-01  1.50D+00  6.86D-01  6.19D-01  8.53D-01
                    CP:  7.43D-01
 E= -4069.81148878782     Delta-E=       -0.000202634699 Rises=F Damp=F
 DIIS: error= 8.60D-05 at cycle   7 NSaved=   7.
 NSaved= 7 IEnMin= 7 EnMin= -4069.81148878782     IErMin= 7 ErrMin= 8.60D-05
 ErrMax= 8.60D-05  0.00D+00 EMaxC= 1.00D-01 BMatC= 2.26D-05 BMatP= 1.85D-04
 IDIUse=1 WtCom= 1.00D+00 WtEn= 0.00D+00
 Coeff-Com:  0.452D-02-0.989D-02-0.893D-02-0.347D-02 0.105D+00 0.333D+00
 Coeff-Com:  0.580D+00
 Coeff:      0.452D-02-0.989D-02-0.893D-02-0.347D-02 0.105D+00 0.333D+00
 Coeff:      0.580D+00
 Gap=     0.123 Goal=   None    Shift=    0.000
 RMSDP=6.63D-06 MaxDP=1.09D-03 DE=-2.03D-04 OVMax= 3.43D-03

 Cycle   8  Pass 1  IDiag  1:
 RMSU=  4.74D-06    CP:  9.64D-01  1.50D+00  6.87D-01  6.24D-01  8.55D-01
                    CP:  8.68D-01  8.18D-01
 E= -4069.81151682568     Delta-E=       -0.000028037863 Rises=F Damp=F
 DIIS: error= 5.16D-05 at cycle   8 NSaved=   8.
 NSaved= 8 IEnMin= 8 EnMin= -4069.81151682568     IErMin= 8 ErrMin= 5.16D-05
 ErrMax= 5.16D-05  0.00D+00 EMaxC= 1.00D-01 BMatC= 4.94D-06 BMatP= 2.26D-05
 IDIUse=1 WtCom= 1.00D+00 WtEn= 0.00D+00
 Coeff-Com:  0.218D-02-0.432D-02-0.780D-02-0.121D-01-0.105D-01 0.330D-01
 Coeff-Com:  0.335D+00 0.665D+00
 Coeff:      0.218D-02-0.432D-02-0.780D-02-0.121D-01-0.105D-01 0.330D-01
 Coeff:      0.335D+00 0.665D+00
 Gap=     0.123 Goal=   None    Shift=    0.000
 RMSDP=3.33D-06 MaxDP=3.69D-04 DE=-2.80D-05 OVMax= 1.06D-03

 Cycle   9  Pass 1  IDiag  1:
 RMSU=  1.94D-06    CP:  9.64D-01  1.50D+00  6.87D-01  6.25D-01  8.73D-01
                    CP:  8.95D-01  1.01D+00  9.54D-01
 E= -4069.81152475326     Delta-E=       -0.000007927574 Rises=F Damp=F
 DIIS: error= 1.99D-05 at cycle   9 NSaved=   9.
 NSaved= 9 IEnMin= 9 EnMin= -4069.81152475326     IErMin= 9 ErrMin= 1.99D-05
 ErrMax= 1.99D-05  0.00D+00 EMaxC= 1.00D-01 BMatC= 7.20D-07 BMatP= 4.94D-06
 IDIUse=1 WtCom= 1.00D+00 WtEn= 0.00D+00
 Coeff-Com:  0.466D-03-0.772D-03-0.268D-02-0.602D-02-0.208D-01-0.398D-01
 Coeff-Com:  0.100D+00 0.329D+00 0.641D+00
 Coeff:      0.466D-03-0.772D-03-0.268D-02-0.602D-02-0.208D-01-0.398D-01
 Coeff:      0.100D+00 0.329D+00 0.641D+00
 Gap=     0.123 Goal=   None    Shift=    0.000
 RMSDP=1.44D-06 MaxDP=1.46D-04 DE=-7.93D-06 OVMax= 7.57D-04

 Cycle  10  Pass 1  IDiag  1:
 RMSU=  9.54D-07    CP:  9.64D-01  1.50D+00  6.87D-01  6.26D-01  8.76D-01
                    CP:  9.08D-01  1.06D+00  1.12D+00  1.06D+00
 E= -4069.81152641546     Delta-E=       -0.000001662207 Rises=F Damp=F
 DIIS: error= 1.04D-05 at cycle  10 NSaved=  10.
 NSaved=10 IEnMin=10 EnMin= -4069.81152641546     IErMin=10 ErrMin= 1.04D-05
 ErrMax= 1.04D-05  0.00D+00 EMaxC= 1.00D-01 BMatC= 1.78D-07 BMatP= 7.20D-07
 IDIUse=1 WtCom= 1.00D+00 WtEn= 0.00D+00
 Coeff-Com: -0.432D-03 0.906D-03 0.125D-02 0.112D-02-0.365D-02-0.314D-01
 Coeff-Com: -0.453D-01-0.771D-01 0.249D+00 0.906D+00
 Coeff:     -0.432D-03 0.906D-03 0.125D-02 0.112D-02-0.365D-02-0.314D-01
 Coeff:     -0.453D-01-0.771D-01 0.249D+00 0.906D+00
 Gap=     0.123 Goal=   None    Shift=    0.000
 RMSDP=1.25D-06 MaxDP=1.25D-04 DE=-1.66D-06 OVMax= 6.32D-04

 Cycle  11  Pass 1  IDiag  1:
 RMSU=  5.31D-07    CP:  9.64D-01  1.50D+00  6.87D-01  6.26D-01  8.78D-01
                    CP:  9.18D-01  1.11D+00  1.23D+00  1.40D+00  1.37D+00
 E= -4069.81152724223     Delta-E=       -0.000000826771 Rises=F Damp=F
 DIIS: error= 4.15D-06 at cycle  11 NSaved=  11.
 NSaved=11 IEnMin=11 EnMin= -4069.81152724223     IErMin=11 ErrMin= 4.15D-06
 ErrMax= 4.15D-06  0.00D+00 EMaxC= 1.00D-01 BMatC= 6.69D-08 BMatP= 1.78D-07
 IDIUse=1 WtCom= 1.00D+00 WtEn= 0.00D+00
 Coeff-Com: -0.335D-03 0.651D-03 0.135D-02 0.214D-02 0.445D-02-0.862D-02
 Coeff-Com: -0.425D-01-0.134D+00-0.285D-01 0.477D+00 0.728D+00
 Coeff:     -0.335D-03 0.651D-03 0.135D-02 0.214D-02 0.445D-02-0.862D-02
 Coeff:     -0.425D-01-0.134D+00-0.285D-01 0.477D+00 0.728D+00
 Gap=     0.123 Goal=   None    Shift=    0.000
 RMSDP=7.08D-07 MaxDP=6.24D-05 DE=-8.27D-07 OVMax= 3.92D-04

 Cycle  12  Pass 1  IDiag  1:
 RMSU=  2.71D-07    CP:  9.64D-01  1.50D+00  6.87D-01  6.26D-01  8.79D-01
                    CP:  9.20D-01  1.13D+00  1.30D+00  1.57D+00  1.77D+00
                    CP:  1.19D+00
 E= -4069.81152752203     Delta-E=       -0.000000279793 Rises=F Damp=F
 DIIS: error= 2.53D-06 at cycle  12 NSaved=  12.
 NSaved=12 IEnMin=12 EnMin= -4069.81152752203     IErMin=12 ErrMin= 2.53D-06
 ErrMax= 2.53D-06  0.00D+00 EMaxC= 1.00D-01 BMatC= 1.64D-08 BMatP= 6.69D-08
 IDIUse=1 WtCom= 1.00D+00 WtEn= 0.00D+00
 Coeff-Com: -0.641D-05-0.452D-05 0.209D-03 0.555D-03 0.346D-02 0.391D-02
 Coeff-Com:  0.220D-02-0.370D-01-0.713D-01-0.626D-01 0.258D+00 0.903D+00
 Coeff:     -0.641D-05-0.452D-05 0.209D-03 0.555D-03 0.346D-02 0.391D-02
 Coeff:      0.220D-02-0.370D-01-0.713D-01-0.626D-01 0.258D+00 0.903D+00
 Gap=     0.123 Goal=   None    Shift=    0.000
 RMSDP=4.48D-07 MaxDP=3.08D-05 DE=-2.80D-07 OVMax= 2.56D-04

 Cycle  13  Pass 1  IDiag  1:
 RMSU=  1.70D-07    CP:  9.64D-01  1.50D+00  6.87D-01  6.26D-01  8.79D-01
                    CP:  9.20D-01  1.14D+00  1.33D+00  1.68D+00  1.99D+00
                    CP:  1.60D+00  1.25D+00
 E= -4069.81152761971     Delta-E=       -0.000000097687 Rises=F Damp=F
 DIIS: error= 1.28D-06 at cycle  13 NSaved=  13.
 NSaved=13 IEnMin=13 EnMin= -4069.81152761971     IErMin=13 ErrMin= 1.28D-06
 ErrMax= 1.28D-06  0.00D+00 EMaxC= 1.00D-01 BMatC= 8.84D-09 BMatP= 1.64D-08
 IDIUse=1 WtCom= 1.00D+00 WtEn= 0.00D+00
 Coeff-Com:  0.121D-03-0.248D-03-0.371D-03-0.454D-03 0.655D-03 0.509D-02
 Coeff-Com:  0.194D-01 0.231D-01-0.343D-01-0.241D+00-0.157D+00 0.592D+00
 Coeff-Com:  0.793D+00
 Coeff:      0.121D-03-0.248D-03-0.371D-03-0.454D-03 0.655D-03 0.509D-02
 Coeff:      0.194D-01 0.231D-01-0.343D-01-0.241D+00-0.157D+00 0.592D+00
 Coeff:      0.793D+00
 Gap=     0.123 Goal=   None    Shift=    0.000
 RMSDP=3.55D-07 MaxDP=2.14D-05 DE=-9.77D-08 OVMax= 2.13D-04

 Cycle  14  Pass 1  IDiag  1:
 RMSU=  7.84D-08    CP:  9.64D-01  1.50D+00  6.87D-01  6.26D-01  8.80D-01
                    CP:  9.21D-01  1.14D+00  1.35D+00  1.76D+00  2.19D+00
                    CP:  1.87D+00  1.77D+00  1.10D+00
 E= -4069.81152765875     Delta-E=       -0.000000039036 Rises=F Damp=F
 DIIS: error= 7.04D-07 at cycle  14 NSaved=  14.
 NSaved=14 IEnMin=14 EnMin= -4069.81152765875     IErMin=14 ErrMin= 7.04D-07
 ErrMax= 7.04D-07  0.00D+00 EMaxC= 1.00D-01 BMatC= 1.36D-09 BMatP= 8.84D-09
 IDIUse=1 WtCom= 1.00D+00 WtEn= 0.00D+00
 Coeff-Com:  0.680D-04-0.134D-03-0.252D-03-0.394D-03-0.466D-03 0.130D-02
 Coeff-Com:  0.106D-01 0.198D-01 0.400D-02-0.102D+00-0.144D+00 0.895D-01
 Coeff-Com:  0.408D+00 0.714D+00
 Coeff:      0.680D-04-0.134D-03-0.252D-03-0.394D-03-0.466D-03 0.130D-02
 Coeff:      0.106D-01 0.198D-01 0.400D-02-0.102D+00-0.144D+00 0.895D-01
 Coeff:      0.408D+00 0.714D+00
 Gap=     0.123 Goal=   None    Shift=    0.000
 RMSDP=1.08D-07 MaxDP=6.93D-06 DE=-3.90D-08 OVMax= 5.82D-05

 Cycle  15  Pass 1  IDiag  1:
 RMSU=  3.91D-08    CP:  9.64D-01  1.50D+00  6.87D-01  6.26D-01  8.80D-01
                    CP:  9.21D-01  1.15D+00  1.36D+00  1.78D+00  2.24D+00
                    CP:  1.98D+00  1.91D+00  1.33D+00  1.03D+00
 E= -4069.81152766322     Delta-E=       -0.000000004475 Rises=F Damp=F
 DIIS: error= 3.25D-07 at cycle  15 NSaved=  15.
 NSaved=15 IEnMin=15 EnMin= -4069.81152766322     IErMin=15 ErrMin= 3.25D-07
 ErrMax= 3.25D-07  0.00D+00 EMaxC= 1.00D-01 BMatC= 2.28D-10 BMatP= 1.36D-09
 IDIUse=1 WtCom= 1.00D+00 WtEn= 0.00D+00
 Coeff-Com:  0.569D-05-0.955D-05-0.341D-04-0.842D-04-0.299D-03-0.521D-03
 Coeff-Com:  0.113D-02 0.268D-02 0.882D-02 0.117D-02-0.305D-01-0.726D-01
 Coeff-Com:  0.331D-01 0.292D+00 0.765D+00
 Coeff:      0.569D-05-0.955D-05-0.341D-04-0.842D-04-0.299D-03-0.521D-03
 Coeff:      0.113D-02 0.268D-02 0.882D-02 0.117D-02-0.305D-01-0.726D-01
 Coeff:      0.331D-01 0.292D+00 0.765D+00
 Gap=     0.123 Goal=   None    Shift=    0.000
 RMSDP=3.99D-08 MaxDP=2.38D-06 DE=-4.47D-09 OVMax= 2.83D-05

 Cycle  16  Pass 1  IDiag  1:
 RMSU=  1.91D-08    CP:  9.64D-01  1.50D+00  6.87D-01  6.26D-01  8.80D-01
                    CP:  9.21D-01  1.15D+00  1.36D+00  1.78D+00  2.25D+00
                    CP:  2.00D+00  1.97D+00  1.41D+00  1.24D+00  1.14D+00
 E= -4069.81152766409     Delta-E=       -0.000000000869 Rises=F Damp=F
 DIIS: error= 1.84D-07 at cycle  16 NSaved=  16.
 NSaved=16 IEnMin=16 EnMin= -4069.81152766409     IErMin=16 ErrMin= 1.84D-07
 ErrMax= 1.84D-07  0.00D+00 EMaxC= 1.00D-01 BMatC= 8.81D-11 BMatP= 2.28D-10
 IDIUse=1 WtCom= 1.00D+00 WtEn= 0.00D+00
 Coeff-Com: -0.143D-04 0.289D-04 0.468D-04 0.527D-04-0.330D-04-0.638D-03
 Coeff-Com: -0.192D-02-0.424D-02 0.443D-02 0.254D-01 0.208D-01-0.647D-01
 Coeff-Com: -0.802D-01-0.418D-01 0.403D+00 0.740D+00
 Coeff:     -0.143D-04 0.289D-04 0.468D-04 0.527D-04-0.330D-04-0.638D-03
 Coeff:     -0.192D-02-0.424D-02 0.443D-02 0.254D-01 0.208D-01-0.647D-01
 Coeff:     -0.802D-01-0.418D-01 0.403D+00 0.740D+00
 Gap=     0.123 Goal=   None    Shift=    0.000
 RMSDP=2.37D-08 MaxDP=1.55D-06 DE=-8.69D-10 OVMax= 1.24D-05

 Cycle  17  Pass 1  IDiag  1:
 RMSU=  1.06D-08    CP:  9.64D-01  1.50D+00  6.87D-01  6.26D-01  8.80D-01
                    CP:  9.21D-01  1.15D+00  1.36D+00  1.79D+00  2.26D+00
                    CP:  2.01D+00  1.99D+00  1.46D+00  1.34D+00  1.44D+00
                    CP:  1.24D+00
 E= -4069.81152766445     Delta-E=       -0.000000000360 Rises=F Damp=F
 DIIS: error= 9.18D-08 at cycle  17 NSaved=  17.
 NSaved=17 IEnMin=17 EnMin= -4069.81152766445     IErMin=17 ErrMin= 9.18D-08
 ErrMax= 9.18D-08  0.00D+00 EMaxC= 1.00D-01 BMatC= 1.83D-11 BMatP= 8.81D-11
 IDIUse=1 WtCom= 1.00D+00 WtEn= 0.00D+00
 Coeff-Com: -0.737D-05 0.143D-04 0.291D-04 0.430D-04 0.823D-04-0.128D-03
 Coeff-Com: -0.940D-03-0.284D-02 0.733D-04 0.947D-02 0.177D-01-0.781D-02
 Coeff-Com: -0.355D-01-0.102D+00-0.244D-01 0.289D+00 0.858D+00
 Coeff:     -0.737D-05 0.143D-04 0.291D-04 0.430D-04 0.823D-04-0.128D-03
 Coeff:     -0.940D-03-0.284D-02 0.733D-04 0.947D-02 0.177D-01-0.781D-02
 Coeff:     -0.355D-01-0.102D+00-0.244D-01 0.289D+00 0.858D+00
 Gap=     0.123 Goal=   None    Shift=    0.000
 RMSDP=1.38D-08 MaxDP=9.16D-07 DE=-3.60D-10 OVMax= 9.56D-06

 Cycle  18  Pass 1  IDiag  1:
 RMSU=  5.15D-09    CP:  9.64D-01  1.50D+00  6.87D-01  6.26D-01  8.80D-01
                    CP:  9.21D-01  1.15D+00  1.36D+00  1.79D+00  2.26D+00
                    CP:  2.02D+00  2.00D+00  1.47D+00  1.41D+00  1.61D+00
                    CP:  1.65D+00  1.37D+00
 E= -4069.81152766445     Delta-E=        0.000000000000 Rises=F Damp=F
 DIIS: error= 6.32D-08 at cycle  18 NSaved=  18.
 NSaved=18 IEnMin=17 EnMin= -4069.81152766445     IErMin=18 ErrMin= 6.32D-08
 ErrMax= 6.32D-08  0.00D+00 EMaxC= 1.00D-01 BMatC= 7.77D-12 BMatP= 1.83D-11
 IDIUse=1 WtCom= 1.00D+00 WtEn= 0.00D+00
 Coeff-Com:  0.156D-05-0.344D-05-0.270D-05 0.100D-05 0.627D-04 0.171D-03
 Coeff-Com:  0.327D-03 0.731D-04-0.127D-02-0.539D-02 0.777D-03 0.184D-01
 Coeff-Com:  0.157D-01-0.365D-01-0.157D+00-0.174D+00 0.390D+00 0.949D+00
 Coeff:      0.156D-05-0.344D-05-0.270D-05 0.100D-05 0.627D-04 0.171D-03
 Coeff:      0.327D-03 0.731D-04-0.127D-02-0.539D-02 0.777D-03 0.184D-01
 Coeff:      0.157D-01-0.365D-01-0.157D+00-0.174D+00 0.390D+00 0.949D+00
 Gap=     0.123 Goal=   None    Shift=    0.000
 RMSDP=1.16D-08 MaxDP=6.95D-07 DE= 0.00D+00 OVMax= 6.06D-06

 Cycle  19  Pass 1  IDiag  1:
 RMSU=  3.06D-09    CP:  9.64D-01  1.50D+00  6.87D-01  6.26D-01  8.80D-01
                    CP:  9.21D-01  1.15D+00  1.36D+00  1.79D+00  2.26D+00
                    CP:  2.02D+00  2.01D+00  1.49D+00  1.45D+00  1.75D+00
                    CP:  1.95D+00  1.90D+00  1.28D+00
 E= -4069.81152766458     Delta-E=       -0.000000000124 Rises=F Damp=F
 DIIS: error= 3.16D-08 at cycle  19 NSaved=  19.
 NSaved=19 IEnMin=19 EnMin= -4069.81152766458     IErMin=19 ErrMin= 3.16D-08
 ErrMax= 3.16D-08  0.00D+00 EMaxC= 1.00D-01 BMatC= 1.86D-12 BMatP= 7.77D-12
 IDIUse=1 WtCom= 1.00D+00 WtEn= 0.00D+00
 Coeff-Com:  0.300D-05-0.606D-05-0.100D-04-0.122D-04 0.160D-04 0.130D-03
 Coeff-Com:  0.482D-03 0.811D-03-0.659D-03-0.620D-02-0.477D-02 0.129D-01
 Coeff-Com:  0.209D-01 0.969D-02-0.779D-01-0.189D+00-0.822D-02 0.523D+00
 Coeff-Com:  0.719D+00
 Coeff:      0.300D-05-0.606D-05-0.100D-04-0.122D-04 0.160D-04 0.130D-03
 Coeff:      0.482D-03 0.811D-03-0.659D-03-0.620D-02-0.477D-02 0.129D-01
 Coeff:      0.209D-01 0.969D-02-0.779D-01-0.189D+00-0.822D-02 0.523D+00
 Coeff:      0.719D+00
 Gap=     0.123 Goal=   None    Shift=    0.000
 RMSDP=4.90D-09 MaxDP=3.55D-07 DE=-1.24D-10 OVMax= 3.56D-06

 SCF Done:  E(RCAM-B3LYP) =  -4069.81152766     A.U. after   19 cycles
            NFock= 19  Conv=0.49D-08     -V/T= 2.0102
 KE= 4.028802204078D+03 PE=-3.708203193900D+04 EE= 1.518299981988D+04
 Leave Link  502 at Sun Sep 12 04:40:26 2021, MaxMem= 23488102400 cpu:           11829.7 elap:             517.8
 (Enter /sw/apps/gaussian-16.0/g16/l801.exe)
 DoSCS=F DFT=T ScalE2(SS,OS)=  1.000000  1.000000
 ExpMin= 3.36D-02 ExpMax= 4.95D+03 ExpMxC= 7.45D+02 IAcc=3 IRadAn=         5 AccDes= 0.00D+00
 HarFok:  IExCor=  205 AccDes= 0.00D+00 IRadAn=         5 IDoV=-2 UseB2=F ITyADJ=14
 ICtDFT= 12500011 ScaDFX=  1.000000  1.000000  1.000000  1.000000
 GSVD:  LWork=       -9588 too small for GESVD, short by       45590 words or       45590 for optimal perf.
 Largest valence mixing into a core orbital is  2.03D-04
 Largest core mixing into a valence orbital is  5.24D-05
 Range of M.O.s used for correlation:    95  1572
 NBasis=  1572 NAE=   312 NBE=   312 NFC=    94 NFV=     0
 NROrb=   1478 NOA=   218 NOB=   218 NVA=  1260 NVB=  1260
 Leave Link  801 at Sun Sep 12 04:40:26 2021, MaxMem= 23488102400 cpu:               8.5 elap:               0.4
 (Enter /sw/apps/gaussian-16.0/g16/l914.exe)
 RHF ground state
 Two-electron integrals replicated using symmetry.
 MDV= 23488102400 DFT=T DoStab=F Mixed=T DoRPA=T DoScal=F NonHer=T
 Making orbital integer symmetry assigments:
 Orbital symmetries:
       Occupied  (A) (A) (A) (A) (A) (A) (A) (A) (A) (A) (A) (A)
                 (A) (A) (A) (A) (A) (A) (A) (A) (A) (A) (A) (A)
                 (A) (A) (A) (A) (A) (A) (A) (A) (A) (A) (A) (A)
                 (A) (A) (A) (A) (A) (A) (A) (A) (A) (A) (A) (A)
                 (A) (A) (A) (A) (A) (A) (A) (A) (A) (A) (A) (A)
                 (A) (A) (A) (A) (A) (A) (A) (A) (A) (A) (A) (A)
                 (A) (A) (A) (A) (A) (A) (A) (A) (A) (A) (A) (A)
                 (A) (A) (A) (A) (A) (A) (A) (A) (A) (A) (A) (A)
                 (A) (A) (A) (A) (A) (A) (A) (A) (A) (A) (A) (A)
                 (A) (A) (A) (A) (A) (A) (A) (A) (A) (A) (A) (A)
                 (A) (A) (A) (A) (A) (A) (A) (A) (A) (A) (A) (A)
                 (A) (A) (A) (A) (A) (A) (A) (A) (A) (A) (A) (A)
                 (A) (A) (A) (A) (A) (A) (A) (A) (A) (A) (A) (A)
                 (A) (A) (A) (A) (A) (A) (A) (A) (A) (A) (A) (A)
                 (A) (A) (A) (A) (A) (A) (A) (A) (A) (A) (A) (A)
                 (A) (A) (A) (A) (A) (A) (A) (A) (A) (A) (A) (A)
                 (A) (A) (A) (A) (A) (A) (A) (A) (A) (A) (A) (A)
                 (A) (A) (A) (A) (A) (A) (A) (A) (A) (A) (A) (A)
                 (A) (A) (A) (A) (A) (A) (A) (A) (A) (A) (A) (A)
                 (A) (A) (A) (A) (A) (A) (A) (A) (A) (A) (A) (A)
                 (A) (A) (A) (A) (A) (A) (A) (A) (A) (A) (A) (A)
                 (A) (A) (A) (A) (A) (A) (A) (A) (A) (A) (A) (A)
                 (A) (A) (A) (A) (A) (A) (A) (A) (A) (A) (A) (A)
                 (A) (A) (A) (A) (A) (A) (A) (A) (A) (A) (A) (A)
                 (A) (A) (A) (A) (A) (A) (A) (A) (A) (A) (A) (A)
                 (A) (A) (A) (A) (A) (A) (A) (A) (A) (A) (A) (A)
       Virtual   (A) (A) (A) (A) (A) (A) (A) (A) (A) (A) (A) (A)
                 (A) (A) (A) (A) (A) (A) (A) (A) (A) (A) (A) (A)
                 (A) (A) (A) (A) (A) (A) (A) (A) (A) (A) (A) (A)
                 (A) (A) (A) (A) (A) (A) (A) (A) (A) (A) (A) (A)
                 (A) (A) (A) (A) (A) (A) (A) (A) (A) (A) (A) (A)
                 (A) (A) (A) (A) (A) (A) (A) (A) (A) (A) (A) (A)
                 (A) (A) (A) (A) (A) (A) (A) (A) (A) (A) (A) (A)
                 (A) (A) (A) (A) (A) (A) (A) (A) (A) (A) (A) (A)
                 (A) (A) (A) (A) (A) (A) (A) (A) (A) (A) (A) (A)
                 (A) (A) (A) (A) (A) (A) (A) (A) (A) (A) (A) (A)
                 (A) (A) (A) (A) (A) (A) (A) (A) (A) (A) (A) (A)
                 (A) (A) (A) (A) (A) (A) (A) (A) (A) (A) (A) (A)
                 (A) (A) (A) (A) (A) (A) (A) (A) (A) (A) (A) (A)
                 (A) (A) (A) (A) (A) (A) (A) (A) (A) (A) (A) (A)
                 (A) (A) (A) (A) (A) (A) (A) (A) (A) (A) (A) (A)
                 (A) (A) (A) (A) (A) (A) (A) (A) (A) (A) (A) (A)
                 (A) (A) (A) (A) (A) (A) (A) (A) (A) (A) (A) (A)
                 (A) (A) (A) (A) (A) (A) (A) (A) (A) (A) (A) (A)
                 (A) (A) (A) (A) (A) (A) (A) (A) (A) (A) (A) (A)
                 (A) (A) (A) (A) (A) (A) (A) (A) (A) (A) (A) (A)
                 (A) (A) (A) (A) (A) (A) (A) (A) (A) (A) (A) (A)
                 (A) (A) (A) (A) (A) (A) (A) (A) (A) (A) (A) (A)
                 (A) (A) (A) (A) (A) (A) (A) (A) (A) (A) (A) (A)
                 (A) (A) (A) (A) (A) (A) (A) (A) (A) (A) (A) (A)
                 (A) (A) (A) (A) (A) (A) (A) (A) (A) (A) (A) (A)
                 (A) (A) (A) (A) (A) (A) (A) (A) (A) (A) (A) (A)
                 (A) (A) (A) (A) (A) (A) (A) (A) (A) (A) (A) (A)
                 (A) (A) (A) (A) (A) (A) (A) (A) (A) (A) (A) (A)
                 (A) (A) (A) (A) (A) (A) (A) (A) (A) (A) (A) (A)
                 (A) (A) (A) (A) (A) (A) (A) (A) (A) (A) (A) (A)
                 (A) (A) (A) (A) (A) (A) (A) (A) (A) (A) (A) (A)
                 (A) (A) (A) (A) (A) (A) (A) (A) (A) (A) (A) (A)
                 (A) (A) (A) (A) (A) (A) (A) (A) (A) (A) (A) (A)
                 (A) (A) (A) (A) (A) (A) (A) (A) (A) (A) (A) (A)
                 (A) (A) (A) (A) (A) (A) (A) (A) (A) (A) (A) (A)
                 (A) (A) (A) (A) (A) (A) (A) (A) (A) (A) (A) (A)
                 (A) (A) (A) (A) (A) (A) (A) (A) (A) (A) (A) (A)
                 (A) (A) (A) (A) (A) (A) (A) (A) (A) (A) (A) (A)
                 (A) (A) (A) (A) (A) (A) (A) (A) (A) (A) (A) (A)
                 (A) (A) (A) (A) (A) (A) (A) (A) (A) (A) (A) (A)
                 (A) (A) (A) (A) (A) (A) (A) (A) (A) (A) (A) (A)
                 (A) (A) (A) (A) (A) (A) (A) (A) (A) (A) (A) (A)
                 (A) (A) (A) (A) (A) (A) (A) (A) (A) (A) (A) (A)
                 (A) (A) (A) (A) (A) (A) (A) (A) (A) (A) (A) (A)
                 (A) (A) (A) (A) (A) (A) (A) (A) (A) (A) (A) (A)
                 (A) (A) (A) (A) (A) (A) (A) (A) (A) (A) (A) (A)
                 (A) (A) (A) (A) (A) (A) (A) (A) (A) (A) (A) (A)
                 (A) (A) (A) (A) (A) (A) (A) (A) (A) (A) (A) (A)
                 (A) (A) (A) (A) (A) (A) (A) (A) (A) (A) (A) (A)
                 (A) (A) (A) (A) (A) (A) (A) (A) (A) (A) (A) (A)
                 (A) (A) (A) (A) (A) (A) (A) (A) (A) (A) (A) (A)
                 (A) (A) (A) (A) (A) (A) (A) (A) (A) (A) (A) (A)
                 (A) (A) (A) (A) (A) (A) (A) (A) (A) (A) (A) (A)
                 (A) (A) (A) (A) (A) (A) (A) (A) (A) (A) (A) (A)
                 (A) (A) (A) (A) (A) (A) (A) (A) (A) (A) (A) (A)
                 (A) (A) (A) (A) (A) (A) (A) (A) (A) (A) (A) (A)
                 (A) (A) (A) (A) (A) (A) (A) (A) (A) (A) (A) (A)
                 (A) (A) (A) (A) (A) (A) (A) (A) (A) (A) (A) (A)
                 (A) (A) (A) (A) (A) (A) (A) (A) (A) (A) (A) (A)
                 (A) (A) (A) (A) (A) (A) (A) (A) (A) (A) (A) (A)
                 (A) (A) (A) (A) (A) (A) (A) (A) (A) (A) (A) (A)
                 (A) (A) (A) (A) (A) (A) (A) (A) (A) (A) (A) (A)
                 (A) (A) (A) (A) (A) (A) (A) (A) (A) (A) (A) (A)
                 (A) (A) (A) (A) (A) (A) (A) (A) (A) (A) (A) (A)
                 (A) (A) (A) (A) (A) (A) (A) (A) (A) (A) (A) (A)
                 (A) (A) (A) (A) (A) (A) (A) (A) (A) (A) (A) (A)
                 (A) (A) (A) (A) (A) (A) (A) (A) (A) (A) (A) (A)
                 (A) (A) (A) (A) (A) (A) (A) (A) (A) (A) (A) (A)
                 (A) (A) (A) (A) (A) (A) (A) (A) (A) (A) (A) (A)
                 (A) (A) (A) (A) (A) (A) (A) (A) (A) (A) (A) (A)
                 (A) (A) (A) (A) (A) (A) (A) (A) (A) (A) (A) (A)
                 (A) (A) (A) (A) (A) (A) (A) (A) (A) (A) (A) (A)
                 (A) (A) (A) (A) (A) (A) (A) (A) (A) (A) (A) (A)
                 (A) (A) (A) (A) (A) (A) (A) (A) (A) (A) (A) (A)
                 (A) (A) (A) (A) (A) (A) (A) (A) (A) (A) (A) (A)
                 (A) (A) (A) (A) (A) (A) (A) (A) (A) (A) (A) (A)
                 (A) (A) (A) (A) (A) (A) (A) (A) (A) (A) (A) (A)
                 (A) (A) (A) (A) (A) (A) (A) (A) (A) (A) (A) (A)
                 (A) (A) (A) (A) (A) (A) (A) (A) (A) (A) (A) (A)
                 (A) (A) (A) (A) (A) (A) (A) (A) (A) (A) (A) (A)
                 (A) (A) (A) (A) (A) (A) (A) (A) (A) (A) (A) (A)
                 (A) (A) (A) (A) (A) (A) (A) (A) (A) (A) (A) (A)
                 (A) (A) (A) (A) (A) (A) (A) (A) (A) (A) (A) (A)
                 (A) (A) (A) (A) (A) (A) (A) (A) (A) (A) (A) (A)
                 (A) (A) (A) (A) (A) (A) (A) (A) (A) (A) (A) (A)
                 (A) (A) (A) (A) (A) (A) (A) (A) (A) (A) (A) (A)
                 (A) (A) (A) (A) (A) (A) (A) (A) (A) (A) (A) (A)
                 (A) (A) (A) (A) (A) (A) (A) (A) (A) (A) (A) (A)
                 (A) (A) (A) (A) (A) (A) (A) (A) (A) (A) (A) (A)
                 (A) (A) (A) (A) (A) (A) (A) (A) (A) (A) (A) (A)
                 (A) (A) (A) (A) (A) (A) (A) (A) (A) (A) (A) (A)
                 (A) (A) (A) (A) (A) (A) (A) (A) (A) (A) (A) (A)
                 (A) (A) (A) (A) (A) (A) (A) (A) (A) (A) (A) (A)
                 (A) (A) (A) (A) (A) (A) (A) (A) (A) (A) (A) (A)
                 (A) (A) (A) (A) (A) (A) (A) (A) (A) (A) (A) (A)
                 (A) (A) (A) (A) (A) (A) (A) (A) (A) (A) (A) (A)
                 (A) (A) (A) (A) (A) (A) (A) (A) (A) (A) (A) (A)
                 (A) (A) (A) (A) (A) (A) (A) (A) (A) (A) (A) (A)
                 (A) (A) (A) (A) (A) (A) (A) (A) (A) (A) (A) (A)
                 (A) (A) (A) (A) (A) (A) (A) (A) (A) (A) (A) (A)
                 (A) (A) (A) (A) (A) (A) (A) (A) (A) (A) (A) (A)
                 (A) (A) (A) (A) (A) (A) (A) (A) (A) (A) (A) (A)
                 (A) (A) (A) (A) (A) (A) (A) (A) (A) (A) (A) (A)
                 (A) (A) (A) (A) (A) (A) (A) (A) (A) (A) (A) (A)
                 (A) (A) (A) (A) (A) (A) (A) (A) (A) (A) (A) (A)
    20 initial guesses have been made.
 Convergence on wavefunction:    0.001000000000000
 Davidson Disk Diagonalization:  ConvIn= 1.00D-03 SkipCon=T Conv= 1.00D-03.
 Max sub-space:  2000 roots to seek:    20 dimension of matrix:       549360
 Iteration     1 Dimension    20 NMult     0 NNew     20
 CISAX will form    20 AO SS matrices at one time.
 NMat=    20 NSing=    20 JSym2X= 0.
 FoFJK:  IHMeth= 1 ICntrl=       0 DoSepK=T KAlg= 0 I1Cent=           0 FoldK=F
 IRaf=         1 NMat=      40 IRICut=       1 DoRegI=T DoRafI=F ISym2E= 0 IDoP0=3 IntGTp=3.
 FoFCou: FMM=T IPFlag=           0 FMFlag=      100000 FMFlg1=        2001
         NFxFlg=           0 DoJE=F BraDBF=F KetDBF=F FulRan=T
         wScrn=  0.000000 ICntrl=       500 IOpCl=  0 I1Cent=           0 NGrid=           0
         NMat0=   20 NMatS0=     20 NMatT0=    0 NMatD0=   20 NMtDS0=    0 NMtDT0=    0
 Symmetry not used in FoFCou.
 FMM levels:  10  Number of levels for PrismC:   9
 New state      1 was old state      7
 New state      2 was old state      6
 New state      3 was old state      2
 New state      4 was old state      3
 New state      5 was old state      1
 Excitation Energies [eV] at current iteration:
 Root      1 :     2.613747743636458
 Root      2 :     2.619765741491004
 Root      3 :     2.668768092609320
 Root      4 :     2.702585085008439
 Root      5 :     2.776660704836872
 Root      6 :     2.803921148952098
 Root      7 :     3.565214996011813
 Root      8 :     3.604880518435392
 Root      9 :     3.624400765732466
 Root     10 :     3.666727166155011
 Root     11 :     3.738016703251524
 Root     12 :     3.760274910166754
 Root     13 :     4.291157203562264
 Root     14 :     4.317092386682666
 Root     15 :     4.684697823527380
 Root     16 :     4.746188485016957
 Root     17 :     4.927360434791716
 Root     18 :     5.026576938864669
 Root     19 :     5.066445692766870
 Root     20 :     5.067407956210794
 Iteration     2 Dimension    30 NMult    20 NNew     10
 CISAX will form    10 AO SS matrices at one time.
 NMat=    10 NSing=    10 JSym2X= 0.
 New state      1 was old state      3
 Root      1 not converged, maximum delta is    0.153432393208428
 New state      2 was old state      4
 Root      2 not converged, maximum delta is    0.157194937479673
 New state      3 was old state      2
 Root      3 not converged, maximum delta is    0.427754360713388
 New state      4 was old state      1
 Root      4 not converged, maximum delta is    0.421555594845156
 Root      5 not converged, maximum delta is    0.004243000211354
 Excitation Energies [eV] at current iteration:
 Root      1 :     1.795636118008017   Change is   -0.873131974601303
 Root      2 :     1.812965050628048   Change is   -0.889620034380392
 Root      3 :     2.234943047481171   Change is   -0.384822694009832
 Root      4 :     2.239887915483298   Change is   -0.373859828153160
 Root      5 :     2.776403151908458   Change is   -0.000257552928415
 Iteration     3 Dimension    40 NMult    30 NNew     10
 CISAX will form    10 AO SS matrices at one time.
 NMat=    10 NSing=    10 JSym2X= 0.
 Root      1 not converged, maximum delta is    0.055172046009061
 Root      2 not converged, maximum delta is    0.056075047406636
 Root      3 not converged, maximum delta is    0.097033540682156
 Root      4 not converged, maximum delta is    0.096594312054077
 Root      5 has converged.
 Excitation Energies [eV] at current iteration:
 Root      1 :     1.688710311650323   Change is   -0.106925806357694
 Root      2 :     1.704327247969173   Change is   -0.108637802658875
 Root      3 :     2.193889429635946   Change is   -0.041053617845225
 Root      4 :     2.200442542994747   Change is   -0.039445372488551
 Root      5 :     2.776402372816400   Change is   -0.000000779092058
 Iteration     4 Dimension    48 NMult    40 NNew      8
 CISAX will form     8 AO SS matrices at one time.
 NMat=     8 NSing=     8 JSym2X= 0.
 Root      1 not converged, maximum delta is    0.010751144770961
 Root      2 not converged, maximum delta is    0.010721488701405
 Root      3 not converged, maximum delta is    0.013483080197587
 Root      4 not converged, maximum delta is    0.013356037695026
 Root      5 has converged.
 Excitation Energies [eV] at current iteration:
 Root      1 :     1.671972052833014   Change is   -0.016738258817308
 Root      2 :     1.687475619857417   Change is   -0.016851628111757
 Root      3 :     2.186620489109238   Change is   -0.007268940526708
 Root      4 :     2.193600574011415   Change is   -0.006841968983332
 Root      5 :     2.776402372816370   Change is   -0.000000000000029
 Iteration     5 Dimension    56 NMult    48 NNew      8
 CISAX will form     8 AO SS matrices at one time.
 NMat=     8 NSing=     8 JSym2X= 0.
 Root      1 not converged, maximum delta is    0.001748124076855
 Root      2 not converged, maximum delta is    0.001763343364536
 Root      3 not converged, maximum delta is    0.002409465151532
 Root      4 not converged, maximum delta is    0.002310917914262
 Root      5 has converged.
 Excitation Energies [eV] at current iteration:
 Root      1 :     1.670212357880037   Change is   -0.001759694952977
 Root      2 :     1.685683941169955   Change is   -0.001791678687462
 Root      3 :     2.185779223671943   Change is   -0.000841265437295
 Root      4 :     2.192817585754242   Change is   -0.000782988257173
 Root      5 :     2.776402372816370   Change is    0.000000000000000
 Iteration     6 Dimension    64 NMult    56 NNew      8
 CISAX will form     8 AO SS matrices at one time.
 NMat=     8 NSing=     8 JSym2X= 0.
 Root      1 not converged, maximum delta is    0.001094928357838
 Root      2 not converged, maximum delta is    0.001112368290069
 Root      3 not converged, maximum delta is    0.001027196907379
 Root      4 has converged.
 Root      5 has converged.
 Excitation Energies [eV] at current iteration:
 Root      1 :     1.669961713826371   Change is   -0.000250644053666
 Root      2 :     1.685426604851615   Change is   -0.000257336318340
 Root      3 :     2.185651536456682   Change is   -0.000127687215261
 Root      4 :     2.192698394510962   Change is   -0.000119191243280
 Root      5 :     2.776402372816370   Change is    0.000000000000000
 Iteration     7 Dimension    70 NMult    64 NNew      6
 CISAX will form     6 AO SS matrices at one time.
 NMat=     6 NSing=     6 JSym2X= 0.
 Root      1 has converged.
 Root      2 has converged.
 Root      3 has converged.
 Root      4 has converged.
 Root      5 has converged.
 Excitation Energies [eV] at current iteration:
 Root      1 :     1.669937323536018   Change is   -0.000024390290353
[...]
 Alpha virt. eigenvalues --    1.83555   1.83826   1.83920   1.84088   1.84229
 Alpha virt. eigenvalues --    1.84521   1.84558   1.84818   1.84875   1.85153
 Alpha virt. eigenvalues --    1.85172   1.85343   1.85367   1.85519   1.85535
 Alpha virt. eigenvalues --    1.85935   1.85936   1.86411   1.86423   1.86619
 Alpha virt. eigenvalues --    1.86681   1.86851   1.86851   1.87080   1.87117
 Alpha virt. eigenvalues --    1.87514   1.87517   1.87758   1.87807   1.87934
 Alpha virt. eigenvalues --    1.88044   1.88106   1.88209   1.88600   1.88600
 Alpha virt. eigenvalues --    1.88889   1.88966   1.89103   1.89191   1.89686
 Alpha virt. eigenvalues --    1.89687   1.89809   1.89908   1.90187   1.90222
 Alpha virt. eigenvalues --    1.90826   1.90929   1.91418   1.91454   1.91510
 Alpha virt. eigenvalues --    1.91622   1.92217   1.92225   1.92687   1.92694
 Alpha virt. eigenvalues --    1.93050   1.93183   1.93402   1.93532   1.94337
 Alpha virt. eigenvalues --    1.94349   1.94752   1.94845   1.95537   1.95619
 Alpha virt. eigenvalues --    1.95800   1.95846   1.96070   1.96074   1.96211
 Alpha virt. eigenvalues --    1.96216   1.96515   1.96665   1.96961   1.96963
 Alpha virt. eigenvalues --    1.97520   1.97574   1.97838   1.97904   1.98200
 Alpha virt. eigenvalues --    1.98241   1.98387   1.98763   1.99101   1.99209
 Alpha virt. eigenvalues --    1.99893   1.99959   2.00727   2.00759   2.01071
 Alpha virt. eigenvalues --    2.01131   2.01535   2.01555   2.01639   2.01740
 Alpha virt. eigenvalues --    2.01797   2.01855   2.02741   2.02854   2.03167
 Alpha virt. eigenvalues --    2.03300   2.03411   2.03479   2.03558   2.03562
 Alpha virt. eigenvalues --    2.04058   2.04107   2.05005   2.05023   2.05579
 Alpha virt. eigenvalues --    2.05657   2.06147   2.06317   2.06987   2.07074
 Alpha virt. eigenvalues --    2.07260   2.07389   2.08573   2.08644   2.09036
 Alpha virt. eigenvalues --    2.09049   2.09644   2.09661   2.10839   2.11060
 Alpha virt. eigenvalues --    2.11254   2.11440   2.11559   2.11608   2.11793
 Alpha virt. eigenvalues --    2.11891   2.12491   2.12534   2.12828   2.12869
 Alpha virt. eigenvalues --    2.12902   2.12904   2.13653   2.13835   2.14201
 Alpha virt. eigenvalues --    2.14281   2.15403   2.15433   2.15998   2.16113
 Alpha virt. eigenvalues --    2.16587   2.16619   2.16831   2.17219   2.17484
 Alpha virt. eigenvalues --    2.17675   2.17771   2.17962   2.18033   2.18138
 Alpha virt. eigenvalues --    2.18403   2.18707   2.18943   2.19269   2.19711
 Alpha virt. eigenvalues --    2.19849   2.20105   2.20279   2.20289   2.20462
 Alpha virt. eigenvalues --    2.21195   2.21210   2.21738   2.21800   2.21826
 Alpha virt. eigenvalues --    2.21912   2.22727   2.22745   2.23376   2.23384
 Alpha virt. eigenvalues --    2.24447   2.24459   2.25017   2.25026   2.26374
 Alpha virt. eigenvalues --    2.26472   2.26845   2.27036   2.27178   2.27236
 Alpha virt. eigenvalues --    2.28203   2.28337   2.29332   2.29461   2.29805
 Alpha virt. eigenvalues --    2.29910   2.30523   2.30651   2.30854   2.31151
 Alpha virt. eigenvalues --    2.31229   2.31268   2.32182   2.32263   2.33204
 Alpha virt. eigenvalues --    2.33259   2.33511   2.33530   2.34163   2.34203
 Alpha virt. eigenvalues --    2.35336   2.35454   2.35862   2.35932   2.36360
 Alpha virt. eigenvalues --    2.36413   2.36471   2.36690   2.37705   2.37724
 Alpha virt. eigenvalues --    2.38315   2.38400   2.38799   2.38922   2.39676
 Alpha virt. eigenvalues --    2.39695   2.40245   2.40288   2.40553   2.40849
 Alpha virt. eigenvalues --    2.41231   2.41335   2.41716   2.41747   2.42119
 Alpha virt. eigenvalues --    2.42163   2.42839   2.42999   2.43105   2.43632
 Alpha virt. eigenvalues --    2.43994   2.44242   2.44796   2.44828   2.44969
 Alpha virt. eigenvalues --    2.45015   2.45598   2.45615   2.46305   2.46362
 Alpha virt. eigenvalues --    2.46526   2.46548   2.46831   2.46870   2.47325
 Alpha virt. eigenvalues --    2.47408   2.47778   2.47906   2.49367   2.49406
 Alpha virt. eigenvalues --    2.49909   2.50125   2.50468   2.50605   2.51190
 Alpha virt. eigenvalues --    2.51292   2.51627   2.51951   2.52409   2.52507
 Alpha virt. eigenvalues --    2.52873   2.53178   2.53980   2.53982   2.54204
 Alpha virt. eigenvalues --    2.54293   2.54834   2.54856   2.55581   2.55687
 Alpha virt. eigenvalues --    2.57924   2.58091   2.58704   2.58915   2.60281
 Alpha virt. eigenvalues --    2.60323   2.60674   2.60931   2.61769   2.61832
 Alpha virt. eigenvalues --    2.62442   2.62595   2.63023   2.63144   2.63997
 Alpha virt. eigenvalues --    2.64228   2.64300   2.64433   2.65110   2.65142
 Alpha virt. eigenvalues --    2.65848   2.65867   2.66828   2.66836   2.66968
 Alpha virt. eigenvalues --    2.67063   2.67970   2.67990   2.68826   2.68919
 Alpha virt. eigenvalues --    2.69048   2.69095   2.69449   2.69601   2.70061
 Alpha virt. eigenvalues --    2.70148   2.71047   2.71076   2.71906   2.72126
 Alpha virt. eigenvalues --    2.72512   2.72727   2.72749   2.72920   2.73292
 Alpha virt. eigenvalues --    2.73331   2.73491   2.73631   2.74524   2.74581
 Alpha virt. eigenvalues --    2.75044   2.75067   2.76529   2.76653   2.77088
 Alpha virt. eigenvalues --    2.77306   2.77515   2.77606   2.78243   2.78293
 Alpha virt. eigenvalues --    2.78697   2.78801   2.79161   2.79198   2.80261
 Alpha virt. eigenvalues --    2.80407   2.80668   2.80702   2.81170   2.81193
 Alpha virt. eigenvalues --    2.82001   2.82009   2.82344   2.82405   2.83815
 Alpha virt. eigenvalues --    2.83839   2.83847   2.83930   2.84537   2.84611
 Alpha virt. eigenvalues --    2.84892   2.84943   2.85690   2.85723   2.86666
 Alpha virt. eigenvalues --    2.87066   2.87187   2.87695   2.88210   2.88234
 Alpha virt. eigenvalues --    2.88576   2.88630   2.88881   2.89000   2.90558
 Alpha virt. eigenvalues --    2.90656   2.91070   2.91247   2.93218   2.93322
 Alpha virt. eigenvalues --    2.93770   2.94261   2.94567   2.94611   2.95427
 Alpha virt. eigenvalues --    2.95463   2.95854   2.96289   2.96370   2.96505
 Alpha virt. eigenvalues --    2.96882   2.97260   2.97887   2.98022   2.98265
 Alpha virt. eigenvalues --    2.98359   2.98435   2.98572   2.98675   2.98805
 Alpha virt. eigenvalues --    2.98934   2.98944   2.99637   2.99790   3.00027
 Alpha virt. eigenvalues --    3.00103   3.00290   3.00329   3.00529   3.00987
 Alpha virt. eigenvalues --    3.01895   3.02046   3.02091   3.02109   3.02818
 Alpha virt. eigenvalues --    3.02822   3.03046   3.03303   3.03381   3.03703
 Alpha virt. eigenvalues --    3.04049   3.04228   3.04425   3.04526   3.04607
 Alpha virt. eigenvalues --    3.04753   3.05345   3.05349   3.06158   3.06171
 Alpha virt. eigenvalues --    3.06865   3.06929   3.07910   3.08196   3.09349
 Alpha virt. eigenvalues --    3.09461   3.09750   3.10418   3.10502   3.10732
 Alpha virt. eigenvalues --    3.11384   3.11470   3.11890   3.12011   3.12228
 Alpha virt. eigenvalues --    3.12297   3.13348   3.13645   3.13685   3.13697
 Alpha virt. eigenvalues --    3.14185   3.14490   3.15974   3.15978   3.17336
 Alpha virt. eigenvalues --    3.17533   3.17869   3.18132   3.19031   3.19187
 Alpha virt. eigenvalues --    3.22404   3.22612   3.24018   3.24453   3.24762
 Alpha virt. eigenvalues --    3.25216   3.26574   3.26663   3.27399   3.27690
 Alpha virt. eigenvalues --    3.29204   3.29240   3.31384   3.31595   3.33186
 Alpha virt. eigenvalues --    3.33484   3.40278   3.40740   3.42811   3.42875
 Alpha virt. eigenvalues --    3.48715   3.48739   3.50088   3.50282   3.50836
 Alpha virt. eigenvalues --    3.51541   3.56617   3.57008   3.59164   3.59340
 Alpha virt. eigenvalues --    3.62526   3.62913   3.66104   3.66241   3.67291
 Alpha virt. eigenvalues --    3.67560   3.73375   3.74047   3.76156   3.76709
          Condensed to atoms (all electrons):
 Mulliken charges:
               1
     1  Mg   0.838773
     2  C   -0.002818
     3  C   -0.094240
     4  C   -0.045934
     5  C   -0.063977
     6  N   -0.256764
     7  C   -0.052432
     8  C   -0.013988
     9  C   -0.086971
    10  C    0.046265
    11  C    0.104842
    12  C    0.053517
    13  C   -0.071733
    14  H    0.036204
    15  N   -0.433099
    16  C    0.168313
    17  C   -0.177325
    18  C   -0.004152
    19  C    0.148633
    20  C    0.110241
    21  C    0.012170
    22  O   -0.249761
    23  C    0.062540
    24  N   -0.341119
    25  C    0.041150
    26  C   -0.028115
    27  C   -0.023989
    28  C    0.074849
    29  C    0.076203
    30  C    0.035144
    31  C   -0.004472
    32  N   -0.310578
    33  C    0.080556
    34  C   -0.169470
    35  C    0.008569
    36  C    0.083156
    37  C    0.127215
    38  C    0.046463
    39  O   -0.187856
    40  C   -0.005478
    41  C    0.212927
    42  O   -0.256558
    43  O   -0.304980
    44  C    0.157471
    45  H   -0.017769
    46  H   -0.016982
    47  H   -0.041420
    48  H    0.001015
    49  H   -0.004228
    50  H    0.025520
    51  H    0.016407
    52  H    0.016521
    53  H    0.010958
    54  H    0.044464
    55  H    0.017881
    56  H    0.017617
    57  H    0.005755
    58  H    0.026703
    59  H    0.039185
    60  H    0.037313
    61  H    0.035487
    62  H    0.031271
    63  H    0.016401
    64  H    0.009483
    65  H    0.023095
    66  H    0.012540
    67  H    0.004734
    68  H    0.006236
    69  H    0.004841
    70  H    0.008586
    71  H    0.018017
    72  H    0.029146
    73  H    0.048112
    74  H    0.009095
    75  H    0.045996
    76  H    0.035092
    77  H    0.043077
    78  H    0.046063
    79  H    0.054394
    80  Mg   0.837727
    81  C   -0.016727
    82  C   -0.087900
    83  C   -0.045578
    84  C   -0.064798
    85  N   -0.254507
    86  C   -0.049769
    87  C   -0.015071
    88  C   -0.090518
    89  C    0.045701
    90  C    0.114391
    91  C    0.062566
    92  C   -0.077742
    93  H    0.034785
    94  N   -0.423437
    95  C    0.162778
    96  C   -0.174855
    97  C   -0.007961
    98  C    0.151998
    99  C    0.099467
   100  C    0.015413
   101  O   -0.253364
   102  C    0.061265
   103  N   -0.350016
   104  C    0.037443
   105  C   -0.019785
   106  C   -0.034847
   107  C    0.089017
   108  C    0.073685
   109  C    0.034738
   110  C   -0.007652
   111  N   -0.324227
   112  C    0.078548
   113  C   -0.162899
   114  C    0.002684
   115  C    0.096153
   116  C    0.131473
   117  C    0.042880
   118  O   -0.186780
   119  C    0.000711
   120  C    0.211317
   121  O   -0.251214
   122  O   -0.305459
   123  C    0.152052
   124  H   -0.020032
   125  H   -0.015750
   126  H   -0.040310
   127  H   -0.000484
   128  H   -0.004611
   129  H    0.022859
   130  H    0.014351
   131  H    0.015745
   132  H    0.013811
   133  H    0.037754
   134  H    0.020711
   135  H    0.019347
   136  H    0.008522
   137  H    0.025824
   138  H    0.039556
   139  H    0.038091
   140  H    0.036187
   141  H    0.033814
   142  H    0.014242
   143  H    0.012527
   144  H    0.024945
   145  H    0.011635
   146  H    0.005726
   147  H    0.006119
   148  H    0.003717
   149  H    0.010825
   150  H    0.017864
   151  H    0.030168
   152  H    0.046225
   153  H    0.008263
   154  H    0.048110
   155  H    0.035757
   156  H    0.044158
   157  H    0.049148
   158  H    0.053501
 Sum of Mulliken charges =  -0.00000
 Mulliken charges with hydrogens summed into heavy atoms:
               1
     1  Mg   0.838773
     2  C   -0.002818
     3  C   -0.112009
     4  C   -0.062915
     5  C   -0.105396
     6  N   -0.256764
     7  C   -0.052432
     8  C   -0.012972
     9  C   -0.091199
    10  C    0.046265
    11  C    0.163290
    12  C    0.108939
    13  C   -0.000030
    15  N   -0.433099
    16  C    0.168313
    17  C   -0.177325
    18  C   -0.004152
    19  C    0.148633
    20  C    0.181885
    21  C    0.012170
    22  O   -0.249761
    23  C    0.166612
    24  N   -0.341119
    25  C    0.041150
    26  C   -0.011714
    27  C   -0.014507
    28  C    0.074849
    29  C    0.116572
    30  C    0.046222
    31  C    0.051277
    32  N   -0.310578
    33  C    0.080556
    34  C   -0.169470
    35  C    0.008569
    36  C    0.083156
    37  C    0.230418
    38  C    0.046463
    39  O   -0.187856
    40  C    0.029614
    41  C    0.212927
    42  O   -0.256558
    43  O   -0.304980
    44  C    0.301004
    80  Mg   0.837727
    81  C   -0.016727
    82  C   -0.107932
    83  C   -0.061329
    84  C   -0.105108
    85  N   -0.254507
    86  C   -0.049769
    87  C   -0.015555
    88  C   -0.095129
    89  C    0.045701
    90  C    0.167346
    91  C    0.114131
    92  C   -0.002899
    94  N   -0.423437
    95  C    0.162778
    96  C   -0.174855
    97  C   -0.007961
    98  C    0.151998
    99  C    0.173368
   100  C    0.015413
   101  O   -0.253364
   102  C    0.169357
   103  N   -0.350016
   104  C    0.037443
   105  C   -0.005543
   106  C   -0.022320
   107  C    0.089017
   108  C    0.115990
   109  C    0.044573
   110  C    0.051206
   111  N   -0.324227
   112  C    0.078548
   113  C   -0.162899
   114  C    0.002684
   115  C    0.096153
   116  C    0.234072
   117  C    0.042880
   118  O   -0.186780
   119  C    0.036468
   120  C    0.211317
   121  O   -0.251214
   122  O   -0.305459
   123  C    0.298860
 Electronic spatial extent (au):  <R**2>=         189062.5966
 Charge=             -0.0000 electrons
 Dipole moment (field-independent basis, Debye):
    X=              1.7827    Y=             -1.8869    Z=              8.2313  Tot=              8.6309
 Quadrupole moment (field-independent basis, Debye-Ang):
   XX=           -487.9863   YY=           -538.3808   ZZ=           -459.6821
   XY=            -11.3006   XZ=             -5.9073   YZ=             56.0760
 Traceless Quadrupole moment (field-independent basis, Debye-Ang):
   XX=              7.3634   YY=            -43.0311   ZZ=             35.6677
   XY=            -11.3006   XZ=             -5.9073   YZ=             56.0760
 Octapole moment (field-independent basis, Debye-Ang**2):
  XXX=            340.9550  YYY=            457.2963  ZZZ=            121.9690  XYY=             15.1150
  XXY=            104.7881  XXZ=            624.8767  XZZ=              0.4971  YZZ=           -213.8006
  YYZ=            111.8132  XYZ=             50.8064
 Hexadecapole moment (field-independent basis, Debye-Ang**3):
 XXXX=        -193219.9019 YYYY=         -39742.6187 ZZZZ=         -22421.3659 XXXY=          -1852.1756
 XXXZ=          -1852.4455 YYYX=           -549.0036 YYYZ=           1390.3053 ZZZX=            294.1940
 ZZZY=           -109.5260 XXYY=         -41949.2778 XXZZ=         -32540.1700 YYZZ=         -10708.0436
 XXYZ=           2544.2334 YYXZ=            -18.0773 ZZXY=           -128.0669
 N-N= 1.380041838737D+04 E-N=-3.708203192599D+04  KE= 4.028802204078D+03
 Leave Link  601 at Sun Sep 12 05:01:24 2021, MaxMem= 23488102400 cpu:              18.0 elap:               0.9
 (Enter /sw/apps/gaussian-16.0/g16/l9999.exe)
 1\1\GINC-BP1-COMPUTE00099\SP\RCAM-B3LYP TD-FC\def2SVP\C68H72Mg2N8O8\OF
 15641\12-Sep-2021\0\\#p cam-b3lyp/Def2SVP td=(nstates=5)\\TDDFT excite
 d states in gaussian\\0,1\Mg,0,0.,0.,0.\C,0,-0.217,-2.218,2.801\C,0,-1
 .255,2.442,2.026\C,0,-0.245,1.85,-2.564\C,0,0.146,-2.824,-2.037\N,0,-0
 .617,-0.009,2.126\C,0,-0.594,-0.908,3.105\C,0,-0.936,-0.309,4.502\C,0,
 -1.773,0.964,4.032\C,0,-1.155,1.168,2.66\C,0,-3.263,0.685,3.863\C,0,0.
 345,0.11,5.299\C,0,0.124,0.397,6.787\H,0,1.168,0.033,7.733\N,0,-0.185,
 1.961,-0.152\C,0,-0.703,2.8,0.777\C,0,-0.62,4.156,0.193\C,0,-0.187,4.0
 15,-1.225\C,0,-0.214,2.583,-1.38\C,0,-0.887,5.406,0.974\C,0,0.181,5.01
 3,-2.277\O,0,0.303,4.69,-3.508\C,0,0.31,6.414,-1.837\N,0,-0.265,-0.413
 ,-2.029\C,0,-0.279,0.569,-2.937\C,0,-0.196,0.024,-4.332\C,0,0.124,-1.5
 33,-4.18\C,0,0.086,-1.632,-2.635\C,0,-1.451,0.205,-5.197\C,0,1.373,-2.
 07,-4.923\C,0,2.626,-1.49,-4.306\N,0,0.15,-2.144,0.303\C,0,0.173,-3.13
 6,-0.688\C,0,0.173,-4.438,0.004\C,0,0.133,-4.111,1.358\C,0,0.083,-2.69
 5,1.502\C,0,0.149,-5.715,-0.623\C,0,0.096,-4.629,2.716\O,0,0.208,-5.74
 7,3.221\C,0,-0.255,-3.428,3.701\C,0,0.717,-3.482,4.848\O,0,1.931,-3.25
 5,4.669\O,0,0.038,-3.556,6.003\C,0,0.943,-3.583,7.183\H,0,-1.859,3.22,
 2.497\H,0,-0.218,2.453,-3.474\H,0,0.276,-3.747,-2.605\H,0,-1.554,-0.94
 9,5.132\H,0,-1.585,1.831,4.665\H,0,-3.484,-0.377,3.969\H,0,-3.511,1.02
 7,2.858\H,0,-3.852,1.301,4.543\H,0,0.669,1.096,4.966\H,0,1.13,-0.639,5
 .189\H,0,-0.844,0.026,7.125\H,0,0.062,1.477,6.921\H,0,-1.344,5.186,1.9
 38\H,0,-1.651,5.963,0.432\H,0,0.007,6.02,1.084\H,0,-0.635,6.744,-1.405
 \H,0,0.665,6.97,-2.704\H,0,1.048,6.466,-1.036\H,0,0.608,0.501,-4.891\H
 ,0,-0.692,-2.156,-4.547\H,0,-1.267,0.74,-6.129\H,0,-2.204,0.714,-4.596
 \H,0,-1.967,-0.72,-5.453\H,0,1.356,-1.759,-5.967\H,0,1.452,-3.157,-4.9
 02\H,0,2.714,-0.522,-4.798\H,0,3.487,-2.121,-4.529\H,0,2.495,-1.303,-3
 .24\H,0,0.867,-6.333,-0.084\H,0,0.404,-5.642,-1.68\H,0,-0.891,-5.999,-
 0.463\H,0,-1.283,-3.581,4.028\H,0,0.698,-4.478,7.755\H,0,0.833,-2.619,
 7.68\H,0,2.,-3.754,6.976\Mg,0,15.77378,1.42044,1.20508\C,0,14.34985,-0
 .49863,3.88251\C,0,15.7332,4.10589,3.30777\C,0,16.6036,3.23753,-1.2600
 8\C,0,14.65674,-1.05563,-0.97827\N,0,15.10478,1.64867,3.30094\C,0,14.6
 3849,0.83573,4.23691\C,0,14.54778,1.46847,5.65147\C,0,14.45287,3.01206
 ,5.2188\C,0,15.17153,2.93343,3.87343\C,0,13.02868,3.48165,4.97281\C,0,
 15.82921,1.19131,6.51353\C,0,15.68406,1.51175,8.00283\H,0,16.3735,0.66
 038,8.96838\N,0,16.57048,3.23752,1.15967\C,0,16.4741,4.19222,2.10863\C
 ,0,17.21598,5.35171,1.58962\C,0,17.61867,5.06122,0.1867\C,0,16.91318,3
 .81539,-0.03747\C,0,17.54674,6.54948,2.43186\C,0,18.48391,5.79126,-0.7
 9545\O,0,18.50437,5.47763,-2.03804\C,0,19.23548,6.94366,-0.27717\N,0,1
 5.46653,1.24357,-0.8435\C,0,15.97781,2.14552,-1.69965\C,0,15.86562,1.6
 6694,-3.1275\C,0,15.38966,0.14305,-3.03371\C,0,15.21546,0.02607,-1.503
 55\C,0,14.89854,2.44806,-4.01688\C,0,16.26541,-0.91381,-3.76087\C,0,17
 .61021,-1.02673,-3.0796\N,0,14.86404,-0.52961,1.39932\C,0,14.45334,-1.
 38708,0.35521\C,0,13.78624,-2.54697,0.98134\C,0,13.83509,-2.27058,2.35
 601\C,0,14.46866,-1.0167,2.57017\C,0,13.19519,-3.64074,0.28819\C,0,13.
 48528,-2.74942,3.67398\O,0,13.0101,-3.79232,4.12152\C,0,13.69008,-1.56
 422,4.71308\C,0,14.45193,-2.10605,5.89144\O,0,15.62524,-2.49677,5.7599
 8\O,0,13.74972,-1.87273,7.0152\C,0,14.46972,-2.3823,8.2126\H,0,15.5552
 3,5.05909,3.80639\H,0,16.96761,3.77268,-2.14019\H,0,14.36828,-1.91677,
 -1.58482\H,0,13.6693,1.18687,6.21958\H,0,15.00125,3.6497,5.90732\H,0,1
 2.3225,2.66576,5.01496\H,0,13.03232,3.92834,3.98717\H,0,12.77184,4.286
 49,5.6675\H,0,16.60782,1.9152,6.24061\H,0,16.15793,0.17746,6.39241\H,0
 ,14.63601,1.65238,8.29396\H,0,16.14835,2.48189,8.1959\H,0,16.97776,6.5
 5124,3.36976\H,0,17.18303,7.43038,1.89186\H,0,18.61938,6.65921,2.60528
 \H,0,18.54133,7.66998,0.13887\H,0,19.86312,7.27942,-1.10493\H,0,19.869
 4,6.60465,0.54978\H,0,16.82709,1.70482,-3.62474\H,0,14.39255,-0.00031,
 -3.47537\H,0,15.3776,2.86238,-4.92403\H,0,14.45461,3.23857,-3.4265\H,0
 ,14.02504,1.89047,-4.35048\H,0,16.4635,-0.59923,-4.78847\H,0,15.80734,
 -1.89616,-3.80744\H,0,18.17873,-0.20072,-3.51731\H,0,18.07305,-1.98604
 ,-3.30218\H,0,17.5239,-0.83394,-2.00394\H,0,13.48985,-4.53879,0.81466\
 H,0,13.50953,-3.66813,-0.75306\H,0,12.13659,-3.38757,0.39087\H,0,12.70
 095,-1.20236,4.9964\H,0,13.78738,-3.06411,8.72955\H,0,14.8002,-1.484,8
 .76721\H,0,15.3259,-3.02559,8.04652\\Version=ES64L-G16RevA.03\State=1-
 A\HF=-4069.8115277\RMSD=4.896e-09\PG=C01 [X(C68H72Mg2N8O8)]\\@


 The hours that make us happy make us wise.
                         -- John Masefield
 Job cpu time:       0 days 11 hours 39 minutes 52.2 seconds.
 Elapsed time:       0 days  0 hours 29 minutes 46.7 seconds.
 File lengths (MBytes):  RWF=  13225 Int=      0 D2E=      0 Chk=    574 Scr=      1
 Normal termination of Gaussian 16 at Sun Sep 12 05:01:25 2021.
