 Entering Gaussian System, Link 0=g16
 Initial command:
 /sw/apps/gaussian-16.0/g16/l1.exe "/tmp/Gau-10445.inp" -scrdir="/tmp/"
 Entering Link 1 = /sw/apps/gaussian-16.0/g16/l1.exe PID=     10446.
  
 Copyright (c) 1988,1990,1992,1993,1995,1998,2003,2009,2016,
            Gaussian, Inc.  All Rights Reserved.
  
 This is part of the Gaussian(R) 16 program.  It is based on
 the Gaussian(R) 09 system (copyright 2009, Gaussian, Inc.),
 the Gaussian(R) 03 system (copyright 2003, Gaussian, Inc.),
 the Gaussian(R) 98 system (copyright 1998, Gaussian, Inc.),
 the Gaussian(R) 94 system (copyright 1995, Gaussian, Inc.),
 the Gaussian 92(TM) system (copyright 1992, Gaussian, Inc.),
 the Gaussian 90(TM) system (copyright 1990, Gaussian, Inc.),
 the Gaussian 88(TM) system (copyright 1988, Gaussian, Inc.),
 the Gaussian 86(TM) system (copyright 1986, Carnegie Mellon
 University), and the Gaussian 82(TM) system (copyright 1983,
 Carnegie Mellon University). Gaussian is a federally registered
 trademark of Gaussian, Inc.
  
 This software contains proprietary and confidential information,
 including trade secrets, belonging to Gaussian, Inc.
  
 This software is provided under written license and may be
 used, copied, transmitted, or stored only in accord with that
 written license.
  
 The following legend is applicable only to US Government
 contracts under FAR:
  
                    RESTRICTED RIGHTS LEGEND
  
 Use, reproduction and disclosure by the US Government is
 subject to restrictions as set forth in subparagraphs (a)
 and (c) of the Commercial Computer Software - Restricted
 Rights clause in FAR 52.227-19.
  
 Gaussian, Inc.
 340 Quinnipiac St., Bldg. 40, Wallingford CT 06492
  
  
 ---------------------------------------------------------------
 Warning -- This program may not be used in any manner that
 competes with the business of Gaussian, Inc. or will provide
 assistance to any competitor of Gaussian, Inc.  The licensee
 of this program is prohibited from giving any competitor of
 Gaussian, Inc. access to this program.  By using this program,
 the user acknowledges that Gaussian, Inc. is engaged in the
 business of creating and licensing software in the field of
 computational chemistry and represents and warrants to the
 licensee that it is not a competitor of Gaussian, Inc. and that
 it will not use this program in any manner prohibited above.
 ---------------------------------------------------------------
  

 Cite this work as:
 Gaussian 16, Revision A.03,
 M. J. Frisch, G. W. Trucks, H. B. Schlegel, G. E. Scuseria, 
 M. A. Robb, J. R. Cheeseman, G. Scalmani, V. Barone, 
 G. A. Petersson, H. Nakatsuji, X. Li, M. Caricato, A. V. Marenich, 
 J. Bloino, B. G. Janesko, R. Gomperts, B. Mennucci, H. P. Hratchian, 
 J. V. Ortiz, A. F. Izmaylov, J. L. Sonnenberg, D. Williams-Young, 
 F. Ding, F. Lipparini, F. Egidi, J. Goings, B. Peng, A. Petrone, 
 T. Henderson, D. Ranasinghe, V. G. Zakrzewski, J. Gao, N. Rega, 
 G. Zheng, W. Liang, M. Hada, M. Ehara, K. Toyota, R. Fukuda, 
 J. Hasegawa, M. Ishida, T. Nakajima, Y. Honda, O. Kitao, H. Nakai, 
 T. Vreven, K. Throssell, J. A. Montgomery, Jr., J. E. Peralta, 
 F. Ogliaro, M. J. Bearpark, J. J. Heyd, E. N. Brothers, K. N. Kudin, 
 V. N. Staroverov, T. A. Keith, R. Kobayashi, J. Normand, 
 K. Raghavachari, A. P. Rendell, J. C. Burant, S. S. Iyengar, 
 J. Tomasi, M. Cossi, J. M. Millam, M. Klene, C. Adamo, R. Cammi, 
 J. W. Ochterski, R. L. Martin, K. Morokuma, O. Farkas, 
 J. B. Foresman, and D. J. Fox, Gaussian, Inc., Wallingford CT, 2016.
 
 ******************************************
 Gaussian 16:  ES64L-G16RevA.03 25-Dec-2016
                 9-Sep-2021 
 ******************************************
 %nproc=24
 Will use up to   24 processors via shared memory.
 %mem=175gb
 -----------------------------------
 #p cam-b3lyp/Def2SVP td=(nstates=5)
 -----------------------------------
 1/38=1,172=1/1;
 2/12=2,17=6,18=5,40=1/2;
 3/5=43,7=101,11=9,25=1,30=1,74=-40/1,2,3,8;
 4//1;
 5/5=2,38=5/2;
 8/6=1,10=1,108=5/1;
 9/41=5,42=1,70=2/14;
 6/7=2,8=2,9=2,10=2/1;
 99/5=1,9=1/99;
 Leave Link    1 at Thu Sep  9 19:48:49 2021, MaxMem= 23488102400 cpu:               0.6 elap:               0.0
 (Enter /sw/apps/gaussian-16.0/g16/l101.exe)
 --------------------------------
 TDDFT excited states in gaussian
 --------------------------------
 Symbolic Z-matrix:
 Charge =  0 Multiplicity = 1
 Mg                    0.        0.        0. 
 C                    -0.217    -2.218     2.801 
 C                    -1.255     2.442     2.026 
 C                    -0.245     1.85     -2.564 
 C                     0.146    -2.824    -2.037 
 N                    -0.617    -0.009     2.126 
 C                    -0.594    -0.908     3.105 
 C                    -0.936    -0.309     4.502 
 C                    -1.773     0.964     4.032 
 C                    -1.155     1.168     2.66 
 C                    -3.263     0.685     3.863 
 C                     0.345     0.11      5.299 
 C                     0.124     0.397     6.787 
 H                     1.168     0.033     7.733 
 N                    -0.185     1.961    -0.152 
 C                    -0.703     2.8       0.777 
 C                    -0.62      4.156     0.193 
 C                    -0.187     4.015    -1.225 
 C                    -0.214     2.583    -1.38 
 C                    -0.887     5.406     0.974 
 C                     0.181     5.013    -2.277 
 O                     0.303     4.69     -3.508 
 C                     0.31      6.414    -1.837 
 N                    -0.265    -0.413    -2.029 
 C                    -0.279     0.569    -2.937 
 C                    -0.196     0.024    -4.332 
 C                     0.124    -1.533    -4.18 
 C                     0.086    -1.632    -2.635 
 C                    -1.451     0.205    -5.197 
 C                     1.373    -2.07     -4.923 
 C                     2.626    -1.49     -4.306 
 N                     0.15     -2.144     0.303 
 C                     0.173    -3.136    -0.688 
 C                     0.173    -4.438     0.004 
 C                     0.133    -4.111     1.358 
 C                     0.083    -2.695     1.502 
 C                     0.149    -5.715    -0.623 
 C                     0.096    -4.629     2.716 
 O                     0.208    -5.747     3.221 
 C                    -0.255    -3.428     3.701 
 C                     0.717    -3.482     4.848 
 O                     1.931    -3.255     4.669 
 O                     0.038    -3.556     6.003 
 C                     0.943    -3.583     7.183 
 H                    -1.859     3.22      2.497 
 H                    -0.218     2.453    -3.474 
 H                     0.276    -3.747    -2.605 
 H                    -1.554    -0.949     5.132 
 H                    -1.585     1.831     4.665 
 H                    -3.484    -0.377     3.969 
 H                    -3.511     1.027     2.858 
 H                    -3.852     1.301     4.543 
 H                     0.669     1.096     4.966 
 H                     1.13     -0.639     5.189 
 H                    -0.844     0.026     7.125 
 H                     0.062     1.477     6.921 
 H                    -1.344     5.186     1.938 
 H                    -1.651     5.963     0.432 
 H                     0.007     6.02      1.084 
 H                    -0.635     6.744    -1.405 
 H                     0.665     6.97     -2.704 
 H                     1.048     6.466    -1.036 
 H                     0.608     0.501    -4.891 
 H                    -0.692    -2.156    -4.547 
 H                    -1.267     0.74     -6.129 
 H                    -2.204     0.714    -4.596 
 H                    -1.967    -0.72     -5.453 
 H                     1.356    -1.759    -5.967 
 H                     1.452    -3.157    -4.902 
 H                     2.714    -0.522    -4.798 
 H                     3.487    -2.121    -4.529 
 H                     2.495    -1.303    -3.24 
 H                     0.867    -6.333    -0.084 
 H                     0.404    -5.642    -1.68 
 H                    -0.891    -5.999    -0.463 
 H                    -1.283    -3.581     4.028 
 H                     0.698    -4.478     7.755 
 H                     0.833    -2.619     7.68 
 H                     2.       -3.754     6.976 
 Mg                    8.9418    0.80703   0.67178 
 C                     8.43109   4.35293   0.45998 
 C                     8.32571   0.66869  -2.68022 
 C                     8.94013  -2.35743   0.90337 
 C                     8.38821   1.07225   4.10236 
 N                     8.45407   2.37601  -0.809 
 C                     8.34741   3.69601  -0.78537 
 C                     8.21951   4.3561   -2.18447 
 C                     7.62892   3.09891  -2.99041 
 C                     8.19667   1.97003  -2.13253 
 C                     6.1122    3.01506  -2.94732 
 C                     9.60702   4.80783  -2.76134 
 C                     9.52735   5.73311  -3.9776 
 H                     10.53284   6.78235  -4.12098 
 N                     9.15705  -0.58322  -0.72802 
 C                     8.88085  -0.46303  -2.04353 
 C                     9.18968  -1.77155  -2.64065 
 C                     9.51399  -2.72311  -1.54335 
 C                     9.18895  -1.91254  -0.38688 
 C                     9.23644  -1.99851  -4.1238 
 C                     10.01933  -4.13406  -1.53629 
 O                     10.00388  -4.84951  -0.47293 
 C                     10.44593  -4.68412  -2.83125 
 N                     8.49195  -0.49235   2.23113 
 C                     8.62323  -1.82224   2.08255 
 C                     8.5115   -2.53311   3.41017 
 C                     8.51925  -1.37916   4.51738 
 C                     8.54542  -0.14194   3.59326 
 C                     7.27088  -3.40673   3.59465 
 C                     9.58867  -1.48692   5.63872 
 C                     10.9693  -1.28737   5.05611 
 N                     8.67375   2.42015   2.08389 
 C                     8.42982   2.30843   3.47029 
 C                     8.20313   3.67488   3.98396 
 C                     8.30897   4.49103   2.84765 
 C                     8.5623    3.68782   1.70303 
 C                     7.89372   4.01667   5.33064 
 C                     8.25346   5.84838   2.35447 
 O                     8.15617   6.95866   2.87556 
 C                     8.20448   5.80738   0.76629 
 C                     9.20914   6.79799   0.24488 
 O                     10.42554   6.62577   0.43811 
 O                     8.58858   7.66376  -0.57714 
 C                     9.54591   8.6595   -1.12836 
 H                     7.92624   0.48365  -3.67775 
 H                     9.03743  -3.43455   1.0577 
 H                     8.30638   1.24855   5.17702 
 H                     7.52662   5.18756  -2.23284 
 H                     8.03208   3.05134  -3.99866 
 H                     5.68681   3.75058  -2.28084 
 H                     5.88252   2.01507  -2.60337 
 H                     5.70177   3.08764  -3.95857 
 H                     10.1047   3.94181  -3.21638 
 H                     10.20635   5.26499  -1.99816 
 H                     8.52021   6.14428  -4.11744 
 H                     9.70155   5.13872  -4.8778 
 H                     8.79175  -1.15966  -4.67332 
 H                     8.57529  -2.84501  -4.33874 
 H                     10.24064  -2.23448  -4.48235 
 H                     9.61473  -4.64585  -3.53133 
 H                     10.85793  -5.67026  -2.60842 
 H                     11.23309  -4.04195  -3.2419 
 H                     9.3625   -3.18283   3.57377 
 H                     7.56919  -1.33847   5.07015 
 H                     7.51038  -4.45934   3.83699 
 H                     6.67626  -3.35003   2.69256 
 H                     6.57169  -3.0614    4.35431 
 H                     9.57841  -2.48794   6.07689 
 H                     9.43902  -0.77971   6.4477 
 H                     11.22033  -2.28009   4.67064 
 H                     11.66948  -0.97514   5.8283 
 H                     10.94076  -0.59993   4.20273 
 H                     8.49296   4.88296   5.57754 
 H                     8.0935    3.18822   6.00705 
 H                     6.82397   4.22273   5.23871 
 H                     7.18716   6.05805   0.46333 
 H                     9.1523    9.6508   -0.88324 
 H                     9.65135   8.41051  -2.20104 
 H                     10.53214   8.70716  -0.68168 
 
 ITRead=  0  0  0  0  0  0  0  0  0  0  0  0  0  0  0  0  0  0  0  0
 ITRead=  0  0  0  0  0  0  0  0  0  0  0  0  0  0  0  0  0  0  0  0
 ITRead=  0  0  0  0  0  0  0  0  0  0  0  0  0  0  0  0  0  0  0  0
 ITRead=  0  0  0  0  0  0  0  0  0  0  0  0  0  0  0  0  0  0  0  0
 ITRead=  0  0  0  0  0  0  0  0  0  0  0  0  0  0  0  0  0  0  0  0
 ITRead=  0  0  0  0  0  0  0  0  0  0  0  0  0  0  0  0  0  0  0  0
 ITRead=  0  0  0  0  0  0  0  0  0  0  0  0  0  0  0  0  0  0  0  0
 ITRead=  0  0  0  0  0  0  0  0  0  0  0  0  0  0  0  0  0  0
 MicOpt= -1 -1 -1 -1 -1 -1 -1 -1 -1 -1 -1 -1 -1 -1 -1 -1 -1 -1 -1 -1
 MicOpt= -1 -1 -1 -1 -1 -1 -1 -1 -1 -1 -1 -1 -1 -1 -1 -1 -1 -1 -1 -1
 MicOpt= -1 -1 -1 -1 -1 -1 -1 -1 -1 -1 -1 -1 -1 -1 -1 -1 -1 -1 -1 -1
 MicOpt= -1 -1 -1 -1 -1 -1 -1 -1 -1 -1 -1 -1 -1 -1 -1 -1 -1 -1 -1 -1
 MicOpt= -1 -1 -1 -1 -1 -1 -1 -1 -1 -1 -1 -1 -1 -1 -1 -1 -1 -1 -1 -1
 MicOpt= -1 -1 -1 -1 -1 -1 -1 -1 -1 -1 -1 -1 -1 -1 -1 -1 -1 -1 -1 -1
 MicOpt= -1 -1 -1 -1 -1 -1 -1 -1 -1 -1 -1 -1 -1 -1 -1 -1 -1 -1 -1 -1
 MicOpt= -1 -1 -1 -1 -1 -1 -1 -1 -1 -1 -1 -1 -1 -1 -1 -1 -1 -1
 NAtoms=    158 NQM=      158 NQMF=       0 NMMI=      0 NMMIF=      0
                NMic=       0 NMicF=      0.
                    Isotopes and Nuclear Properties:
 (Nuclear quadrupole moments (NQMom) in fm**2, nuclear magnetic moments (NMagM)
  in nuclear magnetons)

  Atom         1           2           3           4           5           6           7           8           9          10
 IAtWgt=          24          12          12          12          12          14          12          12          12          12
 AtmWgt=  23.9850450  12.0000000  12.0000000  12.0000000  12.0000000  14.0030740  12.0000000  12.0000000  12.0000000  12.0000000
 NucSpn=           0           0           0           0           0           2           0           0           0           0
 AtZEff=  -0.0000000  -0.0000000  -0.0000000  -0.0000000  -0.0000000  -0.0000000  -0.0000000  -0.0000000  -0.0000000  -0.0000000
 NQMom=    0.0000000   0.0000000   0.0000000   0.0000000   0.0000000   2.0440000   0.0000000   0.0000000   0.0000000   0.0000000
 NMagM=    0.0000000   0.0000000   0.0000000   0.0000000   0.0000000   0.4037610   0.0000000   0.0000000   0.0000000   0.0000000
 AtZNuc=  12.0000000   6.0000000   6.0000000   6.0000000   6.0000000   7.0000000   6.0000000   6.0000000   6.0000000   6.0000000

  Atom        11          12          13          14          15          16          17          18          19          20
 IAtWgt=          12          12          12           1          14          12          12          12          12          12
 AtmWgt=  12.0000000  12.0000000  12.0000000   1.0078250  14.0030740  12.0000000  12.0000000  12.0000000  12.0000000  12.0000000
 NucSpn=           0           0           0           1           2           0           0           0           0           0
 AtZEff=  -0.0000000  -0.0000000  -0.0000000  -0.0000000  -0.0000000  -0.0000000  -0.0000000  -0.0000000  -0.0000000  -0.0000000
 NQMom=    0.0000000   0.0000000   0.0000000   0.0000000   2.0440000   0.0000000   0.0000000   0.0000000   0.0000000   0.0000000
 NMagM=    0.0000000   0.0000000   0.0000000   2.7928460   0.4037610   0.0000000   0.0000000   0.0000000   0.0000000   0.0000000
 AtZNuc=   6.0000000   6.0000000   6.0000000   1.0000000   7.0000000   6.0000000   6.0000000   6.0000000   6.0000000   6.0000000

  Atom        21          22          23          24          25          26          27          28          29          30
 IAtWgt=          12          16          12          14          12          12          12          12          12          12
 AtmWgt=  12.0000000  15.9949146  12.0000000  14.0030740  12.0000000  12.0000000  12.0000000  12.0000000  12.0000000  12.0000000
 NucSpn=           0           0           0           2           0           0           0           0           0           0
 AtZEff=  -0.0000000  -0.0000000  -0.0000000  -0.0000000  -0.0000000  -0.0000000  -0.0000000  -0.0000000  -0.0000000  -0.0000000
 NQMom=    0.0000000   0.0000000   0.0000000   2.0440000   0.0000000   0.0000000   0.0000000   0.0000000   0.0000000   0.0000000
 NMagM=    0.0000000   0.0000000   0.0000000   0.4037610   0.0000000   0.0000000   0.0000000   0.0000000   0.0000000   0.0000000
 AtZNuc=   6.0000000   8.0000000   6.0000000   7.0000000   6.0000000   6.0000000   6.0000000   6.0000000   6.0000000   6.0000000

  Atom        31          32          33          34          35          36          37          38          39          40
 IAtWgt=          12          14          12          12          12          12          12          12          16          12
 AtmWgt=  12.0000000  14.0030740  12.0000000  12.0000000  12.0000000  12.0000000  12.0000000  12.0000000  15.9949146  12.0000000
 NucSpn=           0           2           0           0           0           0           0           0           0           0
 AtZEff=  -0.0000000  -0.0000000  -0.0000000  -0.0000000  -0.0000000  -0.0000000  -0.0000000  -0.0000000  -0.0000000  -0.0000000
 NQMom=    0.0000000   2.0440000   0.0000000   0.0000000   0.0000000   0.0000000   0.0000000   0.0000000   0.0000000   0.0000000
 NMagM=    0.0000000   0.4037610   0.0000000   0.0000000   0.0000000   0.0000000   0.0000000   0.0000000   0.0000000   0.0000000
 AtZNuc=   6.0000000   7.0000000   6.0000000   6.0000000   6.0000000   6.0000000   6.0000000   6.0000000   8.0000000   6.0000000

  Atom        41          42          43          44          45          46          47          48          49          50
 IAtWgt=          12          16          16          12           1           1           1           1           1           1
 AtmWgt=  12.0000000  15.9949146  15.9949146  12.0000000   1.0078250   1.0078250   1.0078250   1.0078250   1.0078250   1.0078250
 NucSpn=           0           0           0           0           1           1           1           1           1           1
 AtZEff=  -0.0000000  -0.0000000  -0.0000000  -0.0000000  -0.0000000  -0.0000000  -0.0000000  -0.0000000  -0.0000000  -0.0000000
 NQMom=    0.0000000   0.0000000   0.0000000   0.0000000   0.0000000   0.0000000   0.0000000   0.0000000   0.0000000   0.0000000
 NMagM=    0.0000000   0.0000000   0.0000000   0.0000000   2.7928460   2.7928460   2.7928460   2.7928460   2.7928460   2.7928460
 AtZNuc=   6.0000000   8.0000000   8.0000000   6.0000000   1.0000000   1.0000000   1.0000000   1.0000000   1.0000000   1.0000000

  Atom        51          52          53          54          55          56          57          58          59          60
 IAtWgt=           1           1           1           1           1           1           1           1           1           1
 AtmWgt=   1.0078250   1.0078250   1.0078250   1.0078250   1.0078250   1.0078250   1.0078250   1.0078250   1.0078250   1.0078250
 NucSpn=           1           1           1           1           1           1           1           1           1           1
 AtZEff=  -0.0000000  -0.0000000  -0.0000000  -0.0000000  -0.0000000  -0.0000000  -0.0000000  -0.0000000  -0.0000000  -0.0000000
 NQMom=    0.0000000   0.0000000   0.0000000   0.0000000   0.0000000   0.0000000   0.0000000   0.0000000   0.0000000   0.0000000
 NMagM=    2.7928460   2.7928460   2.7928460   2.7928460   2.7928460   2.7928460   2.7928460   2.7928460   2.7928460   2.7928460
 AtZNuc=   1.0000000   1.0000000   1.0000000   1.0000000   1.0000000   1.0000000   1.0000000   1.0000000   1.0000000   1.0000000

  Atom        61          62          63          64          65          66          67          68          69          70
 IAtWgt=           1           1           1           1           1           1           1           1           1           1
 AtmWgt=   1.0078250   1.0078250   1.0078250   1.0078250   1.0078250   1.0078250   1.0078250   1.0078250   1.0078250   1.0078250
 NucSpn=           1           1           1           1           1           1           1           1           1           1
 AtZEff=  -0.0000000  -0.0000000  -0.0000000  -0.0000000  -0.0000000  -0.0000000  -0.0000000  -0.0000000  -0.0000000  -0.0000000
 NQMom=    0.0000000   0.0000000   0.0000000   0.0000000   0.0000000   0.0000000   0.0000000   0.0000000   0.0000000   0.0000000
 NMagM=    2.7928460   2.7928460   2.7928460   2.7928460   2.7928460   2.7928460   2.7928460   2.7928460   2.7928460   2.7928460
 AtZNuc=   1.0000000   1.0000000   1.0000000   1.0000000   1.0000000   1.0000000   1.0000000   1.0000000   1.0000000   1.0000000

  Atom        71          72          73          74          75          76          77          78          79          80
 IAtWgt=           1           1           1           1           1           1           1           1           1          24
 AtmWgt=   1.0078250   1.0078250   1.0078250   1.0078250   1.0078250   1.0078250   1.0078250   1.0078250   1.0078250  23.9850450
 NucSpn=           1           1           1           1           1           1           1           1           1           0
 AtZEff=  -0.0000000  -0.0000000  -0.0000000  -0.0000000  -0.0000000  -0.0000000  -0.0000000  -0.0000000  -0.0000000  -0.0000000
 NQMom=    0.0000000   0.0000000   0.0000000   0.0000000   0.0000000   0.0000000   0.0000000   0.0000000   0.0000000   0.0000000
 NMagM=    2.7928460   2.7928460   2.7928460   2.7928460   2.7928460   2.7928460   2.7928460   2.7928460   2.7928460   0.0000000
 AtZNuc=   1.0000000   1.0000000   1.0000000   1.0000000   1.0000000   1.0000000   1.0000000   1.0000000   1.0000000  12.0000000

  Atom        81          82          83          84          85          86          87          88          89          90
 IAtWgt=          12          12          12          12          14          12          12          12          12          12
 AtmWgt=  12.0000000  12.0000000  12.0000000  12.0000000  14.0030740  12.0000000  12.0000000  12.0000000  12.0000000  12.0000000
 NucSpn=           0           0           0           0           2           0           0           0           0           0
 AtZEff=  -0.0000000  -0.0000000  -0.0000000  -0.0000000  -0.0000000  -0.0000000  -0.0000000  -0.0000000  -0.0000000  -0.0000000
 NQMom=    0.0000000   0.0000000   0.0000000   0.0000000   2.0440000   0.0000000   0.0000000   0.0000000   0.0000000   0.0000000
 NMagM=    0.0000000   0.0000000   0.0000000   0.0000000   0.4037610   0.0000000   0.0000000   0.0000000   0.0000000   0.0000000
 AtZNuc=   6.0000000   6.0000000   6.0000000   6.0000000   7.0000000   6.0000000   6.0000000   6.0000000   6.0000000   6.0000000

  Atom        91          92          93          94          95          96          97          98          99         100
 IAtWgt=          12          12           1          14          12          12          12          12          12          12
 AtmWgt=  12.0000000  12.0000000   1.0078250  14.0030740  12.0000000  12.0000000  12.0000000  12.0000000  12.0000000  12.0000000
 NucSpn=           0           0           1           2           0           0           0           0           0           0
 AtZEff=  -0.0000000  -0.0000000  -0.0000000  -0.0000000  -0.0000000  -0.0000000  -0.0000000  -0.0000000  -0.0000000  -0.0000000
 NQMom=    0.0000000   0.0000000   0.0000000   2.0440000   0.0000000   0.0000000   0.0000000   0.0000000   0.0000000   0.0000000
 NMagM=    0.0000000   0.0000000   2.7928460   0.4037610   0.0000000   0.0000000   0.0000000   0.0000000   0.0000000   0.0000000
 AtZNuc=   6.0000000   6.0000000   1.0000000   7.0000000   6.0000000   6.0000000   6.0000000   6.0000000   6.0000000   6.0000000

  Atom       101         102         103         104         105         106         107         108         109         110
 IAtWgt=          16          12          14          12          12          12          12          12          12          12
 AtmWgt=  15.9949146  12.0000000  14.0030740  12.0000000  12.0000000  12.0000000  12.0000000  12.0000000  12.0000000  12.0000000
 NucSpn=           0           0           2           0           0           0           0           0           0           0
 AtZEff=  -0.0000000  -0.0000000  -0.0000000  -0.0000000  -0.0000000  -0.0000000  -0.0000000  -0.0000000  -0.0000000  -0.0000000
 NQMom=    0.0000000   0.0000000   2.0440000   0.0000000   0.0000000   0.0000000   0.0000000   0.0000000   0.0000000   0.0000000
 NMagM=    0.0000000   0.0000000   0.4037610   0.0000000   0.0000000   0.0000000   0.0000000   0.0000000   0.0000000   0.0000000
 AtZNuc=   8.0000000   6.0000000   7.0000000   6.0000000   6.0000000   6.0000000   6.0000000   6.0000000   6.0000000   6.0000000

  Atom       111         112         113         114         115         116         117         118         119         120
 IAtWgt=          14          12          12          12          12          12          12          16          12          12
 AtmWgt=  14.0030740  12.0000000  12.0000000  12.0000000  12.0000000  12.0000000  12.0000000  15.9949146  12.0000000  12.0000000
 NucSpn=           2           0           0           0           0           0           0           0           0           0
 AtZEff=  -0.0000000  -0.0000000  -0.0000000  -0.0000000  -0.0000000  -0.0000000  -0.0000000  -0.0000000  -0.0000000  -0.0000000
 NQMom=    2.0440000   0.0000000   0.0000000   0.0000000   0.0000000   0.0000000   0.0000000   0.0000000   0.0000000   0.0000000
 NMagM=    0.4037610   0.0000000   0.0000000   0.0000000   0.0000000   0.0000000   0.0000000   0.0000000   0.0000000   0.0000000
 AtZNuc=   7.0000000   6.0000000   6.0000000   6.0000000   6.0000000   6.0000000   6.0000000   8.0000000   6.0000000   6.0000000

  Atom       121         122         123         124         125         126         127         128         129         130
 IAtWgt=          16          16          12           1           1           1           1           1           1           1
 AtmWgt=  15.9949146  15.9949146  12.0000000   1.0078250   1.0078250   1.0078250   1.0078250   1.0078250   1.0078250   1.0078250
 NucSpn=           0           0           0           1           1           1           1           1           1           1
 AtZEff=  -0.0000000  -0.0000000  -0.0000000  -0.0000000  -0.0000000  -0.0000000  -0.0000000  -0.0000000  -0.0000000  -0.0000000
 NQMom=    0.0000000   0.0000000   0.0000000   0.0000000   0.0000000   0.0000000   0.0000000   0.0000000   0.0000000   0.0000000
 NMagM=    0.0000000   0.0000000   0.0000000   2.7928460   2.7928460   2.7928460   2.7928460   2.7928460   2.7928460   2.7928460
 AtZNuc=   8.0000000   8.0000000   6.0000000   1.0000000   1.0000000   1.0000000   1.0000000   1.0000000   1.0000000   1.0000000

  Atom       131         132         133         134         135         136         137         138         139         140
 IAtWgt=           1           1           1           1           1           1           1           1           1           1
 AtmWgt=   1.0078250   1.0078250   1.0078250   1.0078250   1.0078250   1.0078250   1.0078250   1.0078250   1.0078250   1.0078250
 NucSpn=           1           1           1           1           1           1           1           1           1           1
 AtZEff=  -0.0000000  -0.0000000  -0.0000000  -0.0000000  -0.0000000  -0.0000000  -0.0000000  -0.0000000  -0.0000000  -0.0000000
 NQMom=    0.0000000   0.0000000   0.0000000   0.0000000   0.0000000   0.0000000   0.0000000   0.0000000   0.0000000   0.0000000
 NMagM=    2.7928460   2.7928460   2.7928460   2.7928460   2.7928460   2.7928460   2.7928460   2.7928460   2.7928460   2.7928460
 AtZNuc=   1.0000000   1.0000000   1.0000000   1.0000000   1.0000000   1.0000000   1.0000000   1.0000000   1.0000000   1.0000000

  Atom       141         142         143         144         145         146         147         148         149         150
 IAtWgt=           1           1           1           1           1           1           1           1           1           1
 AtmWgt=   1.0078250   1.0078250   1.0078250   1.0078250   1.0078250   1.0078250   1.0078250   1.0078250   1.0078250   1.0078250
 NucSpn=           1           1           1           1           1           1           1           1           1           1
 AtZEff=  -0.0000000  -0.0000000  -0.0000000  -0.0000000  -0.0000000  -0.0000000  -0.0000000  -0.0000000  -0.0000000  -0.0000000
 NQMom=    0.0000000   0.0000000   0.0000000   0.0000000   0.0000000   0.0000000   0.0000000   0.0000000   0.0000000   0.0000000
 NMagM=    2.7928460   2.7928460   2.7928460   2.7928460   2.7928460   2.7928460   2.7928460   2.7928460   2.7928460   2.7928460
 AtZNuc=   1.0000000   1.0000000   1.0000000   1.0000000   1.0000000   1.0000000   1.0000000   1.0000000   1.0000000   1.0000000

  Atom       151         152         153         154         155         156         157         158
 IAtWgt=           1           1           1           1           1           1           1           1
 AtmWgt=   1.0078250   1.0078250   1.0078250   1.0078250   1.0078250   1.0078250   1.0078250   1.0078250
 NucSpn=           1           1           1           1           1           1           1           1
 AtZEff=  -0.0000000  -0.0000000  -0.0000000  -0.0000000  -0.0000000  -0.0000000  -0.0000000  -0.0000000
 NQMom=    0.0000000   0.0000000   0.0000000   0.0000000   0.0000000   0.0000000   0.0000000   0.0000000
 NMagM=    2.7928460   2.7928460   2.7928460   2.7928460   2.7928460   2.7928460   2.7928460   2.7928460
 AtZNuc=   1.0000000   1.0000000   1.0000000   1.0000000   1.0000000   1.0000000   1.0000000   1.0000000
 Leave Link  101 at Thu Sep  9 19:48:49 2021, MaxMem= 23488102400 cpu:               3.5 elap:               0.2
 (Enter /sw/apps/gaussian-16.0/g16/l202.exe)
 Stoichiometry    C68H72Mg2N8O8
 Framework group  C1[X(C68H72Mg2N8O8)]
 Deg. of freedom   468
 Full point group                 C1      NOp   1
 Largest Abelian subgroup         C1      NOp   1
 Largest concise Abelian subgroup C1      NOp   1
                         Standard orientation:                         
 ---------------------------------------------------------------------
 Center     Atomic      Atomic             Coordinates (Angstroms)
 Number     Number       Type             X           Y           Z
 ---------------------------------------------------------------------
      1         12           0        4.175276    1.421811    0.389383
      2          6           0        5.484365   -1.652764   -0.893381
      3          6           0        4.687525    2.759401   -2.707635
      4          6           0        3.452796    4.256615    1.613529
      5          6           0        4.826621    0.194489    3.585489
      6          7           0        4.987072    0.561248   -1.481730
      7          6           0        5.397441   -0.646038   -1.857534
      8          6           0        5.654991   -0.761833   -3.389733
      9          6           0        5.921427    0.775644   -3.717108
     10          6           0        5.122698    1.405965   -2.589877
     11          6           0        7.383533    1.185040   -3.571701
     12          6           0        4.406267   -1.304219   -4.163191
     13          6           0        4.673795   -1.753977   -5.602461
     14          1           0        3.942310   -2.897655   -6.126178
     15          7           0        3.625996    3.098679   -0.499017
     16          6           0        3.908388    3.471711   -1.770390
     17          6           0        3.279766    4.797343   -1.955362
     18          6           0        2.771173    5.248630   -0.630308
     19          6           0        3.292868    4.217910    0.230406
     20          6           0        3.165564    5.475348   -3.286157
     21          6           0        1.954800    6.428131   -0.205520
     22          8           0        1.820560    6.755453    1.023062
     23          6           0        1.381449    7.253045   -1.284328
     24          7           0        4.343095    2.224089    2.309233
     25          6           0        3.902505    3.456972    2.582848
     26          6           0        3.865815    3.708126    4.061197
     27          6           0        4.144996    2.297903    4.756237
     28          6           0        4.387818    1.451045    3.482604
     29          6           0        4.867535    4.744439    4.589045
     30          6           0        3.097510    1.800798    5.783894
     31          6           0        1.796904    1.485675    5.079466
     32          7           0        4.839487   -0.461903    1.238789
     33          6           0        5.063822   -0.743093    2.594252
     34          6           0        5.608175   -2.111457    2.667234
     35          6           0        5.678688   -2.527829    1.339262
     36          6           0        5.232867   -1.476039    0.488808
     37          6           0        6.018891   -2.782834    3.852561
     38          6           0        6.050133   -3.607694    0.439387
     39          8           0        6.403831   -4.778176    0.588932
     40          6           0        6.054081   -3.040868   -1.048739
     41          6           0        5.300449   -4.018004   -1.909292
     42          8           0        4.074019   -4.191254   -1.756915
     43          8           0        6.084883   -4.414532   -2.923182
     44          6           0        5.387325   -5.362938   -3.832079
     45          1           0        5.020495    3.348232   -3.564576
     46          1           0        3.110009    5.179411    2.086161
     47          1           0        4.974146   -0.286140    4.554347
     48          1           0        6.527557   -1.356703   -3.660255
     49          1           0        5.506546    1.063930   -4.682762
     50          1           0        7.981287    0.381690   -3.141307
     51          1           0        7.378682    2.052016   -2.910776
     52          1           0        7.784022    1.535852   -4.523183
     53          1           0        3.715055   -0.482627   -4.351001
     54          1           0        3.935361   -2.119222   -3.612424
     55          1           0        5.741645   -1.863321   -5.793903
     56          1           0        4.358569   -0.955341   -6.274037
     57          1           0        3.775394    4.980838   -4.041215
     58          1           0        3.613300    6.463226   -3.179667
     59          1           0        2.128976    5.574372   -3.608666
     60          1           0        2.186868    7.635519   -1.911673
     61          1           0        0.756358    7.998051   -0.793331
     62          1           0        0.768087    6.619249   -1.925452
     63          1           0        2.887289    4.071985    4.371872
     64          1           0        5.083907    2.293782    5.310406
     65          1           0        4.401209    5.568163    5.130085
     66          1           0        5.449607    5.111312    3.744126
     67          1           0        5.649182    4.338948    5.230934
     68          1           0        2.885371    2.579329    6.515899
     69          1           0        3.416757    0.911927    6.328173
     70          1           0        1.313146    2.459620    5.014342
     71          1           0        1.200632    0.792547    5.673810
     72          1           0        1.969916    1.138993    4.060464
     73          1           0        5.635342   -3.800137    3.775398
     74          1           0        5.638656   -2.282609    4.742953
     75          1           0        7.102415   -2.707763    3.762027
     76          1           0        7.098070   -2.952450   -1.347726
     77          1           0        5.999287   -6.263308   -3.887489
     78          1           0        5.198643   -4.821543   -4.759277
     79          1           0        4.446109   -5.775948   -3.467559
     80         12           0       -4.325991   -1.539265    0.252058
     81          6           0       -5.148905    1.524961   -1.424969
     82          6           0       -4.078739    0.276068    3.129216
     83          6           0       -3.162942   -4.129128    1.668876
     84          6           0       -3.526074   -2.869991   -2.868036
     85          7           0       -4.602029    0.614988    0.670724
     86          6           0       -4.974295    1.673382   -0.033234
     87          6           0       -5.248499    2.945086    0.813607
     88          6           0       -4.339757    2.585921    2.087990
     89          6           0       -4.365200    1.062321    1.984730
     90          6           0       -2.899307    3.050017    1.949991
     91          6           0       -6.760690    3.086095    1.207835
     92          6           0       -7.154400    4.454813    1.767641
     93          1           0       -8.478732    4.981906    1.450168
     94          7           0       -4.182417   -1.994334    2.178419
     95          6           0       -4.116112   -1.133025    3.215265
     96          6           0       -3.999192   -1.965199    4.422729
     97          6           0       -3.836010   -3.383093    4.001232
     98          6           0       -3.696898   -3.217764    2.568259
     99          6           0       -4.126258   -1.407625    5.810676
    100          6           0       -3.797145   -4.673082    4.763214
    101          8           0       -3.407623   -5.765711    4.217984
    102          6           0       -4.139293   -4.601533    6.191251
    103          7           0       -3.269096   -3.181760   -0.460340
    104          6           0       -2.930012   -4.193485    0.357799
    105          6           0       -2.423478   -5.381506   -0.424775
    106          6           0       -2.721489   -5.043849   -1.959295
    107          6           0       -3.292698   -3.617943   -1.798335
    108          6           0       -0.939700   -5.706696   -0.254373
    109          6           0       -3.548965   -6.085411   -2.761234
    110          6           0       -4.964914   -6.136072   -2.234057
    111          7           0       -4.499251   -0.897065   -1.803574
    112          6           0       -4.078690   -1.598579   -2.954702
    113          6           0       -4.301815   -0.708689   -4.112606
    114          6           0       -4.819368    0.466758   -3.547836
    115          6           0       -4.893347    0.327247   -2.135553
    116          6           0       -3.987760   -1.011835   -5.467440
    117          6           0       -5.310001    1.797762   -3.824269
    118          8           0       -5.560277    2.436641   -4.845502
    119          6           0       -5.426781    2.588725   -2.450539
    120          6           0       -6.771406    3.261958   -2.415059
    121          8           0       -7.815325    2.587124   -2.376873
    122          8           0       -6.598601    4.580956   -2.213188
    123          6           0       -7.904527    5.290521   -2.159339
    124          1           0       -3.753238    0.782444    4.038345
    125          1           0       -2.849350   -5.084529    2.095889
    126          1           0       -3.393823   -3.247303   -3.884312
    127          1           0       -4.910185    3.871334    0.364864
    128          1           0       -4.808592    2.913334    3.012308
    129          1           0       -2.694838    3.441601    0.964600
    130          1           0       -2.289261    2.177645    2.144535
    131          1           0       -2.657635    3.768666    2.738335
    132          1           0       -6.961766    2.459041    2.085963
    133          1           0       -7.395167    2.838530    0.379110
    134          1           0       -6.384215    5.213235    1.581740
    135          1           0       -7.202770    4.383349    2.856934
    136          1           0       -4.076422   -0.311766    5.810065
    137          1           0       -3.233699   -1.719809    6.363632
    138          1           0       -5.012105   -1.775377    6.332874
    139          1           0       -3.460720   -3.914469    6.691202
    140          1           0       -4.142359   -5.634985    6.543156
    141          1           0       -5.144970   -4.177681    6.289238
    142          1           0       -2.960705   -6.281632   -0.152263
    143          1           0       -1.794098   -4.946863   -2.542702
    144          1           0       -0.756880   -6.739266    0.098405
    145          1           0       -0.509481   -4.988830    0.431291
    146          1           0       -0.331083   -5.567738   -1.146269
    147          1           0       -3.131395   -7.086137   -2.625871
    148          1           0       -3.573996   -5.888456   -3.827804
    149          1           0       -4.884197   -6.807734   -1.374144
    150          1           0       -5.639831   -6.538138   -2.986949
    151          1           0       -5.280231   -5.155796   -1.858183
    152          1           0       -4.826489   -0.677878   -6.063689
    153          1           0       -3.800236   -2.074850   -5.603838
    154          1           0       -3.080606   -0.415234   -5.595560
    155          1           0       -4.607728    3.308117   -2.416076
    156          1           0       -7.868236    6.084072   -2.912100
    157          1           0       -8.032349    5.601437   -1.105418
    158          1           0       -8.785830    4.742716   -2.471841
 ---------------------------------------------------------------------
 Rotational constants (GHZ):           0.0208197           0.0139453           0.0125596
 Leave Link  202 at Thu Sep  9 19:48:49 2021, MaxMem= 23488102400 cpu:               0.2 elap:               0.0
 (Enter /sw/apps/gaussian-16.0/g16/l301.exe)
 Standard basis: def2SVP (5D, 7F)
 Ernie: Thresh=  0.10000D-02 Tol=  0.10000D-05 Strict=F.
 There are  1658 symmetry adapted cartesian basis functions of A   symmetry.
 There are  1572 symmetry adapted basis functions of A   symmetry.
  1572 basis functions,  2678 primitive gaussians,  1658 cartesian basis functions
   312 alpha electrons      312 beta electrons
       nuclear repulsion energy     15473.7266651304 Hartrees.
 IExCor=20419 DFT=T Ex+Corr=CAM-B3LYP ExCW=0 ScaHFX=  1.000000
 ScaDFX=  1.000000  1.000000  1.000000  0.810000 ScalE2=  1.000000  1.000000
 IRadAn=      5 IRanWt=     -1 IRanGd=            0 ICorTp=0 IEmpDi=  4
 HFx  wShort=  0.000000 wLong=  0.330000 cFull=  0.190000 cShort=  0.000000 cLong=  0.460000
 DFx  wShort=  0.000000 wLong=  0.330000 cFull=  0.190000 cShort=  0.000000 cLong=  0.460000
 NAtoms=  158 NActive=  158 NUniq=  158 SFac= 1.00D+00 NAtFMM=   60 NAOKFM=T Big=T
 Integral buffers will be    131072 words long.
 Raffenetti 1 integral format.
 Two-electron integral symmetry is turned on.
 Leave Link  301 at Thu Sep  9 19:48:50 2021, MaxMem= 23488102400 cpu:               1.4 elap:               0.1
 (Enter /sw/apps/gaussian-16.0/g16/l302.exe)
 NPDir=0 NMtPBC=     1 NCelOv=     1 NCel=       1 NClECP=     1 NCelD=      1
         NCelK=      1 NCelE2=     1 NClLst=     1 CellRange=     0.0.
 One-electron integrals computed using PRISM.
 One-electron integral symmetry used in STVInt
   1 Symmetry operations used in ECPInt.
 ECPInt:  NShTT=  271216 NPrTT=  987664 LenC2=  153615 LenP2D=  320133.
 LDataN:  DoStor=T MaxTD1= 4 Len=   56
 NBasis=  1572 RedAO= T EigKep=  3.36D-04  NBF=  1572
 NBsUse=  1572 1.00D-06 EigRej= -1.00D+00 NBFU=  1572
 Precomputing XC quadrature grid using
 IXCGrd= 4 IRadAn=           5 IRanWt=          -1 IRanGd=           0 AccXCQ= 0.00D+00.
 Generated NRdTot=       0 NPtTot=           0 NUsed=           0 NTot=          32
 NSgBfM=  1189  1166  1172  1179  1189 MxSgAt=   158 MxSgA2=   157.
 Leave Link  302 at Thu Sep  9 19:48:55 2021, MaxMem= 23488102400 cpu:             124.5 elap:               5.2
 (Enter /sw/apps/gaussian-16.0/g16/l303.exe)
 DipDrv:  MaxL=1.
 Leave Link  303 at Thu Sep  9 19:48:55 2021, MaxMem= 23488102400 cpu:               9.6 elap:               0.4
 (Enter /sw/apps/gaussian-16.0/g16/l308.exe)
 Leave Link  308 at Thu Sep  9 19:48:56 2021, MaxMem= 23488102400 cpu:              17.0 elap:               0.8
 (Enter /sw/apps/gaussian-16.0/g16/l401.exe)
 ExpMin= 3.36D-02 ExpMax= 4.95D+03 ExpMxC= 7.45D+02 IAcc=3 IRadAn=         5 AccDes= 0.00D+00
 Harris functional with IExCor=20419 and IRadAn=       5 diagonalized for initial guess.
 HarFok:  IExCor=20419 AccDes= 0.00D+00 IRadAn=         5 IDoV= 1 UseB2=F ITyADJ=14
 ICtDFT=  3500011 ScaDFX=  1.000000  1.000000  1.000000  1.000000
 FoFCou: FMM=F IPFlag=           0 FMFlag=      100000 FMFlg1=        2001
         NFxFlg=           0 DoJE=T BraDBF=F KetDBF=T FulRan=T
         wScrn=  0.000000 ICntrl=       500 IOpCl=  0 I1Cent=   200000004 NGrid=           0
         NMat0=    1 NMatS0=      1 NMatT0=    0 NMatD0=    1 NMtDS0=    0 NMtDT0=    0
 Petite list used in FoFCou.
 Harris En= -3918.65800731737    
 JPrj=0 DoOrth=F DoCkMO=F.
 Leave Link  401 at Thu Sep  9 19:49:04 2021, MaxMem= 23488102400 cpu:             189.9 elap:               7.9
 (Enter /sw/apps/gaussian-16.0/g16/l502.exe)
 Integral symmetry usage will be decided dynamically.
 Closed shell SCF:
 Using DIIS extrapolation, IDIIS=  1040.
 NGot= 23488102400 LenX= 23482547354 LenY= 23479796732
 Requested convergence on RMS density matrix=1.00D-08 within 128 cycles.
 Requested convergence on MAX density matrix=1.00D-06.
 Requested convergence on             energy=1.00D-06.
 No special actions if energy rises.
 Fock matrices will be formed incrementally for  20 cycles.

 Cycle   1  Pass 1  IDiag  1:
 FoFJK:  IHMeth= 1 ICntrl=       0 DoSepK=T KAlg= 0 I1Cent=           0 FoldK=F
 IRaf=         1 NMat=       1 IRICut=       1 DoRegI=T DoRafI=F ISym2E= 0 IDoP0=0 IntGTp=1.
 FoFCou: FMM=T IPFlag=           0 FMFlag=      100000 FMFlg1=        2001
         NFxFlg=           0 DoJE=T BraDBF=F KetDBF=F FulRan=T
         wScrn=  0.000000 ICntrl=       500 IOpCl=  0 I1Cent=           0 NGrid=           0
         NMat0=    1 NMatS0=      1 NMatT0=    0 NMatD0=    1 NMtDS0=    0 NMtDT0=    0
 Symmetry not used in FoFCou.
 FMM levels:  10  Number of levels for PrismC:   9
 E= -4068.94994839179    
 DIIS: error= 2.04D-02 at cycle   1 NSaved=   1.
 NSaved= 1 IEnMin= 1 EnMin= -4068.94994839179     IErMin= 1 ErrMin= 2.04D-02
 ErrMax= 2.04D-02  0.00D+00 EMaxC= 1.00D-01 BMatC= 1.69D+00 BMatP= 1.69D+00
 IDIUse=3 WtCom= 7.96D-01 WtEn= 2.04D-01
 Coeff-Com:  0.100D+01
 Coeff-En:   0.100D+01
 Coeff:      0.100D+01
 Gap=     0.120 Goal=   None    Shift=    0.000
 GapD=    0.120 DampG=1.000 DampE=0.500 DampFc=0.5000 IDamp=-1.
 Damping current iteration by 5.00D-01
 RMSDP=1.57D-03 MaxDP=1.35D-01              OVMax= 2.04D-01

 Cycle   2  Pass 1  IDiag  1:
 RMSU=  7.70D-04    CP:  9.82D-01
 E= -4069.33873335170     Delta-E=       -0.388784959916 Rises=F Damp=T
 DIIS: error= 1.27D-02 at cycle   2 NSaved=   2.
 NSaved= 2 IEnMin= 2 EnMin= -4069.33873335170     IErMin= 2 ErrMin= 1.27D-02
 ErrMax= 1.27D-02  0.00D+00 EMaxC= 1.00D-01 BMatC= 3.07D-01 BMatP= 1.69D+00
 IDIUse=3 WtCom= 8.73D-01 WtEn= 1.27D-01
 Coeff-Com: -0.213D+00 0.121D+01
 Coeff-En:   0.000D+00 0.100D+01
 Coeff:     -0.186D+00 0.119D+01
 Gap=     0.134 Goal=   None    Shift=    0.000
 RMSDP=7.65D-04 MaxDP=9.43D-02 DE=-3.89D-01 OVMax= 1.92D-01

 Cycle   3  Pass 1  IDiag  1:
 RMSU=  7.32D-04    CP:  9.68D-01  1.24D+00
 E= -4069.62858995184     Delta-E=       -0.289856600139 Rises=F Damp=F
 DIIS: error= 1.57D-02 at cycle   3 NSaved=   3.
 NSaved= 3 IEnMin= 3 EnMin= -4069.62858995184     IErMin= 2 ErrMin= 1.27D-02
 ErrMax= 1.57D-02  0.00D+00 EMaxC= 1.00D-01 BMatC= 2.02D-01 BMatP= 3.07D-01
 IDIUse=3 WtCom= 8.43D-01 WtEn= 1.57D-01
 Coeff-Com: -0.267D+00 0.652D+00 0.616D+00
 Coeff-En:   0.000D+00 0.000D+00 0.100D+01
 Coeff:     -0.225D+00 0.549D+00 0.676D+00
 Gap=     0.121 Goal=   None    Shift=    0.000
 RMSDP=5.07D-04 MaxDP=4.92D-02 DE=-2.90D-01 OVMax= 1.45D-01

 Cycle   4  Pass 1  IDiag  1:
 RMSU=  2.64D-04    CP:  9.65D-01  1.55D+00  5.07D-01
 E= -4069.76603522289     Delta-E=       -0.137445271052 Rises=F Damp=F
 DIIS: error= 7.26D-03 at cycle   4 NSaved=   4.
 NSaved= 4 IEnMin= 4 EnMin= -4069.76603522289     IErMin= 4 ErrMin= 7.26D-03
 ErrMax= 7.26D-03  0.00D+00 EMaxC= 1.00D-01 BMatC= 5.01D-02 BMatP= 2.02D-01
 IDIUse=3 WtCom= 9.27D-01 WtEn= 7.26D-02
 Coeff-Com: -0.108D+00 0.225D+00 0.408D+00 0.475D+00
 Coeff-En:   0.000D+00 0.000D+00 0.219D+00 0.781D+00
 Coeff:     -0.101D+00 0.209D+00 0.394D+00 0.497D+00
 Gap=     0.120 Goal=   None    Shift=    0.000
 RMSDP=1.98D-04 MaxDP=2.10D-02 DE=-1.37D-01 OVMax= 6.35D-02

 Cycle   5  Pass 1  IDiag  1:
 RMSU=  7.56D-05    CP:  9.64D-01  1.49D+00  6.89D-01  5.54D-01
 E= -4069.81102164774     Delta-E=       -0.044986424851 Rises=F Damp=F
 DIIS: error= 8.21D-04 at cycle   5 NSaved=   5.
 NSaved= 5 IEnMin= 5 EnMin= -4069.81102164774     IErMin= 5 ErrMin= 8.21D-04
 ErrMax= 8.21D-04  0.00D+00 EMaxC= 1.00D-01 BMatC= 1.14D-03 BMatP= 5.01D-02
 IDIUse=3 WtCom= 9.92D-01 WtEn= 8.21D-03
 Coeff-Com: -0.355D-01 0.697D-01 0.164D+00 0.248D+00 0.553D+00
 Coeff-En:   0.000D+00 0.000D+00 0.000D+00 0.000D+00 0.100D+01
 Coeff:     -0.352D-01 0.691D-01 0.163D+00 0.246D+00 0.557D+00
 Gap=     0.119 Goal=   None    Shift=    0.000
 RMSDP=4.01D-05 MaxDP=4.34D-03 DE=-4.50D-02 OVMax= 1.82D-02

 Cycle   6  Pass 1  IDiag  1:
 RMSU=  3.01D-05    CP:  9.64D-01  1.49D+00  6.82D-01  6.23D-01  7.58D-01
 E= -4069.81199217427     Delta-E=       -0.000970526526 Rises=F Damp=F
 DIIS: error= 2.50D-04 at cycle   6 NSaved=   6.
 NSaved= 6 IEnMin= 6 EnMin= -4069.81199217427     IErMin= 6 ErrMin= 2.50D-04
 ErrMax= 2.50D-04  0.00D+00 EMaxC= 1.00D-01 BMatC= 1.76D-04 BMatP= 1.14D-03
 IDIUse=3 WtCom= 9.98D-01 WtEn= 2.50D-03
 Coeff-Com:  0.225D-02-0.665D-02 0.109D-01 0.399D-01 0.309D+00 0.644D+00
 Coeff-En:   0.000D+00 0.000D+00 0.000D+00 0.000D+00 0.108D+00 0.892D+00
 Coeff:      0.224D-02-0.663D-02 0.109D-01 0.398D-01 0.309D+00 0.645D+00
 Gap=     0.120 Goal=   None    Shift=    0.000
 RMSDP=1.59D-05 MaxDP=1.30D-03 DE=-9.71D-04 OVMax= 8.14D-03

 Cycle   7  Pass 1  IDiag  1:
 RMSU=  1.07D-05    CP:  9.64D-01  1.50D+00  6.87D-01  6.23D-01  8.60D-01
                    CP:  7.44D-01
 E= -4069.81218028174     Delta-E=       -0.000188107468 Rises=F Damp=F
 DIIS: error= 1.03D-04 at cycle   7 NSaved=   7.
 NSaved= 7 IEnMin= 7 EnMin= -4069.81218028174     IErMin= 7 ErrMin= 1.03D-04
 ErrMax= 1.03D-04  0.00D+00 EMaxC= 1.00D-01 BMatC= 2.11D-05 BMatP= 1.76D-04
 IDIUse=3 WtCom= 9.99D-01 WtEn= 1.03D-03
 Coeff-Com:  0.442D-02-0.968D-02-0.883D-02-0.358D-02 0.104D+00 0.331D+00
 Coeff-Com:  0.582D+00
 Coeff-En:   0.000D+00 0.000D+00 0.000D+00 0.000D+00 0.000D+00 0.000D+00
 Coeff-En:   0.100D+01
 Coeff:      0.442D-02-0.967D-02-0.882D-02-0.358D-02 0.104D+00 0.331D+00
 Coeff:      0.583D+00
 Gap=     0.120 Goal=   None    Shift=    0.000
 RMSDP=6.47D-06 MaxDP=1.25D-03 DE=-1.88D-04 OVMax= 3.92D-03

 Cycle   8  Pass 1  IDiag  1:
 RMSU=  4.65D-06    CP:  9.64D-01  1.50D+00  6.88D-01  6.28D-01  8.64D-01
                    CP:  8.69D-01  8.17D-01
 E= -4069.81220618484     Delta-E=       -0.000025903100 Rises=F Damp=F
 DIIS: error= 5.18D-05 at cycle   8 NSaved=   8.
 NSaved= 8 IEnMin= 8 EnMin= -4069.81220618484     IErMin= 8 ErrMin= 5.18D-05
 ErrMax= 5.18D-05  0.00D+00 EMaxC= 1.00D-01 BMatC= 4.62D-06 BMatP= 2.11D-05
 IDIUse=1 WtCom= 1.00D+00 WtEn= 0.00D+00
 Coeff-Com:  0.215D-02-0.425D-02-0.773D-02-0.121D-01-0.120D-01 0.358D-01
 Coeff-Com:  0.337D+00 0.661D+00
 Coeff:      0.215D-02-0.425D-02-0.773D-02-0.121D-01-0.120D-01 0.358D-01
 Coeff:      0.337D+00 0.661D+00
 Gap=     0.120 Goal=   None    Shift=    0.000
 RMSDP=3.35D-06 MaxDP=5.41D-04 DE=-2.59D-05 OVMax= 1.22D-03

 Cycle   9  Pass 1  IDiag  1:
 RMSU=  1.96D-06    CP:  9.64D-01  1.50D+00  6.88D-01  6.29D-01  8.81D-01
                    CP:  8.95D-01  1.02D+00  9.25D-01
 E= -4069.81221360001     Delta-E=       -0.000007415172 Rises=F Damp=F
 DIIS: error= 2.10D-05 at cycle   9 NSaved=   9.
 NSaved= 9 IEnMin= 9 EnMin= -4069.81221360001     IErMin= 9 ErrMin= 2.10D-05
 ErrMax= 2.10D-05  0.00D+00 EMaxC= 1.00D-01 BMatC= 7.25D-07 BMatP= 4.62D-06
 IDIUse=1 WtCom= 1.00D+00 WtEn= 0.00D+00
 Coeff-Com:  0.490D-03-0.823D-03-0.276D-02-0.614D-02-0.221D-01-0.364D-01
 Coeff-Com:  0.102D+00 0.344D+00 0.621D+00
 Coeff:      0.490D-03-0.823D-03-0.276D-02-0.614D-02-0.221D-01-0.364D-01
 Coeff:      0.102D+00 0.344D+00 0.621D+00
 Gap=     0.120 Goal=   None    Shift=    0.000
 RMSDP=1.39D-06 MaxDP=1.70D-04 DE=-7.42D-06 OVMax= 7.72D-04

 Cycle  10  Pass 1  IDiag  1:
 RMSU=  9.44D-07    CP:  9.64D-01  1.50D+00  6.88D-01  6.29D-01  8.85D-01
                    CP:  9.08D-01  1.06D+00  1.09D+00  1.02D+00
 E= -4069.81221518153     Delta-E=       -0.000001581524 Rises=F Damp=F
 DIIS: error= 9.79D-06 at cycle  10 NSaved=  10.
 NSaved=10 IEnMin=10 EnMin= -4069.81221518153     IErMin=10 ErrMin= 9.79D-06
 ErrMax= 9.79D-06  0.00D+00 EMaxC= 1.00D-01 BMatC= 1.52D-07 BMatP= 7.25D-07
 IDIUse=1 WtCom= 1.00D+00 WtEn= 0.00D+00
 Coeff-Com: -0.405D-03 0.854D-03 0.114D-02 0.973D-03-0.451D-02-0.302D-01
 Coeff-Com: -0.468D-01-0.580D-01 0.242D+00 0.895D+00
 Coeff:     -0.405D-03 0.854D-03 0.114D-02 0.973D-03-0.451D-02-0.302D-01
 Coeff:     -0.468D-01-0.580D-01 0.242D+00 0.895D+00
 Gap=     0.120 Goal=   None    Shift=    0.000
 RMSDP=1.22D-06 MaxDP=1.66D-04 DE=-1.58D-06 OVMax= 6.77D-04

 Cycle  11  Pass 1  IDiag  1:
 RMSU=  5.47D-07    CP:  9.64D-01  1.50D+00  6.88D-01  6.30D-01  8.87D-01
                    CP:  9.18D-01  1.11D+00  1.20D+00  1.36D+00  1.32D+00
 E= -4069.81221592864     Delta-E=       -0.000000747110 Rises=F Damp=F
 DIIS: error= 4.51D-06 at cycle  11 NSaved=  11.
 NSaved=11 IEnMin=11 EnMin= -4069.81221592864     IErMin=11 ErrMin= 4.51D-06
 ErrMax= 4.51D-06  0.00D+00 EMaxC= 1.00D-01 BMatC= 6.52D-08 BMatP= 1.52D-07
 IDIUse=1 WtCom= 1.00D+00 WtEn= 0.00D+00
 Coeff-Com: -0.344D-03 0.673D-03 0.136D-02 0.215D-02 0.386D-02-0.951D-02
 Coeff-Com: -0.478D-01-0.126D+00-0.283D-01 0.512D+00 0.692D+00
 Coeff:     -0.344D-03 0.673D-03 0.136D-02 0.215D-02 0.386D-02-0.951D-02
 Coeff:     -0.478D-01-0.126D+00-0.283D-01 0.512D+00 0.692D+00
 Gap=     0.120 Goal=   None    Shift=    0.000
 RMSDP=6.64D-07 MaxDP=5.51D-05 DE=-7.47D-07 OVMax= 3.20D-04

 Cycle  12  Pass 1  IDiag  1:
 RMSU=  2.75D-07    CP:  9.64D-01  1.50D+00  6.88D-01  6.30D-01  8.88D-01
                    CP:  9.21D-01  1.13D+00  1.26D+00  1.50D+00  1.71D+00
                    CP:  1.13D+00
 E= -4069.81221618698     Delta-E=       -0.000000258340 Rises=F Damp=F
 DIIS: error= 3.92D-06 at cycle  12 NSaved=  12.
 NSaved=12 IEnMin=12 EnMin= -4069.81221618698     IErMin=12 ErrMin= 3.92D-06
 ErrMax= 3.92D-06  0.00D+00 EMaxC= 1.00D-01 BMatC= 1.37D-08 BMatP= 6.52D-08
 IDIUse=1 WtCom= 1.00D+00 WtEn= 0.00D+00
 Coeff-Com: -0.338D-04 0.499D-04 0.306D-03 0.714D-03 0.353D-02 0.338D-02
 Coeff-Com: -0.346D-02-0.427D-01-0.786D-01-0.509D-02 0.263D+00 0.859D+00
 Coeff:     -0.338D-04 0.499D-04 0.306D-03 0.714D-03 0.353D-02 0.338D-02
 Coeff:     -0.346D-02-0.427D-01-0.786D-01-0.509D-02 0.263D+00 0.859D+00
 Gap=     0.120 Goal=   None    Shift=    0.000
 RMSDP=4.31D-07 MaxDP=2.95D-05 DE=-2.58D-07 OVMax= 3.04D-04

 Cycle  13  Pass 1  IDiag  1:
 RMSU=  1.76D-07    CP:  9.64D-01  1.50D+00  6.88D-01  6.30D-01  8.88D-01
                    CP:  9.21D-01  1.14D+00  1.29D+00  1.61D+00  1.91D+00
                    CP:  1.53D+00  1.17D+00
 E= -4069.81221627524     Delta-E=       -0.000000088254 Rises=F Damp=F
 DIIS: error= 2.93D-06 at cycle  13 NSaved=  13.
 NSaved=13 IEnMin=13 EnMin= -4069.81221627524     IErMin=13 ErrMin= 2.93D-06
 ErrMax= 2.93D-06  0.00D+00 EMaxC= 1.00D-01 BMatC= 9.87D-09 BMatP= 1.37D-08
 IDIUse=1 WtCom= 1.00D+00 WtEn= 0.00D+00
 Coeff-Com:  0.114D-03-0.235D-03-0.336D-03-0.387D-03 0.808D-03 0.534D-02
 Coeff-Com:  0.185D-01 0.206D-01-0.422D-01-0.218D+00-0.168D+00 0.626D+00
 Coeff-Com:  0.758D+00
 Coeff:      0.114D-03-0.235D-03-0.336D-03-0.387D-03 0.808D-03 0.534D-02
 Coeff:      0.185D-01 0.206D-01-0.422D-01-0.218D+00-0.168D+00 0.626D+00
 Coeff:      0.758D+00
 Gap=     0.120 Goal=   None    Shift=    0.000
 RMSDP=3.33D-07 MaxDP=2.19D-05 DE=-8.83D-08 OVMax= 1.75D-04

 Cycle  14  Pass 1  IDiag  1:
 RMSU=  8.41D-08    CP:  9.64D-01  1.50D+00  6.88D-01  6.30D-01  8.88D-01
                    CP:  9.22D-01  1.14D+00  1.31D+00  1.68D+00  2.10D+00
                    CP:  1.75D+00  1.71D+00  1.08D+00
 E= -4069.81221631607     Delta-E=       -0.000000040833 Rises=F Damp=F
 DIIS: error= 1.12D-06 at cycle  14 NSaved=  14.
 NSaved=14 IEnMin=14 EnMin= -4069.81221631607     IErMin=14 ErrMin= 1.12D-06
 ErrMax= 1.12D-06  0.00D+00 EMaxC= 1.00D-01 BMatC= 1.26D-09 BMatP= 9.87D-09
 IDIUse=1 WtCom= 1.00D+00 WtEn= 0.00D+00
 Coeff-Com:  0.734D-04-0.145D-03-0.267D-03-0.410D-03-0.456D-03 0.174D-02
 Coeff-Com:  0.116D-01 0.212D-01-0.121D-02-0.108D+00-0.171D+00 0.138D+00
 Coeff-Com:  0.361D+00 0.749D+00
 Coeff:      0.734D-04-0.145D-03-0.267D-03-0.410D-03-0.456D-03 0.174D-02
 Coeff:      0.116D-01 0.212D-01-0.121D-02-0.108D+00-0.171D+00 0.138D+00
 Coeff:      0.361D+00 0.749D+00
 Gap=     0.120 Goal=   None    Shift=    0.000
 RMSDP=1.29D-07 MaxDP=8.84D-06 DE=-4.08D-08 OVMax= 8.59D-05

 Cycle  15  Pass 1  IDiag  1:
 RMSU=  4.07D-08    CP:  9.64D-01  1.50D+00  6.88D-01  6.30D-01  8.88D-01
                    CP:  9.22D-01  1.15D+00  1.32D+00  1.70D+00  2.16D+00
                    CP:  1.87D+00  1.89D+00  1.32D+00  1.04D+00
 E= -4069.81221632161     Delta-E=       -0.000000005537 Rises=F Damp=F
 DIIS: error= 4.68D-07 at cycle  15 NSaved=  15.
 NSaved=15 IEnMin=15 EnMin= -4069.81221632161     IErMin=15 ErrMin= 4.68D-07
 ErrMax= 4.68D-07  0.00D+00 EMaxC= 1.00D-01 BMatC= 3.31D-10 BMatP= 1.26D-09
 IDIUse=1 WtCom= 1.00D+00 WtEn= 0.00D+00
 Coeff-Com:  0.134D-04-0.247D-04-0.621D-04-0.127D-03-0.371D-03-0.322D-03
 Coeff-Com:  0.225D-02 0.550D-02 0.811D-02-0.489D-02-0.531D-01-0.391D-01
 Coeff-Com:  0.764D-02 0.378D+00 0.696D+00
 Coeff:      0.134D-04-0.247D-04-0.621D-04-0.127D-03-0.371D-03-0.322D-03
 Coeff:      0.225D-02 0.550D-02 0.811D-02-0.489D-02-0.531D-01-0.391D-01
 Coeff:      0.764D-02 0.378D+00 0.696D+00
 Gap=     0.120 Goal=   None    Shift=    0.000
 RMSDP=3.91D-08 MaxDP=4.10D-06 DE=-5.54D-09 OVMax= 1.92D-05

 Cycle  16  Pass 1  IDiag  1:
 RMSU=  2.01D-08    CP:  9.64D-01  1.50D+00  6.88D-01  6.30D-01  8.88D-01
                    CP:  9.22D-01  1.15D+00  1.32D+00  1.70D+00  2.17D+00
                    CP:  1.89D+00  1.95D+00  1.39D+00  1.26D+00  1.13D+00
 E= -4069.81221632254     Delta-E=       -0.000000000931 Rises=F Damp=F
 DIIS: error= 1.91D-07 at cycle  16 NSaved=  16.
 NSaved=16 IEnMin=16 EnMin= -4069.81221632254     IErMin=16 ErrMin= 1.91D-07
 ErrMax= 1.91D-07  0.00D+00 EMaxC= 1.00D-01 BMatC= 8.62D-11 BMatP= 3.31D-10
 IDIUse=1 WtCom= 1.00D+00 WtEn= 0.00D+00
 Coeff-Com: -0.133D-04 0.270D-04 0.425D-04 0.451D-04-0.591D-04-0.639D-03
 Coeff-Com: -0.191D-02-0.357D-02 0.414D-02 0.257D-01 0.142D-01-0.486D-01
 Coeff-Com: -0.107D+00 0.100D-01 0.329D+00 0.778D+00
 Coeff:     -0.133D-04 0.270D-04 0.425D-04 0.451D-04-0.591D-04-0.639D-03
 Coeff:     -0.191D-02-0.357D-02 0.414D-02 0.257D-01 0.142D-01-0.486D-01
 Coeff:     -0.107D+00 0.100D-01 0.329D+00 0.778D+00
 Gap=     0.120 Goal=   None    Shift=    0.000
 RMSDP=2.80D-08 MaxDP=2.12D-06 DE=-9.31D-10 OVMax= 1.79D-05

 Cycle  17  Pass 1  IDiag  1:
 RMSU=  1.27D-08    CP:  9.64D-01  1.50D+00  6.88D-01  6.30D-01  8.88D-01
                    CP:  9.22D-01  1.15D+00  1.32D+00  1.71D+00  2.18D+00
                    CP:  1.90D+00  1.98D+00  1.43D+00  1.36D+00  1.44D+00
                    CP:  1.18D+00
 E= -4069.81221632280     Delta-E=       -0.000000000266 Rises=F Damp=F
 DIIS: error= 9.94D-08 at cycle  17 NSaved=  17.
 NSaved=17 IEnMin=17 EnMin= -4069.81221632280     IErMin=17 ErrMin= 9.94D-08
 ErrMax= 9.94D-08  0.00D+00 EMaxC= 1.00D-01 BMatC= 2.67D-11 BMatP= 8.62D-11
 IDIUse=1 WtCom= 1.00D+00 WtEn= 0.00D+00
 Coeff-Com: -0.951D-05 0.187D-04 0.362D-04 0.518D-04 0.756D-04-0.221D-03
 Coeff-Com: -0.136D-02-0.327D-02 0.342D-03 0.144D-01 0.190D-01-0.760D-02
 Coeff-Com: -0.590D-01-0.824D-01-0.560D-01 0.381D+00 0.795D+00
 Coeff:     -0.951D-05 0.187D-04 0.362D-04 0.518D-04 0.756D-04-0.221D-03
 Coeff:     -0.136D-02-0.327D-02 0.342D-03 0.144D-01 0.190D-01-0.760D-02
 Coeff:     -0.590D-01-0.824D-01-0.560D-01 0.381D+00 0.795D+00
 Gap=     0.120 Goal=   None    Shift=    0.000
 RMSDP=1.50D-08 MaxDP=9.81D-07 DE=-2.66D-10 OVMax= 8.83D-06

 Cycle  18  Pass 1  IDiag  1:
 RMSU=  5.79D-09    CP:  9.64D-01  1.50D+00  6.88D-01  6.30D-01  8.88D-01
                    CP:  9.22D-01  1.15D+00  1.32D+00  1.71D+00  2.18D+00
                    CP:  1.91D+00  1.99D+00  1.45D+00  1.43D+00  1.61D+00
                    CP:  1.58D+00  1.32D+00
 E= -4069.81221632307     Delta-E=       -0.000000000269 Rises=F Damp=F
 DIIS: error= 8.15D-08 at cycle  18 NSaved=  18.
 NSaved=18 IEnMin=18 EnMin= -4069.81221632307     IErMin=18 ErrMin= 8.15D-08
 ErrMax= 8.15D-08  0.00D+00 EMaxC= 1.00D-01 BMatC= 7.98D-12 BMatP= 2.67D-11
 IDIUse=1 WtCom= 1.00D+00 WtEn= 0.00D+00
 Coeff-Com: -0.340D-07-0.311D-06 0.327D-05 0.934D-05 0.714D-04 0.134D-03
 Coeff-Com:  0.779D-04-0.450D-03-0.132D-02-0.262D-02 0.259D-02 0.176D-01
 Coeff-Com:  0.598D-02-0.356D-01-0.159D+00-0.755D-01 0.356D+00 0.892D+00
 Coeff:     -0.340D-07-0.311D-06 0.327D-05 0.934D-05 0.714D-04 0.134D-03
 Coeff:      0.779D-04-0.450D-03-0.132D-02-0.262D-02 0.259D-02 0.176D-01
 Coeff:      0.598D-02-0.356D-01-0.159D+00-0.755D-01 0.356D+00 0.892D+00
 Gap=     0.120 Goal=   None    Shift=    0.000
 RMSDP=1.12D-08 MaxDP=8.15D-07 DE=-2.69D-10 OVMax= 6.81D-06

 Cycle  19  Pass 1  IDiag  1:
 RMSU=  3.29D-09    CP:  9.64D-01  1.50D+00  6.88D-01  6.30D-01  8.88D-01
                    CP:  9.22D-01  1.15D+00  1.32D+00  1.71D+00  2.19D+00
                    CP:  1.91D+00  2.00D+00  1.46D+00  1.46D+00  1.75D+00
                    CP:  1.83D+00  1.82D+00  1.23D+00
 E= -4069.81221632285     Delta-E=        0.000000000222 Rises=F Damp=F
 DIIS: error= 2.78D-08 at cycle  19 NSaved=  19.
 NSaved=19 IEnMin=18 EnMin= -4069.81221632307     IErMin=19 ErrMin= 2.78D-08
 ErrMax= 2.78D-08  0.00D+00 EMaxC= 1.00D-01 BMatC= 3.10D-12 BMatP= 7.98D-12
 IDIUse=1 WtCom= 1.00D+00 WtEn= 0.00D+00
 Coeff-Com:  0.345D-05-0.700D-05-0.113D-04-0.135D-04 0.205D-04 0.161D-03
 Coeff-Com:  0.568D-03 0.920D-03-0.856D-03-0.696D-02-0.596D-02 0.147D-01
 Coeff-Com:  0.244D-01 0.116D-01-0.842D-01-0.195D+00-0.106D+00 0.546D+00
 Coeff-Com:  0.802D+00
 Coeff:      0.345D-05-0.700D-05-0.113D-04-0.135D-04 0.205D-04 0.161D-03
 Coeff:      0.568D-03 0.920D-03-0.856D-03-0.696D-02-0.596D-02 0.147D-01
 Coeff:      0.244D-01 0.116D-01-0.842D-01-0.195D+00-0.106D+00 0.546D+00
 Coeff:      0.802D+00
 Gap=     0.120 Goal=   None    Shift=    0.000
 RMSDP=7.65D-09 MaxDP=5.09D-07 DE= 2.22D-10 OVMax= 4.50D-06

 SCF Done:  E(RCAM-B3LYP) =  -4069.81221632     A.U. after   19 cycles
            NFock= 19  Conv=0.76D-08     -V/T= 2.0102
 KE= 4.028801184460D+03 PE=-4.042855667672D+04 EE= 1.685621661081D+04
 Leave Link  502 at Thu Sep  9 20:00:08 2021, MaxMem= 23488102400 cpu:           15333.8 elap:             663.8
 (Enter /sw/apps/gaussian-16.0/g16/l801.exe)
 DoSCS=F DFT=T ScalE2(SS,OS)=  1.000000  1.000000
 ExpMin= 3.36D-02 ExpMax= 4.95D+03 ExpMxC= 7.45D+02 IAcc=3 IRadAn=         5 AccDes= 0.00D+00
 HarFok:  IExCor=  205 AccDes= 0.00D+00 IRadAn=         5 IDoV=-2 UseB2=F ITyADJ=14
 ICtDFT= 12500011 ScaDFX=  1.000000  1.000000  1.000000  1.000000
 GSVD:  LWork=       -9588 too small for GESVD, short by       45590 words or       45590 for optimal perf.
 Largest valence mixing into a core orbital is  2.03D-04
 Largest core mixing into a valence orbital is  5.27D-05
 Range of M.O.s used for correlation:    95  1572
 NBasis=  1572 NAE=   312 NBE=   312 NFC=    94 NFV=     0
 NROrb=   1478 NOA=   218 NOB=   218 NVA=  1260 NVB=  1260
 Leave Link  801 at Thu Sep  9 20:00:08 2021, MaxMem= 23488102400 cpu:               9.2 elap:               0.4
 (Enter /sw/apps/gaussian-16.0/g16/l914.exe)
 RHF ground state
 Two-electron integrals replicated using symmetry.
 MDV= 23488102400 DFT=T DoStab=F Mixed=T DoRPA=T DoScal=F NonHer=T
 Making orbital integer symmetry assigments:
 Orbital symmetries:
       Occupied  (A) (A) (A) (A) (A) (A) (A) (A) (A) (A) (A) (A)
                 (A) (A) (A) (A) (A) (A) (A) (A) (A) (A) (A) (A)
                 (A) (A) (A) (A) (A) (A) (A) (A) (A) (A) (A) (A)
                 (A) (A) (A) (A) (A) (A) (A) (A) (A) (A) (A) (A)
                 (A) (A) (A) (A) (A) (A) (A) (A) (A) (A) (A) (A)
                 (A) (A) (A) (A) (A) (A) (A) (A) (A) (A) (A) (A)
                 (A) (A) (A) (A) (A) (A) (A) (A) (A) (A) (A) (A)
                 (A) (A) (A) (A) (A) (A) (A) (A) (A) (A) (A) (A)
                 (A) (A) (A) (A) (A) (A) (A) (A) (A) (A) (A) (A)
                 (A) (A) (A) (A) (A) (A) (A) (A) (A) (A) (A) (A)
                 (A) (A) (A) (A) (A) (A) (A) (A) (A) (A) (A) (A)
                 (A) (A) (A) (A) (A) (A) (A) (A) (A) (A) (A) (A)
                 (A) (A) (A) (A) (A) (A) (A) (A) (A) (A) (A) (A)
                 (A) (A) (A) (A) (A) (A) (A) (A) (A) (A) (A) (A)
                 (A) (A) (A) (A) (A) (A) (A) (A) (A) (A) (A) (A)
                 (A) (A) (A) (A) (A) (A) (A) (A) (A) (A) (A) (A)
                 (A) (A) (A) (A) (A) (A) (A) (A) (A) (A) (A) (A)
                 (A) (A) (A) (A) (A) (A) (A) (A) (A) (A) (A) (A)
                 (A) (A) (A) (A) (A) (A) (A) (A) (A) (A) (A) (A)
                 (A) (A) (A) (A) (A) (A) (A) (A) (A) (A) (A) (A)
                 (A) (A) (A) (A) (A) (A) (A) (A) (A) (A) (A) (A)
                 (A) (A) (A) (A) (A) (A) (A) (A) (A) (A) (A) (A)
                 (A) (A) (A) (A) (A) (A) (A) (A) (A) (A) (A) (A)
                 (A) (A) (A) (A) (A) (A) (A) (A) (A) (A) (A) (A)
                 (A) (A) (A) (A) (A) (A) (A) (A) (A) (A) (A) (A)
                 (A) (A) (A) (A) (A) (A) (A) (A) (A) (A) (A) (A)
       Virtual   (A) (A) (A) (A) (A) (A) (A) (A) (A) (A) (A) (A)
                 (A) (A) (A) (A) (A) (A) (A) (A) (A) (A) (A) (A)
                 (A) (A) (A) (A) (A) (A) (A) (A) (A) (A) (A) (A)
                 (A) (A) (A) (A) (A) (A) (A) (A) (A) (A) (A) (A)
                 (A) (A) (A) (A) (A) (A) (A) (A) (A) (A) (A) (A)
                 (A) (A) (A) (A) (A) (A) (A) (A) (A) (A) (A) (A)
                 (A) (A) (A) (A) (A) (A) (A) (A) (A) (A) (A) (A)
                 (A) (A) (A) (A) (A) (A) (A) (A) (A) (A) (A) (A)
                 (A) (A) (A) (A) (A) (A) (A) (A) (A) (A) (A) (A)
                 (A) (A) (A) (A) (A) (A) (A) (A) (A) (A) (A) (A)
                 (A) (A) (A) (A) (A) (A) (A) (A) (A) (A) (A) (A)
                 (A) (A) (A) (A) (A) (A) (A) (A) (A) (A) (A) (A)
                 (A) (A) (A) (A) (A) (A) (A) (A) (A) (A) (A) (A)
                 (A) (A) (A) (A) (A) (A) (A) (A) (A) (A) (A) (A)
                 (A) (A) (A) (A) (A) (A) (A) (A) (A) (A) (A) (A)
                 (A) (A) (A) (A) (A) (A) (A) (A) (A) (A) (A) (A)
                 (A) (A) (A) (A) (A) (A) (A) (A) (A) (A) (A) (A)
                 (A) (A) (A) (A) (A) (A) (A) (A) (A) (A) (A) (A)
                 (A) (A) (A) (A) (A) (A) (A) (A) (A) (A) (A) (A)
                 (A) (A) (A) (A) (A) (A) (A) (A) (A) (A) (A) (A)
                 (A) (A) (A) (A) (A) (A) (A) (A) (A) (A) (A) (A)
                 (A) (A) (A) (A) (A) (A) (A) (A) (A) (A) (A) (A)
                 (A) (A) (A) (A) (A) (A) (A) (A) (A) (A) (A) (A)
                 (A) (A) (A) (A) (A) (A) (A) (A) (A) (A) (A) (A)
                 (A) (A) (A) (A) (A) (A) (A) (A) (A) (A) (A) (A)
                 (A) (A) (A) (A) (A) (A) (A) (A) (A) (A) (A) (A)
                 (A) (A) (A) (A) (A) (A) (A) (A) (A) (A) (A) (A)
                 (A) (A) (A) (A) (A) (A) (A) (A) (A) (A) (A) (A)
                 (A) (A) (A) (A) (A) (A) (A) (A) (A) (A) (A) (A)
                 (A) (A) (A) (A) (A) (A) (A) (A) (A) (A) (A) (A)
                 (A) (A) (A) (A) (A) (A) (A) (A) (A) (A) (A) (A)
                 (A) (A) (A) (A) (A) (A) (A) (A) (A) (A) (A) (A)
                 (A) (A) (A) (A) (A) (A) (A) (A) (A) (A) (A) (A)
                 (A) (A) (A) (A) (A) (A) (A) (A) (A) (A) (A) (A)
                 (A) (A) (A) (A) (A) (A) (A) (A) (A) (A) (A) (A)
                 (A) (A) (A) (A) (A) (A) (A) (A) (A) (A) (A) (A)
                 (A) (A) (A) (A) (A) (A) (A) (A) (A) (A) (A) (A)
                 (A) (A) (A) (A) (A) (A) (A) (A) (A) (A) (A) (A)
                 (A) (A) (A) (A) (A) (A) (A) (A) (A) (A) (A) (A)
                 (A) (A) (A) (A) (A) (A) (A) (A) (A) (A) (A) (A)
                 (A) (A) (A) (A) (A) (A) (A) (A) (A) (A) (A) (A)
                 (A) (A) (A) (A) (A) (A) (A) (A) (A) (A) (A) (A)
                 (A) (A) (A) (A) (A) (A) (A) (A) (A) (A) (A) (A)
                 (A) (A) (A) (A) (A) (A) (A) (A) (A) (A) (A) (A)
                 (A) (A) (A) (A) (A) (A) (A) (A) (A) (A) (A) (A)
                 (A) (A) (A) (A) (A) (A) (A) (A) (A) (A) (A) (A)
                 (A) (A) (A) (A) (A) (A) (A) (A) (A) (A) (A) (A)
                 (A) (A) (A) (A) (A) (A) (A) (A) (A) (A) (A) (A)
                 (A) (A) (A) (A) (A) (A) (A) (A) (A) (A) (A) (A)
                 (A) (A) (A) (A) (A) (A) (A) (A) (A) (A) (A) (A)
                 (A) (A) (A) (A) (A) (A) (A) (A) (A) (A) (A) (A)
                 (A) (A) (A) (A) (A) (A) (A) (A) (A) (A) (A) (A)
                 (A) (A) (A) (A) (A) (A) (A) (A) (A) (A) (A) (A)
                 (A) (A) (A) (A) (A) (A) (A) (A) (A) (A) (A) (A)
                 (A) (A) (A) (A) (A) (A) (A) (A) (A) (A) (A) (A)
                 (A) (A) (A) (A) (A) (A) (A) (A) (A) (A) (A) (A)
                 (A) (A) (A) (A) (A) (A) (A) (A) (A) (A) (A) (A)
                 (A) (A) (A) (A) (A) (A) (A) (A) (A) (A) (A) (A)
                 (A) (A) (A) (A) (A) (A) (A) (A) (A) (A) (A) (A)
                 (A) (A) (A) (A) (A) (A) (A) (A) (A) (A) (A) (A)
                 (A) (A) (A) (A) (A) (A) (A) (A) (A) (A) (A) (A)
                 (A) (A) (A) (A) (A) (A) (A) (A) (A) (A) (A) (A)
                 (A) (A) (A) (A) (A) (A) (A) (A) (A) (A) (A) (A)
                 (A) (A) (A) (A) (A) (A) (A) (A) (A) (A) (A) (A)
                 (A) (A) (A) (A) (A) (A) (A) (A) (A) (A) (A) (A)
                 (A) (A) (A) (A) (A) (A) (A) (A) (A) (A) (A) (A)
                 (A) (A) (A) (A) (A) (A) (A) (A) (A) (A) (A) (A)
                 (A) (A) (A) (A) (A) (A) (A) (A) (A) (A) (A) (A)
                 (A) (A) (A) (A) (A) (A) (A) (A) (A) (A) (A) (A)
                 (A) (A) (A) (A) (A) (A) (A) (A) (A) (A) (A) (A)
                 (A) (A) (A) (A) (A) (A) (A) (A) (A) (A) (A) (A)
                 (A) (A) (A) (A) (A) (A) (A) (A) (A) (A) (A) (A)
                 (A) (A) (A) (A) (A) (A) (A) (A) (A) (A) (A) (A)
                 (A) (A) (A) (A) (A) (A) (A) (A) (A) (A) (A) (A)
                 (A) (A) (A) (A) (A) (A) (A) (A) (A) (A) (A) (A)
                 (A) (A) (A) (A) (A) (A) (A) (A) (A) (A) (A) (A)
                 (A) (A) (A) (A) (A) (A) (A) (A) (A) (A) (A) (A)
                 (A) (A) (A) (A) (A) (A) (A) (A) (A) (A) (A) (A)
                 (A) (A) (A) (A) (A) (A) (A) (A) (A) (A) (A) (A)
                 (A) (A) (A) (A) (A) (A) (A) (A) (A) (A) (A) (A)
                 (A) (A) (A) (A) (A) (A) (A) (A) (A) (A) (A) (A)
                 (A) (A) (A) (A) (A) (A) (A) (A) (A) (A) (A) (A)
                 (A) (A) (A) (A) (A) (A) (A) (A) (A) (A) (A) (A)
                 (A) (A) (A) (A) (A) (A) (A) (A) (A) (A) (A) (A)
                 (A) (A) (A) (A) (A) (A) (A) (A) (A) (A) (A) (A)
                 (A) (A) (A) (A) (A) (A) (A) (A) (A) (A) (A) (A)
                 (A) (A) (A) (A) (A) (A) (A) (A) (A) (A) (A) (A)
                 (A) (A) (A) (A) (A) (A) (A) (A) (A) (A) (A) (A)
                 (A) (A) (A) (A) (A) (A) (A) (A) (A) (A) (A) (A)
                 (A) (A) (A) (A) (A) (A) (A) (A) (A) (A) (A) (A)
                 (A) (A) (A) (A) (A) (A) (A) (A) (A) (A) (A) (A)
                 (A) (A) (A) (A) (A) (A) (A) (A) (A) (A) (A) (A)
                 (A) (A) (A) (A) (A) (A) (A) (A) (A) (A) (A) (A)
                 (A) (A) (A) (A) (A) (A) (A) (A) (A) (A) (A) (A)
                 (A) (A) (A) (A) (A) (A) (A) (A) (A) (A) (A) (A)
                 (A) (A) (A) (A) (A) (A) (A) (A) (A) (A) (A) (A)
                 (A) (A) (A) (A) (A) (A) (A) (A) (A) (A) (A) (A)
                 (A) (A) (A) (A) (A) (A) (A) (A) (A) (A) (A) (A)
                 (A) (A) (A) (A) (A) (A) (A) (A) (A) (A) (A) (A)
                 (A) (A) (A) (A) (A) (A) (A) (A) (A) (A) (A) (A)
                 (A) (A) (A) (A) (A) (A) (A) (A) (A) (A) (A) (A)
                 (A) (A) (A) (A) (A) (A) (A) (A) (A) (A) (A) (A)
                 (A) (A) (A) (A) (A) (A) (A) (A) (A) (A) (A) (A)
                 (A) (A) (A) (A) (A) (A) (A) (A) (A) (A) (A) (A)
                 (A) (A) (A) (A) (A) (A) (A) (A) (A) (A) (A) (A)
    20 initial guesses have been made.
 Convergence on wavefunction:    0.001000000000000
 Davidson Disk Diagonalization:  ConvIn= 1.00D-03 SkipCon=T Conv= 1.00D-03.
 Max sub-space:  2000 roots to seek:    20 dimension of matrix:       549360
 Iteration     1 Dimension    20 NMult     0 NNew     20
 CISAX will form    20 AO SS matrices at one time.
 NMat=    20 NSing=    20 JSym2X= 0.
 FoFJK:  IHMeth= 1 ICntrl=       0 DoSepK=T KAlg= 0 I1Cent=           0 FoldK=F
 IRaf=         1 NMat=      40 IRICut=       1 DoRegI=T DoRafI=F ISym2E= 0 IDoP0=3 IntGTp=3.
 FoFCou: FMM=T IPFlag=           0 FMFlag=      100000 FMFlg1=        2001
         NFxFlg=           0 DoJE=F BraDBF=F KetDBF=F FulRan=T
         wScrn=  0.000000 ICntrl=       500 IOpCl=  0 I1Cent=           0 NGrid=           0
         NMat0=   20 NMatS0=     20 NMatT0=    0 NMatD0=   20 NMtDS0=    0 NMtDT0=    0
 Symmetry not used in FoFCou.
 FMM levels:  10  Number of levels for PrismC:   9
 New state      2 was old state      4
 New state      3 was old state      6
 New state      4 was old state      7
 New state      5 was old state      2
 Excitation Energies [eV] at current iteration:
 Root      1 :     2.346049647831976
 Root      2 :     2.530024545981715
 Root      3 :     2.605258169454204
 Root      4 :     2.617714314003143
 Root      5 :     2.642314415619978
 Root      6 :     2.730718276124185
 Root      7 :     3.128983656931941
 Root      8 :     3.327164247945501
 Root      9 :     3.638010172312188
 Root     10 :     3.668337855776968
 Root     11 :     3.739039234294161
 Root     12 :     3.756869783065738
 Root     13 :     4.241557791444382
 Root     14 :     4.265180351329512
 Root     15 :     4.347080874282125
 Root     16 :     4.468958179179277
 Root     17 :     4.587382483247140
 Root     18 :     4.625173177214557
 Root     19 :     4.730039836965587
 Root     20 :     4.757784020561159
 Iteration     2 Dimension    30 NMult    20 NNew     10
 CISAX will form    10 AO SS matrices at one time.
 NMat=    10 NSing=    10 JSym2X= 0.
 New state      1 was old state      5
 Root      1 not converged, maximum delta is    0.289883900127003
 New state      2 was old state      3
 Root      2 not converged, maximum delta is    0.252013316949407
 New state      3 was old state      4
 Root      3 not converged, maximum delta is    0.318293766854779
 New state      4 was old state      1
 Root      4 not converged, maximum delta is    0.003774507603632
 New state      5 was old state      2
 Root      5 not converged, maximum delta is    0.006198244135930
 Excitation Energies [eV] at current iteration:
 Root      1 :     1.779327532670966   Change is   -0.862986882949011
 Root      2 :     2.207314395975188   Change is   -0.397943773479017
 Root      3 :     2.240670920818773   Change is   -0.377043393184371
 Root      4 :     2.345233320010625   Change is   -0.000816327821351
 Root      5 :     2.529006417208800   Change is   -0.001018128772916
 Iteration     3 Dimension    40 NMult    30 NNew     10
 CISAX will form    10 AO SS matrices at one time.
 NMat=    10 NSing=    10 JSym2X= 0.
 Root      1 not converged, maximum delta is    0.055614554620015
 Root      2 not converged, maximum delta is    0.403016331200346
 Root      3 not converged, maximum delta is    0.366735324547501
 No map to state      4
 New state      5 was old state      4
 Root      5 has converged.
 Excitation Energies [eV] at current iteration:
 Root      1 :     1.674306723988467   Change is   -0.105020808682499
 Root      2 :     1.837959837538639   Change is   -0.369354558436548
 Root      3 :     2.194466255039958   Change is   -0.046204665778815
 Root      4 :     2.213903690598870
 Root      5 :     2.345227899005073   Change is   -0.000005421005552
 Iteration     4 Dimension    48 NMult    40 NNew      8
 CISAX will form     8 AO SS matrices at one time.
 NMat=     8 NSing=     8 JSym2X= 0.
 Root      1 not converged, maximum delta is    0.013533391292953
 Root      2 not converged, maximum delta is    0.060499752219240
 Root      3 not converged, maximum delta is    0.242542806457397
 Root      4 not converged, maximum delta is    0.236774780075505
 Root      5 has converged.
 Excitation Energies [eV] at current iteration:
 Root      1 :     1.657688949878899   Change is   -0.016617774109568
 Root      2 :     1.707120060204065   Change is   -0.130839777334575
 Root      3 :     2.182920835963077   Change is   -0.011545419076881
 Root      4 :     2.196665590528668   Change is   -0.017238100070202
 Root      5 :     2.345227721936873   Change is   -0.000000177068199
 Iteration     5 Dimension    56 NMult    48 NNew      8
 CISAX will form     8 AO SS matrices at one time.
 NMat=     8 NSing=     8 JSym2X= 0.
 Root      1 not converged, maximum delta is    0.001718020042848
 Root      2 not converged, maximum delta is    0.008617939053424
 Root      3 not converged, maximum delta is    0.018630865285582
 Root      4 not converged, maximum delta is    0.018712108557245
 Root      5 has converged.
 Excitation Energies [eV] at current iteration:
 Root      1 :     1.655940717160358   Change is   -0.001748232718542
 Root      2 :     1.694309100947030   Change is   -0.012810959257035
 Root      3 :     2.181565132389751   Change is   -0.001355703573326
 Root      4 :     2.195380261045334   Change is   -0.001285329483334
 Root      5 :     2.345227683452664   Change is   -0.000000038484209
 Iteration     6 Dimension    64 NMult    56 NNew      8
 CISAX will form     8 AO SS matrices at one time.
 NMat=     8 NSing=     8 JSym2X= 0.
 Root      1 has converged.
 Root      2 not converged, maximum delta is    0.002732981566233
 Root      3 not converged, maximum delta is    0.001603450199088
 Root      4 not converged, maximum delta is    0.001680461838928
 Root      5 has converged.
 Excitation Energies [eV] at current iteration:
 Root      1 :     1.655692080305988   Change is   -0.000248636854369
 Root      2 :     1.692681959247838   Change is   -0.001627141699192
 Root      3 :     2.181397370917157   Change is   -0.000167761472593
 Root      4 :     2.195205267863312   Change is   -0.000174993182021
 Root      5 :     2.345227677221694   Change is   -0.000000006230970
 Iteration     7 Dimension    70 NMult    64 NNew      6
 CISAX will form     6 AO SS matrices at one time.
 NMat=     6 NSing=     6 JSym2X= 0.
 Root      1 has converged.
 Root      2 not converged, maximum delta is    0.001293374712367
 Root      3 has converged.
 Root      4 has converged.
 Root      5 has converged.
 Excitation Energies [eV] at current iteration:
 Root      1 :     1.655690982233079   Change is   -0.000001098072910
[...]
 Alpha virt. eigenvalues --    1.84381   1.84721   1.84738   1.84940   1.84959
 Alpha virt. eigenvalues --    1.85185   1.85305   1.85413   1.85484   1.85660
 Alpha virt. eigenvalues --    1.85772   1.86076   1.86245   1.86461   1.86607
 Alpha virt. eigenvalues --    1.86674   1.86835   1.86902   1.87095   1.87206
 Alpha virt. eigenvalues --    1.87343   1.87581   1.87645   1.87766   1.87938
 Alpha virt. eigenvalues --    1.87956   1.88267   1.88358   1.88458   1.88754
 Alpha virt. eigenvalues --    1.88779   1.88993   1.89141   1.89375   1.89549
 Alpha virt. eigenvalues --    1.89670   1.89848   1.90026   1.90043   1.90367
 Alpha virt. eigenvalues --    1.90652   1.91098   1.91248   1.91338   1.91744
 Alpha virt. eigenvalues --    1.91811   1.92068   1.92340   1.92542   1.92834
 Alpha virt. eigenvalues --    1.92893   1.93218   1.93356   1.93753   1.94140
 Alpha virt. eigenvalues --    1.94530   1.94594   1.95066   1.95329   1.95638
 Alpha virt. eigenvalues --    1.95894   1.95914   1.95983   1.96018   1.96265
 Alpha virt. eigenvalues --    1.96339   1.96485   1.96684   1.96824   1.97131
 Alpha virt. eigenvalues --    1.97334   1.97716   1.97729   1.97961   1.98091
 Alpha virt. eigenvalues --    1.98345   1.98479   1.98590   1.99048   1.99302
 Alpha virt. eigenvalues --    1.99752   2.00095   2.00561   2.00892   2.00954
 Alpha virt. eigenvalues --    2.01260   2.01404   2.01553   2.01631   2.01733
 Alpha virt. eigenvalues --    2.01760   2.01974   2.02690   2.02892   2.03112
 Alpha virt. eigenvalues --    2.03311   2.03396   2.03484   2.03530   2.03671
 Alpha virt. eigenvalues --    2.03949   2.04222   2.04875   2.05158   2.05426
 Alpha virt. eigenvalues --    2.05816   2.05991   2.06444   2.06821   2.07097
 Alpha virt. eigenvalues --    2.07139   2.07516   2.08490   2.08752   2.08906
 Alpha virt. eigenvalues --    2.09151   2.09516   2.09754   2.10628   2.11097
 Alpha virt. eigenvalues --    2.11302   2.11456   2.11562   2.11657   2.11678
 Alpha virt. eigenvalues --    2.12023   2.12377   2.12628   2.12733   2.12746
 Alpha virt. eigenvalues --    2.13003   2.13054   2.13702   2.13804   2.14011
 Alpha virt. eigenvalues --    2.14616   2.15241   2.15584   2.15846   2.16274
 Alpha virt. eigenvalues --    2.16437   2.16687   2.16800   2.17299   2.17320
 Alpha virt. eigenvalues --    2.17605   2.17937   2.17960   2.18137   2.18250
 Alpha virt. eigenvalues --    2.18257   2.18785   2.18809   2.19370   2.19559
 Alpha virt. eigenvalues --    2.19942   2.19983   2.20122   2.20410   2.20596
 Alpha virt. eigenvalues --    2.21010   2.21469   2.21582   2.21665   2.21897
 Alpha virt. eigenvalues --    2.22000   2.22590   2.22886   2.23201   2.23563
 Alpha virt. eigenvalues --    2.24300   2.24611   2.24808   2.25233   2.26220
 Alpha virt. eigenvalues --    2.26585   2.26674   2.27023   2.27185   2.27349
 Alpha virt. eigenvalues --    2.28057   2.28493   2.29183   2.29636   2.29663
 Alpha virt. eigenvalues --    2.30034   2.30374   2.30742   2.30947   2.30983
 Alpha virt. eigenvalues --    2.31087   2.31416   2.32012   2.32469   2.33054
 Alpha virt. eigenvalues --    2.33352   2.33388   2.33672   2.34012   2.34407
 Alpha virt. eigenvalues --    2.35275   2.35419   2.35734   2.36057   2.36219
 Alpha virt. eigenvalues --    2.36480   2.36553   2.36689   2.37539   2.37883
 Alpha virt. eigenvalues --    2.38162   2.38561   2.38793   2.38920   2.39531
 Alpha virt. eigenvalues --    2.39823   2.40048   2.40414   2.40528   2.40968
 Alpha virt. eigenvalues --    2.41184   2.41363   2.41554   2.41873   2.41955
 Alpha virt. eigenvalues --    2.42239   2.42804   2.43067   2.43129   2.43418
 Alpha virt. eigenvalues --    2.44079   2.44149   2.44657   2.44813   2.44963
 Alpha virt. eigenvalues --    2.45172   2.45463   2.45730   2.46229   2.46401
 Alpha virt. eigenvalues --    2.46419   2.46628   2.46727   2.46910   2.47143
 Alpha virt. eigenvalues --    2.47566   2.47618   2.48105   2.49205   2.49645
 Alpha virt. eigenvalues --    2.49917   2.50095   2.50431   2.50609   2.51038
 Alpha virt. eigenvalues --    2.51407   2.51752   2.51804   2.52348   2.52526
 Alpha virt. eigenvalues --    2.52729   2.53325   2.53818   2.54063   2.54164
 Alpha virt. eigenvalues --    2.54493   2.54683   2.54988   2.55427   2.55849
 Alpha virt. eigenvalues --    2.57783   2.58260   2.58540   2.59166   2.60127
 Alpha virt. eigenvalues --    2.60408   2.60537   2.61099   2.61622   2.62029
 Alpha virt. eigenvalues --    2.62448   2.62608   2.62864   2.63305   2.63865
 Alpha virt. eigenvalues --    2.64086   2.64370   2.64768   2.64974   2.65339
 Alpha virt. eigenvalues --    2.65713   2.66012   2.66642   2.66822   2.67010
 Alpha virt. eigenvalues --    2.67258   2.67799   2.68192   2.68756   2.68932
 Alpha virt. eigenvalues --    2.68976   2.69139   2.69259   2.69762   2.69885
 Alpha virt. eigenvalues --    2.70319   2.70867   2.71220   2.71946   2.72018
 Alpha virt. eigenvalues --    2.72570   2.72586   2.72722   2.72851   2.73128
 Alpha virt. eigenvalues --    2.73411   2.73518   2.73535   2.74414   2.74651
 Alpha virt. eigenvalues --    2.74884   2.75192   2.76472   2.76704   2.77150
 Alpha virt. eigenvalues --    2.77181   2.77363   2.77747   2.78088   2.78440
 Alpha virt. eigenvalues --    2.78624   2.78882   2.79035   2.79292   2.80248
 Alpha virt. eigenvalues --    2.80381   2.80501   2.80785   2.81038   2.81260
 Alpha virt. eigenvalues --    2.81856   2.82082   2.82234   2.82516   2.83667
 Alpha virt. eigenvalues --    2.83693   2.83968   2.83986   2.84455   2.84677
 Alpha virt. eigenvalues --    2.84761   2.85121   2.85566   2.85841   2.86785
 Alpha virt. eigenvalues --    2.86870   2.87251   2.87496   2.88074   2.88355
 Alpha virt. eigenvalues --    2.88408   2.88753   2.88834   2.89008   2.90391
 Alpha virt. eigenvalues --    2.90821   2.91056   2.91325   2.93080   2.93466
 Alpha virt. eigenvalues --    2.93941   2.94110   2.94437   2.94776   2.95285
 Alpha virt. eigenvalues --    2.95618   2.95873   2.96077   2.96295   2.96516
 Alpha virt. eigenvalues --    2.96953   2.97064   2.97728   2.98141   2.98193
 Alpha virt. eigenvalues --    2.98265   2.98448   2.98533   2.98704   2.98791
 Alpha virt. eigenvalues --    2.98855   2.99080   2.99445   2.99937   2.99954
 Alpha virt. eigenvalues --    3.00092   3.00141   3.00377   3.00465   3.01153
 Alpha virt. eigenvalues --    3.01830   3.01959   3.02132   3.02248   3.02637
 Alpha virt. eigenvalues --    3.02884   3.02906   3.03239   3.03467   3.03863
 Alpha virt. eigenvalues --    3.04013   3.04226   3.04379   3.04414   3.04612
 Alpha virt. eigenvalues --    3.04806   3.05189   3.05564   3.06019   3.06488
 Alpha virt. eigenvalues --    3.06724   3.07194   3.08049   3.08104   3.09312
 Alpha virt. eigenvalues --    3.09597   3.09637   3.10362   3.10538   3.10892
 Alpha virt. eigenvalues --    3.11190   3.11862   3.11876   3.11973   3.12139
 Alpha virt. eigenvalues --    3.12463   3.13212   3.13513   3.13762   3.13872
 Alpha virt. eigenvalues --    3.13992   3.14509   3.15734   3.16186   3.17179
 Alpha virt. eigenvalues --    3.17622   3.17966   3.18021   3.19031   3.19160
 Alpha virt. eigenvalues --    3.22195   3.22642   3.23868   3.24528   3.24591
 Alpha virt. eigenvalues --    3.25258   3.26420   3.26777   3.27523   3.27533
 Alpha virt. eigenvalues --    3.28984   3.29251   3.31438   3.31498   3.33323
 Alpha virt. eigenvalues --    3.33332   3.40268   3.40517   3.42725   3.42943
 Alpha virt. eigenvalues --    3.48580   3.48786   3.49940   3.50421   3.50968
 Alpha virt. eigenvalues --    3.51389   3.56460   3.57139   3.58997   3.59517
 Alpha virt. eigenvalues --    3.62621   3.62755   3.66080   3.66245   3.67076
 Alpha virt. eigenvalues --    3.67563   3.73173   3.74045   3.75968   3.76708
          Condensed to atoms (all electrons):
 Mulliken charges:
               1
     1  Mg   0.838908
     2  C   -0.003045
     3  C   -0.093230
     4  C   -0.046639
     5  C   -0.063990
     6  N   -0.256723
     7  C   -0.052348
     8  C   -0.014091
     9  C   -0.087132
    10  C    0.046243
    11  C    0.104704
    12  C    0.053382
    13  C   -0.071769
    14  H    0.035185
    15  N   -0.433196
    16  C    0.168434
    17  C   -0.176387
    18  C   -0.004189
    19  C    0.148595
    20  C    0.109810
    21  C    0.011351
    22  O   -0.250975
    23  C    0.062446
    24  N   -0.340986
    25  C    0.041288
    26  C   -0.028061
    27  C   -0.023793
    28  C    0.074346
    29  C    0.076159
    30  C    0.035363
    31  C   -0.004419
    32  N   -0.310536
    33  C    0.080414
    34  C   -0.169271
    35  C    0.008529
    36  C    0.082986
    37  C    0.127275
    38  C    0.046148
    39  O   -0.188111
    40  C   -0.005456
    41  C    0.213343
    42  O   -0.258366
    43  O   -0.304375
    44  C    0.157947
    45  H   -0.016970
    46  H   -0.017569
    47  H   -0.041666
    48  H    0.001056
    49  H   -0.003406
    50  H    0.025496
    51  H    0.016475
    52  H    0.017132
    53  H    0.011886
    54  H    0.043203
    55  H    0.018180
    56  H    0.018796
    57  H    0.006459
    58  H    0.026985
    59  H    0.041333
    60  H    0.038110
    61  H    0.035138
    62  H    0.032565
    63  H    0.014909
    64  H    0.009858
    65  H    0.022759
    66  H    0.013164
    67  H    0.005024
    68  H    0.005664
    69  H    0.005326
    70  H    0.006314
    71  H    0.016149
    72  H    0.030676
    73  H    0.048268
    74  H    0.008906
    75  H    0.046098
    76  H    0.035509
    77  H    0.043427
    78  H    0.046659
    79  H    0.052364
    80  Mg   0.837689
    81  C   -0.017467
    82  C   -0.088434
    83  C   -0.044780
    84  C   -0.063935
    85  N   -0.254848
    86  C   -0.050094
    87  C   -0.015012
    88  C   -0.090501
    89  C    0.046058
    90  C    0.114794
    91  C    0.062534
    92  C   -0.077665
    93  H    0.033888
    94  N   -0.423716
    95  C    0.163585
    96  C   -0.174937
    97  C   -0.007309
    98  C    0.152340
    99  C    0.099586
   100  C    0.015494
   101  O   -0.252046
   102  C    0.061323
   103  N   -0.350198
   104  C    0.039254
   105  C   -0.021136
   106  C   -0.033943
   107  C    0.089191
   108  C    0.070952
   109  C    0.034537
   110  C   -0.007416
   111  N   -0.323857
   112  C    0.078152
   113  C   -0.163827
   114  C    0.001324
   115  C    0.096263
   116  C    0.131793
   117  C    0.041232
   118  O   -0.189949
   119  C    0.001427
   120  C    0.211153
   121  O   -0.251009
   122  O   -0.305936
   123  C    0.152193
   124  H   -0.019898
   125  H   -0.014176
   126  H   -0.041091
   127  H   -0.001115
   128  H   -0.004782
   129  H    0.022216
   130  H    0.014140
   131  H    0.018673
   132  H    0.013746
   133  H    0.037236
   134  H    0.021187
   135  H    0.019555
   136  H    0.008440
   137  H    0.025222
   138  H    0.039480
   139  H    0.037646
   140  H    0.036355
   141  H    0.033490
   142  H    0.013202
   143  H    0.014398
   144  H    0.024544
   145  H    0.016060
   146  H    0.014388
   147  H    0.006621
   148  H    0.002252
   149  H    0.011018
   150  H    0.016746
   151  H    0.029508
   152  H    0.045191
   153  H    0.008463
   154  H    0.045034
   155  H    0.033185
   156  H    0.043028
   157  H    0.049827
   158  H    0.053418
 Sum of Mulliken charges =  -0.00000
 Mulliken charges with hydrogens summed into heavy atoms:
               1
     1  Mg   0.838908
     2  C   -0.003045
     3  C   -0.110200
     4  C   -0.064208
     5  C   -0.105656
     6  N   -0.256723
     7  C   -0.052348
     8  C   -0.013034
     9  C   -0.090539
    10  C    0.046243
    11  C    0.163807
    12  C    0.108471
    13  C    0.000392
    15  N   -0.433196
    16  C    0.168434
    17  C   -0.176387
    18  C   -0.004189
    19  C    0.148595
    20  C    0.184587
    21  C    0.011351
    22  O   -0.250975
    23  C    0.168258
    24  N   -0.340986
    25  C    0.041288
    26  C   -0.013152
    27  C   -0.013935
    28  C    0.074346
    29  C    0.117107
    30  C    0.046353
    31  C    0.048720
    32  N   -0.310536
    33  C    0.080414
    34  C   -0.169271
    35  C    0.008529
    36  C    0.082986
    37  C    0.230548
    38  C    0.046148
    39  O   -0.188111
    40  C    0.030053
    41  C    0.213343
    42  O   -0.258366
    43  O   -0.304375
    44  C    0.300397
    80  Mg   0.837689
    81  C   -0.017467
    82  C   -0.108332
    83  C   -0.058956
    84  C   -0.105026
    85  N   -0.254848
    86  C   -0.050094
    87  C   -0.016127
    88  C   -0.095283
    89  C    0.046058
    90  C    0.169824
    91  C    0.113516
    92  C   -0.003034
    94  N   -0.423716
    95  C    0.163585
    96  C   -0.174937
    97  C   -0.007309
    98  C    0.152340
    99  C    0.172728
   100  C    0.015494
   101  O   -0.252046
   102  C    0.168814
   103  N   -0.350198
   104  C    0.039254
   105  C   -0.007934
   106  C   -0.019545
   107  C    0.089191
   108  C    0.125945
   109  C    0.043410
   110  C    0.049857
   111  N   -0.323857
   112  C    0.078152
   113  C   -0.163827
   114  C    0.001324
   115  C    0.096263
   116  C    0.230480
   117  C    0.041232
   118  O   -0.189949
   119  C    0.034611
   120  C    0.211153
   121  O   -0.251009
   122  O   -0.305936
   123  C    0.298466
 Electronic spatial extent (au):  <R**2>=          98441.7350
 Charge=             -0.0000 electrons
 Dipole moment (field-independent basis, Debye):
    X=              3.0593    Y=              4.1723    Z=              0.9845  Tot=              5.2666
 Quadrupole moment (field-independent basis, Debye-Ang):
   XX=           -525.6005   YY=           -528.1291   ZZ=           -466.5005
   XY=             14.1188   XZ=            -46.5140   YZ=             22.8423
 Traceless Quadrupole moment (field-independent basis, Debye-Ang):
   XX=            -18.8572   YY=            -21.3857   ZZ=             40.2428
   XY=             14.1188   XZ=            -46.5140   YZ=             22.8423
 Octapole moment (field-independent basis, Debye-Ang**2):
  XXX=            153.5425  YYY=            106.3269  ZZZ=            197.4903  XYY=           -173.0962
  XXY=            206.9757  XXZ=            108.7494  XZZ=            210.6445  YZZ=            -65.7548
  YYZ=           -317.5473  XYZ=            -73.8334
 Hexadecapole moment (field-independent basis, Debye-Ang**3):
 XXXX=         -69686.5143 YYYY=         -38538.7111 ZZZZ=         -26947.9591 XXXY=           -242.0845
 XXXZ=          -1640.8356 YYYX=           -985.8705 YYYZ=            351.0918 ZZZX=           -993.0049
 ZZZY=            421.0591 XXYY=         -17404.2892 XXZZ=         -15426.2248 YYZZ=         -10616.4036
 XXYZ=            361.8715 YYXZ=           -165.8476 ZZXY=            338.6410
 N-N= 1.547372666513D+04 E-N=-4.042855667393D+04  KE= 4.028801184460D+03
 Leave Link  601 at Thu Sep  9 20:27:05 2021, MaxMem= 23488102400 cpu:              16.1 elap:               0.8
 (Enter /sw/apps/gaussian-16.0/g16/l9999.exe)
 1\1\GINC-BP1-COMPUTE00091\SP\RCAM-B3LYP TD-FC\def2SVP\C68H72Mg2N8O8\OF
 15641\09-Sep-2021\0\\#p cam-b3lyp/Def2SVP td=(nstates=5)\\TDDFT excite
 d states in gaussian\\0,1\Mg,0,0.,0.,0.\C,0,-0.217,-2.218,2.801\C,0,-1
 .255,2.442,2.026\C,0,-0.245,1.85,-2.564\C,0,0.146,-2.824,-2.037\N,0,-0
 .617,-0.009,2.126\C,0,-0.594,-0.908,3.105\C,0,-0.936,-0.309,4.502\C,0,
 -1.773,0.964,4.032\C,0,-1.155,1.168,2.66\C,0,-3.263,0.685,3.863\C,0,0.
 345,0.11,5.299\C,0,0.124,0.397,6.787\H,0,1.168,0.033,7.733\N,0,-0.185,
 1.961,-0.152\C,0,-0.703,2.8,0.777\C,0,-0.62,4.156,0.193\C,0,-0.187,4.0
 15,-1.225\C,0,-0.214,2.583,-1.38\C,0,-0.887,5.406,0.974\C,0,0.181,5.01
 3,-2.277\O,0,0.303,4.69,-3.508\C,0,0.31,6.414,-1.837\N,0,-0.265,-0.413
 ,-2.029\C,0,-0.279,0.569,-2.937\C,0,-0.196,0.024,-4.332\C,0,0.124,-1.5
 33,-4.18\C,0,0.086,-1.632,-2.635\C,0,-1.451,0.205,-5.197\C,0,1.373,-2.
 07,-4.923\C,0,2.626,-1.49,-4.306\N,0,0.15,-2.144,0.303\C,0,0.173,-3.13
 6,-0.688\C,0,0.173,-4.438,0.004\C,0,0.133,-4.111,1.358\C,0,0.083,-2.69
 5,1.502\C,0,0.149,-5.715,-0.623\C,0,0.096,-4.629,2.716\O,0,0.208,-5.74
 7,3.221\C,0,-0.255,-3.428,3.701\C,0,0.717,-3.482,4.848\O,0,1.931,-3.25
 5,4.669\O,0,0.038,-3.556,6.003\C,0,0.943,-3.583,7.183\H,0,-1.859,3.22,
 2.497\H,0,-0.218,2.453,-3.474\H,0,0.276,-3.747,-2.605\H,0,-1.554,-0.94
 9,5.132\H,0,-1.585,1.831,4.665\H,0,-3.484,-0.377,3.969\H,0,-3.511,1.02
 7,2.858\H,0,-3.852,1.301,4.543\H,0,0.669,1.096,4.966\H,0,1.13,-0.639,5
 .189\H,0,-0.844,0.026,7.125\H,0,0.062,1.477,6.921\H,0,-1.344,5.186,1.9
 38\H,0,-1.651,5.963,0.432\H,0,0.007,6.02,1.084\H,0,-0.635,6.744,-1.405
 \H,0,0.665,6.97,-2.704\H,0,1.048,6.466,-1.036\H,0,0.608,0.501,-4.891\H
 ,0,-0.692,-2.156,-4.547\H,0,-1.267,0.74,-6.129\H,0,-2.204,0.714,-4.596
 \H,0,-1.967,-0.72,-5.453\H,0,1.356,-1.759,-5.967\H,0,1.452,-3.157,-4.9
 02\H,0,2.714,-0.522,-4.798\H,0,3.487,-2.121,-4.529\H,0,2.495,-1.303,-3
 .24\H,0,0.867,-6.333,-0.084\H,0,0.404,-5.642,-1.68\H,0,-0.891,-5.999,-
 0.463\H,0,-1.283,-3.581,4.028\H,0,0.698,-4.478,7.755\H,0,0.833,-2.619,
 7.68\H,0,2.,-3.754,6.976\Mg,0,8.9418,0.80703,0.67178\C,0,8.43109,4.352
 93,0.45998\C,0,8.32571,0.66869,-2.68022\C,0,8.94013,-2.35743,0.90337\C
 ,0,8.38821,1.07225,4.10236\N,0,8.45407,2.37601,-0.809\C,0,8.34741,3.69
 601,-0.78537\C,0,8.21951,4.3561,-2.18447\C,0,7.62892,3.09891,-2.99041\
 C,0,8.19667,1.97003,-2.13253\C,0,6.1122,3.01506,-2.94732\C,0,9.60702,4
 .80783,-2.76134\C,0,9.52735,5.73311,-3.9776\H,0,10.53284,6.78235,-4.12
 098\N,0,9.15705,-0.58322,-0.72802\C,0,8.88085,-0.46303,-2.04353\C,0,9.
 18968,-1.77155,-2.64065\C,0,9.51399,-2.72311,-1.54335\C,0,9.18895,-1.9
 1254,-0.38688\C,0,9.23644,-1.99851,-4.1238\C,0,10.01933,-4.13406,-1.53
 629\O,0,10.00388,-4.84951,-0.47293\C,0,10.44593,-4.68412,-2.83125\N,0,
 8.49195,-0.49235,2.23113\C,0,8.62323,-1.82224,2.08255\C,0,8.5115,-2.53
 311,3.41017\C,0,8.51925,-1.37916,4.51738\C,0,8.54542,-0.14194,3.59326\
 C,0,7.27088,-3.40673,3.59465\C,0,9.58867,-1.48692,5.63872\C,0,10.9693,
 -1.28737,5.05611\N,0,8.67375,2.42015,2.08389\C,0,8.42982,2.30843,3.470
 29\C,0,8.20313,3.67488,3.98396\C,0,8.30897,4.49103,2.84765\C,0,8.5623,
 3.68782,1.70303\C,0,7.89372,4.01667,5.33064\C,0,8.25346,5.84838,2.3544
 7\O,0,8.15617,6.95866,2.87556\C,0,8.20448,5.80738,0.76629\C,0,9.20914,
 6.79799,0.24488\O,0,10.42554,6.62577,0.43811\O,0,8.58858,7.66376,-0.57
 714\C,0,9.54591,8.6595,-1.12836\H,0,7.92624,0.48365,-3.67775\H,0,9.037
 43,-3.43455,1.0577\H,0,8.30638,1.24855,5.17702\H,0,7.52662,5.18756,-2.
 23284\H,0,8.03208,3.05134,-3.99866\H,0,5.68681,3.75058,-2.28084\H,0,5.
 88252,2.01507,-2.60337\H,0,5.70177,3.08764,-3.95857\H,0,10.1047,3.9418
 1,-3.21638\H,0,10.20635,5.26499,-1.99816\H,0,8.52021,6.14428,-4.11744\
 H,0,9.70155,5.13872,-4.8778\H,0,8.79175,-1.15966,-4.67332\H,0,8.57529,
 -2.84501,-4.33874\H,0,10.24064,-2.23448,-4.48235\H,0,9.61473,-4.64585,
 -3.53133\H,0,10.85793,-5.67026,-2.60842\H,0,11.23309,-4.04195,-3.2419\
 H,0,9.3625,-3.18283,3.57377\H,0,7.56919,-1.33847,5.07015\H,0,7.51038,-
 4.45934,3.83699\H,0,6.67626,-3.35003,2.69256\H,0,6.57169,-3.0614,4.354
 31\H,0,9.57841,-2.48794,6.07689\H,0,9.43902,-0.77971,6.4477\H,0,11.220
 33,-2.28009,4.67064\H,0,11.66948,-0.97514,5.8283\H,0,10.94076,-0.59993
 ,4.20273\H,0,8.49296,4.88296,5.57754\H,0,8.0935,3.18822,6.00705\H,0,6.
 82397,4.22273,5.23871\H,0,7.18716,6.05805,0.46333\H,0,9.1523,9.6508,-0
 .88324\H,0,9.65135,8.41051,-2.20104\H,0,10.53214,8.70716,-0.68168\\Ver
 sion=ES64L-G16RevA.03\State=1-A\HF=-4069.8122163\RMSD=7.650e-09\PG=C01
  [X(C68H72Mg2N8O8)]\\@


 THE MOST BEAUTIFUL EXPERIENCE WE CAN HAVE IS THE MYSTERIOUS.
 IT IS THE FUNDAMENTAL EMOTION WHICH STANDS AT AT THE CRADLE 
 OF TRUE ART AND TRUE SCIENCE.

                                    -- ALBERT EINSTEIN
 Job cpu time:       0 days 15 hours  2 minutes 18.7 seconds.
 Elapsed time:       0 days  0 hours 38 minutes 15.5 seconds.
 File lengths (MBytes):  RWF=  13225 Int=      0 D2E=      0 Chk=    574 Scr=      1
 Normal termination of Gaussian 16 at Thu Sep  9 20:27:06 2021.
