 Entering Gaussian System, Link 0=g16
 Initial command:
 /sw/apps/gaussian-16.0/g16/l1.exe "/tmp/Gau-190468.inp" -scrdir="/tmp/"
 Entering Link 1 = /sw/apps/gaussian-16.0/g16/l1.exe PID=    190469.
  
 Copyright (c) 1988,1990,1992,1993,1995,1998,2003,2009,2016,
            Gaussian, Inc.  All Rights Reserved.
  
 This is part of the Gaussian(R) 16 program.  It is based on
 the Gaussian(R) 09 system (copyright 2009, Gaussian, Inc.),
 the Gaussian(R) 03 system (copyright 2003, Gaussian, Inc.),
 the Gaussian(R) 98 system (copyright 1998, Gaussian, Inc.),
 the Gaussian(R) 94 system (copyright 1995, Gaussian, Inc.),
 the Gaussian 92(TM) system (copyright 1992, Gaussian, Inc.),
 the Gaussian 90(TM) system (copyright 1990, Gaussian, Inc.),
 the Gaussian 88(TM) system (copyright 1988, Gaussian, Inc.),
 the Gaussian 86(TM) system (copyright 1986, Carnegie Mellon
 University), and the Gaussian 82(TM) system (copyright 1983,
 Carnegie Mellon University). Gaussian is a federally registered
 trademark of Gaussian, Inc.
  
 This software contains proprietary and confidential information,
 including trade secrets, belonging to Gaussian, Inc.
  
 This software is provided under written license and may be
 used, copied, transmitted, or stored only in accord with that
 written license.
  
 The following legend is applicable only to US Government
 contracts under FAR:
  
                    RESTRICTED RIGHTS LEGEND
  
 Use, reproduction and disclosure by the US Government is
 subject to restrictions as set forth in subparagraphs (a)
 and (c) of the Commercial Computer Software - Restricted
 Rights clause in FAR 52.227-19.
  
 Gaussian, Inc.
 340 Quinnipiac St., Bldg. 40, Wallingford CT 06492
  
  
 ---------------------------------------------------------------
 Warning -- This program may not be used in any manner that
 competes with the business of Gaussian, Inc. or will provide
 assistance to any competitor of Gaussian, Inc.  The licensee
 of this program is prohibited from giving any competitor of
 Gaussian, Inc. access to this program.  By using this program,
 the user acknowledges that Gaussian, Inc. is engaged in the
 business of creating and licensing software in the field of
 computational chemistry and represents and warrants to the
 licensee that it is not a competitor of Gaussian, Inc. and that
 it will not use this program in any manner prohibited above.
 ---------------------------------------------------------------
  

 Cite this work as:
 Gaussian 16, Revision A.03,
 M. J. Frisch, G. W. Trucks, H. B. Schlegel, G. E. Scuseria, 
 M. A. Robb, J. R. Cheeseman, G. Scalmani, V. Barone, 
 G. A. Petersson, H. Nakatsuji, X. Li, M. Caricato, A. V. Marenich, 
 J. Bloino, B. G. Janesko, R. Gomperts, B. Mennucci, H. P. Hratchian, 
 J. V. Ortiz, A. F. Izmaylov, J. L. Sonnenberg, D. Williams-Young, 
 F. Ding, F. Lipparini, F. Egidi, J. Goings, B. Peng, A. Petrone, 
 T. Henderson, D. Ranasinghe, V. G. Zakrzewski, J. Gao, N. Rega, 
 G. Zheng, W. Liang, M. Hada, M. Ehara, K. Toyota, R. Fukuda, 
 J. Hasegawa, M. Ishida, T. Nakajima, Y. Honda, O. Kitao, H. Nakai, 
 T. Vreven, K. Throssell, J. A. Montgomery, Jr., J. E. Peralta, 
 F. Ogliaro, M. J. Bearpark, J. J. Heyd, E. N. Brothers, K. N. Kudin, 
 V. N. Staroverov, T. A. Keith, R. Kobayashi, J. Normand, 
 K. Raghavachari, A. P. Rendell, J. C. Burant, S. S. Iyengar, 
 J. Tomasi, M. Cossi, J. M. Millam, M. Klene, C. Adamo, R. Cammi, 
 J. W. Ochterski, R. L. Martin, K. Morokuma, O. Farkas, 
 J. B. Foresman, and D. J. Fox, Gaussian, Inc., Wallingford CT, 2016.
 
 ******************************************
 Gaussian 16:  ES64L-G16RevA.03 25-Dec-2016
                10-Sep-2021 
 ******************************************
 %nproc=24
 Will use up to   24 processors via shared memory.
 %mem=175gb
 -----------------------------------
 #p cam-b3lyp/Def2SVP td=(nstates=5)
 -----------------------------------
 1/38=1,172=1/1;
 2/12=2,17=6,18=5,40=1/2;
 3/5=43,7=101,11=9,25=1,30=1,74=-40/1,2,3,8;
 4//1;
 5/5=2,38=5/2;
 8/6=1,10=1,108=5/1;
 9/41=5,42=1,70=2/14;
 6/7=2,8=2,9=2,10=2/1;
 99/5=1,9=1/99;
 Leave Link    1 at Fri Sep 10 18:21:28 2021, MaxMem= 23488102400 cpu:               0.9 elap:               0.0
 (Enter /sw/apps/gaussian-16.0/g16/l101.exe)
 --------------------------------
 TDDFT excited states in gaussian
 --------------------------------
 Symbolic Z-matrix:
 Charge =  0 Multiplicity = 1
 Mg                    0.        0.        0. 
 C                    -0.217    -2.218     2.801 
 C                    -1.255     2.442     2.026 
 C                    -0.245     1.85     -2.564 
 C                     0.146    -2.824    -2.037 
 N                    -0.617    -0.009     2.126 
 C                    -0.594    -0.908     3.105 
 C                    -0.936    -0.309     4.502 
 C                    -1.773     0.964     4.032 
 C                    -1.155     1.168     2.66 
 C                    -3.263     0.685     3.863 
 C                     0.345     0.11      5.299 
 C                     0.124     0.397     6.787 
 H                     1.168     0.033     7.733 
 N                    -0.185     1.961    -0.152 
 C                    -0.703     2.8       0.777 
 C                    -0.62      4.156     0.193 
 C                    -0.187     4.015    -1.225 
 C                    -0.214     2.583    -1.38 
 C                    -0.887     5.406     0.974 
 C                     0.181     5.013    -2.277 
 O                     0.303     4.69     -3.508 
 C                     0.31      6.414    -1.837 
 N                    -0.265    -0.413    -2.029 
 C                    -0.279     0.569    -2.937 
 C                    -0.196     0.024    -4.332 
 C                     0.124    -1.533    -4.18 
 C                     0.086    -1.632    -2.635 
 C                    -1.451     0.205    -5.197 
 C                     1.373    -2.07     -4.923 
 C                     2.626    -1.49     -4.306 
 N                     0.15     -2.144     0.303 
 C                     0.173    -3.136    -0.688 
 C                     0.173    -4.438     0.004 
 C                     0.133    -4.111     1.358 
 C                     0.083    -2.695     1.502 
 C                     0.149    -5.715    -0.623 
 C                     0.096    -4.629     2.716 
 O                     0.208    -5.747     3.221 
 C                    -0.255    -3.428     3.701 
 C                     0.717    -3.482     4.848 
 O                     1.931    -3.255     4.669 
 O                     0.038    -3.556     6.003 
 C                     0.943    -3.583     7.183 
 H                    -1.859     3.22      2.497 
 H                    -0.218     2.453    -3.474 
 H                     0.276    -3.747    -2.605 
 H                    -1.554    -0.949     5.132 
 H                    -1.585     1.831     4.665 
 H                    -3.484    -0.377     3.969 
 H                    -3.511     1.027     2.858 
 H                    -3.852     1.301     4.543 
 H                     0.669     1.096     4.966 
 H                     1.13     -0.639     5.189 
 H                    -0.844     0.026     7.125 
 H                     0.062     1.477     6.921 
 H                    -1.344     5.186     1.938 
 H                    -1.651     5.963     0.432 
 H                     0.007     6.02      1.084 
 H                    -0.635     6.744    -1.405 
 H                     0.665     6.97     -2.704 
 H                     1.048     6.466    -1.036 
 H                     0.608     0.501    -4.891 
 H                    -0.692    -2.156    -4.547 
 H                    -1.267     0.74     -6.129 
 H                    -2.204     0.714    -4.596 
 H                    -1.967    -0.72     -5.453 
 H                     1.356    -1.759    -5.967 
 H                     1.452    -3.157    -4.902 
 H                     2.714    -0.522    -4.798 
 H                     3.487    -2.121    -4.529 
 H                     2.495    -1.303    -3.24 
 H                     0.867    -6.333    -0.084 
 H                     0.404    -5.642    -1.68 
 H                    -0.891    -5.999    -0.463 
 H                    -1.283    -3.581     4.028 
 H                     0.698    -4.478     7.755 
 H                     0.833    -2.619     7.68 
 H                     2.       -3.754     6.976 
 Mg                    10.50441   0.95019   0.80589 
 C                     8.13257  -1.72377   1.12739 
 C                     7.8946    2.95855  -0.08293 
 C                     12.61586   3.20427   0.07902 
 C                     12.99961  -1.47388   0.59723 
 N                     8.33951   0.55316   0.58719 
 C                     7.5444   -0.48544   0.79567 
 C                     6.02845  -0.16063   0.71851 
 C                     6.10954   1.14614  -0.21135 
 C                     7.52201   1.60889   0.14002 
 C                     6.06598   0.83103  -1.69734 
 C                     5.41609   0.17186   2.12438 
 C                     3.88668   0.19545   2.17037 
 H                     3.21933  -0.27786   3.37996 
 N                     10.26691   2.90748   0.57964 
 C                     9.13339   3.55557   0.23845 
 C                     9.48664   4.9826    0.18418 
 C                     10.95907   5.10836   0.35986 
 C                     11.34885   3.71304   0.32475 
 C                     8.46002   6.0709    0.06142 
 C                     11.86761   6.28968   0.5187 
 O                     13.14053   6.17849   0.41798 
 C                     11.21848   7.59593   0.70267 
 N                     12.48738   0.87736   0.1855 
 C                     13.19211   2.00546  -0.01111 
 C                     14.66236   1.70709  -0.18359 
 C                     14.83221   0.15916   0.1806 
 C                     13.35187  -0.20723   0.42501 
 C                     15.2351   1.96772  -1.57658 
 C                     15.87239  -0.19555   1.27827 
 C                     15.40866   0.32978   2.61781 
 N                     10.61127  -1.19561   1.03426 
 C                     11.75138  -2.01421   0.87894 
 C                     11.30402  -3.41507   1.01995 
 C                     9.91988  -3.31459   1.22625 
 C                     9.52886  -1.94872   1.19451 
 C                     12.13081  -4.56799   0.90462 
 C                     8.69902  -4.05402   1.45307 
 O                     8.42463  -5.23541   1.65987 
 C                     7.46813  -3.06463   1.2731 
 C                     6.5385   -3.26292   2.43886 
 O                     6.89895  -2.96798   3.59198 
 O                     5.31022  -3.56062   1.97728 
 C                     4.34995  -3.75559   3.09607 
 H                     7.18731   3.61494  -0.59064 
 H                     13.40237   3.94814  -0.06772 
 H                     13.7322  -2.28255   0.6425 
 H                     5.4247   -0.92155   0.23865 
 H                     5.37809   1.89143   0.0901 
 H                     6.10683  -0.2316   -1.88521 
 H                     6.9272    1.32478  -2.12812 
 H                     5.18991   1.29821  -2.15622 
 H                     5.62759   1.22098   2.36801 
 H                     5.78974  -0.50105   2.87151 
 H                     3.4404   -0.2644    1.28025 
 H                     3.5543    1.23559   2.12992 
 H                     7.47782   5.66804  -0.21498 
 H                     8.75056   6.68948  -0.79462 
 H                     8.40644   6.70173   0.95129 
 H                     10.57289   7.80136  -0.1479 
 H                     12.03021   8.30219   0.88752 
 H                     10.57012   7.5433    1.58441 
 H                     15.25955   2.29676   0.50106 
 H                     15.1625  -0.42984  -0.68763 
 H                     16.08809   2.67233  -1.57297 
 H                     14.43912   2.33749  -2.20921 
 H                     15.56402   1.08003  -2.11418 
 H                     16.8271   0.29241   1.06715 
 H                     16.06619  -1.25971   1.36195 
 H                     15.73131   1.37505   2.59808 
 H                     15.88631  -0.21549   3.42933 
 H                     14.31457   0.32374   2.68557 
 H                     11.84813  -5.23545   1.7078 
 H                     13.1859  -4.30736   0.95598 
 H                     11.84202  -4.91633  -0.09063 
 H                     6.99025  -3.30572   0.32279 
 H                     3.90546  -4.74721   2.96646 
 H                     3.66524  -2.88761   3.05677 
 H                     4.75659  -3.83534   4.09744 
 
 ITRead=  0  0  0  0  0  0  0  0  0  0  0  0  0  0  0  0  0  0  0  0
 ITRead=  0  0  0  0  0  0  0  0  0  0  0  0  0  0  0  0  0  0  0  0
 ITRead=  0  0  0  0  0  0  0  0  0  0  0  0  0  0  0  0  0  0  0  0
 ITRead=  0  0  0  0  0  0  0  0  0  0  0  0  0  0  0  0  0  0  0  0
 ITRead=  0  0  0  0  0  0  0  0  0  0  0  0  0  0  0  0  0  0  0  0
 ITRead=  0  0  0  0  0  0  0  0  0  0  0  0  0  0  0  0  0  0  0  0
 ITRead=  0  0  0  0  0  0  0  0  0  0  0  0  0  0  0  0  0  0  0  0
 ITRead=  0  0  0  0  0  0  0  0  0  0  0  0  0  0  0  0  0  0
 MicOpt= -1 -1 -1 -1 -1 -1 -1 -1 -1 -1 -1 -1 -1 -1 -1 -1 -1 -1 -1 -1
 MicOpt= -1 -1 -1 -1 -1 -1 -1 -1 -1 -1 -1 -1 -1 -1 -1 -1 -1 -1 -1 -1
 MicOpt= -1 -1 -1 -1 -1 -1 -1 -1 -1 -1 -1 -1 -1 -1 -1 -1 -1 -1 -1 -1
 MicOpt= -1 -1 -1 -1 -1 -1 -1 -1 -1 -1 -1 -1 -1 -1 -1 -1 -1 -1 -1 -1
 MicOpt= -1 -1 -1 -1 -1 -1 -1 -1 -1 -1 -1 -1 -1 -1 -1 -1 -1 -1 -1 -1
 MicOpt= -1 -1 -1 -1 -1 -1 -1 -1 -1 -1 -1 -1 -1 -1 -1 -1 -1 -1 -1 -1
 MicOpt= -1 -1 -1 -1 -1 -1 -1 -1 -1 -1 -1 -1 -1 -1 -1 -1 -1 -1 -1 -1
 MicOpt= -1 -1 -1 -1 -1 -1 -1 -1 -1 -1 -1 -1 -1 -1 -1 -1 -1 -1
 NAtoms=    158 NQM=      158 NQMF=       0 NMMI=      0 NMMIF=      0
                NMic=       0 NMicF=      0.
                    Isotopes and Nuclear Properties:
 (Nuclear quadrupole moments (NQMom) in fm**2, nuclear magnetic moments (NMagM)
  in nuclear magnetons)

  Atom         1           2           3           4           5           6           7           8           9          10
 IAtWgt=          24          12          12          12          12          14          12          12          12          12
 AtmWgt=  23.9850450  12.0000000  12.0000000  12.0000000  12.0000000  14.0030740  12.0000000  12.0000000  12.0000000  12.0000000
 NucSpn=           0           0           0           0           0           2           0           0           0           0
 AtZEff=  -0.0000000  -0.0000000  -0.0000000  -0.0000000  -0.0000000  -0.0000000  -0.0000000  -0.0000000  -0.0000000  -0.0000000
 NQMom=    0.0000000   0.0000000   0.0000000   0.0000000   0.0000000   2.0440000   0.0000000   0.0000000   0.0000000   0.0000000
 NMagM=    0.0000000   0.0000000   0.0000000   0.0000000   0.0000000   0.4037610   0.0000000   0.0000000   0.0000000   0.0000000
 AtZNuc=  12.0000000   6.0000000   6.0000000   6.0000000   6.0000000   7.0000000   6.0000000   6.0000000   6.0000000   6.0000000

  Atom        11          12          13          14          15          16          17          18          19          20
 IAtWgt=          12          12          12           1          14          12          12          12          12          12
 AtmWgt=  12.0000000  12.0000000  12.0000000   1.0078250  14.0030740  12.0000000  12.0000000  12.0000000  12.0000000  12.0000000
 NucSpn=           0           0           0           1           2           0           0           0           0           0
 AtZEff=  -0.0000000  -0.0000000  -0.0000000  -0.0000000  -0.0000000  -0.0000000  -0.0000000  -0.0000000  -0.0000000  -0.0000000
 NQMom=    0.0000000   0.0000000   0.0000000   0.0000000   2.0440000   0.0000000   0.0000000   0.0000000   0.0000000   0.0000000
 NMagM=    0.0000000   0.0000000   0.0000000   2.7928460   0.4037610   0.0000000   0.0000000   0.0000000   0.0000000   0.0000000
 AtZNuc=   6.0000000   6.0000000   6.0000000   1.0000000   7.0000000   6.0000000   6.0000000   6.0000000   6.0000000   6.0000000

  Atom        21          22          23          24          25          26          27          28          29          30
 IAtWgt=          12          16          12          14          12          12          12          12          12          12
 AtmWgt=  12.0000000  15.9949146  12.0000000  14.0030740  12.0000000  12.0000000  12.0000000  12.0000000  12.0000000  12.0000000
 NucSpn=           0           0           0           2           0           0           0           0           0           0
 AtZEff=  -0.0000000  -0.0000000  -0.0000000  -0.0000000  -0.0000000  -0.0000000  -0.0000000  -0.0000000  -0.0000000  -0.0000000
 NQMom=    0.0000000   0.0000000   0.0000000   2.0440000   0.0000000   0.0000000   0.0000000   0.0000000   0.0000000   0.0000000
 NMagM=    0.0000000   0.0000000   0.0000000   0.4037610   0.0000000   0.0000000   0.0000000   0.0000000   0.0000000   0.0000000
 AtZNuc=   6.0000000   8.0000000   6.0000000   7.0000000   6.0000000   6.0000000   6.0000000   6.0000000   6.0000000   6.0000000

  Atom        31          32          33          34          35          36          37          38          39          40
 IAtWgt=          12          14          12          12          12          12          12          12          16          12
 AtmWgt=  12.0000000  14.0030740  12.0000000  12.0000000  12.0000000  12.0000000  12.0000000  12.0000000  15.9949146  12.0000000
 NucSpn=           0           2           0           0           0           0           0           0           0           0
 AtZEff=  -0.0000000  -0.0000000  -0.0000000  -0.0000000  -0.0000000  -0.0000000  -0.0000000  -0.0000000  -0.0000000  -0.0000000
 NQMom=    0.0000000   2.0440000   0.0000000   0.0000000   0.0000000   0.0000000   0.0000000   0.0000000   0.0000000   0.0000000
 NMagM=    0.0000000   0.4037610   0.0000000   0.0000000   0.0000000   0.0000000   0.0000000   0.0000000   0.0000000   0.0000000
 AtZNuc=   6.0000000   7.0000000   6.0000000   6.0000000   6.0000000   6.0000000   6.0000000   6.0000000   8.0000000   6.0000000

  Atom        41          42          43          44          45          46          47          48          49          50
 IAtWgt=          12          16          16          12           1           1           1           1           1           1
 AtmWgt=  12.0000000  15.9949146  15.9949146  12.0000000   1.0078250   1.0078250   1.0078250   1.0078250   1.0078250   1.0078250
 NucSpn=           0           0           0           0           1           1           1           1           1           1
 AtZEff=  -0.0000000  -0.0000000  -0.0000000  -0.0000000  -0.0000000  -0.0000000  -0.0000000  -0.0000000  -0.0000000  -0.0000000
 NQMom=    0.0000000   0.0000000   0.0000000   0.0000000   0.0000000   0.0000000   0.0000000   0.0000000   0.0000000   0.0000000
 NMagM=    0.0000000   0.0000000   0.0000000   0.0000000   2.7928460   2.7928460   2.7928460   2.7928460   2.7928460   2.7928460
 AtZNuc=   6.0000000   8.0000000   8.0000000   6.0000000   1.0000000   1.0000000   1.0000000   1.0000000   1.0000000   1.0000000

  Atom        51          52          53          54          55          56          57          58          59          60
 IAtWgt=           1           1           1           1           1           1           1           1           1           1
 AtmWgt=   1.0078250   1.0078250   1.0078250   1.0078250   1.0078250   1.0078250   1.0078250   1.0078250   1.0078250   1.0078250
 NucSpn=           1           1           1           1           1           1           1           1           1           1
 AtZEff=  -0.0000000  -0.0000000  -0.0000000  -0.0000000  -0.0000000  -0.0000000  -0.0000000  -0.0000000  -0.0000000  -0.0000000
 NQMom=    0.0000000   0.0000000   0.0000000   0.0000000   0.0000000   0.0000000   0.0000000   0.0000000   0.0000000   0.0000000
 NMagM=    2.7928460   2.7928460   2.7928460   2.7928460   2.7928460   2.7928460   2.7928460   2.7928460   2.7928460   2.7928460
 AtZNuc=   1.0000000   1.0000000   1.0000000   1.0000000   1.0000000   1.0000000   1.0000000   1.0000000   1.0000000   1.0000000

  Atom        61          62          63          64          65          66          67          68          69          70
 IAtWgt=           1           1           1           1           1           1           1           1           1           1
 AtmWgt=   1.0078250   1.0078250   1.0078250   1.0078250   1.0078250   1.0078250   1.0078250   1.0078250   1.0078250   1.0078250
 NucSpn=           1           1           1           1           1           1           1           1           1           1
 AtZEff=  -0.0000000  -0.0000000  -0.0000000  -0.0000000  -0.0000000  -0.0000000  -0.0000000  -0.0000000  -0.0000000  -0.0000000
 NQMom=    0.0000000   0.0000000   0.0000000   0.0000000   0.0000000   0.0000000   0.0000000   0.0000000   0.0000000   0.0000000
 NMagM=    2.7928460   2.7928460   2.7928460   2.7928460   2.7928460   2.7928460   2.7928460   2.7928460   2.7928460   2.7928460
 AtZNuc=   1.0000000   1.0000000   1.0000000   1.0000000   1.0000000   1.0000000   1.0000000   1.0000000   1.0000000   1.0000000

  Atom        71          72          73          74          75          76          77          78          79          80
 IAtWgt=           1           1           1           1           1           1           1           1           1          24
 AtmWgt=   1.0078250   1.0078250   1.0078250   1.0078250   1.0078250   1.0078250   1.0078250   1.0078250   1.0078250  23.9850450
 NucSpn=           1           1           1           1           1           1           1           1           1           0
 AtZEff=  -0.0000000  -0.0000000  -0.0000000  -0.0000000  -0.0000000  -0.0000000  -0.0000000  -0.0000000  -0.0000000  -0.0000000
 NQMom=    0.0000000   0.0000000   0.0000000   0.0000000   0.0000000   0.0000000   0.0000000   0.0000000   0.0000000   0.0000000
 NMagM=    2.7928460   2.7928460   2.7928460   2.7928460   2.7928460   2.7928460   2.7928460   2.7928460   2.7928460   0.0000000
 AtZNuc=   1.0000000   1.0000000   1.0000000   1.0000000   1.0000000   1.0000000   1.0000000   1.0000000   1.0000000  12.0000000

  Atom        81          82          83          84          85          86          87          88          89          90
 IAtWgt=          12          12          12          12          14          12          12          12          12          12
 AtmWgt=  12.0000000  12.0000000  12.0000000  12.0000000  14.0030740  12.0000000  12.0000000  12.0000000  12.0000000  12.0000000
 NucSpn=           0           0           0           0           2           0           0           0           0           0
 AtZEff=  -0.0000000  -0.0000000  -0.0000000  -0.0000000  -0.0000000  -0.0000000  -0.0000000  -0.0000000  -0.0000000  -0.0000000
 NQMom=    0.0000000   0.0000000   0.0000000   0.0000000   2.0440000   0.0000000   0.0000000   0.0000000   0.0000000   0.0000000
 NMagM=    0.0000000   0.0000000   0.0000000   0.0000000   0.4037610   0.0000000   0.0000000   0.0000000   0.0000000   0.0000000
 AtZNuc=   6.0000000   6.0000000   6.0000000   6.0000000   7.0000000   6.0000000   6.0000000   6.0000000   6.0000000   6.0000000

  Atom        91          92          93          94          95          96          97          98          99         100
 IAtWgt=          12          12           1          14          12          12          12          12          12          12
 AtmWgt=  12.0000000  12.0000000   1.0078250  14.0030740  12.0000000  12.0000000  12.0000000  12.0000000  12.0000000  12.0000000
 NucSpn=           0           0           1           2           0           0           0           0           0           0
 AtZEff=  -0.0000000  -0.0000000  -0.0000000  -0.0000000  -0.0000000  -0.0000000  -0.0000000  -0.0000000  -0.0000000  -0.0000000
 NQMom=    0.0000000   0.0000000   0.0000000   2.0440000   0.0000000   0.0000000   0.0000000   0.0000000   0.0000000   0.0000000
 NMagM=    0.0000000   0.0000000   2.7928460   0.4037610   0.0000000   0.0000000   0.0000000   0.0000000   0.0000000   0.0000000
 AtZNuc=   6.0000000   6.0000000   1.0000000   7.0000000   6.0000000   6.0000000   6.0000000   6.0000000   6.0000000   6.0000000

  Atom       101         102         103         104         105         106         107         108         109         110
 IAtWgt=          16          12          14          12          12          12          12          12          12          12
 AtmWgt=  15.9949146  12.0000000  14.0030740  12.0000000  12.0000000  12.0000000  12.0000000  12.0000000  12.0000000  12.0000000
 NucSpn=           0           0           2           0           0           0           0           0           0           0
 AtZEff=  -0.0000000  -0.0000000  -0.0000000  -0.0000000  -0.0000000  -0.0000000  -0.0000000  -0.0000000  -0.0000000  -0.0000000
 NQMom=    0.0000000   0.0000000   2.0440000   0.0000000   0.0000000   0.0000000   0.0000000   0.0000000   0.0000000   0.0000000
 NMagM=    0.0000000   0.0000000   0.4037610   0.0000000   0.0000000   0.0000000   0.0000000   0.0000000   0.0000000   0.0000000
 AtZNuc=   8.0000000   6.0000000   7.0000000   6.0000000   6.0000000   6.0000000   6.0000000   6.0000000   6.0000000   6.0000000

  Atom       111         112         113         114         115         116         117         118         119         120
 IAtWgt=          14          12          12          12          12          12          12          16          12          12
 AtmWgt=  14.0030740  12.0000000  12.0000000  12.0000000  12.0000000  12.0000000  12.0000000  15.9949146  12.0000000  12.0000000
 NucSpn=           2           0           0           0           0           0           0           0           0           0
 AtZEff=  -0.0000000  -0.0000000  -0.0000000  -0.0000000  -0.0000000  -0.0000000  -0.0000000  -0.0000000  -0.0000000  -0.0000000
 NQMom=    2.0440000   0.0000000   0.0000000   0.0000000   0.0000000   0.0000000   0.0000000   0.0000000   0.0000000   0.0000000
 NMagM=    0.4037610   0.0000000   0.0000000   0.0000000   0.0000000   0.0000000   0.0000000   0.0000000   0.0000000   0.0000000
 AtZNuc=   7.0000000   6.0000000   6.0000000   6.0000000   6.0000000   6.0000000   6.0000000   8.0000000   6.0000000   6.0000000

  Atom       121         122         123         124         125         126         127         128         129         130
 IAtWgt=          16          16          12           1           1           1           1           1           1           1
 AtmWgt=  15.9949146  15.9949146  12.0000000   1.0078250   1.0078250   1.0078250   1.0078250   1.0078250   1.0078250   1.0078250
 NucSpn=           0           0           0           1           1           1           1           1           1           1
 AtZEff=  -0.0000000  -0.0000000  -0.0000000  -0.0000000  -0.0000000  -0.0000000  -0.0000000  -0.0000000  -0.0000000  -0.0000000
 NQMom=    0.0000000   0.0000000   0.0000000   0.0000000   0.0000000   0.0000000   0.0000000   0.0000000   0.0000000   0.0000000
 NMagM=    0.0000000   0.0000000   0.0000000   2.7928460   2.7928460   2.7928460   2.7928460   2.7928460   2.7928460   2.7928460
 AtZNuc=   8.0000000   8.0000000   6.0000000   1.0000000   1.0000000   1.0000000   1.0000000   1.0000000   1.0000000   1.0000000

  Atom       131         132         133         134         135         136         137         138         139         140
 IAtWgt=           1           1           1           1           1           1           1           1           1           1
 AtmWgt=   1.0078250   1.0078250   1.0078250   1.0078250   1.0078250   1.0078250   1.0078250   1.0078250   1.0078250   1.0078250
 NucSpn=           1           1           1           1           1           1           1           1           1           1
 AtZEff=  -0.0000000  -0.0000000  -0.0000000  -0.0000000  -0.0000000  -0.0000000  -0.0000000  -0.0000000  -0.0000000  -0.0000000
 NQMom=    0.0000000   0.0000000   0.0000000   0.0000000   0.0000000   0.0000000   0.0000000   0.0000000   0.0000000   0.0000000
 NMagM=    2.7928460   2.7928460   2.7928460   2.7928460   2.7928460   2.7928460   2.7928460   2.7928460   2.7928460   2.7928460
 AtZNuc=   1.0000000   1.0000000   1.0000000   1.0000000   1.0000000   1.0000000   1.0000000   1.0000000   1.0000000   1.0000000

  Atom       141         142         143         144         145         146         147         148         149         150
 IAtWgt=           1           1           1           1           1           1           1           1           1           1
 AtmWgt=   1.0078250   1.0078250   1.0078250   1.0078250   1.0078250   1.0078250   1.0078250   1.0078250   1.0078250   1.0078250
 NucSpn=           1           1           1           1           1           1           1           1           1           1
 AtZEff=  -0.0000000  -0.0000000  -0.0000000  -0.0000000  -0.0000000  -0.0000000  -0.0000000  -0.0000000  -0.0000000  -0.0000000
 NQMom=    0.0000000   0.0000000   0.0000000   0.0000000   0.0000000   0.0000000   0.0000000   0.0000000   0.0000000   0.0000000
 NMagM=    2.7928460   2.7928460   2.7928460   2.7928460   2.7928460   2.7928460   2.7928460   2.7928460   2.7928460   2.7928460
 AtZNuc=   1.0000000   1.0000000   1.0000000   1.0000000   1.0000000   1.0000000   1.0000000   1.0000000   1.0000000   1.0000000

  Atom       151         152         153         154         155         156         157         158
 IAtWgt=           1           1           1           1           1           1           1           1
 AtmWgt=   1.0078250   1.0078250   1.0078250   1.0078250   1.0078250   1.0078250   1.0078250   1.0078250
 NucSpn=           1           1           1           1           1           1           1           1
 AtZEff=  -0.0000000  -0.0000000  -0.0000000  -0.0000000  -0.0000000  -0.0000000  -0.0000000  -0.0000000
 NQMom=    0.0000000   0.0000000   0.0000000   0.0000000   0.0000000   0.0000000   0.0000000   0.0000000
 NMagM=    2.7928460   2.7928460   2.7928460   2.7928460   2.7928460   2.7928460   2.7928460   2.7928460
 AtZNuc=   1.0000000   1.0000000   1.0000000   1.0000000   1.0000000   1.0000000   1.0000000   1.0000000
 Leave Link  101 at Fri Sep 10 18:21:28 2021, MaxMem= 23488102400 cpu:               3.8 elap:               0.2
 (Enter /sw/apps/gaussian-16.0/g16/l202.exe)
 Stoichiometry    C68H72Mg2N8O8
 Framework group  C1[X(C68H72Mg2N8O8)]
 Deg. of freedom   468
 Full point group                 C1      NOp   1
 Largest Abelian subgroup         C1      NOp   1
 Largest concise Abelian subgroup C1      NOp   1
                         Standard orientation:                         
 ---------------------------------------------------------------------
 Center     Atomic      Atomic             Coordinates (Angstroms)
 Number     Number       Type             X           Y           Z
 ---------------------------------------------------------------------
      1         12           0        4.823258    1.012459    0.516019
      2          6           0        5.449068   -2.159087   -1.020818
      3          6           0        5.776242    2.457931   -2.424303
      4          6           0        4.715233    3.819898    1.986815
      5          6           0        5.021947   -0.606630    3.595749
      6          7           0        5.503221    0.152429   -1.407167
      7          6           0        5.642111   -1.079861   -1.886063
      8          6           0        5.938643   -1.118701   -3.415094
      9          6           0        6.567026    0.336526   -3.586691
     10          6           0        5.882141    1.035322   -2.425425
     11          6           0        8.075492    0.378839   -3.364788
     12          6           0        4.636834   -1.284941   -4.269137
     13          6           0        4.861786   -1.657627   -5.737421
     14          1           0        3.912473   -2.548738   -6.387092
     15          7           0        4.717524    2.842064   -0.221691
     16          6           0        5.138303    3.248100   -1.443725
     17          6           0        4.841170    4.694820   -1.517177
     18          6           0        4.387687    5.135238   -0.168667
     19          6           0        4.616634    3.940238    0.602654
     20          6           0        4.949477    5.494007   -2.779444
     21          6           0        3.845439    6.431180    0.345756
     22          8           0        3.731881    6.672515    1.596131
     23          6           0        3.529286    7.457932   -0.663635
     24          7           0        5.079744    1.582997    2.507586
     25          6           0        4.922228    2.856035    2.886464
     26          6           0        4.874084    2.979067    4.380614
     27          6           0        4.787845    1.487616    4.944432
     28          6           0        4.889517    0.721710    3.602299
     29          6           0        6.061159    3.702726    5.031139
     30          6           0        3.606430    1.161350    5.892181
     31          6           0        2.303214    1.221304    5.127242
     32          7           0        4.994954   -1.040909    1.198107
     33          6           0        5.083849   -1.483679    2.525784
     34          6           0        5.294563   -2.942346    2.481516
     35          6           0        5.330410   -3.246377    1.122058
     36          6           0        5.179574   -2.049588    0.364935
     37          6           0        5.482908   -3.791699    3.607375
     38          6           0        5.485707   -4.300531    0.132867
     39          8           0        5.553007   -5.529700    0.178778
     40          6           0        5.690748   -3.622905   -1.293530
     41          6           0        4.774250   -4.318221   -2.263002
     42          8           0        3.535050   -4.212824   -2.159850
     43          8           0        5.493658   -4.797138   -3.289468
     44          6           0        4.640575   -5.473516   -4.302837
     45          1           0        6.276147    3.025044   -3.211970
     46          1           0        4.571955    4.752461    2.536575
     47          1           0        5.008664   -1.190930    4.517633
     48          1           0        6.662726   -1.875030   -3.718565
     49          1           0        6.276022    0.796721   -4.530757
     50          1           0        8.451156   -0.576252   -2.997910
     51          1           0        8.238886    1.162014   -2.624225
     52          1           0        8.590739    0.707911   -4.267567
     53          1           0        4.162996   -0.311484   -4.395310
     54          1           0        3.965361   -2.012202   -3.811379
     55          1           0        5.883666   -1.996255   -5.910629
     56          1           0        4.771120   -0.752082   -6.337395
     57          1           0        5.464315    4.938438   -3.562279
     58          1           0        5.606967    6.336849   -2.567236
     59          1           0        3.980042    5.860104   -3.117826
     60          1           0        4.429999    7.694857   -1.230319
     61          1           0        3.069819    8.282653   -0.119966
     62          1           0        2.817717    7.043244   -1.378235
     63          1           0        3.991933    3.532928    4.699162
     64          1           0        5.673165    1.216062    5.519879
     65          1           0        5.771747    4.562239    5.636270
     66          1           0        6.751533    3.995658    4.240655
     67          1           0        6.697075    3.071562    5.651348
     68          1           0        3.544607    1.901096    6.689615
     69          1           0        3.686289    0.178567    6.356951
     70          1           0        2.060251    2.283165    5.143133
     71          1           0        1.535865    0.637556    5.636775
     72          1           0        2.440040    0.933911    4.084567
     73          1           0        4.879641   -4.680584    3.423202
     74          1           0        5.186116   -3.296008    4.531393
     75          1           0        6.557668   -3.964184    3.552645
     76          1           0        6.740061   -3.755075   -1.555434
     77          1           0        5.030815   -6.483570   -4.428289
     78          1           0        4.625858   -4.824384   -5.178517
     79          1           0        3.613336   -5.685404   -4.004136
     80         12           0       -5.676613   -0.015155   -0.253168
     81          6           0       -2.933657   -2.182796    0.557125
     82          6           0       -3.414923    2.531476   -0.437685
     83          6           0       -8.114350    1.997724   -0.523723
     84          6           0       -7.800149   -2.427543    1.094666
     85          7           0       -3.485226    0.041828    0.041497
     86          6           0       -2.541882   -0.855268    0.285783
     87          6           0       -1.092178   -0.315423    0.157396
     88          6           0       -1.391437    1.241060    0.415596
     89          6           0       -2.843948    1.291836   -0.053769
     90          6           0       -1.350620    1.626055    1.885110
     91          6           0       -0.489420   -0.555166   -1.271314
     92          6           0        1.021155   -0.334498   -1.377312
     93          1           0        1.788588   -1.192685   -2.275671
     94          7           0       -5.732283    1.851583   -0.924563
     95          6           0       -4.716071    2.739369   -0.945734
     96          6           0       -5.273684    3.975624   -1.515723
     97          6           0       -6.742382    3.797248   -1.676460
     98          6           0       -6.927056    2.521665   -1.013992
     99          6           0       -4.419862    5.140991   -1.923549
    100          6           0       -7.806725    4.641781   -2.309019
    101          8           0       -9.052730    4.404717   -2.124343
    102          6           0       -7.347882    5.809978   -3.074710
    103          7           0       -7.647111   -0.090486    0.405483
    104          6           0       -8.513644    0.893584    0.107761
    105          6           0       -9.930021    0.494199    0.446548
    106          6           0       -9.862248   -1.061517    0.810862
    107          6           0       -8.337372   -1.280901    0.701280
    108          6           0      -10.579018    1.258923    1.599970
    109          6           0      -10.804243   -2.010978    0.021025
    110          6           0      -10.378516   -2.072074   -1.428253
    111          7           0       -5.464398   -2.030879    0.495063
    112          6           0       -6.478444   -2.850801    1.036839
    113          6           0       -5.828755   -4.088733    1.514175
    114          6           0       -4.467808   -3.891866    1.235667
    115          6           0       -4.279800   -2.612586    0.646090
    116          6           0       -6.483273   -5.177165    2.156849
    117          6           0       -3.146125   -4.470997    1.316065
    118          8           0       -2.697137   -5.568686    1.643518
    119          6           0       -2.077819   -3.338455    0.995997
    120          6           0       -1.092217   -3.896069    0.005955
    121          8           0       -1.454225   -4.197216   -1.145070
    122          8           0        0.150704   -3.778496    0.507630
    123          6           0        1.164613   -4.307974   -0.442877
    124          1           0       -2.826796    3.438952   -0.298151
    125          1           0       -9.004546    2.607865   -0.693285
    126          1           0       -8.406155   -3.268790    1.437806
    127          1           0       -0.400437   -0.689656    0.902529
    128          1           0       -0.766219    1.872601   -0.210188
    129          1           0       -1.243287    0.762770    2.524926
    130          1           0       -2.287653    2.129762    2.083377
    131          1           0       -0.566623    2.368743    2.058574
    132          1           0       -0.842563    0.235162   -1.946157
    133          1           0       -0.737492   -1.535197   -1.629956
    134          1           0        1.500381   -0.283353   -0.392088
    135          1           0        1.198031    0.651887   -1.812930
    136          1           0       -3.399118    5.048113   -1.532569
    137          1           0       -4.824284    6.025530   -1.419673
    138          1           0       -4.429504    5.313242   -3.001938
    139          1           0       -6.766554    6.461157   -2.426265
    140          1           0       -8.246897    6.236453   -3.523899
    141          1           0       -6.670670    5.466499   -3.864654
    142          1           0      -10.583895    0.627169   -0.406599
    143          1           0      -10.131614   -1.246150    1.861190
    144          1           0      -11.524435    1.758207    1.315397
    145          1           0       -9.865724    1.980758    1.975072
    146          1           0      -10.793153    0.663790    2.486062
    147          1           0      -11.825819   -1.623065    0.028325
    148          1           0      -10.839201   -3.017809    0.423601
    149          1           0      -10.849506   -1.184602   -1.861431
    150          1           0      -10.745837   -2.982595   -1.897359
    151          1           0       -9.293461   -1.949926   -1.525186
    152          1           0       -6.081252   -6.082707    1.722243
    153          1           0       -7.562766   -5.121076    2.033040
    154          1           0       -6.179320   -5.003464    3.192563
    155          1           0       -1.600940   -3.062497    1.937281
    156          1           0        1.743523   -5.064331    0.096074
    157          1           0        1.714877   -3.423764   -0.815898
    158          1           0        0.806263   -4.880255   -1.290542
 ---------------------------------------------------------------------
 Rotational constants (GHZ):           0.0266583           0.0118440           0.0102265
 Leave Link  202 at Fri Sep 10 18:21:28 2021, MaxMem= 23488102400 cpu:               0.2 elap:               0.0
 (Enter /sw/apps/gaussian-16.0/g16/l301.exe)
 Standard basis: def2SVP (5D, 7F)
 Ernie: Thresh=  0.10000D-02 Tol=  0.10000D-05 Strict=F.
 There are  1658 symmetry adapted cartesian basis functions of A   symmetry.
 There are  1572 symmetry adapted basis functions of A   symmetry.
  1572 basis functions,  2678 primitive gaussians,  1658 cartesian basis functions
   312 alpha electrons      312 beta electrons
       nuclear repulsion energy     15562.2766976218 Hartrees.
 IExCor=20419 DFT=T Ex+Corr=CAM-B3LYP ExCW=0 ScaHFX=  1.000000
 ScaDFX=  1.000000  1.000000  1.000000  0.810000 ScalE2=  1.000000  1.000000
 IRadAn=      5 IRanWt=     -1 IRanGd=            0 ICorTp=0 IEmpDi=  4
 HFx  wShort=  0.000000 wLong=  0.330000 cFull=  0.190000 cShort=  0.000000 cLong=  0.460000
 DFx  wShort=  0.000000 wLong=  0.330000 cFull=  0.190000 cShort=  0.000000 cLong=  0.460000
 NAtoms=  158 NActive=  158 NUniq=  158 SFac= 1.00D+00 NAtFMM=   60 NAOKFM=T Big=T
 Integral buffers will be    131072 words long.
 Raffenetti 1 integral format.
 Two-electron integral symmetry is turned on.
 Leave Link  301 at Fri Sep 10 18:21:28 2021, MaxMem= 23488102400 cpu:               1.4 elap:               0.1
 (Enter /sw/apps/gaussian-16.0/g16/l302.exe)
 NPDir=0 NMtPBC=     1 NCelOv=     1 NCel=       1 NClECP=     1 NCelD=      1
         NCelK=      1 NCelE2=     1 NClLst=     1 CellRange=     0.0.
 One-electron integrals computed using PRISM.
 One-electron integral symmetry used in STVInt
   1 Symmetry operations used in ECPInt.
 ECPInt:  NShTT=  271216 NPrTT=  987664 LenC2=  149610 LenP2D=  319344.
 LDataN:  DoStor=T MaxTD1= 4 Len=   56
 NBasis=  1572 RedAO= T EigKep=  3.24D-04  NBF=  1572
 NBsUse=  1572 1.00D-06 EigRej= -1.00D+00 NBFU=  1572
 Precomputing XC quadrature grid using
 IXCGrd= 4 IRadAn=           5 IRanWt=          -1 IRanGd=           0 AccXCQ= 0.00D+00.
 Generated NRdTot=       0 NPtTot=           0 NUsed=           0 NTot=          32
 NSgBfM=  1427  1419  1422  1426  1427 MxSgAt=   158 MxSgA2=   158.
 Leave Link  302 at Fri Sep 10 18:21:33 2021, MaxMem= 23488102400 cpu:             133.1 elap:               5.6
 (Enter /sw/apps/gaussian-16.0/g16/l303.exe)
 DipDrv:  MaxL=1.
 Leave Link  303 at Fri Sep 10 18:21:34 2021, MaxMem= 23488102400 cpu:               9.6 elap:               0.4
 (Enter /sw/apps/gaussian-16.0/g16/l308.exe)
 Leave Link  308 at Fri Sep 10 18:21:35 2021, MaxMem= 23488102400 cpu:              14.4 elap:               0.7
 (Enter /sw/apps/gaussian-16.0/g16/l401.exe)
 ExpMin= 3.36D-02 ExpMax= 4.95D+03 ExpMxC= 7.45D+02 IAcc=3 IRadAn=         5 AccDes= 0.00D+00
 Harris functional with IExCor=20419 and IRadAn=       5 diagonalized for initial guess.
 HarFok:  IExCor=20419 AccDes= 0.00D+00 IRadAn=         5 IDoV= 1 UseB2=F ITyADJ=14
 ICtDFT=  3500011 ScaDFX=  1.000000  1.000000  1.000000  1.000000
 FoFCou: FMM=F IPFlag=           0 FMFlag=      100000 FMFlg1=        2001
         NFxFlg=           0 DoJE=T BraDBF=F KetDBF=T FulRan=T
         wScrn=  0.000000 ICntrl=       500 IOpCl=  0 I1Cent=   200000004 NGrid=           0
         NMat0=    1 NMatS0=      1 NMatT0=    0 NMatD0=    1 NMtDS0=    0 NMtDT0=    0
 Petite list used in FoFCou.
 Harris En= -3918.66387744824    
 JPrj=0 DoOrth=F DoCkMO=F.
 Leave Link  401 at Fri Sep 10 18:21:43 2021, MaxMem= 23488102400 cpu:             199.2 elap:               8.3
 (Enter /sw/apps/gaussian-16.0/g16/l502.exe)
 Integral symmetry usage will be decided dynamically.
 Closed shell SCF:
 Using DIIS extrapolation, IDIIS=  1040.
 NGot= 23488102400 LenX= 23482547354 LenY= 23479796732
 Requested convergence on RMS density matrix=1.00D-08 within 128 cycles.
 Requested convergence on MAX density matrix=1.00D-06.
 Requested convergence on             energy=1.00D-06.
 No special actions if energy rises.
 Fock matrices will be formed incrementally for  20 cycles.

 Cycle   1  Pass 1  IDiag  1:
 FoFJK:  IHMeth= 1 ICntrl=       0 DoSepK=T KAlg= 0 I1Cent=           0 FoldK=F
 IRaf=         1 NMat=       1 IRICut=       1 DoRegI=T DoRafI=F ISym2E= 0 IDoP0=0 IntGTp=1.
 FoFCou: FMM=T IPFlag=           0 FMFlag=      100000 FMFlg1=        2001
         NFxFlg=           0 DoJE=T BraDBF=F KetDBF=F FulRan=T
         wScrn=  0.000000 ICntrl=       500 IOpCl=  0 I1Cent=           0 NGrid=           0
         NMat0=    1 NMatS0=      1 NMatT0=    0 NMatD0=    1 NMtDS0=    0 NMtDT0=    0
 Symmetry not used in FoFCou.
 FMM levels:  10  Number of levels for PrismC:   9
 E= -4068.94953506852    
 DIIS: error= 2.16D-02 at cycle   1 NSaved=   1.
 NSaved= 1 IEnMin= 1 EnMin= -4068.94953506852     IErMin= 1 ErrMin= 2.16D-02
 ErrMax= 2.16D-02  0.00D+00 EMaxC= 1.00D-01 BMatC= 1.69D+00 BMatP= 1.69D+00
 IDIUse=3 WtCom= 7.84D-01 WtEn= 2.16D-01
 Coeff-Com:  0.100D+01
 Coeff-En:   0.100D+01
 Coeff:      0.100D+01
 Gap=     0.121 Goal=   None    Shift=    0.000
 GapD=    0.121 DampG=1.000 DampE=0.500 DampFc=0.5000 IDamp=-1.
 Damping current iteration by 5.00D-01
 RMSDP=1.58D-03 MaxDP=1.39D-01              OVMax= 2.08D-01

 Cycle   2  Pass 1  IDiag  1:
 RMSU=  7.75D-04    CP:  9.82D-01
 E= -4069.34141141637     Delta-E=       -0.391876347850 Rises=F Damp=T
 DIIS: error= 1.30D-02 at cycle   2 NSaved=   2.
 NSaved= 2 IEnMin= 2 EnMin= -4069.34141141637     IErMin= 2 ErrMin= 1.30D-02
 ErrMax= 1.30D-02  0.00D+00 EMaxC= 1.00D-01 BMatC= 3.06D-01 BMatP= 1.69D+00
 IDIUse=3 WtCom= 8.70D-01 WtEn= 1.30D-01
 Coeff-Com: -0.214D+00 0.121D+01
 Coeff-En:   0.000D+00 0.100D+01
 Coeff:     -0.186D+00 0.119D+01
 Gap=     0.130 Goal=   None    Shift=    0.000
 RMSDP=7.66D-04 MaxDP=9.58D-02 DE=-3.92D-01 OVMax= 1.90D-01

 Cycle   3  Pass 1  IDiag  1:
 RMSU=  7.34D-04    CP:  9.68D-01  1.24D+00
 E= -4069.63347561250     Delta-E=       -0.292064196132 Rises=F Damp=F
 DIIS: error= 1.47D-02 at cycle   3 NSaved=   3.
 NSaved= 3 IEnMin= 3 EnMin= -4069.63347561250     IErMin= 2 ErrMin= 1.30D-02
 ErrMax= 1.47D-02  0.00D+00 EMaxC= 1.00D-01 BMatC= 2.00D-01 BMatP= 3.06D-01
 IDIUse=3 WtCom= 8.53D-01 WtEn= 1.47D-01
 Coeff-Com: -0.266D+00 0.650D+00 0.616D+00
 Coeff-En:   0.000D+00 0.000D+00 0.100D+01
 Coeff:     -0.227D+00 0.554D+00 0.673D+00
 Gap=     0.115 Goal=   None    Shift=    0.000
 RMSDP=5.06D-04 MaxDP=4.85D-02 DE=-2.92D-01 OVMax= 1.45D-01

 Cycle   4  Pass 1  IDiag  1:
 RMSU=  2.66D-04    CP:  9.65D-01  1.54D+00  5.09D-01
 E= -4069.77209577867     Delta-E=       -0.138620166163 Rises=F Damp=F
 DIIS: error= 6.71D-03 at cycle   4 NSaved=   4.
 NSaved= 4 IEnMin= 4 EnMin= -4069.77209577867     IErMin= 4 ErrMin= 6.71D-03
 ErrMax= 6.71D-03  0.00D+00 EMaxC= 1.00D-01 BMatC= 4.78D-02 BMatP= 2.00D-01
 IDIUse=3 WtCom= 9.33D-01 WtEn= 6.71D-02
 Coeff-Com: -0.109D+00 0.226D+00 0.405D+00 0.478D+00
 Coeff-En:   0.000D+00 0.000D+00 0.213D+00 0.787D+00
 Coeff:     -0.102D+00 0.211D+00 0.392D+00 0.499D+00
 Gap=     0.115 Goal=   None    Shift=    0.000
 RMSDP=1.98D-04 MaxDP=1.93D-02 DE=-1.39D-01 OVMax= 6.27D-02

 Cycle   5  Pass 1  IDiag  1:
 RMSU=  7.72D-05    CP:  9.64D-01  1.49D+00  6.89D-01  5.54D-01
 E= -4069.81590471398     Delta-E=       -0.043808935316 Rises=F Damp=F
 DIIS: error= 6.03D-04 at cycle   5 NSaved=   5.
 NSaved= 5 IEnMin= 5 EnMin= -4069.81590471398     IErMin= 5 ErrMin= 6.03D-04
 ErrMax= 6.03D-04  0.00D+00 EMaxC= 1.00D-01 BMatC= 1.18D-03 BMatP= 4.78D-02
 IDIUse=3 WtCom= 9.94D-01 WtEn= 6.03D-03
 Coeff-Com: -0.370D-01 0.728D-01 0.166D+00 0.252D+00 0.546D+00
 Coeff-En:   0.000D+00 0.000D+00 0.000D+00 0.000D+00 0.100D+01
 Coeff:     -0.368D-01 0.723D-01 0.165D+00 0.251D+00 0.548D+00
 Gap=     0.114 Goal=   None    Shift=    0.000
 RMSDP=4.28D-05 MaxDP=4.24D-03 DE=-4.38D-02 OVMax= 1.88D-02

 Cycle   6  Pass 1  IDiag  1:
 RMSU=  3.17D-05    CP:  9.64D-01  1.49D+00  6.80D-01  6.27D-01  7.43D-01
 E= -4069.81694673844     Delta-E=       -0.001042024458 Rises=F Damp=F
 DIIS: error= 1.92D-04 at cycle   6 NSaved=   6.
 NSaved= 6 IEnMin= 6 EnMin= -4069.81694673844     IErMin= 6 ErrMin= 1.92D-04
 ErrMax= 1.92D-04  0.00D+00 EMaxC= 1.00D-01 BMatC= 1.99D-04 BMatP= 1.18D-03
 IDIUse=3 WtCom= 9.98D-01 WtEn= 1.92D-03
 Coeff-Com:  0.147D-02-0.516D-02 0.138D-01 0.440D-01 0.315D+00 0.631D+00
 Coeff-En:   0.000D+00 0.000D+00 0.000D+00 0.000D+00 0.132D+00 0.868D+00
 Coeff:      0.147D-02-0.515D-02 0.138D-01 0.439D-01 0.315D+00 0.631D+00
 Gap=     0.115 Goal=   None    Shift=    0.000
 RMSDP=1.74D-05 MaxDP=1.14D-03 DE=-1.04D-03 OVMax= 7.68D-03

 Cycle   7  Pass 1  IDiag  1:
 RMSU=  1.14D-05    CP:  9.64D-01  1.49D+00  6.87D-01  6.25D-01  8.52D-01
                    CP:  7.20D-01
 E= -4069.81716636382     Delta-E=       -0.000219625384 Rises=F Damp=F
 DIIS: error= 1.05D-04 at cycle   7 NSaved=   7.
 NSaved= 7 IEnMin= 7 EnMin= -4069.81716636382     IErMin= 7 ErrMin= 1.05D-04
 ErrMax= 1.05D-04  0.00D+00 EMaxC= 1.00D-01 BMatC= 2.60D-05 BMatP= 1.99D-04
 IDIUse=3 WtCom= 9.99D-01 WtEn= 1.05D-03
 Coeff-Com:  0.445D-02-0.982D-02-0.836D-02-0.262D-02 0.113D+00 0.338D+00
 Coeff-Com:  0.565D+00
 Coeff-En:   0.000D+00 0.000D+00 0.000D+00 0.000D+00 0.000D+00 0.000D+00
 Coeff-En:   0.100D+01
 Coeff:      0.445D-02-0.981D-02-0.835D-02-0.262D-02 0.113D+00 0.338D+00
 Coeff:      0.566D+00
 Gap=     0.115 Goal=   None    Shift=    0.000
 RMSDP=6.99D-06 MaxDP=1.17D-03 DE=-2.20D-04 OVMax= 3.64D-03

 Cycle   8  Pass 1  IDiag  1:
 RMSU=  4.88D-06    CP:  9.64D-01  1.49D+00  6.87D-01  6.30D-01  8.53D-01
                    CP:  8.51D-01  8.05D-01
 E= -4069.81719850775     Delta-E=       -0.000032143926 Rises=F Damp=F
 DIIS: error= 4.54D-05 at cycle   8 NSaved=   8.
 NSaved= 8 IEnMin= 8 EnMin= -4069.81719850775     IErMin= 8 ErrMin= 4.54D-05
 ErrMax= 4.54D-05  0.00D+00 EMaxC= 1.00D-01 BMatC= 5.15D-06 BMatP= 2.60D-05
 IDIUse=1 WtCom= 1.00D+00 WtEn= 0.00D+00
 Coeff-Com:  0.227D-02-0.450D-02-0.790D-02-0.125D-01-0.916D-02 0.330D-01
 Coeff-Com:  0.323D+00 0.676D+00
 Coeff:      0.227D-02-0.450D-02-0.790D-02-0.125D-01-0.916D-02 0.330D-01
 Coeff:      0.323D+00 0.676D+00
 Gap=     0.115 Goal=   None    Shift=    0.000
 RMSDP=3.43D-06 MaxDP=3.66D-04 DE=-3.21D-05 OVMax= 1.22D-03

 Cycle   9  Pass 1  IDiag  1:
 RMSU=  2.01D-06    CP:  9.64D-01  1.49D+00  6.88D-01  6.32D-01  8.71D-01
                    CP:  8.79D-01  9.96D-01  9.71D-01
 E= -4069.81720696212     Delta-E=       -0.000008454372 Rises=F Damp=F
 DIIS: error= 1.57D-05 at cycle   9 NSaved=   9.
 NSaved= 9 IEnMin= 9 EnMin= -4069.81720696212     IErMin= 9 ErrMin= 1.57D-05
 ErrMax= 1.57D-05  0.00D+00 EMaxC= 1.00D-01 BMatC= 7.88D-07 BMatP= 5.15D-06
 IDIUse=1 WtCom= 1.00D+00 WtEn= 0.00D+00
 Coeff-Com:  0.510D-03-0.857D-03-0.278D-02-0.630D-02-0.210D-01-0.414D-01
 Coeff-Com:  0.948D-01 0.336D+00 0.641D+00
 Coeff:      0.510D-03-0.857D-03-0.278D-02-0.630D-02-0.210D-01-0.414D-01
 Coeff:      0.948D-01 0.336D+00 0.641D+00
 Gap=     0.115 Goal=   None    Shift=    0.000
 RMSDP=1.51D-06 MaxDP=1.52D-04 DE=-8.45D-06 OVMax= 7.92D-04

 Cycle  10  Pass 1  IDiag  1:
 RMSU=  9.86D-07    CP:  9.64D-01  1.49D+00  6.88D-01  6.32D-01  8.74D-01
                    CP:  8.91D-01  1.05D+00  1.14D+00  1.08D+00
 E= -4069.81720880599     Delta-E=       -0.000001843866 Rises=F Damp=F
 DIIS: error= 7.93D-06 at cycle  10 NSaved=  10.
 NSaved=10 IEnMin=10 EnMin= -4069.81720880599     IErMin=10 ErrMin= 7.93D-06
 ErrMax= 7.93D-06  0.00D+00 EMaxC= 1.00D-01 BMatC= 1.88D-07 BMatP= 7.88D-07
 IDIUse=1 WtCom= 1.00D+00 WtEn= 0.00D+00
 Coeff-Com: -0.445D-03 0.935D-03 0.127D-02 0.114D-02-0.363D-02-0.322D-01
 Coeff-Com: -0.448D-01-0.765D-01 0.232D+00 0.922D+00
 Coeff:     -0.445D-03 0.935D-03 0.127D-02 0.114D-02-0.363D-02-0.322D-01
 Coeff:     -0.448D-01-0.765D-01 0.232D+00 0.922D+00
 Gap=     0.115 Goal=   None    Shift=    0.000
 RMSDP=1.34D-06 MaxDP=1.37D-04 DE=-1.84D-06 OVMax= 6.76D-04

 Cycle  11  Pass 1  IDiag  1:
 RMSU=  5.66D-07    CP:  9.64D-01  1.49D+00  6.88D-01  6.32D-01  8.77D-01
                    CP:  9.02D-01  1.09D+00  1.26D+00  1.43D+00  1.39D+00
 E= -4069.81720973483     Delta-E=       -0.000000928845 Rises=F Damp=F
 DIIS: error= 4.77D-06 at cycle  11 NSaved=  11.
 NSaved=11 IEnMin=11 EnMin= -4069.81720973483     IErMin=11 ErrMin= 4.77D-06
 ErrMax= 4.77D-06  0.00D+00 EMaxC= 1.00D-01 BMatC= 7.82D-08 BMatP= 1.88D-07
 IDIUse=1 WtCom= 1.00D+00 WtEn= 0.00D+00
 Coeff-Com: -0.363D-03 0.707D-03 0.143D-02 0.228D-02 0.485D-02-0.891D-02
 Coeff-Com: -0.423D-01-0.138D+00-0.491D-01 0.500D+00 0.730D+00
 Coeff:     -0.363D-03 0.707D-03 0.143D-02 0.228D-02 0.485D-02-0.891D-02
 Coeff:     -0.423D-01-0.138D+00-0.491D-01 0.500D+00 0.730D+00
 Gap=     0.115 Goal=   None    Shift=    0.000
 RMSDP=7.69D-07 MaxDP=6.33D-05 DE=-9.29D-07 OVMax= 4.15D-04

 Cycle  12  Pass 1  IDiag  1:
 RMSU=  2.83D-07    CP:  9.64D-01  1.49D+00  6.88D-01  6.33D-01  8.78D-01
                    CP:  9.05D-01  1.12D+00  1.33D+00  1.61D+00  1.80D+00
                    CP:  1.20D+00
 E= -4069.81721006124     Delta-E=       -0.000000326403 Rises=F Damp=F
 DIIS: error= 2.55D-06 at cycle  12 NSaved=  12.
 NSaved=12 IEnMin=12 EnMin= -4069.81721006124     IErMin=12 ErrMin= 2.55D-06
 ErrMax= 2.55D-06  0.00D+00 EMaxC= 1.00D-01 BMatC= 1.84D-08 BMatP= 7.82D-08
 IDIUse=1 WtCom= 1.00D+00 WtEn= 0.00D+00
 Coeff-Com: -0.165D-04 0.143D-04 0.246D-03 0.620D-03 0.380D-02 0.379D-02
 Coeff-Com:  0.189D-02-0.389D-01-0.788D-01-0.451D-01 0.252D+00 0.901D+00
 Coeff:     -0.165D-04 0.143D-04 0.246D-03 0.620D-03 0.380D-02 0.379D-02
 Coeff:      0.189D-02-0.389D-01-0.788D-01-0.451D-01 0.252D+00 0.901D+00
 Gap=     0.115 Goal=   None    Shift=    0.000
 RMSDP=4.78D-07 MaxDP=3.50D-05 DE=-3.26D-07 OVMax= 3.00D-04

 Cycle  13  Pass 1  IDiag  1:
 RMSU=  1.80D-07    CP:  9.64D-01  1.49D+00  6.88D-01  6.33D-01  8.78D-01
                    CP:  9.05D-01  1.12D+00  1.36D+00  1.73D+00  2.04D+00
                    CP:  1.61D+00  1.25D+00
 E= -4069.81721017085     Delta-E=       -0.000000109612 Rises=F Damp=F
 DIIS: error= 1.83D-06 at cycle  13 NSaved=  13.
 NSaved=13 IEnMin=13 EnMin= -4069.81721017085     IErMin=13 ErrMin= 1.83D-06
 ErrMax= 1.83D-06  0.00D+00 EMaxC= 1.00D-01 BMatC= 1.05D-08 BMatP= 1.84D-08
 IDIUse=1 WtCom= 1.00D+00 WtEn= 0.00D+00
 Coeff-Com:  0.127D-03-0.259D-03-0.381D-03-0.477D-03 0.738D-03 0.502D-02
 Coeff-Com:  0.193D-01 0.239D-01-0.322D-01-0.237D+00-0.172D+00 0.603D+00
 Coeff-Com:  0.790D+00
 Coeff:      0.127D-03-0.259D-03-0.381D-03-0.477D-03 0.738D-03 0.502D-02
 Coeff:      0.193D-01 0.239D-01-0.322D-01-0.237D+00-0.172D+00 0.603D+00
 Coeff:      0.790D+00
 Gap=     0.115 Goal=   None    Shift=    0.000
 RMSDP=3.81D-07 MaxDP=2.65D-05 DE=-1.10D-07 OVMax= 2.20D-04

 Cycle  14  Pass 1  IDiag  1:
 RMSU=  8.29D-08    CP:  9.64D-01  1.49D+00  6.88D-01  6.33D-01  8.78D-01
                    CP:  9.06D-01  1.13D+00  1.39D+00  1.81D+00  2.24D+00
                    CP:  1.87D+00  1.78D+00  1.09D+00
 E= -4069.81721021602     Delta-E=       -0.000000045176 Rises=F Damp=F
 DIIS: error= 7.96D-07 at cycle  14 NSaved=  14.
 NSaved=14 IEnMin=14 EnMin= -4069.81721021602     IErMin=14 ErrMin= 7.96D-07
 ErrMax= 7.96D-07  0.00D+00 EMaxC= 1.00D-01 BMatC= 1.52D-09 BMatP= 1.05D-08
 IDIUse=1 WtCom= 1.00D+00 WtEn= 0.00D+00
 Coeff-Com:  0.740D-04-0.146D-03-0.268D-03-0.425D-03-0.482D-03 0.127D-02
 Coeff-Com:  0.108D-01 0.210D-01 0.613D-02-0.104D+00-0.154D+00 0.105D+00
 Coeff-Com:  0.405D+00 0.711D+00
 Coeff:      0.740D-04-0.146D-03-0.268D-03-0.425D-03-0.482D-03 0.127D-02
 Coeff:      0.108D-01 0.210D-01 0.613D-02-0.104D+00-0.154D+00 0.105D+00
 Coeff:      0.405D+00 0.711D+00
 Gap=     0.115 Goal=   None    Shift=    0.000
 RMSDP=1.14D-07 MaxDP=8.56D-06 DE=-4.52D-08 OVMax= 7.47D-05

 Cycle  15  Pass 1  IDiag  1:
 RMSU=  4.11D-08    CP:  9.64D-01  1.49D+00  6.88D-01  6.33D-01  8.78D-01
                    CP:  9.06D-01  1.13D+00  1.39D+00  1.83D+00  2.29D+00
                    CP:  1.98D+00  1.92D+00  1.32D+00  1.03D+00
 E= -4069.81721022074     Delta-E=       -0.000000004715 Rises=F Damp=F
 DIIS: error= 4.15D-07 at cycle  15 NSaved=  15.
 NSaved=15 IEnMin=15 EnMin= -4069.81721022074     IErMin=15 ErrMin= 4.15D-07
 ErrMax= 4.15D-07  0.00D+00 EMaxC= 1.00D-01 BMatC= 2.76D-10 BMatP= 1.52D-09
 IDIUse=1 WtCom= 1.00D+00 WtEn= 0.00D+00
 Coeff-Com:  0.850D-05-0.150D-04-0.440D-04-0.101D-03-0.322D-03-0.511D-03
 Coeff-Com:  0.145D-02 0.345D-02 0.919D-02-0.165D-02-0.357D-01-0.637D-01
 Coeff-Com:  0.329D-01 0.310D+00 0.745D+00
 Coeff:      0.850D-05-0.150D-04-0.440D-04-0.101D-03-0.322D-03-0.511D-03
 Coeff:      0.145D-02 0.345D-02 0.919D-02-0.165D-02-0.357D-01-0.637D-01
 Coeff:      0.329D-01 0.310D+00 0.745D+00
 Gap=     0.115 Goal=   None    Shift=    0.000
 RMSDP=4.12D-08 MaxDP=2.95D-06 DE=-4.71D-09 OVMax= 2.55D-05

 Cycle  16  Pass 1  IDiag  1:
 RMSU=  1.97D-08    CP:  9.64D-01  1.49D+00  6.88D-01  6.33D-01  8.78D-01
                    CP:  9.06D-01  1.13D+00  1.39D+00  1.83D+00  2.30D+00
                    CP:  2.00D+00  1.97D+00  1.39D+00  1.23D+00  1.14D+00
 E= -4069.81721022179     Delta-E=       -0.000000001055 Rises=F Damp=F
 DIIS: error= 1.86D-07 at cycle  16 NSaved=  16.
 NSaved=16 IEnMin=16 EnMin= -4069.81721022179     IErMin=16 ErrMin= 1.86D-07
 ErrMax= 1.86D-07  0.00D+00 EMaxC= 1.00D-01 BMatC= 8.89D-11 BMatP= 2.76D-10
 IDIUse=1 WtCom= 1.00D+00 WtEn= 0.00D+00
 Coeff-Com: -0.145D-04 0.295D-04 0.465D-04 0.529D-04-0.347D-04-0.636D-03
 Coeff-Com: -0.182D-02-0.422D-02 0.381D-02 0.249D-01 0.204D-01-0.606D-01
 Coeff-Com: -0.832D-01-0.237D-01 0.378D+00 0.747D+00
 Coeff:     -0.145D-04 0.295D-04 0.465D-04 0.529D-04-0.347D-04-0.636D-03
 Coeff:     -0.182D-02-0.422D-02 0.381D-02 0.249D-01 0.204D-01-0.606D-01
 Coeff:     -0.832D-01-0.237D-01 0.378D+00 0.747D+00
 Gap=     0.115 Goal=   None    Shift=    0.000
 RMSDP=2.43D-08 MaxDP=1.73D-06 DE=-1.06D-09 OVMax= 1.67D-05

 Cycle  17  Pass 1  IDiag  1:
 RMSU=  1.16D-08    CP:  9.64D-01  1.49D+00  6.88D-01  6.33D-01  8.78D-01
                    CP:  9.06D-01  1.13D+00  1.39D+00  1.83D+00  2.31D+00
                    CP:  2.01D+00  2.00D+00  1.43D+00  1.32D+00  1.42D+00
                    CP:  1.22D+00
 E= -4069.81721022169     Delta-E=        0.000000000102 Rises=F Damp=F
 DIIS: error= 1.06D-07 at cycle  17 NSaved=  17.
 NSaved=17 IEnMin=16 EnMin= -4069.81721022179     IErMin=17 ErrMin= 1.06D-07
 ErrMax= 1.06D-07  0.00D+00 EMaxC= 1.00D-01 BMatC= 2.31D-11 BMatP= 8.89D-11
 IDIUse=1 WtCom= 1.00D+00 WtEn= 0.00D+00
 Coeff-Com: -0.881D-05 0.172D-04 0.332D-04 0.488D-04 0.837D-04-0.168D-03
 Coeff-Com: -0.106D-02-0.314D-02-0.987D-04 0.116D-01 0.190D-01-0.114D-01
 Coeff-Com: -0.436D-01-0.945D-01-0.279D-01 0.348D+00 0.803D+00
 Coeff:     -0.881D-05 0.172D-04 0.332D-04 0.488D-04 0.837D-04-0.168D-03
 Coeff:     -0.106D-02-0.314D-02-0.987D-04 0.116D-01 0.190D-01-0.114D-01
 Coeff:     -0.436D-01-0.945D-01-0.279D-01 0.348D+00 0.803D+00
 Gap=     0.115 Goal=   None    Shift=    0.000
 RMSDP=1.40D-08 MaxDP=9.84D-07 DE= 1.02D-10 OVMax= 8.00D-06

 Cycle  18  Pass 1  IDiag  1:
 RMSU=  5.45D-09    CP:  9.64D-01  1.49D+00  6.88D-01  6.33D-01  8.78D-01
                    CP:  9.06D-01  1.13D+00  1.39D+00  1.84D+00  2.31D+00
                    CP:  2.02D+00  2.01D+00  1.45D+00  1.39D+00  1.58D+00
                    CP:  1.61D+00  1.32D+00
 E= -4069.81721022219     Delta-E=       -0.000000000495 Rises=F Damp=F
 DIIS: error= 7.04D-08 at cycle  18 NSaved=  18.
 NSaved=18 IEnMin=18 EnMin= -4069.81721022219     IErMin=18 ErrMin= 7.04D-08
 ErrMax= 7.04D-08  0.00D+00 EMaxC= 1.00D-01 BMatC= 7.63D-12 BMatP= 2.31D-11
 IDIUse=1 WtCom= 1.00D+00 WtEn= 0.00D+00
 Coeff-Com:  0.568D-06-0.150D-05 0.879D-06 0.586D-05 0.687D-04 0.140D-03
 Coeff-Com:  0.193D-03-0.241D-03-0.118D-02-0.355D-02 0.221D-02 0.158D-01
 Coeff-Com:  0.996D-02-0.400D-01-0.153D+00-0.925D-01 0.376D+00 0.885D+00
 Coeff:      0.568D-06-0.150D-05 0.879D-06 0.586D-05 0.687D-04 0.140D-03
 Coeff:      0.193D-03-0.241D-03-0.118D-02-0.355D-02 0.221D-02 0.158D-01
 Coeff:      0.996D-02-0.400D-01-0.153D+00-0.925D-01 0.376D+00 0.885D+00
 Gap=     0.115 Goal=   None    Shift=    0.000
 RMSDP=1.07D-08 MaxDP=8.52D-07 DE=-4.95D-10 OVMax= 7.07D-06

 Cycle  19  Pass 1  IDiag  1:
 RMSU=  3.33D-09    CP:  9.64D-01  1.49D+00  6.88D-01  6.33D-01  8.78D-01
                    CP:  9.06D-01  1.13D+00  1.39D+00  1.84D+00  2.31D+00
                    CP:  2.02D+00  2.01D+00  1.46D+00  1.43D+00  1.71D+00
                    CP:  1.88D+00  1.80D+00  1.19D+00
 E= -4069.81721022227     Delta-E=       -0.000000000087 Rises=F Damp=F
 DIIS: error= 2.94D-08 at cycle  19 NSaved=  19.
 NSaved=19 IEnMin=19 EnMin= -4069.81721022227     IErMin=19 ErrMin= 2.94D-08
 ErrMax= 2.94D-08  0.00D+00 EMaxC= 1.00D-01 BMatC= 2.83D-12 BMatP= 7.63D-12
 IDIUse=1 WtCom= 1.00D+00 WtEn= 0.00D+00
 Coeff-Com:  0.331D-05-0.672D-05-0.108D-04-0.130D-04 0.195D-04 0.142D-03
 Coeff-Com:  0.500D-03 0.881D-03-0.647D-03-0.648D-02-0.524D-02 0.140D-01
 Coeff-Com:  0.220D-01 0.692D-02-0.911D-01-0.186D+00-0.487D-01 0.560D+00
 Coeff-Com:  0.733D+00
 Coeff:      0.331D-05-0.672D-05-0.108D-04-0.130D-04 0.195D-04 0.142D-03
 Coeff:      0.500D-03 0.881D-03-0.647D-03-0.648D-02-0.524D-02 0.140D-01
 Coeff:      0.220D-01 0.692D-02-0.911D-01-0.186D+00-0.487D-01 0.560D+00
 Coeff:      0.733D+00
 Gap=     0.115 Goal=   None    Shift=    0.000
 RMSDP=6.39D-09 MaxDP=4.45D-07 DE=-8.73D-11 OVMax= 3.48D-06

 SCF Done:  E(RCAM-B3LYP) =  -4069.81721022     A.U. after   19 cycles
            NFock= 19  Conv=0.64D-08     -V/T= 2.0102
 KE= 4.028787087090D+03 PE=-4.060551217705D+04 EE= 1.694463118211D+04
 Leave Link  502 at Fri Sep 10 18:34:22 2021, MaxMem= 23488102400 cpu:           17549.4 elap:             759.1
 (Enter /sw/apps/gaussian-16.0/g16/l801.exe)
 DoSCS=F DFT=T ScalE2(SS,OS)=  1.000000  1.000000
 ExpMin= 3.36D-02 ExpMax= 4.95D+03 ExpMxC= 7.45D+02 IAcc=3 IRadAn=         5 AccDes= 0.00D+00
 HarFok:  IExCor=  205 AccDes= 0.00D+00 IRadAn=         5 IDoV=-2 UseB2=F ITyADJ=14
 ICtDFT= 12500011 ScaDFX=  1.000000  1.000000  1.000000  1.000000
 GSVD:  LWork=       -9588 too small for GESVD, short by       45590 words or       45590 for optimal perf.
 Largest valence mixing into a core orbital is  2.03D-04
 Largest core mixing into a valence orbital is  5.26D-05
 Range of M.O.s used for correlation:    95  1572
 NBasis=  1572 NAE=   312 NBE=   312 NFC=    94 NFV=     0
 NROrb=   1478 NOA=   218 NOB=   218 NVA=  1260 NVB=  1260
 Leave Link  801 at Fri Sep 10 18:34:22 2021, MaxMem= 23488102400 cpu:               8.3 elap:               0.4
 (Enter /sw/apps/gaussian-16.0/g16/l914.exe)
 RHF ground state
 Two-electron integrals replicated using symmetry.
 MDV= 23488102400 DFT=T DoStab=F Mixed=T DoRPA=T DoScal=F NonHer=T
 Making orbital integer symmetry assigments:
 Orbital symmetries:
       Occupied  (A) (A) (A) (A) (A) (A) (A) (A) (A) (A) (A) (A)
                 (A) (A) (A) (A) (A) (A) (A) (A) (A) (A) (A) (A)
                 (A) (A) (A) (A) (A) (A) (A) (A) (A) (A) (A) (A)
                 (A) (A) (A) (A) (A) (A) (A) (A) (A) (A) (A) (A)
                 (A) (A) (A) (A) (A) (A) (A) (A) (A) (A) (A) (A)
                 (A) (A) (A) (A) (A) (A) (A) (A) (A) (A) (A) (A)
                 (A) (A) (A) (A) (A) (A) (A) (A) (A) (A) (A) (A)
                 (A) (A) (A) (A) (A) (A) (A) (A) (A) (A) (A) (A)
                 (A) (A) (A) (A) (A) (A) (A) (A) (A) (A) (A) (A)
                 (A) (A) (A) (A) (A) (A) (A) (A) (A) (A) (A) (A)
                 (A) (A) (A) (A) (A) (A) (A) (A) (A) (A) (A) (A)
                 (A) (A) (A) (A) (A) (A) (A) (A) (A) (A) (A) (A)
                 (A) (A) (A) (A) (A) (A) (A) (A) (A) (A) (A) (A)
                 (A) (A) (A) (A) (A) (A) (A) (A) (A) (A) (A) (A)
                 (A) (A) (A) (A) (A) (A) (A) (A) (A) (A) (A) (A)
                 (A) (A) (A) (A) (A) (A) (A) (A) (A) (A) (A) (A)
                 (A) (A) (A) (A) (A) (A) (A) (A) (A) (A) (A) (A)
                 (A) (A) (A) (A) (A) (A) (A) (A) (A) (A) (A) (A)
                 (A) (A) (A) (A) (A) (A) (A) (A) (A) (A) (A) (A)
                 (A) (A) (A) (A) (A) (A) (A) (A) (A) (A) (A) (A)
                 (A) (A) (A) (A) (A) (A) (A) (A) (A) (A) (A) (A)
                 (A) (A) (A) (A) (A) (A) (A) (A) (A) (A) (A) (A)
                 (A) (A) (A) (A) (A) (A) (A) (A) (A) (A) (A) (A)
                 (A) (A) (A) (A) (A) (A) (A) (A) (A) (A) (A) (A)
                 (A) (A) (A) (A) (A) (A) (A) (A) (A) (A) (A) (A)
                 (A) (A) (A) (A) (A) (A) (A) (A) (A) (A) (A) (A)
       Virtual   (A) (A) (A) (A) (A) (A) (A) (A) (A) (A) (A) (A)
                 (A) (A) (A) (A) (A) (A) (A) (A) (A) (A) (A) (A)
                 (A) (A) (A) (A) (A) (A) (A) (A) (A) (A) (A) (A)
                 (A) (A) (A) (A) (A) (A) (A) (A) (A) (A) (A) (A)
                 (A) (A) (A) (A) (A) (A) (A) (A) (A) (A) (A) (A)
                 (A) (A) (A) (A) (A) (A) (A) (A) (A) (A) (A) (A)
                 (A) (A) (A) (A) (A) (A) (A) (A) (A) (A) (A) (A)
                 (A) (A) (A) (A) (A) (A) (A) (A) (A) (A) (A) (A)
                 (A) (A) (A) (A) (A) (A) (A) (A) (A) (A) (A) (A)
                 (A) (A) (A) (A) (A) (A) (A) (A) (A) (A) (A) (A)
                 (A) (A) (A) (A) (A) (A) (A) (A) (A) (A) (A) (A)
                 (A) (A) (A) (A) (A) (A) (A) (A) (A) (A) (A) (A)
                 (A) (A) (A) (A) (A) (A) (A) (A) (A) (A) (A) (A)
                 (A) (A) (A) (A) (A) (A) (A) (A) (A) (A) (A) (A)
                 (A) (A) (A) (A) (A) (A) (A) (A) (A) (A) (A) (A)
                 (A) (A) (A) (A) (A) (A) (A) (A) (A) (A) (A) (A)
                 (A) (A) (A) (A) (A) (A) (A) (A) (A) (A) (A) (A)
                 (A) (A) (A) (A) (A) (A) (A) (A) (A) (A) (A) (A)
                 (A) (A) (A) (A) (A) (A) (A) (A) (A) (A) (A) (A)
                 (A) (A) (A) (A) (A) (A) (A) (A) (A) (A) (A) (A)
                 (A) (A) (A) (A) (A) (A) (A) (A) (A) (A) (A) (A)
                 (A) (A) (A) (A) (A) (A) (A) (A) (A) (A) (A) (A)
                 (A) (A) (A) (A) (A) (A) (A) (A) (A) (A) (A) (A)
                 (A) (A) (A) (A) (A) (A) (A) (A) (A) (A) (A) (A)
                 (A) (A) (A) (A) (A) (A) (A) (A) (A) (A) (A) (A)
                 (A) (A) (A) (A) (A) (A) (A) (A) (A) (A) (A) (A)
                 (A) (A) (A) (A) (A) (A) (A) (A) (A) (A) (A) (A)
                 (A) (A) (A) (A) (A) (A) (A) (A) (A) (A) (A) (A)
                 (A) (A) (A) (A) (A) (A) (A) (A) (A) (A) (A) (A)
                 (A) (A) (A) (A) (A) (A) (A) (A) (A) (A) (A) (A)
                 (A) (A) (A) (A) (A) (A) (A) (A) (A) (A) (A) (A)
                 (A) (A) (A) (A) (A) (A) (A) (A) (A) (A) (A) (A)
                 (A) (A) (A) (A) (A) (A) (A) (A) (A) (A) (A) (A)
                 (A) (A) (A) (A) (A) (A) (A) (A) (A) (A) (A) (A)
                 (A) (A) (A) (A) (A) (A) (A) (A) (A) (A) (A) (A)
                 (A) (A) (A) (A) (A) (A) (A) (A) (A) (A) (A) (A)
                 (A) (A) (A) (A) (A) (A) (A) (A) (A) (A) (A) (A)
                 (A) (A) (A) (A) (A) (A) (A) (A) (A) (A) (A) (A)
                 (A) (A) (A) (A) (A) (A) (A) (A) (A) (A) (A) (A)
                 (A) (A) (A) (A) (A) (A) (A) (A) (A) (A) (A) (A)
                 (A) (A) (A) (A) (A) (A) (A) (A) (A) (A) (A) (A)
                 (A) (A) (A) (A) (A) (A) (A) (A) (A) (A) (A) (A)
                 (A) (A) (A) (A) (A) (A) (A) (A) (A) (A) (A) (A)
                 (A) (A) (A) (A) (A) (A) (A) (A) (A) (A) (A) (A)
                 (A) (A) (A) (A) (A) (A) (A) (A) (A) (A) (A) (A)
                 (A) (A) (A) (A) (A) (A) (A) (A) (A) (A) (A) (A)
                 (A) (A) (A) (A) (A) (A) (A) (A) (A) (A) (A) (A)
                 (A) (A) (A) (A) (A) (A) (A) (A) (A) (A) (A) (A)
                 (A) (A) (A) (A) (A) (A) (A) (A) (A) (A) (A) (A)
                 (A) (A) (A) (A) (A) (A) (A) (A) (A) (A) (A) (A)
                 (A) (A) (A) (A) (A) (A) (A) (A) (A) (A) (A) (A)
                 (A) (A) (A) (A) (A) (A) (A) (A) (A) (A) (A) (A)
                 (A) (A) (A) (A) (A) (A) (A) (A) (A) (A) (A) (A)
                 (A) (A) (A) (A) (A) (A) (A) (A) (A) (A) (A) (A)
                 (A) (A) (A) (A) (A) (A) (A) (A) (A) (A) (A) (A)
                 (A) (A) (A) (A) (A) (A) (A) (A) (A) (A) (A) (A)
                 (A) (A) (A) (A) (A) (A) (A) (A) (A) (A) (A) (A)
                 (A) (A) (A) (A) (A) (A) (A) (A) (A) (A) (A) (A)
                 (A) (A) (A) (A) (A) (A) (A) (A) (A) (A) (A) (A)
                 (A) (A) (A) (A) (A) (A) (A) (A) (A) (A) (A) (A)
                 (A) (A) (A) (A) (A) (A) (A) (A) (A) (A) (A) (A)
                 (A) (A) (A) (A) (A) (A) (A) (A) (A) (A) (A) (A)
                 (A) (A) (A) (A) (A) (A) (A) (A) (A) (A) (A) (A)
                 (A) (A) (A) (A) (A) (A) (A) (A) (A) (A) (A) (A)
                 (A) (A) (A) (A) (A) (A) (A) (A) (A) (A) (A) (A)
                 (A) (A) (A) (A) (A) (A) (A) (A) (A) (A) (A) (A)
                 (A) (A) (A) (A) (A) (A) (A) (A) (A) (A) (A) (A)
                 (A) (A) (A) (A) (A) (A) (A) (A) (A) (A) (A) (A)
                 (A) (A) (A) (A) (A) (A) (A) (A) (A) (A) (A) (A)
                 (A) (A) (A) (A) (A) (A) (A) (A) (A) (A) (A) (A)
                 (A) (A) (A) (A) (A) (A) (A) (A) (A) (A) (A) (A)
                 (A) (A) (A) (A) (A) (A) (A) (A) (A) (A) (A) (A)
                 (A) (A) (A) (A) (A) (A) (A) (A) (A) (A) (A) (A)
                 (A) (A) (A) (A) (A) (A) (A) (A) (A) (A) (A) (A)
                 (A) (A) (A) (A) (A) (A) (A) (A) (A) (A) (A) (A)
                 (A) (A) (A) (A) (A) (A) (A) (A) (A) (A) (A) (A)
                 (A) (A) (A) (A) (A) (A) (A) (A) (A) (A) (A) (A)
                 (A) (A) (A) (A) (A) (A) (A) (A) (A) (A) (A) (A)
                 (A) (A) (A) (A) (A) (A) (A) (A) (A) (A) (A) (A)
                 (A) (A) (A) (A) (A) (A) (A) (A) (A) (A) (A) (A)
                 (A) (A) (A) (A) (A) (A) (A) (A) (A) (A) (A) (A)
                 (A) (A) (A) (A) (A) (A) (A) (A) (A) (A) (A) (A)
                 (A) (A) (A) (A) (A) (A) (A) (A) (A) (A) (A) (A)
                 (A) (A) (A) (A) (A) (A) (A) (A) (A) (A) (A) (A)
                 (A) (A) (A) (A) (A) (A) (A) (A) (A) (A) (A) (A)
                 (A) (A) (A) (A) (A) (A) (A) (A) (A) (A) (A) (A)
                 (A) (A) (A) (A) (A) (A) (A) (A) (A) (A) (A) (A)
                 (A) (A) (A) (A) (A) (A) (A) (A) (A) (A) (A) (A)
                 (A) (A) (A) (A) (A) (A) (A) (A) (A) (A) (A) (A)
                 (A) (A) (A) (A) (A) (A) (A) (A) (A) (A) (A) (A)
                 (A) (A) (A) (A) (A) (A) (A) (A) (A) (A) (A) (A)
                 (A) (A) (A) (A) (A) (A) (A) (A) (A) (A) (A) (A)
                 (A) (A) (A) (A) (A) (A) (A) (A) (A) (A) (A) (A)
                 (A) (A) (A) (A) (A) (A) (A) (A) (A) (A) (A) (A)
                 (A) (A) (A) (A) (A) (A) (A) (A) (A) (A) (A) (A)
                 (A) (A) (A) (A) (A) (A) (A) (A) (A) (A) (A) (A)
                 (A) (A) (A) (A) (A) (A) (A) (A) (A) (A) (A) (A)
                 (A) (A) (A) (A) (A) (A) (A) (A) (A) (A) (A) (A)
                 (A) (A) (A) (A) (A) (A) (A) (A) (A) (A) (A) (A)
                 (A) (A) (A) (A) (A) (A) (A) (A) (A) (A) (A) (A)
                 (A) (A) (A) (A) (A) (A) (A) (A) (A) (A) (A) (A)
                 (A) (A) (A) (A) (A) (A) (A) (A) (A) (A) (A) (A)
                 (A) (A) (A) (A) (A) (A) (A) (A) (A) (A) (A) (A)
                 (A) (A) (A) (A) (A) (A) (A) (A) (A) (A) (A) (A)
                 (A) (A) (A) (A) (A) (A) (A) (A) (A) (A) (A) (A)
    20 initial guesses have been made.
 Convergence on wavefunction:    0.001000000000000
 Davidson Disk Diagonalization:  ConvIn= 1.00D-03 SkipCon=T Conv= 1.00D-03.
 Max sub-space:  2000 roots to seek:    20 dimension of matrix:       549360
 Iteration     1 Dimension    20 NMult     0 NNew     20
 CISAX will form    20 AO SS matrices at one time.
 NMat=    20 NSing=    20 JSym2X= 0.
 FoFJK:  IHMeth= 1 ICntrl=       0 DoSepK=T KAlg= 0 I1Cent=           0 FoldK=F
 IRaf=         1 NMat=      40 IRICut=       1 DoRegI=T DoRafI=F ISym2E= 0 IDoP0=3 IntGTp=3.
 FoFCou: FMM=T IPFlag=           0 FMFlag=      100000 FMFlg1=        2001
         NFxFlg=           0 DoJE=F BraDBF=F KetDBF=F FulRan=T
         wScrn=  0.000000 ICntrl=       500 IOpCl=  0 I1Cent=           0 NGrid=           0
         NMat0=   20 NMatS0=     20 NMatT0=    0 NMatD0=   20 NMtDS0=    0 NMtDT0=    0
 Symmetry not used in FoFCou.
 FMM levels:  10  Number of levels for PrismC:   9
 New state      2 was old state      7
 New state      3 was old state      6
 New state      4 was old state      2
 New state      5 was old state      3
 Excitation Energies [eV] at current iteration:
 Root      1 :     2.301992140098456
 Root      2 :     2.606669993274314
 Root      3 :     2.621126945167798
 Root      4 :     2.639208759605993
 Root      5 :     2.737522987350821
 Root      6 :     2.751063882572593
 Root      7 :     3.074468250425681
 Root      8 :     3.555752980013408
 Root      9 :     3.614073297394804
 Root     10 :     3.670156399825979
 Root     11 :     3.745537187418530
 Root     12 :     3.761192457314805
 Root     13 :     4.204438048079036
 Root     14 :     4.296496266061119
 Root     15 :     4.303596552227966
 Root     16 :     4.514319757016448
 Root     17 :     4.572811463116795
 Root     18 :     4.606723804809345
 Root     19 :     4.682344431976872
 Root     20 :     4.708879498768294
 Iteration     2 Dimension    30 NMult    20 NNew     10
 CISAX will form    10 AO SS matrices at one time.
 NMat=    10 NSing=    10 JSym2X= 0.
 New state      1 was old state      4
 Root      1 not converged, maximum delta is    0.237741746577133
 New state      2 was old state      5
 Root      2 not converged, maximum delta is    0.143877619536780
 Root      3 not converged, maximum delta is    0.437237925155509
 New state      4 was old state      2
 Root      4 not converged, maximum delta is    0.335202033579348
 New state      5 was old state      1
 Root      5 not converged, maximum delta is    0.028340607074270
 Excitation Energies [eV] at current iteration:
 Root      1 :     1.772945290239054   Change is   -0.866263469366939
 Root      2 :     1.826533316175762   Change is   -0.910989671175059
 Root      3 :     2.232686373744001   Change is   -0.388440571423797
 Root      4 :     2.239414543771901   Change is   -0.367255449502413
 Root      5 :     2.295994625647792   Change is   -0.005997514450665
 Iteration     3 Dimension    40 NMult    30 NNew     10
 CISAX will form    10 AO SS matrices at one time.
 NMat=    10 NSing=    10 JSym2X= 0.
 Root      1 not converged, maximum delta is    0.054006565842594
 Root      2 not converged, maximum delta is    0.053559652960921
 Root      3 not converged, maximum delta is    0.086811409241956
 Root      4 not converged, maximum delta is    0.086039221978542
 Root      5 not converged, maximum delta is    0.004963253916143
 Excitation Energies [eV] at current iteration:
 Root      1 :     1.668744160975022   Change is   -0.104201129264033
 Root      2 :     1.716545658638941   Change is   -0.109987657536822
 Root      3 :     2.189766816577208   Change is   -0.042919557166793
 Root      4 :     2.200543876409347   Change is   -0.038870667362555
 Root      5 :     2.295961782460370   Change is   -0.000032843187421
 Iteration     4 Dimension    50 NMult    40 NNew     10
 CISAX will form    10 AO SS matrices at one time.
 NMat=    10 NSing=    10 JSym2X= 0.
 Root      1 not converged, maximum delta is    0.011169050139378
 Root      2 not converged, maximum delta is    0.009891940443369
 Root      3 not converged, maximum delta is    0.010414022721393
 Root      4 not converged, maximum delta is    0.008649489908220
 Root      5 has converged.
 Excitation Energies [eV] at current iteration:
 Root      1 :     1.652006421117767   Change is   -0.016737739857255
 Root      2 :     1.699508459921302   Change is   -0.017037198717639
 Root      3 :     2.182251651536815   Change is   -0.007515165040393
 Root      4 :     2.193895238156968   Change is   -0.006648638252378
 Root      5 :     2.295960102462451   Change is   -0.000001679997920
 Iteration     5 Dimension    58 NMult    50 NNew      8
 CISAX will form     8 AO SS matrices at one time.
 NMat=     8 NSing=     8 JSym2X= 0.
 Root      1 not converged, maximum delta is    0.001604375717573
 Root      2 not converged, maximum delta is    0.001464248091349
 Root      3 not converged, maximum delta is    0.002573792695625
 Root      4 not converged, maximum delta is    0.002429866774181
 Root      5 has converged.
 Excitation Energies [eV] at current iteration:
 Root      1 :     1.650230564049005   Change is   -0.001775857068762
 Root      2 :     1.697667116739972   Change is   -0.001841343181330
 Root      3 :     2.181368787255539   Change is   -0.000882864281276
 Root      4 :     2.193132534192203   Change is   -0.000762703964766
 Root      5 :     2.295960010506946   Change is   -0.000000091955504
 Iteration     6 Dimension    66 NMult    58 NNew      8
 CISAX will form     8 AO SS matrices at one time.
 NMat=     8 NSing=     8 JSym2X= 0.
 Root      1 not converged, maximum delta is    0.001020211468486
 Root      2 has converged.
 Root      3 not converged, maximum delta is    0.001063052255350
 Root      4 has converged.
 Root      5 has converged.
 Excitation Energies [eV] at current iteration:
 Root      1 :     1.649985891627993   Change is   -0.000244672421012
 Root      2 :     1.697406926643231   Change is   -0.000260190096741
 Root      3 :     2.181236067232768   Change is   -0.000132720022772
 Root      4 :     2.193015039333452   Change is   -0.000117494858750
 Root      5 :     2.295959974418400   Change is   -0.000000036088547
 Iteration     7 Dimension    70 NMult    66 NNew      4
 CISAX will form     4 AO SS matrices at one time.
 NMat=     4 NSing=     4 JSym2X= 0.
 Root      1 has converged.
 Root      2 has converged.
 Root      3 has converged.
 Root      4 has converged.
 Root      5 has converged.
 Excitation Energies [eV] at current iteration:
 Root      1 :     1.649961909244692   Change is   -0.000023982383301
[...]
 Alpha virt. eigenvalues --    1.84718   1.84854   1.84979   1.85067   1.85175
 Alpha virt. eigenvalues --    1.85392   1.85511   1.85628   1.85791   1.86023
 Alpha virt. eigenvalues --    1.86096   1.86147   1.86341   1.86501   1.86655
 Alpha virt. eigenvalues --    1.86730   1.86979   1.87058   1.87197   1.87321
 Alpha virt. eigenvalues --    1.87581   1.87689   1.87923   1.87984   1.88181
 Alpha virt. eigenvalues --    1.88242   1.88471   1.88539   1.88780   1.88951
 Alpha virt. eigenvalues --    1.89222   1.89297   1.89361   1.89658   1.89709
 Alpha virt. eigenvalues --    1.90146   1.90220   1.90354   1.90633   1.90859
 Alpha virt. eigenvalues --    1.90996   1.91184   1.91481   1.91805   1.92201
 Alpha virt. eigenvalues --    1.92259   1.92441   1.92682   1.92935   1.93091
 Alpha virt. eigenvalues --    1.93439   1.93601   1.93936   1.94047   1.94255
 Alpha virt. eigenvalues --    1.94544   1.95008   1.95179   1.95340   1.95606
 Alpha virt. eigenvalues --    1.95726   1.95878   1.96033   1.96274   1.96401
 Alpha virt. eigenvalues --    1.96573   1.96768   1.96990   1.97160   1.97256
 Alpha virt. eigenvalues --    1.97418   1.97600   1.97923   1.98141   1.98298
 Alpha virt. eigenvalues --    1.98383   1.98830   1.99174   1.99443   1.99472
 Alpha virt. eigenvalues --    2.00332   2.00533   2.00732   2.00986   2.01215
 Alpha virt. eigenvalues --    2.01313   2.01390   2.01480   2.01783   2.02049
 Alpha virt. eigenvalues --    2.02470   2.02550   2.02849   2.02953   2.03110
 Alpha virt. eigenvalues --    2.03193   2.03363   2.03780   2.03900   2.04224
 Alpha virt. eigenvalues --    2.04638   2.04978   2.05036   2.05200   2.05778
 Alpha virt. eigenvalues --    2.05794   2.06097   2.06666   2.06976   2.07055
 Alpha virt. eigenvalues --    2.07902   2.08221   2.08430   2.08629   2.08835
 Alpha virt. eigenvalues --    2.09296   2.09648   2.10446   2.10496   2.10940
 Alpha virt. eigenvalues --    2.11297   2.11311   2.11528   2.11826   2.12201
 Alpha virt. eigenvalues --    2.12281   2.12468   2.12497   2.12568   2.13075
 Alpha virt. eigenvalues --    2.13432   2.13561   2.13699   2.13952   2.14518
 Alpha virt. eigenvalues --    2.14775   2.15315   2.15684   2.15947   2.16211
 Alpha virt. eigenvalues --    2.16450   2.16738   2.17030   2.17188   2.17393
 Alpha virt. eigenvalues --    2.17577   2.17779   2.17931   2.17965   2.18397
 Alpha virt. eigenvalues --    2.18562   2.18644   2.19367   2.19492   2.19712
 Alpha virt. eigenvalues --    2.19925   2.20249   2.20508   2.20893   2.21150
 Alpha virt. eigenvalues --    2.21273   2.21334   2.21456   2.21763   2.22335
 Alpha virt. eigenvalues --    2.22578   2.22988   2.23133   2.23312   2.24041
 Alpha virt. eigenvalues --    2.24239   2.24638   2.24985   2.25449   2.25921
 Alpha virt. eigenvalues --    2.26435   2.26755   2.27185   2.27592   2.27835
 Alpha virt. eigenvalues --    2.28611   2.28827   2.28952   2.29515   2.29777
 Alpha virt. eigenvalues --    2.30171   2.30376   2.30727   2.30834   2.31395
 Alpha virt. eigenvalues --    2.31797   2.31983   2.32532   2.32710   2.33191
 Alpha virt. eigenvalues --    2.33302   2.33842   2.33942   2.34261   2.34605
 Alpha virt. eigenvalues --    2.35004   2.35482   2.36059   2.36219   2.36297
 Alpha virt. eigenvalues --    2.36509   2.36749   2.36969   2.37454   2.37894
 Alpha virt. eigenvalues --    2.38047   2.38543   2.38658   2.39304   2.39722
 Alpha virt. eigenvalues --    2.39908   2.40148   2.40356   2.40850   2.41087
 Alpha virt. eigenvalues --    2.41339   2.41417   2.41785   2.41836   2.42460
 Alpha virt. eigenvalues --    2.42657   2.42870   2.43067   2.43157   2.43786
 Alpha virt. eigenvalues --    2.44277   2.44412   2.44551   2.45151   2.45267
 Alpha virt. eigenvalues --    2.45499   2.45880   2.45960   2.46107   2.46341
 Alpha virt. eigenvalues --    2.46672   2.46727   2.46912   2.47343   2.47494
 Alpha virt. eigenvalues --    2.47710   2.48106   2.48376   2.49017   2.49645
 Alpha virt. eigenvalues --    2.49735   2.50147   2.50218   2.50794   2.50924
 Alpha virt. eigenvalues --    2.51582   2.51810   2.52084   2.52216   2.52555
 Alpha virt. eigenvalues --    2.53261   2.53588   2.53731   2.53831   2.54294
 Alpha virt. eigenvalues --    2.54420   2.54571   2.55150   2.55249   2.56045
 Alpha virt. eigenvalues --    2.57483   2.58283   2.58420   2.59304   2.59774
 Alpha virt. eigenvalues --    2.60282   2.60934   2.61321   2.61381   2.62116
 Alpha virt. eigenvalues --    2.62193   2.62612   2.62819   2.63520   2.63582
 Alpha virt. eigenvalues --    2.63921   2.64652   2.64672   2.64752   2.65412
 Alpha virt. eigenvalues --    2.65621   2.66262   2.66469   2.66552   2.67099
 Alpha virt. eigenvalues --    2.67370   2.67559   2.68344   2.68433   2.68604
 Alpha virt. eigenvalues --    2.69041   2.69116   2.69657   2.69910   2.69984
 Alpha virt. eigenvalues --    2.70434   2.70620   2.71594   2.71688   2.72255
 Alpha virt. eigenvalues --    2.72349   2.72388   2.72818   2.72943   2.73058
 Alpha virt. eigenvalues --    2.73539   2.74094   2.74540   2.74566   2.74714
 Alpha virt. eigenvalues --    2.75150   2.76021   2.76242   2.76822   2.76975
 Alpha virt. eigenvalues --    2.77115   2.77526   2.77809   2.77929   2.78231
 Alpha virt. eigenvalues --    2.78570   2.78706   2.79067   2.79780   2.79880
 Alpha virt. eigenvalues --    2.80149   2.80647   2.80721   2.81507   2.81534
 Alpha virt. eigenvalues --    2.81599   2.81958   2.82572   2.82717   2.83317
 Alpha virt. eigenvalues --    2.83372   2.84123   2.84189   2.84517   2.84586
 Alpha virt. eigenvalues --    2.84849   2.85168   2.85274   2.86051   2.86575
 Alpha virt. eigenvalues --    2.87134   2.87193   2.87835   2.88149   2.88509
 Alpha virt. eigenvalues --    2.88545   2.88972   2.89149   2.89983   2.90627
 Alpha virt. eigenvalues --    2.91075   2.91212   2.91608   2.92904   2.93750
 Alpha virt. eigenvalues --    2.94017   2.94178   2.94269   2.94799   2.95039
 Alpha virt. eigenvalues --    2.95715   2.95927   2.96314   2.96761   2.96848
 Alpha virt. eigenvalues --    2.97592   2.97707   2.97922   2.98072   2.98161
 Alpha virt. eigenvalues --    2.98287   2.98459   2.98553   2.98967   2.99108
 Alpha virt. eigenvalues --    2.99233   2.99290   2.99578   2.99747   2.99864
 Alpha virt. eigenvalues --    3.00124   3.00184   3.00597   3.01393   3.01645
 Alpha virt. eigenvalues --    3.01692   3.02219   3.02254   3.02597   3.02788
 Alpha virt. eigenvalues --    3.02895   3.03039   3.03559   3.03907   3.04080
 Alpha virt. eigenvalues --    3.04160   3.04198   3.04377   3.04710   3.05007
 Alpha virt. eigenvalues --    3.05081   3.05348   3.05714   3.05772   3.06463
 Alpha virt. eigenvalues --    3.06614   3.07491   3.07836   3.08148   3.09169
 Alpha virt. eigenvalues --    3.09525   3.09582   3.10166   3.10998   3.11111
 Alpha virt. eigenvalues --    3.11538   3.11684   3.11825   3.11885   3.12139
 Alpha virt. eigenvalues --    3.13007   3.13285   3.13630   3.13656   3.14025
 Alpha virt. eigenvalues --    3.14195   3.15639   3.16174   3.16314   3.16922
 Alpha virt. eigenvalues --    3.17698   3.17997   3.18100   3.18763   3.19328
 Alpha virt. eigenvalues --    3.21553   3.23538   3.23647   3.24161   3.24878
 Alpha virt. eigenvalues --    3.25794   3.26150   3.27001   3.27237   3.27835
 Alpha virt. eigenvalues --    3.28260   3.30374   3.31129   3.31807   3.33026
 Alpha virt. eigenvalues --    3.33493   3.40570   3.42410   3.42525   3.43082
 Alpha virt. eigenvalues --    3.48225   3.49096   3.49747   3.50588   3.51113
 Alpha virt. eigenvalues --    3.51182   3.56156   3.57303   3.58834   3.59616
 Alpha virt. eigenvalues --    3.62593   3.62896   3.65787   3.66335   3.66998
 Alpha virt. eigenvalues --    3.69165   3.73419   3.74997   3.77029   3.77753
          Condensed to atoms (all electrons):
 Mulliken charges:
               1
     1  Mg   0.823847
     2  C   -0.003927
     3  C   -0.092960
     4  C   -0.046293
     5  C   -0.061996
     6  N   -0.254840
     7  C   -0.055459
     8  C   -0.013242
     9  C   -0.087399
    10  C    0.047013
    11  C    0.104511
    12  C    0.043723
    13  C   -0.072607
    14  H    0.039178
    15  N   -0.432870
    16  C    0.167715
    17  C   -0.177435
    18  C   -0.004748
    19  C    0.148263
    20  C    0.110142
    21  C    0.010766
    22  O   -0.249197
    23  C    0.063009
    24  N   -0.338826
    25  C    0.041761
    26  C   -0.028192
    27  C   -0.024339
    28  C    0.073153
    29  C    0.075851
    30  C    0.035033
    31  C   -0.005628
    32  N   -0.310630
    33  C    0.080212
    34  C   -0.167663
    35  C    0.009135
    36  C    0.081892
    37  C    0.127152
    38  C    0.044529
    39  O   -0.187219
    40  C   -0.008550
    41  C    0.224385
    42  O   -0.259197
    43  O   -0.301653
    44  C    0.154853
    45  H   -0.017170
    46  H   -0.016402
    47  H   -0.040050
    48  H    0.000892
    49  H   -0.003221
    50  H    0.025832
    51  H    0.017103
    52  H    0.017761
    53  H    0.013351
    54  H    0.048194
    55  H    0.018573
    56  H    0.019110
    57  H    0.006713
    58  H    0.027803
    59  H    0.038906
    60  H    0.038610
    61  H    0.036120
    62  H    0.029674
    63  H    0.016243
    64  H    0.010669
    65  H    0.023902
    66  H    0.012878
    67  H    0.005758
    68  H    0.007492
    69  H    0.006524
    70  H    0.008332
    71  H    0.020100
    72  H    0.026992
    73  H    0.049919
    74  H    0.010672
    75  H    0.046646
    76  H    0.037589
    77  H    0.046671
    78  H    0.049244
    79  H    0.055927
    80  Mg   0.836504
    81  C   -0.015504
    82  C   -0.088326
    83  C   -0.046323
    84  C   -0.066239
    85  N   -0.254086
    86  C   -0.049774
    87  C   -0.018057
    88  C   -0.091005
    89  C    0.045080
    90  C    0.112093
    91  C    0.075614
    92  C   -0.115465
    93  H    0.060561
    94  N   -0.423283
    95  C    0.162163
    96  C   -0.175232
    97  C   -0.008766
    98  C    0.151872
    99  C    0.099700
   100  C    0.014913
   101  O   -0.254159
   102  C    0.061522
   103  N   -0.350345
   104  C    0.037189
   105  C   -0.019494
   106  C   -0.034785
   107  C    0.089428
   108  C    0.073986
   109  C    0.034949
   110  C   -0.007524
   111  N   -0.324232
   112  C    0.079036
   113  C   -0.163964
   114  C    0.002926
   115  C    0.095530
   116  C    0.131576
   117  C    0.041232
   118  O   -0.185962
   119  C    0.003550
   120  C    0.211194
   121  O   -0.255724
   122  O   -0.310019
   123  C    0.148902
   124  H   -0.019972
   125  H   -0.016679
   126  H   -0.041302
   127  H    0.001671
   128  H   -0.005171
   129  H    0.022607
   130  H    0.013733
   131  H    0.018498
   132  H    0.008666
   133  H    0.040873
   134  H    0.031430
   135  H    0.021603
   136  H    0.007811
   137  H    0.025403
   138  H    0.037780
   139  H    0.037805
   140  H    0.035366
   141  H    0.033027
   142  H    0.013695
   143  H    0.011843
   144  H    0.024317
   145  H    0.011510
   146  H    0.004993
   147  H    0.005528
   148  H    0.003341
   149  H    0.010519
   150  H    0.017332
   151  H    0.030625
   152  H    0.046229
   153  H    0.007656
   154  H    0.046347
   155  H    0.033040
   156  H    0.041007
   157  H    0.064706
   158  H    0.044300
 Sum of Mulliken charges =  -0.00000
 Mulliken charges with hydrogens summed into heavy atoms:
               1
     1  Mg   0.823847
     2  C   -0.003927
     3  C   -0.110130
     4  C   -0.062695
     5  C   -0.102046
     6  N   -0.254840
     7  C   -0.055459
     8  C   -0.012350
     9  C   -0.090620
    10  C    0.047013
    11  C    0.165208
    12  C    0.105267
    13  C    0.004254
    15  N   -0.432870
    16  C    0.167715
    17  C   -0.177435
    18  C   -0.004748
    19  C    0.148263
    20  C    0.183564
    21  C    0.010766
    22  O   -0.249197
    23  C    0.167413
    24  N   -0.338826
    25  C    0.041761
    26  C   -0.011949
    27  C   -0.013670
    28  C    0.073153
    29  C    0.118389
    30  C    0.049049
    31  C    0.049796
    32  N   -0.310630
    33  C    0.080212
    34  C   -0.167663
    35  C    0.009135
    36  C    0.081892
    37  C    0.234389
    38  C    0.044529
    39  O   -0.187219
    40  C    0.029039
    41  C    0.224385
    42  O   -0.259197
    43  O   -0.301653
    44  C    0.306694
    80  Mg   0.836504
    81  C   -0.015504
    82  C   -0.108298
    83  C   -0.063002
    84  C   -0.107541
    85  N   -0.254086
    86  C   -0.049774
    87  C   -0.016386
    88  C   -0.096176
    89  C    0.045080
    90  C    0.166930
    91  C    0.125153
    92  C   -0.001871
    94  N   -0.423283
    95  C    0.162163
    96  C   -0.175232
    97  C   -0.008766
    98  C    0.151872
    99  C    0.170694
   100  C    0.014913
   101  O   -0.254159
   102  C    0.167720
   103  N   -0.350345
   104  C    0.037189
   105  C   -0.005799
   106  C   -0.022942
   107  C    0.089428
   108  C    0.114807
   109  C    0.043818
   110  C    0.050952
   111  N   -0.324232
   112  C    0.079036
   113  C   -0.163964
   114  C    0.002926
   115  C    0.095530
   116  C    0.231808
   117  C    0.041232
   118  O   -0.185962
   119  C    0.036590
   120  C    0.211194
   121  O   -0.255724
   122  O   -0.310019
   123  C    0.298915
 Electronic spatial extent (au):  <R**2>=         108247.5703
 Charge=             -0.0000 electrons
 Dipole moment (field-independent basis, Debye):
    X=              4.8386    Y=              6.6862    Z=             -2.3363  Tot=              8.5776
 Quadrupole moment (field-independent basis, Debye-Ang):
   XX=           -489.1222   YY=           -551.7527   ZZ=           -470.8151
   XY=             24.9251   XZ=            -30.9561   YZ=            -10.6137
 Traceless Quadrupole moment (field-independent basis, Debye-Ang):
   XX=             14.7745   YY=            -47.8560   ZZ=             33.0816
   XY=             24.9251   XZ=            -30.9561   YZ=            -10.6137
 Octapole moment (field-independent basis, Debye-Ang**2):
  XXX=            107.3597  YYY=            199.0779  ZZZ=              4.9404  XYY=            -10.4929
  XXY=           -254.5927  XXZ=             39.0287  XZZ=            229.0482  YZZ=            -38.1785
  YYZ=           -248.8894  XYZ=            -23.9911
 Hexadecapole moment (field-independent basis, Debye-Ang**3):
 XXXX=         -95499.8047 YYYY=         -35049.2213 ZZZZ=         -16496.8909 XXXY=           4006.7098
 XXXZ=          -2376.4507 YYYX=           -159.4262 YYYZ=           -307.3351 ZZZX=             55.4963
 ZZZY=            338.3447 XXYY=         -22777.3514 XXZZ=         -18113.8371 YYZZ=          -8054.2837
 XXYZ=            -15.5779 YYXZ=           -800.7263 ZZXY=           -283.4258
 N-N= 1.556227669762D+04 E-N=-4.060551217185D+04  KE= 4.028787087090D+03
 Leave Link  601 at Fri Sep 10 19:02:20 2021, MaxMem= 23488102400 cpu:              15.4 elap:               0.8
 (Enter /sw/apps/gaussian-16.0/g16/l9999.exe)
 1\1\GINC-BP1-COMPUTE00090\SP\RCAM-B3LYP TD-FC\def2SVP\C68H72Mg2N8O8\OF
 15641\10-Sep-2021\0\\#p cam-b3lyp/Def2SVP td=(nstates=5)\\TDDFT excite
 d states in gaussian\\0,1\Mg,0,0.,0.,0.\C,0,-0.217,-2.218,2.801\C,0,-1
 .255,2.442,2.026\C,0,-0.245,1.85,-2.564\C,0,0.146,-2.824,-2.037\N,0,-0
 .617,-0.009,2.126\C,0,-0.594,-0.908,3.105\C,0,-0.936,-0.309,4.502\C,0,
 -1.773,0.964,4.032\C,0,-1.155,1.168,2.66\C,0,-3.263,0.685,3.863\C,0,0.
 345,0.11,5.299\C,0,0.124,0.397,6.787\H,0,1.168,0.033,7.733\N,0,-0.185,
 1.961,-0.152\C,0,-0.703,2.8,0.777\C,0,-0.62,4.156,0.193\C,0,-0.187,4.0
 15,-1.225\C,0,-0.214,2.583,-1.38\C,0,-0.887,5.406,0.974\C,0,0.181,5.01
 3,-2.277\O,0,0.303,4.69,-3.508\C,0,0.31,6.414,-1.837\N,0,-0.265,-0.413
 ,-2.029\C,0,-0.279,0.569,-2.937\C,0,-0.196,0.024,-4.332\C,0,0.124,-1.5
 33,-4.18\C,0,0.086,-1.632,-2.635\C,0,-1.451,0.205,-5.197\C,0,1.373,-2.
 07,-4.923\C,0,2.626,-1.49,-4.306\N,0,0.15,-2.144,0.303\C,0,0.173,-3.13
 6,-0.688\C,0,0.173,-4.438,0.004\C,0,0.133,-4.111,1.358\C,0,0.083,-2.69
 5,1.502\C,0,0.149,-5.715,-0.623\C,0,0.096,-4.629,2.716\O,0,0.208,-5.74
 7,3.221\C,0,-0.255,-3.428,3.701\C,0,0.717,-3.482,4.848\O,0,1.931,-3.25
 5,4.669\O,0,0.038,-3.556,6.003\C,0,0.943,-3.583,7.183\H,0,-1.859,3.22,
 2.497\H,0,-0.218,2.453,-3.474\H,0,0.276,-3.747,-2.605\H,0,-1.554,-0.94
 9,5.132\H,0,-1.585,1.831,4.665\H,0,-3.484,-0.377,3.969\H,0,-3.511,1.02
 7,2.858\H,0,-3.852,1.301,4.543\H,0,0.669,1.096,4.966\H,0,1.13,-0.639,5
 .189\H,0,-0.844,0.026,7.125\H,0,0.062,1.477,6.921\H,0,-1.344,5.186,1.9
 38\H,0,-1.651,5.963,0.432\H,0,0.007,6.02,1.084\H,0,-0.635,6.744,-1.405
 \H,0,0.665,6.97,-2.704\H,0,1.048,6.466,-1.036\H,0,0.608,0.501,-4.891\H
 ,0,-0.692,-2.156,-4.547\H,0,-1.267,0.74,-6.129\H,0,-2.204,0.714,-4.596
 \H,0,-1.967,-0.72,-5.453\H,0,1.356,-1.759,-5.967\H,0,1.452,-3.157,-4.9
 02\H,0,2.714,-0.522,-4.798\H,0,3.487,-2.121,-4.529\H,0,2.495,-1.303,-3
 .24\H,0,0.867,-6.333,-0.084\H,0,0.404,-5.642,-1.68\H,0,-0.891,-5.999,-
 0.463\H,0,-1.283,-3.581,4.028\H,0,0.698,-4.478,7.755\H,0,0.833,-2.619,
 7.68\H,0,2.,-3.754,6.976\Mg,0,10.50441,0.95019,0.80589\C,0,8.13257,-1.
 72377,1.12739\C,0,7.8946,2.95855,-0.08293\C,0,12.61586,3.20427,0.07902
 \C,0,12.99961,-1.47388,0.59723\N,0,8.33951,0.55316,0.58719\C,0,7.5444,
 -0.48544,0.79567\C,0,6.02845,-0.16063,0.71851\C,0,6.10954,1.14614,-0.2
 1135\C,0,7.52201,1.60889,0.14002\C,0,6.06598,0.83103,-1.69734\C,0,5.41
 609,0.17186,2.12438\C,0,3.88668,0.19545,2.17037\H,0,3.21933,-0.27786,3
 .37996\N,0,10.26691,2.90748,0.57964\C,0,9.13339,3.55557,0.23845\C,0,9.
 48664,4.9826,0.18418\C,0,10.95907,5.10836,0.35986\C,0,11.34885,3.71304
 ,0.32475\C,0,8.46002,6.0709,0.06142\C,0,11.86761,6.28968,0.5187\O,0,13
 .14053,6.17849,0.41798\C,0,11.21848,7.59593,0.70267\N,0,12.48738,0.877
 36,0.1855\C,0,13.19211,2.00546,-0.01111\C,0,14.66236,1.70709,-0.18359\
 C,0,14.83221,0.15916,0.1806\C,0,13.35187,-0.20723,0.42501\C,0,15.2351,
 1.96772,-1.57658\C,0,15.87239,-0.19555,1.27827\C,0,15.40866,0.32978,2.
 61781\N,0,10.61127,-1.19561,1.03426\C,0,11.75138,-2.01421,0.87894\C,0,
 11.30402,-3.41507,1.01995\C,0,9.91988,-3.31459,1.22625\C,0,9.52886,-1.
 94872,1.19451\C,0,12.13081,-4.56799,0.90462\C,0,8.69902,-4.05402,1.453
 07\O,0,8.42463,-5.23541,1.65987\C,0,7.46813,-3.06463,1.2731\C,0,6.5385
 ,-3.26292,2.43886\O,0,6.89895,-2.96798,3.59198\O,0,5.31022,-3.56062,1.
 97728\C,0,4.34995,-3.75559,3.09607\H,0,7.18731,3.61494,-0.59064\H,0,13
 .40237,3.94814,-0.06772\H,0,13.7322,-2.28255,0.6425\H,0,5.4247,-0.9215
 5,0.23865\H,0,5.37809,1.89143,0.0901\H,0,6.10683,-0.2316,-1.88521\H,0,
 6.9272,1.32478,-2.12812\H,0,5.18991,1.29821,-2.15622\H,0,5.62759,1.220
 98,2.36801\H,0,5.78974,-0.50105,2.87151\H,0,3.4404,-0.2644,1.28025\H,0
 ,3.5543,1.23559,2.12992\H,0,7.47782,5.66804,-0.21498\H,0,8.75056,6.689
 48,-0.79462\H,0,8.40644,6.70173,0.95129\H,0,10.57289,7.80136,-0.1479\H
 ,0,12.03021,8.30219,0.88752\H,0,10.57012,7.5433,1.58441\H,0,15.25955,2
 .29676,0.50106\H,0,15.1625,-0.42984,-0.68763\H,0,16.08809,2.67233,-1.5
 7297\H,0,14.43912,2.33749,-2.20921\H,0,15.56402,1.08003,-2.11418\H,0,1
 6.8271,0.29241,1.06715\H,0,16.06619,-1.25971,1.36195\H,0,15.73131,1.37
 505,2.59808\H,0,15.88631,-0.21549,3.42933\H,0,14.31457,0.32374,2.68557
 \H,0,11.84813,-5.23545,1.7078\H,0,13.1859,-4.30736,0.95598\H,0,11.8420
 2,-4.91633,-0.09063\H,0,6.99025,-3.30572,0.32279\H,0,3.90546,-4.74721,
 2.96646\H,0,3.66524,-2.88761,3.05677\H,0,4.75659,-3.83534,4.09744\\Ver
 sion=ES64L-G16RevA.03\State=1-A\HF=-4069.8172102\RMSD=6.392e-09\PG=C01
  [X(C68H72Mg2N8O8)]\\@


 WE TEND TO MEET ANY NEW SITUATION BY REORGANIZING. IT CAN BE A
 WONDERFUL METHOD FOR CREATING THE ILLUSION OF PROGRESS WHILE PRODUCING
 CONFUSION, INEFFICIENCY, AND DEMORALIZATION.
     -- PETRONIUS ARBITER, 210 B.C.
 Job cpu time:       0 days 16 hours  4 minutes 16.6 seconds.
 Elapsed time:       0 days  0 hours 40 minutes 52.5 seconds.
 File lengths (MBytes):  RWF=  13225 Int=      0 D2E=      0 Chk=    574 Scr=      1
 Normal termination of Gaussian 16 at Fri Sep 10 19:02:21 2021.
