 Entering Gaussian System, Link 0=g16
 Initial command:
 /sw/apps/gaussian-16.0/g16/l1.exe "/tmp/Gau-280324.inp" -scrdir="/tmp/"
 Entering Link 1 = /sw/apps/gaussian-16.0/g16/l1.exe PID=    280325.
  
 Copyright (c) 1988,1990,1992,1993,1995,1998,2003,2009,2016,
            Gaussian, Inc.  All Rights Reserved.
  
 This is part of the Gaussian(R) 16 program.  It is based on
 the Gaussian(R) 09 system (copyright 2009, Gaussian, Inc.),
 the Gaussian(R) 03 system (copyright 2003, Gaussian, Inc.),
 the Gaussian(R) 98 system (copyright 1998, Gaussian, Inc.),
 the Gaussian(R) 94 system (copyright 1995, Gaussian, Inc.),
 the Gaussian 92(TM) system (copyright 1992, Gaussian, Inc.),
 the Gaussian 90(TM) system (copyright 1990, Gaussian, Inc.),
 the Gaussian 88(TM) system (copyright 1988, Gaussian, Inc.),
 the Gaussian 86(TM) system (copyright 1986, Carnegie Mellon
 University), and the Gaussian 82(TM) system (copyright 1983,
 Carnegie Mellon University). Gaussian is a federally registered
 trademark of Gaussian, Inc.
  
 This software contains proprietary and confidential information,
 including trade secrets, belonging to Gaussian, Inc.
  
 This software is provided under written license and may be
 used, copied, transmitted, or stored only in accord with that
 written license.
  
 The following legend is applicable only to US Government
 contracts under FAR:
  
                    RESTRICTED RIGHTS LEGEND
  
 Use, reproduction and disclosure by the US Government is
 subject to restrictions as set forth in subparagraphs (a)
 and (c) of the Commercial Computer Software - Restricted
 Rights clause in FAR 52.227-19.
  
 Gaussian, Inc.
 340 Quinnipiac St., Bldg. 40, Wallingford CT 06492
  
  
 ---------------------------------------------------------------
 Warning -- This program may not be used in any manner that
 competes with the business of Gaussian, Inc. or will provide
 assistance to any competitor of Gaussian, Inc.  The licensee
 of this program is prohibited from giving any competitor of
 Gaussian, Inc. access to this program.  By using this program,
 the user acknowledges that Gaussian, Inc. is engaged in the
 business of creating and licensing software in the field of
 computational chemistry and represents and warrants to the
 licensee that it is not a competitor of Gaussian, Inc. and that
 it will not use this program in any manner prohibited above.
 ---------------------------------------------------------------
  

 Cite this work as:
 Gaussian 16, Revision A.03,
 M. J. Frisch, G. W. Trucks, H. B. Schlegel, G. E. Scuseria, 
 M. A. Robb, J. R. Cheeseman, G. Scalmani, V. Barone, 
 G. A. Petersson, H. Nakatsuji, X. Li, M. Caricato, A. V. Marenich, 
 J. Bloino, B. G. Janesko, R. Gomperts, B. Mennucci, H. P. Hratchian, 
 J. V. Ortiz, A. F. Izmaylov, J. L. Sonnenberg, D. Williams-Young, 
 F. Ding, F. Lipparini, F. Egidi, J. Goings, B. Peng, A. Petrone, 
 T. Henderson, D. Ranasinghe, V. G. Zakrzewski, J. Gao, N. Rega, 
 G. Zheng, W. Liang, M. Hada, M. Ehara, K. Toyota, R. Fukuda, 
 J. Hasegawa, M. Ishida, T. Nakajima, Y. Honda, O. Kitao, H. Nakai, 
 T. Vreven, K. Throssell, J. A. Montgomery, Jr., J. E. Peralta, 
 F. Ogliaro, M. J. Bearpark, J. J. Heyd, E. N. Brothers, K. N. Kudin, 
 V. N. Staroverov, T. A. Keith, R. Kobayashi, J. Normand, 
 K. Raghavachari, A. P. Rendell, J. C. Burant, S. S. Iyengar, 
 J. Tomasi, M. Cossi, J. M. Millam, M. Klene, C. Adamo, R. Cammi, 
 J. W. Ochterski, R. L. Martin, K. Morokuma, O. Farkas, 
 J. B. Foresman, and D. J. Fox, Gaussian, Inc., Wallingford CT, 2016.
 
 ******************************************
 Gaussian 16:  ES64L-G16RevA.03 25-Dec-2016
                 8-Sep-2021 
 ******************************************
 %nproc=24
 Will use up to   24 processors via shared memory.
 %mem=175gb
 -----------------------------------
 #p cam-b3lyp/Def2SVP td=(nstates=5)
 -----------------------------------
 1/38=1,172=1/1;
 2/12=2,17=6,18=5,40=1/2;
 3/5=43,7=101,11=9,25=1,30=1,74=-40/1,2,3,8;
 4//1;
 5/5=2,38=5/2;
 8/6=1,10=1,108=5/1;
 9/41=5,42=1,70=2/14;
 6/7=2,8=2,9=2,10=2/1;
 99/5=1,9=1/99;
 Leave Link    1 at Wed Sep  8 18:34:54 2021, MaxMem= 23488102400 cpu:               0.9 elap:               0.0
 (Enter /sw/apps/gaussian-16.0/g16/l101.exe)
 --------------------------------
 TDDFT excited states in gaussian
 --------------------------------
 Symbolic Z-matrix:
 Charge =  0 Multiplicity = 1
 Mg                    0.        0.        0. 
 C                    -0.217    -2.218     2.801 
 C                    -1.255     2.442     2.026 
 C                    -0.245     1.85     -2.564 
 C                     0.146    -2.824    -2.037 
 N                    -0.617    -0.009     2.126 
 C                    -0.594    -0.908     3.105 
 C                    -0.936    -0.309     4.502 
 C                    -1.773     0.964     4.032 
 C                    -1.155     1.168     2.66 
 C                    -3.263     0.685     3.863 
 C                     0.345     0.11      5.299 
 C                     0.124     0.397     6.787 
 H                     1.168     0.033     7.733 
 N                    -0.185     1.961    -0.152 
 C                    -0.703     2.8       0.777 
 C                    -0.62      4.156     0.193 
 C                    -0.187     4.015    -1.225 
 C                    -0.214     2.583    -1.38 
 C                    -0.887     5.406     0.974 
 C                     0.181     5.013    -2.277 
 O                     0.303     4.69     -3.508 
 C                     0.31      6.414    -1.837 
 N                    -0.265    -0.413    -2.029 
 C                    -0.279     0.569    -2.937 
 C                    -0.196     0.024    -4.332 
 C                     0.124    -1.533    -4.18 
 C                     0.086    -1.632    -2.635 
 C                    -1.451     0.205    -5.197 
 C                     1.373    -2.07     -4.923 
 C                     2.626    -1.49     -4.306 
 N                     0.15     -2.144     0.303 
 C                     0.173    -3.136    -0.688 
 C                     0.173    -4.438     0.004 
 C                     0.133    -4.111     1.358 
 C                     0.083    -2.695     1.502 
 C                     0.149    -5.715    -0.623 
 C                     0.096    -4.629     2.716 
 O                     0.208    -5.747     3.221 
 C                    -0.255    -3.428     3.701 
 C                     0.717    -3.482     4.848 
 O                     1.931    -3.255     4.669 
 O                     0.038    -3.556     6.003 
 C                     0.943    -3.583     7.183 
 H                    -1.859     3.22      2.497 
 H                    -0.218     2.453    -3.474 
 H                     0.276    -3.747    -2.605 
 H                    -1.554    -0.949     5.132 
 H                    -1.585     1.831     4.665 
 H                    -3.484    -0.377     3.969 
 H                    -3.511     1.027     2.858 
 H                    -3.852     1.301     4.543 
 H                     0.669     1.096     4.966 
 H                     1.13     -0.639     5.189 
 H                    -0.844     0.026     7.125 
 H                     0.062     1.477     6.921 
 H                    -1.344     5.186     1.938 
 H                    -1.651     5.963     0.432 
 H                     0.007     6.02      1.084 
 H                    -0.635     6.744    -1.405 
 H                     0.665     6.97     -2.704 
 H                     1.048     6.466    -1.036 
 H                     0.608     0.501    -4.891 
 H                    -0.692    -2.156    -4.547 
 H                    -1.267     0.74     -6.129 
 H                    -2.204     0.714    -4.596 
 H                    -1.967    -0.72     -5.453 
 H                     1.356    -1.759    -5.967 
 H                     1.452    -3.157    -4.902 
 H                     2.714    -0.522    -4.798 
 H                     3.487    -2.121    -4.529 
 H                     2.495    -1.303    -3.24 
 H                     0.867    -6.333    -0.084 
 H                     0.404    -5.642    -1.68 
 H                    -0.891    -5.999    -0.463 
 H                    -1.283    -3.581     4.028 
 H                     0.698    -4.478     7.755 
 H                     0.833    -2.619     7.68 
 H                     2.       -3.754     6.976 
 Mg                    7.88959   0.7124    0.6068 
 C                     7.80024  -2.27591   2.59202 
 C                     6.65113   2.37154   3.31753 
 C                     7.53139   3.26486  -1.24362 
 C                     8.01868  -1.33112  -2.21332 
 N                     7.33816   0.02704   2.6362 
 C                     7.40521  -1.11938   3.29617 
 C                     7.10487  -1.00577   4.81487 
 C                     6.22139   0.33494   4.78563 
 C                     6.79102   0.97551   3.52157 
 C                     4.74063   0.07518   4.56381 
 C                     8.40731  -0.81689   5.66925 
 C                     8.22129  -1.00802   7.17611 
 H                     9.30712  -1.61647   7.93982 
 N                     7.66472   2.62498   1.08642 
 C                     7.16717   3.12199   2.23825 
 C                     7.19242   4.5853    2.08912 
 C                     7.59153   4.90762   0.69214 
 C                     7.59117   3.58251   0.10549 
 C                     6.93476   5.52423   3.23168 
 C                     7.90723   6.19668  -0.00418 
 O                     7.99872   6.2676   -1.28067 
 C                     8.0138    7.39176   0.84547 
 N                     7.57585   0.94033  -1.43574 
 C                     7.50841   2.16229  -1.99269 
 C                     7.55558   2.07824  -3.49971 
 C                     7.91378   0.55592  -3.83409 
 C                     7.92437  -0.02203  -2.40187 
 C                     6.27038   2.47025  -4.22839 
 C                     9.15      0.30665  -4.7409 
 C                     10.41285   0.7096   -4.01411 
 N                     8.09341  -1.40497   0.22831 
 C                     8.09824  -2.05037  -1.02768 
 C                     8.1449   -3.50427  -0.7699 
 C                     8.14071  -3.60538   0.62947 
 C                     8.07429  -2.30697   1.20325 
 C                     8.13582  -4.52562  -1.7613 
 C                     8.16663  -4.51569   1.75168 
 O                     8.30843  -5.73093   1.88136 
 C                     7.8197   -3.7008    3.07153 
 C                     8.82733  -4.07187   4.12486 
 O                     10.02682  -3.77499   3.98456 
 O                     8.17964  -4.5192    5.21609 
 C                     9.13626  -4.8894    6.29295 
 H                     6.05378   2.94255   4.02887 
 H                     7.51883   4.11605  -1.92831 
 H                     8.16014  -2.03121  -3.03948 
 H                     6.52558  -1.82389   5.22581 
 H                     6.42163   0.95891   5.65277 
 H                     4.54229  -0.96327   4.34379 
 H                     4.45424   0.70035   3.72824 
 H                     4.16258   0.43358   5.4204 
 H                     8.69878   0.24111   5.64863 
 H                     9.1904   -1.46      5.31738 
 H                     7.26578  -1.4903    7.41558 
 H                     8.14938  -0.02342   7.64453 
 H                     6.50553   4.99982   4.09433 
 H                     6.14379   6.2102    2.90971 
 H                     7.81727   6.10619   3.50586 
 H                     7.07896   7.53853   1.38119 
 H                     8.3321    8.19626   0.17963 
 H                     8.78597   7.21505   1.60253 
 H                     8.33322   2.718    -3.89856 
 H                     7.09535   0.05298  -4.36987 
 H                     6.41579   3.28594  -4.96159 
 H                     5.53104   2.7502   -3.48978 
 H                     5.7732    1.65863  -4.75686 
 H                     9.09477   0.93051  -5.63639 
 H                     9.2432   -0.72268  -5.07075 
 H                     10.46083   1.78955  -4.18292 
 H                     11.27761   0.20474  -4.43996 
 H                     10.31383   0.54884  -2.93429 
 H                     8.87488  -5.25678  -1.46184 
 H                     8.35118  -4.12301  -2.74888 
 H                     7.10226  -4.87154  -1.67549 
 H                     6.80379  -3.96865   3.36438 
 H                     8.92317  -5.92736   6.56666 
 H                     9.009    -4.12421   7.08164 
 H                     10.18613  -4.95093   6.03134 
 
 ITRead=  0  0  0  0  0  0  0  0  0  0  0  0  0  0  0  0  0  0  0  0
 ITRead=  0  0  0  0  0  0  0  0  0  0  0  0  0  0  0  0  0  0  0  0
 ITRead=  0  0  0  0  0  0  0  0  0  0  0  0  0  0  0  0  0  0  0  0
 ITRead=  0  0  0  0  0  0  0  0  0  0  0  0  0  0  0  0  0  0  0  0
 ITRead=  0  0  0  0  0  0  0  0  0  0  0  0  0  0  0  0  0  0  0  0
 ITRead=  0  0  0  0  0  0  0  0  0  0  0  0  0  0  0  0  0  0  0  0
 ITRead=  0  0  0  0  0  0  0  0  0  0  0  0  0  0  0  0  0  0  0  0
 ITRead=  0  0  0  0  0  0  0  0  0  0  0  0  0  0  0  0  0  0
 MicOpt= -1 -1 -1 -1 -1 -1 -1 -1 -1 -1 -1 -1 -1 -1 -1 -1 -1 -1 -1 -1
 MicOpt= -1 -1 -1 -1 -1 -1 -1 -1 -1 -1 -1 -1 -1 -1 -1 -1 -1 -1 -1 -1
 MicOpt= -1 -1 -1 -1 -1 -1 -1 -1 -1 -1 -1 -1 -1 -1 -1 -1 -1 -1 -1 -1
 MicOpt= -1 -1 -1 -1 -1 -1 -1 -1 -1 -1 -1 -1 -1 -1 -1 -1 -1 -1 -1 -1
 MicOpt= -1 -1 -1 -1 -1 -1 -1 -1 -1 -1 -1 -1 -1 -1 -1 -1 -1 -1 -1 -1
 MicOpt= -1 -1 -1 -1 -1 -1 -1 -1 -1 -1 -1 -1 -1 -1 -1 -1 -1 -1 -1 -1
 MicOpt= -1 -1 -1 -1 -1 -1 -1 -1 -1 -1 -1 -1 -1 -1 -1 -1 -1 -1 -1 -1
 MicOpt= -1 -1 -1 -1 -1 -1 -1 -1 -1 -1 -1 -1 -1 -1 -1 -1 -1 -1
 NAtoms=    158 NQM=      158 NQMF=       0 NMMI=      0 NMMIF=      0
                NMic=       0 NMicF=      0.
                    Isotopes and Nuclear Properties:
 (Nuclear quadrupole moments (NQMom) in fm**2, nuclear magnetic moments (NMagM)
  in nuclear magnetons)

  Atom         1           2           3           4           5           6           7           8           9          10
 IAtWgt=          24          12          12          12          12          14          12          12          12          12
 AtmWgt=  23.9850450  12.0000000  12.0000000  12.0000000  12.0000000  14.0030740  12.0000000  12.0000000  12.0000000  12.0000000
 NucSpn=           0           0           0           0           0           2           0           0           0           0
 AtZEff=  -0.0000000  -0.0000000  -0.0000000  -0.0000000  -0.0000000  -0.0000000  -0.0000000  -0.0000000  -0.0000000  -0.0000000
 NQMom=    0.0000000   0.0000000   0.0000000   0.0000000   0.0000000   2.0440000   0.0000000   0.0000000   0.0000000   0.0000000
 NMagM=    0.0000000   0.0000000   0.0000000   0.0000000   0.0000000   0.4037610   0.0000000   0.0000000   0.0000000   0.0000000
 AtZNuc=  12.0000000   6.0000000   6.0000000   6.0000000   6.0000000   7.0000000   6.0000000   6.0000000   6.0000000   6.0000000

  Atom        11          12          13          14          15          16          17          18          19          20
 IAtWgt=          12          12          12           1          14          12          12          12          12          12
 AtmWgt=  12.0000000  12.0000000  12.0000000   1.0078250  14.0030740  12.0000000  12.0000000  12.0000000  12.0000000  12.0000000
 NucSpn=           0           0           0           1           2           0           0           0           0           0
 AtZEff=  -0.0000000  -0.0000000  -0.0000000  -0.0000000  -0.0000000  -0.0000000  -0.0000000  -0.0000000  -0.0000000  -0.0000000
 NQMom=    0.0000000   0.0000000   0.0000000   0.0000000   2.0440000   0.0000000   0.0000000   0.0000000   0.0000000   0.0000000
 NMagM=    0.0000000   0.0000000   0.0000000   2.7928460   0.4037610   0.0000000   0.0000000   0.0000000   0.0000000   0.0000000
 AtZNuc=   6.0000000   6.0000000   6.0000000   1.0000000   7.0000000   6.0000000   6.0000000   6.0000000   6.0000000   6.0000000

  Atom        21          22          23          24          25          26          27          28          29          30
 IAtWgt=          12          16          12          14          12          12          12          12          12          12
 AtmWgt=  12.0000000  15.9949146  12.0000000  14.0030740  12.0000000  12.0000000  12.0000000  12.0000000  12.0000000  12.0000000
 NucSpn=           0           0           0           2           0           0           0           0           0           0
 AtZEff=  -0.0000000  -0.0000000  -0.0000000  -0.0000000  -0.0000000  -0.0000000  -0.0000000  -0.0000000  -0.0000000  -0.0000000
 NQMom=    0.0000000   0.0000000   0.0000000   2.0440000   0.0000000   0.0000000   0.0000000   0.0000000   0.0000000   0.0000000
 NMagM=    0.0000000   0.0000000   0.0000000   0.4037610   0.0000000   0.0000000   0.0000000   0.0000000   0.0000000   0.0000000
 AtZNuc=   6.0000000   8.0000000   6.0000000   7.0000000   6.0000000   6.0000000   6.0000000   6.0000000   6.0000000   6.0000000

  Atom        31          32          33          34          35          36          37          38          39          40
 IAtWgt=          12          14          12          12          12          12          12          12          16          12
 AtmWgt=  12.0000000  14.0030740  12.0000000  12.0000000  12.0000000  12.0000000  12.0000000  12.0000000  15.9949146  12.0000000
 NucSpn=           0           2           0           0           0           0           0           0           0           0
 AtZEff=  -0.0000000  -0.0000000  -0.0000000  -0.0000000  -0.0000000  -0.0000000  -0.0000000  -0.0000000  -0.0000000  -0.0000000
 NQMom=    0.0000000   2.0440000   0.0000000   0.0000000   0.0000000   0.0000000   0.0000000   0.0000000   0.0000000   0.0000000
 NMagM=    0.0000000   0.4037610   0.0000000   0.0000000   0.0000000   0.0000000   0.0000000   0.0000000   0.0000000   0.0000000
 AtZNuc=   6.0000000   7.0000000   6.0000000   6.0000000   6.0000000   6.0000000   6.0000000   6.0000000   8.0000000   6.0000000

  Atom        41          42          43          44          45          46          47          48          49          50
 IAtWgt=          12          16          16          12           1           1           1           1           1           1
 AtmWgt=  12.0000000  15.9949146  15.9949146  12.0000000   1.0078250   1.0078250   1.0078250   1.0078250   1.0078250   1.0078250
 NucSpn=           0           0           0           0           1           1           1           1           1           1
 AtZEff=  -0.0000000  -0.0000000  -0.0000000  -0.0000000  -0.0000000  -0.0000000  -0.0000000  -0.0000000  -0.0000000  -0.0000000
 NQMom=    0.0000000   0.0000000   0.0000000   0.0000000   0.0000000   0.0000000   0.0000000   0.0000000   0.0000000   0.0000000
 NMagM=    0.0000000   0.0000000   0.0000000   0.0000000   2.7928460   2.7928460   2.7928460   2.7928460   2.7928460   2.7928460
 AtZNuc=   6.0000000   8.0000000   8.0000000   6.0000000   1.0000000   1.0000000   1.0000000   1.0000000   1.0000000   1.0000000

  Atom        51          52          53          54          55          56          57          58          59          60
 IAtWgt=           1           1           1           1           1           1           1           1           1           1
 AtmWgt=   1.0078250   1.0078250   1.0078250   1.0078250   1.0078250   1.0078250   1.0078250   1.0078250   1.0078250   1.0078250
 NucSpn=           1           1           1           1           1           1           1           1           1           1
 AtZEff=  -0.0000000  -0.0000000  -0.0000000  -0.0000000  -0.0000000  -0.0000000  -0.0000000  -0.0000000  -0.0000000  -0.0000000
 NQMom=    0.0000000   0.0000000   0.0000000   0.0000000   0.0000000   0.0000000   0.0000000   0.0000000   0.0000000   0.0000000
 NMagM=    2.7928460   2.7928460   2.7928460   2.7928460   2.7928460   2.7928460   2.7928460   2.7928460   2.7928460   2.7928460
 AtZNuc=   1.0000000   1.0000000   1.0000000   1.0000000   1.0000000   1.0000000   1.0000000   1.0000000   1.0000000   1.0000000

  Atom        61          62          63          64          65          66          67          68          69          70
 IAtWgt=           1           1           1           1           1           1           1           1           1           1
 AtmWgt=   1.0078250   1.0078250   1.0078250   1.0078250   1.0078250   1.0078250   1.0078250   1.0078250   1.0078250   1.0078250
 NucSpn=           1           1           1           1           1           1           1           1           1           1
 AtZEff=  -0.0000000  -0.0000000  -0.0000000  -0.0000000  -0.0000000  -0.0000000  -0.0000000  -0.0000000  -0.0000000  -0.0000000
 NQMom=    0.0000000   0.0000000   0.0000000   0.0000000   0.0000000   0.0000000   0.0000000   0.0000000   0.0000000   0.0000000
 NMagM=    2.7928460   2.7928460   2.7928460   2.7928460   2.7928460   2.7928460   2.7928460   2.7928460   2.7928460   2.7928460
 AtZNuc=   1.0000000   1.0000000   1.0000000   1.0000000   1.0000000   1.0000000   1.0000000   1.0000000   1.0000000   1.0000000

  Atom        71          72          73          74          75          76          77          78          79          80
 IAtWgt=           1           1           1           1           1           1           1           1           1          24
 AtmWgt=   1.0078250   1.0078250   1.0078250   1.0078250   1.0078250   1.0078250   1.0078250   1.0078250   1.0078250  23.9850450
 NucSpn=           1           1           1           1           1           1           1           1           1           0
 AtZEff=  -0.0000000  -0.0000000  -0.0000000  -0.0000000  -0.0000000  -0.0000000  -0.0000000  -0.0000000  -0.0000000  -0.0000000
 NQMom=    0.0000000   0.0000000   0.0000000   0.0000000   0.0000000   0.0000000   0.0000000   0.0000000   0.0000000   0.0000000
 NMagM=    2.7928460   2.7928460   2.7928460   2.7928460   2.7928460   2.7928460   2.7928460   2.7928460   2.7928460   0.0000000
 AtZNuc=   1.0000000   1.0000000   1.0000000   1.0000000   1.0000000   1.0000000   1.0000000   1.0000000   1.0000000  12.0000000

  Atom        81          82          83          84          85          86          87          88          89          90
 IAtWgt=          12          12          12          12          14          12          12          12          12          12
 AtmWgt=  12.0000000  12.0000000  12.0000000  12.0000000  14.0030740  12.0000000  12.0000000  12.0000000  12.0000000  12.0000000
 NucSpn=           0           0           0           0           2           0           0           0           0           0
 AtZEff=  -0.0000000  -0.0000000  -0.0000000  -0.0000000  -0.0000000  -0.0000000  -0.0000000  -0.0000000  -0.0000000  -0.0000000
 NQMom=    0.0000000   0.0000000   0.0000000   0.0000000   2.0440000   0.0000000   0.0000000   0.0000000   0.0000000   0.0000000
 NMagM=    0.0000000   0.0000000   0.0000000   0.0000000   0.4037610   0.0000000   0.0000000   0.0000000   0.0000000   0.0000000
 AtZNuc=   6.0000000   6.0000000   6.0000000   6.0000000   7.0000000   6.0000000   6.0000000   6.0000000   6.0000000   6.0000000

  Atom        91          92          93          94          95          96          97          98          99         100
 IAtWgt=          12          12           1          14          12          12          12          12          12          12
 AtmWgt=  12.0000000  12.0000000   1.0078250  14.0030740  12.0000000  12.0000000  12.0000000  12.0000000  12.0000000  12.0000000
 NucSpn=           0           0           1           2           0           0           0           0           0           0
 AtZEff=  -0.0000000  -0.0000000  -0.0000000  -0.0000000  -0.0000000  -0.0000000  -0.0000000  -0.0000000  -0.0000000  -0.0000000
 NQMom=    0.0000000   0.0000000   0.0000000   2.0440000   0.0000000   0.0000000   0.0000000   0.0000000   0.0000000   0.0000000
 NMagM=    0.0000000   0.0000000   2.7928460   0.4037610   0.0000000   0.0000000   0.0000000   0.0000000   0.0000000   0.0000000
 AtZNuc=   6.0000000   6.0000000   1.0000000   7.0000000   6.0000000   6.0000000   6.0000000   6.0000000   6.0000000   6.0000000

  Atom       101         102         103         104         105         106         107         108         109         110
 IAtWgt=          16          12          14          12          12          12          12          12          12          12
 AtmWgt=  15.9949146  12.0000000  14.0030740  12.0000000  12.0000000  12.0000000  12.0000000  12.0000000  12.0000000  12.0000000
 NucSpn=           0           0           2           0           0           0           0           0           0           0
 AtZEff=  -0.0000000  -0.0000000  -0.0000000  -0.0000000  -0.0000000  -0.0000000  -0.0000000  -0.0000000  -0.0000000  -0.0000000
 NQMom=    0.0000000   0.0000000   2.0440000   0.0000000   0.0000000   0.0000000   0.0000000   0.0000000   0.0000000   0.0000000
 NMagM=    0.0000000   0.0000000   0.4037610   0.0000000   0.0000000   0.0000000   0.0000000   0.0000000   0.0000000   0.0000000
 AtZNuc=   8.0000000   6.0000000   7.0000000   6.0000000   6.0000000   6.0000000   6.0000000   6.0000000   6.0000000   6.0000000

  Atom       111         112         113         114         115         116         117         118         119         120
 IAtWgt=          14          12          12          12          12          12          12          16          12          12
 AtmWgt=  14.0030740  12.0000000  12.0000000  12.0000000  12.0000000  12.0000000  12.0000000  15.9949146  12.0000000  12.0000000
 NucSpn=           2           0           0           0           0           0           0           0           0           0
 AtZEff=  -0.0000000  -0.0000000  -0.0000000  -0.0000000  -0.0000000  -0.0000000  -0.0000000  -0.0000000  -0.0000000  -0.0000000
 NQMom=    2.0440000   0.0000000   0.0000000   0.0000000   0.0000000   0.0000000   0.0000000   0.0000000   0.0000000   0.0000000
 NMagM=    0.4037610   0.0000000   0.0000000   0.0000000   0.0000000   0.0000000   0.0000000   0.0000000   0.0000000   0.0000000
 AtZNuc=   7.0000000   6.0000000   6.0000000   6.0000000   6.0000000   6.0000000   6.0000000   8.0000000   6.0000000   6.0000000

  Atom       121         122         123         124         125         126         127         128         129         130
 IAtWgt=          16          16          12           1           1           1           1           1           1           1
 AtmWgt=  15.9949146  15.9949146  12.0000000   1.0078250   1.0078250   1.0078250   1.0078250   1.0078250   1.0078250   1.0078250
 NucSpn=           0           0           0           1           1           1           1           1           1           1
 AtZEff=  -0.0000000  -0.0000000  -0.0000000  -0.0000000  -0.0000000  -0.0000000  -0.0000000  -0.0000000  -0.0000000  -0.0000000
 NQMom=    0.0000000   0.0000000   0.0000000   0.0000000   0.0000000   0.0000000   0.0000000   0.0000000   0.0000000   0.0000000
 NMagM=    0.0000000   0.0000000   0.0000000   2.7928460   2.7928460   2.7928460   2.7928460   2.7928460   2.7928460   2.7928460
 AtZNuc=   8.0000000   8.0000000   6.0000000   1.0000000   1.0000000   1.0000000   1.0000000   1.0000000   1.0000000   1.0000000

  Atom       131         132         133         134         135         136         137         138         139         140
 IAtWgt=           1           1           1           1           1           1           1           1           1           1
 AtmWgt=   1.0078250   1.0078250   1.0078250   1.0078250   1.0078250   1.0078250   1.0078250   1.0078250   1.0078250   1.0078250
 NucSpn=           1           1           1           1           1           1           1           1           1           1
 AtZEff=  -0.0000000  -0.0000000  -0.0000000  -0.0000000  -0.0000000  -0.0000000  -0.0000000  -0.0000000  -0.0000000  -0.0000000
 NQMom=    0.0000000   0.0000000   0.0000000   0.0000000   0.0000000   0.0000000   0.0000000   0.0000000   0.0000000   0.0000000
 NMagM=    2.7928460   2.7928460   2.7928460   2.7928460   2.7928460   2.7928460   2.7928460   2.7928460   2.7928460   2.7928460
 AtZNuc=   1.0000000   1.0000000   1.0000000   1.0000000   1.0000000   1.0000000   1.0000000   1.0000000   1.0000000   1.0000000

  Atom       141         142         143         144         145         146         147         148         149         150
 IAtWgt=           1           1           1           1           1           1           1           1           1           1
 AtmWgt=   1.0078250   1.0078250   1.0078250   1.0078250   1.0078250   1.0078250   1.0078250   1.0078250   1.0078250   1.0078250
 NucSpn=           1           1           1           1           1           1           1           1           1           1
 AtZEff=  -0.0000000  -0.0000000  -0.0000000  -0.0000000  -0.0000000  -0.0000000  -0.0000000  -0.0000000  -0.0000000  -0.0000000
 NQMom=    0.0000000   0.0000000   0.0000000   0.0000000   0.0000000   0.0000000   0.0000000   0.0000000   0.0000000   0.0000000
 NMagM=    2.7928460   2.7928460   2.7928460   2.7928460   2.7928460   2.7928460   2.7928460   2.7928460   2.7928460   2.7928460
 AtZNuc=   1.0000000   1.0000000   1.0000000   1.0000000   1.0000000   1.0000000   1.0000000   1.0000000   1.0000000   1.0000000

  Atom       151         152         153         154         155         156         157         158
 IAtWgt=           1           1           1           1           1           1           1           1
 AtmWgt=   1.0078250   1.0078250   1.0078250   1.0078250   1.0078250   1.0078250   1.0078250   1.0078250
 NucSpn=           1           1           1           1           1           1           1           1
 AtZEff=  -0.0000000  -0.0000000  -0.0000000  -0.0000000  -0.0000000  -0.0000000  -0.0000000  -0.0000000
 NQMom=    0.0000000   0.0000000   0.0000000   0.0000000   0.0000000   0.0000000   0.0000000   0.0000000
 NMagM=    2.7928460   2.7928460   2.7928460   2.7928460   2.7928460   2.7928460   2.7928460   2.7928460
 AtZNuc=   1.0000000   1.0000000   1.0000000   1.0000000   1.0000000   1.0000000   1.0000000   1.0000000
 Leave Link  101 at Wed Sep  8 18:34:54 2021, MaxMem= 23488102400 cpu:               3.4 elap:               0.2
 (Enter /sw/apps/gaussian-16.0/g16/l202.exe)
 Stoichiometry    C68H72Mg2N8O8
 Framework group  C1[X(C68H72Mg2N8O8)]
 Deg. of freedom   468
 Full point group                 C1      NOp   1
 Largest Abelian subgroup         C1      NOp   1
 Largest concise Abelian subgroup C1      NOp   1
                         Standard orientation:                         
 ---------------------------------------------------------------------
 Center     Atomic      Atomic             Coordinates (Angstroms)
 Number     Number       Type             X           Y           Z
 ---------------------------------------------------------------------
      1         12           0       -3.928824   -0.322178    0.412612
      2          6           0       -3.749263    3.238874    0.098155
      3          6           0       -5.104706   -0.396606   -2.789704
      4          6           0       -4.524453   -3.410400    0.818483
      5          6           0       -3.835739    0.126005    3.867482
      6          7           0       -4.330803    1.283751   -1.057099
      7          6           0       -4.163258    2.602391   -1.074083
      8          6           0       -4.396462    3.236777   -2.477844
      9          6           0       -5.342264    2.117433   -3.105958
     10          6           0       -4.874934    0.921582   -2.295116
     11          6           0       -6.824765    2.348090   -2.831206
     12          6           0       -3.066845    3.385763   -3.291264
     13          6           0       -3.154247    4.286170   -4.526975
     14          1           0       -2.003824    5.104160   -4.880198
     15          7           0       -4.231752   -1.753797   -0.914623
     16          6           0       -4.698942   -1.602013   -2.177153
     17          6           0       -4.746270   -2.960113   -2.760253
     18          6           0       -4.449021   -3.932957   -1.672452
     19          6           0       -4.415233   -3.061742   -0.525621
     20          6           0       -5.000519   -3.223538   -4.212738
     21          6           0       -4.240529   -5.414382   -1.665840
     22          8           0       -4.224127   -6.094116   -0.583128
     23          6           0       -4.143083   -6.069953   -2.982568
     24          7           0       -4.371258   -1.473721    2.096606
     25          6           0       -4.527229   -2.798949    2.004807
     26          6           0       -4.554050   -3.440767    3.360274
     27          6           0       -4.138412   -2.300279    4.397716
     28          6           0       -4.017847   -1.114443    3.409016
     29          6           0       -5.896403   -4.052233    3.784786
     30          6           0       -2.942448   -2.603904    5.334679
     31          6           0       -1.667028   -2.691850    4.526800
     32          7           0       -3.636005    1.347351    1.768331
     33          6           0       -3.658704    1.309249    3.170011
     34          6           0       -3.521067    2.699262    3.642228
     35          6           0       -3.444014    3.456052    2.474677
     36          6           0       -3.554556    2.596205    1.344749
     37          6           0       -3.539284    3.123754    5.000134
     38          6           0       -3.318753    4.793708    1.918942
     39          8           0       -3.098114    5.910820    2.388913
     40          6           0       -3.633658    4.720013    0.359702
     41          6           0       -2.551312    5.478573   -0.358923
     42          8           0       -1.374781    5.062520   -0.365358
     43          8           0       -3.107652    6.435609   -1.117283
     44          6           0       -2.090044    7.206749   -1.880153
     45          1           0       -5.699491   -0.523972   -3.696318
     46          1           0       -4.619774   -4.482133    1.004871
     47          1           0       -3.713868    0.334066    4.932053
     48          1           0       -4.914174    4.196032   -2.462766
     49          1           0       -5.138738    1.960083   -4.164986
     50          1           0       -6.977519    3.175300   -2.138162
     51          1           0       -7.188910    1.416305   -2.397999
     52          1           0       -7.375344    2.480660   -3.762907
     53          1           0       -2.830202    2.435728   -3.770320
     54          1           0       -2.257978    3.733940   -2.647964
     55          1           0       -4.062944    4.888741   -4.517599
     56          1           0       -3.259877    3.650369   -5.406065
     57          1           0       -5.347443   -2.328366   -4.727379
     58          1           0       -5.842929   -3.912688   -4.268653
     59          1           0       -4.133860   -3.661379   -4.708248
     60          1           0       -5.056803   -5.881857   -3.546734
     61          1           0       -3.905729   -7.114081   -2.781799
     62          1           0       -3.333158   -5.608034   -3.547901
     63          1           0       -3.835834   -4.257443    3.420533
     64          1           0       -4.952550   -2.050036    5.078327
     65          1           0       -5.834291   -5.110314    4.040350
     66          1           0       -6.612093   -3.885611    2.980227
     67          1           0       -6.385421   -3.547802    4.617749
     68          1           0       -3.079275   -3.567640    5.824003
     69          1           0       -2.804197   -1.853399    6.113062
     70          1           0       -1.679688   -3.718617    4.162902
     71          1           0       -0.800099   -2.514146    5.164034
     72          1           0       -1.701505   -2.037029    3.655877
     73          1           0       -2.739643    3.857477    5.101105
     74          1           0       -3.394495    2.284036    5.679482
     75          1           0       -4.541776    3.546251    5.066191
     76          1           0       -4.614631    5.171962    0.216322
     77          1           0       -2.229337    8.258260   -1.628843
     78          1           0       -2.201251    6.917268   -2.925255
     79          1           0       -1.051177    7.059918   -1.582605
     80         12           0        3.933105   -1.227707   -0.288420
     81          6           0        4.199551    2.258509    0.520520
     82          6           0        2.883033   -0.274451   -3.390554
     83          6           0        3.258423   -4.269911   -0.886089
     84          6           0        3.890391   -1.876478    3.135465
     85          7           0        3.622594    0.764356   -1.198105
     86          6           0        3.815429    2.017527   -0.815075
     87          6           0        3.661430    3.067338   -1.948099
     88          6           0        2.709519    2.224486   -2.929100
     89          6           0        3.116318    0.812922   -2.511179
     90          6           0        1.229945    2.402889   -2.631842
     91          6           0        5.030245    3.412862   -2.632896
     92          6           0        5.004837    4.650300   -3.532819
     93          1           0        6.191734    5.499621   -3.582030
     94          7           0        3.655707   -2.166460   -2.014791
     95          6           0        3.249058   -1.622176   -3.180844
     96          6           0        3.181737   -2.733911   -4.141921
     97          6           0        3.422812   -4.005015   -3.406456
     98          6           0        3.434635   -3.521067   -2.040539
     99          6           0        2.989095   -2.524767   -5.615885
    100          6           0        3.599133   -5.423518   -3.856972
    101          8           0        3.559812   -6.402338   -3.030417
    102          6           0        3.725802   -5.640366   -5.305561
    103          7           0        3.406894   -2.822372    0.937345
    104          6           0        3.219870   -4.052921    0.428720
    105          6           0        3.121892   -5.087089    1.524756
    106          6           0        3.525460   -4.325163    2.871670
    107          6           0        3.708544   -2.898124    2.310036
    108          6           0        1.751842   -5.741406    1.701443
    109          6           0        4.677231   -4.942430    3.711364
    110          6           0        5.982709   -4.831114    2.957230
    111          7           0        4.210471   -0.073599    1.516894
    112          6           0        4.125074   -0.538000    2.847726
    113          6           0        4.274114    0.637834    3.729573
    114          6           0        4.413959    1.716447    2.843279
    115          6           0        4.335920    1.248733    1.503631
    116          6           0        4.221056    0.623009    5.151922
    117          6           0        4.599194    3.145766    2.736392
    118          8           0        4.817418    4.055587    3.535352
    119          6           0        4.341993    3.577308    1.228404
    120          6           0        5.467285    4.481467    0.805640
    121          8           0        6.629525    4.047066    0.721420
    122          8           0        4.955546    5.644632    0.363419
    123          6           0        6.032437    6.570692   -0.077622
    124          1           0        2.329649   -0.087588   -4.311278
    125          1           0        3.132947   -5.344762   -1.035869
    126          1           0        3.986245   -2.008353    4.215325
    127          1           0        3.169929    3.986354   -1.652119
    128          1           0        2.961298    2.400953   -3.971612
    129          1           0        1.066158    2.976462   -1.731667
    130          1           0        0.829417    1.403630   -2.521882
    131          1           0        0.721409    2.837894   -3.497002
    132          1           0        5.261694    2.642307   -3.379503
    133          1           0        5.807633    3.514385   -1.900780
    134          1           0        4.104694    5.256635   -3.374580
    135          1           0        4.927554    4.321985   -4.572175
    136          1           0        2.675874   -1.497346   -5.838836
    137          1           0        2.134843   -3.140615   -5.917279
    138          1           0        3.862302   -2.821059   -6.201030
    139          1           0        2.842175   -5.253188   -5.807317
    140          1           0        3.933435   -6.705547   -5.424538
    141          1           0        4.577462   -5.057307   -5.673436
    142          1           0        3.821147   -5.896829    1.356047
    143          1           0        2.685816   -4.278516    3.580654
    144          1           0        1.780413   -6.844066    1.615415
    145          1           0        1.075512   -5.320287    0.969475
    146          1           0        1.248514   -5.513065    2.639375
    147          1           0        4.500531   -6.009061    3.870202
    148          1           0        4.791771   -4.485900    4.688844
    149          1           0        5.956363   -5.697135    2.289095
    150          1           0        6.826584   -4.886403    3.641963
    151          1           0        5.999829   -3.931793    2.330660
    152          1           0        5.023894    1.259183    5.500081
    153          1           0        4.315846   -0.387939    5.542802
    154          1           0        3.220898    1.033693    5.314076
    155          1           0        3.375744    4.081926    1.192319
    156          1           0        5.902883    7.501513    0.483158
    157          1           0        5.943526    6.629457   -1.178705
    158          1           0        7.053001    6.310340    0.177562
 ---------------------------------------------------------------------
 Rotational constants (GHZ):           0.0203421           0.0176242           0.0142507
 Leave Link  202 at Wed Sep  8 18:34:54 2021, MaxMem= 23488102400 cpu:               0.2 elap:               0.0
 (Enter /sw/apps/gaussian-16.0/g16/l301.exe)
 Standard basis: def2SVP (5D, 7F)
 Ernie: Thresh=  0.10000D-02 Tol=  0.10000D-05 Strict=F.
 There are  1658 symmetry adapted cartesian basis functions of A   symmetry.
 There are  1572 symmetry adapted basis functions of A   symmetry.
  1572 basis functions,  2678 primitive gaussians,  1658 cartesian basis functions
   312 alpha electrons      312 beta electrons
       nuclear repulsion energy     15957.9485331427 Hartrees.
 IExCor=20419 DFT=T Ex+Corr=CAM-B3LYP ExCW=0 ScaHFX=  1.000000
 ScaDFX=  1.000000  1.000000  1.000000  0.810000 ScalE2=  1.000000  1.000000
 IRadAn=      5 IRanWt=     -1 IRanGd=            0 ICorTp=0 IEmpDi=  4
 HFx  wShort=  0.000000 wLong=  0.330000 cFull=  0.190000 cShort=  0.000000 cLong=  0.460000
 DFx  wShort=  0.000000 wLong=  0.330000 cFull=  0.190000 cShort=  0.000000 cLong=  0.460000
 NAtoms=  158 NActive=  158 NUniq=  158 SFac= 1.00D+00 NAtFMM=   60 NAOKFM=T Big=T
 Integral buffers will be    131072 words long.
 Raffenetti 1 integral format.
 Two-electron integral symmetry is turned on.
 Leave Link  301 at Wed Sep  8 18:34:54 2021, MaxMem= 23488102400 cpu:               1.5 elap:               0.1
 (Enter /sw/apps/gaussian-16.0/g16/l302.exe)
 NPDir=0 NMtPBC=     1 NCelOv=     1 NCel=       1 NClECP=     1 NCelD=      1
         NCelK=      1 NCelE2=     1 NClLst=     1 CellRange=     0.0.
 One-electron integrals computed using PRISM.
 One-electron integral symmetry used in STVInt
   1 Symmetry operations used in ECPInt.
 ECPInt:  NShTT=  271216 NPrTT=  987664 LenC2=  164258 LenP2D=  344712.
 LDataN:  DoStor=T MaxTD1= 4 Len=   56
 NBasis=  1572 RedAO= T EigKep=  3.35D-04  NBF=  1572
 NBsUse=  1572 1.00D-06 EigRej= -1.00D+00 NBFU=  1572
 Precomputing XC quadrature grid using
 IXCGrd= 4 IRadAn=           5 IRanWt=          -1 IRanGd=           0 AccXCQ= 0.00D+00.
 Generated NRdTot=       0 NPtTot=           0 NUsed=           0 NTot=          32
 NSgBfM=  1275  1253  1262  1269  1275 MxSgAt=   158 MxSgA2=   158.
 Leave Link  302 at Wed Sep  8 18:34:59 2021, MaxMem= 23488102400 cpu:             125.4 elap:               5.3
 (Enter /sw/apps/gaussian-16.0/g16/l303.exe)
 DipDrv:  MaxL=1.
 Leave Link  303 at Wed Sep  8 18:35:00 2021, MaxMem= 23488102400 cpu:               8.6 elap:               0.4
 (Enter /sw/apps/gaussian-16.0/g16/l308.exe)
 Leave Link  308 at Wed Sep  8 18:35:01 2021, MaxMem= 23488102400 cpu:              13.3 elap:               0.7
 (Enter /sw/apps/gaussian-16.0/g16/l401.exe)
 ExpMin= 3.36D-02 ExpMax= 4.95D+03 ExpMxC= 7.45D+02 IAcc=3 IRadAn=         5 AccDes= 0.00D+00
 Harris functional with IExCor=20419 and IRadAn=       5 diagonalized for initial guess.
 HarFok:  IExCor=20419 AccDes= 0.00D+00 IRadAn=         5 IDoV= 1 UseB2=F ITyADJ=14
 ICtDFT=  3500011 ScaDFX=  1.000000  1.000000  1.000000  1.000000
 FoFCou: FMM=F IPFlag=           0 FMFlag=      100000 FMFlg1=        2001
         NFxFlg=           0 DoJE=T BraDBF=F KetDBF=T FulRan=T
         wScrn=  0.000000 ICntrl=       500 IOpCl=  0 I1Cent=   200000004 NGrid=           0
         NMat0=    1 NMatS0=      1 NMatT0=    0 NMatD0=    1 NMtDS0=    0 NMtDT0=    0
 Petite list used in FoFCou.
 Harris En= -3918.65911328001    
 JPrj=0 DoOrth=F DoCkMO=F.
 Leave Link  401 at Wed Sep  8 18:35:09 2021, MaxMem= 23488102400 cpu:             199.6 elap:               8.4
 (Enter /sw/apps/gaussian-16.0/g16/l502.exe)
 Integral symmetry usage will be decided dynamically.
 Closed shell SCF:
 Using DIIS extrapolation, IDIIS=  1040.
 NGot= 23488102400 LenX= 23482547354 LenY= 23479796732
 Requested convergence on RMS density matrix=1.00D-08 within 128 cycles.
 Requested convergence on MAX density matrix=1.00D-06.
 Requested convergence on             energy=1.00D-06.
 No special actions if energy rises.
 Fock matrices will be formed incrementally for  20 cycles.

 Cycle   1  Pass 1  IDiag  1:
 FoFJK:  IHMeth= 1 ICntrl=       0 DoSepK=T KAlg= 0 I1Cent=           0 FoldK=F
 IRaf=         1 NMat=       1 IRICut=       1 DoRegI=T DoRafI=F ISym2E= 0 IDoP0=0 IntGTp=1.
 FoFCou: FMM=T IPFlag=           0 FMFlag=      100000 FMFlg1=        2001
         NFxFlg=           0 DoJE=T BraDBF=F KetDBF=F FulRan=T
         wScrn=  0.000000 ICntrl=       500 IOpCl=  0 I1Cent=           0 NGrid=           0
         NMat0=    1 NMatS0=      1 NMatT0=    0 NMatD0=    1 NMtDS0=    0 NMtDT0=    0
 Symmetry not used in FoFCou.
 FMM levels:  10  Number of levels for PrismC:   9
 E= -4068.94918521153    
 DIIS: error= 2.01D-02 at cycle   1 NSaved=   1.
 NSaved= 1 IEnMin= 1 EnMin= -4068.94918521153     IErMin= 1 ErrMin= 2.01D-02
 ErrMax= 2.01D-02  0.00D+00 EMaxC= 1.00D-01 BMatC= 1.69D+00 BMatP= 1.69D+00
 IDIUse=3 WtCom= 7.99D-01 WtEn= 2.01D-01
 Coeff-Com:  0.100D+01
 Coeff-En:   0.100D+01
 Coeff:      0.100D+01
 Gap=     0.120 Goal=   None    Shift=    0.000
 GapD=    0.120 DampG=1.000 DampE=0.500 DampFc=0.5000 IDamp=-1.
 Damping current iteration by 5.00D-01
 RMSDP=1.58D-03 MaxDP=1.37D-01              OVMax= 2.09D-01

 Cycle   2  Pass 1  IDiag  1:
 RMSU=  7.72D-04    CP:  9.82D-01
 E= -4069.33778861821     Delta-E=       -0.388603406682 Rises=F Damp=T
 DIIS: error= 1.25D-02 at cycle   2 NSaved=   2.
 NSaved= 2 IEnMin= 2 EnMin= -4069.33778861821     IErMin= 2 ErrMin= 1.25D-02
 ErrMax= 1.25D-02  0.00D+00 EMaxC= 1.00D-01 BMatC= 3.07D-01 BMatP= 1.69D+00
 IDIUse=3 WtCom= 8.75D-01 WtEn= 1.25D-01
 Coeff-Com: -0.213D+00 0.121D+01
 Coeff-En:   0.000D+00 0.100D+01
 Coeff:     -0.186D+00 0.119D+01
 Gap=     0.133 Goal=   None    Shift=    0.000
 RMSDP=7.73D-04 MaxDP=9.49D-02 DE=-3.89D-01 OVMax= 1.97D-01

 Cycle   3  Pass 1  IDiag  1:
 RMSU=  7.42D-04    CP:  9.68D-01  1.23D+00
 E= -4069.62224386237     Delta-E=       -0.284455244160 Rises=F Damp=F
 DIIS: error= 1.53D-02 at cycle   3 NSaved=   3.
 NSaved= 3 IEnMin= 3 EnMin= -4069.62224386237     IErMin= 2 ErrMin= 1.25D-02
 ErrMax= 1.53D-02  0.00D+00 EMaxC= 1.00D-01 BMatC= 2.05D-01 BMatP= 3.07D-01
 IDIUse=3 WtCom= 8.47D-01 WtEn= 1.53D-01
 Coeff-Com: -0.268D+00 0.655D+00 0.613D+00
 Coeff-En:   0.000D+00 0.000D+00 0.100D+01
 Coeff:     -0.227D+00 0.555D+00 0.672D+00
 Gap=     0.119 Goal=   None    Shift=    0.000
 RMSDP=5.27D-04 MaxDP=4.74D-02 DE=-2.84D-01 OVMax= 1.62D-01

 Cycle   4  Pass 1  IDiag  1:
 RMSU=  2.74D-04    CP:  9.65D-01  1.55D+00  4.93D-01
 E= -4069.76236104566     Delta-E=       -0.140117183288 Rises=F Damp=F
 DIIS: error= 6.69D-03 at cycle   4 NSaved=   4.
 NSaved= 4 IEnMin= 4 EnMin= -4069.76236104566     IErMin= 4 ErrMin= 6.69D-03
 ErrMax= 6.69D-03  0.00D+00 EMaxC= 1.00D-01 BMatC= 5.14D-02 BMatP= 2.05D-01
 IDIUse=3 WtCom= 9.33D-01 WtEn= 6.69D-02
 Coeff-Com: -0.111D+00 0.232D+00 0.409D+00 0.470D+00
 Coeff-En:   0.000D+00 0.000D+00 0.229D+00 0.771D+00
 Coeff:     -0.104D+00 0.216D+00 0.397D+00 0.490D+00
 Gap=     0.119 Goal=   None    Shift=    0.000
 RMSDP=2.14D-04 MaxDP=1.81D-02 DE=-1.40D-01 OVMax= 7.82D-02

 Cycle   5  Pass 1  IDiag  1:
 RMSU=  8.35D-05    CP:  9.64D-01  1.49D+00  6.85D-01  5.32D-01
 E= -4069.81077377097     Delta-E=       -0.048412725311 Rises=F Damp=F
 DIIS: error= 6.69D-04 at cycle   5 NSaved=   5.
 NSaved= 5 IEnMin= 5 EnMin= -4069.81077377097     IErMin= 5 ErrMin= 6.69D-04
 ErrMax= 6.69D-04  0.00D+00 EMaxC= 1.00D-01 BMatC= 1.53D-03 BMatP= 5.14D-02
 IDIUse=3 WtCom= 9.93D-01 WtEn= 6.69D-03
 Coeff-Com: -0.414D-01 0.818D-01 0.182D+00 0.264D+00 0.513D+00
 Coeff-En:   0.000D+00 0.000D+00 0.000D+00 0.000D+00 0.100D+01
 Coeff:     -0.411D-01 0.813D-01 0.181D+00 0.262D+00 0.516D+00
 Gap=     0.118 Goal=   None    Shift=    0.000
 RMSDP=5.07D-05 MaxDP=5.20D-03 DE=-4.84D-02 OVMax= 2.53D-02

 Cycle   6  Pass 1  IDiag  1:
 RMSU=  3.52D-05    CP:  9.64D-01  1.49D+00  6.73D-01  6.16D-01  6.80D-01
 E= -4069.81225919716     Delta-E=       -0.001485426183 Rises=F Damp=F
 DIIS: error= 2.44D-04 at cycle   6 NSaved=   6.
 NSaved= 6 IEnMin= 6 EnMin= -4069.81225919716     IErMin= 6 ErrMin= 2.44D-04
 ErrMax= 2.44D-04  0.00D+00 EMaxC= 1.00D-01 BMatC= 2.39D-04 BMatP= 1.53D-03
 IDIUse=3 WtCom= 9.98D-01 WtEn= 2.44D-03
 Coeff-Com:  0.103D-02-0.436D-02 0.167D-01 0.466D-01 0.303D+00 0.637D+00
 Coeff-En:   0.000D+00 0.000D+00 0.000D+00 0.000D+00 0.135D+00 0.865D+00
 Coeff:      0.103D-02-0.435D-02 0.166D-01 0.465D-01 0.303D+00 0.637D+00
 Gap=     0.119 Goal=   None    Shift=    0.000
 RMSDP=1.94D-05 MaxDP=1.45D-03 DE=-1.49D-03 OVMax= 9.06D-03

 Cycle   7  Pass 1  IDiag  1:
 RMSU=  1.21D-05    CP:  9.64D-01  1.49D+00  6.80D-01  6.12D-01  8.07D-01
                    CP:  7.29D-01
 E= -4069.81253834538     Delta-E=       -0.000279148222 Rises=F Damp=F
 DIIS: error= 1.38D-04 at cycle   7 NSaved=   7.
 NSaved= 7 IEnMin= 7 EnMin= -4069.81253834538     IErMin= 7 ErrMin= 1.38D-04
 ErrMax= 1.38D-04  0.00D+00 EMaxC= 1.00D-01 BMatC= 3.21D-05 BMatP= 2.39D-04
 IDIUse=3 WtCom= 9.99D-01 WtEn= 1.38D-03
 Coeff-Com:  0.470D-02-0.104D-01-0.858D-02-0.256D-02 0.112D+00 0.347D+00
 Coeff-Com:  0.558D+00
 Coeff-En:   0.000D+00 0.000D+00 0.000D+00 0.000D+00 0.000D+00 0.000D+00
 Coeff-En:   0.100D+01
 Coeff:      0.469D-02-0.104D-01-0.857D-02-0.256D-02 0.112D+00 0.347D+00
 Coeff:      0.559D+00
 Gap=     0.119 Goal=   None    Shift=    0.000
 RMSDP=7.03D-06 MaxDP=1.16D-03 DE=-2.79D-04 OVMax= 3.56D-03

 Cycle   8  Pass 1  IDiag  1:
 RMSU=  5.05D-06    CP:  9.64D-01  1.49D+00  6.81D-01  6.17D-01  8.06D-01
                    CP:  8.41D-01  8.07D-01
 E= -4069.81257656432     Delta-E=       -0.000038218939 Rises=F Damp=F
 DIIS: error= 6.07D-05 at cycle   8 NSaved=   8.
 NSaved= 8 IEnMin= 8 EnMin= -4069.81257656432     IErMin= 8 ErrMin= 6.07D-05
 ErrMax= 6.07D-05  0.00D+00 EMaxC= 1.00D-01 BMatC= 4.90D-06 BMatP= 3.21D-05
 IDIUse=1 WtCom= 1.00D+00 WtEn= 0.00D+00
 Coeff-Com:  0.232D-02-0.463D-02-0.798D-02-0.121D-01-0.594D-02 0.332D-01
 Coeff-Com:  0.291D+00 0.704D+00
 Coeff:      0.232D-02-0.463D-02-0.798D-02-0.121D-01-0.594D-02 0.332D-01
 Coeff:      0.291D+00 0.704D+00
 Gap=     0.119 Goal=   None    Shift=    0.000
 RMSDP=3.54D-06 MaxDP=4.46D-04 DE=-3.82D-05 OVMax= 1.24D-03

 Cycle   9  Pass 1  IDiag  1:
 RMSU=  2.08D-06    CP:  9.64D-01  1.49D+00  6.81D-01  6.19D-01  8.22D-01
                    CP:  8.71D-01  9.88D-01  9.92D-01
 E= -4069.81258457456     Delta-E=       -0.000008010240 Rises=F Damp=F
 DIIS: error= 2.08D-05 at cycle   9 NSaved=   9.
 NSaved= 9 IEnMin= 9 EnMin= -4069.81258457456     IErMin= 9 ErrMin= 2.08D-05
 ErrMax= 2.08D-05  0.00D+00 EMaxC= 1.00D-01 BMatC= 9.11D-07 BMatP= 4.90D-06
 IDIUse=1 WtCom= 1.00D+00 WtEn= 0.00D+00
 Coeff-Com:  0.557D-03-0.948D-03-0.296D-02-0.633D-02-0.188D-01-0.407D-01
 Coeff-Com:  0.809D-01 0.367D+00 0.621D+00
 Coeff:      0.557D-03-0.948D-03-0.296D-02-0.633D-02-0.188D-01-0.407D-01
 Coeff:      0.809D-01 0.367D+00 0.621D+00
 Gap=     0.119 Goal=   None    Shift=    0.000
 RMSDP=1.52D-06 MaxDP=1.39D-04 DE=-8.01D-06 OVMax= 7.52D-04

 Cycle  10  Pass 1  IDiag  1:
 RMSU=  1.02D-06    CP:  9.64D-01  1.49D+00  6.82D-01  6.19D-01  8.25D-01
                    CP:  8.81D-01  1.03D+00  1.16D+00  1.03D+00
 E= -4069.81258648552     Delta-E=       -0.000001910961 Rises=F Damp=F
 DIIS: error= 9.00D-06 at cycle  10 NSaved=  10.
 NSaved=10 IEnMin=10 EnMin= -4069.81258648552     IErMin=10 ErrMin= 9.00D-06
 ErrMax= 9.00D-06  0.00D+00 EMaxC= 1.00D-01 BMatC= 1.84D-07 BMatP= 9.11D-07
 IDIUse=1 WtCom= 1.00D+00 WtEn= 0.00D+00
 Coeff-Com: -0.406D-03 0.865D-03 0.108D-02 0.766D-03-0.400D-02-0.316D-01
 Coeff-Com: -0.407D-01-0.488D-01 0.221D+00 0.902D+00
 Coeff:     -0.406D-03 0.865D-03 0.108D-02 0.766D-03-0.400D-02-0.316D-01
 Coeff:     -0.407D-01-0.488D-01 0.221D+00 0.902D+00
 Gap=     0.119 Goal=   None    Shift=    0.000
 RMSDP=1.27D-06 MaxDP=1.28D-04 DE=-1.91D-06 OVMax= 6.85D-04

 Cycle  11  Pass 1  IDiag  1:
 RMSU=  5.96D-07    CP:  9.64D-01  1.49D+00  6.82D-01  6.19D-01  8.27D-01
                    CP:  8.90D-01  1.08D+00  1.27D+00  1.36D+00  1.31D+00
 E= -4069.81258733804     Delta-E=       -0.000000852528 Rises=F Damp=F
 DIIS: error= 4.54D-06 at cycle  11 NSaved=  11.
 NSaved=11 IEnMin=11 EnMin= -4069.81258733804     IErMin=11 ErrMin= 4.54D-06
 ErrMax= 4.54D-06  0.00D+00 EMaxC= 1.00D-01 BMatC= 9.09D-08 BMatP= 1.84D-07
 IDIUse=1 WtCom= 1.00D+00 WtEn= 0.00D+00
 Coeff-Com: -0.374D-03 0.734D-03 0.142D-02 0.211D-02 0.387D-02-0.101D-01
 Coeff-Com: -0.408D-01-0.128D+00-0.467D-01 0.539D+00 0.679D+00
 Coeff:     -0.374D-03 0.734D-03 0.142D-02 0.211D-02 0.387D-02-0.101D-01
 Coeff:     -0.408D-01-0.128D+00-0.467D-01 0.539D+00 0.679D+00
 Gap=     0.119 Goal=   None    Shift=    0.000
 RMSDP=7.43D-07 MaxDP=7.31D-05 DE=-8.53D-07 OVMax= 3.96D-04

 Cycle  12  Pass 1  IDiag  1:
 RMSU=  2.96D-07    CP:  9.64D-01  1.49D+00  6.82D-01  6.20D-01  8.28D-01
                    CP:  8.92D-01  1.09D+00  1.34D+00  1.51D+00  1.71D+00
                    CP:  1.13D+00
 E= -4069.81258765637     Delta-E=       -0.000000318327 Rises=F Damp=F
 DIIS: error= 2.66D-06 at cycle  12 NSaved=  12.
 NSaved=12 IEnMin=12 EnMin= -4069.81258765637     IErMin=12 ErrMin= 2.66D-06
 ErrMax= 2.66D-06  0.00D+00 EMaxC= 1.00D-01 BMatC= 2.09D-08 BMatP= 9.09D-08
 IDIUse=1 WtCom= 1.00D+00 WtEn= 0.00D+00
 Coeff-Com: -0.542D-04 0.890D-04 0.381D-03 0.775D-03 0.386D-02 0.263D-02
 Coeff-Com: -0.286D-02-0.462D-01-0.852D-01 0.199D-01 0.269D+00 0.838D+00
 Coeff:     -0.542D-04 0.890D-04 0.381D-03 0.775D-03 0.386D-02 0.263D-02
 Coeff:     -0.286D-02-0.462D-01-0.852D-01 0.199D-01 0.269D+00 0.838D+00
 Gap=     0.119 Goal=   None    Shift=    0.000
 RMSDP=4.47D-07 MaxDP=3.17D-05 DE=-3.18D-07 OVMax= 2.56D-04

 Cycle  13  Pass 1  IDiag  1:
 RMSU=  1.75D-07    CP:  9.64D-01  1.49D+00  6.82D-01  6.20D-01  8.29D-01
                    CP:  8.92D-01  1.10D+00  1.36D+00  1.61D+00  1.92D+00
                    CP:  1.51D+00  1.20D+00
 E= -4069.81258776375     Delta-E=       -0.000000107379 Rises=F Damp=F
 DIIS: error= 1.86D-06 at cycle  13 NSaved=  13.
 NSaved=13 IEnMin=13 EnMin= -4069.81258776375     IErMin=13 ErrMin= 1.86D-06
 ErrMax= 1.86D-06  0.00D+00 EMaxC= 1.00D-01 BMatC= 1.06D-08 BMatP= 2.09D-08
 IDIUse=1 WtCom= 1.00D+00 WtEn= 0.00D+00
 Coeff-Com:  0.117D-03-0.241D-03-0.337D-03-0.397D-03 0.102D-02 0.465D-02
 Coeff-Com:  0.167D-01 0.225D-01-0.352D-01-0.220D+00-0.179D+00 0.531D+00
 Coeff-Com:  0.859D+00
 Coeff:      0.117D-03-0.241D-03-0.337D-03-0.397D-03 0.102D-02 0.465D-02
 Coeff:      0.167D-01 0.225D-01-0.352D-01-0.220D+00-0.179D+00 0.531D+00
 Coeff:      0.859D+00
 Gap=     0.119 Goal=   None    Shift=    0.000
 RMSDP=3.94D-07 MaxDP=2.75D-05 DE=-1.07D-07 OVMax= 2.39D-04

 Cycle  14  Pass 1  IDiag  1:
 RMSU=  8.49D-08    CP:  9.64D-01  1.49D+00  6.82D-01  6.20D-01  8.29D-01
                    CP:  8.93D-01  1.11D+00  1.39D+00  1.69D+00  2.13D+00
                    CP:  1.77D+00  1.73D+00  1.21D+00
 E= -4069.81258781377     Delta-E=       -0.000000050022 Rises=F Damp=F
 DIIS: error= 1.03D-06 at cycle  14 NSaved=  14.
 NSaved=14 IEnMin=14 EnMin= -4069.81258781377     IErMin=14 ErrMin= 1.03D-06
 ErrMax= 1.03D-06  0.00D+00 EMaxC= 1.00D-01 BMatC= 1.61D-09 BMatP= 1.06D-08
 IDIUse=1 WtCom= 1.00D+00 WtEn= 0.00D+00
 Coeff-Com:  0.744D-04-0.147D-03-0.267D-03-0.409D-03-0.341D-03 0.117D-02
 Coeff-Com:  0.972D-02 0.217D-01 0.563D-02-0.104D+00-0.157D+00 0.542D-01
 Coeff-Com:  0.419D+00 0.751D+00
 Coeff:      0.744D-04-0.147D-03-0.267D-03-0.409D-03-0.341D-03 0.117D-02
 Coeff:      0.972D-02 0.217D-01 0.563D-02-0.104D+00-0.157D+00 0.542D-01
 Coeff:      0.419D+00 0.751D+00
 Gap=     0.119 Goal=   None    Shift=    0.000
 RMSDP=1.31D-07 MaxDP=9.24D-06 DE=-5.00D-08 OVMax= 7.90D-05

 Cycle  15  Pass 1  IDiag  1:
 RMSU=  4.17D-08    CP:  9.64D-01  1.49D+00  6.82D-01  6.20D-01  8.29D-01
                    CP:  8.92D-01  1.11D+00  1.39D+00  1.71D+00  2.18D+00
                    CP:  1.89D+00  1.90D+00  1.47D+00  1.06D+00
 E= -4069.81258781961     Delta-E=       -0.000000005835 Rises=F Damp=F
 DIIS: error= 5.41D-07 at cycle  15 NSaved=  15.
 NSaved=15 IEnMin=15 EnMin= -4069.81258781961     IErMin=15 ErrMin= 5.41D-07
 ErrMax= 5.41D-07  0.00D+00 EMaxC= 1.00D-01 BMatC= 2.79D-10 BMatP= 1.61D-09
 IDIUse=1 WtCom= 1.00D+00 WtEn= 0.00D+00
 Coeff-Com:  0.115D-04-0.210D-04-0.541D-04-0.113D-03-0.292D-03-0.480D-03
 Coeff-Com:  0.152D-02 0.452D-02 0.896D-02-0.572D-02-0.360D-01-0.690D-01
 Coeff-Com:  0.427D-01 0.326D+00 0.728D+00
 Coeff:      0.115D-04-0.210D-04-0.541D-04-0.113D-03-0.292D-03-0.480D-03
 Coeff:      0.152D-02 0.452D-02 0.896D-02-0.572D-02-0.360D-01-0.690D-01
 Coeff:      0.427D-01 0.326D+00 0.728D+00
 Gap=     0.119 Goal=   None    Shift=    0.000
 RMSDP=3.90D-08 MaxDP=2.75D-06 DE=-5.84D-09 OVMax= 2.73D-05

 Cycle  16  Pass 1  IDiag  1:
 RMSU=  1.97D-08    CP:  9.64D-01  1.49D+00  6.82D-01  6.20D-01  8.29D-01
                    CP:  8.92D-01  1.11D+00  1.40D+00  1.72D+00  2.19D+00
                    CP:  1.91D+00  1.95D+00  1.54D+00  1.25D+00  1.13D+00
 E= -4069.81258782052     Delta-E=       -0.000000000909 Rises=F Damp=F
 DIIS: error= 2.51D-07 at cycle  16 NSaved=  16.
 NSaved=16 IEnMin=16 EnMin= -4069.81258782052     IErMin=16 ErrMin= 2.51D-07
 ErrMax= 2.51D-07  0.00D+00 EMaxC= 1.00D-01 BMatC= 9.64D-11 BMatP= 2.79D-10
 IDIUse=1 WtCom= 1.00D+00 WtEn= 0.00D+00
 Coeff-Com: -0.131D-04 0.268D-04 0.411D-04 0.428D-04-0.497D-04-0.607D-03
 Coeff-Com: -0.154D-02-0.380D-02 0.374D-02 0.228D-01 0.220D-01-0.537D-01
 Coeff-Com: -0.813D-01-0.337D-01 0.367D+00 0.759D+00
 Coeff:     -0.131D-04 0.268D-04 0.411D-04 0.428D-04-0.497D-04-0.607D-03
 Coeff:     -0.154D-02-0.380D-02 0.374D-02 0.228D-01 0.220D-01-0.537D-01
 Coeff:     -0.813D-01-0.337D-01 0.367D+00 0.759D+00
 Gap=     0.119 Goal=   None    Shift=    0.000
 RMSDP=2.51D-08 MaxDP=1.92D-06 DE=-9.09D-10 OVMax= 1.67D-05

 Cycle  17  Pass 1  IDiag  1:
 RMSU=  1.12D-08    CP:  9.64D-01  1.49D+00  6.82D-01  6.20D-01  8.29D-01
                    CP:  8.93D-01  1.11D+00  1.40D+00  1.72D+00  2.20D+00
                    CP:  1.92D+00  1.97D+00  1.59D+00  1.34D+00  1.41D+00
                    CP:  1.24D+00
 E= -4069.81258782066     Delta-E=       -0.000000000142 Rises=F Damp=F
 DIIS: error= 1.26D-07 at cycle  17 NSaved=  17.
 NSaved=17 IEnMin=17 EnMin= -4069.81258782066     IErMin=17 ErrMin= 1.26D-07
 ErrMax= 1.26D-07  0.00D+00 EMaxC= 1.00D-01 BMatC= 2.19D-11 BMatP= 9.64D-11
 IDIUse=1 WtCom= 1.00D+00 WtEn= 0.00D+00
 Coeff-Com: -0.853D-05 0.167D-04 0.319D-04 0.448D-04 0.702D-04-0.160D-03
 Coeff-Com: -0.905D-03-0.303D-02-0.202D-03 0.107D-01 0.191D-01-0.706D-02
 Coeff-Com: -0.403D-01-0.978D-01-0.223D-01 0.319D+00 0.822D+00
 Coeff:     -0.853D-05 0.167D-04 0.319D-04 0.448D-04 0.702D-04-0.160D-03
 Coeff:     -0.905D-03-0.303D-02-0.202D-03 0.107D-01 0.191D-01-0.706D-02
 Coeff:     -0.403D-01-0.978D-01-0.223D-01 0.319D+00 0.822D+00
 Gap=     0.119 Goal=   None    Shift=    0.000
 RMSDP=1.38D-08 MaxDP=1.07D-06 DE=-1.42D-10 OVMax= 9.11D-06

 Cycle  18  Pass 1  IDiag  1:
 RMSU=  5.31D-09    CP:  9.64D-01  1.49D+00  6.82D-01  6.20D-01  8.29D-01
                    CP:  8.93D-01  1.11D+00  1.40D+00  1.72D+00  2.20D+00
                    CP:  1.93D+00  1.98D+00  1.61D+00  1.40D+00  1.57D+00
                    CP:  1.61D+00  1.38D+00
 E= -4069.81258782074     Delta-E=       -0.000000000080 Rises=F Damp=F
 DIIS: error= 6.22D-08 at cycle  18 NSaved=  18.
 NSaved=18 IEnMin=18 EnMin= -4069.81258782074     IErMin=18 ErrMin= 6.22D-08
 ErrMax= 6.22D-08  0.00D+00 EMaxC= 1.00D-01 BMatC= 7.90D-12 BMatP= 2.19D-11
 IDIUse=1 WtCom= 1.00D+00 WtEn= 0.00D+00
 Coeff-Com:  0.642D-06-0.162D-05 0.550D-06 0.480D-05 0.651D-04 0.134D-03
 Coeff-Com:  0.214D-03-0.150D-03-0.114D-02-0.362D-02 0.119D-02 0.145D-01
 Coeff-Com:  0.136D-01-0.338D-01-0.142D+00-0.138D+00 0.360D+00 0.929D+00
 Coeff:      0.642D-06-0.162D-05 0.550D-06 0.480D-05 0.651D-04 0.134D-03
 Coeff:      0.214D-03-0.150D-03-0.114D-02-0.362D-02 0.119D-02 0.145D-01
 Coeff:      0.136D-01-0.338D-01-0.142D+00-0.138D+00 0.360D+00 0.929D+00
 Gap=     0.119 Goal=   None    Shift=    0.000
 RMSDP=1.09D-08 MaxDP=7.85D-07 DE=-8.00D-11 OVMax= 7.41D-06

 Cycle  19  Pass 1  IDiag  1:
 RMSU=  3.12D-09    CP:  9.64D-01  1.49D+00  6.82D-01  6.20D-01  8.29D-01
                    CP:  8.93D-01  1.11D+00  1.40D+00  1.72D+00  2.20D+00
                    CP:  1.93D+00  1.99D+00  1.62D+00  1.44D+00  1.70D+00
                    CP:  1.90D+00  1.89D+00  1.28D+00
 E= -4069.81258782085     Delta-E=       -0.000000000113 Rises=F Damp=F
 DIIS: error= 4.21D-08 at cycle  19 NSaved=  19.
 NSaved=19 IEnMin=19 EnMin= -4069.81258782085     IErMin=19 ErrMin= 4.21D-08
 ErrMax= 4.21D-08  0.00D+00 EMaxC= 1.00D-01 BMatC= 2.46D-12 BMatP= 7.90D-12
 IDIUse=1 WtCom= 1.00D+00 WtEn= 0.00D+00
 Coeff-Com:  0.313D-05-0.635D-05-0.101D-04-0.120D-04 0.212D-04 0.130D-03
 Coeff-Com:  0.443D-03 0.874D-03-0.585D-03-0.609D-02-0.577D-02 0.108D-01
 Coeff-Com:  0.228D-01 0.126D-01-0.788D-01-0.198D+00-0.617D-01 0.539D+00
 Coeff-Com:  0.764D+00
 Coeff:      0.313D-05-0.635D-05-0.101D-04-0.120D-04 0.212D-04 0.130D-03
 Coeff:      0.443D-03 0.874D-03-0.585D-03-0.609D-02-0.577D-02 0.108D-01
 Coeff:      0.228D-01 0.126D-01-0.788D-01-0.198D+00-0.617D-01 0.539D+00
 Coeff:      0.764D+00
 Gap=     0.119 Goal=   None    Shift=    0.000
 RMSDP=6.31D-09 MaxDP=4.58D-07 DE=-1.13D-10 OVMax= 3.91D-06

 SCF Done:  E(RCAM-B3LYP) =  -4069.81258782     A.U. after   19 cycles
            NFock= 19  Conv=0.63D-08     -V/T= 2.0102
 KE= 4.028793148664D+03 PE=-4.139717564359D+04 EE= 1.734062137396D+04
 Leave Link  502 at Wed Sep  8 18:46:37 2021, MaxMem= 23488102400 cpu:           15892.8 elap:             687.7
 (Enter /sw/apps/gaussian-16.0/g16/l801.exe)
 DoSCS=F DFT=T ScalE2(SS,OS)=  1.000000  1.000000
 ExpMin= 3.36D-02 ExpMax= 4.95D+03 ExpMxC= 7.45D+02 IAcc=3 IRadAn=         5 AccDes= 0.00D+00
 HarFok:  IExCor=  205 AccDes= 0.00D+00 IRadAn=         5 IDoV=-2 UseB2=F ITyADJ=14
 ICtDFT= 12500011 ScaDFX=  1.000000  1.000000  1.000000  1.000000
 GSVD:  LWork=       -9588 too small for GESVD, short by       45590 words or       45590 for optimal perf.
 Largest valence mixing into a core orbital is  2.03D-04
 Largest core mixing into a valence orbital is  5.25D-05
 Range of M.O.s used for correlation:    95  1572
 NBasis=  1572 NAE=   312 NBE=   312 NFC=    94 NFV=     0
 NROrb=   1478 NOA=   218 NOB=   218 NVA=  1260 NVB=  1260
 Leave Link  801 at Wed Sep  8 18:46:37 2021, MaxMem= 23488102400 cpu:               8.2 elap:               0.4
 (Enter /sw/apps/gaussian-16.0/g16/l914.exe)
 RHF ground state
 Two-electron integrals replicated using symmetry.
 MDV= 23488102400 DFT=T DoStab=F Mixed=T DoRPA=T DoScal=F NonHer=T
 Making orbital integer symmetry assigments:
 Orbital symmetries:
       Occupied  (A) (A) (A) (A) (A) (A) (A) (A) (A) (A) (A) (A)
                 (A) (A) (A) (A) (A) (A) (A) (A) (A) (A) (A) (A)
                 (A) (A) (A) (A) (A) (A) (A) (A) (A) (A) (A) (A)
                 (A) (A) (A) (A) (A) (A) (A) (A) (A) (A) (A) (A)
                 (A) (A) (A) (A) (A) (A) (A) (A) (A) (A) (A) (A)
                 (A) (A) (A) (A) (A) (A) (A) (A) (A) (A) (A) (A)
                 (A) (A) (A) (A) (A) (A) (A) (A) (A) (A) (A) (A)
                 (A) (A) (A) (A) (A) (A) (A) (A) (A) (A) (A) (A)
                 (A) (A) (A) (A) (A) (A) (A) (A) (A) (A) (A) (A)
                 (A) (A) (A) (A) (A) (A) (A) (A) (A) (A) (A) (A)
                 (A) (A) (A) (A) (A) (A) (A) (A) (A) (A) (A) (A)
                 (A) (A) (A) (A) (A) (A) (A) (A) (A) (A) (A) (A)
                 (A) (A) (A) (A) (A) (A) (A) (A) (A) (A) (A) (A)
                 (A) (A) (A) (A) (A) (A) (A) (A) (A) (A) (A) (A)
                 (A) (A) (A) (A) (A) (A) (A) (A) (A) (A) (A) (A)
                 (A) (A) (A) (A) (A) (A) (A) (A) (A) (A) (A) (A)
                 (A) (A) (A) (A) (A) (A) (A) (A) (A) (A) (A) (A)
                 (A) (A) (A) (A) (A) (A) (A) (A) (A) (A) (A) (A)
                 (A) (A) (A) (A) (A) (A) (A) (A) (A) (A) (A) (A)
                 (A) (A) (A) (A) (A) (A) (A) (A) (A) (A) (A) (A)
                 (A) (A) (A) (A) (A) (A) (A) (A) (A) (A) (A) (A)
                 (A) (A) (A) (A) (A) (A) (A) (A) (A) (A) (A) (A)
                 (A) (A) (A) (A) (A) (A) (A) (A) (A) (A) (A) (A)
                 (A) (A) (A) (A) (A) (A) (A) (A) (A) (A) (A) (A)
                 (A) (A) (A) (A) (A) (A) (A) (A) (A) (A) (A) (A)
                 (A) (A) (A) (A) (A) (A) (A) (A) (A) (A) (A) (A)
       Virtual   (A) (A) (A) (A) (A) (A) (A) (A) (A) (A) (A) (A)
                 (A) (A) (A) (A) (A) (A) (A) (A) (A) (A) (A) (A)
                 (A) (A) (A) (A) (A) (A) (A) (A) (A) (A) (A) (A)
                 (A) (A) (A) (A) (A) (A) (A) (A) (A) (A) (A) (A)
                 (A) (A) (A) (A) (A) (A) (A) (A) (A) (A) (A) (A)
                 (A) (A) (A) (A) (A) (A) (A) (A) (A) (A) (A) (A)
                 (A) (A) (A) (A) (A) (A) (A) (A) (A) (A) (A) (A)
                 (A) (A) (A) (A) (A) (A) (A) (A) (A) (A) (A) (A)
                 (A) (A) (A) (A) (A) (A) (A) (A) (A) (A) (A) (A)
                 (A) (A) (A) (A) (A) (A) (A) (A) (A) (A) (A) (A)
                 (A) (A) (A) (A) (A) (A) (A) (A) (A) (A) (A) (A)
                 (A) (A) (A) (A) (A) (A) (A) (A) (A) (A) (A) (A)
                 (A) (A) (A) (A) (A) (A) (A) (A) (A) (A) (A) (A)
                 (A) (A) (A) (A) (A) (A) (A) (A) (A) (A) (A) (A)
                 (A) (A) (A) (A) (A) (A) (A) (A) (A) (A) (A) (A)
                 (A) (A) (A) (A) (A) (A) (A) (A) (A) (A) (A) (A)
                 (A) (A) (A) (A) (A) (A) (A) (A) (A) (A) (A) (A)
                 (A) (A) (A) (A) (A) (A) (A) (A) (A) (A) (A) (A)
                 (A) (A) (A) (A) (A) (A) (A) (A) (A) (A) (A) (A)
                 (A) (A) (A) (A) (A) (A) (A) (A) (A) (A) (A) (A)
                 (A) (A) (A) (A) (A) (A) (A) (A) (A) (A) (A) (A)
                 (A) (A) (A) (A) (A) (A) (A) (A) (A) (A) (A) (A)
                 (A) (A) (A) (A) (A) (A) (A) (A) (A) (A) (A) (A)
                 (A) (A) (A) (A) (A) (A) (A) (A) (A) (A) (A) (A)
                 (A) (A) (A) (A) (A) (A) (A) (A) (A) (A) (A) (A)
                 (A) (A) (A) (A) (A) (A) (A) (A) (A) (A) (A) (A)
                 (A) (A) (A) (A) (A) (A) (A) (A) (A) (A) (A) (A)
                 (A) (A) (A) (A) (A) (A) (A) (A) (A) (A) (A) (A)
                 (A) (A) (A) (A) (A) (A) (A) (A) (A) (A) (A) (A)
                 (A) (A) (A) (A) (A) (A) (A) (A) (A) (A) (A) (A)
                 (A) (A) (A) (A) (A) (A) (A) (A) (A) (A) (A) (A)
                 (A) (A) (A) (A) (A) (A) (A) (A) (A) (A) (A) (A)
                 (A) (A) (A) (A) (A) (A) (A) (A) (A) (A) (A) (A)
                 (A) (A) (A) (A) (A) (A) (A) (A) (A) (A) (A) (A)
                 (A) (A) (A) (A) (A) (A) (A) (A) (A) (A) (A) (A)
                 (A) (A) (A) (A) (A) (A) (A) (A) (A) (A) (A) (A)
                 (A) (A) (A) (A) (A) (A) (A) (A) (A) (A) (A) (A)
                 (A) (A) (A) (A) (A) (A) (A) (A) (A) (A) (A) (A)
                 (A) (A) (A) (A) (A) (A) (A) (A) (A) (A) (A) (A)
                 (A) (A) (A) (A) (A) (A) (A) (A) (A) (A) (A) (A)
                 (A) (A) (A) (A) (A) (A) (A) (A) (A) (A) (A) (A)
                 (A) (A) (A) (A) (A) (A) (A) (A) (A) (A) (A) (A)
                 (A) (A) (A) (A) (A) (A) (A) (A) (A) (A) (A) (A)
                 (A) (A) (A) (A) (A) (A) (A) (A) (A) (A) (A) (A)
                 (A) (A) (A) (A) (A) (A) (A) (A) (A) (A) (A) (A)
                 (A) (A) (A) (A) (A) (A) (A) (A) (A) (A) (A) (A)
                 (A) (A) (A) (A) (A) (A) (A) (A) (A) (A) (A) (A)
                 (A) (A) (A) (A) (A) (A) (A) (A) (A) (A) (A) (A)
                 (A) (A) (A) (A) (A) (A) (A) (A) (A) (A) (A) (A)
                 (A) (A) (A) (A) (A) (A) (A) (A) (A) (A) (A) (A)
                 (A) (A) (A) (A) (A) (A) (A) (A) (A) (A) (A) (A)
                 (A) (A) (A) (A) (A) (A) (A) (A) (A) (A) (A) (A)
                 (A) (A) (A) (A) (A) (A) (A) (A) (A) (A) (A) (A)
                 (A) (A) (A) (A) (A) (A) (A) (A) (A) (A) (A) (A)
                 (A) (A) (A) (A) (A) (A) (A) (A) (A) (A) (A) (A)
                 (A) (A) (A) (A) (A) (A) (A) (A) (A) (A) (A) (A)
                 (A) (A) (A) (A) (A) (A) (A) (A) (A) (A) (A) (A)
                 (A) (A) (A) (A) (A) (A) (A) (A) (A) (A) (A) (A)
                 (A) (A) (A) (A) (A) (A) (A) (A) (A) (A) (A) (A)
                 (A) (A) (A) (A) (A) (A) (A) (A) (A) (A) (A) (A)
                 (A) (A) (A) (A) (A) (A) (A) (A) (A) (A) (A) (A)
                 (A) (A) (A) (A) (A) (A) (A) (A) (A) (A) (A) (A)
                 (A) (A) (A) (A) (A) (A) (A) (A) (A) (A) (A) (A)
                 (A) (A) (A) (A) (A) (A) (A) (A) (A) (A) (A) (A)
                 (A) (A) (A) (A) (A) (A) (A) (A) (A) (A) (A) (A)
                 (A) (A) (A) (A) (A) (A) (A) (A) (A) (A) (A) (A)
                 (A) (A) (A) (A) (A) (A) (A) (A) (A) (A) (A) (A)
                 (A) (A) (A) (A) (A) (A) (A) (A) (A) (A) (A) (A)
                 (A) (A) (A) (A) (A) (A) (A) (A) (A) (A) (A) (A)
                 (A) (A) (A) (A) (A) (A) (A) (A) (A) (A) (A) (A)
                 (A) (A) (A) (A) (A) (A) (A) (A) (A) (A) (A) (A)
                 (A) (A) (A) (A) (A) (A) (A) (A) (A) (A) (A) (A)
                 (A) (A) (A) (A) (A) (A) (A) (A) (A) (A) (A) (A)
                 (A) (A) (A) (A) (A) (A) (A) (A) (A) (A) (A) (A)
                 (A) (A) (A) (A) (A) (A) (A) (A) (A) (A) (A) (A)
                 (A) (A) (A) (A) (A) (A) (A) (A) (A) (A) (A) (A)
                 (A) (A) (A) (A) (A) (A) (A) (A) (A) (A) (A) (A)
                 (A) (A) (A) (A) (A) (A) (A) (A) (A) (A) (A) (A)
                 (A) (A) (A) (A) (A) (A) (A) (A) (A) (A) (A) (A)
                 (A) (A) (A) (A) (A) (A) (A) (A) (A) (A) (A) (A)
                 (A) (A) (A) (A) (A) (A) (A) (A) (A) (A) (A) (A)
                 (A) (A) (A) (A) (A) (A) (A) (A) (A) (A) (A) (A)
                 (A) (A) (A) (A) (A) (A) (A) (A) (A) (A) (A) (A)
                 (A) (A) (A) (A) (A) (A) (A) (A) (A) (A) (A) (A)
                 (A) (A) (A) (A) (A) (A) (A) (A) (A) (A) (A) (A)
                 (A) (A) (A) (A) (A) (A) (A) (A) (A) (A) (A) (A)
                 (A) (A) (A) (A) (A) (A) (A) (A) (A) (A) (A) (A)
                 (A) (A) (A) (A) (A) (A) (A) (A) (A) (A) (A) (A)
                 (A) (A) (A) (A) (A) (A) (A) (A) (A) (A) (A) (A)
                 (A) (A) (A) (A) (A) (A) (A) (A) (A) (A) (A) (A)
                 (A) (A) (A) (A) (A) (A) (A) (A) (A) (A) (A) (A)
                 (A) (A) (A) (A) (A) (A) (A) (A) (A) (A) (A) (A)
                 (A) (A) (A) (A) (A) (A) (A) (A) (A) (A) (A) (A)
                 (A) (A) (A) (A) (A) (A) (A) (A) (A) (A) (A) (A)
                 (A) (A) (A) (A) (A) (A) (A) (A) (A) (A) (A) (A)
                 (A) (A) (A) (A) (A) (A) (A) (A) (A) (A) (A) (A)
                 (A) (A) (A) (A) (A) (A) (A) (A) (A) (A) (A) (A)
                 (A) (A) (A) (A) (A) (A) (A) (A) (A) (A) (A) (A)
                 (A) (A) (A) (A) (A) (A) (A) (A) (A) (A) (A) (A)
                 (A) (A) (A) (A) (A) (A) (A) (A) (A) (A) (A) (A)
                 (A) (A) (A) (A) (A) (A) (A) (A) (A) (A) (A) (A)
                 (A) (A) (A) (A) (A) (A) (A) (A) (A) (A) (A) (A)
                 (A) (A) (A) (A) (A) (A) (A) (A) (A) (A) (A) (A)
                 (A) (A) (A) (A) (A) (A) (A) (A) (A) (A) (A) (A)
                 (A) (A) (A) (A) (A) (A) (A) (A) (A) (A) (A) (A)
    20 initial guesses have been made.
 Convergence on wavefunction:    0.001000000000000
 Davidson Disk Diagonalization:  ConvIn= 1.00D-03 SkipCon=T Conv= 1.00D-03.
 Max sub-space:  2000 roots to seek:    20 dimension of matrix:       549360
 Iteration     1 Dimension    20 NMult     0 NNew     20
 CISAX will form    20 AO SS matrices at one time.
 NMat=    20 NSing=    20 JSym2X= 0.
 FoFJK:  IHMeth= 1 ICntrl=       0 DoSepK=T KAlg= 0 I1Cent=           0 FoldK=F
 IRaf=         1 NMat=      40 IRICut=       1 DoRegI=T DoRafI=F ISym2E= 0 IDoP0=3 IntGTp=3.
 FoFCou: FMM=T IPFlag=           0 FMFlag=      100000 FMFlg1=        2001
         NFxFlg=           0 DoJE=F BraDBF=F KetDBF=F FulRan=T
         wScrn=  0.000000 ICntrl=       500 IOpCl=  0 I1Cent=           0 NGrid=           0
         NMat0=   20 NMatS0=     20 NMatT0=    0 NMatD0=   20 NMtDS0=    0 NMtDT0=    0
 Symmetry not used in FoFCou.
 FMM levels:  10  Number of levels for PrismC:   9
 New state      2 was old state      4
 New state      3 was old state      2
 New state      4 was old state      7
 New state      5 was old state      6
 Excitation Energies [eV] at current iteration:
 Root      1 :     2.224339820552125
 Root      2 :     2.464511941001083
 Root      3 :     2.584504132853938
 Root      4 :     2.613611259542832
 Root      5 :     2.629533571463948
 Root      6 :     2.773265040663686
 Root      7 :     3.001918875304787
 Root      8 :     3.261511752793031
 Root      9 :     3.619080091498710
 Root     10 :     3.667409931406610
 Root     11 :     3.746725026569651
 Root     12 :     3.755822336513760
 Root     13 :     4.122256954601171
 Root     14 :     4.226773070489243
 Root     15 :     4.378348568793150
 Root     16 :     4.396682933942948
 Root     17 :     4.460156064652355
 Root     18 :     4.505010330506526
 Root     19 :     4.620252151798673
 Root     20 :     4.715685256562462
 Iteration     2 Dimension    30 NMult    20 NNew     10
 CISAX will form    10 AO SS matrices at one time.
 NMat=    10 NSing=    10 JSym2X= 0.
 New state      1 was old state      3
 Root      1 not converged, maximum delta is    0.187304263023976
 New state      2 was old state      4
 Root      2 not converged, maximum delta is    0.304469674557942
 New state      3 was old state      1
 Root      3 not converged, maximum delta is    0.028520192313598
 New state      4 was old state      5
 Root      4 not converged, maximum delta is    0.253237650412832
 New state      5 was old state      2
 Root      5 not converged, maximum delta is    0.004914635861426
 Excitation Energies [eV] at current iteration:
 Root      1 :     1.760072198906429   Change is   -0.824431933947509
 Root      2 :     2.222056605421375   Change is   -0.391554654121457
 Root      3 :     2.223104687053505   Change is   -0.001235133498620
 Root      4 :     2.246059044846703   Change is   -0.383474526617245
 Root      5 :     2.462930461638456   Change is   -0.001581479362627
 Iteration     3 Dimension    40 NMult    30 NNew     10
 CISAX will form    10 AO SS matrices at one time.
 NMat=    10 NSing=    10 JSym2X= 0.
 Root      1 not converged, maximum delta is    0.052964151595771
 Root      2 not converged, maximum delta is    0.422647060726343
 New state      3 was old state      4
 Root      3 not converged, maximum delta is    0.735021603875500
 No map to state      4
 New state      5 was old state      3
 Root      5 not converged, maximum delta is    0.030824995436715
 Excitation Energies [eV] at current iteration:
 Root      1 :     1.657267129700441   Change is   -0.102805069205988
 Root      2 :     1.853500656073671   Change is   -0.368555949347704
 Root      3 :     2.185796482383678   Change is   -0.060262562463025
 Root      4 :     2.208079648441181
 Root      5 :     2.223102398059374   Change is   -0.000002288994131
 Iteration     4 Dimension    50 NMult    40 NNew     10
 CISAX will form    10 AO SS matrices at one time.
 NMat=    10 NSing=    10 JSym2X= 0.
 Root      1 not converged, maximum delta is    0.011272954351484
 Root      2 not converged, maximum delta is    0.033234753241813
 Root      3 not converged, maximum delta is    0.012959013543728
 Root      4 not converged, maximum delta is    0.009997167995244
 Root      5 not converged, maximum delta is    0.004709927566346
 Excitation Energies [eV] at current iteration:
 Root      1 :     1.640962648327007   Change is   -0.016304481373434
 Root      2 :     1.729806300833357   Change is   -0.123694355240315
 Root      3 :     2.177524542302985   Change is   -0.008271940080693
 Root      4 :     2.199841732735081   Change is   -0.008237915706100
 Root      5 :     2.223097731828047   Change is   -0.000004666231327
 Iteration     5 Dimension    60 NMult    50 NNew     10
 CISAX will form    10 AO SS matrices at one time.
 NMat=    10 NSing=    10 JSym2X= 0.
 Root      1 not converged, maximum delta is    0.001279243804226
 Root      2 not converged, maximum delta is    0.010327447662876
 Root      3 not converged, maximum delta is    0.002058369356981
 Root      4 not converged, maximum delta is    0.001861531315530
 Root      5 has converged.
 Excitation Energies [eV] at current iteration:
 Root      1 :     1.639292818317678   Change is   -0.001669830009329
 Root      2 :     1.710434284324001   Change is   -0.019372016509355
 Root      3 :     2.176617360611251   Change is   -0.000907181691733
 Root      4 :     2.198875339080639   Change is   -0.000966393654442
 Root      5 :     2.223097308109825   Change is   -0.000000423718222
 Iteration     6 Dimension    68 NMult    60 NNew      8
 CISAX will form     8 AO SS matrices at one time.
 NMat=     8 NSing=     8 JSym2X= 0.
 Root      1 has converged.
 Root      2 not converged, maximum delta is    0.002405718545146
 Root      3 has converged.
 Root      4 has converged.
 Root      5 has converged.
 Excitation Energies [eV] at current iteration:
 Root      1 :     1.639057141754038   Change is   -0.000235676563640
 Root      2 :     1.708849434453802   Change is   -0.001584849870199
 Root      3 :     2.176495336776298   Change is   -0.000122023834953
 Root      4 :     2.198750886575375   Change is   -0.000124452505264
 Root      5 :     2.223097285689344   Change is   -0.000000022420481
 Iteration     7 Dimension    70 NMult    68 NNew      2
 CISAX will form     2 AO SS matrices at one time.
 NMat=     2 NSing=     2 JSym2X= 0.
 Root      1 has converged.
 Root      2 has converged.
 Root      3 has converged.
 Root      4 has converged.
 Root      5 has converged.
 Excitation Energies [eV] at current iteration:
 Root      1 :     1.639057135210318   Change is   -0.000000006543721
[...]
 Alpha virt. eigenvalues --    1.83694   1.83876   1.83957   1.84223   1.84319
 Alpha virt. eigenvalues --    1.84603   1.84698   1.84782   1.84979   1.85166
 Alpha virt. eigenvalues --    1.85274   1.85358   1.85464   1.85524   1.85694
 Alpha virt. eigenvalues --    1.86022   1.86234   1.86323   1.86479   1.86631
 Alpha virt. eigenvalues --    1.86673   1.86883   1.86922   1.87072   1.87292
 Alpha virt. eigenvalues --    1.87331   1.87566   1.87684   1.87862   1.87917
 Alpha virt. eigenvalues --    1.88072   1.88262   1.88415   1.88462   1.88679
 Alpha virt. eigenvalues --    1.88953   1.89025   1.89274   1.89480   1.89645
 Alpha virt. eigenvalues --    1.89837   1.89984   1.90087   1.90188   1.90626
 Alpha virt. eigenvalues --    1.90917   1.91200   1.91293   1.91551   1.91725
 Alpha virt. eigenvalues --    1.92000   1.92094   1.92441   1.92725   1.92889
 Alpha virt. eigenvalues --    1.93079   1.93254   1.93469   1.93750   1.94195
 Alpha virt. eigenvalues --    1.94554   1.94608   1.95063   1.95400   1.95632
 Alpha virt. eigenvalues --    1.95825   1.95876   1.96033   1.96147   1.96329
 Alpha virt. eigenvalues --    1.96466   1.96579   1.96759   1.96873   1.97230
 Alpha virt. eigenvalues --    1.97366   1.97720   1.97811   1.98032   1.98120
 Alpha virt. eigenvalues --    1.98476   1.98625   1.98695   1.99041   1.99480
 Alpha virt. eigenvalues --    1.99651   2.00391   2.00562   2.00880   2.01138
 Alpha virt. eigenvalues --    2.01279   2.01445   2.01561   2.01649   2.01792
 Alpha virt. eigenvalues --    2.01965   2.02280   2.02665   2.02985   2.03109
 Alpha virt. eigenvalues --    2.03277   2.03337   2.03527   2.03795   2.03850
 Alpha virt. eigenvalues --    2.03972   2.04329   2.04868   2.05208   2.05423
 Alpha virt. eigenvalues --    2.05858   2.06040   2.06541   2.07022   2.07093
 Alpha virt. eigenvalues --    2.07392   2.07628   2.08529   2.08726   2.08988
 Alpha virt. eigenvalues --    2.09295   2.09589   2.09887   2.10729   2.11071
 Alpha virt. eigenvalues --    2.11262   2.11365   2.11613   2.11685   2.11848
 Alpha virt. eigenvalues --    2.12157   2.12460   2.12695   2.12722   2.12901
 Alpha virt. eigenvalues --    2.13199   2.13529   2.13705   2.14054   2.14351
 Alpha virt. eigenvalues --    2.14683   2.15277   2.15645   2.15845   2.16445
 Alpha virt. eigenvalues --    2.16499   2.16668   2.17020   2.17321   2.17471
 Alpha virt. eigenvalues --    2.17618   2.17877   2.18014   2.18192   2.18275
 Alpha virt. eigenvalues --    2.18416   2.18927   2.19065   2.19465   2.19755
 Alpha virt. eigenvalues --    2.20073   2.20088   2.20383   2.20601   2.20819
 Alpha virt. eigenvalues --    2.21036   2.21524   2.21625   2.21637   2.22076
 Alpha virt. eigenvalues --    2.22159   2.22588   2.23038   2.23257   2.23646
 Alpha virt. eigenvalues --    2.24335   2.24655   2.25043   2.25228   2.26155
 Alpha virt. eigenvalues --    2.26662   2.26759   2.26979   2.27303   2.27548
 Alpha virt. eigenvalues --    2.28030   2.28804   2.29199   2.29665   2.29862
 Alpha virt. eigenvalues --    2.30207   2.30461   2.30916   2.31037   2.31183
 Alpha virt. eigenvalues --    2.31249   2.31493   2.32046   2.32482   2.33044
 Alpha virt. eigenvalues --    2.33352   2.33546   2.33782   2.34026   2.34477
 Alpha virt. eigenvalues --    2.35200   2.35645   2.35681   2.36264   2.36334
 Alpha virt. eigenvalues --    2.36526   2.36598   2.36668   2.37644   2.37897
 Alpha virt. eigenvalues --    2.38198   2.38572   2.38689   2.39123   2.39514
 Alpha virt. eigenvalues --    2.39950   2.40062   2.40322   2.40502   2.41087
 Alpha virt. eigenvalues --    2.41182   2.41531   2.41584   2.41894   2.41929
 Alpha virt. eigenvalues --    2.42438   2.42847   2.43048   2.43287   2.43390
 Alpha virt. eigenvalues --    2.44016   2.44280   2.44627   2.44774   2.45080
 Alpha virt. eigenvalues --    2.45375   2.45467   2.45827   2.46245   2.46366
 Alpha virt. eigenvalues --    2.46527   2.46692   2.46746   2.47075   2.47158
 Alpha virt. eigenvalues --    2.47615   2.47635   2.48139   2.49269   2.49578
 Alpha virt. eigenvalues --    2.49980   2.50097   2.50482   2.50641   2.51119
 Alpha virt. eigenvalues --    2.51617   2.51783   2.51824   2.52299   2.52665
 Alpha virt. eigenvalues --    2.52732   2.53531   2.53842   2.54108   2.54203
 Alpha virt. eigenvalues --    2.54461   2.54701   2.55081   2.55458   2.55936
 Alpha virt. eigenvalues --    2.57769   2.58348   2.58532   2.59280   2.60067
 Alpha virt. eigenvalues --    2.60435   2.60655   2.61280   2.61614   2.62115
 Alpha virt. eigenvalues --    2.62370   2.62711   2.62837   2.63416   2.63804
 Alpha virt. eigenvalues --    2.64141   2.64531   2.64673   2.64954   2.65382
 Alpha virt. eigenvalues --    2.65692   2.66160   2.66671   2.66780   2.67045
 Alpha virt. eigenvalues --    2.67415   2.67796   2.68292   2.68715   2.68879
 Alpha virt. eigenvalues --    2.69046   2.69264   2.69369   2.69877   2.69942
 Alpha virt. eigenvalues --    2.70395   2.70839   2.71391   2.71899   2.72147
 Alpha virt. eigenvalues --    2.72540   2.72624   2.72758   2.73060   2.73174
 Alpha virt. eigenvalues --    2.73270   2.73497   2.73780   2.74401   2.74766
 Alpha virt. eigenvalues --    2.74844   2.75318   2.76483   2.76757   2.77128
 Alpha virt. eigenvalues --    2.77334   2.77348   2.77837   2.78135   2.78482
 Alpha virt. eigenvalues --    2.78552   2.78932   2.79007   2.79429   2.80217
 Alpha virt. eigenvalues --    2.80409   2.80425   2.80971   2.81019   2.81391
 Alpha virt. eigenvalues --    2.81797   2.82231   2.82277   2.82600   2.83619
 Alpha virt. eigenvalues --    2.83690   2.84012   2.84206   2.84458   2.84723
 Alpha virt. eigenvalues --    2.84797   2.85126   2.85584   2.85879   2.86848
 Alpha virt. eigenvalues --    2.86909   2.87415   2.87479   2.88105   2.88396
 Alpha virt. eigenvalues --    2.88412   2.88831   2.88870   2.89092   2.90325
 Alpha virt. eigenvalues --    2.90957   2.91097   2.91377   2.93022   2.93626
 Alpha virt. eigenvalues --    2.94018   2.94144   2.94487   2.94759   2.95158
 Alpha virt. eigenvalues --    2.95758   2.95969   2.96167   2.96330   2.96587
 Alpha virt. eigenvalues --    2.97008   2.97214   2.97797   2.98096   2.98189
 Alpha virt. eigenvalues --    2.98269   2.98518   2.98724   2.98822   2.98860
 Alpha virt. eigenvalues --    2.99087   2.99192   2.99490   2.99867   2.99960
 Alpha virt. eigenvalues --    3.00108   3.00309   3.00391   3.00520   3.01344
 Alpha virt. eigenvalues --    3.01890   3.01928   3.02201   3.02465   3.02551
 Alpha virt. eigenvalues --    3.02960   3.03055   3.03246   3.03678   3.03928
 Alpha virt. eigenvalues --    3.04178   3.04395   3.04488   3.04552   3.04789
 Alpha virt. eigenvalues --    3.04978   3.05223   3.05567   3.05974   3.06471
 Alpha virt. eigenvalues --    3.06697   3.07344   3.08046   3.08175   3.09420
 Alpha virt. eigenvalues --    3.09621   3.09827   3.10310   3.10770   3.11133
 Alpha virt. eigenvalues --    3.11260   3.11734   3.11792   3.11864   3.12478
 Alpha virt. eigenvalues --    3.12680   3.13237   3.13568   3.13857   3.13932
 Alpha virt. eigenvalues --    3.13996   3.14818   3.15849   3.16146   3.17182
 Alpha virt. eigenvalues --    3.17761   3.18018   3.18043   3.19060   3.19217
 Alpha virt. eigenvalues --    3.22092   3.22903   3.23845   3.24554   3.24691
 Alpha virt. eigenvalues --    3.25472   3.26407   3.26888   3.27510   3.27648
 Alpha virt. eigenvalues --    3.28888   3.29540   3.31414   3.31621   3.33320
 Alpha virt. eigenvalues --    3.33413   3.40472   3.40588   3.42761   3.42985
 Alpha virt. eigenvalues --    3.48562   3.48956   3.49921   3.50515   3.51079
 Alpha virt. eigenvalues --    3.51375   3.56465   3.57218   3.59008   3.59549
 Alpha virt. eigenvalues --    3.62754   3.62769   3.66157   3.66248   3.67065
 Alpha virt. eigenvalues --    3.67867   3.73255   3.74335   3.76129   3.76987
          Condensed to atoms (all electrons):
 Mulliken charges:
               1
     1  Mg   0.838681
     2  C   -0.004154
     3  C   -0.095238
     4  C   -0.045321
     5  C   -0.063395
     6  N   -0.256652
     7  C   -0.053498
     8  C   -0.013180
     9  C   -0.086820
    10  C    0.045970
    11  C    0.104775
    12  C    0.049309
    13  C   -0.072044
    14  H    0.033228
    15  N   -0.433371
    16  C    0.168664
    17  C   -0.177392
    18  C   -0.003096
    19  C    0.149086
    20  C    0.110305
    21  C    0.013693
    22  O   -0.249024
    23  C    0.062195
    24  N   -0.340876
    25  C    0.041168
    26  C   -0.028389
    27  C   -0.023860
    28  C    0.074609
    29  C    0.076067
    30  C    0.035028
    31  C   -0.005967
    32  N   -0.310724
    33  C    0.080576
    34  C   -0.168724
    35  C    0.008860
    36  C    0.083048
    37  C    0.126975
    38  C    0.046391
    39  O   -0.187118
    40  C   -0.006141
    41  C    0.215035
    42  O   -0.259510
    43  O   -0.303942
    44  C    0.157361
    45  H   -0.017778
    46  H   -0.016422
    47  H   -0.041048
    48  H    0.001213
    49  H   -0.004898
    50  H    0.025793
    51  H    0.017093
    52  H    0.016739
    53  H    0.010304
    54  H    0.046201
    55  H    0.019720
    56  H    0.017769
    57  H    0.005103
    58  H    0.027338
    59  H    0.038913
    60  H    0.036667
    61  H    0.037192
    62  H    0.032083
    63  H    0.016401
    64  H    0.009921
    65  H    0.023464
    66  H    0.012768
    67  H    0.005020
    68  H    0.006211
    69  H    0.005237
    70  H    0.008323
    71  H    0.017034
    72  H    0.031131
    73  H    0.049410
    74  H    0.009294
    75  H    0.046142
    76  H    0.035702
    77  H    0.044624
    78  H    0.045699
    79  H    0.052732
    80  Mg   0.836548
    81  C   -0.015709
    82  C   -0.088227
    83  C   -0.046047
    84  C   -0.066107
    85  N   -0.255067
    86  C   -0.046629
    87  C   -0.015474
    88  C   -0.091599
    89  C    0.046380
    90  C    0.107964
    91  C    0.062622
    92  C   -0.076780
    93  H    0.033179
    94  N   -0.423362
    95  C    0.162817
    96  C   -0.176287
    97  C   -0.008737
    98  C    0.151853
    99  C    0.100416
   100  C    0.014433
   101  O   -0.253526
   102  C    0.061649
   103  N   -0.350455
   104  C    0.037487
   105  C   -0.019960
   106  C   -0.034702
   107  C    0.089605
   108  C    0.073171
   109  C    0.034843
   110  C   -0.007488
   111  N   -0.324552
   112  C    0.079428
   113  C   -0.163472
   114  C    0.003829
   115  C    0.095756
   116  C    0.131105
   117  C    0.043610
   118  O   -0.186965
   119  C   -0.000281
   120  C    0.210244
   121  O   -0.252596
   122  O   -0.303486
   123  C    0.152605
   124  H   -0.021675
   125  H   -0.016018
   126  H   -0.041840
   127  H    0.005418
   128  H   -0.007564
   129  H    0.042412
   130  H    0.010333
   131  H    0.012037
   132  H    0.012601
   133  H    0.037145
   134  H    0.020979
   135  H    0.018031
   136  H    0.007751
   137  H    0.022895
   138  H    0.038982
   139  H    0.036333
   140  H    0.035650
   141  H    0.033819
   142  H    0.013710
   143  H    0.011645
   144  H    0.025210
   145  H    0.014152
   146  H    0.004949
   147  H    0.005737
   148  H    0.002749
   149  H    0.010797
   150  H    0.017267
   151  H    0.030509
   152  H    0.045828
   153  H    0.007195
   154  H    0.047285
   155  H    0.045161
   156  H    0.043863
   157  H    0.048495
   158  H    0.052444
 Sum of Mulliken charges =  -0.00000
 Mulliken charges with hydrogens summed into heavy atoms:
               1
     1  Mg   0.838681
     2  C   -0.004154
     3  C   -0.113015
     4  C   -0.061744
     5  C   -0.104442
     6  N   -0.256652
     7  C   -0.053498
     8  C   -0.011967
     9  C   -0.091718
    10  C    0.045970
    11  C    0.164401
    12  C    0.105814
    13  C   -0.001327
    15  N   -0.433371
    16  C    0.168664
    17  C   -0.177392
    18  C   -0.003096
    19  C    0.149086
    20  C    0.181659
    21  C    0.013693
    22  O   -0.249024
    23  C    0.168137
    24  N   -0.340876
    25  C    0.041168
    26  C   -0.011988
    27  C   -0.013939
    28  C    0.074609
    29  C    0.117320
    30  C    0.046477
    31  C    0.050521
    32  N   -0.310724
    33  C    0.080576
    34  C   -0.168724
    35  C    0.008860
    36  C    0.083048
    37  C    0.231820
    38  C    0.046391
    39  O   -0.187118
    40  C    0.029561
    41  C    0.215035
    42  O   -0.259510
    43  O   -0.303942
    44  C    0.300416
    80  Mg   0.836548
    81  C   -0.015709
    82  C   -0.109902
    83  C   -0.062065
    84  C   -0.107947
    85  N   -0.255067
    86  C   -0.046629
    87  C   -0.010057
    88  C   -0.099163
    89  C    0.046380
    90  C    0.172746
    91  C    0.112369
    92  C   -0.004591
    94  N   -0.423362
    95  C    0.162817
    96  C   -0.176287
    97  C   -0.008737
    98  C    0.151853
    99  C    0.170043
   100  C    0.014433
   101  O   -0.253526
   102  C    0.167451
   103  N   -0.350455
   104  C    0.037487
   105  C   -0.006250
   106  C   -0.023057
   107  C    0.089605
   108  C    0.117482
   109  C    0.043329
   110  C    0.051085
   111  N   -0.324552
   112  C    0.079428
   113  C   -0.163472
   114  C    0.003829
   115  C    0.095756
   116  C    0.231412
   117  C    0.043610
   118  O   -0.186965
   119  C    0.044880
   120  C    0.210244
   121  O   -0.252596
   122  O   -0.303486
   123  C    0.297407
 Electronic spatial extent (au):  <R**2>=          87337.4724
 Charge=             -0.0000 electrons
 Dipole moment (field-independent basis, Debye):
    X=             -5.2080    Y=             -1.3688    Z=             -6.7454  Tot=              8.6311
 Quadrupole moment (field-independent basis, Debye-Ang):
   XX=           -519.3465   YY=           -546.5545   ZZ=           -452.7788
   XY=             -6.4539   XZ=             -0.5044   YZ=            -45.9814
 Traceless Quadrupole moment (field-independent basis, Debye-Ang):
   XX=            -13.1199   YY=            -40.3279   ZZ=             53.4478
   XY=             -6.4539   XZ=             -0.5044   YZ=            -45.9814
 Octapole moment (field-independent basis, Debye-Ang**2):
  XXX=           -255.9868  YYY=            369.4031  ZZZ=            -73.1467  XYY=             95.9097
  XXY=              0.4479  XXZ=           -158.3076  XZZ=            -92.3128  YZZ=           -173.1540
  YYZ=           -170.9710  XYZ=            -94.5561
 Hexadecapole moment (field-independent basis, Debye-Ang**3):
 XXXX=         -52951.7869 YYYY=         -42676.9820 ZZZZ=         -24088.1508 XXXY=           -356.7969
 XXXZ=              6.1262 YYYX=           1167.8381 YYYZ=          -1641.4774 ZZZX=           -309.1283
 ZZZY=            176.8245 XXYY=         -15759.8294 XXZZ=         -12046.4863 YYZZ=         -10905.4685
 XXYZ=           -610.8100 YYXZ=            385.6483 ZZXY=           -199.0742
 N-N= 1.595794853314D+04 E-N=-4.139717563704D+04  KE= 4.028793148664D+03
 Leave Link  601 at Wed Sep  8 19:11:21 2021, MaxMem= 23488102400 cpu:              15.9 elap:               0.8
 (Enter /sw/apps/gaussian-16.0/g16/l9999.exe)
 1\1\GINC-BP1-COMPUTE00172\SP\RCAM-B3LYP TD-FC\def2SVP\C68H72Mg2N8O8\OF
 15641\08-Sep-2021\0\\#p cam-b3lyp/Def2SVP td=(nstates=5)\\TDDFT excite
 d states in gaussian\\0,1\Mg,0,0.,0.,0.\C,0,-0.217,-2.218,2.801\C,0,-1
 .255,2.442,2.026\C,0,-0.245,1.85,-2.564\C,0,0.146,-2.824,-2.037\N,0,-0
 .617,-0.009,2.126\C,0,-0.594,-0.908,3.105\C,0,-0.936,-0.309,4.502\C,0,
 -1.773,0.964,4.032\C,0,-1.155,1.168,2.66\C,0,-3.263,0.685,3.863\C,0,0.
 345,0.11,5.299\C,0,0.124,0.397,6.787\H,0,1.168,0.033,7.733\N,0,-0.185,
 1.961,-0.152\C,0,-0.703,2.8,0.777\C,0,-0.62,4.156,0.193\C,0,-0.187,4.0
 15,-1.225\C,0,-0.214,2.583,-1.38\C,0,-0.887,5.406,0.974\C,0,0.181,5.01
 3,-2.277\O,0,0.303,4.69,-3.508\C,0,0.31,6.414,-1.837\N,0,-0.265,-0.413
 ,-2.029\C,0,-0.279,0.569,-2.937\C,0,-0.196,0.024,-4.332\C,0,0.124,-1.5
 33,-4.18\C,0,0.086,-1.632,-2.635\C,0,-1.451,0.205,-5.197\C,0,1.373,-2.
 07,-4.923\C,0,2.626,-1.49,-4.306\N,0,0.15,-2.144,0.303\C,0,0.173,-3.13
 6,-0.688\C,0,0.173,-4.438,0.004\C,0,0.133,-4.111,1.358\C,0,0.083,-2.69
 5,1.502\C,0,0.149,-5.715,-0.623\C,0,0.096,-4.629,2.716\O,0,0.208,-5.74
 7,3.221\C,0,-0.255,-3.428,3.701\C,0,0.717,-3.482,4.848\O,0,1.931,-3.25
 5,4.669\O,0,0.038,-3.556,6.003\C,0,0.943,-3.583,7.183\H,0,-1.859,3.22,
 2.497\H,0,-0.218,2.453,-3.474\H,0,0.276,-3.747,-2.605\H,0,-1.554,-0.94
 9,5.132\H,0,-1.585,1.831,4.665\H,0,-3.484,-0.377,3.969\H,0,-3.511,1.02
 7,2.858\H,0,-3.852,1.301,4.543\H,0,0.669,1.096,4.966\H,0,1.13,-0.639,5
 .189\H,0,-0.844,0.026,7.125\H,0,0.062,1.477,6.921\H,0,-1.344,5.186,1.9
 38\H,0,-1.651,5.963,0.432\H,0,0.007,6.02,1.084\H,0,-0.635,6.744,-1.405
 \H,0,0.665,6.97,-2.704\H,0,1.048,6.466,-1.036\H,0,0.608,0.501,-4.891\H
 ,0,-0.692,-2.156,-4.547\H,0,-1.267,0.74,-6.129\H,0,-2.204,0.714,-4.596
 \H,0,-1.967,-0.72,-5.453\H,0,1.356,-1.759,-5.967\H,0,1.452,-3.157,-4.9
 02\H,0,2.714,-0.522,-4.798\H,0,3.487,-2.121,-4.529\H,0,2.495,-1.303,-3
 .24\H,0,0.867,-6.333,-0.084\H,0,0.404,-5.642,-1.68\H,0,-0.891,-5.999,-
 0.463\H,0,-1.283,-3.581,4.028\H,0,0.698,-4.478,7.755\H,0,0.833,-2.619,
 7.68\H,0,2.,-3.754,6.976\Mg,0,7.88959,0.7124,0.6068\C,0,7.80024,-2.275
 91,2.59202\C,0,6.65113,2.37154,3.31753\C,0,7.53139,3.26486,-1.24362\C,
 0,8.01868,-1.33112,-2.21332\N,0,7.33816,0.02704,2.6362\C,0,7.40521,-1.
 11938,3.29617\C,0,7.10487,-1.00577,4.81487\C,0,6.22139,0.33494,4.78563
 \C,0,6.79102,0.97551,3.52157\C,0,4.74063,0.07518,4.56381\C,0,8.40731,-
 0.81689,5.66925\C,0,8.22129,-1.00802,7.17611\H,0,9.30712,-1.61647,7.93
 982\N,0,7.66472,2.62498,1.08642\C,0,7.16717,3.12199,2.23825\C,0,7.1924
 2,4.5853,2.08912\C,0,7.59153,4.90762,0.69214\C,0,7.59117,3.58251,0.105
 49\C,0,6.93476,5.52423,3.23168\C,0,7.90723,6.19668,-0.00418\O,0,7.9987
 2,6.2676,-1.28067\C,0,8.0138,7.39176,0.84547\N,0,7.57585,0.94033,-1.43
 574\C,0,7.50841,2.16229,-1.99269\C,0,7.55558,2.07824,-3.49971\C,0,7.91
 378,0.55592,-3.83409\C,0,7.92437,-0.02203,-2.40187\C,0,6.27038,2.47025
 ,-4.22839\C,0,9.15,0.30665,-4.7409\C,0,10.41285,0.7096,-4.01411\N,0,8.
 09341,-1.40497,0.22831\C,0,8.09824,-2.05037,-1.02768\C,0,8.1449,-3.504
 27,-0.7699\C,0,8.14071,-3.60538,0.62947\C,0,8.07429,-2.30697,1.20325\C
 ,0,8.13582,-4.52562,-1.7613\C,0,8.16663,-4.51569,1.75168\O,0,8.30843,-
 5.73093,1.88136\C,0,7.8197,-3.7008,3.07153\C,0,8.82733,-4.07187,4.1248
 6\O,0,10.02682,-3.77499,3.98456\O,0,8.17964,-4.5192,5.21609\C,0,9.1362
 6,-4.8894,6.29295\H,0,6.05378,2.94255,4.02887\H,0,7.51883,4.11605,-1.9
 2831\H,0,8.16014,-2.03121,-3.03948\H,0,6.52558,-1.82389,5.22581\H,0,6.
 42163,0.95891,5.65277\H,0,4.54229,-0.96327,4.34379\H,0,4.45424,0.70035
 ,3.72824\H,0,4.16258,0.43358,5.4204\H,0,8.69878,0.24111,5.64863\H,0,9.
 1904,-1.46,5.31738\H,0,7.26578,-1.4903,7.41558\H,0,8.14938,-0.02342,7.
 64453\H,0,6.50553,4.99982,4.09433\H,0,6.14379,6.2102,2.90971\H,0,7.817
 27,6.10619,3.50586\H,0,7.07896,7.53853,1.38119\H,0,8.3321,8.19626,0.17
 963\H,0,8.78597,7.21505,1.60253\H,0,8.33322,2.718,-3.89856\H,0,7.09535
 ,0.05298,-4.36987\H,0,6.41579,3.28594,-4.96159\H,0,5.53104,2.7502,-3.4
 8978\H,0,5.7732,1.65863,-4.75686\H,0,9.09477,0.93051,-5.63639\H,0,9.24
 32,-0.72268,-5.07075\H,0,10.46083,1.78955,-4.18292\H,0,11.27761,0.2047
 4,-4.43996\H,0,10.31383,0.54884,-2.93429\H,0,8.87488,-5.25678,-1.46184
 \H,0,8.35118,-4.12301,-2.74888\H,0,7.10226,-4.87154,-1.67549\H,0,6.803
 79,-3.96865,3.36438\H,0,8.92317,-5.92736,6.56666\H,0,9.009,-4.12421,7.
 08164\H,0,10.18613,-4.95093,6.03134\\Version=ES64L-G16RevA.03\State=1-
 A\HF=-4069.8125878\RMSD=6.315e-09\PG=C01 [X(C68H72Mg2N8O8)]\\@


 I CLAIM NOT TO HAVE CONTROLLED EVENTS,
 BUT CONFESS PLAINLY THAT EVENTS HAVE CONTROLLED ME.

                                         A. LINCOLN
 Job cpu time:       0 days 14 hours 18 minutes 51.5 seconds.
 Elapsed time:       0 days  0 hours 36 minutes 25.8 seconds.
 File lengths (MBytes):  RWF=  13225 Int=      0 D2E=      0 Chk=    574 Scr=      1
 Normal termination of Gaussian 16 at Wed Sep  8 19:11:22 2021.
