 Entering Gaussian System, Link 0=g16
 Initial command:
 /sw/apps/gaussian-16.0/g16/l1.exe "/tmp/Gau-127104.inp" -scrdir="/tmp/"
 Entering Link 1 = /sw/apps/gaussian-16.0/g16/l1.exe PID=    127105.
  
 Copyright (c) 1988,1990,1992,1993,1995,1998,2003,2009,2016,
            Gaussian, Inc.  All Rights Reserved.
  
 This is part of the Gaussian(R) 16 program.  It is based on
 the Gaussian(R) 09 system (copyright 2009, Gaussian, Inc.),
 the Gaussian(R) 03 system (copyright 2003, Gaussian, Inc.),
 the Gaussian(R) 98 system (copyright 1998, Gaussian, Inc.),
 the Gaussian(R) 94 system (copyright 1995, Gaussian, Inc.),
 the Gaussian 92(TM) system (copyright 1992, Gaussian, Inc.),
 the Gaussian 90(TM) system (copyright 1990, Gaussian, Inc.),
 the Gaussian 88(TM) system (copyright 1988, Gaussian, Inc.),
 the Gaussian 86(TM) system (copyright 1986, Carnegie Mellon
 University), and the Gaussian 82(TM) system (copyright 1983,
 Carnegie Mellon University). Gaussian is a federally registered
 trademark of Gaussian, Inc.
  
 This software contains proprietary and confidential information,
 including trade secrets, belonging to Gaussian, Inc.
  
 This software is provided under written license and may be
 used, copied, transmitted, or stored only in accord with that
 written license.
  
 The following legend is applicable only to US Government
 contracts under FAR:
  
                    RESTRICTED RIGHTS LEGEND
  
 Use, reproduction and disclosure by the US Government is
 subject to restrictions as set forth in subparagraphs (a)
 and (c) of the Commercial Computer Software - Restricted
 Rights clause in FAR 52.227-19.
  
 Gaussian, Inc.
 340 Quinnipiac St., Bldg. 40, Wallingford CT 06492
  
  
 ---------------------------------------------------------------
 Warning -- This program may not be used in any manner that
 competes with the business of Gaussian, Inc. or will provide
 assistance to any competitor of Gaussian, Inc.  The licensee
 of this program is prohibited from giving any competitor of
 Gaussian, Inc. access to this program.  By using this program,
 the user acknowledges that Gaussian, Inc. is engaged in the
 business of creating and licensing software in the field of
 computational chemistry and represents and warrants to the
 licensee that it is not a competitor of Gaussian, Inc. and that
 it will not use this program in any manner prohibited above.
 ---------------------------------------------------------------
  

 Cite this work as:
 Gaussian 16, Revision A.03,
 M. J. Frisch, G. W. Trucks, H. B. Schlegel, G. E. Scuseria, 
 M. A. Robb, J. R. Cheeseman, G. Scalmani, V. Barone, 
 G. A. Petersson, H. Nakatsuji, X. Li, M. Caricato, A. V. Marenich, 
 J. Bloino, B. G. Janesko, R. Gomperts, B. Mennucci, H. P. Hratchian, 
 J. V. Ortiz, A. F. Izmaylov, J. L. Sonnenberg, D. Williams-Young, 
 F. Ding, F. Lipparini, F. Egidi, J. Goings, B. Peng, A. Petrone, 
 T. Henderson, D. Ranasinghe, V. G. Zakrzewski, J. Gao, N. Rega, 
 G. Zheng, W. Liang, M. Hada, M. Ehara, K. Toyota, R. Fukuda, 
 J. Hasegawa, M. Ishida, T. Nakajima, Y. Honda, O. Kitao, H. Nakai, 
 T. Vreven, K. Throssell, J. A. Montgomery, Jr., J. E. Peralta, 
 F. Ogliaro, M. J. Bearpark, J. J. Heyd, E. N. Brothers, K. N. Kudin, 
 V. N. Staroverov, T. A. Keith, R. Kobayashi, J. Normand, 
 K. Raghavachari, A. P. Rendell, J. C. Burant, S. S. Iyengar, 
 J. Tomasi, M. Cossi, J. M. Millam, M. Klene, C. Adamo, R. Cammi, 
 J. W. Ochterski, R. L. Martin, K. Morokuma, O. Farkas, 
 J. B. Foresman, and D. J. Fox, Gaussian, Inc., Wallingford CT, 2016.
 
 ******************************************
 Gaussian 16:  ES64L-G16RevA.03 25-Dec-2016
                10-Sep-2021 
 ******************************************
 %nproc=24
 Will use up to   24 processors via shared memory.
 %mem=175gb
 -----------------------------------
 #p cam-b3lyp/Def2SVP td=(nstates=5)
 -----------------------------------
 1/38=1,172=1/1;
 2/12=2,17=6,18=5,40=1/2;
 3/5=43,7=101,11=9,25=1,30=1,74=-40/1,2,3,8;
 4//1;
 5/5=2,38=5/2;
 8/6=1,10=1,108=5/1;
 9/41=5,42=1,70=2/14;
 6/7=2,8=2,9=2,10=2/1;
 99/5=1,9=1/99;
 Leave Link    1 at Fri Sep 10 11:15:43 2021, MaxMem= 23488102400 cpu:               0.6 elap:               0.0
 (Enter /sw/apps/gaussian-16.0/g16/l101.exe)
 --------------------------------
 TDDFT excited states in gaussian
 --------------------------------
 Symbolic Z-matrix:
 Charge =  0 Multiplicity = 1
 Mg                    0.        0.        0. 
 C                    -0.217    -2.218     2.801 
 C                    -1.255     2.442     2.026 
 C                    -0.245     1.85     -2.564 
 C                     0.146    -2.824    -2.037 
 N                    -0.617    -0.009     2.126 
 C                    -0.594    -0.908     3.105 
 C                    -0.936    -0.309     4.502 
 C                    -1.773     0.964     4.032 
 C                    -1.155     1.168     2.66 
 C                    -3.263     0.685     3.863 
 C                     0.345     0.11      5.299 
 C                     0.124     0.397     6.787 
 H                     1.168     0.033     7.733 
 N                    -0.185     1.961    -0.152 
 C                    -0.703     2.8       0.777 
 C                    -0.62      4.156     0.193 
 C                    -0.187     4.015    -1.225 
 C                    -0.214     2.583    -1.38 
 C                    -0.887     5.406     0.974 
 C                     0.181     5.013    -2.277 
 O                     0.303     4.69     -3.508 
 C                     0.31      6.414    -1.837 
 N                    -0.265    -0.413    -2.029 
 C                    -0.279     0.569    -2.937 
 C                    -0.196     0.024    -4.332 
 C                     0.124    -1.533    -4.18 
 C                     0.086    -1.632    -2.635 
 C                    -1.451     0.205    -5.197 
 C                     1.373    -2.07     -4.923 
 C                     2.626    -1.49     -4.306 
 N                     0.15     -2.144     0.303 
 C                     0.173    -3.136    -0.688 
 C                     0.173    -4.438     0.004 
 C                     0.133    -4.111     1.358 
 C                     0.083    -2.695     1.502 
 C                     0.149    -5.715    -0.623 
 C                     0.096    -4.629     2.716 
 O                     0.208    -5.747     3.221 
 C                    -0.255    -3.428     3.701 
 C                     0.717    -3.482     4.848 
 O                     1.931    -3.255     4.669 
 O                     0.038    -3.556     6.003 
 C                     0.943    -3.583     7.183 
 H                    -1.859     3.22      2.497 
 H                    -0.218     2.453    -3.474 
 H                     0.276    -3.747    -2.605 
 H                    -1.554    -0.949     5.132 
 H                    -1.585     1.831     4.665 
 H                    -3.484    -0.377     3.969 
 H                    -3.511     1.027     2.858 
 H                    -3.852     1.301     4.543 
 H                     0.669     1.096     4.966 
 H                     1.13     -0.639     5.189 
 H                    -0.844     0.026     7.125 
 H                     0.062     1.477     6.921 
 H                    -1.344     5.186     1.938 
 H                    -1.651     5.963     0.432 
 H                     0.007     6.02      1.084 
 H                    -0.635     6.744    -1.405 
 H                     0.665     6.97     -2.704 
 H                     1.048     6.466    -1.036 
 H                     0.608     0.501    -4.891 
 H                    -0.692    -2.156    -4.547 
 H                    -1.267     0.74     -6.129 
 H                    -2.204     0.714    -4.596 
 H                    -1.967    -0.72     -5.453 
 H                     1.356    -1.759    -5.967 
 H                     1.452    -3.157    -4.902 
 H                     2.714    -0.522    -4.798 
 H                     3.487    -2.121    -4.529 
 H                     2.495    -1.303    -3.24 
 H                     0.867    -6.333    -0.084 
 H                     0.404    -5.642    -1.68 
 H                    -0.891    -5.999    -0.463 
 H                    -1.283    -3.581     4.028 
 H                     0.698    -4.478     7.755 
 H                     0.833    -2.619     7.68 
 H                     2.       -3.754     6.976 
 Mg                    10.51591   0.95276   0.80512 
 C                     10.91684  -1.18645   3.65856 
 C                     8.73402   3.05301   2.81719 
 C                     9.7631    2.63053  -1.78057 
 C                     11.31044  -1.79191  -1.19017 
 N                     9.96494   0.83905   2.94422 
 C                     10.22549   0.00952   3.94339 
 C                     9.78677   0.5266    5.33971 
 C                     8.63916   1.54645   4.86878 
 C                     9.15611   1.86604   3.46761 
 C                     7.27249   0.89521   4.73665 
 C                     10.94451   1.27221   6.09185 
 C                     10.68397   1.53164   7.5773 
 H                     11.81091   1.4651    8.50361 
 N                     9.84439   2.81217   0.63121 
 C                     9.1602    3.51993   1.55438 
 C                     8.87981   4.82434   0.93468 
 C                     9.31045   4.76966  -0.4888 
 C                     9.64418   3.36461  -0.60945 
 C                     8.33406   5.99102   1.70569 
 C                     9.39431   5.80723  -1.56704 
 O                     9.57042   5.48852  -2.79596 
 C                     9.17097   7.20066  -1.15479 
 N                     10.32522   0.4418   -1.20109 
 C                     10.03966   1.37341  -2.12764 
 C                     10.22472   0.82876  -3.52389 
 C                     10.92978  -0.59482  -3.33979 
 C                     10.95029  -0.66946  -1.79726 
 C                     8.94786   0.66131  -4.34728 
 C                     12.25934  -0.82638  -4.10876 
 C                     13.34244   0.0665   -3.54745 
 N                     11.20317  -1.06777   1.14151 
 C                     11.44847  -2.05884   0.16596 
 C                     11.78807  -3.30351   0.88562 
 C                     11.69356  -2.95341   2.24098 
 C                     11.30168  -1.59243   2.35785 
 C                     12.08001  -4.55962   0.28306 
 C                     11.82587  -3.42859   3.59943 
 O                     12.21663  -4.47243   4.12042 
 C                     11.20589  -2.34036   4.5781 
 C                     12.18209  -2.11472   5.69999 
 O                     13.29612  -1.60919   5.47637 
 O                     11.56122  -2.32944   6.8742 
 C                     12.48572  -2.10731   8.01778 
 H                     7.97206   3.666     3.29942 
 H                     9.62148   3.19325  -2.70619 
 H                     11.66602  -2.66533  -1.74097 
 H                     9.36736  -0.22925   5.99283 
 H                     8.62924   2.44177   5.48495 
 H                     7.32209  -0.17555   4.86761 
 H                     6.92552   1.13893   3.74104 
 H                     6.5637    1.36319   5.42581 
 H                     11.00061   2.30609   5.72757 
 H                     11.87395   0.74987   5.97383 
 H                     9.83952   0.9434    7.95655 
 H                     10.36316   2.56928   7.6973 
 H                     7.96077   5.6833    2.69025 
 H                     7.44174   6.33712   1.17291 
 H                     9.04465   6.81708   1.77879 
 H                     8.18663   7.28978  -0.70139 
 H                     9.35987   7.80283  -2.04563 
 H                     9.89977   7.45668  -0.37767 
 H                     10.87478   1.4702   -4.10619 
 H                     10.28541  -1.41642  -3.68562 
 H                     8.97152   1.21247  -5.30631 
 H                     8.10859   0.98245  -3.74475 
 H                     8.68232  -0.3677   -4.58353 
 H                     12.14236  -0.5495   -5.15938 
 H                     12.59943  -1.85627  -4.08308 
 H                     13.16877   1.01731  -4.06018 
 H                     14.32733  -0.33331  -3.7802 
 H                     13.19424   0.23843  -2.47501 
 H                     12.93341  -4.96643   0.8091 
 H                     12.28161  -4.45297  -0.78078 
 H                     11.14243  -5.08922   0.4721 
 H                     10.25196  -2.72838   4.93731 
 H                     12.48123  -3.02435   8.61503 
 H                     12.13287  -1.18262   8.51193 
 H                     13.54152  -2.00448   7.79607 
 
 ITRead=  0  0  0  0  0  0  0  0  0  0  0  0  0  0  0  0  0  0  0  0
 ITRead=  0  0  0  0  0  0  0  0  0  0  0  0  0  0  0  0  0  0  0  0
 ITRead=  0  0  0  0  0  0  0  0  0  0  0  0  0  0  0  0  0  0  0  0
 ITRead=  0  0  0  0  0  0  0  0  0  0  0  0  0  0  0  0  0  0  0  0
 ITRead=  0  0  0  0  0  0  0  0  0  0  0  0  0  0  0  0  0  0  0  0
 ITRead=  0  0  0  0  0  0  0  0  0  0  0  0  0  0  0  0  0  0  0  0
 ITRead=  0  0  0  0  0  0  0  0  0  0  0  0  0  0  0  0  0  0  0  0
 ITRead=  0  0  0  0  0  0  0  0  0  0  0  0  0  0  0  0  0  0
 MicOpt= -1 -1 -1 -1 -1 -1 -1 -1 -1 -1 -1 -1 -1 -1 -1 -1 -1 -1 -1 -1
 MicOpt= -1 -1 -1 -1 -1 -1 -1 -1 -1 -1 -1 -1 -1 -1 -1 -1 -1 -1 -1 -1
 MicOpt= -1 -1 -1 -1 -1 -1 -1 -1 -1 -1 -1 -1 -1 -1 -1 -1 -1 -1 -1 -1
 MicOpt= -1 -1 -1 -1 -1 -1 -1 -1 -1 -1 -1 -1 -1 -1 -1 -1 -1 -1 -1 -1
 MicOpt= -1 -1 -1 -1 -1 -1 -1 -1 -1 -1 -1 -1 -1 -1 -1 -1 -1 -1 -1 -1
 MicOpt= -1 -1 -1 -1 -1 -1 -1 -1 -1 -1 -1 -1 -1 -1 -1 -1 -1 -1 -1 -1
 MicOpt= -1 -1 -1 -1 -1 -1 -1 -1 -1 -1 -1 -1 -1 -1 -1 -1 -1 -1 -1 -1
 MicOpt= -1 -1 -1 -1 -1 -1 -1 -1 -1 -1 -1 -1 -1 -1 -1 -1 -1 -1
 NAtoms=    158 NQM=      158 NQMF=       0 NMMI=      0 NMMIF=      0
                NMic=       0 NMicF=      0.
                    Isotopes and Nuclear Properties:
 (Nuclear quadrupole moments (NQMom) in fm**2, nuclear magnetic moments (NMagM)
  in nuclear magnetons)

  Atom         1           2           3           4           5           6           7           8           9          10
 IAtWgt=          24          12          12          12          12          14          12          12          12          12
 AtmWgt=  23.9850450  12.0000000  12.0000000  12.0000000  12.0000000  14.0030740  12.0000000  12.0000000  12.0000000  12.0000000
 NucSpn=           0           0           0           0           0           2           0           0           0           0
 AtZEff=  -0.0000000  -0.0000000  -0.0000000  -0.0000000  -0.0000000  -0.0000000  -0.0000000  -0.0000000  -0.0000000  -0.0000000
 NQMom=    0.0000000   0.0000000   0.0000000   0.0000000   0.0000000   2.0440000   0.0000000   0.0000000   0.0000000   0.0000000
 NMagM=    0.0000000   0.0000000   0.0000000   0.0000000   0.0000000   0.4037610   0.0000000   0.0000000   0.0000000   0.0000000
 AtZNuc=  12.0000000   6.0000000   6.0000000   6.0000000   6.0000000   7.0000000   6.0000000   6.0000000   6.0000000   6.0000000

  Atom        11          12          13          14          15          16          17          18          19          20
 IAtWgt=          12          12          12           1          14          12          12          12          12          12
 AtmWgt=  12.0000000  12.0000000  12.0000000   1.0078250  14.0030740  12.0000000  12.0000000  12.0000000  12.0000000  12.0000000
 NucSpn=           0           0           0           1           2           0           0           0           0           0
 AtZEff=  -0.0000000  -0.0000000  -0.0000000  -0.0000000  -0.0000000  -0.0000000  -0.0000000  -0.0000000  -0.0000000  -0.0000000
 NQMom=    0.0000000   0.0000000   0.0000000   0.0000000   2.0440000   0.0000000   0.0000000   0.0000000   0.0000000   0.0000000
 NMagM=    0.0000000   0.0000000   0.0000000   2.7928460   0.4037610   0.0000000   0.0000000   0.0000000   0.0000000   0.0000000
 AtZNuc=   6.0000000   6.0000000   6.0000000   1.0000000   7.0000000   6.0000000   6.0000000   6.0000000   6.0000000   6.0000000

  Atom        21          22          23          24          25          26          27          28          29          30
 IAtWgt=          12          16          12          14          12          12          12          12          12          12
 AtmWgt=  12.0000000  15.9949146  12.0000000  14.0030740  12.0000000  12.0000000  12.0000000  12.0000000  12.0000000  12.0000000
 NucSpn=           0           0           0           2           0           0           0           0           0           0
 AtZEff=  -0.0000000  -0.0000000  -0.0000000  -0.0000000  -0.0000000  -0.0000000  -0.0000000  -0.0000000  -0.0000000  -0.0000000
 NQMom=    0.0000000   0.0000000   0.0000000   2.0440000   0.0000000   0.0000000   0.0000000   0.0000000   0.0000000   0.0000000
 NMagM=    0.0000000   0.0000000   0.0000000   0.4037610   0.0000000   0.0000000   0.0000000   0.0000000   0.0000000   0.0000000
 AtZNuc=   6.0000000   8.0000000   6.0000000   7.0000000   6.0000000   6.0000000   6.0000000   6.0000000   6.0000000   6.0000000

  Atom        31          32          33          34          35          36          37          38          39          40
 IAtWgt=          12          14          12          12          12          12          12          12          16          12
 AtmWgt=  12.0000000  14.0030740  12.0000000  12.0000000  12.0000000  12.0000000  12.0000000  12.0000000  15.9949146  12.0000000
 NucSpn=           0           2           0           0           0           0           0           0           0           0
 AtZEff=  -0.0000000  -0.0000000  -0.0000000  -0.0000000  -0.0000000  -0.0000000  -0.0000000  -0.0000000  -0.0000000  -0.0000000
 NQMom=    0.0000000   2.0440000   0.0000000   0.0000000   0.0000000   0.0000000   0.0000000   0.0000000   0.0000000   0.0000000
 NMagM=    0.0000000   0.4037610   0.0000000   0.0000000   0.0000000   0.0000000   0.0000000   0.0000000   0.0000000   0.0000000
 AtZNuc=   6.0000000   7.0000000   6.0000000   6.0000000   6.0000000   6.0000000   6.0000000   6.0000000   8.0000000   6.0000000

  Atom        41          42          43          44          45          46          47          48          49          50
 IAtWgt=          12          16          16          12           1           1           1           1           1           1
 AtmWgt=  12.0000000  15.9949146  15.9949146  12.0000000   1.0078250   1.0078250   1.0078250   1.0078250   1.0078250   1.0078250
 NucSpn=           0           0           0           0           1           1           1           1           1           1
 AtZEff=  -0.0000000  -0.0000000  -0.0000000  -0.0000000  -0.0000000  -0.0000000  -0.0000000  -0.0000000  -0.0000000  -0.0000000
 NQMom=    0.0000000   0.0000000   0.0000000   0.0000000   0.0000000   0.0000000   0.0000000   0.0000000   0.0000000   0.0000000
 NMagM=    0.0000000   0.0000000   0.0000000   0.0000000   2.7928460   2.7928460   2.7928460   2.7928460   2.7928460   2.7928460
 AtZNuc=   6.0000000   8.0000000   8.0000000   6.0000000   1.0000000   1.0000000   1.0000000   1.0000000   1.0000000   1.0000000

  Atom        51          52          53          54          55          56          57          58          59          60
 IAtWgt=           1           1           1           1           1           1           1           1           1           1
 AtmWgt=   1.0078250   1.0078250   1.0078250   1.0078250   1.0078250   1.0078250   1.0078250   1.0078250   1.0078250   1.0078250
 NucSpn=           1           1           1           1           1           1           1           1           1           1
 AtZEff=  -0.0000000  -0.0000000  -0.0000000  -0.0000000  -0.0000000  -0.0000000  -0.0000000  -0.0000000  -0.0000000  -0.0000000
 NQMom=    0.0000000   0.0000000   0.0000000   0.0000000   0.0000000   0.0000000   0.0000000   0.0000000   0.0000000   0.0000000
 NMagM=    2.7928460   2.7928460   2.7928460   2.7928460   2.7928460   2.7928460   2.7928460   2.7928460   2.7928460   2.7928460
 AtZNuc=   1.0000000   1.0000000   1.0000000   1.0000000   1.0000000   1.0000000   1.0000000   1.0000000   1.0000000   1.0000000

  Atom        61          62          63          64          65          66          67          68          69          70
 IAtWgt=           1           1           1           1           1           1           1           1           1           1
 AtmWgt=   1.0078250   1.0078250   1.0078250   1.0078250   1.0078250   1.0078250   1.0078250   1.0078250   1.0078250   1.0078250
 NucSpn=           1           1           1           1           1           1           1           1           1           1
 AtZEff=  -0.0000000  -0.0000000  -0.0000000  -0.0000000  -0.0000000  -0.0000000  -0.0000000  -0.0000000  -0.0000000  -0.0000000
 NQMom=    0.0000000   0.0000000   0.0000000   0.0000000   0.0000000   0.0000000   0.0000000   0.0000000   0.0000000   0.0000000
 NMagM=    2.7928460   2.7928460   2.7928460   2.7928460   2.7928460   2.7928460   2.7928460   2.7928460   2.7928460   2.7928460
 AtZNuc=   1.0000000   1.0000000   1.0000000   1.0000000   1.0000000   1.0000000   1.0000000   1.0000000   1.0000000   1.0000000

  Atom        71          72          73          74          75          76          77          78          79          80
 IAtWgt=           1           1           1           1           1           1           1           1           1          24
 AtmWgt=   1.0078250   1.0078250   1.0078250   1.0078250   1.0078250   1.0078250   1.0078250   1.0078250   1.0078250  23.9850450
 NucSpn=           1           1           1           1           1           1           1           1           1           0
 AtZEff=  -0.0000000  -0.0000000  -0.0000000  -0.0000000  -0.0000000  -0.0000000  -0.0000000  -0.0000000  -0.0000000  -0.0000000
 NQMom=    0.0000000   0.0000000   0.0000000   0.0000000   0.0000000   0.0000000   0.0000000   0.0000000   0.0000000   0.0000000
 NMagM=    2.7928460   2.7928460   2.7928460   2.7928460   2.7928460   2.7928460   2.7928460   2.7928460   2.7928460   0.0000000
 AtZNuc=   1.0000000   1.0000000   1.0000000   1.0000000   1.0000000   1.0000000   1.0000000   1.0000000   1.0000000  12.0000000

  Atom        81          82          83          84          85          86          87          88          89          90
 IAtWgt=          12          12          12          12          14          12          12          12          12          12
 AtmWgt=  12.0000000  12.0000000  12.0000000  12.0000000  14.0030740  12.0000000  12.0000000  12.0000000  12.0000000  12.0000000
 NucSpn=           0           0           0           0           2           0           0           0           0           0
 AtZEff=  -0.0000000  -0.0000000  -0.0000000  -0.0000000  -0.0000000  -0.0000000  -0.0000000  -0.0000000  -0.0000000  -0.0000000
 NQMom=    0.0000000   0.0000000   0.0000000   0.0000000   2.0440000   0.0000000   0.0000000   0.0000000   0.0000000   0.0000000
 NMagM=    0.0000000   0.0000000   0.0000000   0.0000000   0.4037610   0.0000000   0.0000000   0.0000000   0.0000000   0.0000000
 AtZNuc=   6.0000000   6.0000000   6.0000000   6.0000000   7.0000000   6.0000000   6.0000000   6.0000000   6.0000000   6.0000000

  Atom        91          92          93          94          95          96          97          98          99         100
 IAtWgt=          12          12           1          14          12          12          12          12          12          12
 AtmWgt=  12.0000000  12.0000000   1.0078250  14.0030740  12.0000000  12.0000000  12.0000000  12.0000000  12.0000000  12.0000000
 NucSpn=           0           0           1           2           0           0           0           0           0           0
 AtZEff=  -0.0000000  -0.0000000  -0.0000000  -0.0000000  -0.0000000  -0.0000000  -0.0000000  -0.0000000  -0.0000000  -0.0000000
 NQMom=    0.0000000   0.0000000   0.0000000   2.0440000   0.0000000   0.0000000   0.0000000   0.0000000   0.0000000   0.0000000
 NMagM=    0.0000000   0.0000000   2.7928460   0.4037610   0.0000000   0.0000000   0.0000000   0.0000000   0.0000000   0.0000000
 AtZNuc=   6.0000000   6.0000000   1.0000000   7.0000000   6.0000000   6.0000000   6.0000000   6.0000000   6.0000000   6.0000000

  Atom       101         102         103         104         105         106         107         108         109         110
 IAtWgt=          16          12          14          12          12          12          12          12          12          12
 AtmWgt=  15.9949146  12.0000000  14.0030740  12.0000000  12.0000000  12.0000000  12.0000000  12.0000000  12.0000000  12.0000000
 NucSpn=           0           0           2           0           0           0           0           0           0           0
 AtZEff=  -0.0000000  -0.0000000  -0.0000000  -0.0000000  -0.0000000  -0.0000000  -0.0000000  -0.0000000  -0.0000000  -0.0000000
 NQMom=    0.0000000   0.0000000   2.0440000   0.0000000   0.0000000   0.0000000   0.0000000   0.0000000   0.0000000   0.0000000
 NMagM=    0.0000000   0.0000000   0.4037610   0.0000000   0.0000000   0.0000000   0.0000000   0.0000000   0.0000000   0.0000000
 AtZNuc=   8.0000000   6.0000000   7.0000000   6.0000000   6.0000000   6.0000000   6.0000000   6.0000000   6.0000000   6.0000000

  Atom       111         112         113         114         115         116         117         118         119         120
 IAtWgt=          14          12          12          12          12          12          12          16          12          12
 AtmWgt=  14.0030740  12.0000000  12.0000000  12.0000000  12.0000000  12.0000000  12.0000000  15.9949146  12.0000000  12.0000000
 NucSpn=           2           0           0           0           0           0           0           0           0           0
 AtZEff=  -0.0000000  -0.0000000  -0.0000000  -0.0000000  -0.0000000  -0.0000000  -0.0000000  -0.0000000  -0.0000000  -0.0000000
 NQMom=    2.0440000   0.0000000   0.0000000   0.0000000   0.0000000   0.0000000   0.0000000   0.0000000   0.0000000   0.0000000
 NMagM=    0.4037610   0.0000000   0.0000000   0.0000000   0.0000000   0.0000000   0.0000000   0.0000000   0.0000000   0.0000000
 AtZNuc=   7.0000000   6.0000000   6.0000000   6.0000000   6.0000000   6.0000000   6.0000000   8.0000000   6.0000000   6.0000000

  Atom       121         122         123         124         125         126         127         128         129         130
 IAtWgt=          16          16          12           1           1           1           1           1           1           1
 AtmWgt=  15.9949146  15.9949146  12.0000000   1.0078250   1.0078250   1.0078250   1.0078250   1.0078250   1.0078250   1.0078250
 NucSpn=           0           0           0           1           1           1           1           1           1           1
 AtZEff=  -0.0000000  -0.0000000  -0.0000000  -0.0000000  -0.0000000  -0.0000000  -0.0000000  -0.0000000  -0.0000000  -0.0000000
 NQMom=    0.0000000   0.0000000   0.0000000   0.0000000   0.0000000   0.0000000   0.0000000   0.0000000   0.0000000   0.0000000
 NMagM=    0.0000000   0.0000000   0.0000000   2.7928460   2.7928460   2.7928460   2.7928460   2.7928460   2.7928460   2.7928460
 AtZNuc=   8.0000000   8.0000000   6.0000000   1.0000000   1.0000000   1.0000000   1.0000000   1.0000000   1.0000000   1.0000000

  Atom       131         132         133         134         135         136         137         138         139         140
 IAtWgt=           1           1           1           1           1           1           1           1           1           1
 AtmWgt=   1.0078250   1.0078250   1.0078250   1.0078250   1.0078250   1.0078250   1.0078250   1.0078250   1.0078250   1.0078250
 NucSpn=           1           1           1           1           1           1           1           1           1           1
 AtZEff=  -0.0000000  -0.0000000  -0.0000000  -0.0000000  -0.0000000  -0.0000000  -0.0000000  -0.0000000  -0.0000000  -0.0000000
 NQMom=    0.0000000   0.0000000   0.0000000   0.0000000   0.0000000   0.0000000   0.0000000   0.0000000   0.0000000   0.0000000
 NMagM=    2.7928460   2.7928460   2.7928460   2.7928460   2.7928460   2.7928460   2.7928460   2.7928460   2.7928460   2.7928460
 AtZNuc=   1.0000000   1.0000000   1.0000000   1.0000000   1.0000000   1.0000000   1.0000000   1.0000000   1.0000000   1.0000000

  Atom       141         142         143         144         145         146         147         148         149         150
 IAtWgt=           1           1           1           1           1           1           1           1           1           1
 AtmWgt=   1.0078250   1.0078250   1.0078250   1.0078250   1.0078250   1.0078250   1.0078250   1.0078250   1.0078250   1.0078250
 NucSpn=           1           1           1           1           1           1           1           1           1           1
 AtZEff=  -0.0000000  -0.0000000  -0.0000000  -0.0000000  -0.0000000  -0.0000000  -0.0000000  -0.0000000  -0.0000000  -0.0000000
 NQMom=    0.0000000   0.0000000   0.0000000   0.0000000   0.0000000   0.0000000   0.0000000   0.0000000   0.0000000   0.0000000
 NMagM=    2.7928460   2.7928460   2.7928460   2.7928460   2.7928460   2.7928460   2.7928460   2.7928460   2.7928460   2.7928460
 AtZNuc=   1.0000000   1.0000000   1.0000000   1.0000000   1.0000000   1.0000000   1.0000000   1.0000000   1.0000000   1.0000000

  Atom       151         152         153         154         155         156         157         158
 IAtWgt=           1           1           1           1           1           1           1           1
 AtmWgt=   1.0078250   1.0078250   1.0078250   1.0078250   1.0078250   1.0078250   1.0078250   1.0078250
 NucSpn=           1           1           1           1           1           1           1           1
 AtZEff=  -0.0000000  -0.0000000  -0.0000000  -0.0000000  -0.0000000  -0.0000000  -0.0000000  -0.0000000
 NQMom=    0.0000000   0.0000000   0.0000000   0.0000000   0.0000000   0.0000000   0.0000000   0.0000000
 NMagM=    2.7928460   2.7928460   2.7928460   2.7928460   2.7928460   2.7928460   2.7928460   2.7928460
 AtZNuc=   1.0000000   1.0000000   1.0000000   1.0000000   1.0000000   1.0000000   1.0000000   1.0000000
 Leave Link  101 at Fri Sep 10 11:15:43 2021, MaxMem= 23488102400 cpu:               3.3 elap:               0.2
 (Enter /sw/apps/gaussian-16.0/g16/l202.exe)
 Stoichiometry    C68H72Mg2N8O8
 Framework group  C1[X(C68H72Mg2N8O8)]
 Deg. of freedom   468
 Full point group                 C1      NOp   1
 Largest Abelian subgroup         C1      NOp   1
 Largest concise Abelian subgroup C1      NOp   1
                         Standard orientation:                         
 ---------------------------------------------------------------------
 Center     Atomic      Atomic             Coordinates (Angstroms)
 Number     Number       Type             X           Y           Z
 ---------------------------------------------------------------------
      1         12           0       -5.305347   -0.368655    0.268815
      2          6           0       -5.211605    3.189071    0.650929
      3          6           0       -6.282993    0.152924   -2.958448
      4          6           0       -5.833601   -3.487133    0.039334
      5          6           0       -5.434264   -0.590616    3.744412
      6          7           0       -5.664741    1.482421   -0.890926
      7          6           0       -5.535208    2.782473   -0.645452
      8          6           0       -5.701708    3.670470   -1.914748
      9          6           0       -6.574624    2.676441   -2.804648
     10          6           0       -6.122257    1.355380   -2.207919
     11          6           0       -8.077137    2.824502   -2.587772
     12          6           0       -4.330333    3.995725   -2.596855
     13          6           0       -4.369307    5.114997   -3.641395
     14          1           0       -3.224129    6.005265   -3.756887
     15          7           0       -5.485461   -1.523805   -1.323679
     16          6           0       -5.879798   -1.140501   -2.561767
     17          6           0       -5.851987   -2.361986   -3.394762
     18          6           0       -5.592583   -3.520327   -2.495290
     19          6           0       -5.653674   -2.885065   -1.203745
     20          6           0       -6.010218   -2.345967   -4.884211
     21          6           0       -5.341527   -4.971647   -2.757538
     22          8           0       -5.370622   -5.846232   -1.825429
     23          6           0       -5.145558   -5.360431   -4.165901
     24          7           0       -5.814723   -1.829544    1.670234
     25          6           0       -5.925945   -3.114974    1.317699
     26          6           0       -6.015750   -4.005467    2.521400
     27          6           0       -5.697142   -3.078407    3.781877
     28          6           0       -5.551905   -1.722906    3.047170
     29          6           0       -7.362785   -4.710076    2.733617
     30          6           0       -4.551561   -3.535651    4.719422
     31          6           0       -3.227649   -3.444881    3.994083
     32          7           0       -5.144013    1.014300    1.933883
     33          6           0       -5.250197    0.707398    3.298145
     34          6           0       -5.182142    1.983041    4.034467
     35          6           0       -5.056939    2.951134    3.040000
     36          6           0       -5.073781    2.322460    1.762199
     37          6           0       -5.294773    2.138538    5.444279
     38          6           0       -4.937615    4.372559    2.758629
     39          8           0       -4.778610    5.382280    3.446142
     40          6           0       -5.155481    4.594202    1.196824
     41          6           0       -4.054416    5.495141    0.707668
     42          8           0       -2.867953    5.108377    0.698440
     43          8           0       -4.591760    6.570257    0.111070
     44          6           0       -3.552984    7.490920   -0.423231
     45          1           0       -6.817949    0.191781   -3.909371
     46          1           0       -5.908543   -4.576192    0.011526
     47          1           0       -5.383062   -0.588759    4.834746
     48          1           0       -6.247287    4.599928   -1.750807
     49          1           0       -6.302986    2.728880   -3.858775
     50          1           0       -8.295654    3.500503   -1.761216
     51          1           0       -8.439304    1.820750   -2.364592
     52          1           0       -8.574091    3.123997   -3.510874
     53          1           0       -4.037438    3.159562   -3.231760
     54          1           0       -3.572350    4.227779   -1.847896
     55          1           0       -5.294186    5.688826   -3.576369
     56          1           0       -4.402967    4.658090   -4.630487
     57          1           0       -6.351523   -1.374744   -5.240275
     58          1           0       -6.827145   -3.025955   -5.124948
     59          1           0       -5.102751   -2.665541   -5.396763
     60          1           0       -6.028659   -5.083269   -4.741975
     61          1           0       -4.890252   -6.419438   -4.152775
     62          1           0       -4.316860   -4.784691   -4.579100
     63          1           0       -5.278850   -4.806034    2.471430
     64          1           0       -6.557885   -2.977549    4.443408
     65          1           0       -7.285226   -5.796310    2.786386
     66          1           0       -8.033155   -4.404420    1.930828
     67          1           0       -7.915795   -4.383453    3.613909
     68          1           0       -4.689376   -4.577616    5.006233
     69          1           0       -4.482635   -2.946294    5.633839
     70          1           0       -3.188200   -4.382738    3.441181
     71          1           0       -2.406371   -3.377939    4.708388
     72          1           0       -3.228649   -2.635718    3.263508
     73          1           0       -4.524546    2.852875    5.734867
     74          1           0       -5.166720    1.186626    5.959128
     75          1           0       -6.311379    2.523172    5.524430
     76          1           0       -6.138832    5.048319    1.078833
     77          1           0       -3.737969    8.472060    0.014240
     78          1           0       -3.592335    7.405617   -1.509315
     79          1           0       -2.530125    7.307595   -0.092335
     80         12           0        5.241469   -1.198015   -0.197209
     81          6           0        5.955820    2.303140    0.135516
     82          6           0        3.735282   -0.456012   -3.166290
     83          6           0        4.204565   -4.194733   -0.306460
     84          6           0        5.762268   -1.488764    3.236434
     85          7           0        4.948034    0.713600   -1.270463
     86          6           0        5.316581    1.971035   -1.077133
     87          6           0        5.053070    2.911297   -2.283792
     88          6           0        3.868868    2.080874   -2.981603
     89          6           0        4.218712    0.683290   -2.474631
     90          6           0        2.489079    2.446571   -2.460251
     91          6           0        6.300335    3.036504   -3.227542
     92          6           0        6.221496    4.172078   -4.250285
     93          1           0        7.449958    4.879413   -4.601039
     94          7           0        4.574596   -2.271252   -1.727579
     95          6           0        4.013119   -1.807137   -2.863635
     96          6           0        3.675328   -2.996641   -3.660573
     97          6           0        3.932689   -4.205361   -2.831418
     98          6           0        4.234126   -3.589833   -1.554563
     99          6           0        3.238238   -2.918153   -5.094530
    100          6           0        3.898957   -5.672845   -3.133970
    101          8           0        3.923879   -6.553106   -2.202652
    102          6           0        3.741728   -6.047468   -4.546916
    103          7           0        4.807501   -2.594600    1.280472
    104          6           0        4.423903   -3.842989    0.960607
    105          6           0        4.435280   -4.744412    2.172099
    106          6           0        5.141480   -3.898021    3.330756
    107          6           0        5.344782   -2.563134    2.580999
    108          6           0        3.067650   -5.226286    2.655594
    109          6           0        6.367324   -4.547504    4.029429
    110          6           0        7.519378   -4.654144    3.056388
    111          7           0        5.941545    0.096204    1.384852
    112          6           0        6.057915   -0.219315    2.756346
    113          6           0        6.467059    1.016787    3.454268
    114          6           0        6.538562    1.978892    2.435570
    115          6           0        6.178455    1.389191    1.193769
    116          6           0        6.671241    1.151700    4.856490
    117          6           0        6.826506    3.361800    2.130050
    118          8           0        7.264993    4.318978    2.766656
    119          6           0        6.339591    3.663754    0.647433
    120          6           0        7.444925    4.394175   -0.064775
    121          8           0        8.529897    3.830973   -0.293395
    122          8           0        6.966027    5.554906   -0.548216
    123          6           0        8.022577    6.310345   -1.272668
    124          1           0        3.043016   -0.304786   -3.995014
    125          1           0        3.959909   -5.259450   -0.304209
    126          1           0        6.040027   -1.520286    4.292150
    127          1           0        4.706129    3.903066   -2.019582
    128          1           0        3.942315    2.122867   -4.065210
    129          1           0        2.542095    3.122528   -1.619770
    130          1           0        2.028685    1.512481   -2.166071
    131          1           0        1.872651    2.844016   -3.271660
    132          1           0        6.324056    2.173968   -3.905941
    133          1           0        7.203268    3.127322   -2.655625
    134          1           0        5.421793    4.884614   -4.014231
    135          1           0        5.928749    3.750549   -5.214976
    136          1           0        2.981522   -1.890851   -5.381135
    137          1           0        2.292681   -3.465825   -5.171021
    138          1           0        3.961559   -3.364331   -5.780380
    139          1           0        2.819457   -5.620224   -4.933333
    140          1           0        3.829797   -7.135349   -4.572356
    141          1           0        4.560701   -5.599645   -5.120806
    142          1           0        5.018387   -5.637572    1.984089
    143          1           0        4.451463   -3.689838    4.161643
    144          1           0        2.982979   -6.328633    2.697293
    145          1           0        2.309737   -4.811051    2.004676
    146          1           0        2.764505   -4.851421    3.631692
    147          1           0        6.129081   -5.567361    4.341330
    148          1           0        6.696652   -4.009438    4.912051
    149          1           0        7.296377   -5.575422    2.509936
    150          1           0        8.465048   -4.730353    3.589237
    151          1           0        7.501903   -3.829901    2.333914
    152          1           0        7.576685    1.729749    4.985077
    153          1           0        6.745835    0.181178    5.342592
    154          1           0        5.757066    1.681893    5.136574
    155          1           0        5.431020    4.263150    0.716686
    156          1           0        8.079139    7.301619   -0.812378
    157          1           0        7.741346    6.266654   -2.341658
    158          1           0        9.045516    5.968856   -1.165793
 ---------------------------------------------------------------------
 Rotational constants (GHZ):           0.0207854           0.0114843           0.0099116
 Leave Link  202 at Fri Sep 10 11:15:44 2021, MaxMem= 23488102400 cpu:               0.2 elap:               0.0
 (Enter /sw/apps/gaussian-16.0/g16/l301.exe)
 Standard basis: def2SVP (5D, 7F)
 Ernie: Thresh=  0.10000D-02 Tol=  0.10000D-05 Strict=F.
 There are  1658 symmetry adapted cartesian basis functions of A   symmetry.
 There are  1572 symmetry adapted basis functions of A   symmetry.
  1572 basis functions,  2678 primitive gaussians,  1658 cartesian basis functions
   312 alpha electrons      312 beta electrons
       nuclear repulsion energy     14938.8910574416 Hartrees.
 IExCor=20419 DFT=T Ex+Corr=CAM-B3LYP ExCW=0 ScaHFX=  1.000000
 ScaDFX=  1.000000  1.000000  1.000000  0.810000 ScalE2=  1.000000  1.000000
 IRadAn=      5 IRanWt=     -1 IRanGd=            0 ICorTp=0 IEmpDi=  4
 HFx  wShort=  0.000000 wLong=  0.330000 cFull=  0.190000 cShort=  0.000000 cLong=  0.460000
 DFx  wShort=  0.000000 wLong=  0.330000 cFull=  0.190000 cShort=  0.000000 cLong=  0.460000
 NAtoms=  158 NActive=  158 NUniq=  158 SFac= 1.00D+00 NAtFMM=   60 NAOKFM=T Big=T
 Integral buffers will be    131072 words long.
 Raffenetti 1 integral format.
 Two-electron integral symmetry is turned on.
 Leave Link  301 at Fri Sep 10 11:15:44 2021, MaxMem= 23488102400 cpu:               1.4 elap:               0.1
 (Enter /sw/apps/gaussian-16.0/g16/l302.exe)
 NPDir=0 NMtPBC=     1 NCelOv=     1 NCel=       1 NClECP=     1 NCelD=      1
         NCelK=      1 NCelE2=     1 NClLst=     1 CellRange=     0.0.
 One-electron integrals computed using PRISM.
 One-electron integral symmetry used in STVInt
   1 Symmetry operations used in ECPInt.
 ECPInt:  NShTT=  271216 NPrTT=  987664 LenC2=  137556 LenP2D=  288214.
 LDataN:  DoStor=T MaxTD1= 4 Len=   56
 NBasis=  1572 RedAO= T EigKep=  3.36D-04  NBF=  1572
 NBsUse=  1572 1.00D-06 EigRej= -1.00D+00 NBFU=  1572
 Precomputing XC quadrature grid using
 IXCGrd= 4 IRadAn=           5 IRanWt=          -1 IRanGd=           0 AccXCQ= 0.00D+00.
 Generated NRdTot=       0 NPtTot=           0 NUsed=           0 NTot=          32
 NSgBfM=  1300  1278  1291  1300  1300 MxSgAt=   158 MxSgA2=   158.
 Leave Link  302 at Fri Sep 10 11:15:49 2021, MaxMem= 23488102400 cpu:             121.3 elap:               5.1
 (Enter /sw/apps/gaussian-16.0/g16/l303.exe)
 DipDrv:  MaxL=1.
 Leave Link  303 at Fri Sep 10 11:15:49 2021, MaxMem= 23488102400 cpu:               9.0 elap:               0.4
 (Enter /sw/apps/gaussian-16.0/g16/l308.exe)
 Leave Link  308 at Fri Sep 10 11:15:50 2021, MaxMem= 23488102400 cpu:              12.5 elap:               0.6
 (Enter /sw/apps/gaussian-16.0/g16/l401.exe)
 ExpMin= 3.36D-02 ExpMax= 4.95D+03 ExpMxC= 7.45D+02 IAcc=3 IRadAn=         5 AccDes= 0.00D+00
 Harris functional with IExCor=20419 and IRadAn=       5 diagonalized for initial guess.
 HarFok:  IExCor=20419 AccDes= 0.00D+00 IRadAn=         5 IDoV= 1 UseB2=F ITyADJ=14
 ICtDFT=  3500011 ScaDFX=  1.000000  1.000000  1.000000  1.000000
 FoFCou: FMM=F IPFlag=           0 FMFlag=      100000 FMFlg1=        2001
         NFxFlg=           0 DoJE=T BraDBF=F KetDBF=T FulRan=T
         wScrn=  0.000000 ICntrl=       500 IOpCl=  0 I1Cent=   200000004 NGrid=           0
         NMat0=    1 NMatS0=      1 NMatT0=    0 NMatD0=    1 NMtDS0=    0 NMtDT0=    0
 Petite list used in FoFCou.
 Harris En= -3918.65800482704    
 JPrj=0 DoOrth=F DoCkMO=F.
 Leave Link  401 at Fri Sep 10 11:15:57 2021, MaxMem= 23488102400 cpu:             180.1 elap:               7.5
 (Enter /sw/apps/gaussian-16.0/g16/l502.exe)
 Integral symmetry usage will be decided dynamically.
 Closed shell SCF:
 Using DIIS extrapolation, IDIIS=  1040.
 NGot= 23488102400 LenX= 23482547354 LenY= 23479796732
 Requested convergence on RMS density matrix=1.00D-08 within 128 cycles.
 Requested convergence on MAX density matrix=1.00D-06.
 Requested convergence on             energy=1.00D-06.
 No special actions if energy rises.
 Fock matrices will be formed incrementally for  20 cycles.

 Cycle   1  Pass 1  IDiag  1:
 FoFJK:  IHMeth= 1 ICntrl=       0 DoSepK=T KAlg= 0 I1Cent=           0 FoldK=F
 IRaf=         1 NMat=       1 IRICut=       1 DoRegI=T DoRafI=F ISym2E= 0 IDoP0=0 IntGTp=1.
 FoFCou: FMM=T IPFlag=           0 FMFlag=      100000 FMFlg1=        2001
         NFxFlg=           0 DoJE=T BraDBF=F KetDBF=F FulRan=T
         wScrn=  0.000000 ICntrl=       500 IOpCl=  0 I1Cent=           0 NGrid=           0
         NMat0=    1 NMatS0=      1 NMatT0=    0 NMatD0=    1 NMtDS0=    0 NMtDT0=    0
 Symmetry not used in FoFCou.
 FMM levels:  10  Number of levels for PrismC:   9
 E= -4068.94840383472    
 DIIS: error= 2.04D-02 at cycle   1 NSaved=   1.
 NSaved= 1 IEnMin= 1 EnMin= -4068.94840383472     IErMin= 1 ErrMin= 2.04D-02
 ErrMax= 2.04D-02  0.00D+00 EMaxC= 1.00D-01 BMatC= 1.69D+00 BMatP= 1.69D+00
 IDIUse=3 WtCom= 7.96D-01 WtEn= 2.04D-01
 Coeff-Com:  0.100D+01
 Coeff-En:   0.100D+01
 Coeff:      0.100D+01
 Gap=     0.120 Goal=   None    Shift=    0.000
 GapD=    0.120 DampG=1.000 DampE=0.500 DampFc=0.5000 IDamp=-1.
 Damping current iteration by 5.00D-01
 RMSDP=1.57D-03 MaxDP=1.36D-01              OVMax= 2.06D-01

 Cycle   2  Pass 1  IDiag  1:
 RMSU=  7.70D-04    CP:  9.82D-01
 E= -4069.33720251423     Delta-E=       -0.388798679505 Rises=F Damp=T
 DIIS: error= 1.27D-02 at cycle   2 NSaved=   2.
 NSaved= 2 IEnMin= 2 EnMin= -4069.33720251423     IErMin= 2 ErrMin= 1.27D-02
 ErrMax= 1.27D-02  0.00D+00 EMaxC= 1.00D-01 BMatC= 3.07D-01 BMatP= 1.69D+00
 IDIUse=3 WtCom= 8.73D-01 WtEn= 1.27D-01
 Coeff-Com: -0.213D+00 0.121D+01
 Coeff-En:   0.000D+00 0.100D+01
 Coeff:     -0.186D+00 0.119D+01
 Gap=     0.135 Goal=   None    Shift=    0.000
 RMSDP=7.67D-04 MaxDP=9.43D-02 DE=-3.89D-01 OVMax= 1.91D-01

 Cycle   3  Pass 1  IDiag  1:
 RMSU=  7.35D-04    CP:  9.68D-01  1.23D+00
 E= -4069.62526364875     Delta-E=       -0.288061134528 Rises=F Damp=F
 DIIS: error= 1.56D-02 at cycle   3 NSaved=   3.
 NSaved= 3 IEnMin= 3 EnMin= -4069.62526364875     IErMin= 2 ErrMin= 1.27D-02
 ErrMax= 1.56D-02  0.00D+00 EMaxC= 1.00D-01 BMatC= 2.03D-01 BMatP= 3.07D-01
 IDIUse=3 WtCom= 8.44D-01 WtEn= 1.56D-01
 Coeff-Com: -0.267D+00 0.652D+00 0.615D+00
 Coeff-En:   0.000D+00 0.000D+00 0.100D+01
 Coeff:     -0.226D+00 0.551D+00 0.675D+00
 Gap=     0.121 Goal=   None    Shift=    0.000
 RMSDP=5.14D-04 MaxDP=4.76D-02 DE=-2.88D-01 OVMax= 1.49D-01

 Cycle   4  Pass 1  IDiag  1:
 RMSU=  2.68D-04    CP:  9.65D-01  1.55D+00  5.01D-01
 E= -4069.76352327318     Delta-E=       -0.138259624422 Rises=F Damp=F
 DIIS: error= 7.08D-03 at cycle   4 NSaved=   4.
 NSaved= 4 IEnMin= 4 EnMin= -4069.76352327318     IErMin= 4 ErrMin= 7.08D-03
 ErrMax= 7.08D-03  0.00D+00 EMaxC= 1.00D-01 BMatC= 5.07D-02 BMatP= 2.03D-01
 IDIUse=3 WtCom= 9.29D-01 WtEn= 7.08D-02
 Coeff-Com: -0.110D+00 0.228D+00 0.409D+00 0.473D+00
 Coeff-En:   0.000D+00 0.000D+00 0.224D+00 0.776D+00
 Coeff:     -0.102D+00 0.212D+00 0.396D+00 0.495D+00
 Gap=     0.121 Goal=   None    Shift=    0.000
 RMSDP=2.05D-04 MaxDP=1.92D-02 DE=-1.38D-01 OVMax= 6.63D-02

 Cycle   5  Pass 1  IDiag  1:
 RMSU=  7.85D-05    CP:  9.64D-01  1.49D+00  6.88D-01  5.44D-01
 E= -4069.81004946319     Delta-E=       -0.046526190010 Rises=F Damp=F
 DIIS: error= 7.28D-04 at cycle   5 NSaved=   5.
 NSaved= 5 IEnMin= 5 EnMin= -4069.81004946319     IErMin= 5 ErrMin= 7.28D-04
 ErrMax= 7.28D-04  0.00D+00 EMaxC= 1.00D-01 BMatC= 1.28D-03 BMatP= 5.07D-02
 IDIUse=3 WtCom= 9.93D-01 WtEn= 7.28D-03
 Coeff-Com: -0.377D-01 0.741D-01 0.171D+00 0.255D+00 0.538D+00
 Coeff-En:   0.000D+00 0.000D+00 0.000D+00 0.000D+00 0.100D+01
 Coeff:     -0.374D-01 0.736D-01 0.170D+00 0.253D+00 0.541D+00
 Gap=     0.120 Goal=   None    Shift=    0.000
 RMSDP=4.44D-05 MaxDP=4.34D-03 DE=-4.65D-02 OVMax= 1.85D-02

 Cycle   6  Pass 1  IDiag  1:
 RMSU=  3.22D-05    CP:  9.64D-01  1.49D+00  6.79D-01  6.20D-01  7.29D-01
 E= -4069.81120723024     Delta-E=       -0.001157767059 Rises=F Damp=F
 DIIS: error= 1.74D-04 at cycle   6 NSaved=   6.
 NSaved= 6 IEnMin= 6 EnMin= -4069.81120723024     IErMin= 6 ErrMin= 1.74D-04
 ErrMax= 1.74D-04  0.00D+00 EMaxC= 1.00D-01 BMatC= 2.01D-04 BMatP= 1.28D-03
 IDIUse=3 WtCom= 9.98D-01 WtEn= 1.74D-03
 Coeff-Com:  0.179D-02-0.581D-02 0.133D-01 0.429D-01 0.308D+00 0.640D+00
 Coeff-En:   0.000D+00 0.000D+00 0.000D+00 0.000D+00 0.123D+00 0.877D+00
 Coeff:      0.179D-02-0.579D-02 0.133D-01 0.428D-01 0.308D+00 0.640D+00
 Gap=     0.120 Goal=   None    Shift=    0.000
 RMSDP=1.75D-05 MaxDP=1.19D-03 DE=-1.16D-03 OVMax= 7.81D-03

 Cycle   7  Pass 1  IDiag  1:
 RMSU=  1.14D-05    CP:  9.64D-01  1.49D+00  6.85D-01  6.18D-01  8.42D-01
                    CP:  7.33D-01
 E= -4069.81143205609     Delta-E=       -0.000224825842 Rises=F Damp=F
 DIIS: error= 1.01D-04 at cycle   7 NSaved=   7.
 NSaved= 7 IEnMin= 7 EnMin= -4069.81143205609     IErMin= 7 ErrMin= 1.01D-04
 ErrMax= 1.01D-04  0.00D+00 EMaxC= 1.00D-01 BMatC= 2.60D-05 BMatP= 2.01D-04
 IDIUse=3 WtCom= 9.99D-01 WtEn= 1.01D-03
 Coeff-Com:  0.457D-02-0.101D-01-0.875D-02-0.291D-02 0.110D+00 0.340D+00
 Coeff-Com:  0.567D+00
 Coeff-En:   0.000D+00 0.000D+00 0.000D+00 0.000D+00 0.000D+00 0.000D+00
 Coeff-En:   0.100D+01
 Coeff:      0.457D-02-0.100D-01-0.874D-02-0.291D-02 0.110D+00 0.340D+00
 Coeff:      0.568D+00
 Gap=     0.121 Goal=   None    Shift=    0.000
 RMSDP=6.83D-06 MaxDP=1.09D-03 DE=-2.25D-04 OVMax= 3.36D-03

 Cycle   8  Pass 1  IDiag  1:
 RMSU=  4.86D-06    CP:  9.64D-01  1.50D+00  6.85D-01  6.23D-01  8.42D-01
                    CP:  8.55D-01  8.06D-01
 E= -4069.81146389555     Delta-E=       -0.000031839460 Rises=F Damp=F
 DIIS: error= 5.88D-05 at cycle   8 NSaved=   8.
 NSaved= 8 IEnMin= 8 EnMin= -4069.81146389555     IErMin= 8 ErrMin= 5.88D-05
 ErrMax= 5.88D-05  0.00D+00 EMaxC= 1.00D-01 BMatC= 5.05D-06 BMatP= 2.60D-05
 IDIUse=1 WtCom= 1.00D+00 WtEn= 0.00D+00
 Coeff-Com:  0.224D-02-0.445D-02-0.790D-02-0.122D-01-0.864D-02 0.335D-01
 Coeff-Com:  0.320D+00 0.677D+00
 Coeff:      0.224D-02-0.445D-02-0.790D-02-0.122D-01-0.864D-02 0.335D-01
 Coeff:      0.320D+00 0.677D+00
 Gap=     0.121 Goal=   None    Shift=    0.000
 RMSDP=3.41D-06 MaxDP=3.81D-04 DE=-3.18D-05 OVMax= 1.11D-03

 Cycle   9  Pass 1  IDiag  1:
 RMSU=  1.98D-06    CP:  9.64D-01  1.49D+00  6.86D-01  6.25D-01  8.59D-01
                    CP:  8.83D-01  9.97D-01  9.68D-01
 E= -4069.81147201043     Delta-E=       -0.000008114886 Rises=F Damp=F
 DIIS: error= 2.05D-05 at cycle   9 NSaved=   9.
 NSaved= 9 IEnMin= 9 EnMin= -4069.81147201043     IErMin= 9 ErrMin= 2.05D-05
 ErrMax= 2.05D-05  0.00D+00 EMaxC= 1.00D-01 BMatC= 7.80D-07 BMatP= 5.05D-06
 IDIUse=1 WtCom= 1.00D+00 WtEn= 0.00D+00
 Coeff-Com:  0.501D-03-0.839D-03-0.279D-02-0.617D-02-0.203D-01-0.404D-01
 Coeff-Com:  0.949D-01 0.340D+00 0.636D+00
 Coeff:      0.501D-03-0.839D-03-0.279D-02-0.617D-02-0.203D-01-0.404D-01
 Coeff:      0.949D-01 0.340D+00 0.636D+00
 Gap=     0.121 Goal=   None    Shift=    0.000
 RMSDP=1.47D-06 MaxDP=1.40D-04 DE=-8.11D-06 OVMax= 7.64D-04

 Cycle  10  Pass 1  IDiag  1:
 RMSU=  9.73D-07    CP:  9.64D-01  1.49D+00  6.86D-01  6.25D-01  8.63D-01
                    CP:  8.95D-01  1.04D+00  1.13D+00  1.06D+00
 E= -4069.81147375156     Delta-E=       -0.000001741122 Rises=F Damp=F
 DIIS: error= 1.05D-05 at cycle  10 NSaved=  10.
 NSaved=10 IEnMin=10 EnMin= -4069.81147375156     IErMin=10 ErrMin= 1.05D-05
 ErrMax= 1.05D-05  0.00D+00 EMaxC= 1.00D-01 BMatC= 1.79D-07 BMatP= 7.80D-07
 IDIUse=1 WtCom= 1.00D+00 WtEn= 0.00D+00
 Coeff-Com: -0.424D-03 0.893D-03 0.120D-02 0.101D-02-0.378D-02-0.315D-01
 Coeff-Com: -0.426D-01-0.697D-01 0.235D+00 0.910D+00
 Coeff:     -0.424D-03 0.893D-03 0.120D-02 0.101D-02-0.378D-02-0.315D-01
 Coeff:     -0.426D-01-0.697D-01 0.235D+00 0.910D+00
 Gap=     0.121 Goal=   None    Shift=    0.000
 RMSDP=1.26D-06 MaxDP=1.23D-04 DE=-1.74D-06 OVMax= 6.49D-04

 Cycle  11  Pass 1  IDiag  1:
 RMSU=  5.51D-07    CP:  9.64D-01  1.49D+00  6.86D-01  6.25D-01  8.65D-01
                    CP:  9.05D-01  1.09D+00  1.25D+00  1.39D+00  1.36D+00
 E= -4069.81147458693     Delta-E=       -0.000000835375 Rises=F Damp=F
 DIIS: error= 4.43D-06 at cycle  11 NSaved=  11.
 NSaved=11 IEnMin=11 EnMin= -4069.81147458693     IErMin=11 ErrMin= 4.43D-06
 ErrMax= 4.43D-06  0.00D+00 EMaxC= 1.00D-01 BMatC= 7.41D-08 BMatP= 1.79D-07
 IDIUse=1 WtCom= 1.00D+00 WtEn= 0.00D+00
 Coeff-Com: -0.348D-03 0.679D-03 0.138D-02 0.214D-02 0.431D-02-0.917D-02
 Coeff-Com: -0.412D-01-0.133D+00-0.373D-01 0.500D+00 0.712D+00
 Coeff:     -0.348D-03 0.679D-03 0.138D-02 0.214D-02 0.431D-02-0.917D-02
 Coeff:     -0.412D-01-0.133D+00-0.373D-01 0.500D+00 0.712D+00
 Gap=     0.121 Goal=   None    Shift=    0.000
 RMSDP=7.19D-07 MaxDP=6.52D-05 DE=-8.35D-07 OVMax= 3.96D-04

 Cycle  12  Pass 1  IDiag  1:
 RMSU=  2.78D-07    CP:  9.64D-01  1.50D+00  6.86D-01  6.25D-01  8.66D-01
                    CP:  9.07D-01  1.11D+00  1.31D+00  1.56D+00  1.75D+00
                    CP:  1.17D+00
 E= -4069.81147487715     Delta-E=       -0.000000290223 Rises=F Damp=F
 DIIS: error= 2.76D-06 at cycle  12 NSaved=  12.
 NSaved=12 IEnMin=12 EnMin= -4069.81147487715     IErMin=12 ErrMin= 2.76D-06
 ErrMax= 2.76D-06  0.00D+00 EMaxC= 1.00D-01 BMatC= 1.79D-08 BMatP= 7.41D-08
 IDIUse=1 WtCom= 1.00D+00 WtEn= 0.00D+00
 Coeff-Com: -0.238D-04 0.295D-04 0.273D-03 0.644D-03 0.365D-02 0.334D-02
 Coeff-Com:  0.351D-03-0.408D-01-0.756D-01-0.315D-01 0.267D+00 0.873D+00
 Coeff:     -0.238D-04 0.295D-04 0.273D-03 0.644D-03 0.365D-02 0.334D-02
 Coeff:      0.351D-03-0.408D-01-0.756D-01-0.315D-01 0.267D+00 0.873D+00
 Gap=     0.121 Goal=   None    Shift=    0.000
 RMSDP=4.42D-07 MaxDP=3.08D-05 DE=-2.90D-07 OVMax= 2.55D-04

 Cycle  13  Pass 1  IDiag  1:
 RMSU=  1.72D-07    CP:  9.64D-01  1.50D+00  6.86D-01  6.25D-01  8.67D-01
                    CP:  9.07D-01  1.12D+00  1.34D+00  1.67D+00  1.97D+00
                    CP:  1.57D+00  1.22D+00
 E= -4069.81147497659     Delta-E=       -0.000000099433 Rises=F Damp=F
 DIIS: error= 1.37D-06 at cycle  13 NSaved=  13.
 NSaved=13 IEnMin=13 EnMin= -4069.81147497659     IErMin=13 ErrMin= 1.37D-06
 ErrMax= 1.37D-06  0.00D+00 EMaxC= 1.00D-01 BMatC= 9.48D-09 BMatP= 1.79D-08
 IDIUse=1 WtCom= 1.00D+00 WtEn= 0.00D+00
 Coeff-Com:  0.120D-03-0.245D-03-0.359D-03-0.432D-03 0.795D-03 0.492D-02
 Coeff-Com:  0.183D-01 0.227D-01-0.339D-01-0.234D+00-0.162D+00 0.571D+00
 Coeff-Com:  0.813D+00
 Coeff:      0.120D-03-0.245D-03-0.359D-03-0.432D-03 0.795D-03 0.492D-02
 Coeff:      0.183D-01 0.227D-01-0.339D-01-0.234D+00-0.162D+00 0.571D+00
 Coeff:      0.813D+00
 Gap=     0.121 Goal=   None    Shift=    0.000
 RMSDP=3.67D-07 MaxDP=2.17D-05 DE=-9.94D-08 OVMax= 2.20D-04

 Cycle  14  Pass 1  IDiag  1:
 RMSU=  8.02D-08    CP:  9.64D-01  1.50D+00  6.86D-01  6.26D-01  8.67D-01
                    CP:  9.08D-01  1.12D+00  1.36D+00  1.74D+00  2.17D+00
                    CP:  1.83D+00  1.74D+00  1.13D+00
 E= -4069.81147501888     Delta-E=       -0.000000042295 Rises=F Damp=F
 DIIS: error= 7.62D-07 at cycle  14 NSaved=  14.
 NSaved=14 IEnMin=14 EnMin= -4069.81147501888     IErMin=14 ErrMin= 7.62D-07
 ErrMax= 7.62D-07  0.00D+00 EMaxC= 1.00D-01 BMatC= 1.43D-09 BMatP= 9.48D-09
 IDIUse=1 WtCom= 1.00D+00 WtEn= 0.00D+00
 Coeff-Com:  0.702D-04-0.138D-03-0.257D-03-0.399D-03-0.425D-03 0.126D-02
 Coeff-Com:  0.103D-01 0.203D-01 0.479D-02-0.103D+00-0.148D+00 0.777D-01
 Coeff-Com:  0.412D+00 0.726D+00
 Coeff:      0.702D-04-0.138D-03-0.257D-03-0.399D-03-0.425D-03 0.126D-02
 Coeff:      0.103D-01 0.203D-01 0.479D-02-0.103D+00-0.148D+00 0.777D-01
 Coeff:      0.412D+00 0.726D+00
 Gap=     0.121 Goal=   None    Shift=    0.000
 RMSDP=1.15D-07 MaxDP=6.52D-06 DE=-4.23D-08 OVMax= 6.26D-05

 Cycle  15  Pass 1  IDiag  1:
 RMSU=  3.96D-08    CP:  9.64D-01  1.50D+00  6.86D-01  6.26D-01  8.67D-01
                    CP:  9.07D-01  1.13D+00  1.37D+00  1.76D+00  2.22D+00
                    CP:  1.94D+00  1.89D+00  1.37D+00  1.04D+00
 E= -4069.81147502383     Delta-E=       -0.000000004948 Rises=F Damp=F
 DIIS: error= 3.80D-07 at cycle  15 NSaved=  15.
 NSaved=15 IEnMin=15 EnMin= -4069.81147502383     IErMin=15 ErrMin= 3.80D-07
 ErrMax= 3.80D-07  0.00D+00 EMaxC= 1.00D-01 BMatC= 2.38D-10 BMatP= 1.43D-09
 IDIUse=1 WtCom= 1.00D+00 WtEn= 0.00D+00
 Coeff-Com:  0.765D-05-0.134D-04-0.408D-04-0.937D-04-0.298D-03-0.499D-03
 Coeff-Com:  0.130D-02 0.325D-02 0.878D-02-0.144D-02-0.317D-01-0.708D-01
 Coeff-Com:  0.375D-01 0.298D+00 0.756D+00
 Coeff:      0.765D-05-0.134D-04-0.408D-04-0.937D-04-0.298D-03-0.499D-03
 Coeff:      0.130D-02 0.325D-02 0.878D-02-0.144D-02-0.317D-01-0.708D-01
 Coeff:      0.375D-01 0.298D+00 0.756D+00
 Gap=     0.121 Goal=   None    Shift=    0.000
 RMSDP=3.89D-08 MaxDP=2.45D-06 DE=-4.95D-09 OVMax= 2.75D-05

 Cycle  16  Pass 1  IDiag  1:
 RMSU=  1.90D-08    CP:  9.64D-01  1.50D+00  6.86D-01  6.26D-01  8.67D-01
                    CP:  9.08D-01  1.13D+00  1.37D+00  1.77D+00  2.23D+00
                    CP:  1.96D+00  1.94D+00  1.45D+00  1.24D+00  1.15D+00
 E= -4069.81147502459     Delta-E=       -0.000000000757 Rises=F Damp=F
 DIIS: error= 1.87D-07 at cycle  16 NSaved=  16.
 NSaved=16 IEnMin=16 EnMin= -4069.81147502459     IErMin=16 ErrMin= 1.87D-07
 ErrMax= 1.87D-07  0.00D+00 EMaxC= 1.00D-01 BMatC= 9.12D-11 BMatP= 2.38D-10
 IDIUse=1 WtCom= 1.00D+00 WtEn= 0.00D+00
 Coeff-Com: -0.138D-04 0.281D-04 0.449D-04 0.496D-04-0.382D-04-0.623D-03
 Coeff-Com: -0.176D-02-0.411D-02 0.407D-02 0.244D-01 0.214D-01-0.611D-01
 Coeff-Com: -0.791D-01-0.426D-01 0.394D+00 0.746D+00
 Coeff:     -0.138D-04 0.281D-04 0.449D-04 0.496D-04-0.382D-04-0.623D-03
 Coeff:     -0.176D-02-0.411D-02 0.407D-02 0.244D-01 0.214D-01-0.611D-01
 Coeff:     -0.791D-01-0.426D-01 0.394D+00 0.746D+00
 Gap=     0.121 Goal=   None    Shift=    0.000
 RMSDP=2.39D-08 MaxDP=1.66D-06 DE=-7.57D-10 OVMax= 1.31D-05

 Cycle  17  Pass 1  IDiag  1:
 RMSU=  1.06D-08    CP:  9.64D-01  1.50D+00  6.86D-01  6.26D-01  8.67D-01
                    CP:  9.08D-01  1.13D+00  1.37D+00  1.77D+00  2.24D+00
                    CP:  1.98D+00  1.97D+00  1.49D+00  1.34D+00  1.44D+00
                    CP:  1.25D+00
 E= -4069.81147502500     Delta-E=       -0.000000000411 Rises=F Damp=F
 DIIS: error= 9.00D-08 at cycle  17 NSaved=  17.
 NSaved=17 IEnMin=17 EnMin= -4069.81147502500     IErMin=17 ErrMin= 9.00D-08
 ErrMax= 9.00D-08  0.00D+00 EMaxC= 1.00D-01 BMatC= 1.88D-11 BMatP= 9.12D-11
 IDIUse=1 WtCom= 1.00D+00 WtEn= 0.00D+00
 Coeff-Com: -0.758D-05 0.148D-04 0.295D-04 0.429D-04 0.790D-04-0.135D-03
 Coeff-Com: -0.890D-03-0.286D-02-0.720D-04 0.959D-02 0.179D-01-0.740D-02
 Coeff-Com: -0.352D-01-0.100D+00-0.244D-01 0.286D+00 0.858D+00
 Coeff:     -0.758D-05 0.148D-04 0.295D-04 0.429D-04 0.790D-04-0.135D-03
 Coeff:     -0.890D-03-0.286D-02-0.720D-04 0.959D-02 0.179D-01-0.740D-02
 Coeff:     -0.352D-01-0.100D+00-0.244D-01 0.286D+00 0.858D+00
 Gap=     0.121 Goal=   None    Shift=    0.000
 RMSDP=1.36D-08 MaxDP=9.34D-07 DE=-4.11D-10 OVMax= 9.35D-06

 Cycle  18  Pass 1  IDiag  1:
 RMSU=  5.04D-09    CP:  9.64D-01  1.50D+00  6.86D-01  6.26D-01  8.67D-01
                    CP:  9.08D-01  1.13D+00  1.37D+00  1.77D+00  2.24D+00
                    CP:  1.98D+00  1.97D+00  1.51D+00  1.40D+00  1.60D+00
                    CP:  1.64D+00  1.39D+00
 E= -4069.81147502472     Delta-E=        0.000000000273 Rises=F Damp=F
 DIIS: error= 6.26D-08 at cycle  18 NSaved=  18.
 NSaved=18 IEnMin=17 EnMin= -4069.81147502500     IErMin=18 ErrMin= 6.26D-08
 ErrMax= 6.26D-08  0.00D+00 EMaxC= 1.00D-01 BMatC= 7.79D-12 BMatP= 1.88D-11
 IDIUse=1 WtCom= 1.00D+00 WtEn= 0.00D+00
 Coeff-Com:  0.146D-05-0.324D-05-0.237D-05 0.124D-05 0.628D-04 0.161D-03
 Coeff-Com:  0.313D-03 0.651D-04-0.119D-02-0.506D-02 0.467D-03 0.172D-01
 Coeff-Com:  0.163D-01-0.330D-01-0.153D+00-0.179D+00 0.374D+00 0.962D+00
 Coeff:      0.146D-05-0.324D-05-0.237D-05 0.124D-05 0.628D-04 0.161D-03
 Coeff:      0.313D-03 0.651D-04-0.119D-02-0.506D-02 0.467D-03 0.172D-01
 Coeff:      0.163D-01-0.330D-01-0.153D+00-0.179D+00 0.374D+00 0.962D+00
 Gap=     0.121 Goal=   None    Shift=    0.000
 RMSDP=1.14D-08 MaxDP=7.20D-07 DE= 2.73D-10 OVMax= 6.35D-06

 Cycle  19  Pass 1  IDiag  1:
 RMSU=  2.92D-09    CP:  9.64D-01  1.50D+00  6.86D-01  6.26D-01  8.67D-01
                    CP:  9.08D-01  1.13D+00  1.37D+00  1.77D+00  2.24D+00
                    CP:  1.98D+00  1.98D+00  1.52D+00  1.44D+00  1.74D+00
                    CP:  1.95D+00  1.93D+00  1.33D+00
 E= -4069.81147502501     Delta-E=       -0.000000000284 Rises=F Damp=F
 DIIS: error= 3.05D-08 at cycle  19 NSaved=  19.
 NSaved=19 IEnMin=19 EnMin= -4069.81147502501     IErMin=19 ErrMin= 3.05D-08
 ErrMax= 3.05D-08  0.00D+00 EMaxC= 1.00D-01 BMatC= 1.74D-12 BMatP= 7.79D-12
 IDIUse=1 WtCom= 1.00D+00 WtEn= 0.00D+00
 Coeff-Com:  0.293D-05-0.593D-05-0.977D-05-0.119D-04 0.159D-04 0.121D-03
 Coeff-Com:  0.448D-03 0.806D-03-0.563D-03-0.594D-02-0.502D-02 0.114D-01
 Coeff-Com:  0.207D-01 0.117D-01-0.718D-01-0.187D+00-0.264D-01 0.502D+00
 Coeff-Com:  0.749D+00
 Coeff:      0.293D-05-0.593D-05-0.977D-05-0.119D-04 0.159D-04 0.121D-03
 Coeff:      0.448D-03 0.806D-03-0.563D-03-0.594D-02-0.502D-02 0.114D-01
 Coeff:      0.207D-01 0.117D-01-0.718D-01-0.187D+00-0.264D-01 0.502D+00
 Coeff:      0.749D+00
 Gap=     0.121 Goal=   None    Shift=    0.000
 RMSDP=4.99D-09 MaxDP=3.39D-07 DE=-2.84D-10 OVMax= 3.52D-06

 SCF Done:  E(RCAM-B3LYP) =  -4069.81147503     A.U. after   19 cycles
            NFock= 19  Conv=0.50D-08     -V/T= 2.0102
 KE= 4.028801905717D+03 PE=-3.935871198502D+04 EE= 1.632120754683D+04
 Leave Link  502 at Fri Sep 10 11:25:56 2021, MaxMem= 23488102400 cpu:           13760.4 elap:             598.4
 (Enter /sw/apps/gaussian-16.0/g16/l801.exe)
 DoSCS=F DFT=T ScalE2(SS,OS)=  1.000000  1.000000
 ExpMin= 3.36D-02 ExpMax= 4.95D+03 ExpMxC= 7.45D+02 IAcc=3 IRadAn=         5 AccDes= 0.00D+00
 HarFok:  IExCor=  205 AccDes= 0.00D+00 IRadAn=         5 IDoV=-2 UseB2=F ITyADJ=14
 ICtDFT= 12500011 ScaDFX=  1.000000  1.000000  1.000000  1.000000
 GSVD:  LWork=       -9588 too small for GESVD, short by       45590 words or       45590 for optimal perf.
 Largest valence mixing into a core orbital is  2.03D-04
 Largest core mixing into a valence orbital is  5.24D-05
 Range of M.O.s used for correlation:    95  1572
 NBasis=  1572 NAE=   312 NBE=   312 NFC=    94 NFV=     0
 NROrb=   1478 NOA=   218 NOB=   218 NVA=  1260 NVB=  1260
 Leave Link  801 at Fri Sep 10 11:25:56 2021, MaxMem= 23488102400 cpu:               8.4 elap:               0.4
 (Enter /sw/apps/gaussian-16.0/g16/l914.exe)
 RHF ground state
 Two-electron integrals replicated using symmetry.
 MDV= 23488102400 DFT=T DoStab=F Mixed=T DoRPA=T DoScal=F NonHer=T
 Making orbital integer symmetry assigments:
 Orbital symmetries:
       Occupied  (A) (A) (A) (A) (A) (A) (A) (A) (A) (A) (A) (A)
                 (A) (A) (A) (A) (A) (A) (A) (A) (A) (A) (A) (A)
                 (A) (A) (A) (A) (A) (A) (A) (A) (A) (A) (A) (A)
                 (A) (A) (A) (A) (A) (A) (A) (A) (A) (A) (A) (A)
                 (A) (A) (A) (A) (A) (A) (A) (A) (A) (A) (A) (A)
                 (A) (A) (A) (A) (A) (A) (A) (A) (A) (A) (A) (A)
                 (A) (A) (A) (A) (A) (A) (A) (A) (A) (A) (A) (A)
                 (A) (A) (A) (A) (A) (A) (A) (A) (A) (A) (A) (A)
                 (A) (A) (A) (A) (A) (A) (A) (A) (A) (A) (A) (A)
                 (A) (A) (A) (A) (A) (A) (A) (A) (A) (A) (A) (A)
                 (A) (A) (A) (A) (A) (A) (A) (A) (A) (A) (A) (A)
                 (A) (A) (A) (A) (A) (A) (A) (A) (A) (A) (A) (A)
                 (A) (A) (A) (A) (A) (A) (A) (A) (A) (A) (A) (A)
                 (A) (A) (A) (A) (A) (A) (A) (A) (A) (A) (A) (A)
                 (A) (A) (A) (A) (A) (A) (A) (A) (A) (A) (A) (A)
                 (A) (A) (A) (A) (A) (A) (A) (A) (A) (A) (A) (A)
                 (A) (A) (A) (A) (A) (A) (A) (A) (A) (A) (A) (A)
                 (A) (A) (A) (A) (A) (A) (A) (A) (A) (A) (A) (A)
                 (A) (A) (A) (A) (A) (A) (A) (A) (A) (A) (A) (A)
                 (A) (A) (A) (A) (A) (A) (A) (A) (A) (A) (A) (A)
                 (A) (A) (A) (A) (A) (A) (A) (A) (A) (A) (A) (A)
                 (A) (A) (A) (A) (A) (A) (A) (A) (A) (A) (A) (A)
                 (A) (A) (A) (A) (A) (A) (A) (A) (A) (A) (A) (A)
                 (A) (A) (A) (A) (A) (A) (A) (A) (A) (A) (A) (A)
                 (A) (A) (A) (A) (A) (A) (A) (A) (A) (A) (A) (A)
                 (A) (A) (A) (A) (A) (A) (A) (A) (A) (A) (A) (A)
       Virtual   (A) (A) (A) (A) (A) (A) (A) (A) (A) (A) (A) (A)
                 (A) (A) (A) (A) (A) (A) (A) (A) (A) (A) (A) (A)
                 (A) (A) (A) (A) (A) (A) (A) (A) (A) (A) (A) (A)
                 (A) (A) (A) (A) (A) (A) (A) (A) (A) (A) (A) (A)
                 (A) (A) (A) (A) (A) (A) (A) (A) (A) (A) (A) (A)
                 (A) (A) (A) (A) (A) (A) (A) (A) (A) (A) (A) (A)
                 (A) (A) (A) (A) (A) (A) (A) (A) (A) (A) (A) (A)
                 (A) (A) (A) (A) (A) (A) (A) (A) (A) (A) (A) (A)
                 (A) (A) (A) (A) (A) (A) (A) (A) (A) (A) (A) (A)
                 (A) (A) (A) (A) (A) (A) (A) (A) (A) (A) (A) (A)
                 (A) (A) (A) (A) (A) (A) (A) (A) (A) (A) (A) (A)
                 (A) (A) (A) (A) (A) (A) (A) (A) (A) (A) (A) (A)
                 (A) (A) (A) (A) (A) (A) (A) (A) (A) (A) (A) (A)
                 (A) (A) (A) (A) (A) (A) (A) (A) (A) (A) (A) (A)
                 (A) (A) (A) (A) (A) (A) (A) (A) (A) (A) (A) (A)
                 (A) (A) (A) (A) (A) (A) (A) (A) (A) (A) (A) (A)
                 (A) (A) (A) (A) (A) (A) (A) (A) (A) (A) (A) (A)
                 (A) (A) (A) (A) (A) (A) (A) (A) (A) (A) (A) (A)
                 (A) (A) (A) (A) (A) (A) (A) (A) (A) (A) (A) (A)
                 (A) (A) (A) (A) (A) (A) (A) (A) (A) (A) (A) (A)
                 (A) (A) (A) (A) (A) (A) (A) (A) (A) (A) (A) (A)
                 (A) (A) (A) (A) (A) (A) (A) (A) (A) (A) (A) (A)
                 (A) (A) (A) (A) (A) (A) (A) (A) (A) (A) (A) (A)
                 (A) (A) (A) (A) (A) (A) (A) (A) (A) (A) (A) (A)
                 (A) (A) (A) (A) (A) (A) (A) (A) (A) (A) (A) (A)
                 (A) (A) (A) (A) (A) (A) (A) (A) (A) (A) (A) (A)
                 (A) (A) (A) (A) (A) (A) (A) (A) (A) (A) (A) (A)
                 (A) (A) (A) (A) (A) (A) (A) (A) (A) (A) (A) (A)
                 (A) (A) (A) (A) (A) (A) (A) (A) (A) (A) (A) (A)
                 (A) (A) (A) (A) (A) (A) (A) (A) (A) (A) (A) (A)
                 (A) (A) (A) (A) (A) (A) (A) (A) (A) (A) (A) (A)
                 (A) (A) (A) (A) (A) (A) (A) (A) (A) (A) (A) (A)
                 (A) (A) (A) (A) (A) (A) (A) (A) (A) (A) (A) (A)
                 (A) (A) (A) (A) (A) (A) (A) (A) (A) (A) (A) (A)
                 (A) (A) (A) (A) (A) (A) (A) (A) (A) (A) (A) (A)
                 (A) (A) (A) (A) (A) (A) (A) (A) (A) (A) (A) (A)
                 (A) (A) (A) (A) (A) (A) (A) (A) (A) (A) (A) (A)
                 (A) (A) (A) (A) (A) (A) (A) (A) (A) (A) (A) (A)
                 (A) (A) (A) (A) (A) (A) (A) (A) (A) (A) (A) (A)
                 (A) (A) (A) (A) (A) (A) (A) (A) (A) (A) (A) (A)
                 (A) (A) (A) (A) (A) (A) (A) (A) (A) (A) (A) (A)
                 (A) (A) (A) (A) (A) (A) (A) (A) (A) (A) (A) (A)
                 (A) (A) (A) (A) (A) (A) (A) (A) (A) (A) (A) (A)
                 (A) (A) (A) (A) (A) (A) (A) (A) (A) (A) (A) (A)
                 (A) (A) (A) (A) (A) (A) (A) (A) (A) (A) (A) (A)
                 (A) (A) (A) (A) (A) (A) (A) (A) (A) (A) (A) (A)
                 (A) (A) (A) (A) (A) (A) (A) (A) (A) (A) (A) (A)
                 (A) (A) (A) (A) (A) (A) (A) (A) (A) (A) (A) (A)
                 (A) (A) (A) (A) (A) (A) (A) (A) (A) (A) (A) (A)
                 (A) (A) (A) (A) (A) (A) (A) (A) (A) (A) (A) (A)
                 (A) (A) (A) (A) (A) (A) (A) (A) (A) (A) (A) (A)
                 (A) (A) (A) (A) (A) (A) (A) (A) (A) (A) (A) (A)
                 (A) (A) (A) (A) (A) (A) (A) (A) (A) (A) (A) (A)
                 (A) (A) (A) (A) (A) (A) (A) (A) (A) (A) (A) (A)
                 (A) (A) (A) (A) (A) (A) (A) (A) (A) (A) (A) (A)
                 (A) (A) (A) (A) (A) (A) (A) (A) (A) (A) (A) (A)
                 (A) (A) (A) (A) (A) (A) (A) (A) (A) (A) (A) (A)
                 (A) (A) (A) (A) (A) (A) (A) (A) (A) (A) (A) (A)
                 (A) (A) (A) (A) (A) (A) (A) (A) (A) (A) (A) (A)
                 (A) (A) (A) (A) (A) (A) (A) (A) (A) (A) (A) (A)
                 (A) (A) (A) (A) (A) (A) (A) (A) (A) (A) (A) (A)
                 (A) (A) (A) (A) (A) (A) (A) (A) (A) (A) (A) (A)
                 (A) (A) (A) (A) (A) (A) (A) (A) (A) (A) (A) (A)
                 (A) (A) (A) (A) (A) (A) (A) (A) (A) (A) (A) (A)
                 (A) (A) (A) (A) (A) (A) (A) (A) (A) (A) (A) (A)
                 (A) (A) (A) (A) (A) (A) (A) (A) (A) (A) (A) (A)
                 (A) (A) (A) (A) (A) (A) (A) (A) (A) (A) (A) (A)
                 (A) (A) (A) (A) (A) (A) (A) (A) (A) (A) (A) (A)
                 (A) (A) (A) (A) (A) (A) (A) (A) (A) (A) (A) (A)
                 (A) (A) (A) (A) (A) (A) (A) (A) (A) (A) (A) (A)
                 (A) (A) (A) (A) (A) (A) (A) (A) (A) (A) (A) (A)
                 (A) (A) (A) (A) (A) (A) (A) (A) (A) (A) (A) (A)
                 (A) (A) (A) (A) (A) (A) (A) (A) (A) (A) (A) (A)
                 (A) (A) (A) (A) (A) (A) (A) (A) (A) (A) (A) (A)
                 (A) (A) (A) (A) (A) (A) (A) (A) (A) (A) (A) (A)
                 (A) (A) (A) (A) (A) (A) (A) (A) (A) (A) (A) (A)
                 (A) (A) (A) (A) (A) (A) (A) (A) (A) (A) (A) (A)
                 (A) (A) (A) (A) (A) (A) (A) (A) (A) (A) (A) (A)
                 (A) (A) (A) (A) (A) (A) (A) (A) (A) (A) (A) (A)
                 (A) (A) (A) (A) (A) (A) (A) (A) (A) (A) (A) (A)
                 (A) (A) (A) (A) (A) (A) (A) (A) (A) (A) (A) (A)
                 (A) (A) (A) (A) (A) (A) (A) (A) (A) (A) (A) (A)
                 (A) (A) (A) (A) (A) (A) (A) (A) (A) (A) (A) (A)
                 (A) (A) (A) (A) (A) (A) (A) (A) (A) (A) (A) (A)
                 (A) (A) (A) (A) (A) (A) (A) (A) (A) (A) (A) (A)
                 (A) (A) (A) (A) (A) (A) (A) (A) (A) (A) (A) (A)
                 (A) (A) (A) (A) (A) (A) (A) (A) (A) (A) (A) (A)
                 (A) (A) (A) (A) (A) (A) (A) (A) (A) (A) (A) (A)
                 (A) (A) (A) (A) (A) (A) (A) (A) (A) (A) (A) (A)
                 (A) (A) (A) (A) (A) (A) (A) (A) (A) (A) (A) (A)
                 (A) (A) (A) (A) (A) (A) (A) (A) (A) (A) (A) (A)
                 (A) (A) (A) (A) (A) (A) (A) (A) (A) (A) (A) (A)
                 (A) (A) (A) (A) (A) (A) (A) (A) (A) (A) (A) (A)
                 (A) (A) (A) (A) (A) (A) (A) (A) (A) (A) (A) (A)
                 (A) (A) (A) (A) (A) (A) (A) (A) (A) (A) (A) (A)
                 (A) (A) (A) (A) (A) (A) (A) (A) (A) (A) (A) (A)
                 (A) (A) (A) (A) (A) (A) (A) (A) (A) (A) (A) (A)
                 (A) (A) (A) (A) (A) (A) (A) (A) (A) (A) (A) (A)
                 (A) (A) (A) (A) (A) (A) (A) (A) (A) (A) (A) (A)
                 (A) (A) (A) (A) (A) (A) (A) (A) (A) (A) (A) (A)
                 (A) (A) (A) (A) (A) (A) (A) (A) (A) (A) (A) (A)
                 (A) (A) (A) (A) (A) (A) (A) (A) (A) (A) (A) (A)
                 (A) (A) (A) (A) (A) (A) (A) (A) (A) (A) (A) (A)
                 (A) (A) (A) (A) (A) (A) (A) (A) (A) (A) (A) (A)
                 (A) (A) (A) (A) (A) (A) (A) (A) (A) (A) (A) (A)
    20 initial guesses have been made.
 Convergence on wavefunction:    0.001000000000000
 Davidson Disk Diagonalization:  ConvIn= 1.00D-03 SkipCon=T Conv= 1.00D-03.
 Max sub-space:  2000 roots to seek:    20 dimension of matrix:       549360
 Iteration     1 Dimension    20 NMult     0 NNew     20
 CISAX will form    20 AO SS matrices at one time.
 NMat=    20 NSing=    20 JSym2X= 0.
 FoFJK:  IHMeth= 1 ICntrl=       0 DoSepK=T KAlg= 0 I1Cent=           0 FoldK=F
 IRaf=         1 NMat=      40 IRICut=       1 DoRegI=T DoRafI=F ISym2E= 0 IDoP0=3 IntGTp=3.
 FoFCou: FMM=T IPFlag=           0 FMFlag=      100000 FMFlg1=        2001
         NFxFlg=           0 DoJE=F BraDBF=F KetDBF=F FulRan=T
         wScrn=  0.000000 ICntrl=       500 IOpCl=  0 I1Cent=           0 NGrid=           0
         NMat0=   20 NMatS0=     20 NMatT0=    0 NMatD0=   20 NMtDS0=    0 NMtDT0=    0
 Symmetry not used in FoFCou.
 FMM levels:  10  Number of levels for PrismC:   9
 New state      2 was old state      7
 New state      3 was old state      6
 New state      5 was old state      2
 Excitation Energies [eV] at current iteration:
 Root      1 :     2.475730514466178
 Root      2 :     2.607380149471928
 Root      3 :     2.621941763660876
 Root      4 :     2.626113482698977
 Root      5 :     2.640633052537402
 Root      6 :     2.732115420610702
 Root      7 :     3.266781175068144
 Root      8 :     3.424477677789362
 Root      9 :     3.623765997139125
 Root     10 :     3.667411748247078
 Root     11 :     3.740315874452001
 Root     12 :     3.760244839785534
 Root     13 :     4.266461423971623
 Root     14 :     4.342396537280467
 Root     15 :     4.379906028403451
 Root     16 :     4.552704823088895
 Root     17 :     4.671077583835292
 Root     18 :     4.758344298315812
 Root     19 :     4.852285084295895
 Root     20 :     4.854367027968000
 Iteration     2 Dimension    30 NMult    20 NNew     10
 CISAX will form    10 AO SS matrices at one time.
 NMat=    10 NSing=    10 JSym2X= 0.
 New state      1 was old state      5
 Root      1 not converged, maximum delta is    0.183057425593142
 Root      2 not converged, maximum delta is    0.243048161538986
 Root      3 not converged, maximum delta is    0.198066155309752
 New state      4 was old state      1
 Root      4 not converged, maximum delta is    0.004365742602587
 New state      5 was old state      4
 Root      5 not converged, maximum delta is    0.006000455937250
 Excitation Energies [eV] at current iteration:
 Root      1 :     1.780445239305243   Change is   -0.860187813232159
 Root      2 :     2.230926323706778   Change is   -0.376453825765149
 Root      3 :     2.238940160644171   Change is   -0.383001603016705
 Root      4 :     2.475055468088374   Change is   -0.000675046377804
 Root      5 :     2.625320471975368   Change is   -0.000793010723609
 Iteration     3 Dimension    40 NMult    30 NNew     10
 CISAX will form    10 AO SS matrices at one time.
 NMat=    10 NSing=    10 JSym2X= 0.
 Root      1 not converged, maximum delta is    0.054046465206687
 New state      2 was old state      3
 Root      2 not converged, maximum delta is    0.268472037610744
 New state      3 was old state      2
 Root      3 not converged, maximum delta is    0.115533227867998
 No map to state      4
 New state      5 was old state      4
 Root      5 has converged.
 Excitation Energies [eV] at current iteration:
 Root      1 :     1.675155474465647   Change is   -0.105289764839595
 Root      2 :     2.133854954939861   Change is   -0.105085205704310
 Root      3 :     2.190571916930650   Change is   -0.040354406776128
 Root      4 :     2.265426117950511
 Root      5 :     2.475050362935479   Change is   -0.000005105152895
 Iteration     4 Dimension    48 NMult    40 NNew      8
 CISAX will form     8 AO SS matrices at one time.
 NMat=     8 NSing=     8 JSym2X= 0.
 Root      1 not converged, maximum delta is    0.010690772783440
 Root      2 not converged, maximum delta is    0.366143298259155
 Root      3 not converged, maximum delta is    0.015702899388021
 Root      4 not converged, maximum delta is    0.261412393795236
 Root      5 has converged.
 Excitation Energies [eV] at current iteration:
 Root      1 :     1.658543117821491   Change is   -0.016612356644156
 Root      2 :     1.733733706263358   Change is   -0.400121248676504
 Root      3 :     2.183358804753596   Change is   -0.007213112177055
 Root      4 :     2.196327200306794   Change is   -0.069098917643717
 Root      5 :     2.475050357327579   Change is   -0.000000005607900
 Iteration     5 Dimension    56 NMult    48 NNew      8
 CISAX will form     8 AO SS matrices at one time.
 NMat=     8 NSing=     8 JSym2X= 0.
 Root      1 not converged, maximum delta is    0.001572985508238
 Root      2 not converged, maximum delta is    0.024010015647500
 Root      3 not converged, maximum delta is    0.004410782912357
 Root      4 not converged, maximum delta is    0.004292278802718
 Root      5 has converged.
 Excitation Energies [eV] at current iteration:
 Root      1 :     1.656817359570469   Change is   -0.001725758251022
 Root      2 :     1.701314654171408   Change is   -0.032419052091950
 Root      3 :     2.182519069880944   Change is   -0.000839734872652
 Root      4 :     2.194831358447288   Change is   -0.001495841859505
 Root      5 :     2.475050356459020   Change is   -0.000000000868559
 Iteration     6 Dimension    64 NMult    56 NNew      8
 CISAX will form     8 AO SS matrices at one time.
 NMat=     8 NSing=     8 JSym2X= 0.
 Root      1 has converged.
 Root      2 not converged, maximum delta is    0.006704846845261
 Root      3 has converged.
 Root      4 not converged, maximum delta is    0.001156682346130
 Root      5 has converged.
 Excitation Energies [eV] at current iteration:
 Root      1 :     1.656572610940583   Change is   -0.000244748629887
 Root      2 :     1.696961029747235   Change is   -0.004353624424173
 Root      3 :     2.182392859958605   Change is   -0.000126209922338
 Root      4 :     2.194639282512795   Change is   -0.000192075934493
 Root      5 :     2.475050355880125   Change is   -0.000000000578895
 Iteration     7 Dimension    68 NMult    64 NNew      4
 CISAX will form     4 AO SS matrices at one time.
 NMat=     4 NSing=     4 JSym2X= 0.
 Root      1 has converged.
 Root      2 not converged, maximum delta is    0.001234062377992
 Root      3 has converged.
 Root      4 has converged.
 Root      5 has converged.
 Excitation Energies [eV] at current iteration:
 Root      1 :     1.656572503346153   Change is   -0.000000107594429
[...]
 Alpha virt. eigenvalues --    1.83634   1.83676   1.83943   1.83995   1.84320
 Alpha virt. eigenvalues --    1.84374   1.84612   1.84725   1.84902   1.85022
 Alpha virt. eigenvalues --    1.85193   1.85211   1.85406   1.85412   1.85589
 Alpha virt. eigenvalues --    1.85786   1.86003   1.86282   1.86469   1.86480
 Alpha virt. eigenvalues --    1.86707   1.86746   1.86905   1.86964   1.87133
 Alpha virt. eigenvalues --    1.87354   1.87584   1.87599   1.87787   1.87868
 Alpha virt. eigenvalues --    1.87956   1.88109   1.88272   1.88445   1.88674
 Alpha virt. eigenvalues --    1.88725   1.89056   1.89067   1.89183   1.89545
 Alpha virt. eigenvalues --    1.89664   1.89753   1.89959   1.90035   1.90293
 Alpha virt. eigenvalues --    1.90669   1.91006   1.91261   1.91371   1.91518
 Alpha virt. eigenvalues --    1.91727   1.92071   1.92302   1.92502   1.92755
 Alpha virt. eigenvalues --    1.92906   1.93255   1.93271   1.93595   1.94205
 Alpha virt. eigenvalues --    1.94393   1.94615   1.94905   1.95415   1.95633
 Alpha virt. eigenvalues --    1.95682   1.95897   1.95921   1.96078   1.96151
 Alpha virt. eigenvalues --    1.96283   1.96517   1.96584   1.96809   1.97033
 Alpha virt. eigenvalues --    1.97372   1.97631   1.97758   1.97910   1.98076
 Alpha virt. eigenvalues --    1.98286   1.98457   1.98581   1.99048   1.99180
 Alpha virt. eigenvalues --    1.99716   2.00037   2.00583   2.00827   2.00908
 Alpha virt. eigenvalues --    2.01200   2.01360   2.01595   2.01602   2.01628
 Alpha virt. eigenvalues --    2.01703   2.01931   2.02694   2.02809   2.03160
 Alpha virt. eigenvalues --    2.03235   2.03315   2.03385   2.03481   2.03626
 Alpha virt. eigenvalues --    2.03951   2.04124   2.04876   2.05066   2.05435
 Alpha virt. eigenvalues --    2.05714   2.06000   2.06375   2.06808   2.07109
 Alpha virt. eigenvalues --    2.07146   2.07456   2.08517   2.08620   2.08887
 Alpha virt. eigenvalues --    2.09105   2.09488   2.09708   2.10720   2.11101
 Alpha virt. eigenvalues --    2.11120   2.11417   2.11506   2.11631   2.11635
 Alpha virt. eigenvalues --    2.11967   2.12366   2.12572   2.12721   2.12751
 Alpha virt. eigenvalues --    2.12894   2.12985   2.13635   2.13754   2.14082
 Alpha virt. eigenvalues --    2.14350   2.15252   2.15497   2.15839   2.16207
 Alpha virt. eigenvalues --    2.16450   2.16679   2.16694   2.17287   2.17336
 Alpha virt. eigenvalues --    2.17632   2.17738   2.18006   2.18063   2.18094
 Alpha virt. eigenvalues --    2.18232   2.18763   2.18780   2.19354   2.19544
 Alpha virt. eigenvalues --    2.19921   2.19934   2.20134   2.20350   2.20533
 Alpha virt. eigenvalues --    2.21091   2.21251   2.21590   2.21662   2.21866
 Alpha virt. eigenvalues --    2.21974   2.22594   2.22805   2.23244   2.23441
 Alpha virt. eigenvalues --    2.24318   2.24504   2.24900   2.25079   2.26204
 Alpha virt. eigenvalues --    2.26551   2.26702   2.27011   2.27106   2.27310
 Alpha virt. eigenvalues --    2.28042   2.28439   2.29184   2.29544   2.29637
 Alpha virt. eigenvalues --    2.29994   2.30345   2.30735   2.30926   2.30990
 Alpha virt. eigenvalues --    2.31091   2.31299   2.32049   2.32331   2.33039
 Alpha virt. eigenvalues --    2.33339   2.33373   2.33582   2.34061   2.34237
 Alpha virt. eigenvalues --    2.35275   2.35406   2.35695   2.36019   2.36290
 Alpha virt. eigenvalues --    2.36426   2.36528   2.36536   2.37594   2.37767
 Alpha virt. eigenvalues --    2.38183   2.38458   2.38734   2.38881   2.39520
 Alpha virt. eigenvalues --    2.39766   2.40103   2.40350   2.40377   2.40930
 Alpha virt. eigenvalues --    2.41145   2.41306   2.41609   2.41773   2.41944
 Alpha virt. eigenvalues --    2.42234   2.42874   2.42892   2.43153   2.43434
 Alpha virt. eigenvalues --    2.44057   2.44075   2.44638   2.44811   2.44894
 Alpha virt. eigenvalues --    2.45099   2.45472   2.45665   2.46223   2.46373
 Alpha virt. eigenvalues --    2.46393   2.46584   2.46707   2.46900   2.47183
 Alpha virt. eigenvalues --    2.47469   2.47632   2.47974   2.49237   2.49458
 Alpha virt. eigenvalues --    2.49966   2.49994   2.50472   2.50521   2.51013
 Alpha virt. eigenvalues --    2.51374   2.51682   2.51779   2.52320   2.52477
 Alpha virt. eigenvalues --    2.52709   2.53270   2.53837   2.54049   2.54077
 Alpha virt. eigenvalues --    2.54346   2.54714   2.54901   2.55442   2.55758
 Alpha virt. eigenvalues --    2.57778   2.58163   2.58565   2.58998   2.60104
 Alpha virt. eigenvalues --    2.60406   2.60496   2.61019   2.61625   2.61905
 Alpha virt. eigenvalues --    2.62425   2.62509   2.62868   2.63219   2.63833
 Alpha virt. eigenvalues --    2.64181   2.64320   2.64496   2.64992   2.65186
 Alpha virt. eigenvalues --    2.65667   2.65948   2.66701   2.66816   2.66891
 Alpha virt. eigenvalues --    2.67158   2.67827   2.68072   2.68761   2.68890
 Alpha virt. eigenvalues --    2.68925   2.69122   2.69308   2.69681   2.69907
 Alpha virt. eigenvalues --    2.70220   2.70891   2.71162   2.71967   2.71971
 Alpha virt. eigenvalues --    2.72563   2.72574   2.72726   2.72830   2.73206
 Alpha virt. eigenvalues --    2.73352   2.73432   2.73553   2.74428   2.74591
 Alpha virt. eigenvalues --    2.74885   2.75140   2.76514   2.76602   2.77146
 Alpha virt. eigenvalues --    2.77158   2.77369   2.77680   2.78119   2.78358
 Alpha virt. eigenvalues --    2.78635   2.78763   2.79046   2.79237   2.80259
 Alpha virt. eigenvalues --    2.80308   2.80483   2.80766   2.81039   2.81232
 Alpha virt. eigenvalues --    2.81839   2.82075   2.82264   2.82417   2.83664
 Alpha virt. eigenvalues --    2.83681   2.83900   2.83996   2.84469   2.84599
 Alpha virt. eigenvalues --    2.84812   2.84959   2.85585   2.85748   2.86726
 Alpha virt. eigenvalues --    2.86916   2.87249   2.87508   2.88071   2.88293
 Alpha virt. eigenvalues --    2.88428   2.88699   2.88855   2.88946   2.90390
 Alpha virt. eigenvalues --    2.90735   2.91121   2.91144   2.93051   2.93407
 Alpha virt. eigenvalues --    2.93843   2.94111   2.94486   2.94627   2.95237
 Alpha virt. eigenvalues --    2.95557   2.95918   2.96101   2.96358   2.96434
 Alpha virt. eigenvalues --    2.96947   2.97071   2.97697   2.98068   2.98108
 Alpha virt. eigenvalues --    2.98293   2.98441   2.98525   2.98660   2.98806
 Alpha virt. eigenvalues --    2.98877   2.98992   2.99503   2.99833   2.99927
 Alpha virt. eigenvalues --    3.00096   3.00120   3.00361   3.00377   3.01085
 Alpha virt. eigenvalues --    3.01915   3.01940   3.01978   3.02197   3.02632
 Alpha virt. eigenvalues --    3.02867   3.02875   3.03238   3.03385   3.03822
 Alpha virt. eigenvalues --    3.04093   3.04145   3.04379   3.04466   3.04490
 Alpha virt. eigenvalues --    3.04810   3.05229   3.05396   3.06019   3.06232
 Alpha virt. eigenvalues --    3.06680   3.07021   3.07961   3.08061   3.09274
 Alpha virt. eigenvalues --    3.09406   3.09581   3.10333   3.10498   3.10825
 Alpha virt. eigenvalues --    3.11275   3.11535   3.11823   3.11943   3.12120
 Alpha virt. eigenvalues --    3.12386   3.13167   3.13570   3.13722   3.13745
 Alpha virt. eigenvalues --    3.13992   3.14557   3.15861   3.16026   3.17188
 Alpha virt. eigenvalues --    3.17600   3.17926   3.18012   3.19053   3.19092
 Alpha virt. eigenvalues --    3.22208   3.22676   3.23865   3.24520   3.24599
 Alpha virt. eigenvalues --    3.25279   3.26424   3.26734   3.27475   3.27537
 Alpha virt. eigenvalues --    3.29002   3.29301   3.31443   3.31456   3.33261
 Alpha virt. eigenvalues --    3.33337   3.40335   3.40529   3.42744   3.42874
 Alpha virt. eigenvalues --    3.48585   3.48783   3.49936   3.50357   3.50915
 Alpha virt. eigenvalues --    3.51392   3.56476   3.57078   3.59027   3.59413
 Alpha virt. eigenvalues --    3.62595   3.62761   3.66127   3.66163   3.67088
 Alpha virt. eigenvalues --    3.67620   3.73182   3.74105   3.75975   3.76767
          Condensed to atoms (all electrons):
 Mulliken charges:
               1
     1  Mg   0.838493
     2  C   -0.003275
     3  C   -0.095003
     4  C   -0.045382
     5  C   -0.063709
     6  N   -0.256720
     7  C   -0.052773
     8  C   -0.013844
     9  C   -0.086872
    10  C    0.046010
    11  C    0.104782
    12  C    0.053785
    13  C   -0.071398
    14  H    0.034799
    15  N   -0.433145
    16  C    0.168181
    17  C   -0.177750
    18  C   -0.003935
    19  C    0.148764
    20  C    0.110316
    21  C    0.012630
    22  O   -0.248687
    23  C    0.062633
    24  N   -0.341092
    25  C    0.041171
    26  C   -0.028315
    27  C   -0.024050
    28  C    0.074885
    29  C    0.076053
    30  C    0.035056
    31  C   -0.004568
    32  N   -0.310537
    33  C    0.080495
    34  C   -0.169389
    35  C    0.008568
    36  C    0.083039
    37  C    0.127236
    38  C    0.046334
    39  O   -0.187794
    40  C   -0.005445
    41  C    0.213113
    42  O   -0.257611
    43  O   -0.304661
    44  C    0.157576
    45  H   -0.017739
    46  H   -0.016325
    47  H   -0.041172
    48  H    0.001254
    49  H   -0.004657
    50  H    0.025717
    51  H    0.016731
    52  H    0.016679
    53  H    0.009852
    54  H    0.043644
    55  H    0.018737
    56  H    0.017394
    57  H    0.005539
    58  H    0.027198
    59  H    0.038189
    60  H    0.037284
    61  H    0.036408
    62  H    0.030147
    63  H    0.017085
    64  H    0.009671
    65  H    0.023594
    66  H    0.012529
    67  H    0.004883
    68  H    0.006638
    69  H    0.004735
    70  H    0.009470
    71  H    0.017514
    72  H    0.029021
    73  H    0.048045
    74  H    0.009255
    75  H    0.046247
    76  H    0.035360
    77  H    0.043654
    78  H    0.045843
    79  H    0.053608
    80  Mg   0.838319
    81  C   -0.016514
    82  C   -0.087857
    83  C   -0.045427
    84  C   -0.064737
    85  N   -0.254641
    86  C   -0.048736
    87  C   -0.015165
    88  C   -0.090929
    89  C    0.046334
    90  C    0.114659
    91  C    0.062615
    92  C   -0.077440
    93  H    0.034199
    94  N   -0.423449
    95  C    0.162972
    96  C   -0.175168
    97  C   -0.007911
    98  C    0.151967
    99  C    0.099833
   100  C    0.015501
   101  O   -0.253077
   102  C    0.061407
   103  N   -0.349907
   104  C    0.037443
   105  C   -0.019776
   106  C   -0.034793
   107  C    0.089091
   108  C    0.073740
   109  C    0.034773
   110  C   -0.007591
   111  N   -0.324291
   112  C    0.078902
   113  C   -0.162736
   114  C    0.002866
   115  C    0.096322
   116  C    0.131246
   117  C    0.043002
   118  O   -0.187538
   119  C    0.000580
   120  C    0.211033
   121  O   -0.251510
   122  O   -0.305185
   123  C    0.152229
   124  H   -0.020706
   125  H   -0.015638
   126  H   -0.040637
   127  H    0.000149
   128  H   -0.005716
   129  H    0.026407
   130  H    0.014887
   131  H    0.014820
   132  H    0.013462
   133  H    0.037518
   134  H    0.020860
   135  H    0.018889
   136  H    0.007913
   137  H    0.024613
   138  H    0.039197
   139  H    0.037397
   140  H    0.036179
   141  H    0.033544
   142  H    0.014095
   143  H    0.012256
   144  H    0.024855
   145  H    0.012457
   146  H    0.004971
   147  H    0.005897
   148  H    0.003509
   149  H    0.010799
   150  H    0.017638
   151  H    0.030259
   152  H    0.045745
   153  H    0.008045
   154  H    0.048283
   155  H    0.037201
   156  H    0.043861
   157  H    0.049105
   158  H    0.053234
 Sum of Mulliken charges =  -0.00000
 Mulliken charges with hydrogens summed into heavy atoms:
               1
     1  Mg   0.838493
     2  C   -0.003275
     3  C   -0.112742
     4  C   -0.061708
     5  C   -0.104881
     6  N   -0.256720
     7  C   -0.052773
     8  C   -0.012590
     9  C   -0.091529
    10  C    0.046010
    11  C    0.163910
    12  C    0.107281
    13  C   -0.000468
    15  N   -0.433145
    16  C    0.168181
    17  C   -0.177750
    18  C   -0.003935
    19  C    0.148764
    20  C    0.181242
    21  C    0.012630
    22  O   -0.248687
    23  C    0.166472
    24  N   -0.341092
    25  C    0.041171
    26  C   -0.011230
    27  C   -0.014379
    28  C    0.074885
    29  C    0.117059
    30  C    0.046429
    31  C    0.051437
    32  N   -0.310537
    33  C    0.080495
    34  C   -0.169389
    35  C    0.008568
    36  C    0.083039
    37  C    0.230783
    38  C    0.046334
    39  O   -0.187794
    40  C    0.029915
    41  C    0.213113
    42  O   -0.257611
    43  O   -0.304661
    44  C    0.300681
    80  Mg   0.838319
    81  C   -0.016514
    82  C   -0.108563
    83  C   -0.061065
    84  C   -0.105375
    85  N   -0.254641
    86  C   -0.048736
    87  C   -0.015016
    88  C   -0.096645
    89  C    0.046334
    90  C    0.170773
    91  C    0.113595
    92  C   -0.003492
    94  N   -0.423449
    95  C    0.162972
    96  C   -0.175168
    97  C   -0.007911
    98  C    0.151967
    99  C    0.171555
   100  C    0.015501
   101  O   -0.253077
   102  C    0.168527
   103  N   -0.349907
   104  C    0.037443
   105  C   -0.005682
   106  C   -0.022537
   107  C    0.089091
   108  C    0.116023
   109  C    0.044180
   110  C    0.051105
   111  N   -0.324291
   112  C    0.078902
   113  C   -0.162736
   114  C    0.002866
   115  C    0.096322
   116  C    0.233320
   117  C    0.043002
   118  O   -0.187538
   119  C    0.037781
   120  C    0.211033
   121  O   -0.251510
   122  O   -0.305185
   123  C    0.298429
 Electronic spatial extent (au):  <R**2>=         115983.0208
 Charge=             -0.0000 electrons
 Dipole moment (field-independent basis, Debye):
    X=             -5.3654    Y=             -1.1877    Z=             -6.8326  Tot=              8.7683
 Quadrupole moment (field-independent basis, Debye-Ang):
   XX=           -529.7082   YY=           -542.9772   ZZ=           -453.5346
   XY=            -13.0573   XZ=              4.4922   YZ=            -51.7969
 Traceless Quadrupole moment (field-independent basis, Debye-Ang):
   XX=            -20.9682   YY=            -34.2372   ZZ=             55.2054
   XY=            -13.0573   XZ=              4.4922   YZ=            -51.7969
 Octapole moment (field-independent basis, Debye-Ang**2):
  XXX=           -516.5469  YYY=            423.5522  ZZZ=            -91.9031  XYY=             79.1244
  XXY=            -79.1574  XXZ=           -193.5092  XZZ=            -45.0556  YZZ=           -217.7583
  YYZ=           -161.8426  XYZ=            -40.3168
 Hexadecapole moment (field-independent basis, Debye-Ang**3):
 XXXX=         -95447.4256 YYYY=         -41997.2624 ZZZZ=         -23205.1887 XXXY=          -1236.8598
 XXXZ=            -97.7368 YYYX=            718.8880 YYYZ=          -1670.7360 ZZZX=            194.9762
 ZZZY=            214.9897 XXYY=         -22790.1428 XXZZ=         -17973.2484 YYZZ=         -10731.7952
 XXYZ=          -1835.4157 YYXZ=            -55.8609 ZZXY=            106.6181
 N-N= 1.493889105744D+04 E-N=-3.935871198181D+04  KE= 4.028801905717D+03
 Leave Link  601 at Fri Sep 10 11:50:09 2021, MaxMem= 23488102400 cpu:              16.9 elap:               0.8
 (Enter /sw/apps/gaussian-16.0/g16/l9999.exe)
 1\1\GINC-BP1-COMPUTE00092\SP\RCAM-B3LYP TD-FC\def2SVP\C68H72Mg2N8O8\OF
 15641\10-Sep-2021\0\\#p cam-b3lyp/Def2SVP td=(nstates=5)\\TDDFT excite
 d states in gaussian\\0,1\Mg,0,0.,0.,0.\C,0,-0.217,-2.218,2.801\C,0,-1
 .255,2.442,2.026\C,0,-0.245,1.85,-2.564\C,0,0.146,-2.824,-2.037\N,0,-0
 .617,-0.009,2.126\C,0,-0.594,-0.908,3.105\C,0,-0.936,-0.309,4.502\C,0,
 -1.773,0.964,4.032\C,0,-1.155,1.168,2.66\C,0,-3.263,0.685,3.863\C,0,0.
 345,0.11,5.299\C,0,0.124,0.397,6.787\H,0,1.168,0.033,7.733\N,0,-0.185,
 1.961,-0.152\C,0,-0.703,2.8,0.777\C,0,-0.62,4.156,0.193\C,0,-0.187,4.0
 15,-1.225\C,0,-0.214,2.583,-1.38\C,0,-0.887,5.406,0.974\C,0,0.181,5.01
 3,-2.277\O,0,0.303,4.69,-3.508\C,0,0.31,6.414,-1.837\N,0,-0.265,-0.413
 ,-2.029\C,0,-0.279,0.569,-2.937\C,0,-0.196,0.024,-4.332\C,0,0.124,-1.5
 33,-4.18\C,0,0.086,-1.632,-2.635\C,0,-1.451,0.205,-5.197\C,0,1.373,-2.
 07,-4.923\C,0,2.626,-1.49,-4.306\N,0,0.15,-2.144,0.303\C,0,0.173,-3.13
 6,-0.688\C,0,0.173,-4.438,0.004\C,0,0.133,-4.111,1.358\C,0,0.083,-2.69
 5,1.502\C,0,0.149,-5.715,-0.623\C,0,0.096,-4.629,2.716\O,0,0.208,-5.74
 7,3.221\C,0,-0.255,-3.428,3.701\C,0,0.717,-3.482,4.848\O,0,1.931,-3.25
 5,4.669\O,0,0.038,-3.556,6.003\C,0,0.943,-3.583,7.183\H,0,-1.859,3.22,
 2.497\H,0,-0.218,2.453,-3.474\H,0,0.276,-3.747,-2.605\H,0,-1.554,-0.94
 9,5.132\H,0,-1.585,1.831,4.665\H,0,-3.484,-0.377,3.969\H,0,-3.511,1.02
 7,2.858\H,0,-3.852,1.301,4.543\H,0,0.669,1.096,4.966\H,0,1.13,-0.639,5
 .189\H,0,-0.844,0.026,7.125\H,0,0.062,1.477,6.921\H,0,-1.344,5.186,1.9
 38\H,0,-1.651,5.963,0.432\H,0,0.007,6.02,1.084\H,0,-0.635,6.744,-1.405
 \H,0,0.665,6.97,-2.704\H,0,1.048,6.466,-1.036\H,0,0.608,0.501,-4.891\H
 ,0,-0.692,-2.156,-4.547\H,0,-1.267,0.74,-6.129\H,0,-2.204,0.714,-4.596
 \H,0,-1.967,-0.72,-5.453\H,0,1.356,-1.759,-5.967\H,0,1.452,-3.157,-4.9
 02\H,0,2.714,-0.522,-4.798\H,0,3.487,-2.121,-4.529\H,0,2.495,-1.303,-3
 .24\H,0,0.867,-6.333,-0.084\H,0,0.404,-5.642,-1.68\H,0,-0.891,-5.999,-
 0.463\H,0,-1.283,-3.581,4.028\H,0,0.698,-4.478,7.755\H,0,0.833,-2.619,
 7.68\H,0,2.,-3.754,6.976\Mg,0,10.51591,0.95276,0.80512\C,0,10.91684,-1
 .18645,3.65856\C,0,8.73402,3.05301,2.81719\C,0,9.7631,2.63053,-1.78057
 \C,0,11.31044,-1.79191,-1.19017\N,0,9.96494,0.83905,2.94422\C,0,10.225
 49,0.00952,3.94339\C,0,9.78677,0.5266,5.33971\C,0,8.63916,1.54645,4.86
 878\C,0,9.15611,1.86604,3.46761\C,0,7.27249,0.89521,4.73665\C,0,10.944
 51,1.27221,6.09185\C,0,10.68397,1.53164,7.5773\H,0,11.81091,1.4651,8.5
 0361\N,0,9.84439,2.81217,0.63121\C,0,9.1602,3.51993,1.55438\C,0,8.8798
 1,4.82434,0.93468\C,0,9.31045,4.76966,-0.4888\C,0,9.64418,3.36461,-0.6
 0945\C,0,8.33406,5.99102,1.70569\C,0,9.39431,5.80723,-1.56704\O,0,9.57
 042,5.48852,-2.79596\C,0,9.17097,7.20066,-1.15479\N,0,10.32522,0.4418,
 -1.20109\C,0,10.03966,1.37341,-2.12764\C,0,10.22472,0.82876,-3.52389\C
 ,0,10.92978,-0.59482,-3.33979\C,0,10.95029,-0.66946,-1.79726\C,0,8.947
 86,0.66131,-4.34728\C,0,12.25934,-0.82638,-4.10876\C,0,13.34244,0.0665
 ,-3.54745\N,0,11.20317,-1.06777,1.14151\C,0,11.44847,-2.05884,0.16596\
 C,0,11.78807,-3.30351,0.88562\C,0,11.69356,-2.95341,2.24098\C,0,11.301
 68,-1.59243,2.35785\C,0,12.08001,-4.55962,0.28306\C,0,11.82587,-3.4285
 9,3.59943\O,0,12.21663,-4.47243,4.12042\C,0,11.20589,-2.34036,4.5781\C
 ,0,12.18209,-2.11472,5.69999\O,0,13.29612,-1.60919,5.47637\O,0,11.5612
 2,-2.32944,6.8742\C,0,12.48572,-2.10731,8.01778\H,0,7.97206,3.666,3.29
 942\H,0,9.62148,3.19325,-2.70619\H,0,11.66602,-2.66533,-1.74097\H,0,9.
 36736,-0.22925,5.99283\H,0,8.62924,2.44177,5.48495\H,0,7.32209,-0.1755
 5,4.86761\H,0,6.92552,1.13893,3.74104\H,0,6.5637,1.36319,5.42581\H,0,1
 1.00061,2.30609,5.72757\H,0,11.87395,0.74987,5.97383\H,0,9.83952,0.943
 4,7.95655\H,0,10.36316,2.56928,7.6973\H,0,7.96077,5.6833,2.69025\H,0,7
 .44174,6.33712,1.17291\H,0,9.04465,6.81708,1.77879\H,0,8.18663,7.28978
 ,-0.70139\H,0,9.35987,7.80283,-2.04563\H,0,9.89977,7.45668,-0.37767\H,
 0,10.87478,1.4702,-4.10619\H,0,10.28541,-1.41642,-3.68562\H,0,8.97152,
 1.21247,-5.30631\H,0,8.10859,0.98245,-3.74475\H,0,8.68232,-0.3677,-4.5
 8353\H,0,12.14236,-0.5495,-5.15938\H,0,12.59943,-1.85627,-4.08308\H,0,
 13.16877,1.01731,-4.06018\H,0,14.32733,-0.33331,-3.7802\H,0,13.19424,0
 .23843,-2.47501\H,0,12.93341,-4.96643,0.8091\H,0,12.28161,-4.45297,-0.
 78078\H,0,11.14243,-5.08922,0.4721\H,0,10.25196,-2.72838,4.93731\H,0,1
 2.48123,-3.02435,8.61503\H,0,12.13287,-1.18262,8.51193\H,0,13.54152,-2
 .00448,7.79607\\Version=ES64L-G16RevA.03\State=1-A\HF=-4069.811475\RMS
 D=4.987e-09\PG=C01 [X(C68H72Mg2N8O8)]\\@


 The arm of the moral universe is long, but it bends toward justice.
 -- Martin Luther King, Jr.
 Job cpu time:       0 days 13 hours 30 minutes 39.6 seconds.
 Elapsed time:       0 days  0 hours 34 minutes 25.8 seconds.
 File lengths (MBytes):  RWF=  13225 Int=      0 D2E=      0 Chk=    574 Scr=      1
 Normal termination of Gaussian 16 at Fri Sep 10 11:50:10 2021.
