 Entering Gaussian System, Link 0=g16
 Initial command:
 /sw/apps/gaussian-16.0/g16/l1.exe "/tmp/Gau-43884.inp" -scrdir="/tmp/"
 Entering Link 1 = /sw/apps/gaussian-16.0/g16/l1.exe PID=     43885.
  
 Copyright (c) 1988,1990,1992,1993,1995,1998,2003,2009,2016,
            Gaussian, Inc.  All Rights Reserved.
  
 This is part of the Gaussian(R) 16 program.  It is based on
 the Gaussian(R) 09 system (copyright 2009, Gaussian, Inc.),
 the Gaussian(R) 03 system (copyright 2003, Gaussian, Inc.),
 the Gaussian(R) 98 system (copyright 1998, Gaussian, Inc.),
 the Gaussian(R) 94 system (copyright 1995, Gaussian, Inc.),
 the Gaussian 92(TM) system (copyright 1992, Gaussian, Inc.),
 the Gaussian 90(TM) system (copyright 1990, Gaussian, Inc.),
 the Gaussian 88(TM) system (copyright 1988, Gaussian, Inc.),
 the Gaussian 86(TM) system (copyright 1986, Carnegie Mellon
 University), and the Gaussian 82(TM) system (copyright 1983,
 Carnegie Mellon University). Gaussian is a federally registered
 trademark of Gaussian, Inc.
  
 This software contains proprietary and confidential information,
 including trade secrets, belonging to Gaussian, Inc.
  
 This software is provided under written license and may be
 used, copied, transmitted, or stored only in accord with that
 written license.
  
 The following legend is applicable only to US Government
 contracts under FAR:
  
                    RESTRICTED RIGHTS LEGEND
  
 Use, reproduction and disclosure by the US Government is
 subject to restrictions as set forth in subparagraphs (a)
 and (c) of the Commercial Computer Software - Restricted
 Rights clause in FAR 52.227-19.
  
 Gaussian, Inc.
 340 Quinnipiac St., Bldg. 40, Wallingford CT 06492
  
  
 ---------------------------------------------------------------
 Warning -- This program may not be used in any manner that
 competes with the business of Gaussian, Inc. or will provide
 assistance to any competitor of Gaussian, Inc.  The licensee
 of this program is prohibited from giving any competitor of
 Gaussian, Inc. access to this program.  By using this program,
 the user acknowledges that Gaussian, Inc. is engaged in the
 business of creating and licensing software in the field of
 computational chemistry and represents and warrants to the
 licensee that it is not a competitor of Gaussian, Inc. and that
 it will not use this program in any manner prohibited above.
 ---------------------------------------------------------------
  

 Cite this work as:
 Gaussian 16, Revision A.03,
 M. J. Frisch, G. W. Trucks, H. B. Schlegel, G. E. Scuseria, 
 M. A. Robb, J. R. Cheeseman, G. Scalmani, V. Barone, 
 G. A. Petersson, H. Nakatsuji, X. Li, M. Caricato, A. V. Marenich, 
 J. Bloino, B. G. Janesko, R. Gomperts, B. Mennucci, H. P. Hratchian, 
 J. V. Ortiz, A. F. Izmaylov, J. L. Sonnenberg, D. Williams-Young, 
 F. Ding, F. Lipparini, F. Egidi, J. Goings, B. Peng, A. Petrone, 
 T. Henderson, D. Ranasinghe, V. G. Zakrzewski, J. Gao, N. Rega, 
 G. Zheng, W. Liang, M. Hada, M. Ehara, K. Toyota, R. Fukuda, 
 J. Hasegawa, M. Ishida, T. Nakajima, Y. Honda, O. Kitao, H. Nakai, 
 T. Vreven, K. Throssell, J. A. Montgomery, Jr., J. E. Peralta, 
 F. Ogliaro, M. J. Bearpark, J. J. Heyd, E. N. Brothers, K. N. Kudin, 
 V. N. Staroverov, T. A. Keith, R. Kobayashi, J. Normand, 
 K. Raghavachari, A. P. Rendell, J. C. Burant, S. S. Iyengar, 
 J. Tomasi, M. Cossi, J. M. Millam, M. Klene, C. Adamo, R. Cammi, 
 J. W. Ochterski, R. L. Martin, K. Morokuma, O. Farkas, 
 J. B. Foresman, and D. J. Fox, Gaussian, Inc., Wallingford CT, 2016.
 
 ******************************************
 Gaussian 16:  ES64L-G16RevA.03 25-Dec-2016
                12-Sep-2021 
 ******************************************
 %nproc=24
 Will use up to   24 processors via shared memory.
 %mem=175gb
 -----------------------------------
 #p cam-b3lyp/Def2SVP td=(nstates=5)
 -----------------------------------
 1/38=1,172=1/1;
 2/12=2,17=6,18=5,40=1/2;
 3/5=43,7=101,11=9,25=1,30=1,74=-40/1,2,3,8;
 4//1;
 5/5=2,38=5/2;
 8/6=1,10=1,108=5/1;
 9/41=5,42=1,70=2/14;
 6/7=2,8=2,9=2,10=2/1;
 99/5=1,9=1/99;
 Leave Link    1 at Sun Sep 12 20:43:50 2021, MaxMem= 23488102400 cpu:               0.6 elap:               0.0
 (Enter /sw/apps/gaussian-16.0/g16/l101.exe)
 --------------------------------
 TDDFT excited states in gaussian
 --------------------------------
 Symbolic Z-matrix:
 Charge =  0 Multiplicity = 1
 Mg                    0.        0.        0. 
 C                    -0.217    -2.218     2.801 
 C                    -1.255     2.442     2.026 
 C                    -0.245     1.85     -2.564 
 C                     0.146    -2.824    -2.037 
 N                    -0.617    -0.009     2.126 
 C                    -0.594    -0.908     3.105 
 C                    -0.936    -0.309     4.502 
 C                    -1.773     0.964     4.032 
 C                    -1.155     1.168     2.66 
 C                    -3.263     0.685     3.863 
 C                     0.345     0.11      5.299 
 C                     0.124     0.397     6.787 
 H                     1.168     0.033     7.733 
 N                    -0.185     1.961    -0.152 
 C                    -0.703     2.8       0.777 
 C                    -0.62      4.156     0.193 
 C                    -0.187     4.015    -1.225 
 C                    -0.214     2.583    -1.38 
 C                    -0.887     5.406     0.974 
 C                     0.181     5.013    -2.277 
 O                     0.303     4.69     -3.508 
 C                     0.31      6.414    -1.837 
 N                    -0.265    -0.413    -2.029 
 C                    -0.279     0.569    -2.937 
 C                    -0.196     0.024    -4.332 
 C                     0.124    -1.533    -4.18 
 C                     0.086    -1.632    -2.635 
 C                    -1.451     0.205    -5.197 
 C                     1.373    -2.07     -4.923 
 C                     2.626    -1.49     -4.306 
 N                     0.15     -2.144     0.303 
 C                     0.173    -3.136    -0.688 
 C                     0.173    -4.438     0.004 
 C                     0.133    -4.111     1.358 
 C                     0.083    -2.695     1.502 
 C                     0.149    -5.715    -0.623 
 C                     0.096    -4.629     2.716 
 O                     0.208    -5.747     3.221 
 C                    -0.255    -3.428     3.701 
 C                     0.717    -3.482     4.848 
 O                     1.931    -3.255     4.669 
 O                     0.038    -3.556     6.003 
 C                     0.943    -3.583     7.183 
 H                    -1.859     3.22      2.497 
 H                    -0.218     2.453    -3.474 
 H                     0.276    -3.747    -2.605 
 H                    -1.554    -0.949     5.132 
 H                    -1.585     1.831     4.665 
 H                    -3.484    -0.377     3.969 
 H                    -3.511     1.027     2.858 
 H                    -3.852     1.301     4.543 
 H                     0.669     1.096     4.966 
 H                     1.13     -0.639     5.189 
 H                    -0.844     0.026     7.125 
 H                     0.062     1.477     6.921 
 H                    -1.344     5.186     1.938 
 H                    -1.651     5.963     0.432 
 H                     0.007     6.02      1.084 
 H                    -0.635     6.744    -1.405 
 H                     0.665     6.97     -2.704 
 H                     1.048     6.466    -1.036 
 H                     0.608     0.501    -4.891 
 H                    -0.692    -2.156    -4.547 
 H                    -1.267     0.74     -6.129 
 H                    -2.204     0.714    -4.596 
 H                    -1.967    -0.72     -5.453 
 H                     1.356    -1.759    -5.967 
 H                     1.452    -3.157    -4.902 
 H                     2.714    -0.522    -4.798 
 H                     3.487    -2.121    -4.529 
 H                     2.495    -1.303    -3.24 
 H                     0.867    -6.333    -0.084 
 H                     0.404    -5.642    -1.68 
 H                    -0.891    -5.999    -0.463 
 H                    -1.283    -3.581     4.028 
 H                     0.698    -4.478     7.755 
 H                     0.833    -2.619     7.68 
 H                     2.       -3.754     6.976 
 Mg                    31.54206   2.84296   2.39313 
 C                     33.67799   0.71725   4.34204 
 C                     32.72273   5.46284   4.23075 
 C                     29.35112   4.67297   1.00812 
 C                     29.73123  -0.00555   1.52561 
 N                     33.00937   2.94965   4.04476 
 C                     33.80293   2.08577   4.65982 
 C                     34.84164   2.73341   5.61439 
 C                     34.06653   4.10691   5.91698 
 C                     33.23672   4.20603   4.6386 
 C                     33.1149   4.01332   7.09807 
 C                     36.21931   2.99442   4.91019 
 C                     37.3712   3.33675   5.85767 
 H                     38.71017   2.85651   5.5275 
 N                     31.43311   4.81807   2.23309 
 C                     31.99116   5.73295   3.05338 
 C                     31.60024   7.04581   2.51698 
 C                     30.63009   6.82999   1.40931 
 C                     30.41318   5.4017    1.52342 
 C                     32.19821   8.33415   3.00283 
 C                     29.99209   7.75787   0.42027 
 O                     28.99726   7.39286  -0.30078 
 C                     30.50588   9.13498   0.38735 
 N                     29.67229   2.43447   1.58107 
 C                     28.9471   3.40259   0.9939 
 C                     27.77141   2.82419   0.24316 
 C                     27.99601   1.2408    0.24716 
 C                     29.27198   1.16839   1.11436 
 C                     26.39204   3.14375   0.81902 
 C                     27.99834   0.52683  -1.1323 
 C                     29.20926   0.95179  -1.93134 
 N                     31.76086   0.71298   2.68186 
 C                     30.87367  -0.30078   2.25845 
 C                     31.39054  -1.58006   2.78637 
 C                     32.53908  -1.21608   3.50531 
 C                     32.71365   0.19307   3.44759 
 C                     30.78257  -2.856     2.61761 
 C                     33.63757  -1.70231   4.30879 
 O                     34.05738  -2.81504   4.62399 
 C                     34.35335  -0.45839   4.99195 
 C                     35.83685  -0.61072   4.79567 
 O                     36.33226  -0.55888   3.65615 
 O                     36.44602  -0.57439   5.99482 
 C                     37.92003  -0.71059   5.85151 
 H                     32.85486   6.31761   4.89468 
 H                     28.62522   5.24514   0.42573 
 H                     29.27805  -0.95017   1.21738 
 H                     35.01096   2.19101   6.53684 
 H                     34.7575   4.94284   5.98882 
 H                     33.02865   3.00201   7.46681 
 H                     32.1588   4.36617   6.73417 
 H                     33.41649   4.71432   7.88164 
 H                     36.15897   3.93133   4.34159 
 H                     36.49499   2.1622    4.2921 
 H                     37.12757   3.10789   6.90228 
 H                     37.51854   4.41944   5.84783 
 H                     32.75896   8.19113   3.93476 
 H                     31.3651   8.98714   3.2846 
 H                     32.79712   8.83494   2.23916 
 H                     30.39096   9.58688   1.36972 
 H                     29.98815   9.6203   -0.44228 
 H                     31.58128   9.10229   0.17982 
 H                     27.75676   3.17446  -0.78163 
 H                     27.20587   0.7186    0.80647 
 H                     25.72161   3.64332   0.09443 
 H                     26.52389   3.75706   1.7005 
 H                     25.84632   2.28788   1.21257 
 H                     27.12251   0.82431  -1.71418 
 H                     27.98352  -0.55545  -1.05852 
 H                     28.88956   1.8971   -2.37997 
 H                     29.44364   0.21215  -2.69427 
 H                     30.05837   1.16977  -1.27321 
 H                     31.57742  -3.55077   2.38096 
 H                     30.02566  -2.83553   1.8363 
 H                     30.34487  -2.99622   3.60959 
 H                     34.07765  -0.46068   6.0472 
 H                     38.22461  -1.55774   6.47381 
 H                     38.33816   0.2804    6.11007 
 H                     38.30388  -1.0105    4.88343 
 
 ITRead=  0  0  0  0  0  0  0  0  0  0  0  0  0  0  0  0  0  0  0  0
 ITRead=  0  0  0  0  0  0  0  0  0  0  0  0  0  0  0  0  0  0  0  0
 ITRead=  0  0  0  0  0  0  0  0  0  0  0  0  0  0  0  0  0  0  0  0
 ITRead=  0  0  0  0  0  0  0  0  0  0  0  0  0  0  0  0  0  0  0  0
 ITRead=  0  0  0  0  0  0  0  0  0  0  0  0  0  0  0  0  0  0  0  0
 ITRead=  0  0  0  0  0  0  0  0  0  0  0  0  0  0  0  0  0  0  0  0
 ITRead=  0  0  0  0  0  0  0  0  0  0  0  0  0  0  0  0  0  0  0  0
 ITRead=  0  0  0  0  0  0  0  0  0  0  0  0  0  0  0  0  0  0
 MicOpt= -1 -1 -1 -1 -1 -1 -1 -1 -1 -1 -1 -1 -1 -1 -1 -1 -1 -1 -1 -1
 MicOpt= -1 -1 -1 -1 -1 -1 -1 -1 -1 -1 -1 -1 -1 -1 -1 -1 -1 -1 -1 -1
 MicOpt= -1 -1 -1 -1 -1 -1 -1 -1 -1 -1 -1 -1 -1 -1 -1 -1 -1 -1 -1 -1
 MicOpt= -1 -1 -1 -1 -1 -1 -1 -1 -1 -1 -1 -1 -1 -1 -1 -1 -1 -1 -1 -1
 MicOpt= -1 -1 -1 -1 -1 -1 -1 -1 -1 -1 -1 -1 -1 -1 -1 -1 -1 -1 -1 -1
 MicOpt= -1 -1 -1 -1 -1 -1 -1 -1 -1 -1 -1 -1 -1 -1 -1 -1 -1 -1 -1 -1
 MicOpt= -1 -1 -1 -1 -1 -1 -1 -1 -1 -1 -1 -1 -1 -1 -1 -1 -1 -1 -1 -1
 MicOpt= -1 -1 -1 -1 -1 -1 -1 -1 -1 -1 -1 -1 -1 -1 -1 -1 -1 -1
 NAtoms=    158 NQM=      158 NQMF=       0 NMMI=      0 NMMIF=      0
                NMic=       0 NMicF=      0.
                    Isotopes and Nuclear Properties:
 (Nuclear quadrupole moments (NQMom) in fm**2, nuclear magnetic moments (NMagM)
  in nuclear magnetons)

  Atom         1           2           3           4           5           6           7           8           9          10
 IAtWgt=          24          12          12          12          12          14          12          12          12          12
 AtmWgt=  23.9850450  12.0000000  12.0000000  12.0000000  12.0000000  14.0030740  12.0000000  12.0000000  12.0000000  12.0000000
 NucSpn=           0           0           0           0           0           2           0           0           0           0
 AtZEff=  -0.0000000  -0.0000000  -0.0000000  -0.0000000  -0.0000000  -0.0000000  -0.0000000  -0.0000000  -0.0000000  -0.0000000
 NQMom=    0.0000000   0.0000000   0.0000000   0.0000000   0.0000000   2.0440000   0.0000000   0.0000000   0.0000000   0.0000000
 NMagM=    0.0000000   0.0000000   0.0000000   0.0000000   0.0000000   0.4037610   0.0000000   0.0000000   0.0000000   0.0000000
 AtZNuc=  12.0000000   6.0000000   6.0000000   6.0000000   6.0000000   7.0000000   6.0000000   6.0000000   6.0000000   6.0000000

  Atom        11          12          13          14          15          16          17          18          19          20
 IAtWgt=          12          12          12           1          14          12          12          12          12          12
 AtmWgt=  12.0000000  12.0000000  12.0000000   1.0078250  14.0030740  12.0000000  12.0000000  12.0000000  12.0000000  12.0000000
 NucSpn=           0           0           0           1           2           0           0           0           0           0
 AtZEff=  -0.0000000  -0.0000000  -0.0000000  -0.0000000  -0.0000000  -0.0000000  -0.0000000  -0.0000000  -0.0000000  -0.0000000
 NQMom=    0.0000000   0.0000000   0.0000000   0.0000000   2.0440000   0.0000000   0.0000000   0.0000000   0.0000000   0.0000000
 NMagM=    0.0000000   0.0000000   0.0000000   2.7928460   0.4037610   0.0000000   0.0000000   0.0000000   0.0000000   0.0000000
 AtZNuc=   6.0000000   6.0000000   6.0000000   1.0000000   7.0000000   6.0000000   6.0000000   6.0000000   6.0000000   6.0000000

  Atom        21          22          23          24          25          26          27          28          29          30
 IAtWgt=          12          16          12          14          12          12          12          12          12          12
 AtmWgt=  12.0000000  15.9949146  12.0000000  14.0030740  12.0000000  12.0000000  12.0000000  12.0000000  12.0000000  12.0000000
 NucSpn=           0           0           0           2           0           0           0           0           0           0
 AtZEff=  -0.0000000  -0.0000000  -0.0000000  -0.0000000  -0.0000000  -0.0000000  -0.0000000  -0.0000000  -0.0000000  -0.0000000
 NQMom=    0.0000000   0.0000000   0.0000000   2.0440000   0.0000000   0.0000000   0.0000000   0.0000000   0.0000000   0.0000000
 NMagM=    0.0000000   0.0000000   0.0000000   0.4037610   0.0000000   0.0000000   0.0000000   0.0000000   0.0000000   0.0000000
 AtZNuc=   6.0000000   8.0000000   6.0000000   7.0000000   6.0000000   6.0000000   6.0000000   6.0000000   6.0000000   6.0000000

  Atom        31          32          33          34          35          36          37          38          39          40
 IAtWgt=          12          14          12          12          12          12          12          12          16          12
 AtmWgt=  12.0000000  14.0030740  12.0000000  12.0000000  12.0000000  12.0000000  12.0000000  12.0000000  15.9949146  12.0000000
 NucSpn=           0           2           0           0           0           0           0           0           0           0
 AtZEff=  -0.0000000  -0.0000000  -0.0000000  -0.0000000  -0.0000000  -0.0000000  -0.0000000  -0.0000000  -0.0000000  -0.0000000
 NQMom=    0.0000000   2.0440000   0.0000000   0.0000000   0.0000000   0.0000000   0.0000000   0.0000000   0.0000000   0.0000000
 NMagM=    0.0000000   0.4037610   0.0000000   0.0000000   0.0000000   0.0000000   0.0000000   0.0000000   0.0000000   0.0000000
 AtZNuc=   6.0000000   7.0000000   6.0000000   6.0000000   6.0000000   6.0000000   6.0000000   6.0000000   8.0000000   6.0000000

  Atom        41          42          43          44          45          46          47          48          49          50
 IAtWgt=          12          16          16          12           1           1           1           1           1           1
 AtmWgt=  12.0000000  15.9949146  15.9949146  12.0000000   1.0078250   1.0078250   1.0078250   1.0078250   1.0078250   1.0078250
 NucSpn=           0           0           0           0           1           1           1           1           1           1
 AtZEff=  -0.0000000  -0.0000000  -0.0000000  -0.0000000  -0.0000000  -0.0000000  -0.0000000  -0.0000000  -0.0000000  -0.0000000
 NQMom=    0.0000000   0.0000000   0.0000000   0.0000000   0.0000000   0.0000000   0.0000000   0.0000000   0.0000000   0.0000000
 NMagM=    0.0000000   0.0000000   0.0000000   0.0000000   2.7928460   2.7928460   2.7928460   2.7928460   2.7928460   2.7928460
 AtZNuc=   6.0000000   8.0000000   8.0000000   6.0000000   1.0000000   1.0000000   1.0000000   1.0000000   1.0000000   1.0000000

  Atom        51          52          53          54          55          56          57          58          59          60
 IAtWgt=           1           1           1           1           1           1           1           1           1           1
 AtmWgt=   1.0078250   1.0078250   1.0078250   1.0078250   1.0078250   1.0078250   1.0078250   1.0078250   1.0078250   1.0078250
 NucSpn=           1           1           1           1           1           1           1           1           1           1
 AtZEff=  -0.0000000  -0.0000000  -0.0000000  -0.0000000  -0.0000000  -0.0000000  -0.0000000  -0.0000000  -0.0000000  -0.0000000
 NQMom=    0.0000000   0.0000000   0.0000000   0.0000000   0.0000000   0.0000000   0.0000000   0.0000000   0.0000000   0.0000000
 NMagM=    2.7928460   2.7928460   2.7928460   2.7928460   2.7928460   2.7928460   2.7928460   2.7928460   2.7928460   2.7928460
 AtZNuc=   1.0000000   1.0000000   1.0000000   1.0000000   1.0000000   1.0000000   1.0000000   1.0000000   1.0000000   1.0000000

  Atom        61          62          63          64          65          66          67          68          69          70
 IAtWgt=           1           1           1           1           1           1           1           1           1           1
 AtmWgt=   1.0078250   1.0078250   1.0078250   1.0078250   1.0078250   1.0078250   1.0078250   1.0078250   1.0078250   1.0078250
 NucSpn=           1           1           1           1           1           1           1           1           1           1
 AtZEff=  -0.0000000  -0.0000000  -0.0000000  -0.0000000  -0.0000000  -0.0000000  -0.0000000  -0.0000000  -0.0000000  -0.0000000
 NQMom=    0.0000000   0.0000000   0.0000000   0.0000000   0.0000000   0.0000000   0.0000000   0.0000000   0.0000000   0.0000000
 NMagM=    2.7928460   2.7928460   2.7928460   2.7928460   2.7928460   2.7928460   2.7928460   2.7928460   2.7928460   2.7928460
 AtZNuc=   1.0000000   1.0000000   1.0000000   1.0000000   1.0000000   1.0000000   1.0000000   1.0000000   1.0000000   1.0000000

  Atom        71          72          73          74          75          76          77          78          79          80
 IAtWgt=           1           1           1           1           1           1           1           1           1          24
 AtmWgt=   1.0078250   1.0078250   1.0078250   1.0078250   1.0078250   1.0078250   1.0078250   1.0078250   1.0078250  23.9850450
 NucSpn=           1           1           1           1           1           1           1           1           1           0
 AtZEff=  -0.0000000  -0.0000000  -0.0000000  -0.0000000  -0.0000000  -0.0000000  -0.0000000  -0.0000000  -0.0000000  -0.0000000
 NQMom=    0.0000000   0.0000000   0.0000000   0.0000000   0.0000000   0.0000000   0.0000000   0.0000000   0.0000000   0.0000000
 NMagM=    2.7928460   2.7928460   2.7928460   2.7928460   2.7928460   2.7928460   2.7928460   2.7928460   2.7928460   0.0000000
 AtZNuc=   1.0000000   1.0000000   1.0000000   1.0000000   1.0000000   1.0000000   1.0000000   1.0000000   1.0000000  12.0000000

  Atom        81          82          83          84          85          86          87          88          89          90
 IAtWgt=          12          12          12          12          14          12          12          12          12          12
 AtmWgt=  12.0000000  12.0000000  12.0000000  12.0000000  14.0030740  12.0000000  12.0000000  12.0000000  12.0000000  12.0000000
 NucSpn=           0           0           0           0           2           0           0           0           0           0
 AtZEff=  -0.0000000  -0.0000000  -0.0000000  -0.0000000  -0.0000000  -0.0000000  -0.0000000  -0.0000000  -0.0000000  -0.0000000
 NQMom=    0.0000000   0.0000000   0.0000000   0.0000000   2.0440000   0.0000000   0.0000000   0.0000000   0.0000000   0.0000000
 NMagM=    0.0000000   0.0000000   0.0000000   0.0000000   0.4037610   0.0000000   0.0000000   0.0000000   0.0000000   0.0000000
 AtZNuc=   6.0000000   6.0000000   6.0000000   6.0000000   7.0000000   6.0000000   6.0000000   6.0000000   6.0000000   6.0000000

  Atom        91          92          93          94          95          96          97          98          99         100
 IAtWgt=          12          12           1          14          12          12          12          12          12          12
 AtmWgt=  12.0000000  12.0000000   1.0078250  14.0030740  12.0000000  12.0000000  12.0000000  12.0000000  12.0000000  12.0000000
 NucSpn=           0           0           1           2           0           0           0           0           0           0
 AtZEff=  -0.0000000  -0.0000000  -0.0000000  -0.0000000  -0.0000000  -0.0000000  -0.0000000  -0.0000000  -0.0000000  -0.0000000
 NQMom=    0.0000000   0.0000000   0.0000000   2.0440000   0.0000000   0.0000000   0.0000000   0.0000000   0.0000000   0.0000000
 NMagM=    0.0000000   0.0000000   2.7928460   0.4037610   0.0000000   0.0000000   0.0000000   0.0000000   0.0000000   0.0000000
 AtZNuc=   6.0000000   6.0000000   1.0000000   7.0000000   6.0000000   6.0000000   6.0000000   6.0000000   6.0000000   6.0000000

  Atom       101         102         103         104         105         106         107         108         109         110
 IAtWgt=          16          12          14          12          12          12          12          12          12          12
 AtmWgt=  15.9949146  12.0000000  14.0030740  12.0000000  12.0000000  12.0000000  12.0000000  12.0000000  12.0000000  12.0000000
 NucSpn=           0           0           2           0           0           0           0           0           0           0
 AtZEff=  -0.0000000  -0.0000000  -0.0000000  -0.0000000  -0.0000000  -0.0000000  -0.0000000  -0.0000000  -0.0000000  -0.0000000
 NQMom=    0.0000000   0.0000000   2.0440000   0.0000000   0.0000000   0.0000000   0.0000000   0.0000000   0.0000000   0.0000000
 NMagM=    0.0000000   0.0000000   0.4037610   0.0000000   0.0000000   0.0000000   0.0000000   0.0000000   0.0000000   0.0000000
 AtZNuc=   8.0000000   6.0000000   7.0000000   6.0000000   6.0000000   6.0000000   6.0000000   6.0000000   6.0000000   6.0000000

  Atom       111         112         113         114         115         116         117         118         119         120
 IAtWgt=          14          12          12          12          12          12          12          16          12          12
 AtmWgt=  14.0030740  12.0000000  12.0000000  12.0000000  12.0000000  12.0000000  12.0000000  15.9949146  12.0000000  12.0000000
 NucSpn=           2           0           0           0           0           0           0           0           0           0
 AtZEff=  -0.0000000  -0.0000000  -0.0000000  -0.0000000  -0.0000000  -0.0000000  -0.0000000  -0.0000000  -0.0000000  -0.0000000
 NQMom=    2.0440000   0.0000000   0.0000000   0.0000000   0.0000000   0.0000000   0.0000000   0.0000000   0.0000000   0.0000000
 NMagM=    0.4037610   0.0000000   0.0000000   0.0000000   0.0000000   0.0000000   0.0000000   0.0000000   0.0000000   0.0000000
 AtZNuc=   7.0000000   6.0000000   6.0000000   6.0000000   6.0000000   6.0000000   6.0000000   8.0000000   6.0000000   6.0000000

  Atom       121         122         123         124         125         126         127         128         129         130
 IAtWgt=          16          16          12           1           1           1           1           1           1           1
 AtmWgt=  15.9949146  15.9949146  12.0000000   1.0078250   1.0078250   1.0078250   1.0078250   1.0078250   1.0078250   1.0078250
 NucSpn=           0           0           0           1           1           1           1           1           1           1
 AtZEff=  -0.0000000  -0.0000000  -0.0000000  -0.0000000  -0.0000000  -0.0000000  -0.0000000  -0.0000000  -0.0000000  -0.0000000
 NQMom=    0.0000000   0.0000000   0.0000000   0.0000000   0.0000000   0.0000000   0.0000000   0.0000000   0.0000000   0.0000000
 NMagM=    0.0000000   0.0000000   0.0000000   2.7928460   2.7928460   2.7928460   2.7928460   2.7928460   2.7928460   2.7928460
 AtZNuc=   8.0000000   8.0000000   6.0000000   1.0000000   1.0000000   1.0000000   1.0000000   1.0000000   1.0000000   1.0000000

  Atom       131         132         133         134         135         136         137         138         139         140
 IAtWgt=           1           1           1           1           1           1           1           1           1           1
 AtmWgt=   1.0078250   1.0078250   1.0078250   1.0078250   1.0078250   1.0078250   1.0078250   1.0078250   1.0078250   1.0078250
 NucSpn=           1           1           1           1           1           1           1           1           1           1
 AtZEff=  -0.0000000  -0.0000000  -0.0000000  -0.0000000  -0.0000000  -0.0000000  -0.0000000  -0.0000000  -0.0000000  -0.0000000
 NQMom=    0.0000000   0.0000000   0.0000000   0.0000000   0.0000000   0.0000000   0.0000000   0.0000000   0.0000000   0.0000000
 NMagM=    2.7928460   2.7928460   2.7928460   2.7928460   2.7928460   2.7928460   2.7928460   2.7928460   2.7928460   2.7928460
 AtZNuc=   1.0000000   1.0000000   1.0000000   1.0000000   1.0000000   1.0000000   1.0000000   1.0000000   1.0000000   1.0000000

  Atom       141         142         143         144         145         146         147         148         149         150
 IAtWgt=           1           1           1           1           1           1           1           1           1           1
 AtmWgt=   1.0078250   1.0078250   1.0078250   1.0078250   1.0078250   1.0078250   1.0078250   1.0078250   1.0078250   1.0078250
 NucSpn=           1           1           1           1           1           1           1           1           1           1
 AtZEff=  -0.0000000  -0.0000000  -0.0000000  -0.0000000  -0.0000000  -0.0000000  -0.0000000  -0.0000000  -0.0000000  -0.0000000
 NQMom=    0.0000000   0.0000000   0.0000000   0.0000000   0.0000000   0.0000000   0.0000000   0.0000000   0.0000000   0.0000000
 NMagM=    2.7928460   2.7928460   2.7928460   2.7928460   2.7928460   2.7928460   2.7928460   2.7928460   2.7928460   2.7928460
 AtZNuc=   1.0000000   1.0000000   1.0000000   1.0000000   1.0000000   1.0000000   1.0000000   1.0000000   1.0000000   1.0000000

  Atom       151         152         153         154         155         156         157         158
 IAtWgt=           1           1           1           1           1           1           1           1
 AtmWgt=   1.0078250   1.0078250   1.0078250   1.0078250   1.0078250   1.0078250   1.0078250   1.0078250
 NucSpn=           1           1           1           1           1           1           1           1
 AtZEff=  -0.0000000  -0.0000000  -0.0000000  -0.0000000  -0.0000000  -0.0000000  -0.0000000  -0.0000000
 NQMom=    0.0000000   0.0000000   0.0000000   0.0000000   0.0000000   0.0000000   0.0000000   0.0000000
 NMagM=    2.7928460   2.7928460   2.7928460   2.7928460   2.7928460   2.7928460   2.7928460   2.7928460
 AtZNuc=   1.0000000   1.0000000   1.0000000   1.0000000   1.0000000   1.0000000   1.0000000   1.0000000
 Leave Link  101 at Sun Sep 12 20:43:50 2021, MaxMem= 23488102400 cpu:               5.2 elap:               0.2
 (Enter /sw/apps/gaussian-16.0/g16/l202.exe)
 Stoichiometry    C68H72Mg2N8O8
 Framework group  C1[X(C68H72Mg2N8O8)]
 Deg. of freedom   468
 Full point group                 C1      NOp   1
 Largest Abelian subgroup         C1      NOp   1
 Largest concise Abelian subgroup C1      NOp   1
                         Standard orientation:                         
 ---------------------------------------------------------------------
 Center     Atomic      Atomic             Coordinates (Angstroms)
 Number     Number       Type             X           Y           Z
 ---------------------------------------------------------------------
      1         12           0       16.089982    0.540340    0.273243
      2          6           0       16.272775   -2.850077   -0.859839
      3          6           0       16.974126    1.486495   -2.883677
      4          6           0       16.378483    3.505604    1.359797
      5          6           0       16.340402   -0.688131    3.524983
      6          7           0       16.537799   -0.626688   -1.553818
      7          6           0       16.513859   -1.917399   -1.871093
      8          6           0       16.694441   -2.182277   -3.395758
      9          6           0       17.455991   -0.839947   -3.795992
     10          6           0       16.932018    0.072328   -2.700944
     11          6           0       18.972752   -0.938907   -3.668918
     12          6           0       15.324581   -2.308547   -4.143603
     13          6           0       15.403990   -2.886785   -5.559474
     14          1           0       14.323527   -3.741093   -6.028627
     15          7           0       16.121384    2.262175   -0.694820
     16          6           0       16.493223    2.460722   -1.982298
     17          6           0       16.342765    3.910611   -2.231025
     18          6           0       16.035060    4.566020   -0.929545
     19          6           0       16.193913    3.460145   -0.020049
     20          6           0       16.442379    4.526526   -3.592816
     21          6           0       15.667974    5.969084   -0.562404
     22          8           0       15.669878    6.377830    0.648999
     23          6           0       15.388151    6.888765   -1.679958
     24          7           0       16.546144    1.325931    2.152710
     25          6           0       16.548652    2.646235    2.366661
     26          6           0       16.620689    2.961899    3.831279
     27          6           0       16.421338    1.572838    4.593199
     28          6           0       16.346831    0.636776    3.361734
     29          6           0       17.919772    3.624672    4.309949
     30          6           0       15.283497    1.503303    5.642437
     31          6           0       13.942014    1.611408    4.952629
     32          7           0       16.096896   -1.416461    1.212353
     33          6           0       16.234455   -1.694863    2.579922
     34          6           0       16.289510   -3.161752    2.718748
     35          6           0       16.196213   -3.637401    1.412265
     36          6           0       16.116052   -2.536703    0.512081
     37          6           0       16.469228   -3.877552    3.935205
     38          6           0       16.170396   -4.818923    0.565391
     39          8           0       16.113367   -6.032160    0.771051
     40          6           0       16.341645   -4.354406   -0.948124
     41          6           0       15.291062   -5.059858   -1.761710
     42          8           0       14.079996   -4.804308   -1.602401
     43          8           0       15.881678   -5.742220   -2.754734
     44          6           0       14.892818   -6.441652   -3.617928
     45          1           0       17.472245    1.889903   -3.767465
     46          1           0       16.372159    4.510347    1.787451
     47          1           0       16.332880   -1.145933    4.515848
     48          1           0       17.312826   -3.047131   -3.636700
     49          1           0       17.147222   -0.473235   -4.774719
     50          1           0       19.272975   -1.875893   -3.200043
     51          1           0       19.268893   -0.091574   -3.050193
     52          1           0       19.453230   -0.786400   -4.635696
     53          1           0       14.946112   -1.312027   -4.371133
     54          1           0       14.616056   -2.892345   -3.554962
     55          1           0       16.370327   -3.356769   -5.744446
     56          1           0       15.364672   -2.060001   -6.268757
     57          1           0       16.839585    3.822315   -4.322789
     58          1           0       17.196996    5.310562   -3.533237
     59          1           0       15.494247    4.953001   -3.920684
     60          1           0       16.265594    6.949847   -2.324095
     61          1           0       15.056565    7.821814   -1.225733
     62          1           0       14.588149    6.469230   -2.290643
     63          1           0       15.825639    3.646781    4.123268
     64          1           0       17.312789    1.278947    5.147831
     65          1           0       17.764893    4.580766    4.810551
     66          1           0       18.578299    3.736174    3.449019
     67          1           0       18.529828    3.009897    4.971236
     68          1           0       15.355796    2.340218    6.336189
     69          1           0       15.294419    0.584495    6.228886
     70          1           0       13.811906    2.687207    4.840563
     71          1           0       13.156922    1.186336    5.578853
     72          1           0       13.973316    1.180936    3.951530
     73          1           0       15.765652   -4.709489    3.906388
     74          1           0       16.292263   -3.238890    4.800304
     75          1           0       17.513695   -4.174707    3.842225
     76          1           0       17.350188   -4.635186   -1.249994
     77          1           0       15.166537   -7.496723   -3.629652
     78          1           0       14.882577   -5.910971   -4.570125
     79          1           0       13.873239   -6.497804   -3.234987
     80         12           0      -15.669588    0.739882    0.242542
     81          6           0      -17.765505   -2.165285    0.027540
     82          6           0      -17.205304    1.873195   -2.584431
     83          6           0      -13.538254    3.088377    0.145600
     84          6           0      -13.564396   -1.103568    2.319936
     85          7           0      -17.265058   -0.124169   -1.022430
     86          6           0      -18.029038   -1.204931   -0.971315
     87          6           0      -19.189644   -1.221507   -2.001985
     88          6           0      -18.558275   -0.224526   -3.091140
     89          6           0      -17.642475    0.587365   -2.177462
     90          6           0      -17.697216   -0.930339   -4.125422
     91          6           0      -20.525174   -0.651493   -1.407475
     92          6           0      -21.772091   -0.921389   -2.252526
     93          1           0      -23.036277   -1.174435   -1.566751
     94          7           0      -15.714291    2.475879   -0.718113
     95          6           0      -16.409301    2.768955   -1.837205
     96          6           0      -16.089056    4.169272   -2.154541
     97          6           0      -15.020781    4.628255   -1.225658
     98          6           0      -14.694574    3.381686   -0.562530
     99          6           0      -16.828908    4.957239   -3.196253
    100          6           0      -14.387518    5.965018   -0.984314
    101          8           0      -13.312396    6.086574   -0.297169
    102          6           0      -15.010702    7.116119   -1.653721
    103          7           0      -13.714533    0.898985    0.931596
    104          6           0      -13.029380    2.049284    0.807893
    105          6           0      -11.754398    2.014425    1.616353
    106          6           0      -11.845218    0.687811    2.504855
    107          6           0      -13.174400    0.113677    1.967246
    108          6           0      -10.455791    1.998855    0.810269
    109          6           0      -11.680102    0.856346    4.040108
    110          6           0      -12.856309    1.619795    4.604966
    111          7           0      -15.731082   -1.199192    1.193470
    112          6           0      -14.731780   -1.785336    2.000887
    113          6           0      -15.179298   -3.156371    2.320890
    114          6           0      -16.406870   -3.281728    1.653167
    115          6           0      -16.693811   -2.081157    0.949035
    116          6           0      -14.455291   -4.109150    3.091705
    117          6           0      -17.520107   -4.160430    1.375199
    118          8           0      -17.868555   -5.272522    1.769654
    119          6           0      -18.388670   -3.521746    0.207266
    120          6           0      -19.834346   -3.579692    0.618564
    121          8           0      -20.241930   -2.919433    1.590448
    122          8           0      -20.536118   -4.229072   -0.328108
    123          6           0      -21.977850   -4.302636    0.029369
    124          1           0      -17.459960    2.214108   -3.588334
    125          1           0      -12.819606    3.906368    0.234614
    126          1           0      -13.011029   -1.707469    3.042275
    127          1           0      -19.384397   -2.187932   -2.451291
    128          1           0      -19.320321    0.413277   -3.531449
    129          1           0      -17.555602   -1.974063   -3.887219
    130          1           0      -16.748560   -0.409666   -4.123179
    131          1           0      -18.116674   -0.788174   -5.125514
    132          1           0      -20.499336    0.444761   -1.455498
    133          1           0      -20.681113   -1.009898   -0.408548
    134          1           0      -21.592401   -1.683276   -3.020759
    135          1           0      -22.008375   -0.018398   -2.820681
    136          1           0      -17.446708    4.307638   -3.828496
    137          1           0      -16.077950    5.367364   -3.880155
    138          1           0      -17.406240    5.780634   -2.770359
    139          1           0      -15.011035    6.952045   -2.728686
    140          1           0      -14.472290    7.992992   -1.288929
    141          1           0      -16.060103    7.174931   -1.344009
    142          1           0      -11.689221    2.873348    2.272936
    143          1           0      -11.060175   -0.035248    2.238896
    144          1           0       -9.775072    2.833573    1.063144
    145          1           0      -10.706919    2.018385   -0.241916
    146          1           0       -9.872682    1.083123    0.891662
    147          1           0      -10.789542    1.449348    4.262391
    148          1           0      -11.580490   -0.085219    4.569755
    149          1           0      -12.582880    2.663618    4.423974
    150          1           0      -12.967673    1.419702    5.668744
    151          1           0      -13.769446    1.414520    4.034280
    152          1           0      -15.168262   -4.577999    3.756798
    153          1           0      -13.644109   -3.639660    3.644280
    154          1           0      -14.086124   -4.762927    2.296998
    155          1           0      -18.196926   -4.100010   -0.697396
    156          1           0      -22.258031   -5.360391    0.010898
    157          1           0      -22.496406   -3.631712   -0.681059
    158          1           0      -22.258524   -4.027108    1.039207
 ---------------------------------------------------------------------
 Rotational constants (GHZ):           0.0244601           0.0015786           0.0015484
 Leave Link  202 at Sun Sep 12 20:43:50 2021, MaxMem= 23488102400 cpu:               0.2 elap:               0.0
 (Enter /sw/apps/gaussian-16.0/g16/l301.exe)
 Standard basis: def2SVP (5D, 7F)
 Ernie: Thresh=  0.10000D-02 Tol=  0.10000D-05 Strict=F.
 There are  1658 symmetry adapted cartesian basis functions of A   symmetry.
 There are  1572 symmetry adapted basis functions of A   symmetry.
  1572 basis functions,  2678 primitive gaussians,  1658 cartesian basis functions
   312 alpha electrons      312 beta electrons
       nuclear repulsion energy     12294.5722607111 Hartrees.
 IExCor=20419 DFT=T Ex+Corr=CAM-B3LYP ExCW=0 ScaHFX=  1.000000
 ScaDFX=  1.000000  1.000000  1.000000  0.810000 ScalE2=  1.000000  1.000000
 IRadAn=      5 IRanWt=     -1 IRanGd=            0 ICorTp=0 IEmpDi=  4
 HFx  wShort=  0.000000 wLong=  0.330000 cFull=  0.190000 cShort=  0.000000 cLong=  0.460000
 DFx  wShort=  0.000000 wLong=  0.330000 cFull=  0.190000 cShort=  0.000000 cLong=  0.460000
 NAtoms=  158 NActive=  158 NUniq=  158 SFac= 1.00D+00 NAtFMM=   60 NAOKFM=T Big=T
 Integral buffers will be    131072 words long.
 Raffenetti 1 integral format.
 Two-electron integral symmetry is turned on.
 Leave Link  301 at Sun Sep 12 20:43:50 2021, MaxMem= 23488102400 cpu:               1.4 elap:               0.1
 (Enter /sw/apps/gaussian-16.0/g16/l302.exe)
 NPDir=0 NMtPBC=     1 NCelOv=     1 NCel=       1 NClECP=     1 NCelD=      1
         NCelK=      1 NCelE2=     1 NClLst=     1 CellRange=     0.0.
 One-electron integrals computed using PRISM.
 One-electron integral symmetry used in STVInt
   1 Symmetry operations used in ECPInt.
 ECPInt:  NShTT=  271216 NPrTT=  987664 LenC2=  103957 LenP2D=  239866.
 LDataN:  DoStor=T MaxTD1= 4 Len=   56
 NBasis=  1572 RedAO= T EigKep=  3.36D-04  NBF=  1572
 NBsUse=  1572 1.00D-06 EigRej= -1.00D+00 NBFU=  1572
 Precomputing XC quadrature grid using
 IXCGrd= 4 IRadAn=           5 IRanWt=          -1 IRanGd=           0 AccXCQ= 0.00D+00.
 Generated NRdTot=       0 NPtTot=           0 NUsed=           0 NTot=          32
 NSgBfM=   812   812   812   812   812 MxSgAt=   158 MxSgA2=    79.
 Leave Link  302 at Sun Sep 12 20:43:54 2021, MaxMem= 23488102400 cpu:              98.8 elap:               4.1
 (Enter /sw/apps/gaussian-16.0/g16/l303.exe)
 DipDrv:  MaxL=1.
 Leave Link  303 at Sun Sep 12 20:43:55 2021, MaxMem= 23488102400 cpu:               8.9 elap:               0.4
 (Enter /sw/apps/gaussian-16.0/g16/l308.exe)
 Leave Link  308 at Sun Sep 12 20:43:55 2021, MaxMem= 23488102400 cpu:              15.1 elap:               0.7
 (Enter /sw/apps/gaussian-16.0/g16/l401.exe)
 ExpMin= 3.36D-02 ExpMax= 4.95D+03 ExpMxC= 7.45D+02 IAcc=3 IRadAn=         5 AccDes= 0.00D+00
 Harris functional with IExCor=20419 and IRadAn=       5 diagonalized for initial guess.
 HarFok:  IExCor=20419 AccDes= 0.00D+00 IRadAn=         5 IDoV= 1 UseB2=F ITyADJ=14
 ICtDFT=  3500011 ScaDFX=  1.000000  1.000000  1.000000  1.000000
 FoFCou: FMM=F IPFlag=           0 FMFlag=      100000 FMFlg1=        2001
         NFxFlg=           0 DoJE=T BraDBF=F KetDBF=T FulRan=T
         wScrn=  0.000000 ICntrl=       500 IOpCl=  0 I1Cent=   200000004 NGrid=           0
         NMat0=    1 NMatS0=      1 NMatT0=    0 NMatD0=    1 NMtDS0=    0 NMtDT0=    0
 Petite list used in FoFCou.
 Harris En= -3918.65801702738    
 JPrj=0 DoOrth=F DoCkMO=F.
 Leave Link  401 at Sun Sep 12 20:44:02 2021, MaxMem= 23488102400 cpu:             158.5 elap:               6.6
 (Enter /sw/apps/gaussian-16.0/g16/l502.exe)
 Integral symmetry usage will be decided dynamically.
 Closed shell SCF:
 Using DIIS extrapolation, IDIIS=  1040.
 NGot= 23488102400 LenX= 23482547354 LenY= 23479796732
 Requested convergence on RMS density matrix=1.00D-08 within 128 cycles.
 Requested convergence on MAX density matrix=1.00D-06.
 Requested convergence on             energy=1.00D-06.
 No special actions if energy rises.
 Fock matrices will be formed incrementally for  20 cycles.

 Cycle   1  Pass 1  IDiag  1:
 FoFJK:  IHMeth= 1 ICntrl=       0 DoSepK=T KAlg= 0 I1Cent=           0 FoldK=F
 IRaf=         1 NMat=       1 IRICut=       1 DoRegI=T DoRafI=F ISym2E= 0 IDoP0=0 IntGTp=1.
 FoFCou: FMM=T IPFlag=           0 FMFlag=      100000 FMFlg1=        2001
         NFxFlg=           0 DoJE=T BraDBF=F KetDBF=F FulRan=T
         wScrn=  0.000000 ICntrl=       500 IOpCl=  0 I1Cent=           0 NGrid=           0
         NMat0=    1 NMatS0=      1 NMatT0=    0 NMatD0=    1 NMtDS0=    0 NMtDT0=    0
 Symmetry not used in FoFCou.
 FMM levels:  10  Number of levels for PrismC:   9
 E= -4068.94926711001    
 DIIS: error= 2.04D-02 at cycle   1 NSaved=   1.
 NSaved= 1 IEnMin= 1 EnMin= -4068.94926711001     IErMin= 1 ErrMin= 2.04D-02
 ErrMax= 2.04D-02  0.00D+00 EMaxC= 1.00D-01 BMatC= 1.69D+00 BMatP= 1.69D+00
 IDIUse=3 WtCom= 7.96D-01 WtEn= 2.04D-01
 Coeff-Com:  0.100D+01
 Coeff-En:   0.100D+01
 Coeff:      0.100D+01
 Gap=     0.120 Goal=   None    Shift=    0.000
 GapD=    0.120 DampG=1.000 DampE=0.500 DampFc=0.5000 IDamp=-1.
 Damping current iteration by 5.00D-01
 RMSDP=1.57D-03 MaxDP=1.35D-01              OVMax= 2.03D-01

 Cycle   2  Pass 1  IDiag  1:
 RMSU=  7.69D-04    CP:  9.82D-01
 E= -4069.33816831934     Delta-E=       -0.388901209326 Rises=F Damp=T
 DIIS: error= 1.27D-02 at cycle   2 NSaved=   2.
 NSaved= 2 IEnMin= 2 EnMin= -4069.33816831934     IErMin= 2 ErrMin= 1.27D-02
 ErrMax= 1.27D-02  0.00D+00 EMaxC= 1.00D-01 BMatC= 3.07D-01 BMatP= 1.69D+00
 IDIUse=3 WtCom= 8.73D-01 WtEn= 1.27D-01
 Coeff-Com: -0.213D+00 0.121D+01
 Coeff-En:   0.000D+00 0.100D+01
 Coeff:     -0.186D+00 0.119D+01
 Gap=     0.138 Goal=   None    Shift=    0.000
 RMSDP=7.65D-04 MaxDP=9.43D-02 DE=-3.89D-01 OVMax= 1.88D-01

 Cycle   3  Pass 1  IDiag  1:
 RMSU=  7.32D-04    CP:  9.68D-01  1.24D+00
 E= -4069.62786988611     Delta-E=       -0.289701566775 Rises=F Damp=F
 DIIS: error= 1.58D-02 at cycle   3 NSaved=   3.
 NSaved= 3 IEnMin= 3 EnMin= -4069.62786988611     IErMin= 2 ErrMin= 1.27D-02
 ErrMax= 1.58D-02  0.00D+00 EMaxC= 1.00D-01 BMatC= 2.02D-01 BMatP= 3.07D-01
 IDIUse=3 WtCom= 8.42D-01 WtEn= 1.58D-01
 Coeff-Com: -0.267D+00 0.652D+00 0.616D+00
 Coeff-En:   0.000D+00 0.000D+00 0.100D+01
 Coeff:     -0.225D+00 0.549D+00 0.676D+00
 Gap=     0.125 Goal=   None    Shift=    0.000
 RMSDP=5.08D-04 MaxDP=4.76D-02 DE=-2.90D-01 OVMax= 1.43D-01

 Cycle   4  Pass 1  IDiag  1:
 RMSU=  2.65D-04    CP:  9.65D-01  1.55D+00  5.06D-01
 E= -4069.76500796341     Delta-E=       -0.137138077296 Rises=F Damp=F
 DIIS: error= 7.32D-03 at cycle   4 NSaved=   4.
 NSaved= 4 IEnMin= 4 EnMin= -4069.76500796341     IErMin= 4 ErrMin= 7.32D-03
 ErrMax= 7.32D-03  0.00D+00 EMaxC= 1.00D-01 BMatC= 5.05D-02 BMatP= 2.02D-01
 IDIUse=3 WtCom= 9.27D-01 WtEn= 7.32D-02
 Coeff-Com: -0.109D+00 0.226D+00 0.409D+00 0.474D+00
 Coeff-En:   0.000D+00 0.000D+00 0.221D+00 0.779D+00
 Coeff:     -0.101D+00 0.209D+00 0.395D+00 0.497D+00
 Gap=     0.123 Goal=   None    Shift=    0.000
 RMSDP=2.00D-04 MaxDP=1.96D-02 DE=-1.37D-01 OVMax= 6.18D-02

 Cycle   5  Pass 1  IDiag  1:
 RMSU=  7.59D-05    CP:  9.64D-01  1.49D+00  6.89D-01  5.49D-01
 E= -4069.81053439468     Delta-E=       -0.045526431266 Rises=F Damp=F
 DIIS: error= 7.86D-04 at cycle   5 NSaved=   5.
 NSaved= 5 IEnMin= 5 EnMin= -4069.81053439468     IErMin= 5 ErrMin= 7.86D-04
 ErrMax= 7.86D-04  0.00D+00 EMaxC= 1.00D-01 BMatC= 1.17D-03 BMatP= 5.05D-02
 IDIUse=3 WtCom= 9.92D-01 WtEn= 7.86D-03
 Coeff-Com: -0.358D-01 0.702D-01 0.165D+00 0.249D+00 0.551D+00
 Coeff-En:   0.000D+00 0.000D+00 0.000D+00 0.000D+00 0.100D+01
 Coeff:     -0.355D-01 0.697D-01 0.164D+00 0.247D+00 0.555D+00
 Gap=     0.123 Goal=   None    Shift=    0.000
 RMSDP=4.08D-05 MaxDP=4.16D-03 DE=-4.55D-02 OVMax= 1.64D-02

 Cycle   6  Pass 1  IDiag  1:
 RMSU=  3.02D-05    CP:  9.64D-01  1.49D+00  6.81D-01  6.21D-01  7.58D-01
 E= -4069.81154509009     Delta-E=       -0.001010695412 Rises=F Damp=F
 DIIS: error= 2.19D-04 at cycle   6 NSaved=   6.
 NSaved= 6 IEnMin= 6 EnMin= -4069.81154509009     IErMin= 6 ErrMin= 2.19D-04
 ErrMax= 2.19D-04  0.00D+00 EMaxC= 1.00D-01 BMatC= 1.76D-04 BMatP= 1.17D-03
 IDIUse=3 WtCom= 9.98D-01 WtEn= 2.19D-03
 Coeff-Com:  0.231D-02-0.677D-02 0.109D-01 0.398D-01 0.306D+00 0.648D+00
 Coeff-En:   0.000D+00 0.000D+00 0.000D+00 0.000D+00 0.103D+00 0.897D+00
 Coeff:      0.230D-02-0.676D-02 0.109D-01 0.397D-01 0.306D+00 0.648D+00
 Gap=     0.123 Goal=   None    Shift=    0.000
 RMSDP=1.58D-05 MaxDP=1.23D-03 DE=-1.01D-03 OVMax= 7.25D-03

 Cycle   7  Pass 1  IDiag  1:
 RMSU=  1.07D-05    CP:  9.64D-01  1.50D+00  6.87D-01  6.21D-01  8.59D-01
                    CP:  7.49D-01
 E= -4069.81173415745     Delta-E=       -0.000189067367 Rises=F Damp=F
 DIIS: error= 8.34D-05 at cycle   7 NSaved=   7.
 NSaved= 7 IEnMin= 7 EnMin= -4069.81173415745     IErMin= 7 ErrMin= 8.34D-05
 ErrMax= 8.34D-05  0.00D+00 EMaxC= 1.00D-01 BMatC= 2.08D-05 BMatP= 1.76D-04
 IDIUse=1 WtCom= 1.00D+00 WtEn= 0.00D+00
 Coeff-Com:  0.446D-02-0.975D-02-0.898D-02-0.381D-02 0.102D+00 0.329D+00
 Coeff-Com:  0.587D+00
 Coeff:      0.446D-02-0.975D-02-0.898D-02-0.381D-02 0.102D+00 0.329D+00
 Coeff:      0.587D+00
 Gap=     0.123 Goal=   None    Shift=    0.000
 RMSDP=6.50D-06 MaxDP=1.11D-03 DE=-1.89D-04 OVMax= 3.40D-03

 Cycle   8  Pass 1  IDiag  1:
 RMSU=  4.67D-06    CP:  9.64D-01  1.50D+00  6.88D-01  6.26D-01  8.63D-01
                    CP:  8.75D-01  8.23D-01
 E= -4069.81175994239     Delta-E=       -0.000025784939 Rises=F Damp=F
 DIIS: error= 5.01D-05 at cycle   8 NSaved=   8.
 NSaved= 8 IEnMin= 8 EnMin= -4069.81175994239     IErMin= 8 ErrMin= 5.01D-05
 ErrMax= 5.01D-05  0.00D+00 EMaxC= 1.00D-01 BMatC= 4.82D-06 BMatP= 2.08D-05
 IDIUse=1 WtCom= 1.00D+00 WtEn= 0.00D+00
 Coeff-Com:  0.215D-02-0.426D-02-0.775D-02-0.121D-01-0.116D-01 0.335D-01
 Coeff-Com:  0.344D+00 0.656D+00
 Coeff:      0.215D-02-0.426D-02-0.775D-02-0.121D-01-0.116D-01 0.335D-01
 Coeff:      0.344D+00 0.656D+00
 Gap=     0.123 Goal=   None    Shift=    0.000
 RMSDP=3.27D-06 MaxDP=3.54D-04 DE=-2.58D-05 OVMax= 1.11D-03

 Cycle   9  Pass 1  IDiag  1:
 RMSU=  1.91D-06    CP:  9.64D-01  1.50D+00  6.88D-01  6.27D-01  8.80D-01
                    CP:  9.01D-01  1.02D+00  9.40D-01
 E= -4069.81176763877     Delta-E=       -0.000007696375 Rises=F Damp=F
 DIIS: error= 1.94D-05 at cycle   9 NSaved=   9.
 NSaved= 9 IEnMin= 9 EnMin= -4069.81176763877     IErMin= 9 ErrMin= 1.94D-05
 ErrMax= 1.94D-05  0.00D+00 EMaxC= 1.00D-01 BMatC= 6.87D-07 BMatP= 4.82D-06
 IDIUse=1 WtCom= 1.00D+00 WtEn= 0.00D+00
 Coeff-Com:  0.462D-03-0.767D-03-0.266D-02-0.598D-02-0.212D-01-0.386D-01
 Coeff-Com:  0.104D+00 0.326D+00 0.639D+00
 Coeff:      0.462D-03-0.767D-03-0.266D-02-0.598D-02-0.212D-01-0.386D-01
 Coeff:      0.104D+00 0.326D+00 0.639D+00
 Gap=     0.123 Goal=   None    Shift=    0.000
 RMSDP=1.41D-06 MaxDP=1.50D-04 DE=-7.70D-06 OVMax= 7.42D-04

 Cycle  10  Pass 1  IDiag  1:
 RMSU=  9.37D-07    CP:  9.64D-01  1.50D+00  6.88D-01  6.28D-01  8.83D-01
                    CP:  9.15D-01  1.07D+00  1.11D+00  1.05D+00
 E= -4069.81176922287     Delta-E=       -0.000001584101 Rises=F Damp=F
 DIIS: error= 1.02D-05 at cycle  10 NSaved=  10.
 NSaved=10 IEnMin=10 EnMin= -4069.81176922287     IErMin=10 ErrMin= 1.02D-05
 ErrMax= 1.02D-05  0.00D+00 EMaxC= 1.00D-01 BMatC= 1.71D-07 BMatP= 6.87D-07
 IDIUse=1 WtCom= 1.00D+00 WtEn= 0.00D+00
 Coeff-Com: -0.426D-03 0.893D-03 0.123D-02 0.112D-02-0.376D-02-0.309D-01
 Coeff-Com: -0.464D-01-0.762D-01 0.255D+00 0.900D+00
 Coeff:     -0.426D-03 0.893D-03 0.123D-02 0.112D-02-0.376D-02-0.309D-01
 Coeff:     -0.464D-01-0.762D-01 0.255D+00 0.900D+00
 Gap=     0.123 Goal=   None    Shift=    0.000
 RMSDP=1.22D-06 MaxDP=1.24D-04 DE=-1.58D-06 OVMax= 6.09D-04

 Cycle  11  Pass 1  IDiag  1:
 RMSU=  5.15D-07    CP:  9.64D-01  1.50D+00  6.88D-01  6.28D-01  8.86D-01
                    CP:  9.25D-01  1.11D+00  1.22D+00  1.39D+00  1.37D+00
 E= -4069.81177000874     Delta-E=       -0.000000785865 Rises=F Damp=F
 DIIS: error= 3.95D-06 at cycle  11 NSaved=  11.
 NSaved=11 IEnMin=11 EnMin= -4069.81177000874     IErMin=11 ErrMin= 3.95D-06
 ErrMax= 3.95D-06  0.00D+00 EMaxC= 1.00D-01 BMatC= 6.12D-08 BMatP= 1.71D-07
 IDIUse=1 WtCom= 1.00D+00 WtEn= 0.00D+00
 Coeff-Com: -0.327D-03 0.635D-03 0.133D-02 0.212D-02 0.440D-02-0.836D-02
 Coeff-Com: -0.435D-01-0.132D+00-0.235D-01 0.465D+00 0.734D+00
 Coeff:     -0.327D-03 0.635D-03 0.133D-02 0.212D-02 0.440D-02-0.836D-02
 Coeff:     -0.435D-01-0.132D+00-0.235D-01 0.465D+00 0.734D+00
 Gap=     0.123 Goal=   None    Shift=    0.000
 RMSDP=6.86D-07 MaxDP=5.86D-05 DE=-7.86D-07 OVMax= 3.73D-04

 Cycle  12  Pass 1  IDiag  1:
 RMSU=  2.63D-07    CP:  9.64D-01  1.50D+00  6.88D-01  6.28D-01  8.87D-01
                    CP:  9.27D-01  1.14D+00  1.28D+00  1.56D+00  1.76D+00
                    CP:  1.20D+00
 E= -4069.81177027120     Delta-E=       -0.000000262466 Rises=F Damp=F
 DIIS: error= 2.34D-06 at cycle  12 NSaved=  12.
 NSaved=12 IEnMin=12 EnMin= -4069.81177027120     IErMin=12 ErrMin= 2.34D-06
 ErrMax= 2.34D-06  0.00D+00 EMaxC= 1.00D-01 BMatC= 1.48D-08 BMatP= 6.12D-08
 IDIUse=1 WtCom= 1.00D+00 WtEn= 0.00D+00
 Coeff-Com: -0.123D-06-0.163D-04 0.180D-03 0.511D-03 0.330D-02 0.405D-02
 Coeff-Com:  0.277D-02-0.349D-01-0.680D-01-0.749D-01 0.251D+00 0.916D+00
 Coeff:     -0.123D-06-0.163D-04 0.180D-03 0.511D-03 0.330D-02 0.405D-02
 Coeff:      0.277D-02-0.349D-01-0.680D-01-0.749D-01 0.251D+00 0.916D+00
 Gap=     0.123 Goal=   None    Shift=    0.000
 RMSDP=4.37D-07 MaxDP=3.00D-05 DE=-2.62D-07 OVMax= 2.49D-04

 Cycle  13  Pass 1  IDiag  1:
 RMSU=  1.65D-07    CP:  9.64D-01  1.50D+00  6.88D-01  6.28D-01  8.87D-01
                    CP:  9.28D-01  1.14D+00  1.31D+00  1.67D+00  1.99D+00
                    CP:  1.61D+00  1.27D+00
 E= -4069.81177036311     Delta-E=       -0.000000091906 Rises=F Damp=F
 DIIS: error= 1.23D-06 at cycle  13 NSaved=  13.
 NSaved=13 IEnMin=13 EnMin= -4069.81177036311     IErMin=13 ErrMin= 1.23D-06
 ErrMax= 1.23D-06  0.00D+00 EMaxC= 1.00D-01 BMatC= 8.12D-09 BMatP= 1.48D-08
 IDIUse=1 WtCom= 1.00D+00 WtEn= 0.00D+00
 Coeff-Com:  0.120D-03-0.245D-03-0.369D-03-0.456D-03 0.573D-03 0.508D-02
 Coeff-Com:  0.197D-01 0.228D-01-0.339D-01-0.241D+00-0.156D+00 0.598D+00
 Coeff-Com:  0.786D+00
 Coeff:      0.120D-03-0.245D-03-0.369D-03-0.456D-03 0.573D-03 0.508D-02
 Coeff:      0.197D-01 0.228D-01-0.339D-01-0.241D+00-0.156D+00 0.598D+00
 Coeff:      0.786D+00
 Gap=     0.123 Goal=   None    Shift=    0.000
 RMSDP=3.39D-07 MaxDP=2.07D-05 DE=-9.19D-08 OVMax= 1.97D-04

 Cycle  14  Pass 1  IDiag  1:
 RMSU=  7.60D-08    CP:  9.64D-01  1.50D+00  6.88D-01  6.28D-01  8.87D-01
                    CP:  9.28D-01  1.15D+00  1.33D+00  1.74D+00  2.18D+00
                    CP:  1.87D+00  1.79D+00  1.09D+00
 E= -4069.81177039890     Delta-E=       -0.000000035796 Rises=F Damp=F
 DIIS: error= 6.37D-07 at cycle  14 NSaved=  14.
 NSaved=14 IEnMin=14 EnMin= -4069.81177039890     IErMin=14 ErrMin= 6.37D-07
 ErrMax= 6.37D-07  0.00D+00 EMaxC= 1.00D-01 BMatC= 1.25D-09 BMatP= 8.12D-09
 IDIUse=1 WtCom= 1.00D+00 WtEn= 0.00D+00
 Coeff-Com:  0.662D-04-0.131D-03-0.246D-03-0.386D-03-0.482D-03 0.129D-02
 Coeff-Com:  0.107D-01 0.192D-01 0.370D-02-0.996D-01-0.142D+00 0.931D-01
 Coeff-Com:  0.404D+00 0.710D+00
 Coeff:      0.662D-04-0.131D-03-0.246D-03-0.386D-03-0.482D-03 0.129D-02
 Coeff:      0.107D-01 0.192D-01 0.370D-02-0.996D-01-0.142D+00 0.931D-01
 Coeff:      0.404D+00 0.710D+00
 Gap=     0.123 Goal=   None    Shift=    0.000
 RMSDP=1.01D-07 MaxDP=6.48D-06 DE=-3.58D-08 OVMax= 5.44D-05

 Cycle  15  Pass 1  IDiag  1:
 RMSU=  3.82D-08    CP:  9.64D-01  1.50D+00  6.88D-01  6.28D-01  8.87D-01
                    CP:  9.28D-01  1.15D+00  1.34D+00  1.76D+00  2.22D+00
                    CP:  1.98D+00  1.92D+00  1.33D+00  1.03D+00
 E= -4069.81177040281     Delta-E=       -0.000000003907 Rises=F Damp=F
 DIIS: error= 3.39D-07 at cycle  15 NSaved=  15.
 NSaved=15 IEnMin=15 EnMin= -4069.81177040281     IErMin=15 ErrMin= 3.39D-07
 ErrMax= 3.39D-07  0.00D+00 EMaxC= 1.00D-01 BMatC= 2.25D-10 BMatP= 1.25D-09
 IDIUse=1 WtCom= 1.00D+00 WtEn= 0.00D+00
 Coeff-Com:  0.518D-05-0.858D-05-0.320D-04-0.808D-04-0.299D-03-0.515D-03
 Coeff-Com:  0.112D-02 0.250D-02 0.875D-02 0.185D-02-0.305D-01-0.731D-01
 Coeff-Com:  0.287D-01 0.297D+00 0.765D+00
 Coeff:      0.518D-05-0.858D-05-0.320D-04-0.808D-04-0.299D-03-0.515D-03
 Coeff:      0.112D-02 0.250D-02 0.875D-02 0.185D-02-0.305D-01-0.731D-01
 Coeff:      0.287D-01 0.297D+00 0.765D+00
 Gap=     0.123 Goal=   None    Shift=    0.000
 RMSDP=4.05D-08 MaxDP=2.33D-06 DE=-3.91D-09 OVMax= 2.69D-05

 Cycle  16  Pass 1  IDiag  1:
 RMSU=  1.87D-08    CP:  9.64D-01  1.50D+00  6.88D-01  6.28D-01  8.87D-01
                    CP:  9.28D-01  1.15D+00  1.34D+00  1.76D+00  2.23D+00
                    CP:  2.00D+00  1.98D+00  1.40D+00  1.24D+00  1.15D+00
 E= -4069.81177040371     Delta-E=       -0.000000000904 Rises=F Damp=F
 DIIS: error= 1.64D-07 at cycle  16 NSaved=  16.
 NSaved=16 IEnMin=16 EnMin= -4069.81177040371     IErMin=16 ErrMin= 1.64D-07
 ErrMax= 1.64D-07  0.00D+00 EMaxC= 1.00D-01 BMatC= 8.15D-11 BMatP= 2.25D-10
 IDIUse=1 WtCom= 1.00D+00 WtEn= 0.00D+00
 Coeff-Com: -0.142D-04 0.287D-04 0.469D-04 0.537D-04-0.269D-04-0.633D-03
 Coeff-Com: -0.198D-02-0.426D-02 0.453D-02 0.255D-01 0.206D-01-0.645D-01
 Coeff-Com: -0.831D-01-0.375D-01 0.398D+00 0.743D+00
 Coeff:     -0.142D-04 0.287D-04 0.469D-04 0.537D-04-0.269D-04-0.633D-03
 Coeff:     -0.198D-02-0.426D-02 0.453D-02 0.255D-01 0.206D-01-0.645D-01
 Coeff:     -0.831D-01-0.375D-01 0.398D+00 0.743D+00
 Gap=     0.123 Goal=   None    Shift=    0.000
 RMSDP=2.29D-08 MaxDP=1.27D-06 DE=-9.04D-10 OVMax= 1.30D-05

 Cycle  17  Pass 1  IDiag  1:
 RMSU=  1.04D-08    CP:  9.64D-01  1.50D+00  6.88D-01  6.28D-01  8.87D-01
                    CP:  9.28D-01  1.15D+00  1.34D+00  1.77D+00  2.24D+00
                    CP:  2.02D+00  2.01D+00  1.45D+00  1.34D+00  1.44D+00
                    CP:  1.25D+00
 E= -4069.81177040387     Delta-E=       -0.000000000153 Rises=F Damp=F
 DIIS: error= 9.36D-08 at cycle  17 NSaved=  17.
 NSaved=17 IEnMin=17 EnMin= -4069.81177040387     IErMin=17 ErrMin= 9.36D-08
 ErrMax= 9.36D-08  0.00D+00 EMaxC= 1.00D-01 BMatC= 1.77D-11 BMatP= 8.15D-11
 IDIUse=1 WtCom= 1.00D+00 WtEn= 0.00D+00
 Coeff-Com: -0.716D-05 0.139D-04 0.284D-04 0.424D-04 0.838D-04-0.122D-03
 Coeff-Com: -0.957D-03-0.279D-02 0.133D-03 0.918D-02 0.174D-01-0.716D-02
 Coeff-Com: -0.366D-01-0.101D+00-0.316D-01 0.293D+00 0.861D+00
 Coeff:     -0.716D-05 0.139D-04 0.284D-04 0.424D-04 0.838D-04-0.122D-03
 Coeff:     -0.957D-03-0.279D-02 0.133D-03 0.918D-02 0.174D-01-0.716D-02
 Coeff:     -0.366D-01-0.101D+00-0.316D-01 0.293D+00 0.861D+00
 Gap=     0.123 Goal=   None    Shift=    0.000
 RMSDP=1.37D-08 MaxDP=8.72D-07 DE=-1.53D-10 OVMax= 8.93D-06

 Cycle  18  Pass 1  IDiag  1:
 RMSU=  4.86D-09    CP:  9.64D-01  1.50D+00  6.88D-01  6.28D-01  8.87D-01
                    CP:  9.28D-01  1.15D+00  1.34D+00  1.77D+00  2.24D+00
                    CP:  2.02D+00  2.02D+00  1.47D+00  1.41D+00  1.61D+00
                    CP:  1.66D+00  1.39D+00
 E= -4069.81177040403     Delta-E=       -0.000000000162 Rises=F Damp=F
 DIIS: error= 5.14D-08 at cycle  18 NSaved=  18.
 NSaved=18 IEnMin=18 EnMin= -4069.81177040403     IErMin=18 ErrMin= 5.14D-08
 ErrMax= 5.14D-08  0.00D+00 EMaxC= 1.00D-01 BMatC= 6.90D-12 BMatP= 1.77D-11
 IDIUse=1 WtCom= 1.00D+00 WtEn= 0.00D+00
 Coeff-Com:  0.207D-05-0.445D-05-0.465D-05-0.182D-05 0.590D-04 0.184D-03
 Coeff-Com:  0.407D-03 0.233D-03-0.129D-02-0.622D-02-0.171D-03 0.202D-01
 Coeff-Com:  0.186D-01-0.324D-01-0.163D+00-0.193D+00 0.349D+00 0.101D+01
 Coeff:      0.207D-05-0.445D-05-0.465D-05-0.182D-05 0.590D-04 0.184D-03
 Coeff:      0.407D-03 0.233D-03-0.129D-02-0.622D-02-0.171D-03 0.202D-01
 Coeff:      0.186D-01-0.324D-01-0.163D+00-0.193D+00 0.349D+00 0.101D+01
 Gap=     0.123 Goal=   None    Shift=    0.000
 RMSDP=1.18D-08 MaxDP=6.64D-07 DE=-1.62D-10 OVMax= 6.82D-06

 Cycle  19  Pass 1  IDiag  1:
 RMSU=  2.78D-09    CP:  9.64D-01  1.50D+00  6.88D-01  6.28D-01  8.87D-01
                    CP:  9.28D-01  1.15D+00  1.34D+00  1.77D+00  2.24D+00
                    CP:  2.03D+00  2.02D+00  1.48D+00  1.46D+00  1.77D+00
                    CP:  1.99D+00  1.94D+00  1.38D+00
 E= -4069.81177040403     Delta-E=       -0.000000000002 Rises=F Damp=F
 DIIS: error= 3.34D-08 at cycle  19 NSaved=  19.
 NSaved=19 IEnMin=19 EnMin= -4069.81177040403     IErMin=19 ErrMin= 3.34D-08
 ErrMax= 3.34D-08  0.00D+00 EMaxC= 1.00D-01 BMatC= 1.40D-12 BMatP= 6.90D-12
 IDIUse=1 WtCom= 1.00D+00 WtEn= 0.00D+00
 Coeff-Com:  0.286D-05-0.576D-05-0.979D-05-0.123D-04 0.107D-04 0.117D-03
 Coeff-Com:  0.471D-03 0.788D-03-0.585D-03-0.589D-02-0.478D-02 0.119D-01
 Coeff-Com:  0.199D-01 0.114D-01-0.677D-01-0.176D+00-0.336D-01 0.487D+00
 Coeff-Com:  0.757D+00
 Coeff:      0.286D-05-0.576D-05-0.979D-05-0.123D-04 0.107D-04 0.117D-03
 Coeff:      0.471D-03 0.788D-03-0.585D-03-0.589D-02-0.478D-02 0.119D-01
 Coeff:      0.199D-01 0.114D-01-0.677D-01-0.176D+00-0.336D-01 0.487D+00
 Coeff:      0.757D+00
 Gap=     0.123 Goal=   None    Shift=    0.000
 RMSDP=4.49D-09 MaxDP=2.73D-07 DE=-1.82D-12 OVMax= 2.93D-06

 SCF Done:  E(RCAM-B3LYP) =  -4069.81177040     A.U. after   19 cycles
            NFock= 19  Conv=0.45D-08     -V/T= 2.0102
 KE= 4.028801974125D+03 PE=-3.407002040081D+04 EE= 1.367683439557D+04
 Leave Link  502 at Sun Sep 12 20:52:22 2021, MaxMem= 23488102400 cpu:           11411.6 elap:             499.4
 (Enter /sw/apps/gaussian-16.0/g16/l801.exe)
 DoSCS=F DFT=T ScalE2(SS,OS)=  1.000000  1.000000
 ExpMin= 3.36D-02 ExpMax= 4.95D+03 ExpMxC= 7.45D+02 IAcc=3 IRadAn=         5 AccDes= 0.00D+00
 HarFok:  IExCor=  205 AccDes= 0.00D+00 IRadAn=         5 IDoV=-2 UseB2=F ITyADJ=14
 ICtDFT= 12500011 ScaDFX=  1.000000  1.000000  1.000000  1.000000
 GSVD:  LWork=       -9588 too small for GESVD, short by       45590 words or       45590 for optimal perf.
 Largest valence mixing into a core orbital is  2.03D-04
 Largest core mixing into a valence orbital is  5.24D-05
 Range of M.O.s used for correlation:    95  1572
 NBasis=  1572 NAE=   312 NBE=   312 NFC=    94 NFV=     0
 NROrb=   1478 NOA=   218 NOB=   218 NVA=  1260 NVB=  1260
 Leave Link  801 at Sun Sep 12 20:52:22 2021, MaxMem= 23488102400 cpu:              10.3 elap:               0.4
 (Enter /sw/apps/gaussian-16.0/g16/l914.exe)
 RHF ground state
 Two-electron integrals replicated using symmetry.
 MDV= 23488102400 DFT=T DoStab=F Mixed=T DoRPA=T DoScal=F NonHer=T
 Making orbital integer symmetry assigments:
 Orbital symmetries:
       Occupied  (A) (A) (A) (A) (A) (A) (A) (A) (A) (A) (A) (A)
                 (A) (A) (A) (A) (A) (A) (A) (A) (A) (A) (A) (A)
                 (A) (A) (A) (A) (A) (A) (A) (A) (A) (A) (A) (A)
                 (A) (A) (A) (A) (A) (A) (A) (A) (A) (A) (A) (A)
                 (A) (A) (A) (A) (A) (A) (A) (A) (A) (A) (A) (A)
                 (A) (A) (A) (A) (A) (A) (A) (A) (A) (A) (A) (A)
                 (A) (A) (A) (A) (A) (A) (A) (A) (A) (A) (A) (A)
                 (A) (A) (A) (A) (A) (A) (A) (A) (A) (A) (A) (A)
                 (A) (A) (A) (A) (A) (A) (A) (A) (A) (A) (A) (A)
                 (A) (A) (A) (A) (A) (A) (A) (A) (A) (A) (A) (A)
                 (A) (A) (A) (A) (A) (A) (A) (A) (A) (A) (A) (A)
                 (A) (A) (A) (A) (A) (A) (A) (A) (A) (A) (A) (A)
                 (A) (A) (A) (A) (A) (A) (A) (A) (A) (A) (A) (A)
                 (A) (A) (A) (A) (A) (A) (A) (A) (A) (A) (A) (A)
                 (A) (A) (A) (A) (A) (A) (A) (A) (A) (A) (A) (A)
                 (A) (A) (A) (A) (A) (A) (A) (A) (A) (A) (A) (A)
                 (A) (A) (A) (A) (A) (A) (A) (A) (A) (A) (A) (A)
                 (A) (A) (A) (A) (A) (A) (A) (A) (A) (A) (A) (A)
                 (A) (A) (A) (A) (A) (A) (A) (A) (A) (A) (A) (A)
                 (A) (A) (A) (A) (A) (A) (A) (A) (A) (A) (A) (A)
                 (A) (A) (A) (A) (A) (A) (A) (A) (A) (A) (A) (A)
                 (A) (A) (A) (A) (A) (A) (A) (A) (A) (A) (A) (A)
                 (A) (A) (A) (A) (A) (A) (A) (A) (A) (A) (A) (A)
                 (A) (A) (A) (A) (A) (A) (A) (A) (A) (A) (A) (A)
                 (A) (A) (A) (A) (A) (A) (A) (A) (A) (A) (A) (A)
                 (A) (A) (A) (A) (A) (A) (A) (A) (A) (A) (A) (A)
       Virtual   (A) (A) (A) (A) (A) (A) (A) (A) (A) (A) (A) (A)
                 (A) (A) (A) (A) (A) (A) (A) (A) (A) (A) (A) (A)
                 (A) (A) (A) (A) (A) (A) (A) (A) (A) (A) (A) (A)
                 (A) (A) (A) (A) (A) (A) (A) (A) (A) (A) (A) (A)
                 (A) (A) (A) (A) (A) (A) (A) (A) (A) (A) (A) (A)
                 (A) (A) (A) (A) (A) (A) (A) (A) (A) (A) (A) (A)
                 (A) (A) (A) (A) (A) (A) (A) (A) (A) (A) (A) (A)
                 (A) (A) (A) (A) (A) (A) (A) (A) (A) (A) (A) (A)
                 (A) (A) (A) (A) (A) (A) (A) (A) (A) (A) (A) (A)
                 (A) (A) (A) (A) (A) (A) (A) (A) (A) (A) (A) (A)
                 (A) (A) (A) (A) (A) (A) (A) (A) (A) (A) (A) (A)
                 (A) (A) (A) (A) (A) (A) (A) (A) (A) (A) (A) (A)
                 (A) (A) (A) (A) (A) (A) (A) (A) (A) (A) (A) (A)
                 (A) (A) (A) (A) (A) (A) (A) (A) (A) (A) (A) (A)
                 (A) (A) (A) (A) (A) (A) (A) (A) (A) (A) (A) (A)
                 (A) (A) (A) (A) (A) (A) (A) (A) (A) (A) (A) (A)
                 (A) (A) (A) (A) (A) (A) (A) (A) (A) (A) (A) (A)
                 (A) (A) (A) (A) (A) (A) (A) (A) (A) (A) (A) (A)
                 (A) (A) (A) (A) (A) (A) (A) (A) (A) (A) (A) (A)
                 (A) (A) (A) (A) (A) (A) (A) (A) (A) (A) (A) (A)
                 (A) (A) (A) (A) (A) (A) (A) (A) (A) (A) (A) (A)
                 (A) (A) (A) (A) (A) (A) (A) (A) (A) (A) (A) (A)
                 (A) (A) (A) (A) (A) (A) (A) (A) (A) (A) (A) (A)
                 (A) (A) (A) (A) (A) (A) (A) (A) (A) (A) (A) (A)
                 (A) (A) (A) (A) (A) (A) (A) (A) (A) (A) (A) (A)
                 (A) (A) (A) (A) (A) (A) (A) (A) (A) (A) (A) (A)
                 (A) (A) (A) (A) (A) (A) (A) (A) (A) (A) (A) (A)
                 (A) (A) (A) (A) (A) (A) (A) (A) (A) (A) (A) (A)
                 (A) (A) (A) (A) (A) (A) (A) (A) (A) (A) (A) (A)
                 (A) (A) (A) (A) (A) (A) (A) (A) (A) (A) (A) (A)
                 (A) (A) (A) (A) (A) (A) (A) (A) (A) (A) (A) (A)
                 (A) (A) (A) (A) (A) (A) (A) (A) (A) (A) (A) (A)
                 (A) (A) (A) (A) (A) (A) (A) (A) (A) (A) (A) (A)
                 (A) (A) (A) (A) (A) (A) (A) (A) (A) (A) (A) (A)
                 (A) (A) (A) (A) (A) (A) (A) (A) (A) (A) (A) (A)
                 (A) (A) (A) (A) (A) (A) (A) (A) (A) (A) (A) (A)
                 (A) (A) (A) (A) (A) (A) (A) (A) (A) (A) (A) (A)
                 (A) (A) (A) (A) (A) (A) (A) (A) (A) (A) (A) (A)
                 (A) (A) (A) (A) (A) (A) (A) (A) (A) (A) (A) (A)
                 (A) (A) (A) (A) (A) (A) (A) (A) (A) (A) (A) (A)
                 (A) (A) (A) (A) (A) (A) (A) (A) (A) (A) (A) (A)
                 (A) (A) (A) (A) (A) (A) (A) (A) (A) (A) (A) (A)
                 (A) (A) (A) (A) (A) (A) (A) (A) (A) (A) (A) (A)
                 (A) (A) (A) (A) (A) (A) (A) (A) (A) (A) (A) (A)
                 (A) (A) (A) (A) (A) (A) (A) (A) (A) (A) (A) (A)
                 (A) (A) (A) (A) (A) (A) (A) (A) (A) (A) (A) (A)
                 (A) (A) (A) (A) (A) (A) (A) (A) (A) (A) (A) (A)
                 (A) (A) (A) (A) (A) (A) (A) (A) (A) (A) (A) (A)
                 (A) (A) (A) (A) (A) (A) (A) (A) (A) (A) (A) (A)
                 (A) (A) (A) (A) (A) (A) (A) (A) (A) (A) (A) (A)
                 (A) (A) (A) (A) (A) (A) (A) (A) (A) (A) (A) (A)
                 (A) (A) (A) (A) (A) (A) (A) (A) (A) (A) (A) (A)
                 (A) (A) (A) (A) (A) (A) (A) (A) (A) (A) (A) (A)
                 (A) (A) (A) (A) (A) (A) (A) (A) (A) (A) (A) (A)
                 (A) (A) (A) (A) (A) (A) (A) (A) (A) (A) (A) (A)
                 (A) (A) (A) (A) (A) (A) (A) (A) (A) (A) (A) (A)
                 (A) (A) (A) (A) (A) (A) (A) (A) (A) (A) (A) (A)
                 (A) (A) (A) (A) (A) (A) (A) (A) (A) (A) (A) (A)
                 (A) (A) (A) (A) (A) (A) (A) (A) (A) (A) (A) (A)
                 (A) (A) (A) (A) (A) (A) (A) (A) (A) (A) (A) (A)
                 (A) (A) (A) (A) (A) (A) (A) (A) (A) (A) (A) (A)
                 (A) (A) (A) (A) (A) (A) (A) (A) (A) (A) (A) (A)
                 (A) (A) (A) (A) (A) (A) (A) (A) (A) (A) (A) (A)
                 (A) (A) (A) (A) (A) (A) (A) (A) (A) (A) (A) (A)
                 (A) (A) (A) (A) (A) (A) (A) (A) (A) (A) (A) (A)
                 (A) (A) (A) (A) (A) (A) (A) (A) (A) (A) (A) (A)
                 (A) (A) (A) (A) (A) (A) (A) (A) (A) (A) (A) (A)
                 (A) (A) (A) (A) (A) (A) (A) (A) (A) (A) (A) (A)
                 (A) (A) (A) (A) (A) (A) (A) (A) (A) (A) (A) (A)
                 (A) (A) (A) (A) (A) (A) (A) (A) (A) (A) (A) (A)
                 (A) (A) (A) (A) (A) (A) (A) (A) (A) (A) (A) (A)
                 (A) (A) (A) (A) (A) (A) (A) (A) (A) (A) (A) (A)
                 (A) (A) (A) (A) (A) (A) (A) (A) (A) (A) (A) (A)
                 (A) (A) (A) (A) (A) (A) (A) (A) (A) (A) (A) (A)
                 (A) (A) (A) (A) (A) (A) (A) (A) (A) (A) (A) (A)
                 (A) (A) (A) (A) (A) (A) (A) (A) (A) (A) (A) (A)
                 (A) (A) (A) (A) (A) (A) (A) (A) (A) (A) (A) (A)
                 (A) (A) (A) (A) (A) (A) (A) (A) (A) (A) (A) (A)
                 (A) (A) (A) (A) (A) (A) (A) (A) (A) (A) (A) (A)
                 (A) (A) (A) (A) (A) (A) (A) (A) (A) (A) (A) (A)
                 (A) (A) (A) (A) (A) (A) (A) (A) (A) (A) (A) (A)
                 (A) (A) (A) (A) (A) (A) (A) (A) (A) (A) (A) (A)
                 (A) (A) (A) (A) (A) (A) (A) (A) (A) (A) (A) (A)
                 (A) (A) (A) (A) (A) (A) (A) (A) (A) (A) (A) (A)
                 (A) (A) (A) (A) (A) (A) (A) (A) (A) (A) (A) (A)
                 (A) (A) (A) (A) (A) (A) (A) (A) (A) (A) (A) (A)
                 (A) (A) (A) (A) (A) (A) (A) (A) (A) (A) (A) (A)
                 (A) (A) (A) (A) (A) (A) (A) (A) (A) (A) (A) (A)
                 (A) (A) (A) (A) (A) (A) (A) (A) (A) (A) (A) (A)
                 (A) (A) (A) (A) (A) (A) (A) (A) (A) (A) (A) (A)
                 (A) (A) (A) (A) (A) (A) (A) (A) (A) (A) (A) (A)
                 (A) (A) (A) (A) (A) (A) (A) (A) (A) (A) (A) (A)
                 (A) (A) (A) (A) (A) (A) (A) (A) (A) (A) (A) (A)
                 (A) (A) (A) (A) (A) (A) (A) (A) (A) (A) (A) (A)
                 (A) (A) (A) (A) (A) (A) (A) (A) (A) (A) (A) (A)
                 (A) (A) (A) (A) (A) (A) (A) (A) (A) (A) (A) (A)
                 (A) (A) (A) (A) (A) (A) (A) (A) (A) (A) (A) (A)
                 (A) (A) (A) (A) (A) (A) (A) (A) (A) (A) (A) (A)
                 (A) (A) (A) (A) (A) (A) (A) (A) (A) (A) (A) (A)
                 (A) (A) (A) (A) (A) (A) (A) (A) (A) (A) (A) (A)
                 (A) (A) (A) (A) (A) (A) (A) (A) (A) (A) (A) (A)
                 (A) (A) (A) (A) (A) (A) (A) (A) (A) (A) (A) (A)
                 (A) (A) (A) (A) (A) (A) (A) (A) (A) (A) (A) (A)
                 (A) (A) (A) (A) (A) (A) (A) (A) (A) (A) (A) (A)
                 (A) (A) (A) (A) (A) (A) (A) (A) (A) (A) (A) (A)
    20 initial guesses have been made.
 Convergence on wavefunction:    0.001000000000000
 Davidson Disk Diagonalization:  ConvIn= 1.00D-03 SkipCon=T Conv= 1.00D-03.
 Max sub-space:  2000 roots to seek:    20 dimension of matrix:       549360
 Iteration     1 Dimension    20 NMult     0 NNew     20
 CISAX will form    20 AO SS matrices at one time.
 NMat=    20 NSing=    20 JSym2X= 0.
 FoFJK:  IHMeth= 1 ICntrl=       0 DoSepK=T KAlg= 0 I1Cent=           0 FoldK=F
 IRaf=         1 NMat=      40 IRICut=       1 DoRegI=T DoRafI=F ISym2E= 0 IDoP0=3 IntGTp=3.
 FoFCou: FMM=T IPFlag=           0 FMFlag=      100000 FMFlg1=        2001
         NFxFlg=           0 DoJE=F BraDBF=F KetDBF=F FulRan=T
         wScrn=  0.000000 ICntrl=       500 IOpCl=  0 I1Cent=           0 NGrid=           0
         NMat0=   20 NMatS0=     20 NMatT0=    0 NMatD0=   20 NMtDS0=    0 NMtDT0=    0
 Symmetry not used in FoFCou.
 FMM levels:  10  Number of levels for PrismC:   9
 New state      1 was old state      8
 New state      2 was old state      5
 New state      3 was old state      2
 New state      4 was old state      3
 New state      5 was old state      1
 Excitation Energies [eV] at current iteration:
 Root      1 :     2.614375314410974
 Root      2 :     2.619219252380820
 Root      3 :     2.680299769935752
 Root      4 :     2.690292596905189
 Root      5 :     3.063155699142962
 Root      6 :     3.072161477196751
 Root      7 :     3.628649864525015
 Root      8 :     3.669242147027628
 Root      9 :     3.735963586380135
 Root     10 :     3.759187648717220
 Root     11 :     3.866476782077943
 Root     12 :     3.867015696604288
 Root     13 :     4.303846442042358
 Root     14 :     4.306243160762034
 Root     15 :     4.983060473955082
 Root     16 :     4.992212486799766
 Root     17 :     5.278391790778737
 Root     18 :     5.291723411143936
 Root     19 :     5.307566072038507
 Root     20 :     5.325746627358672
 Iteration     2 Dimension    30 NMult    20 NNew     10
 CISAX will form    10 AO SS matrices at one time.
 NMat=    10 NSing=    10 JSym2X= 0.
 New state      1 was old state      3
 Root      1 not converged, maximum delta is    0.187221003264495
 New state      2 was old state      4
 Root      2 not converged, maximum delta is    0.188592480306016
 New state      3 was old state      2
 Root      3 not converged, maximum delta is    0.067043341914679
 New state      4 was old state      1
 Root      4 not converged, maximum delta is    0.089545305584455
 Root      5 has converged.
 Excitation Energies [eV] at current iteration:
 Root      1 :     1.801295766920655   Change is   -0.879004003015098
 Root      2 :     1.807444155401565   Change is   -0.882848441503624
 Root      3 :     2.235818106692126   Change is   -0.383401145688695
 Root      4 :     2.239089188348759   Change is   -0.375286126062215
 Root      5 :     3.063133538775198   Change is   -0.000022160367763
 Iteration     3 Dimension    38 NMult    30 NNew      8
 CISAX will form     8 AO SS matrices at one time.
 NMat=     8 NSing=     8 JSym2X= 0.
 Root      1 not converged, maximum delta is    0.069393573827507
 Root      2 not converged, maximum delta is    0.070558634736800
 Root      3 not converged, maximum delta is    0.043975908077173
 Root      4 not converged, maximum delta is    0.042512350497435
 Root      5 has converged.
 Excitation Energies [eV] at current iteration:
 Root      1 :     1.694052670463403   Change is   -0.107243096457252
 Root      2 :     1.699056639379967   Change is   -0.108387516021598
 Root      3 :     2.194361537938864   Change is   -0.041456568753262
 Root      4 :     2.200230913566078   Change is   -0.038858274782681
 Root      5 :     3.063133538775252   Change is    0.000000000000054
 Iteration     4 Dimension    46 NMult    38 NNew      8
 CISAX will form     8 AO SS matrices at one time.
 NMat=     8 NSing=     8 JSym2X= 0.
 Root      1 not converged, maximum delta is    0.013032774109996
 Root      2 not converged, maximum delta is    0.013291030942652
 Root      3 not converged, maximum delta is    0.009733531286696
 Root      4 not converged, maximum delta is    0.008889292420934
 Root      5 has converged.
 Excitation Energies [eV] at current iteration:
 Root      1 :     1.677339271390119   Change is   -0.016713399073284
 Root      2 :     1.682177561142147   Change is   -0.016879078237820
 Root      3 :     2.187058397782017   Change is   -0.007303140156847
 Root      4 :     2.193458690607791   Change is   -0.006772222958288
 Root      5 :     3.063133538775198   Change is   -0.000000000000054
 Iteration     5 Dimension    54 NMult    46 NNew      8
 CISAX will form     8 AO SS matrices at one time.
 NMat=     8 NSing=     8 JSym2X= 0.
 Root      1 not converged, maximum delta is    0.002169159955976
 Root      2 not converged, maximum delta is    0.002167992498081
 Root      3 not converged, maximum delta is    0.002500836272365
 Root      4 not converged, maximum delta is    0.002386125579970
 Root      5 has converged.
 Excitation Energies [eV] at current iteration:
 Root      1 :     1.675561155473510   Change is   -0.001778115916609
 Root      2 :     1.680404811217213   Change is   -0.001772749924934
 Root      3 :     2.186212654537888   Change is   -0.000845743244130
 Root      4 :     2.192683082019950   Change is   -0.000775608587841
 Root      5 :     3.063133538775171   Change is   -0.000000000000027
 Iteration     6 Dimension    62 NMult    54 NNew      8
 CISAX will form     8 AO SS matrices at one time.
 NMat=     8 NSing=     8 JSym2X= 0.
 Root      1 not converged, maximum delta is    0.001356873480426
 Root      2 not converged, maximum delta is    0.001377771418534
 Root      3 not converged, maximum delta is    0.001069761831976
 Root      4 not converged, maximum delta is    0.001014331001994
 Root      5 has converged.
 Excitation Energies [eV] at current iteration:
 Root      1 :     1.675307461512262   Change is   -0.000253693961248
 Root      2 :     1.680149721316181   Change is   -0.000255089901033
 Root      3 :     2.186084416023831   Change is   -0.000128238514056
 Root      4 :     2.192565384293424   Change is   -0.000117697726526
 Root      5 :     3.063133538775145   Change is   -0.000000000000027
 Iteration     7 Dimension    70 NMult    62 NNew      8
 CISAX will form     8 AO SS matrices at one time.
 NMat=     8 NSing=     8 JSym2X= 0.
 Root      1 has converged.
 Root      2 has converged.
 Root      3 has converged.
 Root      4 has converged.
 Root      5 has converged.
 Excitation Energies [eV] at current iteration:
 Root      1 :     1.675283240550786   Change is   -0.000024220961476
[...]
 Alpha virt. eigenvalues --    1.87437   1.87497   1.87726   1.87732   1.87920
 Alpha virt. eigenvalues --    1.87970   1.88092   1.88133   1.88527   1.88588
 Alpha virt. eigenvalues --    1.88874   1.88892   1.89029   1.89178   1.89613
 Alpha virt. eigenvalues --    1.89679   1.89799   1.89832   1.90143   1.90171
 Alpha virt. eigenvalues --    1.90804   1.90848   1.91382   1.91401   1.91492
 Alpha virt. eigenvalues --    1.91543   1.92136   1.92206   1.92614   1.92678
 Alpha virt. eigenvalues --    1.93034   1.93104   1.93390   1.93458   1.94265
 Alpha virt. eigenvalues --    1.94335   1.94741   1.94770   1.95527   1.95549
 Alpha virt. eigenvalues --    1.95766   1.95779   1.96002   1.96047   1.96126
 Alpha virt. eigenvalues --    1.96204   1.96436   1.96647   1.96889   1.96951
 Alpha virt. eigenvalues --    1.97497   1.97502   1.97755   1.97887   1.98119
 Alpha virt. eigenvalues --    1.98221   1.98302   1.98726   1.99025   1.99188
 Alpha virt. eigenvalues --    1.99873   1.99883   2.00679   2.00712   2.01048
 Alpha virt. eigenvalues --    2.01048   2.01462   2.01532   2.01558   2.01725
 Alpha virt. eigenvalues --    2.01771   2.01775   2.02663   2.02837   2.03095
 Alpha virt. eigenvalues --    2.03287   2.03330   2.03456   2.03472   2.03536
 Alpha virt. eigenvalues --    2.03978   2.04087   2.04929   2.05011   2.05566
 Alpha virt. eigenvalues --    2.05582   2.06131   2.06238   2.06954   2.06983
 Alpha virt. eigenvalues --    2.07235   2.07299   2.08505   2.08638   2.08955
 Alpha virt. eigenvalues --    2.09033   2.09563   2.09641   2.10830   2.10988
 Alpha virt. eigenvalues --    2.11234   2.11358   2.11482   2.11590   2.11779
 Alpha virt. eigenvalues --    2.11815   2.12415   2.12516   2.12752   2.12820
 Alpha virt. eigenvalues --    2.12856   2.12886   2.13579   2.13817   2.14189
 Alpha virt. eigenvalues --    2.14205   2.15357   2.15387   2.15976   2.16031
 Alpha virt. eigenvalues --    2.16542   2.16574   2.16805   2.17123   2.17467
 Alpha virt. eigenvalues --    2.17601   2.17756   2.17882   2.17955   2.18121
 Alpha virt. eigenvalues --    2.18375   2.18620   2.18918   2.19183   2.19692
 Alpha virt. eigenvalues --    2.19767   2.20089   2.20192   2.20262   2.20386
 Alpha virt. eigenvalues --    2.21125   2.21202   2.21712   2.21721   2.21794
 Alpha virt. eigenvalues --    2.21824   2.22650   2.22731   2.23292   2.23364
 Alpha virt. eigenvalues --    2.24369   2.24445   2.24955   2.25010   2.26349
 Alpha virt. eigenvalues --    2.26387   2.26830   2.26957   2.27150   2.27152
 Alpha virt. eigenvalues --    2.28187   2.28260   2.29318   2.29384   2.29785
 Alpha virt. eigenvalues --    2.29825   2.30504   2.30567   2.30771   2.31132
 Alpha virt. eigenvalues --    2.31149   2.31230   2.32171   2.32188   2.33180
 Alpha virt. eigenvalues --    2.33184   2.33431   2.33511   2.34089   2.34189
 Alpha virt. eigenvalues --    2.35245   2.35420   2.35846   2.35854   2.36279
 Alpha virt. eigenvalues --    2.36398   2.36402   2.36673   2.37626   2.37708
 Alpha virt. eigenvalues --    2.38308   2.38328   2.38726   2.38906   2.39613
 Alpha virt. eigenvalues --    2.39660   2.40215   2.40231   2.40534   2.40772
 Alpha virt. eigenvalues --    2.41156   2.41317   2.41640   2.41736   2.42072
 Alpha virt. eigenvalues --    2.42088   2.42770   2.42993   2.43012   2.43581
 Alpha virt. eigenvalues --    2.43920   2.44218   2.44748   2.44779   2.44931
 Alpha virt. eigenvalues --    2.44952   2.45514   2.45595   2.46227   2.46350
 Alpha virt. eigenvalues --    2.46438   2.46526   2.46741   2.46847   2.47302
 Alpha virt. eigenvalues --    2.47321   2.47762   2.47829   2.49337   2.49359
 Alpha virt. eigenvalues --    2.49837   2.50117   2.50397   2.50598   2.51168
 Alpha virt. eigenvalues --    2.51206   2.51551   2.51934   2.52335   2.52487
 Alpha virt. eigenvalues --    2.52856   2.53101   2.53909   2.53966   2.54198
 Alpha virt. eigenvalues --    2.54223   2.54746   2.54836   2.55567   2.55605
 Alpha virt. eigenvalues --    2.57912   2.58015   2.58691   2.58840   2.60235
 Alpha virt. eigenvalues --    2.60253   2.60659   2.60857   2.61757   2.61758
 Alpha virt. eigenvalues --    2.62365   2.62580   2.63002   2.63060   2.63983
 Alpha virt. eigenvalues --    2.64151   2.64291   2.64364   2.65033   2.65126
 Alpha virt. eigenvalues --    2.65793   2.65833   2.66755   2.66824   2.66956
 Alpha virt. eigenvalues --    2.66989   2.67913   2.67955   2.68752   2.68904
 Alpha virt. eigenvalues --    2.68962   2.69069   2.69437   2.69525   2.70044
 Alpha virt. eigenvalues --    2.70070   2.70997   2.71026   2.71823   2.72100
 Alpha virt. eigenvalues --    2.72422   2.72664   2.72699   2.72873   2.73219
 Alpha virt. eigenvalues --    2.73322   2.73396   2.73577   2.74436   2.74557
 Alpha virt. eigenvalues --    2.74983   2.75021   2.76449   2.76637   2.76993
 Alpha virt. eigenvalues --    2.77278   2.77503   2.77532   2.78223   2.78237
 Alpha virt. eigenvalues --    2.78617   2.78775   2.79081   2.79180   2.80190
 Alpha virt. eigenvalues --    2.80391   2.80614   2.80634   2.81076   2.81161
 Alpha virt. eigenvalues --    2.81913   2.81980   2.82260   2.82387   2.83772
 Alpha virt. eigenvalues --    2.83797   2.83813   2.83828   2.84452   2.84591
 Alpha virt. eigenvalues --    2.84811   2.84929   2.85617   2.85714   2.86583
 Alpha virt. eigenvalues --    2.87042   2.87097   2.87652   2.88161   2.88201
 Alpha virt. eigenvalues --    2.88540   2.88553   2.88794   2.88980   2.90543
 Alpha virt. eigenvalues --    2.90581   2.90992   2.91234   2.93200   2.93242
 Alpha virt. eigenvalues --    2.93692   2.94245   2.94496   2.94604   2.95392
 Alpha virt. eigenvalues --    2.95412   2.95760   2.96247   2.96297   2.96486
 Alpha virt. eigenvalues --    2.96793   2.97222   2.97862   2.97953   2.98254
 Alpha virt. eigenvalues --    2.98276   2.98411   2.98493   2.98646   2.98700
 Alpha virt. eigenvalues --    2.98843   2.98929   2.99632   2.99722   2.99936
 Alpha virt. eigenvalues --    3.00077   3.00257   3.00265   3.00506   3.00912
 Alpha virt. eigenvalues --    3.01824   3.02034   3.02035   3.02079   3.02741
 Alpha virt. eigenvalues --    3.02778   3.03023   3.03235   3.03374   3.03627
 Alpha virt. eigenvalues --    3.03972   3.04216   3.04352   3.04495   3.04593
 Alpha virt. eigenvalues --    3.04648   3.05272   3.05342   3.06085   3.06159
 Alpha virt. eigenvalues --    3.06849   3.06856   3.07843   3.08192   3.09278
 Alpha virt. eigenvalues --    3.09448   3.09739   3.10349   3.10488   3.10656
 Alpha virt. eigenvalues --    3.11377   3.11402   3.11823   3.11989   3.12221
 Alpha virt. eigenvalues --    3.12222   3.13329   3.13566   3.13609   3.13687
 Alpha virt. eigenvalues --    3.14138   3.14392   3.15912   3.15968   3.17310
 Alpha virt. eigenvalues --    3.17437   3.17799   3.18126   3.18951   3.19175
 Alpha virt. eigenvalues --    3.22352   3.22514   3.23994   3.24355   3.24721
 Alpha virt. eigenvalues --    3.25109   3.26552   3.26574   3.27312   3.27669
 Alpha virt. eigenvalues --    3.29139   3.29147   3.31296   3.31572   3.33102
 Alpha virt. eigenvalues --    3.33466   3.40178   3.40677   3.42736   3.42866
 Alpha virt. eigenvalues --    3.48613   3.48707   3.50071   3.50198   3.50754
 Alpha virt. eigenvalues --    3.51523   3.56600   3.56922   3.59148   3.59258
 Alpha virt. eigenvalues --    3.62432   3.62886   3.66034   3.66236   3.67233
 Alpha virt. eigenvalues --    3.67460   3.73319   3.73937   3.76104   3.76596
          Condensed to atoms (all electrons):
 Mulliken charges:
               1
     1  Mg   0.838808
     2  C   -0.002969
     3  C   -0.094108
     4  C   -0.045879
     5  C   -0.063950
     6  N   -0.256780
     7  C   -0.052475
     8  C   -0.014015
     9  C   -0.087001
    10  C    0.046315
    11  C    0.104815
    12  C    0.053469
    13  C   -0.071805
    14  H    0.036135
    15  N   -0.433150
    16  C    0.168418
    17  C   -0.177159
    18  C   -0.004004
    19  C    0.148730
    20  C    0.110181
    21  C    0.012293
    22  O   -0.249618
    23  C    0.062469
    24  N   -0.341154
    25  C    0.041245
    26  C   -0.028167
    27  C   -0.023984
    28  C    0.074826
    29  C    0.076178
    30  C    0.035134
    31  C   -0.004505
    32  N   -0.310476
    33  C    0.080417
    34  C   -0.169716
    35  C    0.008357
    36  C    0.082971
    37  C    0.127313
    38  C    0.046111
    39  O   -0.188445
    40  C   -0.005320
    41  C    0.212861
    42  O   -0.257094
    43  O   -0.304798
    44  C    0.157693
    45  H   -0.017610
    46  H   -0.016833
    47  H   -0.041494
    48  H    0.000930
    49  H   -0.004032
    50  H    0.025469
    51  H    0.016441
    52  H    0.016649
    53  H    0.011214
    54  H    0.044129
    55  H    0.017860
    56  H    0.017950
    57  H    0.005869
    58  H    0.026817
    59  H    0.039569
    60  H    0.037336
    61  H    0.035665
    62  H    0.031520
    63  H    0.016562
    64  H    0.009454
    65  H    0.023214
    66  H    0.012537
    67  H    0.004745
    68  H    0.006367
    69  H    0.004727
    70  H    0.008790
    71  H    0.018147
    72  H    0.028983
    73  H    0.047570
    74  H    0.009112
    75  H    0.045999
    76  H    0.035142
    77  H    0.042941
    78  H    0.046400
    79  H    0.053693
    80  Mg   0.837822
    81  C   -0.016838
    82  C   -0.087808
    83  C   -0.045488
    84  C   -0.064854
    85  N   -0.254566
    86  C   -0.049850
    87  C   -0.015112
    88  C   -0.090492
    89  C    0.045775
    90  C    0.114368
    91  C    0.062527
    92  C   -0.077902
    93  H    0.034906
    94  N   -0.423497
    95  C    0.162916
    96  C   -0.174645
    97  C   -0.007810
    98  C    0.152107
    99  C    0.099374
   100  C    0.015567
   101  O   -0.253159
   102  C    0.061200
   103  N   -0.350027
   104  C    0.037495
   105  C   -0.019836
   106  C   -0.034840
   107  C    0.088906
   108  C    0.073637
   109  C    0.034716
   110  C   -0.007687
   111  N   -0.324108
   112  C    0.078455
   113  C   -0.163106
   114  C    0.002252
   115  C    0.096208
   116  C    0.131486
   117  C    0.042393
   118  O   -0.187862
   119  C    0.000920
   120  C    0.211273
   121  O   -0.251025
   122  O   -0.305637
   123  C    0.152030
   124  H   -0.019682
   125  H   -0.015543
   126  H   -0.040377
   127  H   -0.000649
   128  H   -0.004332
   129  H    0.022466
   130  H    0.014428
   131  H    0.016263
   132  H    0.013922
   133  H    0.037687
   134  H    0.020781
   135  H    0.019588
   136  H    0.008745
   137  H    0.026123
   138  H    0.039791
   139  H    0.038234
   140  H    0.036398
   141  H    0.033895
   142  H    0.014418
   143  H    0.012503
   144  H    0.025188
   145  H    0.011606
   146  H    0.005763
   147  H    0.006341
   148  H    0.003709
   149  H    0.010934
   150  H    0.017969
   151  H    0.030053
   152  H    0.046026
   153  H    0.008577
   154  H    0.046983
   155  H    0.035021
   156  H    0.043915
   157  H    0.049481
   158  H    0.053588
 Sum of Mulliken charges =  -0.00000
 Mulliken charges with hydrogens summed into heavy atoms:
               1
     1  Mg   0.838808
     2  C   -0.002969
     3  C   -0.111718
     4  C   -0.062712
     5  C   -0.105444
     6  N   -0.256780
     7  C   -0.052475
     8  C   -0.013085
     9  C   -0.091033
    10  C    0.046315
    11  C    0.163374
    12  C    0.108813
    13  C    0.000140
    15  N   -0.433150
    16  C    0.168418
    17  C   -0.177159
    18  C   -0.004004
    19  C    0.148730
    20  C    0.182436
    21  C    0.012293
    22  O   -0.249618
    23  C    0.166990
    24  N   -0.341154
    25  C    0.041245
    26  C   -0.011604
    27  C   -0.014530
    28  C    0.074826
    29  C    0.116675
    30  C    0.046227
    31  C    0.051416
    32  N   -0.310476
    33  C    0.080417
    34  C   -0.169716
    35  C    0.008357
    36  C    0.082971
    37  C    0.229994
    38  C    0.046111
    39  O   -0.188445
    40  C    0.029822
    41  C    0.212861
    42  O   -0.257094
    43  O   -0.304798
    44  C    0.300727
    80  Mg   0.837822
    81  C   -0.016838
    82  C   -0.107490
    83  C   -0.061031
    84  C   -0.105231
    85  N   -0.254566
    86  C   -0.049850
    87  C   -0.015761
    88  C   -0.094823
    89  C    0.045775
    90  C    0.167526
    91  C    0.114136
    92  C   -0.002627
    94  N   -0.423497
    95  C    0.162916
    96  C   -0.174645
    97  C   -0.007810
    98  C    0.152107
    99  C    0.174033
   100  C    0.015567
   101  O   -0.253159
   102  C    0.169727
   103  N   -0.350027
   104  C    0.037495
   105  C   -0.005418
   106  C   -0.022337
   107  C    0.088906
   108  C    0.116194
   109  C    0.044766
   110  C    0.051270
   111  N   -0.324108
   112  C    0.078455
   113  C   -0.163106
   114  C    0.002252
   115  C    0.096208
   116  C    0.233072
   117  C    0.042393
   118  O   -0.187862
   119  C    0.035941
   120  C    0.211273
   121  O   -0.251025
   122  O   -0.305637
   123  C    0.299014
 Electronic spatial extent (au):  <R**2>=         634949.0990
 Charge=             -0.0000 electrons
 Dipole moment (field-independent basis, Debye):
    X=              1.7306    Y=              4.7544    Z=             -7.0867  Tot=              8.7075
 Quadrupole moment (field-independent basis, Debye-Ang):
   XX=           -422.5852   YY=           -562.0428   ZZ=           -456.1757
   XY=            -11.0667   XZ=             35.5246   YZ=             -0.3543
 Traceless Quadrupole moment (field-independent basis, Debye-Ang):
   XX=             57.6827   YY=            -81.7749   ZZ=             24.0922
   XY=            -11.0667   XZ=             35.5246   YZ=             -0.3543
 Octapole moment (field-independent basis, Debye-Ang**2):
  XXX=            347.3957  YYY=             65.6584  ZZZ=             -4.8691  XYY=           -256.7673
  XXY=           1580.2971  XXZ=          -2679.6932  XZZ=            503.0314  YZZ=             19.9086
  YYZ=           -298.4335  XYZ=            -38.6904
 Hexadecapole moment (field-independent basis, Debye-Ang**3):
 XXXX=        -751489.0093 YYYY=         -37007.4752 ZZZZ=         -19779.1730 XXXY=          -7643.5661
 XXXZ=          20599.6646 YYYX=          -1444.1456 YYYZ=             53.7815 ZZZX=            563.4712
 ZZZY=            130.9786 XXYY=        -152330.0742 XXZZ=        -126068.2863 YYZZ=          -8619.2380
 XXYZ=            510.7068 YYXZ=          -1164.3284 ZZXY=           -929.9924
 N-N= 1.229457226071D+04 E-N=-3.407002039254D+04  KE= 4.028801974125D+03
 Leave Link  601 at Sun Sep 12 21:10:37 2021, MaxMem= 23488102400 cpu:              21.5 elap:               1.0
 (Enter /sw/apps/gaussian-16.0/g16/l9999.exe)
 1\1\GINC-BP1-COMPUTE00099\SP\RCAM-B3LYP TD-FC\def2SVP\C68H72Mg2N8O8\OF
 15641\12-Sep-2021\0\\#p cam-b3lyp/Def2SVP td=(nstates=5)\\TDDFT excite
 d states in gaussian\\0,1\Mg,0,0.,0.,0.\C,0,-0.217,-2.218,2.801\C,0,-1
 .255,2.442,2.026\C,0,-0.245,1.85,-2.564\C,0,0.146,-2.824,-2.037\N,0,-0
 .617,-0.009,2.126\C,0,-0.594,-0.908,3.105\C,0,-0.936,-0.309,4.502\C,0,
 -1.773,0.964,4.032\C,0,-1.155,1.168,2.66\C,0,-3.263,0.685,3.863\C,0,0.
 345,0.11,5.299\C,0,0.124,0.397,6.787\H,0,1.168,0.033,7.733\N,0,-0.185,
 1.961,-0.152\C,0,-0.703,2.8,0.777\C,0,-0.62,4.156,0.193\C,0,-0.187,4.0
 15,-1.225\C,0,-0.214,2.583,-1.38\C,0,-0.887,5.406,0.974\C,0,0.181,5.01
 3,-2.277\O,0,0.303,4.69,-3.508\C,0,0.31,6.414,-1.837\N,0,-0.265,-0.413
 ,-2.029\C,0,-0.279,0.569,-2.937\C,0,-0.196,0.024,-4.332\C,0,0.124,-1.5
 33,-4.18\C,0,0.086,-1.632,-2.635\C,0,-1.451,0.205,-5.197\C,0,1.373,-2.
 07,-4.923\C,0,2.626,-1.49,-4.306\N,0,0.15,-2.144,0.303\C,0,0.173,-3.13
 6,-0.688\C,0,0.173,-4.438,0.004\C,0,0.133,-4.111,1.358\C,0,0.083,-2.69
 5,1.502\C,0,0.149,-5.715,-0.623\C,0,0.096,-4.629,2.716\O,0,0.208,-5.74
 7,3.221\C,0,-0.255,-3.428,3.701\C,0,0.717,-3.482,4.848\O,0,1.931,-3.25
 5,4.669\O,0,0.038,-3.556,6.003\C,0,0.943,-3.583,7.183\H,0,-1.859,3.22,
 2.497\H,0,-0.218,2.453,-3.474\H,0,0.276,-3.747,-2.605\H,0,-1.554,-0.94
 9,5.132\H,0,-1.585,1.831,4.665\H,0,-3.484,-0.377,3.969\H,0,-3.511,1.02
 7,2.858\H,0,-3.852,1.301,4.543\H,0,0.669,1.096,4.966\H,0,1.13,-0.639,5
 .189\H,0,-0.844,0.026,7.125\H,0,0.062,1.477,6.921\H,0,-1.344,5.186,1.9
 38\H,0,-1.651,5.963,0.432\H,0,0.007,6.02,1.084\H,0,-0.635,6.744,-1.405
 \H,0,0.665,6.97,-2.704\H,0,1.048,6.466,-1.036\H,0,0.608,0.501,-4.891\H
 ,0,-0.692,-2.156,-4.547\H,0,-1.267,0.74,-6.129\H,0,-2.204,0.714,-4.596
 \H,0,-1.967,-0.72,-5.453\H,0,1.356,-1.759,-5.967\H,0,1.452,-3.157,-4.9
 02\H,0,2.714,-0.522,-4.798\H,0,3.487,-2.121,-4.529\H,0,2.495,-1.303,-3
 .24\H,0,0.867,-6.333,-0.084\H,0,0.404,-5.642,-1.68\H,0,-0.891,-5.999,-
 0.463\H,0,-1.283,-3.581,4.028\H,0,0.698,-4.478,7.755\H,0,0.833,-2.619,
 7.68\H,0,2.,-3.754,6.976\Mg,0,31.54206,2.84296,2.39313\C,0,33.67799,0.
 71725,4.34204\C,0,32.72273,5.46284,4.23075\C,0,29.35112,4.67297,1.0081
 2\C,0,29.73123,-0.00555,1.52561\N,0,33.00937,2.94965,4.04476\C,0,33.80
 293,2.08577,4.65982\C,0,34.84164,2.73341,5.61439\C,0,34.06653,4.10691,
 5.91698\C,0,33.23672,4.20603,4.6386\C,0,33.1149,4.01332,7.09807\C,0,36
 .21931,2.99442,4.91019\C,0,37.3712,3.33675,5.85767\H,0,38.71017,2.8565
 1,5.5275\N,0,31.43311,4.81807,2.23309\C,0,31.99116,5.73295,3.05338\C,0
 ,31.60024,7.04581,2.51698\C,0,30.63009,6.82999,1.40931\C,0,30.41318,5.
 4017,1.52342\C,0,32.19821,8.33415,3.00283\C,0,29.99209,7.75787,0.42027
 \O,0,28.99726,7.39286,-0.30078\C,0,30.50588,9.13498,0.38735\N,0,29.672
 29,2.43447,1.58107\C,0,28.9471,3.40259,0.9939\C,0,27.77141,2.82419,0.2
 4316\C,0,27.99601,1.2408,0.24716\C,0,29.27198,1.16839,1.11436\C,0,26.3
 9204,3.14375,0.81902\C,0,27.99834,0.52683,-1.1323\C,0,29.20926,0.95179
 ,-1.93134\N,0,31.76086,0.71298,2.68186\C,0,30.87367,-0.30078,2.25845\C
 ,0,31.39054,-1.58006,2.78637\C,0,32.53908,-1.21608,3.50531\C,0,32.7136
 5,0.19307,3.44759\C,0,30.78257,-2.856,2.61761\C,0,33.63757,-1.70231,4.
 30879\O,0,34.05738,-2.81504,4.62399\C,0,34.35335,-0.45839,4.99195\C,0,
 35.83685,-0.61072,4.79567\O,0,36.33226,-0.55888,3.65615\O,0,36.44602,-
 0.57439,5.99482\C,0,37.92003,-0.71059,5.85151\H,0,32.85486,6.31761,4.8
 9468\H,0,28.62522,5.24514,0.42573\H,0,29.27805,-0.95017,1.21738\H,0,35
 .01096,2.19101,6.53684\H,0,34.7575,4.94284,5.98882\H,0,33.02865,3.0020
 1,7.46681\H,0,32.1588,4.36617,6.73417\H,0,33.41649,4.71432,7.88164\H,0
 ,36.15897,3.93133,4.34159\H,0,36.49499,2.1622,4.2921\H,0,37.12757,3.10
 789,6.90228\H,0,37.51854,4.41944,5.84783\H,0,32.75896,8.19113,3.93476\
 H,0,31.3651,8.98714,3.2846\H,0,32.79712,8.83494,2.23916\H,0,30.39096,9
 .58688,1.36972\H,0,29.98815,9.6203,-0.44228\H,0,31.58128,9.10229,0.179
 82\H,0,27.75676,3.17446,-0.78163\H,0,27.20587,0.7186,0.80647\H,0,25.72
 161,3.64332,0.09443\H,0,26.52389,3.75706,1.7005\H,0,25.84632,2.28788,1
 .21257\H,0,27.12251,0.82431,-1.71418\H,0,27.98352,-0.55545,-1.05852\H,
 0,28.88956,1.8971,-2.37997\H,0,29.44364,0.21215,-2.69427\H,0,30.05837,
 1.16977,-1.27321\H,0,31.57742,-3.55077,2.38096\H,0,30.02566,-2.83553,1
 .8363\H,0,30.34487,-2.99622,3.60959\H,0,34.07765,-0.46068,6.0472\H,0,3
 8.22461,-1.55774,6.47381\H,0,38.33816,0.2804,6.11007\H,0,38.30388,-1.0
 105,4.88343\\Version=ES64L-G16RevA.03\State=1-A\HF=-4069.8117704\RMSD=
 4.488e-09\PG=C01 [X(C68H72Mg2N8O8)]\\@


 TERENCE, THIS IS STUPID STUFF:
 YOU EAT YOUR VICTUALS FAST ENOUGH;
 THERE CAN'T BE MUCH AMISS, 'TIS CLEAR
 TO SEE THE RATE YOU DRINK YOUR BEER.
 BUT OH, GOOD LORD, THE VERSE YOU MAKE,
 IT GIVES A CHAP THE BELLY-ACHE.
 THE COW, THE OLD COW, SHE IS DEAD;
 IT SLEEPS WELL, THE HORNED HEAD:
 WE POOR LADS, 'TIS OUR TURN NOW
 TO HEAR SUCH TUNES AS KILLED THE COW.
 PRETTY FRIENDSHIP 'TIS TO RHYME
 YOUR FRIENDS TO DEATH BEFORE THEIR TIME.
 MOPING, MELANCHOLY MAD:
 COME PIPE A TUNE TO DANCE TO, LAD.

     -- A. E. HOUSMAN
 Job cpu time:       0 days 10 hours 27 minutes 46.8 seconds.
 Elapsed time:       0 days  0 hours 26 minutes 44.5 seconds.
 File lengths (MBytes):  RWF=  13225 Int=      0 D2E=      0 Chk=    574 Scr=      1
 Normal termination of Gaussian 16 at Sun Sep 12 21:10:38 2021.
