 Entering Gaussian System, Link 0=g16
 Initial command:
 /sw/apps/gaussian-16.0/g16/l1.exe "/tmp/Gau-257781.inp" -scrdir="/tmp/"
 Entering Link 1 = /sw/apps/gaussian-16.0/g16/l1.exe PID=    257782.
  
 Copyright (c) 1988,1990,1992,1993,1995,1998,2003,2009,2016,
            Gaussian, Inc.  All Rights Reserved.
  
 This is part of the Gaussian(R) 16 program.  It is based on
 the Gaussian(R) 09 system (copyright 2009, Gaussian, Inc.),
 the Gaussian(R) 03 system (copyright 2003, Gaussian, Inc.),
 the Gaussian(R) 98 system (copyright 1998, Gaussian, Inc.),
 the Gaussian(R) 94 system (copyright 1995, Gaussian, Inc.),
 the Gaussian 92(TM) system (copyright 1992, Gaussian, Inc.),
 the Gaussian 90(TM) system (copyright 1990, Gaussian, Inc.),
 the Gaussian 88(TM) system (copyright 1988, Gaussian, Inc.),
 the Gaussian 86(TM) system (copyright 1986, Carnegie Mellon
 University), and the Gaussian 82(TM) system (copyright 1983,
 Carnegie Mellon University). Gaussian is a federally registered
 trademark of Gaussian, Inc.
  
 This software contains proprietary and confidential information,
 including trade secrets, belonging to Gaussian, Inc.
  
 This software is provided under written license and may be
 used, copied, transmitted, or stored only in accord with that
 written license.
  
 The following legend is applicable only to US Government
 contracts under FAR:
  
                    RESTRICTED RIGHTS LEGEND
  
 Use, reproduction and disclosure by the US Government is
 subject to restrictions as set forth in subparagraphs (a)
 and (c) of the Commercial Computer Software - Restricted
 Rights clause in FAR 52.227-19.
  
 Gaussian, Inc.
 340 Quinnipiac St., Bldg. 40, Wallingford CT 06492
  
  
 ---------------------------------------------------------------
 Warning -- This program may not be used in any manner that
 competes with the business of Gaussian, Inc. or will provide
 assistance to any competitor of Gaussian, Inc.  The licensee
 of this program is prohibited from giving any competitor of
 Gaussian, Inc. access to this program.  By using this program,
 the user acknowledges that Gaussian, Inc. is engaged in the
 business of creating and licensing software in the field of
 computational chemistry and represents and warrants to the
 licensee that it is not a competitor of Gaussian, Inc. and that
 it will not use this program in any manner prohibited above.
 ---------------------------------------------------------------
  

 Cite this work as:
 Gaussian 16, Revision A.03,
 M. J. Frisch, G. W. Trucks, H. B. Schlegel, G. E. Scuseria, 
 M. A. Robb, J. R. Cheeseman, G. Scalmani, V. Barone, 
 G. A. Petersson, H. Nakatsuji, X. Li, M. Caricato, A. V. Marenich, 
 J. Bloino, B. G. Janesko, R. Gomperts, B. Mennucci, H. P. Hratchian, 
 J. V. Ortiz, A. F. Izmaylov, J. L. Sonnenberg, D. Williams-Young, 
 F. Ding, F. Lipparini, F. Egidi, J. Goings, B. Peng, A. Petrone, 
 T. Henderson, D. Ranasinghe, V. G. Zakrzewski, J. Gao, N. Rega, 
 G. Zheng, W. Liang, M. Hada, M. Ehara, K. Toyota, R. Fukuda, 
 J. Hasegawa, M. Ishida, T. Nakajima, Y. Honda, O. Kitao, H. Nakai, 
 T. Vreven, K. Throssell, J. A. Montgomery, Jr., J. E. Peralta, 
 F. Ogliaro, M. J. Bearpark, J. J. Heyd, E. N. Brothers, K. N. Kudin, 
 V. N. Staroverov, T. A. Keith, R. Kobayashi, J. Normand, 
 K. Raghavachari, A. P. Rendell, J. C. Burant, S. S. Iyengar, 
 J. Tomasi, M. Cossi, J. M. Millam, M. Klene, C. Adamo, R. Cammi, 
 J. W. Ochterski, R. L. Martin, K. Morokuma, O. Farkas, 
 J. B. Foresman, and D. J. Fox, Gaussian, Inc., Wallingford CT, 2016.
 
 ******************************************
 Gaussian 16:  ES64L-G16RevA.03 25-Dec-2016
                 9-Sep-2021 
 ******************************************
 %nproc=24
 Will use up to   24 processors via shared memory.
 %mem=175gb
 -----------------------------------
 #p cam-b3lyp/Def2SVP td=(nstates=5)
 -----------------------------------
 1/38=1,172=1/1;
 2/12=2,17=6,18=5,40=1/2;
 3/5=43,7=101,11=9,25=1,30=1,74=-40/1,2,3,8;
 4//1;
 5/5=2,38=5/2;
 8/6=1,10=1,108=5/1;
 9/41=5,42=1,70=2/14;
 6/7=2,8=2,9=2,10=2/1;
 99/5=1,9=1/99;
 Leave Link    1 at Thu Sep  9 15:48:47 2021, MaxMem= 23488102400 cpu:               0.7 elap:               0.0
 (Enter /sw/apps/gaussian-16.0/g16/l101.exe)
 --------------------------------
 TDDFT excited states in gaussian
 --------------------------------
 Symbolic Z-matrix:
 Charge =  0 Multiplicity = 1
 Mg                    0.        0.        0. 
 C                    -0.217    -2.218     2.801 
 C                    -1.255     2.442     2.026 
 C                    -0.245     1.85     -2.564 
 C                     0.146    -2.824    -2.037 
 N                    -0.617    -0.009     2.126 
 C                    -0.594    -0.908     3.105 
 C                    -0.936    -0.309     4.502 
 C                    -1.773     0.964     4.032 
 C                    -1.155     1.168     2.66 
 C                    -3.263     0.685     3.863 
 C                     0.345     0.11      5.299 
 C                     0.124     0.397     6.787 
 H                     1.168     0.033     7.733 
 N                    -0.185     1.961    -0.152 
 C                    -0.703     2.8       0.777 
 C                    -0.62      4.156     0.193 
 C                    -0.187     4.015    -1.225 
 C                    -0.214     2.583    -1.38 
 C                    -0.887     5.406     0.974 
 C                     0.181     5.013    -2.277 
 O                     0.303     4.69     -3.508 
 C                     0.31      6.414    -1.837 
 N                    -0.265    -0.413    -2.029 
 C                    -0.279     0.569    -2.937 
 C                    -0.196     0.024    -4.332 
 C                     0.124    -1.533    -4.18 
 C                     0.086    -1.632    -2.635 
 C                    -1.451     0.205    -5.197 
 C                     1.373    -2.07     -4.923 
 C                     2.626    -1.49     -4.306 
 N                     0.15     -2.144     0.303 
 C                     0.173    -3.136    -0.688 
 C                     0.173    -4.438     0.004 
 C                     0.133    -4.111     1.358 
 C                     0.083    -2.695     1.502 
 C                     0.149    -5.715    -0.623 
 C                     0.096    -4.629     2.716 
 O                     0.208    -5.747     3.221 
 C                    -0.255    -3.428     3.701 
 C                     0.717    -3.482     4.848 
 O                     1.931    -3.255     4.669 
 O                     0.038    -3.556     6.003 
 C                     0.943    -3.583     7.183 
 H                    -1.859     3.22      2.497 
 H                    -0.218     2.453    -3.474 
 H                     0.276    -3.747    -2.605 
 H                    -1.554    -0.949     5.132 
 H                    -1.585     1.831     4.665 
 H                    -3.484    -0.377     3.969 
 H                    -3.511     1.027     2.858 
 H                    -3.852     1.301     4.543 
 H                     0.669     1.096     4.966 
 H                     1.13     -0.639     5.189 
 H                    -0.844     0.026     7.125 
 H                     0.062     1.477     6.921 
 H                    -1.344     5.186     1.938 
 H                    -1.651     5.963     0.432 
 H                     0.007     6.02      1.084 
 H                    -0.635     6.744    -1.405 
 H                     0.665     6.97     -2.704 
 H                     1.048     6.466    -1.036 
 H                     0.608     0.501    -4.891 
 H                    -0.692    -2.156    -4.547 
 H                    -1.267     0.74     -6.129 
 H                    -2.204     0.714    -4.596 
 H                    -1.967    -0.72     -5.453 
 H                     1.356    -1.759    -5.967 
 H                     1.452    -3.157    -4.902 
 H                     2.714    -0.522    -4.798 
 H                     3.487    -2.121    -4.529 
 H                     2.495    -1.303    -3.24 
 H                     0.867    -6.333    -0.084 
 H                     0.404    -5.642    -1.68 
 H                    -0.891    -5.999    -0.463 
 H                    -1.283    -3.581     4.028 
 H                     0.698    -4.478     7.755 
 H                     0.833    -2.619     7.68 
 H                     2.       -3.754     6.976 
 Mg                    8.92967   0.80655   0.66937 
 C                     10.25162  -1.82844  -1.37717 
 C                     10.41165   3.01006  -1.4714 
 C                     8.16538   3.13047   2.68993 
 C                     8.54658  -1.54764   3.21037 
 N                     10.1469   0.50776  -1.15309 
 C                     10.53239  -0.53707  -1.87007 
 C                     11.18925  -0.17709  -3.22967 
 C                     11.68775   1.30662  -2.87054 
 C                     10.66742   1.6519   -1.78778 
 C                     13.07408   1.34179  -2.24909 
 C                     10.15437  -0.16562  -4.40904 
 C                     10.77381  -0.12681  -5.80781 
 H                     10.10701  -0.85351  -6.88473 
 N                     8.81188   2.76731   0.38636 
 C                     9.46429   3.49589  -0.5436 
 C                     9.0528    4.89096  -0.32316 
 C                     8.23223   4.94759   0.91708 
 C                     8.39219   3.59106   1.40115 
 C                     9.37344   5.99595  -1.28732 
 C                     7.44555   6.04505   1.56741 
 O                     7.00421   5.93798   2.76599 
 C                     7.28716   7.2852    0.79384 
 N                     8.62612   0.84382   2.72577 
 C                     8.25036   1.97458   3.34874 
 C                     7.8261    1.69842   4.77146 
 C                     7.765     0.10552   4.90005 
 C                     8.27302  -0.28155   3.49382 
 C                     8.73998   2.26188   5.85945 
 C                     6.42859  -0.50957   5.39838 
 C                     5.34586  -0.29778   4.36482 
 N                     9.14273  -1.33591   0.84979 
 C                     8.95829  -2.11657   2.01196 
 C                     9.32922  -3.50445   1.66755 
 C                     9.72882  -3.43011   0.32468 
 C                     9.63419  -2.08688  -0.12948 
 C                     9.31754  -4.61423   2.55883 
 C                     10.21929  -4.18066  -0.80881 
 O                     10.41051  -5.37306  -1.04411 
 C                     10.69994  -3.15527  -1.92413 
 C                     10.12661  -3.59975  -3.2418 
 O                     8.89806  -3.58362  -3.43419 
 O                     11.12797  -3.7623   -4.12567 
 C                     10.60833  -4.19224  -5.45117 
 H                     11.02271   3.77757  -1.94723 
 H                     7.79268   3.87446   3.39778 
 H                     8.36166  -2.35764   3.91917 
 H                     12.03431  -0.79701  -3.50417 
 H                     11.58243   1.97534  -3.72088 
 H                     13.44813   0.35011  -2.04221 
 H                     12.97094   1.90628  -1.33162 
 H                     13.75628   1.91688  -2.8817 
 H                     9.62476   0.79576  -4.41135 
 H                     9.48241  -0.9984   -4.3344 
 H                     11.84489  -0.3623   -5.79096 
 H                     10.73103   0.90043  -6.17789 
 H                     10.12836   5.6843   -2.0197 
 H                     9.86363   6.78938  -0.71283 
 H                     8.48325   6.40652  -1.76863 
 H                     8.26786   7.69149   0.55803 
 H                     6.62148   7.91605   1.3861 
 H                     6.80886   7.04281  -0.16172 
 H                     6.8414    2.1048    4.96718 
 H                     8.50706  -0.27408   5.61775 
 H                     8.21527   2.93201   6.56633 
 H                     9.56023   2.78067   5.38133 
 H                     9.25732   1.51573   6.46013 
 H                     6.09389  -0.00274   6.30681 
 H                     6.49892  -1.56771   5.62725 
 H                     4.99916   0.71838   4.57529 
 H                     4.54504  -1.02292   4.49484 
 H                     5.7634   -0.30032   3.35126 
 H                     8.88063  -5.44322   2.01811 
 H                     8.75825  -4.3906    3.4649 
 H                     10.38827  -4.71979   2.7529 
 H                     11.79058  -3.16352  -1.92856 
 H                     11.12715  -5.11981  -5.71217 
 H                     10.75453  -3.32672  -6.12441 
 H                     9.57266  -4.50671  -5.5055 
 
 ITRead=  0  0  0  0  0  0  0  0  0  0  0  0  0  0  0  0  0  0  0  0
 ITRead=  0  0  0  0  0  0  0  0  0  0  0  0  0  0  0  0  0  0  0  0
 ITRead=  0  0  0  0  0  0  0  0  0  0  0  0  0  0  0  0  0  0  0  0
 ITRead=  0  0  0  0  0  0  0  0  0  0  0  0  0  0  0  0  0  0  0  0
 ITRead=  0  0  0  0  0  0  0  0  0  0  0  0  0  0  0  0  0  0  0  0
 ITRead=  0  0  0  0  0  0  0  0  0  0  0  0  0  0  0  0  0  0  0  0
 ITRead=  0  0  0  0  0  0  0  0  0  0  0  0  0  0  0  0  0  0  0  0
 ITRead=  0  0  0  0  0  0  0  0  0  0  0  0  0  0  0  0  0  0
 MicOpt= -1 -1 -1 -1 -1 -1 -1 -1 -1 -1 -1 -1 -1 -1 -1 -1 -1 -1 -1 -1
 MicOpt= -1 -1 -1 -1 -1 -1 -1 -1 -1 -1 -1 -1 -1 -1 -1 -1 -1 -1 -1 -1
 MicOpt= -1 -1 -1 -1 -1 -1 -1 -1 -1 -1 -1 -1 -1 -1 -1 -1 -1 -1 -1 -1
 MicOpt= -1 -1 -1 -1 -1 -1 -1 -1 -1 -1 -1 -1 -1 -1 -1 -1 -1 -1 -1 -1
 MicOpt= -1 -1 -1 -1 -1 -1 -1 -1 -1 -1 -1 -1 -1 -1 -1 -1 -1 -1 -1 -1
 MicOpt= -1 -1 -1 -1 -1 -1 -1 -1 -1 -1 -1 -1 -1 -1 -1 -1 -1 -1 -1 -1
 MicOpt= -1 -1 -1 -1 -1 -1 -1 -1 -1 -1 -1 -1 -1 -1 -1 -1 -1 -1 -1 -1
 MicOpt= -1 -1 -1 -1 -1 -1 -1 -1 -1 -1 -1 -1 -1 -1 -1 -1 -1 -1
 NAtoms=    158 NQM=      158 NQMF=       0 NMMI=      0 NMMIF=      0
                NMic=       0 NMicF=      0.
                    Isotopes and Nuclear Properties:
 (Nuclear quadrupole moments (NQMom) in fm**2, nuclear magnetic moments (NMagM)
  in nuclear magnetons)

  Atom         1           2           3           4           5           6           7           8           9          10
 IAtWgt=          24          12          12          12          12          14          12          12          12          12
 AtmWgt=  23.9850450  12.0000000  12.0000000  12.0000000  12.0000000  14.0030740  12.0000000  12.0000000  12.0000000  12.0000000
 NucSpn=           0           0           0           0           0           2           0           0           0           0
 AtZEff=  -0.0000000  -0.0000000  -0.0000000  -0.0000000  -0.0000000  -0.0000000  -0.0000000  -0.0000000  -0.0000000  -0.0000000
 NQMom=    0.0000000   0.0000000   0.0000000   0.0000000   0.0000000   2.0440000   0.0000000   0.0000000   0.0000000   0.0000000
 NMagM=    0.0000000   0.0000000   0.0000000   0.0000000   0.0000000   0.4037610   0.0000000   0.0000000   0.0000000   0.0000000
 AtZNuc=  12.0000000   6.0000000   6.0000000   6.0000000   6.0000000   7.0000000   6.0000000   6.0000000   6.0000000   6.0000000

  Atom        11          12          13          14          15          16          17          18          19          20
 IAtWgt=          12          12          12           1          14          12          12          12          12          12
 AtmWgt=  12.0000000  12.0000000  12.0000000   1.0078250  14.0030740  12.0000000  12.0000000  12.0000000  12.0000000  12.0000000
 NucSpn=           0           0           0           1           2           0           0           0           0           0
 AtZEff=  -0.0000000  -0.0000000  -0.0000000  -0.0000000  -0.0000000  -0.0000000  -0.0000000  -0.0000000  -0.0000000  -0.0000000
 NQMom=    0.0000000   0.0000000   0.0000000   0.0000000   2.0440000   0.0000000   0.0000000   0.0000000   0.0000000   0.0000000
 NMagM=    0.0000000   0.0000000   0.0000000   2.7928460   0.4037610   0.0000000   0.0000000   0.0000000   0.0000000   0.0000000
 AtZNuc=   6.0000000   6.0000000   6.0000000   1.0000000   7.0000000   6.0000000   6.0000000   6.0000000   6.0000000   6.0000000

  Atom        21          22          23          24          25          26          27          28          29          30
 IAtWgt=          12          16          12          14          12          12          12          12          12          12
 AtmWgt=  12.0000000  15.9949146  12.0000000  14.0030740  12.0000000  12.0000000  12.0000000  12.0000000  12.0000000  12.0000000
 NucSpn=           0           0           0           2           0           0           0           0           0           0
 AtZEff=  -0.0000000  -0.0000000  -0.0000000  -0.0000000  -0.0000000  -0.0000000  -0.0000000  -0.0000000  -0.0000000  -0.0000000
 NQMom=    0.0000000   0.0000000   0.0000000   2.0440000   0.0000000   0.0000000   0.0000000   0.0000000   0.0000000   0.0000000
 NMagM=    0.0000000   0.0000000   0.0000000   0.4037610   0.0000000   0.0000000   0.0000000   0.0000000   0.0000000   0.0000000
 AtZNuc=   6.0000000   8.0000000   6.0000000   7.0000000   6.0000000   6.0000000   6.0000000   6.0000000   6.0000000   6.0000000

  Atom        31          32          33          34          35          36          37          38          39          40
 IAtWgt=          12          14          12          12          12          12          12          12          16          12
 AtmWgt=  12.0000000  14.0030740  12.0000000  12.0000000  12.0000000  12.0000000  12.0000000  12.0000000  15.9949146  12.0000000
 NucSpn=           0           2           0           0           0           0           0           0           0           0
 AtZEff=  -0.0000000  -0.0000000  -0.0000000  -0.0000000  -0.0000000  -0.0000000  -0.0000000  -0.0000000  -0.0000000  -0.0000000
 NQMom=    0.0000000   2.0440000   0.0000000   0.0000000   0.0000000   0.0000000   0.0000000   0.0000000   0.0000000   0.0000000
 NMagM=    0.0000000   0.4037610   0.0000000   0.0000000   0.0000000   0.0000000   0.0000000   0.0000000   0.0000000   0.0000000
 AtZNuc=   6.0000000   7.0000000   6.0000000   6.0000000   6.0000000   6.0000000   6.0000000   6.0000000   8.0000000   6.0000000

  Atom        41          42          43          44          45          46          47          48          49          50
 IAtWgt=          12          16          16          12           1           1           1           1           1           1
 AtmWgt=  12.0000000  15.9949146  15.9949146  12.0000000   1.0078250   1.0078250   1.0078250   1.0078250   1.0078250   1.0078250
 NucSpn=           0           0           0           0           1           1           1           1           1           1
 AtZEff=  -0.0000000  -0.0000000  -0.0000000  -0.0000000  -0.0000000  -0.0000000  -0.0000000  -0.0000000  -0.0000000  -0.0000000
 NQMom=    0.0000000   0.0000000   0.0000000   0.0000000   0.0000000   0.0000000   0.0000000   0.0000000   0.0000000   0.0000000
 NMagM=    0.0000000   0.0000000   0.0000000   0.0000000   2.7928460   2.7928460   2.7928460   2.7928460   2.7928460   2.7928460
 AtZNuc=   6.0000000   8.0000000   8.0000000   6.0000000   1.0000000   1.0000000   1.0000000   1.0000000   1.0000000   1.0000000

  Atom        51          52          53          54          55          56          57          58          59          60
 IAtWgt=           1           1           1           1           1           1           1           1           1           1
 AtmWgt=   1.0078250   1.0078250   1.0078250   1.0078250   1.0078250   1.0078250   1.0078250   1.0078250   1.0078250   1.0078250
 NucSpn=           1           1           1           1           1           1           1           1           1           1
 AtZEff=  -0.0000000  -0.0000000  -0.0000000  -0.0000000  -0.0000000  -0.0000000  -0.0000000  -0.0000000  -0.0000000  -0.0000000
 NQMom=    0.0000000   0.0000000   0.0000000   0.0000000   0.0000000   0.0000000   0.0000000   0.0000000   0.0000000   0.0000000
 NMagM=    2.7928460   2.7928460   2.7928460   2.7928460   2.7928460   2.7928460   2.7928460   2.7928460   2.7928460   2.7928460
 AtZNuc=   1.0000000   1.0000000   1.0000000   1.0000000   1.0000000   1.0000000   1.0000000   1.0000000   1.0000000   1.0000000

  Atom        61          62          63          64          65          66          67          68          69          70
 IAtWgt=           1           1           1           1           1           1           1           1           1           1
 AtmWgt=   1.0078250   1.0078250   1.0078250   1.0078250   1.0078250   1.0078250   1.0078250   1.0078250   1.0078250   1.0078250
 NucSpn=           1           1           1           1           1           1           1           1           1           1
 AtZEff=  -0.0000000  -0.0000000  -0.0000000  -0.0000000  -0.0000000  -0.0000000  -0.0000000  -0.0000000  -0.0000000  -0.0000000
 NQMom=    0.0000000   0.0000000   0.0000000   0.0000000   0.0000000   0.0000000   0.0000000   0.0000000   0.0000000   0.0000000
 NMagM=    2.7928460   2.7928460   2.7928460   2.7928460   2.7928460   2.7928460   2.7928460   2.7928460   2.7928460   2.7928460
 AtZNuc=   1.0000000   1.0000000   1.0000000   1.0000000   1.0000000   1.0000000   1.0000000   1.0000000   1.0000000   1.0000000

  Atom        71          72          73          74          75          76          77          78          79          80
 IAtWgt=           1           1           1           1           1           1           1           1           1          24
 AtmWgt=   1.0078250   1.0078250   1.0078250   1.0078250   1.0078250   1.0078250   1.0078250   1.0078250   1.0078250  23.9850450
 NucSpn=           1           1           1           1           1           1           1           1           1           0
 AtZEff=  -0.0000000  -0.0000000  -0.0000000  -0.0000000  -0.0000000  -0.0000000  -0.0000000  -0.0000000  -0.0000000  -0.0000000
 NQMom=    0.0000000   0.0000000   0.0000000   0.0000000   0.0000000   0.0000000   0.0000000   0.0000000   0.0000000   0.0000000
 NMagM=    2.7928460   2.7928460   2.7928460   2.7928460   2.7928460   2.7928460   2.7928460   2.7928460   2.7928460   0.0000000
 AtZNuc=   1.0000000   1.0000000   1.0000000   1.0000000   1.0000000   1.0000000   1.0000000   1.0000000   1.0000000  12.0000000

  Atom        81          82          83          84          85          86          87          88          89          90
 IAtWgt=          12          12          12          12          14          12          12          12          12          12
 AtmWgt=  12.0000000  12.0000000  12.0000000  12.0000000  14.0030740  12.0000000  12.0000000  12.0000000  12.0000000  12.0000000
 NucSpn=           0           0           0           0           2           0           0           0           0           0
 AtZEff=  -0.0000000  -0.0000000  -0.0000000  -0.0000000  -0.0000000  -0.0000000  -0.0000000  -0.0000000  -0.0000000  -0.0000000
 NQMom=    0.0000000   0.0000000   0.0000000   0.0000000   2.0440000   0.0000000   0.0000000   0.0000000   0.0000000   0.0000000
 NMagM=    0.0000000   0.0000000   0.0000000   0.0000000   0.4037610   0.0000000   0.0000000   0.0000000   0.0000000   0.0000000
 AtZNuc=   6.0000000   6.0000000   6.0000000   6.0000000   7.0000000   6.0000000   6.0000000   6.0000000   6.0000000   6.0000000

  Atom        91          92          93          94          95          96          97          98          99         100
 IAtWgt=          12          12           1          14          12          12          12          12          12          12
 AtmWgt=  12.0000000  12.0000000   1.0078250  14.0030740  12.0000000  12.0000000  12.0000000  12.0000000  12.0000000  12.0000000
 NucSpn=           0           0           1           2           0           0           0           0           0           0
 AtZEff=  -0.0000000  -0.0000000  -0.0000000  -0.0000000  -0.0000000  -0.0000000  -0.0000000  -0.0000000  -0.0000000  -0.0000000
 NQMom=    0.0000000   0.0000000   0.0000000   2.0440000   0.0000000   0.0000000   0.0000000   0.0000000   0.0000000   0.0000000
 NMagM=    0.0000000   0.0000000   2.7928460   0.4037610   0.0000000   0.0000000   0.0000000   0.0000000   0.0000000   0.0000000
 AtZNuc=   6.0000000   6.0000000   1.0000000   7.0000000   6.0000000   6.0000000   6.0000000   6.0000000   6.0000000   6.0000000

  Atom       101         102         103         104         105         106         107         108         109         110
 IAtWgt=          16          12          14          12          12          12          12          12          12          12
 AtmWgt=  15.9949146  12.0000000  14.0030740  12.0000000  12.0000000  12.0000000  12.0000000  12.0000000  12.0000000  12.0000000
 NucSpn=           0           0           2           0           0           0           0           0           0           0
 AtZEff=  -0.0000000  -0.0000000  -0.0000000  -0.0000000  -0.0000000  -0.0000000  -0.0000000  -0.0000000  -0.0000000  -0.0000000
 NQMom=    0.0000000   0.0000000   2.0440000   0.0000000   0.0000000   0.0000000   0.0000000   0.0000000   0.0000000   0.0000000
 NMagM=    0.0000000   0.0000000   0.4037610   0.0000000   0.0000000   0.0000000   0.0000000   0.0000000   0.0000000   0.0000000
 AtZNuc=   8.0000000   6.0000000   7.0000000   6.0000000   6.0000000   6.0000000   6.0000000   6.0000000   6.0000000   6.0000000

  Atom       111         112         113         114         115         116         117         118         119         120
 IAtWgt=          14          12          12          12          12          12          12          16          12          12
 AtmWgt=  14.0030740  12.0000000  12.0000000  12.0000000  12.0000000  12.0000000  12.0000000  15.9949146  12.0000000  12.0000000
 NucSpn=           2           0           0           0           0           0           0           0           0           0
 AtZEff=  -0.0000000  -0.0000000  -0.0000000  -0.0000000  -0.0000000  -0.0000000  -0.0000000  -0.0000000  -0.0000000  -0.0000000
 NQMom=    2.0440000   0.0000000   0.0000000   0.0000000   0.0000000   0.0000000   0.0000000   0.0000000   0.0000000   0.0000000
 NMagM=    0.4037610   0.0000000   0.0000000   0.0000000   0.0000000   0.0000000   0.0000000   0.0000000   0.0000000   0.0000000
 AtZNuc=   7.0000000   6.0000000   6.0000000   6.0000000   6.0000000   6.0000000   6.0000000   8.0000000   6.0000000   6.0000000

  Atom       121         122         123         124         125         126         127         128         129         130
 IAtWgt=          16          16          12           1           1           1           1           1           1           1
 AtmWgt=  15.9949146  15.9949146  12.0000000   1.0078250   1.0078250   1.0078250   1.0078250   1.0078250   1.0078250   1.0078250
 NucSpn=           0           0           0           1           1           1           1           1           1           1
 AtZEff=  -0.0000000  -0.0000000  -0.0000000  -0.0000000  -0.0000000  -0.0000000  -0.0000000  -0.0000000  -0.0000000  -0.0000000
 NQMom=    0.0000000   0.0000000   0.0000000   0.0000000   0.0000000   0.0000000   0.0000000   0.0000000   0.0000000   0.0000000
 NMagM=    0.0000000   0.0000000   0.0000000   2.7928460   2.7928460   2.7928460   2.7928460   2.7928460   2.7928460   2.7928460
 AtZNuc=   8.0000000   8.0000000   6.0000000   1.0000000   1.0000000   1.0000000   1.0000000   1.0000000   1.0000000   1.0000000

  Atom       131         132         133         134         135         136         137         138         139         140
 IAtWgt=           1           1           1           1           1           1           1           1           1           1
 AtmWgt=   1.0078250   1.0078250   1.0078250   1.0078250   1.0078250   1.0078250   1.0078250   1.0078250   1.0078250   1.0078250
 NucSpn=           1           1           1           1           1           1           1           1           1           1
 AtZEff=  -0.0000000  -0.0000000  -0.0000000  -0.0000000  -0.0000000  -0.0000000  -0.0000000  -0.0000000  -0.0000000  -0.0000000
 NQMom=    0.0000000   0.0000000   0.0000000   0.0000000   0.0000000   0.0000000   0.0000000   0.0000000   0.0000000   0.0000000
 NMagM=    2.7928460   2.7928460   2.7928460   2.7928460   2.7928460   2.7928460   2.7928460   2.7928460   2.7928460   2.7928460
 AtZNuc=   1.0000000   1.0000000   1.0000000   1.0000000   1.0000000   1.0000000   1.0000000   1.0000000   1.0000000   1.0000000

  Atom       141         142         143         144         145         146         147         148         149         150
 IAtWgt=           1           1           1           1           1           1           1           1           1           1
 AtmWgt=   1.0078250   1.0078250   1.0078250   1.0078250   1.0078250   1.0078250   1.0078250   1.0078250   1.0078250   1.0078250
 NucSpn=           1           1           1           1           1           1           1           1           1           1
 AtZEff=  -0.0000000  -0.0000000  -0.0000000  -0.0000000  -0.0000000  -0.0000000  -0.0000000  -0.0000000  -0.0000000  -0.0000000
 NQMom=    0.0000000   0.0000000   0.0000000   0.0000000   0.0000000   0.0000000   0.0000000   0.0000000   0.0000000   0.0000000
 NMagM=    2.7928460   2.7928460   2.7928460   2.7928460   2.7928460   2.7928460   2.7928460   2.7928460   2.7928460   2.7928460
 AtZNuc=   1.0000000   1.0000000   1.0000000   1.0000000   1.0000000   1.0000000   1.0000000   1.0000000   1.0000000   1.0000000

  Atom       151         152         153         154         155         156         157         158
 IAtWgt=           1           1           1           1           1           1           1           1
 AtmWgt=   1.0078250   1.0078250   1.0078250   1.0078250   1.0078250   1.0078250   1.0078250   1.0078250
 NucSpn=           1           1           1           1           1           1           1           1
 AtZEff=  -0.0000000  -0.0000000  -0.0000000  -0.0000000  -0.0000000  -0.0000000  -0.0000000  -0.0000000
 NQMom=    0.0000000   0.0000000   0.0000000   0.0000000   0.0000000   0.0000000   0.0000000   0.0000000
 NMagM=    2.7928460   2.7928460   2.7928460   2.7928460   2.7928460   2.7928460   2.7928460   2.7928460
 AtZNuc=   1.0000000   1.0000000   1.0000000   1.0000000   1.0000000   1.0000000   1.0000000   1.0000000
 Leave Link  101 at Thu Sep  9 15:48:47 2021, MaxMem= 23488102400 cpu:               3.3 elap:               0.2
 (Enter /sw/apps/gaussian-16.0/g16/l202.exe)
 Stoichiometry    C68H72Mg2N8O8
 Framework group  C1[X(C68H72Mg2N8O8)]
 Deg. of freedom   468
 Full point group                 C1      NOp   1
 Largest Abelian subgroup         C1      NOp   1
 Largest concise Abelian subgroup C1      NOp   1
                         Standard orientation:                         
 ---------------------------------------------------------------------
 Center     Atomic      Atomic             Coordinates (Angstroms)
 Number     Number       Type             X           Y           Z
 ---------------------------------------------------------------------
      1         12           0        4.362577    0.650115    1.323611
      2          6           0        5.280418   -2.342256   -0.412909
      3          6           0        5.989817    2.389663   -1.119569
      4          6           0        3.958439    3.266893    3.068824
      5          6           0        3.821021   -1.327315    4.141793
      6          7           0        5.455846   -0.005769   -0.486147
      7          6           0        5.683724   -1.177906   -1.070389
      8          6           0        6.324829   -1.049089   -2.484519
      9          6           0        6.996880    0.388026   -2.326266
     10          6           0        6.072480    0.973864   -1.273554
     11          6           0        8.413745    0.339414   -1.763566
     12          6           0        5.253231   -1.057832   -3.626154
     13          6           0        5.805830   -1.264324   -5.039431
     14          1           0        5.019442   -2.031356   -5.993687
     15          7           0        4.456634    2.556686    0.814701
     16          6           0        5.154149    3.085421   -0.219320
     17          6           0        4.903019    4.542094   -0.177857
     18          6           0        4.156742    4.839653    1.076186
     19          6           0        4.183986    3.553466    1.724536
     20          6           0        5.311538    5.478975   -1.272899
     21          6           0        3.529175    6.087997    1.610909
     22          8           0        3.133376    6.185067    2.822724
     23          6           0        3.469645    7.239017    0.691860
     24          7           0        4.160339    0.970716    3.376402
     25          6           0        3.938035    2.195851    3.864877
     26          6           0        3.547850    2.144054    5.312293
     27          6           0        3.312100    0.601652    5.651661
     28          6           0        3.709927   -0.004547    4.283258
     29          6           0        4.562919    2.734692    6.300622
     30          6           0        1.939114    0.216859    6.257684
     31          6           0        0.848844    0.422097    5.229926
     32          7           0        4.342294   -1.474728    1.765965
     33          6           0        4.115680   -2.074128    3.013378
     34          6           0        4.309756   -3.525100    2.837077
     35          6           0        4.654243   -3.668209    1.494433
     36          6           0        4.699734   -2.385257    0.877784
     37          6           0        4.220617   -4.508369    3.861611
     38          6           0        5.018536   -4.604233    0.443240
     39          8           0        5.055588   -5.832004    0.349965
     40          6           0        5.557312   -3.772766   -0.803440
     41          6           0        4.879557   -4.309295   -2.034737
     42          8           0        3.651703   -4.163914   -2.203872
     43          8           0        5.809592   -4.694330   -2.922050
     44          6           0        5.203945   -5.209613   -4.178963
     45          1           0        6.666310    3.023684   -1.696037
     46          1           0        3.705579    4.133507    3.683218
     47          1           0        3.586686   -2.014986    4.956439
     48          1           0        7.088388   -1.794676   -2.707008
     49          1           0        6.938515    0.968186   -3.246989
     50          1           0        8.680622   -0.667405   -1.442609
     51          1           0        8.412993    1.022246   -0.913723
     52          1           0        9.128303    0.750166   -2.477336
     53          1           0        4.835512   -0.056936   -3.734684
     54          1           0        4.483712   -1.804564   -3.427264
     55          1           0        6.835065   -1.623564   -5.016407
     56          1           0        5.869338   -0.291396   -5.526852
     57          1           0        5.985170    4.997948   -1.980978
     58          1           0        5.914374    6.262097   -0.813532
     59          1           0        4.451893    5.923460   -1.774672
     60          1           0        4.480234    7.502303    0.378909
     61          1           0        2.909026    8.012869    1.215033
     62          1           0        2.936450    6.942140   -0.211752
     63          1           0        2.624098    2.693748    5.488200
     64          1           0        4.036525    0.226649    6.375024
     65          1           0        4.154045    3.528558    6.926165
     66          1           0        5.421387    3.088883    5.730646
     67          1           0        5.029160    2.008300    6.965747
     68          1           0        1.705494    0.859533    7.105822
     69          1           0        1.895204   -0.816319    6.602456
     70          1           0        0.624197    1.484108    5.322118
     71          1           0       -0.023828   -0.184251    5.474868
     72          1           0        1.218635    0.253883    4.218272
     73          1           0        3.663388   -5.342789    3.435925
     74          1           0        3.725630   -4.112690    4.748194
     75          1           0        5.276338   -4.718983    4.031760
     76          1           0        6.636716   -3.917902   -0.834153
     77          1           0        5.597927   -6.213619   -4.337023
     78          1           0        5.401308   -4.461863   -4.947287
     79          1           0        4.132529   -5.411100   -4.150495
     80         12           0       -4.186122    0.246017   -1.432116
     81          6           0       -5.878250   -1.674379    1.083402
     82          6           0       -6.180522    2.871210   -0.557275
     83          6           0       -3.034261    1.825427   -3.931333
     84          6           0       -3.163564   -2.769405   -2.848891
     85          7           0       -5.784712    0.449161    0.082983
     86          6           0       -6.298894   -0.329450    1.023045
     87          6           0       -7.262229    0.394225    2.001739
     88          6           0       -7.701947    1.611085    1.050545
     89          6           0       -6.467574    1.678606    0.153647
     90          6           0       -8.906781    1.290690    0.181597
     91          6           0       -6.529741    0.908355    3.290596
     92          6           0       -7.457489    1.348324    4.425268
     93          1           0       -7.040117    1.098368    5.802147
     94          7           0       -4.187798    2.189205   -1.835313
     95          6           0       -5.056670    3.114602   -1.377062
     96          6           0       -4.641400    4.390210   -1.980810
     97          6           0       -3.557303    4.113773   -2.962164
     98          6           0       -3.565589    2.664630   -2.962846
     99          6           0       -5.205302    5.714279   -1.553874
    100          6           0       -2.669823    5.006005   -3.776114
    101          8           0       -1.959926    4.550517   -4.741213
    102          6           0       -2.727205    6.442969   -3.470643
    103          7           0       -3.414985   -0.376055   -3.259871
    104          6           0       -2.934285    0.513490   -4.146180
    105          6           0       -2.184651   -0.177196   -5.260359
    106          6           0       -2.054327   -1.705463   -4.807576
    107          6           0       -2.864476   -1.650123   -3.493808
    108          6           0       -2.835503   -0.109682   -6.641743
    109          6           0       -0.623372   -2.308389   -4.768721
    110          6           0        0.184295   -1.650503   -3.673154
    111          7           0       -4.296193   -1.842931   -0.891505
    112          6           0       -3.827173   -2.943880   -1.641185
    113          6           0       -4.231940   -4.166986   -0.918278
    114          6           0       -4.933869   -3.689447    0.198753
    115          6           0       -4.981830   -2.269618    0.163150
    116          6           0       -3.985246   -5.503485   -1.341409
    117          6           0       -5.654322   -4.063984    1.394310
    118          8           0       -5.864077   -5.121766    1.986634
    119          6           0       -6.406821   -2.780581    1.953783
    120          6           0       -6.143454   -2.695418    3.432265
    121          8           0       -4.993858   -2.487216    3.858517
    122          8           0       -7.317966   -2.656458    4.087531
    123          6           0       -7.108998   -2.560680    5.556879
    124          1           0       -6.904866    3.685288   -0.518760
    125          1           0       -2.526873    2.324049   -4.760437
    126          1           0       -2.798468   -3.745928   -3.174161
    127          1           0       -8.131631   -0.182830    2.293160
    128          1           0       -7.813998    2.533115    1.615046
    129          1           0       -9.196943    0.253613    0.261725
    130          1           0       -8.608265    1.522788   -0.832334
    131          1           0       -9.731698    1.969646    0.415799
    132          1           0       -6.040086    1.864832    3.066688
    133          1           0       -5.837540    0.173909    3.654012
    134          1           0       -8.489016    1.009998    4.268938
    135          1           0       -7.528217    2.438668    4.412656
    136          1           0       -6.101198    5.588690   -0.933384
    137          1           0       -5.569187    6.213497   -2.458432
    138          1           0       -4.461907    6.353171   -1.072371
    139          1           0       -3.746000    6.799697   -3.601991
    140          1           0       -1.958816    6.905043   -4.093490
    141          1           0       -2.477475    6.586134   -2.413402
    142          1           0       -1.192227    0.240909   -5.375980
    143          1           0       -2.599656   -2.379017   -5.484911
    144          1           0       -2.178623    0.336021   -7.412411
    145          1           0       -3.757377    0.450353   -6.557714
    146          1           0       -3.180002   -1.063747   -7.037064
    147          1           0       -0.100299   -2.103005   -5.705929
    148          1           0       -0.611386   -3.383256   -4.622079
    149          1           0        0.544025   -0.733153   -4.148699
    150          1           0        1.011865   -2.289209   -3.371114
    151          1           0       -0.456721   -1.357132   -2.833701
    152          1           0       -3.664421   -6.052893   -0.466357
    153          1           0       -3.237026   -5.538981   -2.130513
    154          1           0       -4.978683   -5.779465   -1.704985
    155          1           0       -7.468165   -2.901040    1.733279
    156          1           0       -7.650101   -3.396175    6.011673
    157          1           0       -7.429628   -1.540023    5.838318
    158          1           0       -6.106410   -2.728493    5.932527
 ---------------------------------------------------------------------
 Rotational constants (GHZ):           0.0216028           0.0127082           0.0123951
 Leave Link  202 at Thu Sep  9 15:48:48 2021, MaxMem= 23488102400 cpu:               0.2 elap:               0.0
 (Enter /sw/apps/gaussian-16.0/g16/l301.exe)
 Standard basis: def2SVP (5D, 7F)
 Ernie: Thresh=  0.10000D-02 Tol=  0.10000D-05 Strict=F.
 There are  1658 symmetry adapted cartesian basis functions of A   symmetry.
 There are  1572 symmetry adapted basis functions of A   symmetry.
  1572 basis functions,  2678 primitive gaussians,  1658 cartesian basis functions
   312 alpha electrons      312 beta electrons
       nuclear repulsion energy     15385.2654533461 Hartrees.
 IExCor=20419 DFT=T Ex+Corr=CAM-B3LYP ExCW=0 ScaHFX=  1.000000
 ScaDFX=  1.000000  1.000000  1.000000  0.810000 ScalE2=  1.000000  1.000000
 IRadAn=      5 IRanWt=     -1 IRanGd=            0 ICorTp=0 IEmpDi=  4
 HFx  wShort=  0.000000 wLong=  0.330000 cFull=  0.190000 cShort=  0.000000 cLong=  0.460000
 DFx  wShort=  0.000000 wLong=  0.330000 cFull=  0.190000 cShort=  0.000000 cLong=  0.460000
 NAtoms=  158 NActive=  158 NUniq=  158 SFac= 1.00D+00 NAtFMM=   60 NAOKFM=T Big=T
 Integral buffers will be    131072 words long.
 Raffenetti 1 integral format.
 Two-electron integral symmetry is turned on.
 Leave Link  301 at Thu Sep  9 15:48:48 2021, MaxMem= 23488102400 cpu:               1.8 elap:               0.1
 (Enter /sw/apps/gaussian-16.0/g16/l302.exe)
 NPDir=0 NMtPBC=     1 NCelOv=     1 NCel=       1 NClECP=     1 NCelD=      1
         NCelK=      1 NCelE2=     1 NClLst=     1 CellRange=     0.0.
 One-electron integrals computed using PRISM.
 One-electron integral symmetry used in STVInt
   1 Symmetry operations used in ECPInt.
 ECPInt:  NShTT=  271216 NPrTT=  987664 LenC2=  149693 LenP2D=  312409.
 LDataN:  DoStor=T MaxTD1= 4 Len=   56
 NBasis=  1572 RedAO= T EigKep=  3.36D-04  NBF=  1572
 NBsUse=  1572 1.00D-06 EigRej= -1.00D+00 NBFU=  1572
 Precomputing XC quadrature grid using
 IXCGrd= 4 IRadAn=           5 IRanWt=          -1 IRanGd=           0 AccXCQ= 0.00D+00.
 Generated NRdTot=       0 NPtTot=           0 NUsed=           0 NTot=          32
 NSgBfM=  1327  1309  1312  1321  1327 MxSgAt=   158 MxSgA2=   158.
 Leave Link  302 at Thu Sep  9 15:48:54 2021, MaxMem= 23488102400 cpu:             138.9 elap:               5.8
 (Enter /sw/apps/gaussian-16.0/g16/l303.exe)
 DipDrv:  MaxL=1.
 Leave Link  303 at Thu Sep  9 15:48:54 2021, MaxMem= 23488102400 cpu:               8.8 elap:               0.4
 (Enter /sw/apps/gaussian-16.0/g16/l308.exe)
 Leave Link  308 at Thu Sep  9 15:48:55 2021, MaxMem= 23488102400 cpu:              13.2 elap:               0.6
 (Enter /sw/apps/gaussian-16.0/g16/l401.exe)
 ExpMin= 3.36D-02 ExpMax= 4.95D+03 ExpMxC= 7.45D+02 IAcc=3 IRadAn=         5 AccDes= 0.00D+00
 Harris functional with IExCor=20419 and IRadAn=       5 diagonalized for initial guess.
 HarFok:  IExCor=20419 AccDes= 0.00D+00 IRadAn=         5 IDoV= 1 UseB2=F ITyADJ=14
 ICtDFT=  3500011 ScaDFX=  1.000000  1.000000  1.000000  1.000000
 FoFCou: FMM=F IPFlag=           0 FMFlag=      100000 FMFlg1=        2001
         NFxFlg=           0 DoJE=T BraDBF=F KetDBF=T FulRan=T
         wScrn=  0.000000 ICntrl=       500 IOpCl=  0 I1Cent=   200000004 NGrid=           0
         NMat0=    1 NMatS0=      1 NMatT0=    0 NMatD0=    1 NMtDS0=    0 NMtDT0=    0
 Petite list used in FoFCou.
 Harris En= -3918.65922744032    
 JPrj=0 DoOrth=F DoCkMO=F.
 Leave Link  401 at Thu Sep  9 15:49:03 2021, MaxMem= 23488102400 cpu:             196.7 elap:               8.2
 (Enter /sw/apps/gaussian-16.0/g16/l502.exe)
 Integral symmetry usage will be decided dynamically.
 Closed shell SCF:
 Using DIIS extrapolation, IDIIS=  1040.
 NGot= 23488102400 LenX= 23482547354 LenY= 23479796732
 Requested convergence on RMS density matrix=1.00D-08 within 128 cycles.
 Requested convergence on MAX density matrix=1.00D-06.
 Requested convergence on             energy=1.00D-06.
 No special actions if energy rises.
 Fock matrices will be formed incrementally for  20 cycles.

 Cycle   1  Pass 1  IDiag  1:
 FoFJK:  IHMeth= 1 ICntrl=       0 DoSepK=T KAlg= 0 I1Cent=           0 FoldK=F
 IRaf=         1 NMat=       1 IRICut=       1 DoRegI=T DoRafI=F ISym2E= 0 IDoP0=0 IntGTp=1.
 FoFCou: FMM=T IPFlag=           0 FMFlag=      100000 FMFlg1=        2001
         NFxFlg=           0 DoJE=T BraDBF=F KetDBF=F FulRan=T
         wScrn=  0.000000 ICntrl=       500 IOpCl=  0 I1Cent=           0 NGrid=           0
         NMat0=    1 NMatS0=      1 NMatT0=    0 NMatD0=    1 NMtDS0=    0 NMtDT0=    0
 Symmetry not used in FoFCou.
 FMM levels:  10  Number of levels for PrismC:   9
 E= -4068.94942271699    
 DIIS: error= 2.02D-02 at cycle   1 NSaved=   1.
 NSaved= 1 IEnMin= 1 EnMin= -4068.94942271699     IErMin= 1 ErrMin= 2.02D-02
 ErrMax= 2.02D-02  0.00D+00 EMaxC= 1.00D-01 BMatC= 1.69D+00 BMatP= 1.69D+00
 IDIUse=3 WtCom= 7.98D-01 WtEn= 2.02D-01
 Coeff-Com:  0.100D+01
 Coeff-En:   0.100D+01
 Coeff:      0.100D+01
 Gap=     0.120 Goal=   None    Shift=    0.000
 GapD=    0.120 DampG=1.000 DampE=0.500 DampFc=0.5000 IDamp=-1.
 Damping current iteration by 5.00D-01
 RMSDP=1.58D-03 MaxDP=1.35D-01              OVMax= 2.10D-01

 Cycle   2  Pass 1  IDiag  1:
 RMSU=  7.72D-04    CP:  9.82D-01
 E= -4069.33805227221     Delta-E=       -0.388629555222 Rises=F Damp=T
 DIIS: error= 1.26D-02 at cycle   2 NSaved=   2.
 NSaved= 2 IEnMin= 2 EnMin= -4069.33805227221     IErMin= 2 ErrMin= 1.26D-02
 ErrMax= 1.26D-02  0.00D+00 EMaxC= 1.00D-01 BMatC= 3.07D-01 BMatP= 1.69D+00
 IDIUse=3 WtCom= 8.74D-01 WtEn= 1.26D-01
 Coeff-Com: -0.212D+00 0.121D+01
 Coeff-En:   0.000D+00 0.100D+01
 Coeff:     -0.185D+00 0.118D+01
 Gap=     0.139 Goal=   None    Shift=    0.000
 RMSDP=7.71D-04 MaxDP=9.43D-02 DE=-3.89D-01 OVMax= 1.93D-01

 Cycle   3  Pass 1  IDiag  1:
 RMSU=  7.39D-04    CP:  9.68D-01  1.23D+00
 E= -4069.62386483316     Delta-E=       -0.285812560949 Rises=F Damp=F
 DIIS: error= 1.58D-02 at cycle   3 NSaved=   3.
 NSaved= 3 IEnMin= 3 EnMin= -4069.62386483316     IErMin= 2 ErrMin= 1.26D-02
 ErrMax= 1.58D-02  0.00D+00 EMaxC= 1.00D-01 BMatC= 2.06D-01 BMatP= 3.07D-01
 IDIUse=3 WtCom= 8.42D-01 WtEn= 1.58D-01
 Coeff-Com: -0.268D+00 0.655D+00 0.613D+00
 Coeff-En:   0.000D+00 0.000D+00 0.100D+01
 Coeff:     -0.225D+00 0.551D+00 0.674D+00
 Gap=     0.124 Goal=   None    Shift=    0.000
 RMSDP=5.23D-04 MaxDP=4.81D-02 DE=-2.86D-01 OVMax= 1.60D-01

 Cycle   4  Pass 1  IDiag  1:
 RMSU=  2.73D-04    CP:  9.65D-01  1.55D+00  4.94D-01
 E= -4069.76272064781     Delta-E=       -0.138855814646 Rises=F Damp=F
 DIIS: error= 7.37D-03 at cycle   4 NSaved=   4.
 NSaved= 4 IEnMin= 4 EnMin= -4069.76272064781     IErMin= 4 ErrMin= 7.37D-03
 ErrMax= 7.37D-03  0.00D+00 EMaxC= 1.00D-01 BMatC= 5.31D-02 BMatP= 2.06D-01
 IDIUse=3 WtCom= 9.26D-01 WtEn= 7.37D-02
 Coeff-Com: -0.110D+00 0.229D+00 0.411D+00 0.470D+00
 Coeff-En:   0.000D+00 0.000D+00 0.231D+00 0.769D+00
 Coeff:     -0.102D+00 0.213D+00 0.398D+00 0.492D+00
 Gap=     0.122 Goal=   None    Shift=    0.000
 RMSDP=2.12D-04 MaxDP=2.03D-02 DE=-1.39D-01 OVMax= 7.43D-02

 Cycle   5  Pass 1  IDiag  1:
 RMSU=  8.15D-05    CP:  9.64D-01  1.49D+00  6.86D-01  5.34D-01
 E= -4069.81152073095     Delta-E=       -0.048800083139 Rises=F Damp=F
 DIIS: error= 7.16D-04 at cycle   5 NSaved=   5.
 NSaved= 5 IEnMin= 5 EnMin= -4069.81152073095     IErMin= 5 ErrMin= 7.16D-04
 ErrMax= 7.16D-04  0.00D+00 EMaxC= 1.00D-01 BMatC= 1.45D-03 BMatP= 5.31D-02
 IDIUse=3 WtCom= 9.93D-01 WtEn= 7.16D-03
 Coeff-Com: -0.394D-01 0.777D-01 0.178D+00 0.260D+00 0.523D+00
 Coeff-En:   0.000D+00 0.000D+00 0.000D+00 0.000D+00 0.100D+01
 Coeff:     -0.391D-01 0.771D-01 0.177D+00 0.259D+00 0.527D+00
 Gap=     0.122 Goal=   None    Shift=    0.000
 RMSDP=4.76D-05 MaxDP=4.31D-03 DE=-4.88D-02 OVMax= 2.18D-02

 Cycle   6  Pass 1  IDiag  1:
 RMSU=  3.36D-05    CP:  9.64D-01  1.49D+00  6.76D-01  6.15D-01  7.04D-01
 E= -4069.81286899464     Delta-E=       -0.001348263693 Rises=F Damp=F
 DIIS: error= 2.21D-04 at cycle   6 NSaved=   6.
 NSaved= 6 IEnMin= 6 EnMin= -4069.81286899464     IErMin= 6 ErrMin= 2.21D-04
 ErrMax= 2.21D-04  0.00D+00 EMaxC= 1.00D-01 BMatC= 2.11D-04 BMatP= 1.45D-03
 IDIUse=3 WtCom= 9.98D-01 WtEn= 2.21D-03
 Coeff-Com:  0.159D-02-0.544D-02 0.146D-01 0.445D-01 0.299D+00 0.646D+00
 Coeff-En:   0.000D+00 0.000D+00 0.000D+00 0.000D+00 0.115D+00 0.885D+00
 Coeff:      0.159D-02-0.543D-02 0.146D-01 0.444D-01 0.299D+00 0.646D+00
 Gap=     0.122 Goal=   None    Shift=    0.000
 RMSDP=1.81D-05 MaxDP=1.34D-03 DE=-1.35D-03 OVMax= 8.65D-03

 Cycle   7  Pass 1  IDiag  1:
 RMSU=  1.18D-05    CP:  9.64D-01  1.49D+00  6.82D-01  6.12D-01  8.20D-01
                    CP:  7.38D-01
 E= -4069.81310645697     Delta-E=       -0.000237462329 Rises=F Damp=F
 DIIS: error= 1.11D-04 at cycle   7 NSaved=   7.
 NSaved= 7 IEnMin= 7 EnMin= -4069.81310645697     IErMin= 7 ErrMin= 1.11D-04
 ErrMax= 1.11D-04  0.00D+00 EMaxC= 1.00D-01 BMatC= 2.91D-05 BMatP= 2.11D-04
 IDIUse=3 WtCom= 9.99D-01 WtEn= 1.11D-03
 Coeff-Com:  0.465D-02-0.102D-01-0.867D-02-0.249D-02 0.108D+00 0.349D+00
 Coeff-Com:  0.560D+00
 Coeff-En:   0.000D+00 0.000D+00 0.000D+00 0.000D+00 0.000D+00 0.000D+00
 Coeff-En:   0.100D+01
 Coeff:      0.464D-02-0.102D-01-0.866D-02-0.248D-02 0.108D+00 0.348D+00
 Coeff:      0.561D+00
 Gap=     0.123 Goal=   None    Shift=    0.000
 RMSDP=7.09D-06 MaxDP=1.11D-03 DE=-2.37D-04 OVMax= 3.53D-03

 Cycle   8  Pass 1  IDiag  1:
 RMSU=  4.99D-06    CP:  9.64D-01  1.49D+00  6.83D-01  6.18D-01  8.19D-01
                    CP:  8.60D-01  8.00D-01
 E= -4069.81314204431     Delta-E=       -0.000035587342 Rises=F Damp=F
 DIIS: error= 5.26D-05 at cycle   8 NSaved=   8.
 NSaved= 8 IEnMin= 8 EnMin= -4069.81314204431     IErMin= 8 ErrMin= 5.26D-05
 ErrMax= 5.26D-05  0.00D+00 EMaxC= 1.00D-01 BMatC= 5.04D-06 BMatP= 2.91D-05
 IDIUse=1 WtCom= 1.00D+00 WtEn= 0.00D+00
 Coeff-Com:  0.227D-02-0.453D-02-0.795D-02-0.120D-01-0.759D-02 0.352D-01
 Coeff-Com:  0.306D+00 0.689D+00
 Coeff:      0.227D-02-0.453D-02-0.795D-02-0.120D-01-0.759D-02 0.352D-01
 Coeff:      0.306D+00 0.689D+00
 Gap=     0.123 Goal=   None    Shift=    0.000
 RMSDP=3.47D-06 MaxDP=3.91D-04 DE=-3.56D-05 OVMax= 1.24D-03

 Cycle   9  Pass 1  IDiag  1:
 RMSU=  2.03D-06    CP:  9.64D-01  1.49D+00  6.83D-01  6.19D-01  8.35D-01
                    CP:  8.89D-01  9.86D-01  9.85D-01
 E= -4069.81315035861     Delta-E=       -0.000008314295 Rises=F Damp=F
 DIIS: error= 1.99D-05 at cycle   9 NSaved=   9.
 NSaved= 9 IEnMin= 9 EnMin= -4069.81315035861     IErMin= 9 ErrMin= 1.99D-05
 ErrMax= 1.99D-05  0.00D+00 EMaxC= 1.00D-01 BMatC= 8.39D-07 BMatP= 5.04D-06
 IDIUse=1 WtCom= 1.00D+00 WtEn= 0.00D+00
 Coeff-Com:  0.493D-03-0.820D-03-0.280D-02-0.617D-02-0.198D-01-0.419D-01
 Coeff-Com:  0.848D-01 0.350D+00 0.637D+00
 Coeff:      0.493D-03-0.820D-03-0.280D-02-0.617D-02-0.198D-01-0.419D-01
 Coeff:      0.848D-01 0.350D+00 0.637D+00
 Gap=     0.123 Goal=   None    Shift=    0.000
 RMSDP=1.52D-06 MaxDP=1.61D-04 DE=-8.31D-06 OVMax= 8.04D-04

 Cycle  10  Pass 1  IDiag  1:
 RMSU=  9.93D-07    CP:  9.64D-01  1.49D+00  6.83D-01  6.20D-01  8.39D-01
                    CP:  9.02D-01  1.03D+00  1.15D+00  1.06D+00
 E= -4069.81315223818     Delta-E=       -0.000001879569 Rises=F Damp=F
 DIIS: error= 8.96D-06 at cycle  10 NSaved=  10.
 NSaved=10 IEnMin=10 EnMin= -4069.81315223818     IErMin=10 ErrMin= 8.96D-06
 ErrMax= 8.96D-06  0.00D+00 EMaxC= 1.00D-01 BMatC= 1.77D-07 BMatP= 8.39D-07
 IDIUse=1 WtCom= 1.00D+00 WtEn= 0.00D+00
 Coeff-Com: -0.433D-03 0.912D-03 0.123D-02 0.103D-02-0.347D-02-0.314D-01
 Coeff-Com: -0.442D-01-0.670D-01 0.220D+00 0.923D+00
 Coeff:     -0.433D-03 0.912D-03 0.123D-02 0.103D-02-0.347D-02-0.314D-01
 Coeff:     -0.442D-01-0.670D-01 0.220D+00 0.923D+00
 Gap=     0.123 Goal=   None    Shift=    0.000
 RMSDP=1.30D-06 MaxDP=1.22D-04 DE=-1.88D-06 OVMax= 6.79D-04

 Cycle  11  Pass 1  IDiag  1:
 RMSU=  5.61D-07    CP:  9.64D-01  1.49D+00  6.83D-01  6.20D-01  8.41D-01
                    CP:  9.11D-01  1.08D+00  1.27D+00  1.40D+00  1.39D+00
 E= -4069.81315312231     Delta-E=       -0.000000884134 Rises=F Damp=F
 DIIS: error= 4.55D-06 at cycle  11 NSaved=  11.
 NSaved=11 IEnMin=11 EnMin= -4069.81315312231     IErMin=11 ErrMin= 4.55D-06
 ErrMax= 4.55D-06  0.00D+00 EMaxC= 1.00D-01 BMatC= 7.43D-08 BMatP= 1.77D-07
 IDIUse=1 WtCom= 1.00D+00 WtEn= 0.00D+00
 Coeff-Com: -0.348D-03 0.677D-03 0.140D-02 0.216D-02 0.445D-02-0.827D-02
 Coeff-Com: -0.402D-01-0.131D+00-0.518D-01 0.497D+00 0.726D+00
 Coeff:     -0.348D-03 0.677D-03 0.140D-02 0.216D-02 0.445D-02-0.827D-02
 Coeff:     -0.402D-01-0.131D+00-0.518D-01 0.497D+00 0.726D+00
 Gap=     0.123 Goal=   None    Shift=    0.000
 RMSDP=7.43D-07 MaxDP=7.31D-05 DE=-8.84D-07 OVMax= 4.23D-04

 Cycle  12  Pass 1  IDiag  1:
 RMSU=  2.82D-07    CP:  9.64D-01  1.49D+00  6.83D-01  6.20D-01  8.42D-01
                    CP:  9.14D-01  1.10D+00  1.34D+00  1.57D+00  1.79D+00
                    CP:  1.19D+00
 E= -4069.81315342971     Delta-E=       -0.000000307402 Rises=F Damp=F
 DIIS: error= 2.84D-06 at cycle  12 NSaved=  12.
 NSaved=12 IEnMin=12 EnMin= -4069.81315342971     IErMin=12 ErrMin= 2.84D-06
 ErrMax= 2.84D-06  0.00D+00 EMaxC= 1.00D-01 BMatC= 1.71D-08 BMatP= 7.43D-08
 IDIUse=1 WtCom= 1.00D+00 WtEn= 0.00D+00
 Coeff-Com: -0.872D-05-0.536D-06 0.222D-03 0.559D-03 0.347D-02 0.396D-02
 Coeff-Com:  0.219D-02-0.343D-01-0.758D-01-0.538D-01 0.240D+00 0.914D+00
 Coeff:     -0.872D-05-0.536D-06 0.222D-03 0.559D-03 0.347D-02 0.396D-02
 Coeff:      0.219D-02-0.343D-01-0.758D-01-0.538D-01 0.240D+00 0.914D+00
 Gap=     0.123 Goal=   None    Shift=    0.000
 RMSDP=4.64D-07 MaxDP=2.55D-05 DE=-3.07D-07 OVMax= 2.75D-04

 Cycle  13  Pass 1  IDiag  1:
 RMSU=  1.74D-07    CP:  9.64D-01  1.49D+00  6.83D-01  6.20D-01  8.42D-01
                    CP:  9.14D-01  1.10D+00  1.36D+00  1.68D+00  2.02D+00
                    CP:  1.60D+00  1.27D+00
 E= -4069.81315353413     Delta-E=       -0.000000104414 Rises=F Damp=F
 DIIS: error= 1.53D-06 at cycle  13 NSaved=  13.
 NSaved=13 IEnMin=13 EnMin= -4069.81315353413     IErMin=13 ErrMin= 1.53D-06
 ErrMax= 1.53D-06  0.00D+00 EMaxC= 1.00D-01 BMatC= 9.59D-09 BMatP= 1.71D-08
 IDIUse=1 WtCom= 1.00D+00 WtEn= 0.00D+00
 Coeff-Com:  0.124D-03-0.253D-03-0.377D-03-0.463D-03 0.689D-03 0.483D-02
 Coeff-Com:  0.182D-01 0.250D-01-0.291D-01-0.240D+00-0.176D+00 0.598D+00
 Coeff-Com:  0.799D+00
 Coeff:      0.124D-03-0.253D-03-0.377D-03-0.463D-03 0.689D-03 0.483D-02
 Coeff:      0.182D-01 0.250D-01-0.291D-01-0.240D+00-0.176D+00 0.598D+00
 Coeff:      0.799D+00
 Gap=     0.123 Goal=   None    Shift=    0.000
 RMSDP=3.70D-07 MaxDP=2.51D-05 DE=-1.04D-07 OVMax= 2.31D-04

 Cycle  14  Pass 1  IDiag  1:
 RMSU=  8.10D-08    CP:  9.64D-01  1.49D+00  6.83D-01  6.20D-01  8.42D-01
                    CP:  9.15D-01  1.11D+00  1.39D+00  1.75D+00  2.22D+00
                    CP:  1.86D+00  1.79D+00  1.10D+00
 E= -4069.81315357649     Delta-E=       -0.000000042364 Rises=F Damp=F
 DIIS: error= 7.71D-07 at cycle  14 NSaved=  14.
 NSaved=14 IEnMin=14 EnMin= -4069.81315357649     IErMin=14 ErrMin= 7.71D-07
 ErrMax= 7.71D-07  0.00D+00 EMaxC= 1.00D-01 BMatC= 1.39D-09 BMatP= 9.59D-09
 IDIUse=1 WtCom= 1.00D+00 WtEn= 0.00D+00
 Coeff-Com:  0.689D-04-0.136D-03-0.254D-03-0.394D-03-0.406D-03 0.110D-02
 Coeff-Com:  0.969D-02 0.201D-01 0.652D-02-0.100D+00-0.147D+00 0.921D-01
 Coeff-Com:  0.398D+00 0.721D+00
 Coeff:      0.689D-04-0.136D-03-0.254D-03-0.394D-03-0.406D-03 0.110D-02
 Coeff:      0.969D-02 0.201D-01 0.652D-02-0.100D+00-0.147D+00 0.921D-01
 Coeff:      0.398D+00 0.721D+00
 Gap=     0.123 Goal=   None    Shift=    0.000
 RMSDP=1.09D-07 MaxDP=7.71D-06 DE=-4.24D-08 OVMax= 6.30D-05

 Cycle  15  Pass 1  IDiag  1:
 RMSU=  3.97D-08    CP:  9.64D-01  1.49D+00  6.83D-01  6.20D-01  8.42D-01
                    CP:  9.15D-01  1.11D+00  1.39D+00  1.77D+00  2.26D+00
                    CP:  1.96D+00  1.94D+00  1.34D+00  1.04D+00
 E= -4069.81315358102     Delta-E=       -0.000000004529 Rises=F Damp=F
 DIIS: error= 3.57D-07 at cycle  15 NSaved=  15.
 NSaved=15 IEnMin=15 EnMin= -4069.81315358102     IErMin=15 ErrMin= 3.57D-07
 ErrMax= 3.57D-07  0.00D+00 EMaxC= 1.00D-01 BMatC= 2.56D-10 BMatP= 1.39D-09
 IDIUse=1 WtCom= 1.00D+00 WtEn= 0.00D+00
 Coeff-Com:  0.617D-05-0.105D-04-0.361D-04-0.873D-04-0.277D-03-0.577D-03
 Coeff-Com:  0.103D-02 0.284D-02 0.872D-02 0.151D-02-0.310D-01-0.705D-01
 Coeff-Com:  0.288D-01 0.310D+00 0.750D+00
 Coeff:      0.617D-05-0.105D-04-0.361D-04-0.873D-04-0.277D-03-0.577D-03
 Coeff:      0.103D-02 0.284D-02 0.872D-02 0.151D-02-0.310D-01-0.705D-01
 Coeff:      0.288D-01 0.310D+00 0.750D+00
 Gap=     0.123 Goal=   None    Shift=    0.000
 RMSDP=4.01D-08 MaxDP=2.16D-06 DE=-4.53D-09 OVMax= 3.02D-05

 Cycle  16  Pass 1  IDiag  1:
 RMSU=  1.98D-08    CP:  9.64D-01  1.49D+00  6.83D-01  6.20D-01  8.42D-01
                    CP:  9.15D-01  1.11D+00  1.39D+00  1.77D+00  2.28D+00
                    CP:  1.98D+00  1.99D+00  1.41D+00  1.24D+00  1.12D+00
 E= -4069.81315358162     Delta-E=       -0.000000000597 Rises=F Damp=F
 DIIS: error= 2.15D-07 at cycle  16 NSaved=  16.
 NSaved=16 IEnMin=16 EnMin= -4069.81315358162     IErMin=16 ErrMin= 2.15D-07
 ErrMax= 2.15D-07  0.00D+00 EMaxC= 1.00D-01 BMatC= 9.23D-11 BMatP= 2.56D-10
 IDIUse=1 WtCom= 1.00D+00 WtEn= 0.00D+00
 Coeff-Com: -0.136D-04 0.276D-04 0.435D-04 0.465D-04-0.365D-04-0.623D-03
 Coeff-Com: -0.164D-02-0.399D-02 0.355D-02 0.245D-01 0.193D-01-0.620D-01
 Coeff-Com: -0.779D-01-0.227D-01 0.398D+00 0.723D+00
 Coeff:     -0.136D-04 0.276D-04 0.435D-04 0.465D-04-0.365D-04-0.623D-03
 Coeff:     -0.164D-02-0.399D-02 0.355D-02 0.245D-01 0.193D-01-0.620D-01
 Coeff:     -0.779D-01-0.227D-01 0.398D+00 0.723D+00
 Gap=     0.123 Goal=   None    Shift=    0.000
 RMSDP=2.32D-08 MaxDP=1.39D-06 DE=-5.97D-10 OVMax= 1.32D-05

 Cycle  17  Pass 1  IDiag  1:
 RMSU=  1.11D-08    CP:  9.64D-01  1.49D+00  6.83D-01  6.20D-01  8.42D-01
                    CP:  9.15D-01  1.11D+00  1.39D+00  1.78D+00  2.28D+00
                    CP:  2.00D+00  2.01D+00  1.45D+00  1.33D+00  1.40D+00
                    CP:  1.19D+00
 E= -4069.81315358208     Delta-E=       -0.000000000458 Rises=F Damp=F
 DIIS: error= 9.41D-08 at cycle  17 NSaved=  17.
 NSaved=17 IEnMin=17 EnMin= -4069.81315358208     IErMin=17 ErrMin= 9.41D-08
 ErrMax= 9.41D-08  0.00D+00 EMaxC= 1.00D-01 BMatC= 2.05D-11 BMatP= 9.23D-11
 IDIUse=1 WtCom= 1.00D+00 WtEn= 0.00D+00
 Coeff-Com: -0.762D-05 0.149D-04 0.295D-04 0.422D-04 0.759D-04-0.140D-03
 Coeff-Com: -0.845D-03-0.282D-02-0.233D-03 0.103D-01 0.174D-01-0.922D-02
 Coeff-Com: -0.375D-01-0.974D-01-0.149D-01 0.306D+00 0.829D+00
 Coeff:     -0.762D-05 0.149D-04 0.295D-04 0.422D-04 0.759D-04-0.140D-03
 Coeff:     -0.845D-03-0.282D-02-0.233D-03 0.103D-01 0.174D-01-0.922D-02
 Coeff:     -0.375D-01-0.974D-01-0.149D-01 0.306D+00 0.829D+00
 Gap=     0.123 Goal=   None    Shift=    0.000
 RMSDP=1.36D-08 MaxDP=8.21D-07 DE=-4.58D-10 OVMax= 9.98D-06

 Cycle  18  Pass 1  IDiag  1:
 RMSU=  5.49D-09    CP:  9.64D-01  1.49D+00  6.83D-01  6.20D-01  8.42D-01
                    CP:  9.15D-01  1.11D+00  1.39D+00  1.78D+00  2.28D+00
                    CP:  2.00D+00  2.02D+00  1.47D+00  1.40D+00  1.56D+00
                    CP:  1.58D+00  1.32D+00
 E= -4069.81315358206     Delta-E=        0.000000000011 Rises=F Damp=F
 DIIS: error= 7.34D-08 at cycle  18 NSaved=  18.
 NSaved=18 IEnMin=17 EnMin= -4069.81315358208     IErMin=18 ErrMin= 7.34D-08
 ErrMax= 7.34D-08  0.00D+00 EMaxC= 1.00D-01 BMatC= 8.62D-12 BMatP= 2.05D-11
 IDIUse=1 WtCom= 1.00D+00 WtEn= 0.00D+00
 Coeff-Com:  0.763D-06-0.188D-05 0.186D-06 0.474D-05 0.643D-04 0.145D-03
 Coeff-Com:  0.225D-03-0.156D-03-0.117D-02-0.405D-02 0.180D-02 0.163D-01
 Coeff-Com:  0.113D-01-0.437D-01-0.147D+00-0.130D+00 0.412D+00 0.885D+00
 Coeff:      0.763D-06-0.188D-05 0.186D-06 0.474D-05 0.643D-04 0.145D-03
 Coeff:      0.225D-03-0.156D-03-0.117D-02-0.405D-02 0.180D-02 0.163D-01
 Coeff:      0.113D-01-0.437D-01-0.147D+00-0.130D+00 0.412D+00 0.885D+00
 Gap=     0.123 Goal=   None    Shift=    0.000
 RMSDP=1.09D-08 MaxDP=6.82D-07 DE= 1.09D-11 OVMax= 6.13D-06

 Cycle  19  Pass 1  IDiag  1:
 RMSU=  3.19D-09    CP:  9.64D-01  1.49D+00  6.83D-01  6.20D-01  8.42D-01
                    CP:  9.15D-01  1.11D+00  1.39D+00  1.78D+00  2.28D+00
                    CP:  2.00D+00  2.03D+00  1.48D+00  1.43D+00  1.69D+00
                    CP:  1.84D+00  1.84D+00  1.20D+00
 E= -4069.81315358194     Delta-E=        0.000000000124 Rises=F Damp=F
 DIIS: error= 2.73D-08 at cycle  19 NSaved=  19.
 NSaved=19 IEnMin=17 EnMin= -4069.81315358208     IErMin=19 ErrMin= 2.73D-08
 ErrMax= 2.73D-08  0.00D+00 EMaxC= 1.00D-01 BMatC= 2.44D-12 BMatP= 8.62D-12
 IDIUse=1 WtCom= 1.00D+00 WtEn= 0.00D+00
 Coeff-Com:  0.311D-05-0.632D-05-0.102D-04-0.120D-04 0.197D-04 0.133D-03
 Coeff-Com:  0.464D-03 0.844D-03-0.570D-03-0.638D-02-0.499D-02 0.136D-01
 Coeff-Com:  0.217D-01 0.700D-02-0.865D-01-0.198D+00-0.168D-01 0.534D+00
 Coeff-Com:  0.736D+00
 Coeff:      0.311D-05-0.632D-05-0.102D-04-0.120D-04 0.197D-04 0.133D-03
 Coeff:      0.464D-03 0.844D-03-0.570D-03-0.638D-02-0.499D-02 0.136D-01
 Coeff:      0.217D-01 0.700D-02-0.865D-01-0.198D+00-0.168D-01 0.534D+00
 Coeff:      0.736D+00
 Gap=     0.123 Goal=   None    Shift=    0.000
 RMSDP=5.92D-09 MaxDP=4.16D-07 DE= 1.24D-10 OVMax= 4.20D-06

 SCF Done:  E(RCAM-B3LYP) =  -4069.81315358     A.U. after   19 cycles
            NFock= 19  Conv=0.59D-08     -V/T= 2.0102
 KE= 4.028794921707D+03 PE=-4.025245095022D+04 EE= 1.676857742158D+04
 Leave Link  502 at Thu Sep  9 16:00:23 2021, MaxMem= 23488102400 cpu:           15653.7 elap:             680.0
 (Enter /sw/apps/gaussian-16.0/g16/l801.exe)
 DoSCS=F DFT=T ScalE2(SS,OS)=  1.000000  1.000000
 ExpMin= 3.36D-02 ExpMax= 4.95D+03 ExpMxC= 7.45D+02 IAcc=3 IRadAn=         5 AccDes= 0.00D+00
 HarFok:  IExCor=  205 AccDes= 0.00D+00 IRadAn=         5 IDoV=-2 UseB2=F ITyADJ=14
 ICtDFT= 12500011 ScaDFX=  1.000000  1.000000  1.000000  1.000000
 GSVD:  LWork=       -9588 too small for GESVD, short by       45590 words or       45590 for optimal perf.
 Largest valence mixing into a core orbital is  2.03D-04
 Largest core mixing into a valence orbital is  5.23D-05
 Range of M.O.s used for correlation:    95  1572
 NBasis=  1572 NAE=   312 NBE=   312 NFC=    94 NFV=     0
 NROrb=   1478 NOA=   218 NOB=   218 NVA=  1260 NVB=  1260
 Leave Link  801 at Thu Sep  9 16:00:24 2021, MaxMem= 23488102400 cpu:               7.6 elap:               0.3
 (Enter /sw/apps/gaussian-16.0/g16/l914.exe)
 RHF ground state
 Two-electron integrals replicated using symmetry.
 MDV= 23488102400 DFT=T DoStab=F Mixed=T DoRPA=T DoScal=F NonHer=T
 Making orbital integer symmetry assigments:
 Orbital symmetries:
       Occupied  (A) (A) (A) (A) (A) (A) (A) (A) (A) (A) (A) (A)
                 (A) (A) (A) (A) (A) (A) (A) (A) (A) (A) (A) (A)
                 (A) (A) (A) (A) (A) (A) (A) (A) (A) (A) (A) (A)
                 (A) (A) (A) (A) (A) (A) (A) (A) (A) (A) (A) (A)
                 (A) (A) (A) (A) (A) (A) (A) (A) (A) (A) (A) (A)
                 (A) (A) (A) (A) (A) (A) (A) (A) (A) (A) (A) (A)
                 (A) (A) (A) (A) (A) (A) (A) (A) (A) (A) (A) (A)
                 (A) (A) (A) (A) (A) (A) (A) (A) (A) (A) (A) (A)
                 (A) (A) (A) (A) (A) (A) (A) (A) (A) (A) (A) (A)
                 (A) (A) (A) (A) (A) (A) (A) (A) (A) (A) (A) (A)
                 (A) (A) (A) (A) (A) (A) (A) (A) (A) (A) (A) (A)
                 (A) (A) (A) (A) (A) (A) (A) (A) (A) (A) (A) (A)
                 (A) (A) (A) (A) (A) (A) (A) (A) (A) (A) (A) (A)
                 (A) (A) (A) (A) (A) (A) (A) (A) (A) (A) (A) (A)
                 (A) (A) (A) (A) (A) (A) (A) (A) (A) (A) (A) (A)
                 (A) (A) (A) (A) (A) (A) (A) (A) (A) (A) (A) (A)
                 (A) (A) (A) (A) (A) (A) (A) (A) (A) (A) (A) (A)
                 (A) (A) (A) (A) (A) (A) (A) (A) (A) (A) (A) (A)
                 (A) (A) (A) (A) (A) (A) (A) (A) (A) (A) (A) (A)
                 (A) (A) (A) (A) (A) (A) (A) (A) (A) (A) (A) (A)
                 (A) (A) (A) (A) (A) (A) (A) (A) (A) (A) (A) (A)
                 (A) (A) (A) (A) (A) (A) (A) (A) (A) (A) (A) (A)
                 (A) (A) (A) (A) (A) (A) (A) (A) (A) (A) (A) (A)
                 (A) (A) (A) (A) (A) (A) (A) (A) (A) (A) (A) (A)
                 (A) (A) (A) (A) (A) (A) (A) (A) (A) (A) (A) (A)
                 (A) (A) (A) (A) (A) (A) (A) (A) (A) (A) (A) (A)
       Virtual   (A) (A) (A) (A) (A) (A) (A) (A) (A) (A) (A) (A)
                 (A) (A) (A) (A) (A) (A) (A) (A) (A) (A) (A) (A)
                 (A) (A) (A) (A) (A) (A) (A) (A) (A) (A) (A) (A)
                 (A) (A) (A) (A) (A) (A) (A) (A) (A) (A) (A) (A)
                 (A) (A) (A) (A) (A) (A) (A) (A) (A) (A) (A) (A)
                 (A) (A) (A) (A) (A) (A) (A) (A) (A) (A) (A) (A)
                 (A) (A) (A) (A) (A) (A) (A) (A) (A) (A) (A) (A)
                 (A) (A) (A) (A) (A) (A) (A) (A) (A) (A) (A) (A)
                 (A) (A) (A) (A) (A) (A) (A) (A) (A) (A) (A) (A)
                 (A) (A) (A) (A) (A) (A) (A) (A) (A) (A) (A) (A)
                 (A) (A) (A) (A) (A) (A) (A) (A) (A) (A) (A) (A)
                 (A) (A) (A) (A) (A) (A) (A) (A) (A) (A) (A) (A)
                 (A) (A) (A) (A) (A) (A) (A) (A) (A) (A) (A) (A)
                 (A) (A) (A) (A) (A) (A) (A) (A) (A) (A) (A) (A)
                 (A) (A) (A) (A) (A) (A) (A) (A) (A) (A) (A) (A)
                 (A) (A) (A) (A) (A) (A) (A) (A) (A) (A) (A) (A)
                 (A) (A) (A) (A) (A) (A) (A) (A) (A) (A) (A) (A)
                 (A) (A) (A) (A) (A) (A) (A) (A) (A) (A) (A) (A)
                 (A) (A) (A) (A) (A) (A) (A) (A) (A) (A) (A) (A)
                 (A) (A) (A) (A) (A) (A) (A) (A) (A) (A) (A) (A)
                 (A) (A) (A) (A) (A) (A) (A) (A) (A) (A) (A) (A)
                 (A) (A) (A) (A) (A) (A) (A) (A) (A) (A) (A) (A)
                 (A) (A) (A) (A) (A) (A) (A) (A) (A) (A) (A) (A)
                 (A) (A) (A) (A) (A) (A) (A) (A) (A) (A) (A) (A)
                 (A) (A) (A) (A) (A) (A) (A) (A) (A) (A) (A) (A)
                 (A) (A) (A) (A) (A) (A) (A) (A) (A) (A) (A) (A)
                 (A) (A) (A) (A) (A) (A) (A) (A) (A) (A) (A) (A)
                 (A) (A) (A) (A) (A) (A) (A) (A) (A) (A) (A) (A)
                 (A) (A) (A) (A) (A) (A) (A) (A) (A) (A) (A) (A)
                 (A) (A) (A) (A) (A) (A) (A) (A) (A) (A) (A) (A)
                 (A) (A) (A) (A) (A) (A) (A) (A) (A) (A) (A) (A)
                 (A) (A) (A) (A) (A) (A) (A) (A) (A) (A) (A) (A)
                 (A) (A) (A) (A) (A) (A) (A) (A) (A) (A) (A) (A)
                 (A) (A) (A) (A) (A) (A) (A) (A) (A) (A) (A) (A)
                 (A) (A) (A) (A) (A) (A) (A) (A) (A) (A) (A) (A)
                 (A) (A) (A) (A) (A) (A) (A) (A) (A) (A) (A) (A)
                 (A) (A) (A) (A) (A) (A) (A) (A) (A) (A) (A) (A)
                 (A) (A) (A) (A) (A) (A) (A) (A) (A) (A) (A) (A)
                 (A) (A) (A) (A) (A) (A) (A) (A) (A) (A) (A) (A)
                 (A) (A) (A) (A) (A) (A) (A) (A) (A) (A) (A) (A)
                 (A) (A) (A) (A) (A) (A) (A) (A) (A) (A) (A) (A)
                 (A) (A) (A) (A) (A) (A) (A) (A) (A) (A) (A) (A)
                 (A) (A) (A) (A) (A) (A) (A) (A) (A) (A) (A) (A)
                 (A) (A) (A) (A) (A) (A) (A) (A) (A) (A) (A) (A)
                 (A) (A) (A) (A) (A) (A) (A) (A) (A) (A) (A) (A)
                 (A) (A) (A) (A) (A) (A) (A) (A) (A) (A) (A) (A)
                 (A) (A) (A) (A) (A) (A) (A) (A) (A) (A) (A) (A)
                 (A) (A) (A) (A) (A) (A) (A) (A) (A) (A) (A) (A)
                 (A) (A) (A) (A) (A) (A) (A) (A) (A) (A) (A) (A)
                 (A) (A) (A) (A) (A) (A) (A) (A) (A) (A) (A) (A)
                 (A) (A) (A) (A) (A) (A) (A) (A) (A) (A) (A) (A)
                 (A) (A) (A) (A) (A) (A) (A) (A) (A) (A) (A) (A)
                 (A) (A) (A) (A) (A) (A) (A) (A) (A) (A) (A) (A)
                 (A) (A) (A) (A) (A) (A) (A) (A) (A) (A) (A) (A)
                 (A) (A) (A) (A) (A) (A) (A) (A) (A) (A) (A) (A)
                 (A) (A) (A) (A) (A) (A) (A) (A) (A) (A) (A) (A)
                 (A) (A) (A) (A) (A) (A) (A) (A) (A) (A) (A) (A)
                 (A) (A) (A) (A) (A) (A) (A) (A) (A) (A) (A) (A)
                 (A) (A) (A) (A) (A) (A) (A) (A) (A) (A) (A) (A)
                 (A) (A) (A) (A) (A) (A) (A) (A) (A) (A) (A) (A)
                 (A) (A) (A) (A) (A) (A) (A) (A) (A) (A) (A) (A)
                 (A) (A) (A) (A) (A) (A) (A) (A) (A) (A) (A) (A)
                 (A) (A) (A) (A) (A) (A) (A) (A) (A) (A) (A) (A)
                 (A) (A) (A) (A) (A) (A) (A) (A) (A) (A) (A) (A)
                 (A) (A) (A) (A) (A) (A) (A) (A) (A) (A) (A) (A)
                 (A) (A) (A) (A) (A) (A) (A) (A) (A) (A) (A) (A)
                 (A) (A) (A) (A) (A) (A) (A) (A) (A) (A) (A) (A)
                 (A) (A) (A) (A) (A) (A) (A) (A) (A) (A) (A) (A)
                 (A) (A) (A) (A) (A) (A) (A) (A) (A) (A) (A) (A)
                 (A) (A) (A) (A) (A) (A) (A) (A) (A) (A) (A) (A)
                 (A) (A) (A) (A) (A) (A) (A) (A) (A) (A) (A) (A)
                 (A) (A) (A) (A) (A) (A) (A) (A) (A) (A) (A) (A)
                 (A) (A) (A) (A) (A) (A) (A) (A) (A) (A) (A) (A)
                 (A) (A) (A) (A) (A) (A) (A) (A) (A) (A) (A) (A)
                 (A) (A) (A) (A) (A) (A) (A) (A) (A) (A) (A) (A)
                 (A) (A) (A) (A) (A) (A) (A) (A) (A) (A) (A) (A)
                 (A) (A) (A) (A) (A) (A) (A) (A) (A) (A) (A) (A)
                 (A) (A) (A) (A) (A) (A) (A) (A) (A) (A) (A) (A)
                 (A) (A) (A) (A) (A) (A) (A) (A) (A) (A) (A) (A)
                 (A) (A) (A) (A) (A) (A) (A) (A) (A) (A) (A) (A)
                 (A) (A) (A) (A) (A) (A) (A) (A) (A) (A) (A) (A)
                 (A) (A) (A) (A) (A) (A) (A) (A) (A) (A) (A) (A)
                 (A) (A) (A) (A) (A) (A) (A) (A) (A) (A) (A) (A)
                 (A) (A) (A) (A) (A) (A) (A) (A) (A) (A) (A) (A)
                 (A) (A) (A) (A) (A) (A) (A) (A) (A) (A) (A) (A)
                 (A) (A) (A) (A) (A) (A) (A) (A) (A) (A) (A) (A)
                 (A) (A) (A) (A) (A) (A) (A) (A) (A) (A) (A) (A)
                 (A) (A) (A) (A) (A) (A) (A) (A) (A) (A) (A) (A)
                 (A) (A) (A) (A) (A) (A) (A) (A) (A) (A) (A) (A)
                 (A) (A) (A) (A) (A) (A) (A) (A) (A) (A) (A) (A)
                 (A) (A) (A) (A) (A) (A) (A) (A) (A) (A) (A) (A)
                 (A) (A) (A) (A) (A) (A) (A) (A) (A) (A) (A) (A)
                 (A) (A) (A) (A) (A) (A) (A) (A) (A) (A) (A) (A)
                 (A) (A) (A) (A) (A) (A) (A) (A) (A) (A) (A) (A)
                 (A) (A) (A) (A) (A) (A) (A) (A) (A) (A) (A) (A)
                 (A) (A) (A) (A) (A) (A) (A) (A) (A) (A) (A) (A)
                 (A) (A) (A) (A) (A) (A) (A) (A) (A) (A) (A) (A)
                 (A) (A) (A) (A) (A) (A) (A) (A) (A) (A) (A) (A)
                 (A) (A) (A) (A) (A) (A) (A) (A) (A) (A) (A) (A)
                 (A) (A) (A) (A) (A) (A) (A) (A) (A) (A) (A) (A)
                 (A) (A) (A) (A) (A) (A) (A) (A) (A) (A) (A) (A)
                 (A) (A) (A) (A) (A) (A) (A) (A) (A) (A) (A) (A)
                 (A) (A) (A) (A) (A) (A) (A) (A) (A) (A) (A) (A)
                 (A) (A) (A) (A) (A) (A) (A) (A) (A) (A) (A) (A)
                 (A) (A) (A) (A) (A) (A) (A) (A) (A) (A) (A) (A)
    20 initial guesses have been made.
 Convergence on wavefunction:    0.001000000000000
 Davidson Disk Diagonalization:  ConvIn= 1.00D-03 SkipCon=T Conv= 1.00D-03.
 Max sub-space:  2000 roots to seek:    20 dimension of matrix:       549360
 Iteration     1 Dimension    20 NMult     0 NNew     20
 CISAX will form    20 AO SS matrices at one time.
 NMat=    20 NSing=    20 JSym2X= 0.
 FoFJK:  IHMeth= 1 ICntrl=       0 DoSepK=T KAlg= 0 I1Cent=           0 FoldK=F
 IRaf=         1 NMat=      40 IRICut=       1 DoRegI=T DoRafI=F ISym2E= 0 IDoP0=3 IntGTp=3.
 FoFCou: FMM=T IPFlag=           0 FMFlag=      100000 FMFlg1=        2001
         NFxFlg=           0 DoJE=F BraDBF=F KetDBF=F FulRan=T
         wScrn=  0.000000 ICntrl=       500 IOpCl=  0 I1Cent=           0 NGrid=           0
         NMat0=   20 NMatS0=     20 NMatT0=    0 NMatD0=   20 NMtDS0=    0 NMtDT0=    0
 Symmetry not used in FoFCou.
 FMM levels:  10  Number of levels for PrismC:   9
 New state      2 was old state      4
 New state      3 was old state      7
 New state      4 was old state      6
 New state      5 was old state      2
 Excitation Energies [eV] at current iteration:
 Root      1 :     2.463410953849051
 Root      2 :     2.496843795934200
 Root      3 :     2.601681559654217
 Root      4 :     2.614321882814615
 Root      5 :     2.633015676050788
 Root      6 :     2.748009452505838
 Root      7 :     3.255604305530318
 Root      8 :     3.296874764355182
 Root      9 :     3.622591593508381
 Root     10 :     3.669031929347835
 Root     11 :     3.745785677217179
 Root     12 :     3.760853936337510
 Root     13 :     4.258278723703736
 Root     14 :     4.344325428117183
 Root     15 :     4.368122789452246
 Root     16 :     4.410632660007743
 Root     17 :     4.667302810016579
 Root     18 :     4.697174561684991
 Root     19 :     4.720865531212659
 Root     20 :     4.754891059427836
 Iteration     2 Dimension    30 NMult    20 NNew     10
 CISAX will form    10 AO SS matrices at one time.
 NMat=    10 NSing=    10 JSym2X= 0.
 New state      1 was old state      3
 Root      1 not converged, maximum delta is    0.353086768639308
 New state      2 was old state      4
 Root      2 not converged, maximum delta is    0.090214990899765
 New state      3 was old state      5
 Root      3 not converged, maximum delta is    0.245758986395327
 New state      4 was old state      1
 Root      4 not converged, maximum delta is    0.008790254757314
 New state      5 was old state      2
 Root      5 not converged, maximum delta is    0.003934953160101
 Excitation Energies [eV] at current iteration:
 Root      1 :     1.768802634426565   Change is   -0.832878925227651
 Root      2 :     2.229278452576208   Change is   -0.385043430238406
 Root      3 :     2.241724933672650   Change is   -0.391290742378138
 Root      4 :     2.462224820050159   Change is   -0.001186133798892
 Root      5 :     2.496067242581057   Change is   -0.000776553353143
 Iteration     3 Dimension    40 NMult    30 NNew     10
 CISAX will form    10 AO SS matrices at one time.
 NMat=    10 NSing=    10 JSym2X= 0.
 Root      1 not converged, maximum delta is    0.053086677779597
 Root      2 not converged, maximum delta is    0.053798710816580
 Root      3 not converged, maximum delta is    0.063909895362474
 Root      4 has converged.
 Root      5 has converged.
 Excitation Energies [eV] at current iteration:
 Root      1 :     1.664634887982215   Change is   -0.104167746444351
 Root      2 :     2.182477514006646   Change is   -0.046800938569563
 Root      3 :     2.199675637868773   Change is   -0.042049295803878
 Root      4 :     2.462214591959907   Change is   -0.000010228090252
 Root      5 :     2.496061242727193   Change is   -0.000005999853865
 Iteration     4 Dimension    46 NMult    40 NNew      6
 CISAX will form     6 AO SS matrices at one time.
 NMat=     6 NSing=     6 JSym2X= 0.
 Root      1 not converged, maximum delta is    0.010321469604773
 Root      2 not converged, maximum delta is    0.324449228982509
 Root      3 not converged, maximum delta is    0.260913144998582
 No map to state      4
 New state      5 was old state      4
 Root      5 has converged.
 Excitation Energies [eV] at current iteration:
 Root      1 :     1.648083167122252   Change is   -0.016551720859962
 Root      2 :     2.063279612584907   Change is   -0.119197901421738
 Root      3 :     2.188858543494083   Change is   -0.010817094374690
 Root      4 :     2.246183709025544
 Root      5 :     2.462214619227721   Change is    0.000000027267813
 Iteration     5 Dimension    54 NMult    46 NNew      8
 CISAX will form     8 AO SS matrices at one time.
 NMat=     8 NSing=     8 JSym2X= 0.
 Root      1 not converged, maximum delta is    0.001519984842157
 Root      2 not converged, maximum delta is    0.283939071259843
 Root      3 not converged, maximum delta is    0.421637186124893
 Root      4 not converged, maximum delta is    0.376633599626015
 Root      5 has converged.
 Excitation Energies [eV] at current iteration:
 Root      1 :     1.646376779353773   Change is   -0.001706387768479
 Root      2 :     1.755398933560374   Change is   -0.307880679024533
 Root      3 :     2.182141674641883   Change is   -0.006716868852200
 Root      4 :     2.195814902184299   Change is   -0.050368806841245
 Root      5 :     2.462214611744149   Change is   -0.000000007483571
 Iteration     6 Dimension    62 NMult    54 NNew      8
 CISAX will form     8 AO SS matrices at one time.
 NMat=     8 NSing=     8 JSym2X= 0.
 Root      1 not converged, maximum delta is    0.001043791780923
 Root      2 not converged, maximum delta is    0.019329638955973
 Root      3 not converged, maximum delta is    0.039520208637825
 Root      4 not converged, maximum delta is    0.039492684798037
 Root      5 has converged.
 Excitation Energies [eV] at current iteration:
 Root      1 :     1.646133447763952   Change is   -0.000243331589821
 Root      2 :     1.708139908136525   Change is   -0.047259025423849
 Root      3 :     2.181076509540732   Change is   -0.001065165101151
 Root      4 :     2.194767741130703   Change is   -0.001047161053596
 Root      5 :     2.462214611349207   Change is   -0.000000000394942
 Iteration     7 Dimension    70 NMult    62 NNew      8
 CISAX will form     8 AO SS matrices at one time.
 NMat=     8 NSing=     8 JSym2X= 0.
 Root      1 has converged.
 Root      2 not converged, maximum delta is    0.005551791740801
 Root      3 not converged, maximum delta is    0.003955932963781
 Root      4 not converged, maximum delta is    0.004157652567405
 Root      5 has converged.
[...]
 Alpha virt. eigenvalues --    1.83671   1.83946   1.84108   1.84269   1.84362
 Alpha virt. eigenvalues --    1.84644   1.84790   1.84943   1.85027   1.85311
 Alpha virt. eigenvalues --    1.85403   1.85437   1.85609   1.85651   1.85702
 Alpha virt. eigenvalues --    1.86101   1.86132   1.86559   1.86637   1.86756
 Alpha virt. eigenvalues --    1.86873   1.86983   1.87105   1.87240   1.87466
 Alpha virt. eigenvalues --    1.87644   1.87764   1.87842   1.87956   1.88076
 Alpha virt. eigenvalues --    1.88217   1.88265   1.88420   1.88720   1.88730
 Alpha virt. eigenvalues --    1.88979   1.89103   1.89346   1.89379   1.89780
 Alpha virt. eigenvalues --    1.89804   1.89941   1.90087   1.90302   1.90351
 Alpha virt. eigenvalues --    1.90939   1.91073   1.91505   1.91624   1.91678
 Alpha virt. eigenvalues --    1.91754   1.92344   1.92369   1.92778   1.92864
 Alpha virt. eigenvalues --    1.93183   1.93356   1.93564   1.93742   1.94506
 Alpha virt. eigenvalues --    1.94638   1.94876   1.94979   1.95709   1.95886
 Alpha virt. eigenvalues --    1.95915   1.96042   1.96157   1.96291   1.96341
 Alpha virt. eigenvalues --    1.96417   1.96761   1.96834   1.97073   1.97142
 Alpha virt. eigenvalues --    1.97651   1.97793   1.98032   1.98062   1.98343
 Alpha virt. eigenvalues --    1.98353   1.98550   1.98763   1.99242   1.99315
 Alpha virt. eigenvalues --    1.99967   2.00070   2.00872   2.00949   2.01166
 Alpha virt. eigenvalues --    2.01250   2.01586   2.01720   2.01819   2.01884
 Alpha virt. eigenvalues --    2.01905   2.02008   2.02880   2.02963   2.03363
 Alpha virt. eigenvalues --    2.03435   2.03532   2.03572   2.03658   2.03681
 Alpha virt. eigenvalues --    2.04204   2.04221   2.05152   2.05166   2.05704
 Alpha virt. eigenvalues --    2.05813   2.06259   2.06421   2.07141   2.07159
 Alpha virt. eigenvalues --    2.07383   2.07553   2.08678   2.08769   2.09172
 Alpha virt. eigenvalues --    2.09209   2.09778   2.09799   2.11029   2.11348
 Alpha virt. eigenvalues --    2.11387   2.11606   2.11671   2.11693   2.11961
 Alpha virt. eigenvalues --    2.12015   2.12623   2.12711   2.12993   2.13010
 Alpha virt. eigenvalues --    2.13049   2.13106   2.13762   2.13942   2.14351
 Alpha virt. eigenvalues --    2.14461   2.15535   2.15643   2.16101   2.16259
 Alpha virt. eigenvalues --    2.16744   2.16805   2.16948   2.17354   2.17608
 Alpha virt. eigenvalues --    2.17839   2.17933   2.18087   2.18271   2.18339
 Alpha virt. eigenvalues --    2.18472   2.18789   2.19138   2.19422   2.19810
 Alpha virt. eigenvalues --    2.19972   2.20236   2.20390   2.20440   2.20591
 Alpha virt. eigenvalues --    2.21400   2.21498   2.21841   2.21903   2.21925
 Alpha virt. eigenvalues --    2.22027   2.22875   2.22917   2.23530   2.23656
 Alpha virt. eigenvalues --    2.24602   2.24692   2.25231   2.25338   2.26456
 Alpha virt. eigenvalues --    2.26597   2.26968   2.27179   2.27268   2.27387
 Alpha virt. eigenvalues --    2.28310   2.28484   2.29470   2.29632   2.29934
 Alpha virt. eigenvalues --    2.30034   2.30606   2.30748   2.30926   2.31220
 Alpha virt. eigenvalues --    2.31333   2.31433   2.32324   2.32462   2.33295
 Alpha virt. eigenvalues --    2.33366   2.33646   2.33729   2.34352   2.34475
 Alpha virt. eigenvalues --    2.35433   2.35486   2.35966   2.36045   2.36476
 Alpha virt. eigenvalues --    2.36592   2.36766   2.36809   2.37902   2.37984
 Alpha virt. eigenvalues --    2.38451   2.38547   2.38898   2.38999   2.39785
 Alpha virt. eigenvalues --    2.39835   2.40392   2.40615   2.40654   2.40961
 Alpha virt. eigenvalues --    2.41367   2.41433   2.41922   2.42082   2.42244
 Alpha virt. eigenvalues --    2.42268   2.43093   2.43180   2.43310   2.43536
 Alpha virt. eigenvalues --    2.44167   2.44299   2.44908   2.44956   2.45072
 Alpha virt. eigenvalues --    2.45163   2.45751   2.45773   2.46396   2.46478
 Alpha virt. eigenvalues --    2.46651   2.46661   2.46944   2.46963   2.47443
 Alpha virt. eigenvalues --    2.47633   2.47904   2.48145   2.49525   2.49580
 Alpha virt. eigenvalues --    2.50232   2.50314   2.50724   2.50824   2.51396
 Alpha virt. eigenvalues --    2.51411   2.51780   2.52087   2.52508   2.52623
 Alpha virt. eigenvalues --    2.53016   2.53306   2.54110   2.54151   2.54319
 Alpha virt. eigenvalues --    2.54388   2.54976   2.55046   2.55704   2.55818
 Alpha virt. eigenvalues --    2.58045   2.58230   2.58835   2.59075   2.60341
 Alpha virt. eigenvalues --    2.60417   2.60762   2.61044   2.61901   2.61982
 Alpha virt. eigenvalues --    2.62577   2.62696   2.63133   2.63296   2.64112
 Alpha virt. eigenvalues --    2.64345   2.64486   2.64706   2.65280   2.65297
 Alpha virt. eigenvalues --    2.65958   2.65976   2.67014   2.67100   2.67116
 Alpha virt. eigenvalues --    2.67220   2.68115   2.68176   2.68988   2.69016
 Alpha virt. eigenvalues --    2.69168   2.69188   2.69632   2.69812   2.70209
 Alpha virt. eigenvalues --    2.70384   2.71153   2.71240   2.72026   2.72171
 Alpha virt. eigenvalues --    2.72612   2.72783   2.72864   2.72914   2.73496
 Alpha virt. eigenvalues --    2.73531   2.73540   2.73631   2.74682   2.74718
 Alpha virt. eigenvalues --    2.75135   2.75195   2.76782   2.76816   2.77228
 Alpha virt. eigenvalues --    2.77405   2.77617   2.77699   2.78344   2.78380
 Alpha virt. eigenvalues --    2.78840   2.78848   2.79268   2.79302   2.80344
 Alpha virt. eigenvalues --    2.80463   2.80695   2.80790   2.81274   2.81292
 Alpha virt. eigenvalues --    2.82093   2.82101   2.82509   2.82540   2.83880
 Alpha virt. eigenvalues --    2.83941   2.83957   2.84027   2.84703   2.84747
 Alpha virt. eigenvalues --    2.85097   2.85124   2.85814   2.85847   2.86807
 Alpha virt. eigenvalues --    2.87128   2.87295   2.87695   2.88305   2.88331
 Alpha virt. eigenvalues --    2.88716   2.88838   2.89055   2.89122   2.90676
 Alpha virt. eigenvalues --    2.90855   2.91259   2.91414   2.93319   2.93450
 Alpha virt. eigenvalues --    2.93927   2.94395   2.94761   2.94788   2.95499
 Alpha virt. eigenvalues --    2.95578   2.95899   2.96228   2.96606   2.96665
 Alpha virt. eigenvalues --    2.97040   2.97287   2.98008   2.98178   2.98368
 Alpha virt. eigenvalues --    2.98452   2.98577   2.98708   2.98794   2.98950
 Alpha virt. eigenvalues --    2.99065   2.99104   2.99839   3.00039   3.00106
 Alpha virt. eigenvalues --    3.00184   3.00410   3.00587   3.00706   3.01166
 Alpha virt. eigenvalues --    3.02157   3.02165   3.02194   3.02254   3.02770
 Alpha virt. eigenvalues --    3.02872   3.03178   3.03408   3.03503   3.03889
 Alpha virt. eigenvalues --    3.04319   3.04423   3.04644   3.04785   3.04863
 Alpha virt. eigenvalues --    3.05265   3.05500   3.05515   3.06281   3.06304
 Alpha virt. eigenvalues --    3.06959   3.07106   3.08061   3.08358   3.09510
 Alpha virt. eigenvalues --    3.09717   3.10150   3.10522   3.10607   3.10859
 Alpha virt. eigenvalues --    3.11529   3.11633   3.12061   3.12360   3.12482
 Alpha virt. eigenvalues --    3.12544   3.13638   3.13755   3.13864   3.13880
 Alpha virt. eigenvalues --    3.14134   3.14537   3.16217   3.16447   3.17453
 Alpha virt. eigenvalues --    3.17664   3.17997   3.18264   3.19182   3.19322
 Alpha virt. eigenvalues --    3.22377   3.22671   3.24128   3.24565   3.24797
 Alpha virt. eigenvalues --    3.25306   3.26695   3.26803   3.27529   3.27807
 Alpha virt. eigenvalues --    3.29110   3.29283   3.31508   3.31698   3.33325
 Alpha virt. eigenvalues --    3.33613   3.40300   3.40732   3.42893   3.42983
 Alpha virt. eigenvalues --    3.48822   3.48825   3.50216   3.50426   3.50963
 Alpha virt. eigenvalues --    3.51658   3.56737   3.57133   3.59306   3.59500
 Alpha virt. eigenvalues --    3.62641   3.63024   3.66154   3.66338   3.67333
 Alpha virt. eigenvalues --    3.67595   3.73460   3.74094   3.76338   3.76764
          Condensed to atoms (all electrons):
 Mulliken charges:
               1
     1  Mg   0.839354
     2  C   -0.004179
     3  C   -0.093601
     4  C   -0.045917
     5  C   -0.062694
     6  N   -0.256816
     7  C   -0.052627
     8  C   -0.014173
     9  C   -0.087057
    10  C    0.046344
    11  C    0.104868
    12  C    0.051712
    13  C   -0.071213
    14  H    0.033328
    15  N   -0.433074
    16  C    0.168762
    17  C   -0.176693
    18  C   -0.004116
    19  C    0.148691
    20  C    0.110076
    21  C    0.011897
    22  O   -0.250388
    23  C    0.062344
    24  N   -0.341255
    25  C    0.041445
    26  C   -0.027912
    27  C   -0.024157
    28  C    0.075143
    29  C    0.076383
    30  C    0.034874
    31  C   -0.005141
    32  N   -0.310682
    33  C    0.080938
    34  C   -0.168117
    35  C    0.008139
    36  C    0.083606
    37  C    0.127105
    38  C    0.046063
    39  O   -0.188785
    40  C   -0.005659
    41  C    0.213383
    42  O   -0.258097
    43  O   -0.303953
    44  C    0.157829
    45  H   -0.017882
    46  H   -0.017274
    47  H   -0.040366
    48  H    0.000471
    49  H   -0.003868
    50  H    0.025225
    51  H    0.016598
    52  H    0.016454
    53  H    0.012899
    54  H    0.044706
    55  H    0.018127
    56  H    0.018932
    57  H    0.005980
    58  H    0.026093
    59  H    0.040843
    60  H    0.037504
    61  H    0.034215
    62  H    0.031982
    63  H    0.016358
    64  H    0.009074
    65  H    0.022602
    66  H    0.012110
    67  H    0.004629
    68  H    0.005327
    69  H    0.005940
    70  H    0.006635
    71  H    0.024403
    72  H    0.028770
    73  H    0.048628
    74  H    0.010573
    75  H    0.045347
    76  H    0.035271
    77  H    0.043628
    78  H    0.046664
    79  H    0.051679
    80  Mg   0.837922
    81  C   -0.017445
    82  C   -0.088037
    83  C   -0.045915
    84  C   -0.062747
    85  N   -0.254588
    86  C   -0.049774
    87  C   -0.015172
    88  C   -0.090427
    89  C    0.045515
    90  C    0.114538
    91  C    0.062573
    92  C   -0.077481
    93  H    0.033816
    94  N   -0.423253
    95  C    0.162654
    96  C   -0.174958
    97  C   -0.008472
    98  C    0.151865
    99  C    0.099423
   100  C    0.014566
   101  O   -0.254862
   102  C    0.061446
   103  N   -0.350444
   104  C    0.037819
   105  C   -0.019050
   106  C   -0.034869
   107  C    0.089856
   108  C    0.074208
   109  C    0.034632
   110  C   -0.015708
   111  N   -0.324521
   112  C    0.079500
   113  C   -0.160890
   114  C    0.001880
   115  C    0.096872
   116  C    0.131149
   117  C    0.042644
   118  O   -0.187972
   119  C    0.000758
   120  C    0.211336
   121  O   -0.251489
   122  O   -0.305543
   123  C    0.152347
   124  H   -0.020413
   125  H   -0.016738
   126  H   -0.038025
   127  H   -0.001011
   128  H   -0.004674
   129  H    0.022182
   130  H    0.014367
   131  H    0.015718
   132  H    0.014312
   133  H    0.037261
   134  H    0.020640
   135  H    0.019635
   136  H    0.008576
   137  H    0.025176
   138  H    0.039454
   139  H    0.038506
   140  H    0.033984
   141  H    0.033757
   142  H    0.013524
   143  H    0.011250
   144  H    0.023437
   145  H    0.010889
   146  H    0.005261
   147  H    0.002422
   148  H    0.006852
   149  H    0.004221
   150  H    0.039312
   151  H    0.027168
   152  H    0.047366
   153  H    0.011400
   154  H    0.045843
   155  H    0.034613
   156  H    0.043705
   157  H    0.049304
   158  H    0.052772
 Sum of Mulliken charges =  -0.00000
 Mulliken charges with hydrogens summed into heavy atoms:
               1
     1  Mg   0.839354
     2  C   -0.004179
     3  C   -0.111483
     4  C   -0.063191
     5  C   -0.103060
     6  N   -0.256816
     7  C   -0.052627
     8  C   -0.013702
     9  C   -0.090925
    10  C    0.046344
    11  C    0.163144
    12  C    0.109317
    13  C   -0.000826
    15  N   -0.433074
    16  C    0.168762
    17  C   -0.176693
    18  C   -0.004116
    19  C    0.148691
    20  C    0.182991
    21  C    0.011897
    22  O   -0.250388
    23  C    0.166044
    24  N   -0.341255
    25  C    0.041445
    26  C   -0.011554
    27  C   -0.015083
    28  C    0.075143
    29  C    0.115723
    30  C    0.046141
    31  C    0.054667
    32  N   -0.310682
    33  C    0.080938
    34  C   -0.168117
    35  C    0.008139
    36  C    0.083606
    37  C    0.231654
    38  C    0.046063
    39  O   -0.188785
    40  C    0.029612
    41  C    0.213383
    42  O   -0.258097
    43  O   -0.303953
    44  C    0.299800
    80  Mg   0.837922
    81  C   -0.017445
    82  C   -0.108450
    83  C   -0.062653
    84  C   -0.100772
    85  N   -0.254588
    86  C   -0.049774
    87  C   -0.016183
    88  C   -0.095101
    89  C    0.045515
    90  C    0.166805
    91  C    0.114147
    92  C   -0.003390
    94  N   -0.423253
    95  C    0.162654
    96  C   -0.174958
    97  C   -0.008472
    98  C    0.151865
    99  C    0.172629
   100  C    0.014566
   101  O   -0.254862
   102  C    0.167693
   103  N   -0.350444
   104  C    0.037819
   105  C   -0.005526
   106  C   -0.023618
   107  C    0.089856
   108  C    0.113794
   109  C    0.043906
   110  C    0.054992
   111  N   -0.324521
   112  C    0.079500
   113  C   -0.160890
   114  C    0.001880
   115  C    0.096872
   116  C    0.235759
   117  C    0.042644
   118  O   -0.187972
   119  C    0.035372
   120  C    0.211336
   121  O   -0.251489
   122  O   -0.305543
   123  C    0.298128
 Electronic spatial extent (au):  <R**2>=         101532.7449
 Charge=             -0.0000 electrons
 Dipole moment (field-independent basis, Debye):
    X=              0.2937    Y=              6.5581    Z=             -2.1056  Tot=              6.8941
 Quadrupole moment (field-independent basis, Debye-Ang):
   XX=           -458.8458   YY=           -537.3157   ZZ=           -480.2294
   XY=            -14.2996   XZ=            -22.9588   YZ=             12.4652
 Traceless Quadrupole moment (field-independent basis, Debye-Ang):
   XX=             33.2845   YY=            -45.1854   ZZ=             11.9009
   XY=            -14.2996   XZ=            -22.9588   YZ=             12.4652
 Octapole moment (field-independent basis, Debye-Ang**2):
  XXX=            -84.9720  YYY=            286.1473  ZZZ=            201.6175  XYY=            -60.5122
  XXY=            318.2648  XXZ=            -52.2613  XZZ=             57.4284  YZZ=           -246.4420
  YYZ=           -219.7238  XYZ=            -87.8900
 Hexadecapole moment (field-independent basis, Debye-Ang**3):
 XXXX=         -72120.8657 YYYY=         -32831.4195 ZZZZ=         -29409.7476 XXXY=           -679.1045
 XXXZ=          -1826.7051 YYYX=           -319.6606 YYYZ=           -103.0777 ZZZX=           -897.6812
 ZZZY=            440.5773 XXYY=         -18271.8905 XXZZ=         -16617.4423 YYZZ=         -10659.2167
 XXYZ=            -11.4755 YYXZ=           -319.1128 ZZXY=           -153.0142
 N-N= 1.538526545335D+04 E-N=-4.025245094514D+04  KE= 4.028794921707D+03
 Leave Link  601 at Thu Sep  9 16:31:18 2021, MaxMem= 23488102400 cpu:              14.9 elap:               0.8
 (Enter /sw/apps/gaussian-16.0/g16/l9999.exe)
 1\1\GINC-BP1-COMPUTE00107\SP\RCAM-B3LYP TD-FC\def2SVP\C68H72Mg2N8O8\OF
 15641\09-Sep-2021\0\\#p cam-b3lyp/Def2SVP td=(nstates=5)\\TDDFT excite
 d states in gaussian\\0,1\Mg,0,0.,0.,0.\C,0,-0.217,-2.218,2.801\C,0,-1
 .255,2.442,2.026\C,0,-0.245,1.85,-2.564\C,0,0.146,-2.824,-2.037\N,0,-0
 .617,-0.009,2.126\C,0,-0.594,-0.908,3.105\C,0,-0.936,-0.309,4.502\C,0,
 -1.773,0.964,4.032\C,0,-1.155,1.168,2.66\C,0,-3.263,0.685,3.863\C,0,0.
 345,0.11,5.299\C,0,0.124,0.397,6.787\H,0,1.168,0.033,7.733\N,0,-0.185,
 1.961,-0.152\C,0,-0.703,2.8,0.777\C,0,-0.62,4.156,0.193\C,0,-0.187,4.0
 15,-1.225\C,0,-0.214,2.583,-1.38\C,0,-0.887,5.406,0.974\C,0,0.181,5.01
 3,-2.277\O,0,0.303,4.69,-3.508\C,0,0.31,6.414,-1.837\N,0,-0.265,-0.413
 ,-2.029\C,0,-0.279,0.569,-2.937\C,0,-0.196,0.024,-4.332\C,0,0.124,-1.5
 33,-4.18\C,0,0.086,-1.632,-2.635\C,0,-1.451,0.205,-5.197\C,0,1.373,-2.
 07,-4.923\C,0,2.626,-1.49,-4.306\N,0,0.15,-2.144,0.303\C,0,0.173,-3.13
 6,-0.688\C,0,0.173,-4.438,0.004\C,0,0.133,-4.111,1.358\C,0,0.083,-2.69
 5,1.502\C,0,0.149,-5.715,-0.623\C,0,0.096,-4.629,2.716\O,0,0.208,-5.74
 7,3.221\C,0,-0.255,-3.428,3.701\C,0,0.717,-3.482,4.848\O,0,1.931,-3.25
 5,4.669\O,0,0.038,-3.556,6.003\C,0,0.943,-3.583,7.183\H,0,-1.859,3.22,
 2.497\H,0,-0.218,2.453,-3.474\H,0,0.276,-3.747,-2.605\H,0,-1.554,-0.94
 9,5.132\H,0,-1.585,1.831,4.665\H,0,-3.484,-0.377,3.969\H,0,-3.511,1.02
 7,2.858\H,0,-3.852,1.301,4.543\H,0,0.669,1.096,4.966\H,0,1.13,-0.639,5
 .189\H,0,-0.844,0.026,7.125\H,0,0.062,1.477,6.921\H,0,-1.344,5.186,1.9
 38\H,0,-1.651,5.963,0.432\H,0,0.007,6.02,1.084\H,0,-0.635,6.744,-1.405
 \H,0,0.665,6.97,-2.704\H,0,1.048,6.466,-1.036\H,0,0.608,0.501,-4.891\H
 ,0,-0.692,-2.156,-4.547\H,0,-1.267,0.74,-6.129\H,0,-2.204,0.714,-4.596
 \H,0,-1.967,-0.72,-5.453\H,0,1.356,-1.759,-5.967\H,0,1.452,-3.157,-4.9
 02\H,0,2.714,-0.522,-4.798\H,0,3.487,-2.121,-4.529\H,0,2.495,-1.303,-3
 .24\H,0,0.867,-6.333,-0.084\H,0,0.404,-5.642,-1.68\H,0,-0.891,-5.999,-
 0.463\H,0,-1.283,-3.581,4.028\H,0,0.698,-4.478,7.755\H,0,0.833,-2.619,
 7.68\H,0,2.,-3.754,6.976\Mg,0,8.92967,0.80655,0.66937\C,0,10.25162,-1.
 82844,-1.37717\C,0,10.41165,3.01006,-1.4714\C,0,8.16538,3.13047,2.6899
 3\C,0,8.54658,-1.54764,3.21037\N,0,10.1469,0.50776,-1.15309\C,0,10.532
 39,-0.53707,-1.87007\C,0,11.18925,-0.17709,-3.22967\C,0,11.68775,1.306
 62,-2.87054\C,0,10.66742,1.6519,-1.78778\C,0,13.07408,1.34179,-2.24909
 \C,0,10.15437,-0.16562,-4.40904\C,0,10.77381,-0.12681,-5.80781\H,0,10.
 10701,-0.85351,-6.88473\N,0,8.81188,2.76731,0.38636\C,0,9.46429,3.4958
 9,-0.5436\C,0,9.0528,4.89096,-0.32316\C,0,8.23223,4.94759,0.91708\C,0,
 8.39219,3.59106,1.40115\C,0,9.37344,5.99595,-1.28732\C,0,7.44555,6.045
 05,1.56741\O,0,7.00421,5.93798,2.76599\C,0,7.28716,7.2852,0.79384\N,0,
 8.62612,0.84382,2.72577\C,0,8.25036,1.97458,3.34874\C,0,7.8261,1.69842
 ,4.77146\C,0,7.765,0.10552,4.90005\C,0,8.27302,-0.28155,3.49382\C,0,8.
 73998,2.26188,5.85945\C,0,6.42859,-0.50957,5.39838\C,0,5.34586,-0.2977
 8,4.36482\N,0,9.14273,-1.33591,0.84979\C,0,8.95829,-2.11657,2.01196\C,
 0,9.32922,-3.50445,1.66755\C,0,9.72882,-3.43011,0.32468\C,0,9.63419,-2
 .08688,-0.12948\C,0,9.31754,-4.61423,2.55883\C,0,10.21929,-4.18066,-0.
 80881\O,0,10.41051,-5.37306,-1.04411\C,0,10.69994,-3.15527,-1.92413\C,
 0,10.12661,-3.59975,-3.2418\O,0,8.89806,-3.58362,-3.43419\O,0,11.12797
 ,-3.7623,-4.12567\C,0,10.60833,-4.19224,-5.45117\H,0,11.02271,3.77757,
 -1.94723\H,0,7.79268,3.87446,3.39778\H,0,8.36166,-2.35764,3.91917\H,0,
 12.03431,-0.79701,-3.50417\H,0,11.58243,1.97534,-3.72088\H,0,13.44813,
 0.35011,-2.04221\H,0,12.97094,1.90628,-1.33162\H,0,13.75628,1.91688,-2
 .8817\H,0,9.62476,0.79576,-4.41135\H,0,9.48241,-0.9984,-4.3344\H,0,11.
 84489,-0.3623,-5.79096\H,0,10.73103,0.90043,-6.17789\H,0,10.12836,5.68
 43,-2.0197\H,0,9.86363,6.78938,-0.71283\H,0,8.48325,6.40652,-1.76863\H
 ,0,8.26786,7.69149,0.55803\H,0,6.62148,7.91605,1.3861\H,0,6.80886,7.04
 281,-0.16172\H,0,6.8414,2.1048,4.96718\H,0,8.50706,-0.27408,5.61775\H,
 0,8.21527,2.93201,6.56633\H,0,9.56023,2.78067,5.38133\H,0,9.25732,1.51
 573,6.46013\H,0,6.09389,-0.00274,6.30681\H,0,6.49892,-1.56771,5.62725\
 H,0,4.99916,0.71838,4.57529\H,0,4.54504,-1.02292,4.49484\H,0,5.7634,-0
 .30032,3.35126\H,0,8.88063,-5.44322,2.01811\H,0,8.75825,-4.3906,3.4649
 \H,0,10.38827,-4.71979,2.7529\H,0,11.79058,-3.16352,-1.92856\H,0,11.12
 715,-5.11981,-5.71217\H,0,10.75453,-3.32672,-6.12441\H,0,9.57266,-4.50
 671,-5.5055\\Version=ES64L-G16RevA.03\State=1-A\HF=-4069.8131536\RMSD=
 5.916e-09\PG=C01 [X(C68H72Mg2N8O8)]\\@


 ERROR IS A HARDY PLANT... IT FLOURISHETH IN EVERY SOIL.
            MARTIN FARQUHAR TUPPER
 Job cpu time:       0 days 16 hours 42 minutes 12.1 seconds.
 Elapsed time:       0 days  0 hours 42 minutes 30.5 seconds.
 File lengths (MBytes):  RWF=  13225 Int=      0 D2E=      0 Chk=    574 Scr=      1
 Normal termination of Gaussian 16 at Thu Sep  9 16:31:19 2021.
