 Entering Gaussian System, Link 0=g16
 Initial command:
 /sw/apps/gaussian-16.0/g16/l1.exe "/tmp/Gau-268685.inp" -scrdir="/tmp/"
 Entering Link 1 = /sw/apps/gaussian-16.0/g16/l1.exe PID=    268686.
  
 Copyright (c) 1988,1990,1992,1993,1995,1998,2003,2009,2016,
            Gaussian, Inc.  All Rights Reserved.
  
 This is part of the Gaussian(R) 16 program.  It is based on
 the Gaussian(R) 09 system (copyright 2009, Gaussian, Inc.),
 the Gaussian(R) 03 system (copyright 2003, Gaussian, Inc.),
 the Gaussian(R) 98 system (copyright 1998, Gaussian, Inc.),
 the Gaussian(R) 94 system (copyright 1995, Gaussian, Inc.),
 the Gaussian 92(TM) system (copyright 1992, Gaussian, Inc.),
 the Gaussian 90(TM) system (copyright 1990, Gaussian, Inc.),
 the Gaussian 88(TM) system (copyright 1988, Gaussian, Inc.),
 the Gaussian 86(TM) system (copyright 1986, Carnegie Mellon
 University), and the Gaussian 82(TM) system (copyright 1983,
 Carnegie Mellon University). Gaussian is a federally registered
 trademark of Gaussian, Inc.
  
 This software contains proprietary and confidential information,
 including trade secrets, belonging to Gaussian, Inc.
  
 This software is provided under written license and may be
 used, copied, transmitted, or stored only in accord with that
 written license.
  
 The following legend is applicable only to US Government
 contracts under FAR:
  
                    RESTRICTED RIGHTS LEGEND
  
 Use, reproduction and disclosure by the US Government is
 subject to restrictions as set forth in subparagraphs (a)
 and (c) of the Commercial Computer Software - Restricted
 Rights clause in FAR 52.227-19.
  
 Gaussian, Inc.
 340 Quinnipiac St., Bldg. 40, Wallingford CT 06492
  
  
 ---------------------------------------------------------------
 Warning -- This program may not be used in any manner that
 competes with the business of Gaussian, Inc. or will provide
 assistance to any competitor of Gaussian, Inc.  The licensee
 of this program is prohibited from giving any competitor of
 Gaussian, Inc. access to this program.  By using this program,
 the user acknowledges that Gaussian, Inc. is engaged in the
 business of creating and licensing software in the field of
 computational chemistry and represents and warrants to the
 licensee that it is not a competitor of Gaussian, Inc. and that
 it will not use this program in any manner prohibited above.
 ---------------------------------------------------------------
  

 Cite this work as:
 Gaussian 16, Revision A.03,
 M. J. Frisch, G. W. Trucks, H. B. Schlegel, G. E. Scuseria, 
 M. A. Robb, J. R. Cheeseman, G. Scalmani, V. Barone, 
 G. A. Petersson, H. Nakatsuji, X. Li, M. Caricato, A. V. Marenich, 
 J. Bloino, B. G. Janesko, R. Gomperts, B. Mennucci, H. P. Hratchian, 
 J. V. Ortiz, A. F. Izmaylov, J. L. Sonnenberg, D. Williams-Young, 
 F. Ding, F. Lipparini, F. Egidi, J. Goings, B. Peng, A. Petrone, 
 T. Henderson, D. Ranasinghe, V. G. Zakrzewski, J. Gao, N. Rega, 
 G. Zheng, W. Liang, M. Hada, M. Ehara, K. Toyota, R. Fukuda, 
 J. Hasegawa, M. Ishida, T. Nakajima, Y. Honda, O. Kitao, H. Nakai, 
 T. Vreven, K. Throssell, J. A. Montgomery, Jr., J. E. Peralta, 
 F. Ogliaro, M. J. Bearpark, J. J. Heyd, E. N. Brothers, K. N. Kudin, 
 V. N. Staroverov, T. A. Keith, R. Kobayashi, J. Normand, 
 K. Raghavachari, A. P. Rendell, J. C. Burant, S. S. Iyengar, 
 J. Tomasi, M. Cossi, J. M. Millam, M. Klene, C. Adamo, R. Cammi, 
 J. W. Ochterski, R. L. Martin, K. Morokuma, O. Farkas, 
 J. B. Foresman, and D. J. Fox, Gaussian, Inc., Wallingford CT, 2016.
 
 ******************************************
 Gaussian 16:  ES64L-G16RevA.03 25-Dec-2016
                 4-Sep-2021 
 ******************************************
 %nproc=24
 Will use up to   24 processors via shared memory.
 %mem=175gb
 -----------------------------------
 #p cam-b3lyp/Def2SVP td=(nstates=5)
 -----------------------------------
 1/38=1,172=1/1;
 2/12=2,17=6,18=5,40=1/2;
 3/5=43,7=101,11=9,25=1,30=1,74=-40/1,2,3,8;
 4//1;
 5/5=2,38=5/2;
 8/6=1,10=1,108=5/1;
 9/41=5,42=1,70=2/14;
 6/7=2,8=2,9=2,10=2/1;
 99/5=1,9=1/99;
 Leave Link    1 at Sat Sep  4 14:20:41 2021, MaxMem= 23488102400 cpu:               0.8 elap:               0.0
 (Enter /sw/apps/gaussian-16.0/g16/l101.exe)
 --------------------------------
 TDDFT excited states in gaussian
 --------------------------------
 Symbolic Z-matrix:
 Charge =  0 Multiplicity = 1
 Mg                    0.        0.        0. 
 C                    -0.217    -2.218     2.801 
 C                    -1.255     2.442     2.026 
 C                    -0.245     1.85     -2.564 
 C                     0.146    -2.824    -2.037 
 N                    -0.617    -0.009     2.126 
 C                    -0.594    -0.908     3.105 
 C                    -0.936    -0.309     4.502 
 C                    -1.773     0.964     4.032 
 C                    -1.155     1.168     2.66 
 C                    -3.263     0.685     3.863 
 C                     0.345     0.11      5.299 
 C                     0.124     0.397     6.787 
 H                     1.168     0.033     7.733 
 N                    -0.185     1.961    -0.152 
 C                    -0.703     2.8       0.777 
 C                    -0.62      4.156     0.193 
 C                    -0.187     4.015    -1.225 
 C                    -0.214     2.583    -1.38 
 C                    -0.887     5.406     0.974 
 C                     0.181     5.013    -2.277 
 O                     0.303     4.69     -3.508 
 C                     0.31      6.414    -1.837 
 N                    -0.265    -0.413    -2.029 
 C                    -0.279     0.569    -2.937 
 C                    -0.196     0.024    -4.332 
 C                     0.124    -1.533    -4.18 
 C                     0.086    -1.632    -2.635 
 C                    -1.451     0.205    -5.197 
 C                     1.373    -2.07     -4.923 
 C                     2.626    -1.49     -4.306 
 N                     0.15     -2.144     0.303 
 C                     0.173    -3.136    -0.688 
 C                     0.173    -4.438     0.004 
 C                     0.133    -4.111     1.358 
 C                     0.083    -2.695     1.502 
 C                     0.149    -5.715    -0.623 
 C                     0.096    -4.629     2.716 
 O                     0.208    -5.747     3.221 
 C                    -0.255    -3.428     3.701 
 C                     0.717    -3.482     4.848 
 O                     1.931    -3.255     4.669 
 O                     0.038    -3.556     6.003 
 C                     0.943    -3.583     7.183 
 H                    -1.859     3.22      2.497 
 H                    -0.218     2.453    -3.474 
 H                     0.276    -3.747    -2.605 
 H                    -1.554    -0.949     5.132 
 H                    -1.585     1.831     4.665 
 H                    -3.484    -0.377     3.969 
 H                    -3.511     1.027     2.858 
 H                    -3.852     1.301     4.543 
 H                     0.669     1.096     4.966 
 H                     1.13     -0.639     5.189 
 H                    -0.844     0.026     7.125 
 H                     0.062     1.477     6.921 
 H                    -1.344     5.186     1.938 
 H                    -1.651     5.963     0.432 
 H                     0.007     6.02      1.084 
 H                    -0.635     6.744    -1.405 
 H                     0.665     6.97     -2.704 
 H                     1.048     6.466    -1.036 
 H                     0.608     0.501    -4.891 
 H                    -0.692    -2.156    -4.547 
 H                    -1.267     0.74     -6.129 
 H                    -2.204     0.714    -4.596 
 H                    -1.967    -0.72     -5.453 
 H                     1.356    -1.759    -5.967 
 H                     1.452    -3.157    -4.902 
 H                     2.714    -0.522    -4.798 
 H                     3.487    -2.121    -4.529 
 H                     2.495    -1.303    -3.24 
 H                     0.867    -6.333    -0.084 
 H                     0.404    -5.642    -1.68 
 H                    -0.891    -5.999    -0.463 
 H                    -1.283    -3.581     4.028 
 H                     0.698    -4.478     7.755 
 H                     0.833    -2.619     7.68 
 H                     2.       -3.754     6.976 
 Mg                    15.77284   1.42065   1.20589 
 C                     15.75766  -1.88838   2.59481 
 C                     14.56319   2.52122   4.19924 
 C                     15.34857   4.26924  -0.12564 
 C                     15.87625  -0.05448  -1.94989 
 N                     15.26732   0.35764   3.07851 
 C                     15.36094  -0.89113   3.50997 
 C                     15.08699  -1.06957   5.02743 
 C                     14.1862   0.23856   5.26462 
 C                     14.72448   1.11412   4.13487 
 C                     12.70504   0.00161   5.02098 
 C                     16.40233  -1.02388   5.88171 
 C                     16.24632  -1.49757   7.32844 
 H                     17.35354  -2.22131   7.94709 
 N                     15.53255   3.20529   2.0401 
 C                     15.04988   3.46914   3.27245 
 C                     15.05385   4.93463   3.40082 
 C                     15.42325   5.51991   2.08336 
 C                     15.42896   4.32874   1.25803 
 C                     14.80524   5.63803   4.70346 
 C                     15.7098   6.92166   1.63707 
 O                     15.77705   7.23253   0.39543 
 C                     15.81674   7.93742   2.69456 
 N                     15.41896   2.02317  -0.75219 
 C                     15.32588   3.32676  -1.06827 
 C                     15.34656   3.52803  -2.56475 
 C                     15.71785   2.1015   -3.18501 
 C                     15.76193   1.26506  -1.88738 
 C                     14.04339   4.02948  -3.1866 
 C                     16.94035   2.04665  -4.14164 
 C                     18.21107   2.32593  -3.37179 
 N                     15.99652  -0.58443   0.43281 
 C                     15.98658  -0.98227  -0.92207 
 C                     16.05637  -2.45778  -0.94309 
 C                     16.07902  -2.81999   0.41219 
 C                     16.00666  -1.65368   1.22089 
 C                     16.04211  -3.27475  -2.10862 
 C                     16.13699  -3.92435   1.34263 
 O                     16.29653  -5.13992   1.23921 
 C                     15.80394  -3.37749   2.79742 
 C                     16.83526  -3.92375   3.74635 
 O                     18.02814  -3.58679   3.64574 
 O                     16.21335  -4.57831   4.74392 
 C                     17.19411  -5.12895   5.71692 
 H                     13.97176   2.9389    5.01449 
 H                     15.31271   5.23357  -0.63776 
 H                     16.01145  -0.58459  -2.89508 
 H                     14.52572  -1.95942   5.28614 
 H                     14.39433   0.69165   6.23041 
 H                     12.51589  -0.98006   4.61269 
 H                     12.39553   0.76797   4.32246 
 H                     12.13825   0.18351   5.93858 
 H                     16.67994   0.02366   6.05589 
 H                     17.18694  -1.57693   5.40301 
 H                     15.30153  -2.03135   7.48778 
 H                     16.1705  -0.61974   7.97473 
 H                     14.39852   4.95417   5.45865 
 H                     13.99988   6.35961   4.52859 
 H                     15.68516   6.17207   5.06842 
 H                     14.89006   7.96609   3.2628 
 H                     16.11259   8.85762   2.18703 
 H                     16.60479   7.63395   3.39276 
 H                     16.10861   4.24359  -2.84822 
 H                     14.8962   1.69521  -3.79301 
 H                     14.16503   4.97057  -3.75548 
 H                     13.31418   4.15392  -2.39711 
 H                     13.54696   3.32377  -3.85048 
 H                     16.86086   2.82665  -4.90285 
 H                     17.04055   1.09922  -4.66061 
 H                     18.24226   3.41899  -3.33521 
 H                     19.07422   1.92384  -3.8984 
 H                     18.13384   1.96365  -2.34007 
 H                     16.79573  -4.03732  -1.96356 
 H                     16.23426  -2.69044  -3.00608 
 H                     15.01476  -3.647    -2.07332 
 H                     14.79703  -3.71168   3.05045 
 H                     16.99923  -6.2031    5.79381 
 H                     17.0716  -4.52763   6.63733 
 H                     18.23971  -5.12356   5.43209 
 
 ITRead=  0  0  0  0  0  0  0  0  0  0  0  0  0  0  0  0  0  0  0  0
 ITRead=  0  0  0  0  0  0  0  0  0  0  0  0  0  0  0  0  0  0  0  0
 ITRead=  0  0  0  0  0  0  0  0  0  0  0  0  0  0  0  0  0  0  0  0
 ITRead=  0  0  0  0  0  0  0  0  0  0  0  0  0  0  0  0  0  0  0  0
 ITRead=  0  0  0  0  0  0  0  0  0  0  0  0  0  0  0  0  0  0  0  0
 ITRead=  0  0  0  0  0  0  0  0  0  0  0  0  0  0  0  0  0  0  0  0
 ITRead=  0  0  0  0  0  0  0  0  0  0  0  0  0  0  0  0  0  0  0  0
 ITRead=  0  0  0  0  0  0  0  0  0  0  0  0  0  0  0  0  0  0
 MicOpt= -1 -1 -1 -1 -1 -1 -1 -1 -1 -1 -1 -1 -1 -1 -1 -1 -1 -1 -1 -1
 MicOpt= -1 -1 -1 -1 -1 -1 -1 -1 -1 -1 -1 -1 -1 -1 -1 -1 -1 -1 -1 -1
 MicOpt= -1 -1 -1 -1 -1 -1 -1 -1 -1 -1 -1 -1 -1 -1 -1 -1 -1 -1 -1 -1
 MicOpt= -1 -1 -1 -1 -1 -1 -1 -1 -1 -1 -1 -1 -1 -1 -1 -1 -1 -1 -1 -1
 MicOpt= -1 -1 -1 -1 -1 -1 -1 -1 -1 -1 -1 -1 -1 -1 -1 -1 -1 -1 -1 -1
 MicOpt= -1 -1 -1 -1 -1 -1 -1 -1 -1 -1 -1 -1 -1 -1 -1 -1 -1 -1 -1 -1
 MicOpt= -1 -1 -1 -1 -1 -1 -1 -1 -1 -1 -1 -1 -1 -1 -1 -1 -1 -1 -1 -1
 MicOpt= -1 -1 -1 -1 -1 -1 -1 -1 -1 -1 -1 -1 -1 -1 -1 -1 -1 -1
 NAtoms=    158 NQM=      158 NQMF=       0 NMMI=      0 NMMIF=      0
                NMic=       0 NMicF=      0.
                    Isotopes and Nuclear Properties:
 (Nuclear quadrupole moments (NQMom) in fm**2, nuclear magnetic moments (NMagM)
  in nuclear magnetons)

  Atom         1           2           3           4           5           6           7           8           9          10
 IAtWgt=          24          12          12          12          12          14          12          12          12          12
 AtmWgt=  23.9850450  12.0000000  12.0000000  12.0000000  12.0000000  14.0030740  12.0000000  12.0000000  12.0000000  12.0000000
 NucSpn=           0           0           0           0           0           2           0           0           0           0
 AtZEff=  -0.0000000  -0.0000000  -0.0000000  -0.0000000  -0.0000000  -0.0000000  -0.0000000  -0.0000000  -0.0000000  -0.0000000
 NQMom=    0.0000000   0.0000000   0.0000000   0.0000000   0.0000000   2.0440000   0.0000000   0.0000000   0.0000000   0.0000000
 NMagM=    0.0000000   0.0000000   0.0000000   0.0000000   0.0000000   0.4037610   0.0000000   0.0000000   0.0000000   0.0000000
 AtZNuc=  12.0000000   6.0000000   6.0000000   6.0000000   6.0000000   7.0000000   6.0000000   6.0000000   6.0000000   6.0000000

  Atom        11          12          13          14          15          16          17          18          19          20
 IAtWgt=          12          12          12           1          14          12          12          12          12          12
 AtmWgt=  12.0000000  12.0000000  12.0000000   1.0078250  14.0030740  12.0000000  12.0000000  12.0000000  12.0000000  12.0000000
 NucSpn=           0           0           0           1           2           0           0           0           0           0
 AtZEff=  -0.0000000  -0.0000000  -0.0000000  -0.0000000  -0.0000000  -0.0000000  -0.0000000  -0.0000000  -0.0000000  -0.0000000
 NQMom=    0.0000000   0.0000000   0.0000000   0.0000000   2.0440000   0.0000000   0.0000000   0.0000000   0.0000000   0.0000000
 NMagM=    0.0000000   0.0000000   0.0000000   2.7928460   0.4037610   0.0000000   0.0000000   0.0000000   0.0000000   0.0000000
 AtZNuc=   6.0000000   6.0000000   6.0000000   1.0000000   7.0000000   6.0000000   6.0000000   6.0000000   6.0000000   6.0000000

  Atom        21          22          23          24          25          26          27          28          29          30
 IAtWgt=          12          16          12          14          12          12          12          12          12          12
 AtmWgt=  12.0000000  15.9949146  12.0000000  14.0030740  12.0000000  12.0000000  12.0000000  12.0000000  12.0000000  12.0000000
 NucSpn=           0           0           0           2           0           0           0           0           0           0
 AtZEff=  -0.0000000  -0.0000000  -0.0000000  -0.0000000  -0.0000000  -0.0000000  -0.0000000  -0.0000000  -0.0000000  -0.0000000
 NQMom=    0.0000000   0.0000000   0.0000000   2.0440000   0.0000000   0.0000000   0.0000000   0.0000000   0.0000000   0.0000000
 NMagM=    0.0000000   0.0000000   0.0000000   0.4037610   0.0000000   0.0000000   0.0000000   0.0000000   0.0000000   0.0000000
 AtZNuc=   6.0000000   8.0000000   6.0000000   7.0000000   6.0000000   6.0000000   6.0000000   6.0000000   6.0000000   6.0000000

  Atom        31          32          33          34          35          36          37          38          39          40
 IAtWgt=          12          14          12          12          12          12          12          12          16          12
 AtmWgt=  12.0000000  14.0030740  12.0000000  12.0000000  12.0000000  12.0000000  12.0000000  12.0000000  15.9949146  12.0000000
 NucSpn=           0           2           0           0           0           0           0           0           0           0
 AtZEff=  -0.0000000  -0.0000000  -0.0000000  -0.0000000  -0.0000000  -0.0000000  -0.0000000  -0.0000000  -0.0000000  -0.0000000
 NQMom=    0.0000000   2.0440000   0.0000000   0.0000000   0.0000000   0.0000000   0.0000000   0.0000000   0.0000000   0.0000000
 NMagM=    0.0000000   0.4037610   0.0000000   0.0000000   0.0000000   0.0000000   0.0000000   0.0000000   0.0000000   0.0000000
 AtZNuc=   6.0000000   7.0000000   6.0000000   6.0000000   6.0000000   6.0000000   6.0000000   6.0000000   8.0000000   6.0000000

  Atom        41          42          43          44          45          46          47          48          49          50
 IAtWgt=          12          16          16          12           1           1           1           1           1           1
 AtmWgt=  12.0000000  15.9949146  15.9949146  12.0000000   1.0078250   1.0078250   1.0078250   1.0078250   1.0078250   1.0078250
 NucSpn=           0           0           0           0           1           1           1           1           1           1
 AtZEff=  -0.0000000  -0.0000000  -0.0000000  -0.0000000  -0.0000000  -0.0000000  -0.0000000  -0.0000000  -0.0000000  -0.0000000
 NQMom=    0.0000000   0.0000000   0.0000000   0.0000000   0.0000000   0.0000000   0.0000000   0.0000000   0.0000000   0.0000000
 NMagM=    0.0000000   0.0000000   0.0000000   0.0000000   2.7928460   2.7928460   2.7928460   2.7928460   2.7928460   2.7928460
 AtZNuc=   6.0000000   8.0000000   8.0000000   6.0000000   1.0000000   1.0000000   1.0000000   1.0000000   1.0000000   1.0000000

  Atom        51          52          53          54          55          56          57          58          59          60
 IAtWgt=           1           1           1           1           1           1           1           1           1           1
 AtmWgt=   1.0078250   1.0078250   1.0078250   1.0078250   1.0078250   1.0078250   1.0078250   1.0078250   1.0078250   1.0078250
 NucSpn=           1           1           1           1           1           1           1           1           1           1
 AtZEff=  -0.0000000  -0.0000000  -0.0000000  -0.0000000  -0.0000000  -0.0000000  -0.0000000  -0.0000000  -0.0000000  -0.0000000
 NQMom=    0.0000000   0.0000000   0.0000000   0.0000000   0.0000000   0.0000000   0.0000000   0.0000000   0.0000000   0.0000000
 NMagM=    2.7928460   2.7928460   2.7928460   2.7928460   2.7928460   2.7928460   2.7928460   2.7928460   2.7928460   2.7928460
 AtZNuc=   1.0000000   1.0000000   1.0000000   1.0000000   1.0000000   1.0000000   1.0000000   1.0000000   1.0000000   1.0000000

  Atom        61          62          63          64          65          66          67          68          69          70
 IAtWgt=           1           1           1           1           1           1           1           1           1           1
 AtmWgt=   1.0078250   1.0078250   1.0078250   1.0078250   1.0078250   1.0078250   1.0078250   1.0078250   1.0078250   1.0078250
 NucSpn=           1           1           1           1           1           1           1           1           1           1
 AtZEff=  -0.0000000  -0.0000000  -0.0000000  -0.0000000  -0.0000000  -0.0000000  -0.0000000  -0.0000000  -0.0000000  -0.0000000
 NQMom=    0.0000000   0.0000000   0.0000000   0.0000000   0.0000000   0.0000000   0.0000000   0.0000000   0.0000000   0.0000000
 NMagM=    2.7928460   2.7928460   2.7928460   2.7928460   2.7928460   2.7928460   2.7928460   2.7928460   2.7928460   2.7928460
 AtZNuc=   1.0000000   1.0000000   1.0000000   1.0000000   1.0000000   1.0000000   1.0000000   1.0000000   1.0000000   1.0000000

  Atom        71          72          73          74          75          76          77          78          79          80
 IAtWgt=           1           1           1           1           1           1           1           1           1          24
 AtmWgt=   1.0078250   1.0078250   1.0078250   1.0078250   1.0078250   1.0078250   1.0078250   1.0078250   1.0078250  23.9850450
 NucSpn=           1           1           1           1           1           1           1           1           1           0
 AtZEff=  -0.0000000  -0.0000000  -0.0000000  -0.0000000  -0.0000000  -0.0000000  -0.0000000  -0.0000000  -0.0000000  -0.0000000
 NQMom=    0.0000000   0.0000000   0.0000000   0.0000000   0.0000000   0.0000000   0.0000000   0.0000000   0.0000000   0.0000000
 NMagM=    2.7928460   2.7928460   2.7928460   2.7928460   2.7928460   2.7928460   2.7928460   2.7928460   2.7928460   0.0000000
 AtZNuc=   1.0000000   1.0000000   1.0000000   1.0000000   1.0000000   1.0000000   1.0000000   1.0000000   1.0000000  12.0000000

  Atom        81          82          83          84          85          86          87          88          89          90
 IAtWgt=          12          12          12          12          14          12          12          12          12          12
 AtmWgt=  12.0000000  12.0000000  12.0000000  12.0000000  14.0030740  12.0000000  12.0000000  12.0000000  12.0000000  12.0000000
 NucSpn=           0           0           0           0           2           0           0           0           0           0
 AtZEff=  -0.0000000  -0.0000000  -0.0000000  -0.0000000  -0.0000000  -0.0000000  -0.0000000  -0.0000000  -0.0000000  -0.0000000
 NQMom=    0.0000000   0.0000000   0.0000000   0.0000000   2.0440000   0.0000000   0.0000000   0.0000000   0.0000000   0.0000000
 NMagM=    0.0000000   0.0000000   0.0000000   0.0000000   0.4037610   0.0000000   0.0000000   0.0000000   0.0000000   0.0000000
 AtZNuc=   6.0000000   6.0000000   6.0000000   6.0000000   7.0000000   6.0000000   6.0000000   6.0000000   6.0000000   6.0000000

  Atom        91          92          93          94          95          96          97          98          99         100
 IAtWgt=          12          12           1          14          12          12          12          12          12          12
 AtmWgt=  12.0000000  12.0000000   1.0078250  14.0030740  12.0000000  12.0000000  12.0000000  12.0000000  12.0000000  12.0000000
 NucSpn=           0           0           1           2           0           0           0           0           0           0
 AtZEff=  -0.0000000  -0.0000000  -0.0000000  -0.0000000  -0.0000000  -0.0000000  -0.0000000  -0.0000000  -0.0000000  -0.0000000
 NQMom=    0.0000000   0.0000000   0.0000000   2.0440000   0.0000000   0.0000000   0.0000000   0.0000000   0.0000000   0.0000000
 NMagM=    0.0000000   0.0000000   2.7928460   0.4037610   0.0000000   0.0000000   0.0000000   0.0000000   0.0000000   0.0000000
 AtZNuc=   6.0000000   6.0000000   1.0000000   7.0000000   6.0000000   6.0000000   6.0000000   6.0000000   6.0000000   6.0000000

  Atom       101         102         103         104         105         106         107         108         109         110
 IAtWgt=          16          12          14          12          12          12          12          12          12          12
 AtmWgt=  15.9949146  12.0000000  14.0030740  12.0000000  12.0000000  12.0000000  12.0000000  12.0000000  12.0000000  12.0000000
 NucSpn=           0           0           2           0           0           0           0           0           0           0
 AtZEff=  -0.0000000  -0.0000000  -0.0000000  -0.0000000  -0.0000000  -0.0000000  -0.0000000  -0.0000000  -0.0000000  -0.0000000
 NQMom=    0.0000000   0.0000000   2.0440000   0.0000000   0.0000000   0.0000000   0.0000000   0.0000000   0.0000000   0.0000000
 NMagM=    0.0000000   0.0000000   0.4037610   0.0000000   0.0000000   0.0000000   0.0000000   0.0000000   0.0000000   0.0000000
 AtZNuc=   8.0000000   6.0000000   7.0000000   6.0000000   6.0000000   6.0000000   6.0000000   6.0000000   6.0000000   6.0000000

  Atom       111         112         113         114         115         116         117         118         119         120
 IAtWgt=          14          12          12          12          12          12          12          16          12          12
 AtmWgt=  14.0030740  12.0000000  12.0000000  12.0000000  12.0000000  12.0000000  12.0000000  15.9949146  12.0000000  12.0000000
 NucSpn=           2           0           0           0           0           0           0           0           0           0
 AtZEff=  -0.0000000  -0.0000000  -0.0000000  -0.0000000  -0.0000000  -0.0000000  -0.0000000  -0.0000000  -0.0000000  -0.0000000
 NQMom=    2.0440000   0.0000000   0.0000000   0.0000000   0.0000000   0.0000000   0.0000000   0.0000000   0.0000000   0.0000000
 NMagM=    0.4037610   0.0000000   0.0000000   0.0000000   0.0000000   0.0000000   0.0000000   0.0000000   0.0000000   0.0000000
 AtZNuc=   7.0000000   6.0000000   6.0000000   6.0000000   6.0000000   6.0000000   6.0000000   8.0000000   6.0000000   6.0000000

  Atom       121         122         123         124         125         126         127         128         129         130
 IAtWgt=          16          16          12           1           1           1           1           1           1           1
 AtmWgt=  15.9949146  15.9949146  12.0000000   1.0078250   1.0078250   1.0078250   1.0078250   1.0078250   1.0078250   1.0078250
 NucSpn=           0           0           0           1           1           1           1           1           1           1
 AtZEff=  -0.0000000  -0.0000000  -0.0000000  -0.0000000  -0.0000000  -0.0000000  -0.0000000  -0.0000000  -0.0000000  -0.0000000
 NQMom=    0.0000000   0.0000000   0.0000000   0.0000000   0.0000000   0.0000000   0.0000000   0.0000000   0.0000000   0.0000000
 NMagM=    0.0000000   0.0000000   0.0000000   2.7928460   2.7928460   2.7928460   2.7928460   2.7928460   2.7928460   2.7928460
 AtZNuc=   8.0000000   8.0000000   6.0000000   1.0000000   1.0000000   1.0000000   1.0000000   1.0000000   1.0000000   1.0000000

  Atom       131         132         133         134         135         136         137         138         139         140
 IAtWgt=           1           1           1           1           1           1           1           1           1           1
 AtmWgt=   1.0078250   1.0078250   1.0078250   1.0078250   1.0078250   1.0078250   1.0078250   1.0078250   1.0078250   1.0078250
 NucSpn=           1           1           1           1           1           1           1           1           1           1
 AtZEff=  -0.0000000  -0.0000000  -0.0000000  -0.0000000  -0.0000000  -0.0000000  -0.0000000  -0.0000000  -0.0000000  -0.0000000
 NQMom=    0.0000000   0.0000000   0.0000000   0.0000000   0.0000000   0.0000000   0.0000000   0.0000000   0.0000000   0.0000000
 NMagM=    2.7928460   2.7928460   2.7928460   2.7928460   2.7928460   2.7928460   2.7928460   2.7928460   2.7928460   2.7928460
 AtZNuc=   1.0000000   1.0000000   1.0000000   1.0000000   1.0000000   1.0000000   1.0000000   1.0000000   1.0000000   1.0000000

  Atom       141         142         143         144         145         146         147         148         149         150
 IAtWgt=           1           1           1           1           1           1           1           1           1           1
 AtmWgt=   1.0078250   1.0078250   1.0078250   1.0078250   1.0078250   1.0078250   1.0078250   1.0078250   1.0078250   1.0078250
 NucSpn=           1           1           1           1           1           1           1           1           1           1
 AtZEff=  -0.0000000  -0.0000000  -0.0000000  -0.0000000  -0.0000000  -0.0000000  -0.0000000  -0.0000000  -0.0000000  -0.0000000
 NQMom=    0.0000000   0.0000000   0.0000000   0.0000000   0.0000000   0.0000000   0.0000000   0.0000000   0.0000000   0.0000000
 NMagM=    2.7928460   2.7928460   2.7928460   2.7928460   2.7928460   2.7928460   2.7928460   2.7928460   2.7928460   2.7928460
 AtZNuc=   1.0000000   1.0000000   1.0000000   1.0000000   1.0000000   1.0000000   1.0000000   1.0000000   1.0000000   1.0000000

  Atom       151         152         153         154         155         156         157         158
 IAtWgt=           1           1           1           1           1           1           1           1
 AtmWgt=   1.0078250   1.0078250   1.0078250   1.0078250   1.0078250   1.0078250   1.0078250   1.0078250
 NucSpn=           1           1           1           1           1           1           1           1
 AtZEff=  -0.0000000  -0.0000000  -0.0000000  -0.0000000  -0.0000000  -0.0000000  -0.0000000  -0.0000000
 NQMom=    0.0000000   0.0000000   0.0000000   0.0000000   0.0000000   0.0000000   0.0000000   0.0000000
 NMagM=    2.7928460   2.7928460   2.7928460   2.7928460   2.7928460   2.7928460   2.7928460   2.7928460
 AtZNuc=   1.0000000   1.0000000   1.0000000   1.0000000   1.0000000   1.0000000   1.0000000   1.0000000
 Leave Link  101 at Sat Sep  4 14:20:41 2021, MaxMem= 23488102400 cpu:               3.4 elap:               0.2
 (Enter /sw/apps/gaussian-16.0/g16/l202.exe)
 Stoichiometry    C68H72Mg2N8O8
 Framework group  C1[X(C68H72Mg2N8O8)]
 Deg. of freedom   468
 Full point group                 C1      NOp   1
 Largest Abelian subgroup         C1      NOp   1
 Largest concise Abelian subgroup C1      NOp   1
                         Standard orientation:                         
 ---------------------------------------------------------------------
 Center     Atomic      Atomic             Coordinates (Angstroms)
 Number     Number       Type             X           Y           Z
 ---------------------------------------------------------------------
      1         12           0       -7.855862   -0.686165    0.327128
      2          6           0       -8.048746    2.823879   -0.347115
      3          6           0       -8.840243   -1.208540   -2.897959
      4          6           0       -8.132480   -3.767210    1.025170
      5          6           0       -8.000724    0.107098    3.717616
      6          7           0       -8.349793    0.711190   -1.317281
      7          6           0       -8.326338    2.032237   -1.463758
      8          6           0       -8.550424    2.494838   -2.934526
      9          6           0       -9.332883    1.218694   -3.483354
     10          6           0       -8.782872    0.169436   -2.533370
     11          6           0      -10.844458    1.304730   -3.298310
     12          6           0       -7.202612    2.713746   -3.700824
     13          6           0       -7.320150    3.472476   -5.025916
     14          1           0       -6.248230    4.377572   -5.412096
     15          7           0       -7.928074   -2.266457   -0.856219
     16          6           0       -8.339484   -2.293752   -2.146677
     17          6           0       -8.206594   -3.699087   -2.587194
     18          6           0       -7.864812   -4.520045   -1.392494
     19          6           0       -7.988796   -3.542183   -0.341879
     20          6           0       -8.351025   -4.131256   -4.014120
     21          6           0       -7.496719   -5.960175   -1.223190
     22          8           0       -7.465369   -6.523878   -0.076094
     23          6           0       -7.256726   -6.726588   -2.459336
     24          7           0       -8.261272   -1.709506    2.100839
     25          6           0       -8.266589   -3.046439    2.140406
     26          6           0       -8.297146   -3.550776    3.552727
     27          6           0       -8.065521   -2.273932    4.483196
     28          6           0       -8.021232   -1.185040    3.382913
     29          6           0       -9.585968   -4.266572    3.980024
     30          6           0       -6.896464   -2.345671    5.497384
     31          6           0       -5.576916   -2.366630    4.758838
     32          7           0       -7.821176    1.130976    1.513653
     33          6           0       -7.915983    1.228489    2.909424
     34          6           0       -7.956671    2.664769    3.240351
     35          6           0       -7.899039    3.306964    2.004993
     36          6           0       -7.853397    2.333254    0.966679
     37          6           0       -8.095078    3.215816    4.544815
     38          6           0       -7.890250    4.589039    1.319380
     39          8           0       -7.818679    5.764768    1.679978
     40          6           0       -8.109749    4.327029   -0.235933
     41          6           0       -7.078993    5.129697   -0.981973
     42          8           0       -5.865525    4.851870   -0.894377
     43          8           0       -7.694175    5.937872   -1.858869
     44          6           0       -6.726633    6.741248   -2.652976
     45          1           0       -9.367270   -1.491366   -3.811300
     46          1           0       -8.120406   -4.819279    1.317475
     47          1           0       -7.960495    0.431316    4.759114
     48          1           0       -9.169683    3.385631   -3.041448
     49          1           0       -9.055973    0.982247   -4.510552
     50          1           0      -11.124052    2.173221   -2.702096
     51          1           0      -11.127919    0.384629   -2.786882
     52          1           0      -11.354580    1.281451   -4.261642
     53          1           0       -6.838032    1.754425   -4.068037
     54          1           0       -6.472817    3.213392   -3.062796
     55          1           0       -8.288278    3.965517   -5.118376
     56          1           0       -7.307738    2.745472   -5.838019
     57          1           0       -8.764897   -3.336413   -4.633377
     58          1           0       -9.108967   -4.914081   -4.034551
     59          1           0       -7.416074   -4.514017   -4.423623
     60          1           0       -8.153376   -6.700246   -3.078911
     61          1           0       -6.918251   -7.712031   -2.141237
     62          1           0       -6.472376   -6.233171   -3.034039
     63          1           0       -7.498532   -4.270352    3.728372
     64          1           0       -8.937983   -2.052451    5.098363
     65          1           0       -9.422896   -5.280399    4.346449
     66          1           0      -10.270616   -4.262512    3.132361
     67          1           0      -10.171757   -3.741763    4.734242
     68          1           0       -6.953879   -3.265930    6.077706
     69          1           0       -6.883514   -1.511450    6.198925
     70          1           0       -5.457693   -3.418909    4.503248
     71          1           0       -4.770574   -2.029492    5.411036
     72          1           0       -5.635039   -1.808801    3.823993
     73          1           0       -7.386902    4.042258    4.603543
     74          1           0       -7.896861    2.468942    5.313249
     75          1           0       -9.139758    3.525713    4.523311
     76          1           0       -9.124862    4.647911   -0.467672
     77          1           0       -6.993234    7.789601   -2.518391
     78          1           0       -6.748463    6.339666   -3.666218
     79          1           0       -5.695730    6.743761   -2.297207
     80         12           0        8.017620   -0.823948   -0.191004
     81          6           0        7.877963    2.583379    0.926864
     82          6           0        7.051041    0.300917   -3.262658
     83          6           0        7.694292   -3.850311   -1.087681
     84          6           0        7.849516   -1.782953    3.155293
     85          7           0        7.555365    1.202860   -0.946396
     86          6           0        7.596363    2.428747   -0.446527
     87          6           0        7.399069    3.557341   -1.493868
     88          6           0        6.595607    2.718532   -2.602802
     89          6           0        7.121393    1.321207   -2.280748
     90          6           0        5.091168    2.723922   -2.388384
     91          6           0        8.761372    4.095690   -2.056284
     92          6           0        8.659371    5.401548   -2.847536
     93          1           0        9.753425    6.363531   -2.747053
     94          7           0        7.935784   -1.624115   -2.005287
     95          6           0        7.541471   -1.018159   -3.144852
     96          6           0        7.643049   -2.038970   -4.199263
     97          6           0        7.971945   -3.342173   -3.560359
     98          6           0        7.857102   -2.985826   -2.160389
     99          6           0        7.513065   -1.716224   -5.659533
    100          6           0        8.318351   -4.689749   -4.117344
    101          8           0        8.333590   -5.738940   -3.381275
    102          6           0        8.547900   -4.760350   -5.567797
    103          7           0        7.590262   -2.567333    0.857954
    104          6           0        7.559770   -3.758788    0.235520
    105          6           0        7.507294   -4.893095    1.231001
    106          6           0        7.753952   -4.221310    2.661187
    107          6           0        7.820467   -2.738012    2.235956
    108          6           0        6.204105   -5.691308    1.261899
    109          6           0        8.914105   -4.797171    3.518558
    110          6           0       10.241515   -4.490819    2.863174
    111          7           0        8.072816    0.182449    1.720056
    112          6           0        7.961006   -0.407351    2.998222
    113          6           0        7.938442    0.692174    3.984619
    114          6           0        8.016114    1.855514    3.204171
    115          6           0        8.062061    1.506394    1.827394
    116          6           0        7.807321    0.542749    5.394081
    117          6           0        8.058988    3.299851    3.231407
    118          8           0        8.137165    4.150047    4.117304
    119          6           0        7.843909    3.839802    1.752020
    120          6           0        8.892133    4.884153    1.481747
    121          8           0       10.095808    4.574692    1.436732
    122          8           0        8.289078    6.027267    1.107606
    123          6           0        9.288026    7.090273    0.817873
    124          1           0        6.534005    0.515988   -4.198230
    125          1           0        7.688717   -4.914147   -1.336088
    126          1           0        7.897586   -2.002666    4.223981
    127          1           0        6.799738    4.393238   -1.153477
    128          1           0        6.886084    3.012938   -3.607942
    129          1           0        4.818883    3.194396   -1.455287
    130          1           0        4.790066    1.684513   -2.390035
    131          1           0        4.590004    3.184231   -3.244701
    132          1           0        9.112489    3.422601   -2.849010
    133          1           0        9.481790    4.205445   -1.269148
    134          1           0        7.694137    5.900229   -2.697272
    135          1           0        8.674820    5.163292   -3.913848
    136          1           0        7.108789   -0.708248   -5.814270
    137          1           0        6.745020   -2.382444   -6.067110
    138          1           0        8.443623   -1.871384   -6.209660
    139          1           0        7.658722   -4.417139   -6.091269
    140          1           0        8.870406   -5.784914   -5.763092
    141          1           0        9.354350   -4.065925   -5.828590
    142          1           0        8.294543   -5.612014    1.039961
    143          1           0        6.875445   -4.321565    3.315418
    144          1           0        6.350799   -6.773478    1.084528
    145          1           0        5.530237   -5.273254    0.525923
    146          1           0        5.628028   -5.599540    2.181095
    147          1           0        8.839470   -5.885967    3.574346
    148          1           0        8.925935   -4.422600    4.536669
    149          1           0       10.342028   -5.290808    2.123575
    150          1           0       11.046759   -4.525662    3.594194
    151          1           0       10.201172   -3.540799    2.317745
    152          1           0        8.519581    1.219840    5.846555
    153          1           0        7.983526   -0.485508    5.702972
    154          1           0        6.762686    0.837422    5.525111
    155          1           0        6.834424    4.248936    1.696138
    156          1           0        9.032049    7.949046    1.446104
    157          1           0        9.255573    7.240127   -0.277681
    158          1           0       10.313991    6.908556    1.115885
 ---------------------------------------------------------------------
 Rotational constants (GHZ):           0.0202818           0.0059759           0.0055642
 Leave Link  202 at Sat Sep  4 14:20:41 2021, MaxMem= 23488102400 cpu:               0.2 elap:               0.0
 (Enter /sw/apps/gaussian-16.0/g16/l301.exe)
 Standard basis: def2SVP (5D, 7F)
 Ernie: Thresh=  0.10000D-02 Tol=  0.10000D-05 Strict=F.
 There are  1658 symmetry adapted cartesian basis functions of A   symmetry.
 There are  1572 symmetry adapted basis functions of A   symmetry.
  1572 basis functions,  2678 primitive gaussians,  1658 cartesian basis functions
   312 alpha electrons      312 beta electrons
       nuclear repulsion energy     13740.1572990958 Hartrees.
 IExCor=20419 DFT=T Ex+Corr=CAM-B3LYP ExCW=0 ScaHFX=  1.000000
 ScaDFX=  1.000000  1.000000  1.000000  0.810000 ScalE2=  1.000000  1.000000
 IRadAn=      5 IRanWt=     -1 IRanGd=            0 ICorTp=0 IEmpDi=  4
 HFx  wShort=  0.000000 wLong=  0.330000 cFull=  0.190000 cShort=  0.000000 cLong=  0.460000
 DFx  wShort=  0.000000 wLong=  0.330000 cFull=  0.190000 cShort=  0.000000 cLong=  0.460000
 NAtoms=  158 NActive=  158 NUniq=  158 SFac= 1.00D+00 NAtFMM=   60 NAOKFM=T Big=T
 Integral buffers will be    131072 words long.
 Raffenetti 1 integral format.
 Two-electron integral symmetry is turned on.
 Leave Link  301 at Sat Sep  4 14:20:41 2021, MaxMem= 23488102400 cpu:               1.3 elap:               0.1
 (Enter /sw/apps/gaussian-16.0/g16/l302.exe)
 NPDir=0 NMtPBC=     1 NCelOv=     1 NCel=       1 NClECP=     1 NCelD=      1
         NCelK=      1 NCelE2=     1 NClLst=     1 CellRange=     0.0.
 One-electron integrals computed using PRISM.
 One-electron integral symmetry used in STVInt
   1 Symmetry operations used in ECPInt.
 ECPInt:  NShTT=  271216 NPrTT=  987664 LenC2=  107362 LenP2D=  244311.
 LDataN:  DoStor=T MaxTD1= 4 Len=   56
 NBasis=  1572 RedAO= T EigKep=  3.36D-04  NBF=  1572
 NBsUse=  1572 1.00D-06 EigRej= -1.00D+00 NBFU=  1572
 Precomputing XC quadrature grid using
 IXCGrd= 4 IRadAn=           5 IRanWt=          -1 IRanGd=           0 AccXCQ= 0.00D+00.
 Generated NRdTot=       0 NPtTot=           0 NUsed=           0 NTot=          32
 NSgBfM=   866   848   854   864   866 MxSgAt=   158 MxSgA2=   151.
 Leave Link  302 at Sat Sep  4 14:20:45 2021, MaxMem= 23488102400 cpu:             108.6 elap:               4.5
 (Enter /sw/apps/gaussian-16.0/g16/l303.exe)
 DipDrv:  MaxL=1.
 Leave Link  303 at Sat Sep  4 14:20:46 2021, MaxMem= 23488102400 cpu:               8.9 elap:               0.4
 (Enter /sw/apps/gaussian-16.0/g16/l308.exe)
 Leave Link  308 at Sat Sep  4 14:20:47 2021, MaxMem= 23488102400 cpu:              15.2 elap:               0.7
 (Enter /sw/apps/gaussian-16.0/g16/l401.exe)
 ExpMin= 3.36D-02 ExpMax= 4.95D+03 ExpMxC= 7.45D+02 IAcc=3 IRadAn=         5 AccDes= 0.00D+00
 Harris functional with IExCor=20419 and IRadAn=       5 diagonalized for initial guess.
 HarFok:  IExCor=20419 AccDes= 0.00D+00 IRadAn=         5 IDoV= 1 UseB2=F ITyADJ=14
 ICtDFT=  3500011 ScaDFX=  1.000000  1.000000  1.000000  1.000000
 FoFCou: FMM=F IPFlag=           0 FMFlag=      100000 FMFlg1=        2001
         NFxFlg=           0 DoJE=T BraDBF=F KetDBF=T FulRan=T
         wScrn=  0.000000 ICntrl=       500 IOpCl=  0 I1Cent=   200000004 NGrid=           0
         NMat0=    1 NMatS0=      1 NMatT0=    0 NMatD0=    1 NMtDS0=    0 NMtDT0=    0
 Petite list used in FoFCou.
 Harris En= -3918.65801685443    
 JPrj=0 DoOrth=F DoCkMO=F.
 Leave Link  401 at Sat Sep  4 14:20:53 2021, MaxMem= 23488102400 cpu:             163.4 elap:               6.8
 (Enter /sw/apps/gaussian-16.0/g16/l502.exe)
 Integral symmetry usage will be decided dynamically.
 Closed shell SCF:
 Using DIIS extrapolation, IDIIS=  1040.
 NGot= 23488102400 LenX= 23482547354 LenY= 23479796732
 Requested convergence on RMS density matrix=1.00D-08 within 128 cycles.
 Requested convergence on MAX density matrix=1.00D-06.
 Requested convergence on             energy=1.00D-06.
 No special actions if energy rises.
 Fock matrices will be formed incrementally for  20 cycles.

 Cycle   1  Pass 1  IDiag  1:
 FoFJK:  IHMeth= 1 ICntrl=       0 DoSepK=T KAlg= 0 I1Cent=           0 FoldK=F
 IRaf=         1 NMat=       1 IRICut=       1 DoRegI=T DoRafI=F ISym2E= 0 IDoP0=0 IntGTp=1.
 FoFCou: FMM=T IPFlag=           0 FMFlag=      100000 FMFlg1=        2001
         NFxFlg=           0 DoJE=T BraDBF=F KetDBF=F FulRan=T
         wScrn=  0.000000 ICntrl=       500 IOpCl=  0 I1Cent=           0 NGrid=           0
         NMat0=    1 NMatS0=      1 NMatT0=    0 NMatD0=    1 NMtDS0=    0 NMtDT0=    0
 Symmetry not used in FoFCou.
 FMM levels:  10  Number of levels for PrismC:   9
 E= -4068.94918214840    
 DIIS: error= 2.04D-02 at cycle   1 NSaved=   1.
 NSaved= 1 IEnMin= 1 EnMin= -4068.94918214840     IErMin= 1 ErrMin= 2.04D-02
 ErrMax= 2.04D-02  0.00D+00 EMaxC= 1.00D-01 BMatC= 1.69D+00 BMatP= 1.69D+00
 IDIUse=3 WtCom= 7.96D-01 WtEn= 2.04D-01
 Coeff-Com:  0.100D+01
 Coeff-En:   0.100D+01
 Coeff:      0.100D+01
 Gap=     0.120 Goal=   None    Shift=    0.000
 GapD=    0.120 DampG=1.000 DampE=0.500 DampFc=0.5000 IDamp=-1.
 Damping current iteration by 5.00D-01
 RMSDP=1.57D-03 MaxDP=1.35D-01              OVMax= 2.04D-01

 Cycle   2  Pass 1  IDiag  1:
 RMSU=  7.69D-04    CP:  9.82D-01
 E= -4069.33806386383     Delta-E=       -0.388881715437 Rises=F Damp=T
 DIIS: error= 1.27D-02 at cycle   2 NSaved=   2.
 NSaved= 2 IEnMin= 2 EnMin= -4069.33806386383     IErMin= 2 ErrMin= 1.27D-02
 ErrMax= 1.27D-02  0.00D+00 EMaxC= 1.00D-01 BMatC= 3.07D-01 BMatP= 1.69D+00
 IDIUse=3 WtCom= 8.73D-01 WtEn= 1.27D-01
 Coeff-Com: -0.213D+00 0.121D+01
 Coeff-En:   0.000D+00 0.100D+01
 Coeff:     -0.186D+00 0.119D+01
 Gap=     0.136 Goal=   None    Shift=    0.000
 RMSDP=7.65D-04 MaxDP=9.44D-02 DE=-3.89D-01 OVMax= 1.88D-01

 Cycle   3  Pass 1  IDiag  1:
 RMSU=  7.33D-04    CP:  9.68D-01  1.24D+00
 E= -4069.62750478692     Delta-E=       -0.289440923090 Rises=F Damp=F
 DIIS: error= 1.57D-02 at cycle   3 NSaved=   3.
 NSaved= 3 IEnMin= 3 EnMin= -4069.62750478692     IErMin= 2 ErrMin= 1.27D-02
 ErrMax= 1.57D-02  0.00D+00 EMaxC= 1.00D-01 BMatC= 2.02D-01 BMatP= 3.07D-01
 IDIUse=3 WtCom= 8.43D-01 WtEn= 1.57D-01
 Coeff-Com: -0.267D+00 0.652D+00 0.616D+00
 Coeff-En:   0.000D+00 0.000D+00 0.100D+01
 Coeff:     -0.225D+00 0.549D+00 0.676D+00
 Gap=     0.123 Goal=   None    Shift=    0.000
 RMSDP=5.09D-04 MaxDP=4.80D-02 DE=-2.89D-01 OVMax= 1.44D-01

 Cycle   4  Pass 1  IDiag  1:
 RMSU=  2.66D-04    CP:  9.65D-01  1.55D+00  5.05D-01
 E= -4069.76486712823     Delta-E=       -0.137362341306 Rises=F Damp=F
 DIIS: error= 7.24D-03 at cycle   4 NSaved=   4.
 NSaved= 4 IEnMin= 4 EnMin= -4069.76486712823     IErMin= 4 ErrMin= 7.24D-03
 ErrMax= 7.24D-03  0.00D+00 EMaxC= 1.00D-01 BMatC= 5.03D-02 BMatP= 2.02D-01
 IDIUse=3 WtCom= 9.28D-01 WtEn= 7.24D-02
 Coeff-Com: -0.109D+00 0.226D+00 0.409D+00 0.474D+00
 Coeff-En:   0.000D+00 0.000D+00 0.221D+00 0.779D+00
 Coeff:     -0.101D+00 0.210D+00 0.395D+00 0.496D+00
 Gap=     0.122 Goal=   None    Shift=    0.000
 RMSDP=2.01D-04 MaxDP=2.01D-02 DE=-1.37D-01 OVMax= 6.26D-02

 Cycle   5  Pass 1  IDiag  1:
 RMSU=  7.63D-05    CP:  9.64D-01  1.49D+00  6.89D-01  5.48D-01
 E= -4069.81047620334     Delta-E=       -0.045609075110 Rises=F Damp=F
 DIIS: error= 7.67D-04 at cycle   5 NSaved=   5.
 NSaved= 5 IEnMin= 5 EnMin= -4069.81047620334     IErMin= 5 ErrMin= 7.67D-04
 ErrMax= 7.67D-04  0.00D+00 EMaxC= 1.00D-01 BMatC= 1.18D-03 BMatP= 5.03D-02
 IDIUse=3 WtCom= 9.92D-01 WtEn= 7.67D-03
 Coeff-Com: -0.362D-01 0.710D-01 0.166D+00 0.250D+00 0.549D+00
 Coeff-En:   0.000D+00 0.000D+00 0.000D+00 0.000D+00 0.100D+01
 Coeff:     -0.359D-01 0.705D-01 0.165D+00 0.248D+00 0.552D+00
 Gap=     0.122 Goal=   None    Shift=    0.000
 RMSDP=4.16D-05 MaxDP=4.13D-03 DE=-4.56D-02 OVMax= 1.67D-02

 Cycle   6  Pass 1  IDiag  1:
 RMSU=  3.07D-05    CP:  9.64D-01  1.49D+00  6.81D-01  6.21D-01  7.52D-01
 E= -4069.81151184749     Delta-E=       -0.001035644149 Rises=F Damp=F
 DIIS: error= 2.09D-04 at cycle   6 NSaved=   6.
 NSaved= 6 IEnMin= 6 EnMin= -4069.81151184749     IErMin= 6 ErrMin= 2.09D-04
 ErrMax= 2.09D-04  0.00D+00 EMaxC= 1.00D-01 BMatC= 1.82D-04 BMatP= 1.18D-03
 IDIUse=3 WtCom= 9.98D-01 WtEn= 2.09D-03
 Coeff-Com:  0.218D-02-0.654D-02 0.114D-01 0.406D-01 0.307D+00 0.645D+00
 Coeff-En:   0.000D+00 0.000D+00 0.000D+00 0.000D+00 0.109D+00 0.891D+00
 Coeff:      0.218D-02-0.652D-02 0.114D-01 0.405D-01 0.307D+00 0.646D+00
 Gap=     0.122 Goal=   None    Shift=    0.000
 RMSDP=1.63D-05 MaxDP=1.18D-03 DE=-1.04D-03 OVMax= 7.32D-03

 Cycle   7  Pass 1  IDiag  1:
 RMSU=  1.08D-05    CP:  9.64D-01  1.50D+00  6.87D-01  6.20D-01  8.56D-01
                    CP:  7.44D-01
 E= -4069.81170909185     Delta-E=       -0.000197244364 Rises=F Damp=F
 DIIS: error= 8.18D-05 at cycle   7 NSaved=   7.
 NSaved= 7 IEnMin= 7 EnMin= -4069.81170909185     IErMin= 7 ErrMin= 8.18D-05
 ErrMax= 8.18D-05  0.00D+00 EMaxC= 1.00D-01 BMatC= 2.20D-05 BMatP= 1.82D-04
 IDIUse=1 WtCom= 1.00D+00 WtEn= 0.00D+00
 Coeff-Com:  0.448D-02-0.982D-02-0.891D-02-0.355D-02 0.105D+00 0.332D+00
 Coeff-Com:  0.581D+00
 Coeff:      0.448D-02-0.982D-02-0.891D-02-0.355D-02 0.105D+00 0.332D+00
 Coeff:      0.581D+00
 Gap=     0.122 Goal=   None    Shift=    0.000
 RMSDP=6.60D-06 MaxDP=1.06D-03 DE=-1.97D-04 OVMax= 3.31D-03

 Cycle   8  Pass 1  IDiag  1:
 RMSU=  4.72D-06    CP:  9.64D-01  1.50D+00  6.87D-01  6.25D-01  8.59D-01
                    CP:  8.69D-01  8.17D-01
 E= -4069.81173637328     Delta-E=       -0.000027281425 Rises=F Damp=F
 DIIS: error= 5.03D-05 at cycle   8 NSaved=   8.
 NSaved= 8 IEnMin= 8 EnMin= -4069.81173637328     IErMin= 8 ErrMin= 5.03D-05
 ErrMax= 5.03D-05  0.00D+00 EMaxC= 1.00D-01 BMatC= 4.90D-06 BMatP= 2.20D-05
 IDIUse=1 WtCom= 1.00D+00 WtEn= 0.00D+00
 Coeff-Com:  0.217D-02-0.431D-02-0.779D-02-0.122D-01-0.109D-01 0.335D-01
 Coeff-Com:  0.338D+00 0.661D+00
 Coeff:      0.217D-02-0.431D-02-0.779D-02-0.122D-01-0.109D-01 0.335D-01
 Coeff:      0.338D+00 0.661D+00
 Gap=     0.122 Goal=   None    Shift=    0.000
 RMSDP=3.31D-06 MaxDP=3.48D-04 DE=-2.73D-05 OVMax= 1.07D-03

 Cycle   9  Pass 1  IDiag  1:
 RMSU=  1.92D-06    CP:  9.64D-01  1.50D+00  6.88D-01  6.27D-01  8.76D-01
                    CP:  8.96D-01  1.01D+00  9.48D-01
 E= -4069.81174421105     Delta-E=       -0.000007837778 Rises=F Damp=F
 DIIS: error= 2.01D-05 at cycle   9 NSaved=   9.
 NSaved= 9 IEnMin= 9 EnMin= -4069.81174421105     IErMin= 9 ErrMin= 2.01D-05
 ErrMax= 2.01D-05  0.00D+00 EMaxC= 1.00D-01 BMatC= 7.08D-07 BMatP= 4.90D-06
 IDIUse=1 WtCom= 1.00D+00 WtEn= 0.00D+00
 Coeff-Com:  0.472D-03-0.786D-03-0.269D-02-0.604D-02-0.211D-01-0.391D-01
 Coeff-Com:  0.102D+00 0.328D+00 0.639D+00
 Coeff:      0.472D-03-0.786D-03-0.269D-02-0.604D-02-0.211D-01-0.391D-01
 Coeff:      0.102D+00 0.328D+00 0.639D+00
 Gap=     0.122 Goal=   None    Shift=    0.000
 RMSDP=1.43D-06 MaxDP=1.44D-04 DE=-7.84D-06 OVMax= 7.54D-04

 Cycle  10  Pass 1  IDiag  1:
 RMSU=  9.46D-07    CP:  9.64D-01  1.50D+00  6.88D-01  6.27D-01  8.80D-01
                    CP:  9.09D-01  1.06D+00  1.11D+00  1.06D+00
 E= -4069.81174583260     Delta-E=       -0.000001621542 Rises=F Damp=F
 DIIS: error= 1.04D-05 at cycle  10 NSaved=  10.
 NSaved=10 IEnMin=10 EnMin= -4069.81174583260     IErMin=10 ErrMin= 1.04D-05
 ErrMax= 1.04D-05  0.00D+00 EMaxC= 1.00D-01 BMatC= 1.74D-07 BMatP= 7.08D-07
 IDIUse=1 WtCom= 1.00D+00 WtEn= 0.00D+00
 Coeff-Com: -0.427D-03 0.896D-03 0.123D-02 0.110D-02-0.374D-02-0.311D-01
 Coeff-Com: -0.452D-01-0.759D-01 0.249D+00 0.904D+00
 Coeff:     -0.427D-03 0.896D-03 0.123D-02 0.110D-02-0.374D-02-0.311D-01
 Coeff:     -0.452D-01-0.759D-01 0.249D+00 0.904D+00
 Gap=     0.122 Goal=   None    Shift=    0.000
 RMSDP=1.23D-06 MaxDP=1.22D-04 DE=-1.62D-06 OVMax= 6.23D-04

 Cycle  11  Pass 1  IDiag  1:
 RMSU=  5.23D-07    CP:  9.64D-01  1.50D+00  6.88D-01  6.28D-01  8.82D-01
                    CP:  9.19D-01  1.11D+00  1.23D+00  1.39D+00  1.37D+00
 E= -4069.81174663314     Delta-E=       -0.000000800545 Rises=F Damp=F
 DIIS: error= 4.08D-06 at cycle  11 NSaved=  11.
 NSaved=11 IEnMin=11 EnMin= -4069.81174663314     IErMin=11 ErrMin= 4.08D-06
 ErrMax= 4.08D-06  0.00D+00 EMaxC= 1.00D-01 BMatC= 6.43D-08 BMatP= 1.74D-07
 IDIUse=1 WtCom= 1.00D+00 WtEn= 0.00D+00
 Coeff-Com: -0.332D-03 0.647D-03 0.134D-02 0.213D-02 0.442D-02-0.858D-02
 Coeff-Com: -0.427D-01-0.133D+00-0.269D-01 0.474D+00 0.729D+00
 Coeff:     -0.332D-03 0.647D-03 0.134D-02 0.213D-02 0.442D-02-0.858D-02
 Coeff:     -0.427D-01-0.133D+00-0.269D-01 0.474D+00 0.729D+00
 Gap=     0.122 Goal=   None    Shift=    0.000
 RMSDP=6.95D-07 MaxDP=6.16D-05 DE=-8.01D-07 OVMax= 3.83D-04

 Cycle  12  Pass 1  IDiag  1:
 RMSU=  2.67D-07    CP:  9.64D-01  1.50D+00  6.88D-01  6.28D-01  8.83D-01
                    CP:  9.21D-01  1.13D+00  1.29D+00  1.56D+00  1.76D+00
                    CP:  1.19D+00
 E= -4069.81174690274     Delta-E=       -0.000000269600 Rises=F Damp=F
 DIIS: error= 2.50D-06 at cycle  12 NSaved=  12.
 NSaved=12 IEnMin=12 EnMin= -4069.81174690274     IErMin=12 ErrMin= 2.50D-06
 ErrMax= 2.50D-06  0.00D+00 EMaxC= 1.00D-01 BMatC= 1.57D-08 BMatP= 6.43D-08
 IDIUse=1 WtCom= 1.00D+00 WtEn= 0.00D+00
 Coeff-Com: -0.611D-05-0.473D-05 0.203D-03 0.546D-03 0.341D-02 0.384D-02
 Coeff-Com:  0.222D-02-0.366D-01-0.696D-01-0.643D-01 0.256D+00 0.904D+00
 Coeff:     -0.611D-05-0.473D-05 0.203D-03 0.546D-03 0.341D-02 0.384D-02
 Coeff:      0.222D-02-0.366D-01-0.696D-01-0.643D-01 0.256D+00 0.904D+00
 Gap=     0.122 Goal=   None    Shift=    0.000
 RMSDP=4.38D-07 MaxDP=3.13D-05 DE=-2.70D-07 OVMax= 2.53D-04

 Cycle  13  Pass 1  IDiag  1:
 RMSU=  1.67D-07    CP:  9.64D-01  1.50D+00  6.88D-01  6.28D-01  8.83D-01
                    CP:  9.22D-01  1.14D+00  1.32D+00  1.67D+00  1.98D+00
                    CP:  1.60D+00  1.25D+00
 E= -4069.81174699650     Delta-E=       -0.000000093758 Rises=F Damp=F
 DIIS: error= 1.27D-06 at cycle  13 NSaved=  13.
 NSaved=13 IEnMin=13 EnMin= -4069.81174699650     IErMin=13 ErrMin= 1.27D-06
 ErrMax= 1.27D-06  0.00D+00 EMaxC= 1.00D-01 BMatC= 8.53D-09 BMatP= 1.57D-08
 IDIUse=1 WtCom= 1.00D+00 WtEn= 0.00D+00
 Coeff-Com:  0.120D-03-0.246D-03-0.368D-03-0.452D-03 0.633D-03 0.504D-02
 Coeff-Com:  0.194D-01 0.227D-01-0.338D-01-0.240D+00-0.156D+00 0.593D+00
 Coeff-Com:  0.791D+00
 Coeff:      0.120D-03-0.246D-03-0.368D-03-0.452D-03 0.633D-03 0.504D-02
 Coeff:      0.194D-01 0.227D-01-0.338D-01-0.240D+00-0.156D+00 0.593D+00
 Coeff:      0.791D+00
 Gap=     0.122 Goal=   None    Shift=    0.000
 RMSDP=3.47D-07 MaxDP=2.34D-05 DE=-9.38D-08 OVMax= 2.06D-04

 Cycle  14  Pass 1  IDiag  1:
 RMSU=  7.72D-08    CP:  9.64D-01  1.50D+00  6.88D-01  6.28D-01  8.83D-01
                    CP:  9.22D-01  1.14D+00  1.34D+00  1.75D+00  2.18D+00
                    CP:  1.87D+00  1.77D+00  1.10D+00
 E= -4069.81174703398     Delta-E=       -0.000000037482 Rises=F Damp=F
 DIIS: error= 6.98D-07 at cycle  14 NSaved=  14.
 NSaved=14 IEnMin=14 EnMin= -4069.81174703398     IErMin=14 ErrMin= 6.98D-07
 ErrMax= 6.98D-07  0.00D+00 EMaxC= 1.00D-01 BMatC= 1.31D-09 BMatP= 8.53D-09
 IDIUse=1 WtCom= 1.00D+00 WtEn= 0.00D+00
 Coeff-Com:  0.675D-04-0.133D-03-0.250D-03-0.391D-03-0.471D-03 0.129D-02
 Coeff-Com:  0.107D-01 0.195D-01 0.397D-02-0.101D+00-0.144D+00 0.900D-01
 Coeff-Com:  0.407D+00 0.714D+00
 Coeff:      0.675D-04-0.133D-03-0.250D-03-0.391D-03-0.471D-03 0.129D-02
 Coeff:      0.107D-01 0.195D-01 0.397D-02-0.101D+00-0.144D+00 0.900D-01
 Coeff:      0.407D+00 0.714D+00
 Gap=     0.122 Goal=   None    Shift=    0.000
 RMSDP=1.05D-07 MaxDP=6.93D-06 DE=-3.75D-08 OVMax= 5.72D-05

 Cycle  15  Pass 1  IDiag  1:
 RMSU=  3.86D-08    CP:  9.64D-01  1.50D+00  6.88D-01  6.28D-01  8.83D-01
                    CP:  9.22D-01  1.14D+00  1.35D+00  1.76D+00  2.22D+00
                    CP:  1.97D+00  1.91D+00  1.33D+00  1.03D+00
 E= -4069.81174703824     Delta-E=       -0.000000004256 Rises=F Damp=F
 DIIS: error= 3.21D-07 at cycle  15 NSaved=  15.
 NSaved=15 IEnMin=15 EnMin= -4069.81174703824     IErMin=15 ErrMin= 3.21D-07
 ErrMax= 3.21D-07  0.00D+00 EMaxC= 1.00D-01 BMatC= 2.26D-10 BMatP= 1.31D-09
 IDIUse=1 WtCom= 1.00D+00 WtEn= 0.00D+00
 Coeff-Com:  0.578D-05-0.975D-05-0.341D-04-0.840D-04-0.299D-03-0.512D-03
 Coeff-Com:  0.117D-02 0.266D-02 0.876D-02 0.104D-02-0.307D-01-0.725D-01
 Coeff-Com:  0.320D-01 0.294D+00 0.764D+00
 Coeff:      0.578D-05-0.975D-05-0.341D-04-0.840D-04-0.299D-03-0.512D-03
 Coeff:      0.117D-02 0.266D-02 0.876D-02 0.104D-02-0.307D-01-0.725D-01
 Coeff:      0.320D-01 0.294D+00 0.764D+00
 Gap=     0.122 Goal=   None    Shift=    0.000
 RMSDP=3.99D-08 MaxDP=2.68D-06 DE=-4.26D-09 OVMax= 2.78D-05

 Cycle  16  Pass 1  IDiag  1:
 RMSU=  1.88D-08    CP:  9.64D-01  1.50D+00  6.88D-01  6.28D-01  8.83D-01
                    CP:  9.22D-01  1.14D+00  1.35D+00  1.77D+00  2.24D+00
                    CP:  2.00D+00  1.97D+00  1.41D+00  1.24D+00  1.15D+00
 E= -4069.81174703902     Delta-E=       -0.000000000779 Rises=F Damp=F
 DIIS: error= 1.81D-07 at cycle  16 NSaved=  16.
 NSaved=16 IEnMin=16 EnMin= -4069.81174703902     IErMin=16 ErrMin= 1.81D-07
 ErrMax= 1.81D-07  0.00D+00 EMaxC= 1.00D-01 BMatC= 8.52D-11 BMatP= 2.26D-10
 IDIUse=1 WtCom= 1.00D+00 WtEn= 0.00D+00
 Coeff-Com: -0.141D-04 0.286D-04 0.465D-04 0.527D-04-0.301D-04-0.632D-03
 Coeff-Com: -0.192D-02-0.423D-02 0.442D-02 0.253D-01 0.208D-01-0.642D-01
 Coeff-Com: -0.810D-01-0.403D-01 0.400D+00 0.742D+00
 Coeff:     -0.141D-04 0.286D-04 0.465D-04 0.527D-04-0.301D-04-0.632D-03
 Coeff:     -0.192D-02-0.423D-02 0.442D-02 0.253D-01 0.208D-01-0.642D-01
 Coeff:     -0.810D-01-0.403D-01 0.400D+00 0.742D+00
 Gap=     0.122 Goal=   None    Shift=    0.000
 RMSDP=2.33D-08 MaxDP=1.64D-06 DE=-7.79D-10 OVMax= 1.25D-05

 Cycle  17  Pass 1  IDiag  1:
 RMSU=  1.04D-08    CP:  9.64D-01  1.50D+00  6.88D-01  6.28D-01  8.83D-01
                    CP:  9.22D-01  1.14D+00  1.35D+00  1.77D+00  2.24D+00
                    CP:  2.01D+00  2.00D+00  1.46D+00  1.34D+00  1.44D+00
                    CP:  1.25D+00
 E= -4069.81174703962     Delta-E=       -0.000000000604 Rises=F Damp=F
 DIIS: error= 9.29D-08 at cycle  17 NSaved=  17.
 NSaved=17 IEnMin=17 EnMin= -4069.81174703962     IErMin=17 ErrMin= 9.29D-08
 ErrMax= 9.29D-08  0.00D+00 EMaxC= 1.00D-01 BMatC= 1.80D-11 BMatP= 8.52D-11
 IDIUse=1 WtCom= 1.00D+00 WtEn= 0.00D+00
 Coeff-Com: -0.729D-05 0.142D-04 0.287D-04 0.426D-04 0.828D-04-0.127D-03
 Coeff-Com: -0.938D-03-0.282D-02 0.102D-03 0.933D-02 0.176D-01-0.750D-02
 Coeff-Com: -0.358D-01-0.102D+00-0.272D-01 0.289D+00 0.859D+00
 Coeff:     -0.729D-05 0.142D-04 0.287D-04 0.426D-04 0.828D-04-0.127D-03
 Coeff:     -0.938D-03-0.282D-02 0.102D-03 0.933D-02 0.176D-01-0.750D-02
 Coeff:     -0.358D-01-0.102D+00-0.272D-01 0.289D+00 0.859D+00
 Gap=     0.122 Goal=   None    Shift=    0.000
 RMSDP=1.36D-08 MaxDP=1.06D-06 DE=-6.04D-10 OVMax= 9.33D-06

 Cycle  18  Pass 1  IDiag  1:
 RMSU=  4.98D-09    CP:  9.64D-01  1.50D+00  6.88D-01  6.28D-01  8.83D-01
                    CP:  9.22D-01  1.14D+00  1.35D+00  1.77D+00  2.24D+00
                    CP:  2.01D+00  2.00D+00  1.47D+00  1.41D+00  1.61D+00
                    CP:  1.65D+00  1.38D+00
 E= -4069.81174703979     Delta-E=       -0.000000000171 Rises=F Damp=F
 DIIS: error= 6.02D-08 at cycle  18 NSaved=  18.
 NSaved=18 IEnMin=18 EnMin= -4069.81174703979     IErMin=18 ErrMin= 6.02D-08
 ErrMax= 6.02D-08  0.00D+00 EMaxC= 1.00D-01 BMatC= 7.38D-12 BMatP= 1.80D-11
 IDIUse=1 WtCom= 1.00D+00 WtEn= 0.00D+00
 Coeff-Com:  0.176D-05-0.384D-05-0.350D-05-0.227D-06 0.610D-04 0.174D-03
 Coeff-Com:  0.359D-03 0.136D-03-0.125D-02-0.571D-02 0.335D-03 0.190D-01
 Coeff-Com:  0.170D-01-0.342D-01-0.159D+00-0.184D+00 0.370D+00 0.977D+00
 Coeff:      0.176D-05-0.384D-05-0.350D-05-0.227D-06 0.610D-04 0.174D-03
 Coeff:      0.359D-03 0.136D-03-0.125D-02-0.571D-02 0.335D-03 0.190D-01
 Coeff:      0.170D-01-0.342D-01-0.159D+00-0.184D+00 0.370D+00 0.977D+00
 Gap=     0.122 Goal=   None    Shift=    0.000
 RMSDP=1.16D-08 MaxDP=7.83D-07 DE=-1.71D-10 OVMax= 6.23D-06

 Cycle  19  Pass 1  IDiag  1:
 RMSU=  2.92D-09    CP:  9.64D-01  1.50D+00  6.88D-01  6.28D-01  8.83D-01
                    CP:  9.22D-01  1.14D+00  1.35D+00  1.77D+00  2.24D+00
                    CP:  2.02D+00  2.01D+00  1.49D+00  1.45D+00  1.76D+00
                    CP:  1.97D+00  1.93D+00  1.33D+00
 E= -4069.81174703978     Delta-E=        0.000000000007 Rises=F Damp=F
 DIIS: error= 3.14D-08 at cycle  19 NSaved=  19.
 NSaved=19 IEnMin=18 EnMin= -4069.81174703979     IErMin=19 ErrMin= 3.14D-08
 ErrMax= 3.14D-08  0.00D+00 EMaxC= 1.00D-01 BMatC= 1.65D-12 BMatP= 7.38D-12
 IDIUse=1 WtCom= 1.00D+00 WtEn= 0.00D+00
 Coeff-Com:  0.294D-05-0.594D-05-0.992D-05-0.122D-04 0.137D-04 0.124D-03
 Coeff-Com:  0.477D-03 0.799D-03-0.612D-03-0.606D-02-0.480D-02 0.124D-01
 Coeff-Com:  0.206D-01 0.107D-01-0.734D-01-0.185D+00-0.204D-01 0.511D+00
 Coeff-Com:  0.734D+00
 Coeff:      0.294D-05-0.594D-05-0.992D-05-0.122D-04 0.137D-04 0.124D-03
 Coeff:      0.477D-03 0.799D-03-0.612D-03-0.606D-02-0.480D-02 0.124D-01
 Coeff:      0.206D-01 0.107D-01-0.734D-01-0.185D+00-0.204D-01 0.511D+00
 Coeff:      0.734D+00
 Gap=     0.122 Goal=   None    Shift=    0.000
 RMSDP=4.71D-09 MaxDP=3.40D-07 DE= 7.28D-12 OVMax= 3.38D-06

 SCF Done:  E(RCAM-B3LYP) =  -4069.81174704     A.U. after   19 cycles
            NFock= 19  Conv=0.47D-08     -V/T= 2.0102
 KE= 4.028802036793D+03 PE=-3.696124127274D+04 EE= 1.512247018981D+04
 Leave Link  502 at Sat Sep  4 14:29:28 2021, MaxMem= 23488102400 cpu:           11775.5 elap:             514.2
 (Enter /sw/apps/gaussian-16.0/g16/l801.exe)
 DoSCS=F DFT=T ScalE2(SS,OS)=  1.000000  1.000000
 ExpMin= 3.36D-02 ExpMax= 4.95D+03 ExpMxC= 7.45D+02 IAcc=3 IRadAn=         5 AccDes= 0.00D+00
 HarFok:  IExCor=  205 AccDes= 0.00D+00 IRadAn=         5 IDoV=-2 UseB2=F ITyADJ=14
 ICtDFT= 12500011 ScaDFX=  1.000000  1.000000  1.000000  1.000000
 GSVD:  LWork=       -9588 too small for GESVD, short by       45590 words or       45590 for optimal perf.
 Largest valence mixing into a core orbital is  2.03D-04
 Largest core mixing into a valence orbital is  5.24D-05
 Range of M.O.s used for correlation:    95  1572
 NBasis=  1572 NAE=   312 NBE=   312 NFC=    94 NFV=     0
 NROrb=   1478 NOA=   218 NOB=   218 NVA=  1260 NVB=  1260
 Leave Link  801 at Sat Sep  4 14:29:28 2021, MaxMem= 23488102400 cpu:               8.5 elap:               0.4
 (Enter /sw/apps/gaussian-16.0/g16/l914.exe)
 RHF ground state
 Two-electron integrals replicated using symmetry.
 MDV= 23488102400 DFT=T DoStab=F Mixed=T DoRPA=T DoScal=F NonHer=T
 Making orbital integer symmetry assigments:
 Orbital symmetries:
       Occupied  (A) (A) (A) (A) (A) (A) (A) (A) (A) (A) (A) (A)
                 (A) (A) (A) (A) (A) (A) (A) (A) (A) (A) (A) (A)
                 (A) (A) (A) (A) (A) (A) (A) (A) (A) (A) (A) (A)
                 (A) (A) (A) (A) (A) (A) (A) (A) (A) (A) (A) (A)
                 (A) (A) (A) (A) (A) (A) (A) (A) (A) (A) (A) (A)
                 (A) (A) (A) (A) (A) (A) (A) (A) (A) (A) (A) (A)
                 (A) (A) (A) (A) (A) (A) (A) (A) (A) (A) (A) (A)
                 (A) (A) (A) (A) (A) (A) (A) (A) (A) (A) (A) (A)
                 (A) (A) (A) (A) (A) (A) (A) (A) (A) (A) (A) (A)
                 (A) (A) (A) (A) (A) (A) (A) (A) (A) (A) (A) (A)
                 (A) (A) (A) (A) (A) (A) (A) (A) (A) (A) (A) (A)
                 (A) (A) (A) (A) (A) (A) (A) (A) (A) (A) (A) (A)
                 (A) (A) (A) (A) (A) (A) (A) (A) (A) (A) (A) (A)
                 (A) (A) (A) (A) (A) (A) (A) (A) (A) (A) (A) (A)
                 (A) (A) (A) (A) (A) (A) (A) (A) (A) (A) (A) (A)
                 (A) (A) (A) (A) (A) (A) (A) (A) (A) (A) (A) (A)
                 (A) (A) (A) (A) (A) (A) (A) (A) (A) (A) (A) (A)
                 (A) (A) (A) (A) (A) (A) (A) (A) (A) (A) (A) (A)
                 (A) (A) (A) (A) (A) (A) (A) (A) (A) (A) (A) (A)
                 (A) (A) (A) (A) (A) (A) (A) (A) (A) (A) (A) (A)
                 (A) (A) (A) (A) (A) (A) (A) (A) (A) (A) (A) (A)
                 (A) (A) (A) (A) (A) (A) (A) (A) (A) (A) (A) (A)
                 (A) (A) (A) (A) (A) (A) (A) (A) (A) (A) (A) (A)
                 (A) (A) (A) (A) (A) (A) (A) (A) (A) (A) (A) (A)
                 (A) (A) (A) (A) (A) (A) (A) (A) (A) (A) (A) (A)
                 (A) (A) (A) (A) (A) (A) (A) (A) (A) (A) (A) (A)
       Virtual   (A) (A) (A) (A) (A) (A) (A) (A) (A) (A) (A) (A)
                 (A) (A) (A) (A) (A) (A) (A) (A) (A) (A) (A) (A)
                 (A) (A) (A) (A) (A) (A) (A) (A) (A) (A) (A) (A)
                 (A) (A) (A) (A) (A) (A) (A) (A) (A) (A) (A) (A)
                 (A) (A) (A) (A) (A) (A) (A) (A) (A) (A) (A) (A)
                 (A) (A) (A) (A) (A) (A) (A) (A) (A) (A) (A) (A)
                 (A) (A) (A) (A) (A) (A) (A) (A) (A) (A) (A) (A)
                 (A) (A) (A) (A) (A) (A) (A) (A) (A) (A) (A) (A)
                 (A) (A) (A) (A) (A) (A) (A) (A) (A) (A) (A) (A)
                 (A) (A) (A) (A) (A) (A) (A) (A) (A) (A) (A) (A)
                 (A) (A) (A) (A) (A) (A) (A) (A) (A) (A) (A) (A)
                 (A) (A) (A) (A) (A) (A) (A) (A) (A) (A) (A) (A)
                 (A) (A) (A) (A) (A) (A) (A) (A) (A) (A) (A) (A)
                 (A) (A) (A) (A) (A) (A) (A) (A) (A) (A) (A) (A)
                 (A) (A) (A) (A) (A) (A) (A) (A) (A) (A) (A) (A)
                 (A) (A) (A) (A) (A) (A) (A) (A) (A) (A) (A) (A)
                 (A) (A) (A) (A) (A) (A) (A) (A) (A) (A) (A) (A)
                 (A) (A) (A) (A) (A) (A) (A) (A) (A) (A) (A) (A)
                 (A) (A) (A) (A) (A) (A) (A) (A) (A) (A) (A) (A)
                 (A) (A) (A) (A) (A) (A) (A) (A) (A) (A) (A) (A)
                 (A) (A) (A) (A) (A) (A) (A) (A) (A) (A) (A) (A)
                 (A) (A) (A) (A) (A) (A) (A) (A) (A) (A) (A) (A)
                 (A) (A) (A) (A) (A) (A) (A) (A) (A) (A) (A) (A)
                 (A) (A) (A) (A) (A) (A) (A) (A) (A) (A) (A) (A)
                 (A) (A) (A) (A) (A) (A) (A) (A) (A) (A) (A) (A)
                 (A) (A) (A) (A) (A) (A) (A) (A) (A) (A) (A) (A)
                 (A) (A) (A) (A) (A) (A) (A) (A) (A) (A) (A) (A)
                 (A) (A) (A) (A) (A) (A) (A) (A) (A) (A) (A) (A)
                 (A) (A) (A) (A) (A) (A) (A) (A) (A) (A) (A) (A)
                 (A) (A) (A) (A) (A) (A) (A) (A) (A) (A) (A) (A)
                 (A) (A) (A) (A) (A) (A) (A) (A) (A) (A) (A) (A)
                 (A) (A) (A) (A) (A) (A) (A) (A) (A) (A) (A) (A)
                 (A) (A) (A) (A) (A) (A) (A) (A) (A) (A) (A) (A)
                 (A) (A) (A) (A) (A) (A) (A) (A) (A) (A) (A) (A)
                 (A) (A) (A) (A) (A) (A) (A) (A) (A) (A) (A) (A)
                 (A) (A) (A) (A) (A) (A) (A) (A) (A) (A) (A) (A)
                 (A) (A) (A) (A) (A) (A) (A) (A) (A) (A) (A) (A)
                 (A) (A) (A) (A) (A) (A) (A) (A) (A) (A) (A) (A)
                 (A) (A) (A) (A) (A) (A) (A) (A) (A) (A) (A) (A)
                 (A) (A) (A) (A) (A) (A) (A) (A) (A) (A) (A) (A)
                 (A) (A) (A) (A) (A) (A) (A) (A) (A) (A) (A) (A)
                 (A) (A) (A) (A) (A) (A) (A) (A) (A) (A) (A) (A)
                 (A) (A) (A) (A) (A) (A) (A) (A) (A) (A) (A) (A)
                 (A) (A) (A) (A) (A) (A) (A) (A) (A) (A) (A) (A)
                 (A) (A) (A) (A) (A) (A) (A) (A) (A) (A) (A) (A)
                 (A) (A) (A) (A) (A) (A) (A) (A) (A) (A) (A) (A)
                 (A) (A) (A) (A) (A) (A) (A) (A) (A) (A) (A) (A)
                 (A) (A) (A) (A) (A) (A) (A) (A) (A) (A) (A) (A)
                 (A) (A) (A) (A) (A) (A) (A) (A) (A) (A) (A) (A)
                 (A) (A) (A) (A) (A) (A) (A) (A) (A) (A) (A) (A)
                 (A) (A) (A) (A) (A) (A) (A) (A) (A) (A) (A) (A)
                 (A) (A) (A) (A) (A) (A) (A) (A) (A) (A) (A) (A)
                 (A) (A) (A) (A) (A) (A) (A) (A) (A) (A) (A) (A)
                 (A) (A) (A) (A) (A) (A) (A) (A) (A) (A) (A) (A)
                 (A) (A) (A) (A) (A) (A) (A) (A) (A) (A) (A) (A)
                 (A) (A) (A) (A) (A) (A) (A) (A) (A) (A) (A) (A)
                 (A) (A) (A) (A) (A) (A) (A) (A) (A) (A) (A) (A)
                 (A) (A) (A) (A) (A) (A) (A) (A) (A) (A) (A) (A)
                 (A) (A) (A) (A) (A) (A) (A) (A) (A) (A) (A) (A)
                 (A) (A) (A) (A) (A) (A) (A) (A) (A) (A) (A) (A)
                 (A) (A) (A) (A) (A) (A) (A) (A) (A) (A) (A) (A)
                 (A) (A) (A) (A) (A) (A) (A) (A) (A) (A) (A) (A)
                 (A) (A) (A) (A) (A) (A) (A) (A) (A) (A) (A) (A)
                 (A) (A) (A) (A) (A) (A) (A) (A) (A) (A) (A) (A)
                 (A) (A) (A) (A) (A) (A) (A) (A) (A) (A) (A) (A)
                 (A) (A) (A) (A) (A) (A) (A) (A) (A) (A) (A) (A)
                 (A) (A) (A) (A) (A) (A) (A) (A) (A) (A) (A) (A)
                 (A) (A) (A) (A) (A) (A) (A) (A) (A) (A) (A) (A)
                 (A) (A) (A) (A) (A) (A) (A) (A) (A) (A) (A) (A)
                 (A) (A) (A) (A) (A) (A) (A) (A) (A) (A) (A) (A)
                 (A) (A) (A) (A) (A) (A) (A) (A) (A) (A) (A) (A)
                 (A) (A) (A) (A) (A) (A) (A) (A) (A) (A) (A) (A)
                 (A) (A) (A) (A) (A) (A) (A) (A) (A) (A) (A) (A)
                 (A) (A) (A) (A) (A) (A) (A) (A) (A) (A) (A) (A)
                 (A) (A) (A) (A) (A) (A) (A) (A) (A) (A) (A) (A)
                 (A) (A) (A) (A) (A) (A) (A) (A) (A) (A) (A) (A)
                 (A) (A) (A) (A) (A) (A) (A) (A) (A) (A) (A) (A)
                 (A) (A) (A) (A) (A) (A) (A) (A) (A) (A) (A) (A)
                 (A) (A) (A) (A) (A) (A) (A) (A) (A) (A) (A) (A)
                 (A) (A) (A) (A) (A) (A) (A) (A) (A) (A) (A) (A)
                 (A) (A) (A) (A) (A) (A) (A) (A) (A) (A) (A) (A)
                 (A) (A) (A) (A) (A) (A) (A) (A) (A) (A) (A) (A)
                 (A) (A) (A) (A) (A) (A) (A) (A) (A) (A) (A) (A)
                 (A) (A) (A) (A) (A) (A) (A) (A) (A) (A) (A) (A)
                 (A) (A) (A) (A) (A) (A) (A) (A) (A) (A) (A) (A)
                 (A) (A) (A) (A) (A) (A) (A) (A) (A) (A) (A) (A)
                 (A) (A) (A) (A) (A) (A) (A) (A) (A) (A) (A) (A)
                 (A) (A) (A) (A) (A) (A) (A) (A) (A) (A) (A) (A)
                 (A) (A) (A) (A) (A) (A) (A) (A) (A) (A) (A) (A)
                 (A) (A) (A) (A) (A) (A) (A) (A) (A) (A) (A) (A)
                 (A) (A) (A) (A) (A) (A) (A) (A) (A) (A) (A) (A)
                 (A) (A) (A) (A) (A) (A) (A) (A) (A) (A) (A) (A)
                 (A) (A) (A) (A) (A) (A) (A) (A) (A) (A) (A) (A)
                 (A) (A) (A) (A) (A) (A) (A) (A) (A) (A) (A) (A)
                 (A) (A) (A) (A) (A) (A) (A) (A) (A) (A) (A) (A)
                 (A) (A) (A) (A) (A) (A) (A) (A) (A) (A) (A) (A)
                 (A) (A) (A) (A) (A) (A) (A) (A) (A) (A) (A) (A)
                 (A) (A) (A) (A) (A) (A) (A) (A) (A) (A) (A) (A)
                 (A) (A) (A) (A) (A) (A) (A) (A) (A) (A) (A) (A)
                 (A) (A) (A) (A) (A) (A) (A) (A) (A) (A) (A) (A)
                 (A) (A) (A) (A) (A) (A) (A) (A) (A) (A) (A) (A)
                 (A) (A) (A) (A) (A) (A) (A) (A) (A) (A) (A) (A)
                 (A) (A) (A) (A) (A) (A) (A) (A) (A) (A) (A) (A)
                 (A) (A) (A) (A) (A) (A) (A) (A) (A) (A) (A) (A)
                 (A) (A) (A) (A) (A) (A) (A) (A) (A) (A) (A) (A)
    20 initial guesses have been made.
 Convergence on wavefunction:    0.001000000000000
 Davidson Disk Diagonalization:  ConvIn= 1.00D-03 SkipCon=T Conv= 1.00D-03.
 Max sub-space:  2000 roots to seek:    20 dimension of matrix:       549360
 Iteration     1 Dimension    20 NMult     0 NNew     20
 CISAX will form    20 AO SS matrices at one time.
 NMat=    20 NSing=    20 JSym2X= 0.
 FoFJK:  IHMeth= 1 ICntrl=       0 DoSepK=T KAlg= 0 I1Cent=           0 FoldK=F
 IRaf=         1 NMat=      40 IRICut=       1 DoRegI=T DoRafI=F ISym2E= 0 IDoP0=3 IntGTp=3.
 FoFCou: FMM=T IPFlag=           0 FMFlag=      100000 FMFlg1=        2001
         NFxFlg=           0 DoJE=F BraDBF=F KetDBF=F FulRan=T
         wScrn=  0.000000 ICntrl=       500 IOpCl=  0 I1Cent=           0 NGrid=           0
         NMat0=   20 NMatS0=     20 NMatT0=    0 NMatD0=   20 NMtDS0=    0 NMtDT0=    0
 Symmetry not used in FoFCou.
 FMM levels:  10  Number of levels for PrismC:   9
 New state      1 was old state      7
 New state      2 was old state      6
 New state      3 was old state      2
 New state      4 was old state      3
 New state      5 was old state      1
 Excitation Energies [eV] at current iteration:
 Root      1 :     2.613494753718260
 Root      2 :     2.620020942143439
 Root      3 :     2.669766120917877
 Root      4 :     2.700801136140093
 Root      5 :     2.764327332373952
 Root      6 :     2.825408552714089
 Root      7 :     3.555133196909362
 Root      8 :     3.626963770259623
 Root      9 :     3.627378336597724
 Root     10 :     3.668812852732493
 Root     11 :     3.737748724801296
 Root     12 :     3.759386631163559
 Root     13 :     4.292748487426167
 Root     14 :     4.316069392365376
 Root     15 :     4.672830052317507
 Root     16 :     4.759177416293642
 Root     17 :     4.976444208103099
 Root     18 :     5.011505178118004
 Root     19 :     5.051275966481280
 Root     20 :     5.085245021682437
 Iteration     2 Dimension    30 NMult    20 NNew     10
 CISAX will form    10 AO SS matrices at one time.
 NMat=    10 NSing=    10 JSym2X= 0.
 New state      1 was old state      3
 Root      1 not converged, maximum delta is    0.156842981264511
 New state      2 was old state      4
 Root      2 not converged, maximum delta is    0.160623455532229
 New state      3 was old state      2
 Root      3 not converged, maximum delta is    0.393586960876222
 New state      4 was old state      1
 Root      4 not converged, maximum delta is    0.385018492930319
 Root      5 has converged.
 Excitation Energies [eV] at current iteration:
 Root      1 :     1.796412363901953   Change is   -0.873353757015924
 Root      2 :     1.811803929811487   Change is   -0.888997206328606
 Root      3 :     2.234970720007380   Change is   -0.385050222136060
 Root      4 :     2.239770244124532   Change is   -0.373724509593728
 Root      5 :     2.764246306060912   Change is   -0.000081026313040
 Iteration     3 Dimension    38 NMult    30 NNew      8
 CISAX will form     8 AO SS matrices at one time.
 NMat=     8 NSing=     8 JSym2X= 0.
 Root      1 not converged, maximum delta is    0.056743675470517
 Root      2 not converged, maximum delta is    0.057750438505554
 Root      3 not converged, maximum delta is    0.100293614814771
 Root      4 not converged, maximum delta is    0.099868363167864
 Root      5 has converged.
 Excitation Energies [eV] at current iteration:
 Root      1 :     1.689439522242659   Change is   -0.106972841659293
 Root      2 :     1.703219904222065   Change is   -0.108584025589422
 Root      3 :     2.193524800367397   Change is   -0.041445919639982
 Root      4 :     2.200720720690778   Change is   -0.039049523433754
 Root      5 :     2.764246306060912   Change is    0.000000000000000
 Iteration     4 Dimension    46 NMult    38 NNew      8
 CISAX will form     8 AO SS matrices at one time.
 NMat=     8 NSing=     8 JSym2X= 0.
 Root      1 not converged, maximum delta is    0.010979987442610
 Root      2 not converged, maximum delta is    0.010990204150072
 Root      3 not converged, maximum delta is    0.011553612231562
 Root      4 not converged, maximum delta is    0.011450294203858
 Root      5 has converged.
 Excitation Energies [eV] at current iteration:
 Root      1 :     1.672704700811869   Change is   -0.016734821430791
 Root      2 :     1.686364289011707   Change is   -0.016855615210358
 Root      3 :     2.186210835580101   Change is   -0.007313964787296
 Root      4 :     2.193931688307623   Change is   -0.006789032383156
 Root      5 :     2.764246306060942   Change is    0.000000000000030
 Iteration     5 Dimension    54 NMult    46 NNew      8
 CISAX will form     8 AO SS matrices at one time.
 NMat=     8 NSing=     8 JSym2X= 0.
 Root      1 not converged, maximum delta is    0.001788637030531
 Root      2 not converged, maximum delta is    0.001819996225956
 Root      3 not converged, maximum delta is    0.002478008001833
 Root      4 not converged, maximum delta is    0.002328854541027
 Root      5 has converged.
 Excitation Energies [eV] at current iteration:
 Root      1 :     1.670940949834443   Change is   -0.001763750977426
 Root      2 :     1.684578564088879   Change is   -0.001785724922829
 Root      3 :     2.185360971117806   Change is   -0.000849864462295
 Root      4 :     2.193156976232969   Change is   -0.000774712074654
 Root      5 :     2.764246306060942   Change is    0.000000000000000
 Iteration     6 Dimension    62 NMult    54 NNew      8
 CISAX will form     8 AO SS matrices at one time.
 NMat=     8 NSing=     8 JSym2X= 0.
 Root      1 not converged, maximum delta is    0.001117048904912
 Root      2 not converged, maximum delta is    0.001130880404794
 Root      3 not converged, maximum delta is    0.001058804064274
 Root      4 has converged.
 Root      5 has converged.
 Excitation Energies [eV] at current iteration:
 Root      1 :     1.670689621355762   Change is   -0.000251328478681
 Root      2 :     1.684322087833051   Change is   -0.000256476255828
 Root      3 :     2.185232091043415   Change is   -0.000128880074391
 Root      4 :     2.193039010906165   Change is   -0.000117965326803
 Root      5 :     2.764246306060942   Change is    0.000000000000000
 Iteration     7 Dimension    68 NMult    62 NNew      6
 CISAX will form     6 AO SS matrices at one time.
 NMat=     6 NSing=     6 JSym2X= 0.
 Root      1 has converged.
 Root      2 has converged.
 Root      3 has converged.
 Root      4 has converged.
 Root      5 has converged.
 Excitation Energies [eV] at current iteration:
 Root      1 :     1.670665230679982   Change is   -0.000024390675780
 Root      2 :     1.684297681993105   Change is   -0.000024405839945
[...]
 Alpha virt. eigenvalues --    1.84448   1.84546   1.84807   1.84817   1.85098
 Alpha virt. eigenvalues --    1.85145   1.85271   1.85356   1.85487   1.85511
 Alpha virt. eigenvalues --    1.85865   1.85927   1.86360   1.86403   1.86554
 Alpha virt. eigenvalues --    1.86675   1.86781   1.86842   1.87033   1.87069
 Alpha virt. eigenvalues --    1.87439   1.87510   1.87673   1.87801   1.87865
 Alpha virt. eigenvalues --    1.88036   1.88036   1.88204   1.88531   1.88600
 Alpha virt. eigenvalues --    1.88813   1.88975   1.89102   1.89126   1.89625
 Alpha virt. eigenvalues --    1.89681   1.89745   1.89893   1.90114   1.90216
 Alpha virt. eigenvalues --    1.90746   1.90926   1.91342   1.91438   1.91448
 Alpha virt. eigenvalues --    1.91633   1.92150   1.92216   1.92605   1.92690
 Alpha virt. eigenvalues --    1.92981   1.93176   1.93340   1.93522   1.94280
 Alpha virt. eigenvalues --    1.94328   1.94688   1.94835   1.95479   1.95610
 Alpha virt. eigenvalues --    1.95717   1.95846   1.95983   1.96074   1.96152
 Alpha virt. eigenvalues --    1.96205   1.96508   1.96591   1.96894   1.96961
 Alpha virt. eigenvalues --    1.97447   1.97567   1.97832   1.97833   1.98161
 Alpha virt. eigenvalues --    1.98201   1.98384   1.98657   1.99098   1.99126
 Alpha virt. eigenvalues --    1.99808   1.99963   2.00659   2.00751   2.00988
 Alpha virt. eigenvalues --    2.01124   2.01460   2.01523   2.01636   2.01672
 Alpha virt. eigenvalues --    2.01708   2.01856   2.02736   2.02778   2.03162
 Alpha virt. eigenvalues --    2.03232   2.03395   2.03406   2.03472   2.03549
 Alpha virt. eigenvalues --    2.04028   2.04051   2.04956   2.04995   2.05512
 Alpha virt. eigenvalues --    2.05646   2.06076   2.06305   2.06889   2.07068
 Alpha virt. eigenvalues --    2.07182   2.07374   2.08558   2.08589   2.08975
 Alpha virt. eigenvalues --    2.09030   2.09578   2.09636   2.10783   2.11048
 Alpha virt. eigenvalues --    2.11179   2.11430   2.11519   2.11562   2.11721
 Alpha virt. eigenvalues --    2.11889   2.12454   2.12495   2.12801   2.12820
 Alpha virt. eigenvalues --    2.12830   2.12899   2.13668   2.13744   2.14141
 Alpha virt. eigenvalues --    2.14271   2.15331   2.15424   2.15917   2.16114
 Alpha virt. eigenvalues --    2.16522   2.16614   2.16753   2.17198   2.17411
 Alpha virt. eigenvalues --    2.17665   2.17701   2.17967   2.18021   2.18071
 Alpha virt. eigenvalues --    2.18312   2.18702   2.18852   2.19268   2.19630
 Alpha virt. eigenvalues --    2.19845   2.20026   2.20207   2.20268   2.20462
 Alpha virt. eigenvalues --    2.21155   2.21183   2.21666   2.21737   2.21787
 Alpha virt. eigenvalues --    2.21898   2.22675   2.22725   2.23313   2.23361
 Alpha virt. eigenvalues --    2.24393   2.24433   2.24963   2.25014   2.26286
 Alpha virt. eigenvalues --    2.26467   2.26775   2.27030   2.27091   2.27229
 Alpha virt. eigenvalues --    2.28127   2.28346   2.29263   2.29459   2.29724
 Alpha virt. eigenvalues --    2.29906   2.30439   2.30653   2.30858   2.31072
 Alpha virt. eigenvalues --    2.31164   2.31220   2.32119   2.32253   2.33123
 Alpha virt. eigenvalues --    2.33259   2.33454   2.33504   2.34135   2.34161
 Alpha virt. eigenvalues --    2.35329   2.35353   2.35785   2.35935   2.36350
 Alpha virt. eigenvalues --    2.36355   2.36458   2.36617   2.37661   2.37691
 Alpha virt. eigenvalues --    2.38257   2.38387   2.38809   2.38836   2.39602
 Alpha virt. eigenvalues --    2.39687   2.40177   2.40279   2.40470   2.40855
 Alpha virt. eigenvalues --    2.41237   2.41247   2.41683   2.41705   2.42024
 Alpha virt. eigenvalues --    2.42153   2.42828   2.42944   2.43101   2.43504
 Alpha virt. eigenvalues --    2.43989   2.44154   2.44722   2.44821   2.44893
 Alpha virt. eigenvalues --    2.45011   2.45544   2.45585   2.46296   2.46299
 Alpha virt. eigenvalues --    2.46471   2.46508   2.46789   2.46818   2.47250
 Alpha virt. eigenvalues --    2.47391   2.47707   2.47897   2.49308   2.49395
 Alpha virt. eigenvalues --    2.49897   2.50067   2.50459   2.50547   2.51103
 Alpha virt. eigenvalues --    2.51289   2.51617   2.51871   2.52415   2.52417
 Alpha virt. eigenvalues --    2.52796   2.53183   2.53912   2.53976   2.54149
 Alpha virt. eigenvalues --    2.54279   2.54783   2.54818   2.55515   2.55675
 Alpha virt. eigenvalues --    2.57857   2.58084   2.58638   2.58914   2.60189
 Alpha virt. eigenvalues --    2.60320   2.60593   2.60939   2.61704   2.61827
 Alpha virt. eigenvalues --    2.62439   2.62517   2.62946   2.63136   2.63922
 Alpha virt. eigenvalues --    2.64233   2.64244   2.64425   2.65070   2.65106
 Alpha virt. eigenvalues --    2.65766   2.65873   2.66773   2.66819   2.66900
 Alpha virt. eigenvalues --    2.67068   2.67901   2.67988   2.68819   2.68845
 Alpha virt. eigenvalues --    2.69007   2.69045   2.69384   2.69600   2.69988
 Alpha virt. eigenvalues --    2.70140   2.70968   2.71078   2.71899   2.72039
 Alpha virt. eigenvalues --    2.72502   2.72640   2.72749   2.72801   2.73273
 Alpha virt. eigenvalues --    2.73280   2.73482   2.73506   2.74501   2.74511
 Alpha virt. eigenvalues --    2.74963   2.75059   2.76520   2.76585   2.77071
 Alpha virt. eigenvalues --    2.77221   2.77446   2.77601   2.78185   2.78282
 Alpha virt. eigenvalues --    2.78688   2.78715   2.79123   2.79159   2.80249
 Alpha virt. eigenvalues --    2.80335   2.80568   2.80694   2.81108   2.81150
 Alpha virt. eigenvalues --    2.81921   2.81994   2.82334   2.82335   2.83739
 Alpha virt. eigenvalues --    2.83760   2.83833   2.83911   2.84519   2.84540
 Alpha virt. eigenvalues --    2.84878   2.84879   2.85660   2.85679   2.86655
 Alpha virt. eigenvalues --    2.86984   2.87181   2.87582   2.88148   2.88222
 Alpha virt. eigenvalues --    2.88502   2.88614   2.88864   2.88927   2.90480
 Alpha virt. eigenvalues --    2.90659   2.91063   2.91185   2.93139   2.93322
 Alpha virt. eigenvalues --    2.93766   2.94189   2.94554   2.94555   2.95340
 Alpha virt. eigenvalues --    2.95479   2.95851   2.96176   2.96363   2.96430
 Alpha virt. eigenvalues --    2.96878   2.97152   2.97790   2.98011   2.98195
 Alpha virt. eigenvalues --    2.98361   2.98364   2.98572   2.98596   2.98780
 Alpha virt. eigenvalues --    2.98877   2.98913   2.99582   2.99778   3.00011
 Alpha virt. eigenvalues --    3.00022   3.00204   3.00319   3.00444   3.00996
 Alpha virt. eigenvalues --    3.01895   3.01984   3.02021   3.02116   3.02708
 Alpha virt. eigenvalues --    3.02816   3.02957   3.03306   3.03319   3.03719
 Alpha virt. eigenvalues --    3.04053   3.04166   3.04422   3.04449   3.04540
 Alpha virt. eigenvalues --    3.04721   3.05295   3.05335   3.06101   3.06157
 Alpha virt. eigenvalues --    3.06780   3.06935   3.07901   3.08140   3.09337
 Alpha virt. eigenvalues --    3.09379   3.09672   3.10425   3.10435   3.10739
 Alpha virt. eigenvalues --    3.11330   3.11463   3.11878   3.11919   3.12179
 Alpha virt. eigenvalues --    3.12306   3.13263   3.13638   3.13646   3.13671
 Alpha virt. eigenvalues --    3.14067   3.14483   3.15923   3.15964   3.17258
 Alpha virt. eigenvalues --    3.17513   3.17853   3.18076   3.19015   3.19123
 Alpha virt. eigenvalues --    3.22282   3.22600   3.23940   3.24433   3.24665
 Alpha virt. eigenvalues --    3.25191   3.26498   3.26649   3.27388   3.27612
 Alpha virt. eigenvalues --    3.29076   3.29227   3.31371   3.31517   3.33175
 Alpha virt. eigenvalues --    3.33412   3.40270   3.40601   3.42797   3.42813
 Alpha virt. eigenvalues --    3.48654   3.48692   3.50015   3.50273   3.50828
 Alpha virt. eigenvalues --    3.51468   3.56546   3.56993   3.59097   3.59328
 Alpha virt. eigenvalues --    3.62507   3.62831   3.66087   3.66185   3.67161
 Alpha virt. eigenvalues --    3.67549   3.73252   3.74025   3.76042   3.76682
          Condensed to atoms (all electrons):
 Mulliken charges:
               1
     1  Mg   0.838571
     2  C   -0.003089
     3  C   -0.094287
     4  C   -0.045794
     5  C   -0.063837
     6  N   -0.256781
     7  C   -0.052519
     8  C   -0.014005
     9  C   -0.086984
    10  C    0.046250
    11  C    0.104805
    12  C    0.053547
    13  C   -0.071582
    14  H    0.035466
    15  N   -0.433134
    16  C    0.168366
    17  C   -0.177224
    18  C   -0.003966
    19  C    0.148657
    20  C    0.110188
    21  C    0.012289
    22  O   -0.249526
    23  C    0.062489
    24  N   -0.341092
    25  C    0.041230
    26  C   -0.028212
    27  C   -0.024005
    28  C    0.074830
    29  C    0.076142
    30  C    0.035099
    31  C   -0.004531
    32  N   -0.310499
    33  C    0.080392
    34  C   -0.169545
    35  C    0.008396
    36  C    0.082982
    37  C    0.127277
    38  C    0.046174
    39  O   -0.188290
    40  C   -0.005380
    41  C    0.212950
    42  O   -0.257325
    43  O   -0.304713
    44  C    0.157754
    45  H   -0.017639
    46  H   -0.016751
    47  H   -0.041287
    48  H    0.000977
    49  H   -0.004210
    50  H    0.025533
    51  H    0.016562
    52  H    0.016642
    53  H    0.011004
    54  H    0.043933
    55  H    0.018081
    56  H    0.017836
    57  H    0.005763
    58  H    0.026914
    59  H    0.039400
    60  H    0.037357
    61  H    0.035795
    62  H    0.031391
    63  H    0.016582
    64  H    0.009576
    65  H    0.023283
    66  H    0.012548
    67  H    0.004845
    68  H    0.006444
    69  H    0.004909
    70  H    0.008720
    71  H    0.018284
    72  H    0.028879
    73  H    0.047786
    74  H    0.009282
    75  H    0.046082
    76  H    0.035214
    77  H    0.043080
    78  H    0.046208
    79  H    0.053443
    80  Mg   0.837894
    81  C   -0.016739
    82  C   -0.087770
    83  C   -0.045594
    84  C   -0.064857
    85  N   -0.254590
    86  C   -0.049576
    87  C   -0.015137
    88  C   -0.090571
    89  C    0.045853
    90  C    0.114354
    91  C    0.062532
    92  C   -0.077825
    93  H    0.034669
    94  N   -0.423463
    95  C    0.162890
    96  C   -0.174757
    97  C   -0.007998
    98  C    0.152123
    99  C    0.099463
   100  C    0.015415
   101  O   -0.253359
   102  C    0.061262
   103  N   -0.350016
   104  C    0.037527
   105  C   -0.019815
   106  C   -0.034816
   107  C    0.088997
   108  C    0.073657
   109  C    0.034737
   110  C   -0.007632
   111  N   -0.324158
   112  C    0.078581
   113  C   -0.163067
   114  C    0.002447
   115  C    0.096206
   116  C    0.131444
   117  C    0.042543
   118  O   -0.187628
   119  C    0.000849
   120  C    0.211219
   121  O   -0.251254
   122  O   -0.305370
   123  C    0.152088
   124  H   -0.019779
   125  H   -0.015765
   126  H   -0.040517
   127  H   -0.000147
   128  H   -0.004605
   129  H    0.023353
   130  H    0.014470
   131  H    0.016370
   132  H    0.013705
   133  H    0.037591
   134  H    0.021121
   135  H    0.019380
   136  H    0.008679
   137  H    0.025762
   138  H    0.039548
   139  H    0.038020
   140  H    0.036144
   141  H    0.033845
   142  H    0.014223
   143  H    0.012492
   144  H    0.024947
   145  H    0.011741
   146  H    0.005780
   147  H    0.006148
   148  H    0.003610
   149  H    0.010839
   150  H    0.017802
   151  H    0.030162
   152  H    0.045945
   153  H    0.008343
   154  H    0.047332
   155  H    0.035806
   156  H    0.044079
   157  H    0.049442
   158  H    0.053375
 Sum of Mulliken charges =  -0.00000
 Mulliken charges with hydrogens summed into heavy atoms:
               1
     1  Mg   0.838571
     2  C   -0.003089
     3  C   -0.111926
     4  C   -0.062545
     5  C   -0.105123
     6  N   -0.256781
     7  C   -0.052519
     8  C   -0.013029
     9  C   -0.091194
    10  C    0.046250
    11  C    0.163542
    12  C    0.108485
    13  C   -0.000199
    15  N   -0.433134
    16  C    0.168366
    17  C   -0.177224
    18  C   -0.003966
    19  C    0.148657
    20  C    0.182265
    21  C    0.012289
    22  O   -0.249526
    23  C    0.167032
    24  N   -0.341092
    25  C    0.041230
    26  C   -0.011630
    27  C   -0.014429
    28  C    0.074830
    29  C    0.116819
    30  C    0.046452
    31  C    0.051353
    32  N   -0.310499
    33  C    0.080392
    34  C   -0.169545
    35  C    0.008396
    36  C    0.082982
    37  C    0.230426
    38  C    0.046174
    39  O   -0.188290
    40  C    0.029834
    41  C    0.212950
    42  O   -0.257325
    43  O   -0.304713
    44  C    0.300484
    80  Mg   0.837894
    81  C   -0.016739
    82  C   -0.107548
    83  C   -0.061359
    84  C   -0.105374
    85  N   -0.254590
    86  C   -0.049576
    87  C   -0.015284
    88  C   -0.095177
    89  C    0.045853
    90  C    0.168547
    91  C    0.113828
    92  C   -0.002654
    94  N   -0.423463
    95  C    0.162890
    96  C   -0.174757
    97  C   -0.007998
    98  C    0.152123
    99  C    0.173453
   100  C    0.015415
   101  O   -0.253359
   102  C    0.169272
   103  N   -0.350016
   104  C    0.037527
   105  C   -0.005592
   106  C   -0.022324
   107  C    0.088997
   108  C    0.116124
   109  C    0.044495
   110  C    0.051171
   111  N   -0.324158
   112  C    0.078581
   113  C   -0.163067
   114  C    0.002447
   115  C    0.096206
   116  C    0.233064
   117  C    0.042543
   118  O   -0.187628
   119  C    0.036655
   120  C    0.211219
   121  O   -0.251254
   122  O   -0.305370
   123  C    0.298984
 Electronic spatial extent (au):  <R**2>=         192765.3967
 Charge=             -0.0000 electrons
 Dipole moment (field-independent basis, Debye):
    X=             -4.3130    Y=             -2.2771    Z=             -7.2414  Tot=              8.7307
 Quadrupole moment (field-independent basis, Debye-Ang):
   XX=           -517.5186   YY=           -545.1523   ZZ=           -454.0328
   XY=              9.8757   XZ=             -2.6473   YZ=            -42.6687
 Traceless Quadrupole moment (field-independent basis, Debye-Ang):
   XX=            -11.9507   YY=            -39.5844   ZZ=             51.5351
   XY=              9.8757   XZ=             -2.6473   YZ=            -42.6687
 Octapole moment (field-independent basis, Debye-Ang**2):
  XXX=           -826.0443  YYY=            335.2117  ZZZ=           -106.1906  XYY=            196.2630
  XXY=           -144.4446  XXZ=           -509.8994  XZZ=           -196.6750  YZZ=           -146.5455
  YYZ=           -170.2369  XYZ=           -214.3679
 Hexadecapole moment (field-independent basis, Debye-Ang**3):
 XXXX=        -199595.6303 YYYY=         -41620.0640 ZZZZ=         -24828.8004 XXXY=           -234.9334
 XXXZ=            -14.6776 YYYX=           1984.0486 YYYZ=          -1178.8004 ZZZX=          -1142.6678
 ZZZY=            -93.6842 XXYY=         -41567.8868 XXZZ=         -33691.7888 YYZZ=         -10964.4960
 XXYZ=          -2571.0189 YYXZ=           1497.9379 ZZXY=           -584.8469
 N-N= 1.374015729910D+04 E-N=-3.696124126517D+04  KE= 4.028802036793D+03
 Leave Link  601 at Sat Sep  4 14:49:46 2021, MaxMem= 23488102400 cpu:              15.0 elap:               0.7
 (Enter /sw/apps/gaussian-16.0/g16/l9999.exe)
 1\1\GINC-BP1-COMPUTE00082\SP\RCAM-B3LYP TD-FC\def2SVP\C68H72Mg2N8O8\OF
 15641\04-Sep-2021\0\\#p cam-b3lyp/Def2SVP td=(nstates=5)\\TDDFT excite
 d states in gaussian\\0,1\Mg,0,0.,0.,0.\C,0,-0.217,-2.218,2.801\C,0,-1
 .255,2.442,2.026\C,0,-0.245,1.85,-2.564\C,0,0.146,-2.824,-2.037\N,0,-0
 .617,-0.009,2.126\C,0,-0.594,-0.908,3.105\C,0,-0.936,-0.309,4.502\C,0,
 -1.773,0.964,4.032\C,0,-1.155,1.168,2.66\C,0,-3.263,0.685,3.863\C,0,0.
 345,0.11,5.299\C,0,0.124,0.397,6.787\H,0,1.168,0.033,7.733\N,0,-0.185,
 1.961,-0.152\C,0,-0.703,2.8,0.777\C,0,-0.62,4.156,0.193\C,0,-0.187,4.0
 15,-1.225\C,0,-0.214,2.583,-1.38\C,0,-0.887,5.406,0.974\C,0,0.181,5.01
 3,-2.277\O,0,0.303,4.69,-3.508\C,0,0.31,6.414,-1.837\N,0,-0.265,-0.413
 ,-2.029\C,0,-0.279,0.569,-2.937\C,0,-0.196,0.024,-4.332\C,0,0.124,-1.5
 33,-4.18\C,0,0.086,-1.632,-2.635\C,0,-1.451,0.205,-5.197\C,0,1.373,-2.
 07,-4.923\C,0,2.626,-1.49,-4.306\N,0,0.15,-2.144,0.303\C,0,0.173,-3.13
 6,-0.688\C,0,0.173,-4.438,0.004\C,0,0.133,-4.111,1.358\C,0,0.083,-2.69
 5,1.502\C,0,0.149,-5.715,-0.623\C,0,0.096,-4.629,2.716\O,0,0.208,-5.74
 7,3.221\C,0,-0.255,-3.428,3.701\C,0,0.717,-3.482,4.848\O,0,1.931,-3.25
 5,4.669\O,0,0.038,-3.556,6.003\C,0,0.943,-3.583,7.183\H,0,-1.859,3.22,
 2.497\H,0,-0.218,2.453,-3.474\H,0,0.276,-3.747,-2.605\H,0,-1.554,-0.94
 9,5.132\H,0,-1.585,1.831,4.665\H,0,-3.484,-0.377,3.969\H,0,-3.511,1.02
 7,2.858\H,0,-3.852,1.301,4.543\H,0,0.669,1.096,4.966\H,0,1.13,-0.639,5
 .189\H,0,-0.844,0.026,7.125\H,0,0.062,1.477,6.921\H,0,-1.344,5.186,1.9
 38\H,0,-1.651,5.963,0.432\H,0,0.007,6.02,1.084\H,0,-0.635,6.744,-1.405
 \H,0,0.665,6.97,-2.704\H,0,1.048,6.466,-1.036\H,0,0.608,0.501,-4.891\H
 ,0,-0.692,-2.156,-4.547\H,0,-1.267,0.74,-6.129\H,0,-2.204,0.714,-4.596
 \H,0,-1.967,-0.72,-5.453\H,0,1.356,-1.759,-5.967\H,0,1.452,-3.157,-4.9
 02\H,0,2.714,-0.522,-4.798\H,0,3.487,-2.121,-4.529\H,0,2.495,-1.303,-3
 .24\H,0,0.867,-6.333,-0.084\H,0,0.404,-5.642,-1.68\H,0,-0.891,-5.999,-
 0.463\H,0,-1.283,-3.581,4.028\H,0,0.698,-4.478,7.755\H,0,0.833,-2.619,
 7.68\H,0,2.,-3.754,6.976\Mg,0,15.77284,1.42065,1.20589\C,0,15.75766,-1
 .88838,2.59481\C,0,14.56319,2.52122,4.19924\C,0,15.34857,4.26924,-0.12
 564\C,0,15.87625,-0.05448,-1.94989\N,0,15.26732,0.35764,3.07851\C,0,15
 .36094,-0.89113,3.50997\C,0,15.08699,-1.06957,5.02743\C,0,14.1862,0.23
 856,5.26462\C,0,14.72448,1.11412,4.13487\C,0,12.70504,0.00161,5.02098\
 C,0,16.40233,-1.02388,5.88171\C,0,16.24632,-1.49757,7.32844\H,0,17.353
 54,-2.22131,7.94709\N,0,15.53255,3.20529,2.0401\C,0,15.04988,3.46914,3
 .27245\C,0,15.05385,4.93463,3.40082\C,0,15.42325,5.51991,2.08336\C,0,1
 5.42896,4.32874,1.25803\C,0,14.80524,5.63803,4.70346\C,0,15.7098,6.921
 66,1.63707\O,0,15.77705,7.23253,0.39543\C,0,15.81674,7.93742,2.69456\N
 ,0,15.41896,2.02317,-0.75219\C,0,15.32588,3.32676,-1.06827\C,0,15.3465
 6,3.52803,-2.56475\C,0,15.71785,2.1015,-3.18501\C,0,15.76193,1.26506,-
 1.88738\C,0,14.04339,4.02948,-3.1866\C,0,16.94035,2.04665,-4.14164\C,0
 ,18.21107,2.32593,-3.37179\N,0,15.99652,-0.58443,0.43281\C,0,15.98658,
 -0.98227,-0.92207\C,0,16.05637,-2.45778,-0.94309\C,0,16.07902,-2.81999
 ,0.41219\C,0,16.00666,-1.65368,1.22089\C,0,16.04211,-3.27475,-2.10862\
 C,0,16.13699,-3.92435,1.34263\O,0,16.29653,-5.13992,1.23921\C,0,15.803
 94,-3.37749,2.79742\C,0,16.83526,-3.92375,3.74635\O,0,18.02814,-3.5867
 9,3.64574\O,0,16.21335,-4.57831,4.74392\C,0,17.19411,-5.12895,5.71692\
 H,0,13.97176,2.9389,5.01449\H,0,15.31271,5.23357,-0.63776\H,0,16.01145
 ,-0.58459,-2.89508\H,0,14.52572,-1.95942,5.28614\H,0,14.39433,0.69165,
 6.23041\H,0,12.51589,-0.98006,4.61269\H,0,12.39553,0.76797,4.32246\H,0
 ,12.13825,0.18351,5.93858\H,0,16.67994,0.02366,6.05589\H,0,17.18694,-1
 .57693,5.40301\H,0,15.30153,-2.03135,7.48778\H,0,16.1705,-0.61974,7.97
 473\H,0,14.39852,4.95417,5.45865\H,0,13.99988,6.35961,4.52859\H,0,15.6
 8516,6.17207,5.06842\H,0,14.89006,7.96609,3.2628\H,0,16.11259,8.85762,
 2.18703\H,0,16.60479,7.63395,3.39276\H,0,16.10861,4.24359,-2.84822\H,0
 ,14.8962,1.69521,-3.79301\H,0,14.16503,4.97057,-3.75548\H,0,13.31418,4
 .15392,-2.39711\H,0,13.54696,3.32377,-3.85048\H,0,16.86086,2.82665,-4.
 90285\H,0,17.04055,1.09922,-4.66061\H,0,18.24226,3.41899,-3.33521\H,0,
 19.07422,1.92384,-3.8984\H,0,18.13384,1.96365,-2.34007\H,0,16.79573,-4
 .03732,-1.96356\H,0,16.23426,-2.69044,-3.00608\H,0,15.01476,-3.647,-2.
 07332\H,0,14.79703,-3.71168,3.05045\H,0,16.99923,-6.2031,5.79381\H,0,1
 7.0716,-4.52763,6.63733\H,0,18.23971,-5.12356,5.43209\\Version=ES64L-G
 16RevA.03\State=1-A\HF=-4069.811747\RMSD=4.709e-09\PG=C01 [X(C68H72Mg2
 N8O8)]\\@


 NEVER TEACH A PIG TO SING.
 IT WASTES YOUR TIME AND ANNOYS THE PIG.
     -- SEEN ON A GREETING CARD
 Job cpu time:       0 days 11 hours 23 minutes 57.2 seconds.
 Elapsed time:       0 days  0 hours 29 minutes  5.1 seconds.
 File lengths (MBytes):  RWF=  13225 Int=      0 D2E=      0 Chk=    574 Scr=      1
 Normal termination of Gaussian 16 at Sat Sep  4 14:49:47 2021.
