 Entering Gaussian System, Link 0=g16
 Initial command:
 /sw/apps/gaussian-16.0/g16/l1.exe "/tmp/Gau-24586.inp" -scrdir="/tmp/"
 Entering Link 1 = /sw/apps/gaussian-16.0/g16/l1.exe PID=     24587.
  
 Copyright (c) 1988,1990,1992,1993,1995,1998,2003,2009,2016,
            Gaussian, Inc.  All Rights Reserved.
  
 This is part of the Gaussian(R) 16 program.  It is based on
 the Gaussian(R) 09 system (copyright 2009, Gaussian, Inc.),
 the Gaussian(R) 03 system (copyright 2003, Gaussian, Inc.),
 the Gaussian(R) 98 system (copyright 1998, Gaussian, Inc.),
 the Gaussian(R) 94 system (copyright 1995, Gaussian, Inc.),
 the Gaussian 92(TM) system (copyright 1992, Gaussian, Inc.),
 the Gaussian 90(TM) system (copyright 1990, Gaussian, Inc.),
 the Gaussian 88(TM) system (copyright 1988, Gaussian, Inc.),
 the Gaussian 86(TM) system (copyright 1986, Carnegie Mellon
 University), and the Gaussian 82(TM) system (copyright 1983,
 Carnegie Mellon University). Gaussian is a federally registered
 trademark of Gaussian, Inc.
  
 This software contains proprietary and confidential information,
 including trade secrets, belonging to Gaussian, Inc.
  
 This software is provided under written license and may be
 used, copied, transmitted, or stored only in accord with that
 written license.
  
 The following legend is applicable only to US Government
 contracts under FAR:
  
                    RESTRICTED RIGHTS LEGEND
  
 Use, reproduction and disclosure by the US Government is
 subject to restrictions as set forth in subparagraphs (a)
 and (c) of the Commercial Computer Software - Restricted
 Rights clause in FAR 52.227-19.
  
 Gaussian, Inc.
 340 Quinnipiac St., Bldg. 40, Wallingford CT 06492
  
  
 ---------------------------------------------------------------
 Warning -- This program may not be used in any manner that
 competes with the business of Gaussian, Inc. or will provide
 assistance to any competitor of Gaussian, Inc.  The licensee
 of this program is prohibited from giving any competitor of
 Gaussian, Inc. access to this program.  By using this program,
 the user acknowledges that Gaussian, Inc. is engaged in the
 business of creating and licensing software in the field of
 computational chemistry and represents and warrants to the
 licensee that it is not a competitor of Gaussian, Inc. and that
 it will not use this program in any manner prohibited above.
 ---------------------------------------------------------------
  

 Cite this work as:
 Gaussian 16, Revision A.03,
 M. J. Frisch, G. W. Trucks, H. B. Schlegel, G. E. Scuseria, 
 M. A. Robb, J. R. Cheeseman, G. Scalmani, V. Barone, 
 G. A. Petersson, H. Nakatsuji, X. Li, M. Caricato, A. V. Marenich, 
 J. Bloino, B. G. Janesko, R. Gomperts, B. Mennucci, H. P. Hratchian, 
 J. V. Ortiz, A. F. Izmaylov, J. L. Sonnenberg, D. Williams-Young, 
 F. Ding, F. Lipparini, F. Egidi, J. Goings, B. Peng, A. Petrone, 
 T. Henderson, D. Ranasinghe, V. G. Zakrzewski, J. Gao, N. Rega, 
 G. Zheng, W. Liang, M. Hada, M. Ehara, K. Toyota, R. Fukuda, 
 J. Hasegawa, M. Ishida, T. Nakajima, Y. Honda, O. Kitao, H. Nakai, 
 T. Vreven, K. Throssell, J. A. Montgomery, Jr., J. E. Peralta, 
 F. Ogliaro, M. J. Bearpark, J. J. Heyd, E. N. Brothers, K. N. Kudin, 
 V. N. Staroverov, T. A. Keith, R. Kobayashi, J. Normand, 
 K. Raghavachari, A. P. Rendell, J. C. Burant, S. S. Iyengar, 
 J. Tomasi, M. Cossi, J. M. Millam, M. Klene, C. Adamo, R. Cammi, 
 J. W. Ochterski, R. L. Martin, K. Morokuma, O. Farkas, 
 J. B. Foresman, and D. J. Fox, Gaussian, Inc., Wallingford CT, 2016.
 
 ******************************************
 Gaussian 16:  ES64L-G16RevA.03 25-Dec-2016
                10-Sep-2021 
 ******************************************
 %nproc=24
 Will use up to   24 processors via shared memory.
 %mem=175gb
 -----------------------------------
 #p cam-b3lyp/Def2SVP td=(nstates=5)
 -----------------------------------
 1/38=1,172=1/1;
 2/12=2,17=6,18=5,40=1/2;
 3/5=43,7=101,11=9,25=1,30=1,74=-40/1,2,3,8;
 4//1;
 5/5=2,38=5/2;
 8/6=1,10=1,108=5/1;
 9/41=5,42=1,70=2/14;
 6/7=2,8=2,9=2,10=2/1;
 99/5=1,9=1/99;
 Leave Link    1 at Fri Sep 10 12:19:51 2021, MaxMem= 23488102400 cpu:               0.6 elap:               0.0
 (Enter /sw/apps/gaussian-16.0/g16/l101.exe)
 --------------------------------
 TDDFT excited states in gaussian
 --------------------------------
 Symbolic Z-matrix:
 Charge =  0 Multiplicity = 1
 Mg                    0.        0.        0. 
 C                    -0.217    -2.218     2.801 
 C                    -1.255     2.442     2.026 
 C                    -0.245     1.85     -2.564 
 C                     0.146    -2.824    -2.037 
 N                    -0.617    -0.009     2.126 
 C                    -0.594    -0.908     3.105 
 C                    -0.936    -0.309     4.502 
 C                    -1.773     0.964     4.032 
 C                    -1.155     1.168     2.66 
 C                    -3.263     0.685     3.863 
 C                     0.345     0.11      5.299 
 C                     0.124     0.397     6.787 
 H                     1.168     0.033     7.733 
 N                    -0.185     1.961    -0.152 
 C                    -0.703     2.8       0.777 
 C                    -0.62      4.156     0.193 
 C                    -0.187     4.015    -1.225 
 C                    -0.214     2.583    -1.38 
 C                    -0.887     5.406     0.974 
 C                     0.181     5.013    -2.277 
 O                     0.303     4.69     -3.508 
 C                     0.31      6.414    -1.837 
 N                    -0.265    -0.413    -2.029 
 C                    -0.279     0.569    -2.937 
 C                    -0.196     0.024    -4.332 
 C                     0.124    -1.533    -4.18 
 C                     0.086    -1.632    -2.635 
 C                    -1.451     0.205    -5.197 
 C                     1.373    -2.07     -4.923 
 C                     2.626    -1.49     -4.306 
 N                     0.15     -2.144     0.303 
 C                     0.173    -3.136    -0.688 
 C                     0.173    -4.438     0.004 
 C                     0.133    -4.111     1.358 
 C                     0.083    -2.695     1.502 
 C                     0.149    -5.715    -0.623 
 C                     0.096    -4.629     2.716 
 O                     0.208    -5.747     3.221 
 C                    -0.255    -3.428     3.701 
 C                     0.717    -3.482     4.848 
 O                     1.931    -3.255     4.669 
 O                     0.038    -3.556     6.003 
 C                     0.943    -3.583     7.183 
 H                    -1.859     3.22      2.497 
 H                    -0.218     2.453    -3.474 
 H                     0.276    -3.747    -2.605 
 H                    -1.554    -0.949     5.132 
 H                    -1.585     1.831     4.665 
 H                    -3.484    -0.377     3.969 
 H                    -3.511     1.027     2.858 
 H                    -3.852     1.301     4.543 
 H                     0.669     1.096     4.966 
 H                     1.13     -0.639     5.189 
 H                    -0.844     0.026     7.125 
 H                     0.062     1.477     6.921 
 H                    -1.344     5.186     1.938 
 H                    -1.651     5.963     0.432 
 H                     0.007     6.02      1.084 
 H                    -0.635     6.744    -1.405 
 H                     0.665     6.97     -2.704 
 H                     1.048     6.466    -1.036 
 H                     0.608     0.501    -4.891 
 H                    -0.692    -2.156    -4.547 
 H                    -1.267     0.74     -6.129 
 H                    -2.204     0.714    -4.596 
 H                    -1.967    -0.72     -5.453 
 H                     1.356    -1.759    -5.967 
 H                     1.452    -3.157    -4.902 
 H                     2.714    -0.522    -4.798 
 H                     3.487    -2.121    -4.529 
 H                     2.495    -1.303    -3.24 
 H                     0.867    -6.333    -0.084 
 H                     0.404    -5.642    -1.68 
 H                    -0.891    -5.999    -0.463 
 H                    -1.283    -3.581     4.028 
 H                     0.698    -4.478     7.755 
 H                     0.833    -2.619     7.68 
 H                     2.       -3.754     6.976 
 Mg                    10.5052   0.94847   0.78975 
 C                     11.52485  -1.72451  -1.37694 
 C                     11.73591   3.11006  -1.54423 
 C                     10.03136   3.30206   2.86424 
 C                     10.41281  -1.37602   3.38473 
 N                     11.48005   0.61497  -1.16746 
 C                     11.75865  -0.44203  -1.91546 
 C                     12.24442  -0.10438  -3.35058 
 C                     12.80367   1.37522  -3.07327 
 C                     11.93194   1.74542  -1.87506 
 C                     14.25736   1.39603  -2.63091 
 C                     11.06997  -0.0889   -4.39099 
 C                     11.50946  -0.0722   -5.85671 
 H                     10.70322  -0.79917  -6.83342 
 N                     10.37883   2.908     0.50198 
 C                     10.91899   3.61828  -0.51046 
 C                     10.55694   5.02119  -0.25569 
 C                     9.89931   5.10136   1.07691 
 C                     10.10075   3.74723   1.55215 
 C                     10.76868   6.11232  -1.26466 
 C                     9.21507   6.21617   1.80848 
 O                     8.92624   6.12676   3.05404 
 C                     8.97731   7.45121   1.04713 
 N                     10.46261   1.00939   2.86745 
 C                     10.18301   2.15129   3.52 
 C                     9.93701   1.89465   4.98766 
 C                     9.87142   0.30408   5.14058 
 C                     10.19379  -0.10348   3.68615 
 C                     10.98758   2.45492   5.94619 
 C                     8.60006  -0.28681   5.80928 
 C                     7.3991   -0.06899   4.91729 
 N                     10.71079  -1.19508   0.96584 
 C                     10.66331  -1.96206   2.15056 
 C                     10.96966  -3.35836   1.77781 
 C                     11.19855  -3.30241   0.39471 
 C                     11.06549  -1.96225  -0.0589 
 C                     11.0552  -4.45945   2.67581 
 C                     11.53292  -4.07059  -0.78291 
 O                     11.67727  -5.26779  -1.02706 
 C                     11.88336  -3.06278  -1.961 
 C                     11.14338  -3.51119  -3.19139 
 O                     9.90072  -3.47899  -3.22845 
 O                     12.02367  -3.69655  -4.19194 
 C                     11.33616  -4.13127  -5.437 
 H                     12.29255   3.86412  -2.10139 
 H                     9.76033   4.058     3.6049 
 H                     10.30757  -2.17657   4.12007 
 H                     13.04006  -0.73907  -3.72193 
 H                     12.60135   2.03741  -3.91108 
 H                     14.64124   0.401    -2.46153 
 H                     14.27766   1.97052  -1.71407 
 H                     14.86236   1.95519  -3.35039 
 H                     10.55705   0.88001  -4.33758 
 H                     10.40171  -0.91109  -4.22347 
 H                     12.57097  -0.32307  -5.97163 
 H                     11.4342   0.95205  -6.2299 
 H                     11.42154   5.78289  -2.08238 
 H                     11.33756   6.90388  -0.76499 
 H                     9.83065   6.53127  -1.63513 
 H                     9.92598   7.84097   0.68577 
 H                     8.39963   8.09719   1.71111 
 H                     8.37972   7.20687   0.16181 
 H                     8.99012   2.31713   5.30072 
 H                     10.69257  -0.07954   5.76378 
 H                     10.56465   3.13919   6.70578 
 H                     11.74814   2.95723   5.3633 
 H                     11.56627   1.70698   6.48555 
 H                     8.38875   0.23331   6.74682 
 H                     8.68453  -1.34368   6.03928 
 H                     7.09505   0.95404   5.15825 
 H                     6.61139  -0.78115   5.15471 
 H                     7.68608  -0.08708   3.85948 
 H                     10.54294  -5.28703   2.20336 
 H                     10.61704  -4.21925   3.64229 
 H                     12.14032  -4.57876   2.7353 
 H                     12.96462  -3.08693  -2.10201 
 H                     11.80579  -5.06869  -5.75065 
 H                     11.40819  -3.27431  -6.13283 
 H                     10.29779  -4.43114  -5.35759 
 
 ITRead=  0  0  0  0  0  0  0  0  0  0  0  0  0  0  0  0  0  0  0  0
 ITRead=  0  0  0  0  0  0  0  0  0  0  0  0  0  0  0  0  0  0  0  0
 ITRead=  0  0  0  0  0  0  0  0  0  0  0  0  0  0  0  0  0  0  0  0
 ITRead=  0  0  0  0  0  0  0  0  0  0  0  0  0  0  0  0  0  0  0  0
 ITRead=  0  0  0  0  0  0  0  0  0  0  0  0  0  0  0  0  0  0  0  0
 ITRead=  0  0  0  0  0  0  0  0  0  0  0  0  0  0  0  0  0  0  0  0
 ITRead=  0  0  0  0  0  0  0  0  0  0  0  0  0  0  0  0  0  0  0  0
 ITRead=  0  0  0  0  0  0  0  0  0  0  0  0  0  0  0  0  0  0
 MicOpt= -1 -1 -1 -1 -1 -1 -1 -1 -1 -1 -1 -1 -1 -1 -1 -1 -1 -1 -1 -1
 MicOpt= -1 -1 -1 -1 -1 -1 -1 -1 -1 -1 -1 -1 -1 -1 -1 -1 -1 -1 -1 -1
 MicOpt= -1 -1 -1 -1 -1 -1 -1 -1 -1 -1 -1 -1 -1 -1 -1 -1 -1 -1 -1 -1
 MicOpt= -1 -1 -1 -1 -1 -1 -1 -1 -1 -1 -1 -1 -1 -1 -1 -1 -1 -1 -1 -1
 MicOpt= -1 -1 -1 -1 -1 -1 -1 -1 -1 -1 -1 -1 -1 -1 -1 -1 -1 -1 -1 -1
 MicOpt= -1 -1 -1 -1 -1 -1 -1 -1 -1 -1 -1 -1 -1 -1 -1 -1 -1 -1 -1 -1
 MicOpt= -1 -1 -1 -1 -1 -1 -1 -1 -1 -1 -1 -1 -1 -1 -1 -1 -1 -1 -1 -1
 MicOpt= -1 -1 -1 -1 -1 -1 -1 -1 -1 -1 -1 -1 -1 -1 -1 -1 -1 -1
 NAtoms=    158 NQM=      158 NQMF=       0 NMMI=      0 NMMIF=      0
                NMic=       0 NMicF=      0.
                    Isotopes and Nuclear Properties:
 (Nuclear quadrupole moments (NQMom) in fm**2, nuclear magnetic moments (NMagM)
  in nuclear magnetons)

  Atom         1           2           3           4           5           6           7           8           9          10
 IAtWgt=          24          12          12          12          12          14          12          12          12          12
 AtmWgt=  23.9850450  12.0000000  12.0000000  12.0000000  12.0000000  14.0030740  12.0000000  12.0000000  12.0000000  12.0000000
 NucSpn=           0           0           0           0           0           2           0           0           0           0
 AtZEff=  -0.0000000  -0.0000000  -0.0000000  -0.0000000  -0.0000000  -0.0000000  -0.0000000  -0.0000000  -0.0000000  -0.0000000
 NQMom=    0.0000000   0.0000000   0.0000000   0.0000000   0.0000000   2.0440000   0.0000000   0.0000000   0.0000000   0.0000000
 NMagM=    0.0000000   0.0000000   0.0000000   0.0000000   0.0000000   0.4037610   0.0000000   0.0000000   0.0000000   0.0000000
 AtZNuc=  12.0000000   6.0000000   6.0000000   6.0000000   6.0000000   7.0000000   6.0000000   6.0000000   6.0000000   6.0000000

  Atom        11          12          13          14          15          16          17          18          19          20
 IAtWgt=          12          12          12           1          14          12          12          12          12          12
 AtmWgt=  12.0000000  12.0000000  12.0000000   1.0078250  14.0030740  12.0000000  12.0000000  12.0000000  12.0000000  12.0000000
 NucSpn=           0           0           0           1           2           0           0           0           0           0
 AtZEff=  -0.0000000  -0.0000000  -0.0000000  -0.0000000  -0.0000000  -0.0000000  -0.0000000  -0.0000000  -0.0000000  -0.0000000
 NQMom=    0.0000000   0.0000000   0.0000000   0.0000000   2.0440000   0.0000000   0.0000000   0.0000000   0.0000000   0.0000000
 NMagM=    0.0000000   0.0000000   0.0000000   2.7928460   0.4037610   0.0000000   0.0000000   0.0000000   0.0000000   0.0000000
 AtZNuc=   6.0000000   6.0000000   6.0000000   1.0000000   7.0000000   6.0000000   6.0000000   6.0000000   6.0000000   6.0000000

  Atom        21          22          23          24          25          26          27          28          29          30
 IAtWgt=          12          16          12          14          12          12          12          12          12          12
 AtmWgt=  12.0000000  15.9949146  12.0000000  14.0030740  12.0000000  12.0000000  12.0000000  12.0000000  12.0000000  12.0000000
 NucSpn=           0           0           0           2           0           0           0           0           0           0
 AtZEff=  -0.0000000  -0.0000000  -0.0000000  -0.0000000  -0.0000000  -0.0000000  -0.0000000  -0.0000000  -0.0000000  -0.0000000
 NQMom=    0.0000000   0.0000000   0.0000000   2.0440000   0.0000000   0.0000000   0.0000000   0.0000000   0.0000000   0.0000000
 NMagM=    0.0000000   0.0000000   0.0000000   0.4037610   0.0000000   0.0000000   0.0000000   0.0000000   0.0000000   0.0000000
 AtZNuc=   6.0000000   8.0000000   6.0000000   7.0000000   6.0000000   6.0000000   6.0000000   6.0000000   6.0000000   6.0000000

  Atom        31          32          33          34          35          36          37          38          39          40
 IAtWgt=          12          14          12          12          12          12          12          12          16          12
 AtmWgt=  12.0000000  14.0030740  12.0000000  12.0000000  12.0000000  12.0000000  12.0000000  12.0000000  15.9949146  12.0000000
 NucSpn=           0           2           0           0           0           0           0           0           0           0
 AtZEff=  -0.0000000  -0.0000000  -0.0000000  -0.0000000  -0.0000000  -0.0000000  -0.0000000  -0.0000000  -0.0000000  -0.0000000
 NQMom=    0.0000000   2.0440000   0.0000000   0.0000000   0.0000000   0.0000000   0.0000000   0.0000000   0.0000000   0.0000000
 NMagM=    0.0000000   0.4037610   0.0000000   0.0000000   0.0000000   0.0000000   0.0000000   0.0000000   0.0000000   0.0000000
 AtZNuc=   6.0000000   7.0000000   6.0000000   6.0000000   6.0000000   6.0000000   6.0000000   6.0000000   8.0000000   6.0000000

  Atom        41          42          43          44          45          46          47          48          49          50
 IAtWgt=          12          16          16          12           1           1           1           1           1           1
 AtmWgt=  12.0000000  15.9949146  15.9949146  12.0000000   1.0078250   1.0078250   1.0078250   1.0078250   1.0078250   1.0078250
 NucSpn=           0           0           0           0           1           1           1           1           1           1
 AtZEff=  -0.0000000  -0.0000000  -0.0000000  -0.0000000  -0.0000000  -0.0000000  -0.0000000  -0.0000000  -0.0000000  -0.0000000
 NQMom=    0.0000000   0.0000000   0.0000000   0.0000000   0.0000000   0.0000000   0.0000000   0.0000000   0.0000000   0.0000000
 NMagM=    0.0000000   0.0000000   0.0000000   0.0000000   2.7928460   2.7928460   2.7928460   2.7928460   2.7928460   2.7928460
 AtZNuc=   6.0000000   8.0000000   8.0000000   6.0000000   1.0000000   1.0000000   1.0000000   1.0000000   1.0000000   1.0000000

  Atom        51          52          53          54          55          56          57          58          59          60
 IAtWgt=           1           1           1           1           1           1           1           1           1           1
 AtmWgt=   1.0078250   1.0078250   1.0078250   1.0078250   1.0078250   1.0078250   1.0078250   1.0078250   1.0078250   1.0078250
 NucSpn=           1           1           1           1           1           1           1           1           1           1
 AtZEff=  -0.0000000  -0.0000000  -0.0000000  -0.0000000  -0.0000000  -0.0000000  -0.0000000  -0.0000000  -0.0000000  -0.0000000
 NQMom=    0.0000000   0.0000000   0.0000000   0.0000000   0.0000000   0.0000000   0.0000000   0.0000000   0.0000000   0.0000000
 NMagM=    2.7928460   2.7928460   2.7928460   2.7928460   2.7928460   2.7928460   2.7928460   2.7928460   2.7928460   2.7928460
 AtZNuc=   1.0000000   1.0000000   1.0000000   1.0000000   1.0000000   1.0000000   1.0000000   1.0000000   1.0000000   1.0000000

  Atom        61          62          63          64          65          66          67          68          69          70
 IAtWgt=           1           1           1           1           1           1           1           1           1           1
 AtmWgt=   1.0078250   1.0078250   1.0078250   1.0078250   1.0078250   1.0078250   1.0078250   1.0078250   1.0078250   1.0078250
 NucSpn=           1           1           1           1           1           1           1           1           1           1
 AtZEff=  -0.0000000  -0.0000000  -0.0000000  -0.0000000  -0.0000000  -0.0000000  -0.0000000  -0.0000000  -0.0000000  -0.0000000
 NQMom=    0.0000000   0.0000000   0.0000000   0.0000000   0.0000000   0.0000000   0.0000000   0.0000000   0.0000000   0.0000000
 NMagM=    2.7928460   2.7928460   2.7928460   2.7928460   2.7928460   2.7928460   2.7928460   2.7928460   2.7928460   2.7928460
 AtZNuc=   1.0000000   1.0000000   1.0000000   1.0000000   1.0000000   1.0000000   1.0000000   1.0000000   1.0000000   1.0000000

  Atom        71          72          73          74          75          76          77          78          79          80
 IAtWgt=           1           1           1           1           1           1           1           1           1          24
 AtmWgt=   1.0078250   1.0078250   1.0078250   1.0078250   1.0078250   1.0078250   1.0078250   1.0078250   1.0078250  23.9850450
 NucSpn=           1           1           1           1           1           1           1           1           1           0
 AtZEff=  -0.0000000  -0.0000000  -0.0000000  -0.0000000  -0.0000000  -0.0000000  -0.0000000  -0.0000000  -0.0000000  -0.0000000
 NQMom=    0.0000000   0.0000000   0.0000000   0.0000000   0.0000000   0.0000000   0.0000000   0.0000000   0.0000000   0.0000000
 NMagM=    2.7928460   2.7928460   2.7928460   2.7928460   2.7928460   2.7928460   2.7928460   2.7928460   2.7928460   0.0000000
 AtZNuc=   1.0000000   1.0000000   1.0000000   1.0000000   1.0000000   1.0000000   1.0000000   1.0000000   1.0000000  12.0000000

  Atom        81          82          83          84          85          86          87          88          89          90
 IAtWgt=          12          12          12          12          14          12          12          12          12          12
 AtmWgt=  12.0000000  12.0000000  12.0000000  12.0000000  14.0030740  12.0000000  12.0000000  12.0000000  12.0000000  12.0000000
 NucSpn=           0           0           0           0           2           0           0           0           0           0
 AtZEff=  -0.0000000  -0.0000000  -0.0000000  -0.0000000  -0.0000000  -0.0000000  -0.0000000  -0.0000000  -0.0000000  -0.0000000
 NQMom=    0.0000000   0.0000000   0.0000000   0.0000000   2.0440000   0.0000000   0.0000000   0.0000000   0.0000000   0.0000000
 NMagM=    0.0000000   0.0000000   0.0000000   0.0000000   0.4037610   0.0000000   0.0000000   0.0000000   0.0000000   0.0000000
 AtZNuc=   6.0000000   6.0000000   6.0000000   6.0000000   7.0000000   6.0000000   6.0000000   6.0000000   6.0000000   6.0000000

  Atom        91          92          93          94          95          96          97          98          99         100
 IAtWgt=          12          12           1          14          12          12          12          12          12          12
 AtmWgt=  12.0000000  12.0000000   1.0078250  14.0030740  12.0000000  12.0000000  12.0000000  12.0000000  12.0000000  12.0000000
 NucSpn=           0           0           1           2           0           0           0           0           0           0
 AtZEff=  -0.0000000  -0.0000000  -0.0000000  -0.0000000  -0.0000000  -0.0000000  -0.0000000  -0.0000000  -0.0000000  -0.0000000
 NQMom=    0.0000000   0.0000000   0.0000000   2.0440000   0.0000000   0.0000000   0.0000000   0.0000000   0.0000000   0.0000000
 NMagM=    0.0000000   0.0000000   2.7928460   0.4037610   0.0000000   0.0000000   0.0000000   0.0000000   0.0000000   0.0000000
 AtZNuc=   6.0000000   6.0000000   1.0000000   7.0000000   6.0000000   6.0000000   6.0000000   6.0000000   6.0000000   6.0000000

  Atom       101         102         103         104         105         106         107         108         109         110
 IAtWgt=          16          12          14          12          12          12          12          12          12          12
 AtmWgt=  15.9949146  12.0000000  14.0030740  12.0000000  12.0000000  12.0000000  12.0000000  12.0000000  12.0000000  12.0000000
 NucSpn=           0           0           2           0           0           0           0           0           0           0
 AtZEff=  -0.0000000  -0.0000000  -0.0000000  -0.0000000  -0.0000000  -0.0000000  -0.0000000  -0.0000000  -0.0000000  -0.0000000
 NQMom=    0.0000000   0.0000000   2.0440000   0.0000000   0.0000000   0.0000000   0.0000000   0.0000000   0.0000000   0.0000000
 NMagM=    0.0000000   0.0000000   0.4037610   0.0000000   0.0000000   0.0000000   0.0000000   0.0000000   0.0000000   0.0000000
 AtZNuc=   8.0000000   6.0000000   7.0000000   6.0000000   6.0000000   6.0000000   6.0000000   6.0000000   6.0000000   6.0000000

  Atom       111         112         113         114         115         116         117         118         119         120
 IAtWgt=          14          12          12          12          12          12          12          16          12          12
 AtmWgt=  14.0030740  12.0000000  12.0000000  12.0000000  12.0000000  12.0000000  12.0000000  15.9949146  12.0000000  12.0000000
 NucSpn=           2           0           0           0           0           0           0           0           0           0
 AtZEff=  -0.0000000  -0.0000000  -0.0000000  -0.0000000  -0.0000000  -0.0000000  -0.0000000  -0.0000000  -0.0000000  -0.0000000
 NQMom=    2.0440000   0.0000000   0.0000000   0.0000000   0.0000000   0.0000000   0.0000000   0.0000000   0.0000000   0.0000000
 NMagM=    0.4037610   0.0000000   0.0000000   0.0000000   0.0000000   0.0000000   0.0000000   0.0000000   0.0000000   0.0000000
 AtZNuc=   7.0000000   6.0000000   6.0000000   6.0000000   6.0000000   6.0000000   6.0000000   8.0000000   6.0000000   6.0000000

  Atom       121         122         123         124         125         126         127         128         129         130
 IAtWgt=          16          16          12           1           1           1           1           1           1           1
 AtmWgt=  15.9949146  15.9949146  12.0000000   1.0078250   1.0078250   1.0078250   1.0078250   1.0078250   1.0078250   1.0078250
 NucSpn=           0           0           0           1           1           1           1           1           1           1
 AtZEff=  -0.0000000  -0.0000000  -0.0000000  -0.0000000  -0.0000000  -0.0000000  -0.0000000  -0.0000000  -0.0000000  -0.0000000
 NQMom=    0.0000000   0.0000000   0.0000000   0.0000000   0.0000000   0.0000000   0.0000000   0.0000000   0.0000000   0.0000000
 NMagM=    0.0000000   0.0000000   0.0000000   2.7928460   2.7928460   2.7928460   2.7928460   2.7928460   2.7928460   2.7928460
 AtZNuc=   8.0000000   8.0000000   6.0000000   1.0000000   1.0000000   1.0000000   1.0000000   1.0000000   1.0000000   1.0000000

  Atom       131         132         133         134         135         136         137         138         139         140
 IAtWgt=           1           1           1           1           1           1           1           1           1           1
 AtmWgt=   1.0078250   1.0078250   1.0078250   1.0078250   1.0078250   1.0078250   1.0078250   1.0078250   1.0078250   1.0078250
 NucSpn=           1           1           1           1           1           1           1           1           1           1
 AtZEff=  -0.0000000  -0.0000000  -0.0000000  -0.0000000  -0.0000000  -0.0000000  -0.0000000  -0.0000000  -0.0000000  -0.0000000
 NQMom=    0.0000000   0.0000000   0.0000000   0.0000000   0.0000000   0.0000000   0.0000000   0.0000000   0.0000000   0.0000000
 NMagM=    2.7928460   2.7928460   2.7928460   2.7928460   2.7928460   2.7928460   2.7928460   2.7928460   2.7928460   2.7928460
 AtZNuc=   1.0000000   1.0000000   1.0000000   1.0000000   1.0000000   1.0000000   1.0000000   1.0000000   1.0000000   1.0000000

  Atom       141         142         143         144         145         146         147         148         149         150
 IAtWgt=           1           1           1           1           1           1           1           1           1           1
 AtmWgt=   1.0078250   1.0078250   1.0078250   1.0078250   1.0078250   1.0078250   1.0078250   1.0078250   1.0078250   1.0078250
 NucSpn=           1           1           1           1           1           1           1           1           1           1
 AtZEff=  -0.0000000  -0.0000000  -0.0000000  -0.0000000  -0.0000000  -0.0000000  -0.0000000  -0.0000000  -0.0000000  -0.0000000
 NQMom=    0.0000000   0.0000000   0.0000000   0.0000000   0.0000000   0.0000000   0.0000000   0.0000000   0.0000000   0.0000000
 NMagM=    2.7928460   2.7928460   2.7928460   2.7928460   2.7928460   2.7928460   2.7928460   2.7928460   2.7928460   2.7928460
 AtZNuc=   1.0000000   1.0000000   1.0000000   1.0000000   1.0000000   1.0000000   1.0000000   1.0000000   1.0000000   1.0000000

  Atom       151         152         153         154         155         156         157         158
 IAtWgt=           1           1           1           1           1           1           1           1
 AtmWgt=   1.0078250   1.0078250   1.0078250   1.0078250   1.0078250   1.0078250   1.0078250   1.0078250
 NucSpn=           1           1           1           1           1           1           1           1
 AtZEff=  -0.0000000  -0.0000000  -0.0000000  -0.0000000  -0.0000000  -0.0000000  -0.0000000  -0.0000000
 NQMom=    0.0000000   0.0000000   0.0000000   0.0000000   0.0000000   0.0000000   0.0000000   0.0000000
 NMagM=    2.7928460   2.7928460   2.7928460   2.7928460   2.7928460   2.7928460   2.7928460   2.7928460
 AtZNuc=   1.0000000   1.0000000   1.0000000   1.0000000   1.0000000   1.0000000   1.0000000   1.0000000
 Leave Link  101 at Fri Sep 10 12:19:51 2021, MaxMem= 23488102400 cpu:               3.6 elap:               0.2
 (Enter /sw/apps/gaussian-16.0/g16/l202.exe)
 Stoichiometry    C68H72Mg2N8O8
 Framework group  C1[X(C68H72Mg2N8O8)]
 Deg. of freedom   468
 Full point group                 C1      NOp   1
 Largest Abelian subgroup         C1      NOp   1
 Largest concise Abelian subgroup C1      NOp   1
                         Standard orientation:                         
 ---------------------------------------------------------------------
 Center     Atomic      Atomic             Coordinates (Angstroms)
 Number     Number       Type             X           Y           Z
 ---------------------------------------------------------------------
      1         12           0        5.222685   -1.162201    0.260312
      2          6           0        5.932222    1.580497   -1.927466
      3          6           0        6.597475    0.684560    2.778743
      4          6           0        5.022242   -3.732085    2.107510
      5          6           0        4.965159   -3.167836   -2.578133
      6          7           0        6.115691    0.863104    0.296717
      7          6           0        6.272753    1.834578   -0.597005
      8          6           0        6.763131    3.175119    0.027378
      9          6           0        7.458304    2.600929    1.342307
     10          6           0        6.653446    1.323503    1.504517
     11          6           0        8.925926    2.235116    1.145412
     12          6           0        5.577826    4.135942    0.378946
     13          6           0        5.977882    5.582068    0.685587
     14          1           0        5.090422    6.657455    0.269287
     15          7           0        5.276535   -1.333221    2.227722
     16          6           0        5.865676   -0.479383    3.099020
     17          6           0        5.630676   -1.044311    4.445241
     18          6           0        5.021985   -2.392614    4.272995
     19          6           0        5.107799   -2.552881    2.843895
     20          6           0        5.928940   -0.302981    5.712213
     21          6           0        4.462800   -3.384349    5.243513
     22          8           0        4.196797   -4.588961    4.907768
     23          6           0        4.315563   -2.928134    6.637512
     24          7           0        5.238847   -3.209299   -0.148054
     25          6           0        5.077677   -4.109031    0.828415
     26          6           0        4.840869   -5.481841    0.272310
     27          6           0        4.630952   -5.292046   -1.299207
     28          6           0        4.878938   -3.765965   -1.387807
     29          6           0        5.958055   -6.505333    0.518013
     30          6           0        3.326275   -5.863887   -1.908498
     31          6           0        2.135855   -5.084843   -1.395577
     32          7           0        5.233674   -0.846552   -1.887079
     33          6           0        5.134677   -1.827851   -2.884037
     34          6           0        5.298857   -1.144749   -4.180373
     35          6           0        5.499800    0.192664   -3.844529
     36          6           0        5.489617    0.331777   -2.427195
     37          6           0        5.310492   -1.772113   -5.457367
     38          6           0        5.745305    1.532638   -4.352520
     39          8           0        5.763618    2.045648   -5.472332
     40          6           0        6.156473    2.464913   -3.128742
     41          6           0        5.349676    3.730630   -3.230475
     42          8           0        4.111931    3.714786   -3.072039
     43          8           0        6.178894    4.785158   -3.260650
     44          6           0        5.441275    6.074749   -3.331538
     45          1           0        7.214382    1.072907    3.591487
     46          1           0        4.841313   -4.629167    2.703284
     47          1           0        4.812528   -3.715531   -3.509898
     48          1           0        7.493847    3.716177   -0.574066
     49          1           0        7.307973    3.255125    2.200881
     50          1           0        9.217754    2.308588    0.097863
     51          1           0        9.019059    1.206828    1.495329
     52          1           0        9.564714    2.832260    1.796677
     53          1           0        5.158194    3.850984    1.343709
     54          1           0        4.828057    4.129481   -0.412970
     55          1           0        7.001277    5.787841    0.370582
     56          1           0        5.996937    5.708960    1.768055
     57          1           0        6.521258    0.591383    5.522957
     58          1           0        6.582147   -0.940376    6.307828
     59          1           0        5.024667   -0.074017    6.276303
     60          1           0        5.289672   -2.624646    7.021640
     61          1           0        3.818359   -3.739174    7.168411
     62          1           0        3.688557   -2.036181    6.652758
     63          1           0        3.944568   -5.928195    0.701074
     64          1           0        5.424457   -5.765406   -1.877959
     65          1           0        5.622623   -7.403533    1.037077
     66          1           0        6.754614   -6.008480    1.071115
     67          1           0        6.486195   -6.829512   -0.378310
     68          1           0        3.187361   -6.900245   -1.602539
     69          1           0        3.311340   -5.834909   -2.998080
     70          1           0        1.929687   -5.558750   -0.436546
     71          1           0        1.289328   -5.192969   -2.074483
     72          1           0        2.396449   -4.045256   -1.195991
     73          1           0        4.705801   -1.143925   -6.111354
     74          1           0        4.913918   -2.785771   -5.404179
     75          1           0        6.376696   -1.752134   -5.682456
     76          1           0        7.225660    2.652287   -3.222819
     77          1           0        5.809359    6.607271   -4.208561
     78          1           0        5.562418    6.554814   -2.360318
     79          1           0        4.377322    6.009471   -3.561933
     80         12           0       -5.121365    1.016547    0.629366
     81          6           0       -6.269060   -1.001382   -2.107387
     82          6           0       -6.769010   -1.128872    2.707111
     83          6           0       -4.508270    3.014834    3.016494
     84          6           0       -4.556539    3.571355   -1.672728
     85          7           0       -6.327070   -0.794708    0.232052
     86          6           0       -6.643172   -1.501379   -0.842688
     87          6           0       -7.332978   -2.858627   -0.540040
     88          6           0       -7.931939   -2.506405    0.907738
     89          6           0       -6.930971   -1.433675    1.331982
     90          6           0       -9.313019   -1.875020    0.850296
     91          6           0       -6.309558   -4.045642   -0.464989
     92          6           0       -6.939771   -5.440045   -0.480390
     93          1           0       -6.230993   -6.516649   -1.166705
     94          7           0       -5.143458    0.718734    2.591344
     95          6           0       -5.851765   -0.211560    3.265257
     96          6           0       -5.537724   -0.004092    4.687396
     97          6           0       -4.714679    1.229630    4.810904
     98          6           0       -4.775689    1.724507    3.450215
     99          6           0       -5.941747   -0.973713    5.759786
    100          6           0       -4.002547    1.866314    5.965755
    101          8           0       -3.546578    3.062341    5.899051
    102          6           0       -3.936910    1.082784    7.208043
    103          7           0       -4.807093    3.070348    0.703499
    104          6           0       -4.507381    3.682462    1.862560
    105          6           0       -4.055044    5.103950    1.627682
    106          6           0       -3.881390    5.243421    0.044018
    107          6           0       -4.370605    3.843762   -0.388436
    108          6           0       -4.998752    6.194600    2.133921
    109          6           0       -2.501704    5.736246   -0.471984
    110          6           0       -1.443623    4.693252   -0.192655
    111          7           0       -5.182243    1.213786   -1.521325
    112          6           0       -4.935497    2.380091   -2.278243
    113          6           0       -5.210429    2.048309   -3.691318
    114          6           0       -5.623458    0.707934   -3.655425
    115          6           0       -5.626472    0.243539   -2.312360
    116          6           0       -5.114758    2.947368   -4.790709
    117          6           0       -6.067785   -0.416540   -4.447147
    118          8           0       -6.176421   -0.641931   -5.651776
    119          6           0       -6.626858   -1.535559   -3.466525
    120          6           0       -6.032783   -2.854213   -3.879720
    121          8           0       -4.809743   -3.055768   -3.778908
    122          8           0       -7.026293   -3.729501   -4.118843
    123          6           0       -6.486850   -5.055703   -4.521353
    124          1           0       -7.435689   -1.605633    3.426222
    125          1           0       -4.183887    3.714592    3.790183
    126          1           0       -4.310357    4.284519   -2.462331
    127          1           0       -8.134290   -3.122471   -1.219791
    128          1           0       -7.879651   -3.362238    1.575698
    129          1           0       -9.615105   -1.658323   -0.163570
    130          1           0       -9.243484   -0.962370    1.427601
    131          1           0      -10.038239   -2.506664    1.371274
    132          1           0       -5.848778   -4.058698    0.531122
    133          1           0       -5.580299   -3.970031   -1.247992
    134          1           0       -7.991535   -5.413629   -0.790296
    135          1           0       -6.971749   -5.817735    0.544476
    136          1           0       -6.677933   -1.698274    5.390382
    137          1           0       -6.482483   -0.401288    6.521229
    138          1           0       -5.085894   -1.464482    6.228112
    139          1           0       -4.945317    0.851333    7.542728
    140          1           0       -3.313116    1.665616    7.888530
    141          1           0       -3.449338    0.125478    6.992530
    142          1           0       -3.099980    5.289498    2.103625
    143          1           0       -4.590029    5.969251   -0.381224
    144          1           0       -4.517552    6.892812    2.844568
    145          1           0       -5.856641    5.718858    2.590237
    146          1           0       -5.458306    6.804381    1.357916
    147          1           0       -2.197197    6.638564    0.063978
    148          1           0       -2.496014    5.973165   -1.530685
    149          1           0       -1.167682    4.893918    0.846906
    150          1           0       -0.593006    4.822530   -0.858812
    151          1           0       -1.866885    3.682840   -0.232193
    152          1           0       -4.624440    2.409358   -5.591110
    153          1           0       -4.566352    3.847671   -4.521510
    154          1           0       -6.174076    3.150064   -4.969648
    155          1           0       -7.714236   -1.531899   -3.551295
    156          1           0       -6.941051   -5.306262   -5.484995
    157          1           0       -6.698066   -5.733992   -3.673379
    158          1           0       -5.432062   -5.115419   -4.762802
 ---------------------------------------------------------------------
 Rotational constants (GHZ):           0.0208290           0.0103675           0.0103389
 Leave Link  202 at Fri Sep 10 12:19:51 2021, MaxMem= 23488102400 cpu:               0.3 elap:               0.0
 (Enter /sw/apps/gaussian-16.0/g16/l301.exe)
 Standard basis: def2SVP (5D, 7F)
 Ernie: Thresh=  0.10000D-02 Tol=  0.10000D-05 Strict=F.
 There are  1658 symmetry adapted cartesian basis functions of A   symmetry.
 There are  1572 symmetry adapted basis functions of A   symmetry.
  1572 basis functions,  2678 primitive gaussians,  1658 cartesian basis functions
   312 alpha electrons      312 beta electrons
       nuclear repulsion energy     14852.3864970320 Hartrees.
 IExCor=20419 DFT=T Ex+Corr=CAM-B3LYP ExCW=0 ScaHFX=  1.000000
 ScaDFX=  1.000000  1.000000  1.000000  0.810000 ScalE2=  1.000000  1.000000
 IRadAn=      5 IRanWt=     -1 IRanGd=            0 ICorTp=0 IEmpDi=  4
 HFx  wShort=  0.000000 wLong=  0.330000 cFull=  0.190000 cShort=  0.000000 cLong=  0.460000
 DFx  wShort=  0.000000 wLong=  0.330000 cFull=  0.190000 cShort=  0.000000 cLong=  0.460000
 NAtoms=  158 NActive=  158 NUniq=  158 SFac= 1.00D+00 NAtFMM=   60 NAOKFM=T Big=T
 Integral buffers will be    131072 words long.
 Raffenetti 1 integral format.
 Two-electron integral symmetry is turned on.
 Leave Link  301 at Fri Sep 10 12:19:51 2021, MaxMem= 23488102400 cpu:               1.3 elap:               0.1
 (Enter /sw/apps/gaussian-16.0/g16/l302.exe)
 NPDir=0 NMtPBC=     1 NCelOv=     1 NCel=       1 NClECP=     1 NCelD=      1
         NCelK=      1 NCelE2=     1 NClLst=     1 CellRange=     0.0.
 One-electron integrals computed using PRISM.
 One-electron integral symmetry used in STVInt
   1 Symmetry operations used in ECPInt.
 ECPInt:  NShTT=  271216 NPrTT=  987664 LenC2=  133801 LenP2D=  280620.
 LDataN:  DoStor=T MaxTD1= 4 Len=   56
 NBasis=  1572 RedAO= T EigKep=  3.36D-04  NBF=  1572
 NBsUse=  1572 1.00D-06 EigRej= -1.00D+00 NBFU=  1572
 Precomputing XC quadrature grid using
 IXCGrd= 4 IRadAn=           5 IRanWt=          -1 IRanGd=           0 AccXCQ= 0.00D+00.
 Generated NRdTot=       0 NPtTot=           0 NUsed=           0 NTot=          32
 NSgBfM=  1186  1179  1185  1186  1186 MxSgAt=   158 MxSgA2=   158.
 Leave Link  302 at Fri Sep 10 12:19:57 2021, MaxMem= 23488102400 cpu:             129.6 elap:               5.4
 (Enter /sw/apps/gaussian-16.0/g16/l303.exe)
 DipDrv:  MaxL=1.
 Leave Link  303 at Fri Sep 10 12:19:57 2021, MaxMem= 23488102400 cpu:               9.1 elap:               0.4
 (Enter /sw/apps/gaussian-16.0/g16/l308.exe)
 Leave Link  308 at Fri Sep 10 12:19:58 2021, MaxMem= 23488102400 cpu:              16.4 elap:               0.8
 (Enter /sw/apps/gaussian-16.0/g16/l401.exe)
 ExpMin= 3.36D-02 ExpMax= 4.95D+03 ExpMxC= 7.45D+02 IAcc=3 IRadAn=         5 AccDes= 0.00D+00
 Harris functional with IExCor=20419 and IRadAn=       5 diagonalized for initial guess.
 HarFok:  IExCor=20419 AccDes= 0.00D+00 IRadAn=         5 IDoV= 1 UseB2=F ITyADJ=14
 ICtDFT=  3500011 ScaDFX=  1.000000  1.000000  1.000000  1.000000
 FoFCou: FMM=F IPFlag=           0 FMFlag=      100000 FMFlg1=        2001
         NFxFlg=           0 DoJE=T BraDBF=F KetDBF=T FulRan=T
         wScrn=  0.000000 ICntrl=       500 IOpCl=  0 I1Cent=   200000004 NGrid=           0
         NMat0=    1 NMatS0=      1 NMatT0=    0 NMatD0=    1 NMtDS0=    0 NMtDT0=    0
 Petite list used in FoFCou.
 Harris En= -3918.65801127794    
 JPrj=0 DoOrth=F DoCkMO=F.
 Leave Link  401 at Fri Sep 10 12:20:05 2021, MaxMem= 23488102400 cpu:             172.5 elap:               7.2
 (Enter /sw/apps/gaussian-16.0/g16/l502.exe)
 Integral symmetry usage will be decided dynamically.
 Closed shell SCF:
 Using DIIS extrapolation, IDIIS=  1040.
 NGot= 23488102400 LenX= 23482547354 LenY= 23479796732
 Requested convergence on RMS density matrix=1.00D-08 within 128 cycles.
 Requested convergence on MAX density matrix=1.00D-06.
 Requested convergence on             energy=1.00D-06.
 No special actions if energy rises.
 Fock matrices will be formed incrementally for  20 cycles.

 Cycle   1  Pass 1  IDiag  1:
 FoFJK:  IHMeth= 1 ICntrl=       0 DoSepK=T KAlg= 0 I1Cent=           0 FoldK=F
 IRaf=         1 NMat=       1 IRICut=       1 DoRegI=T DoRafI=F ISym2E= 0 IDoP0=0 IntGTp=1.
 FoFCou: FMM=T IPFlag=           0 FMFlag=      100000 FMFlg1=        2001
         NFxFlg=           0 DoJE=T BraDBF=F KetDBF=F FulRan=T
         wScrn=  0.000000 ICntrl=       500 IOpCl=  0 I1Cent=           0 NGrid=           0
         NMat0=    1 NMatS0=      1 NMatT0=    0 NMatD0=    1 NMtDS0=    0 NMtDT0=    0
 Symmetry not used in FoFCou.
 FMM levels:  10  Number of levels for PrismC:   9
 E= -4068.94878951170    
 DIIS: error= 2.04D-02 at cycle   1 NSaved=   1.
 NSaved= 1 IEnMin= 1 EnMin= -4068.94878951170     IErMin= 1 ErrMin= 2.04D-02
 ErrMax= 2.04D-02  0.00D+00 EMaxC= 1.00D-01 BMatC= 1.69D+00 BMatP= 1.69D+00
 IDIUse=3 WtCom= 7.96D-01 WtEn= 2.04D-01
 Coeff-Com:  0.100D+01
 Coeff-En:   0.100D+01
 Coeff:      0.100D+01
 Gap=     0.120 Goal=   None    Shift=    0.000
 GapD=    0.120 DampG=1.000 DampE=0.500 DampFc=0.5000 IDamp=-1.
 Damping current iteration by 5.00D-01
 RMSDP=1.57D-03 MaxDP=1.35D-01              OVMax= 2.09D-01

 Cycle   2  Pass 1  IDiag  1:
 RMSU=  7.71D-04    CP:  9.82D-01
 E= -4069.33729586625     Delta-E=       -0.388506354549 Rises=F Damp=T
 DIIS: error= 1.27D-02 at cycle   2 NSaved=   2.
 NSaved= 2 IEnMin= 2 EnMin= -4069.33729586625     IErMin= 2 ErrMin= 1.27D-02
 ErrMax= 1.27D-02  0.00D+00 EMaxC= 1.00D-01 BMatC= 3.07D-01 BMatP= 1.69D+00
 IDIUse=3 WtCom= 8.73D-01 WtEn= 1.27D-01
 Coeff-Com: -0.212D+00 0.121D+01
 Coeff-En:   0.000D+00 0.100D+01
 Coeff:     -0.185D+00 0.118D+01
 Gap=     0.138 Goal=   None    Shift=    0.000
 RMSDP=7.68D-04 MaxDP=9.46D-02 DE=-3.89D-01 OVMax= 1.89D-01

 Cycle   3  Pass 1  IDiag  1:
 RMSU=  7.36D-04    CP:  9.68D-01  1.23D+00
 E= -4069.62465677182     Delta-E=       -0.287360905568 Rises=F Damp=F
 DIIS: error= 1.59D-02 at cycle   3 NSaved=   3.
 NSaved= 3 IEnMin= 3 EnMin= -4069.62465677182     IErMin= 2 ErrMin= 1.27D-02
 ErrMax= 1.59D-02  0.00D+00 EMaxC= 1.00D-01 BMatC= 2.04D-01 BMatP= 3.07D-01
 IDIUse=3 WtCom= 8.41D-01 WtEn= 1.59D-01
 Coeff-Com: -0.267D+00 0.653D+00 0.614D+00
 Coeff-En:   0.000D+00 0.000D+00 0.100D+01
 Coeff:     -0.225D+00 0.550D+00 0.675D+00
 Gap=     0.125 Goal=   None    Shift=    0.000
 RMSDP=5.17D-04 MaxDP=4.79D-02 DE=-2.87D-01 OVMax= 1.54D-01

 Cycle   4  Pass 1  IDiag  1:
 RMSU=  2.69D-04    CP:  9.65D-01  1.55D+00  4.99D-01
 E= -4069.76279367509     Delta-E=       -0.138136903268 Rises=F Damp=F
 DIIS: error= 7.40D-03 at cycle   4 NSaved=   4.
 NSaved= 4 IEnMin= 4 EnMin= -4069.76279367509     IErMin= 4 ErrMin= 7.40D-03
 ErrMax= 7.40D-03  0.00D+00 EMaxC= 1.00D-01 BMatC= 5.22D-02 BMatP= 2.04D-01
 IDIUse=3 WtCom= 9.26D-01 WtEn= 7.40D-02
 Coeff-Com: -0.109D+00 0.228D+00 0.410D+00 0.472D+00
 Coeff-En:   0.000D+00 0.000D+00 0.227D+00 0.773D+00
 Coeff:     -0.101D+00 0.211D+00 0.397D+00 0.494D+00
 Gap=     0.123 Goal=   None    Shift=    0.000
 RMSDP=2.07D-04 MaxDP=2.10D-02 DE=-1.38D-01 OVMax= 6.98D-02

 Cycle   5  Pass 1  IDiag  1:
 RMSU=  7.93D-05    CP:  9.64D-01  1.49D+00  6.87D-01  5.40D-01
 E= -4069.81038015896     Delta-E=       -0.047586483870 Rises=F Damp=F
 DIIS: error= 7.61D-04 at cycle   5 NSaved=   5.
 NSaved= 5 IEnMin= 5 EnMin= -4069.81038015896     IErMin= 5 ErrMin= 7.61D-04
 ErrMax= 7.61D-04  0.00D+00 EMaxC= 1.00D-01 BMatC= 1.33D-03 BMatP= 5.22D-02
 IDIUse=3 WtCom= 9.92D-01 WtEn= 7.61D-03
 Coeff-Com: -0.378D-01 0.745D-01 0.173D+00 0.256D+00 0.534D+00
 Coeff-En:   0.000D+00 0.000D+00 0.000D+00 0.000D+00 0.100D+01
 Coeff:     -0.375D-01 0.739D-01 0.172D+00 0.254D+00 0.538D+00
 Gap=     0.122 Goal=   None    Shift=    0.000
 RMSDP=4.49D-05 MaxDP=4.30D-03 DE=-4.76D-02 OVMax= 2.00D-02

 Cycle   6  Pass 1  IDiag  1:
 RMSU=  3.23D-05    CP:  9.64D-01  1.49D+00  6.78D-01  6.17D-01  7.25D-01
 E= -4069.81158114499     Delta-E=       -0.001200986029 Rises=F Damp=F
 DIIS: error= 1.97D-04 at cycle   6 NSaved=   6.
 NSaved= 6 IEnMin= 6 EnMin= -4069.81158114499     IErMin= 6 ErrMin= 1.97D-04
 ErrMax= 1.97D-04  0.00D+00 EMaxC= 1.00D-01 BMatC= 1.98D-04 BMatP= 1.33D-03
 IDIUse=3 WtCom= 9.98D-01 WtEn= 1.97D-03
 Coeff-Com:  0.189D-02-0.600D-02 0.132D-01 0.429D-01 0.303D+00 0.645D+00
 Coeff-En:   0.000D+00 0.000D+00 0.000D+00 0.000D+00 0.112D+00 0.888D+00
 Coeff:      0.189D-02-0.599D-02 0.132D-01 0.428D-01 0.302D+00 0.646D+00
 Gap=     0.123 Goal=   None    Shift=    0.000
 RMSDP=1.73D-05 MaxDP=1.24D-03 DE=-1.20D-03 OVMax= 8.15D-03

 Cycle   7  Pass 1  IDiag  1:
 RMSU=  1.14D-05    CP:  9.64D-01  1.49D+00  6.84D-01  6.16D-01  8.35D-01
                    CP:  7.40D-01
 E= -4069.81179957380     Delta-E=       -0.000218428813 Rises=F Damp=F
 DIIS: error= 9.65D-05 at cycle   7 NSaved=   7.
 NSaved= 7 IEnMin= 7 EnMin= -4069.81179957380     IErMin= 7 ErrMin= 9.65D-05
 ErrMax= 9.65D-05  0.00D+00 EMaxC= 1.00D-01 BMatC= 2.59D-05 BMatP= 1.98D-04
 IDIUse=1 WtCom= 1.00D+00 WtEn= 0.00D+00
 Coeff-Com:  0.458D-02-0.101D-01-0.876D-02-0.282D-02 0.107D+00 0.342D+00
 Coeff-Com:  0.568D+00
 Coeff:      0.458D-02-0.101D-01-0.876D-02-0.282D-02 0.107D+00 0.342D+00
 Coeff:      0.568D+00
 Gap=     0.123 Goal=   None    Shift=    0.000
 RMSDP=6.91D-06 MaxDP=1.11D-03 DE=-2.18D-04 OVMax= 3.55D-03

 Cycle   8  Pass 1  IDiag  1:
 RMSU=  4.89D-06    CP:  9.64D-01  1.49D+00  6.85D-01  6.21D-01  8.36D-01
                    CP:  8.65D-01  8.04D-01
 E= -4069.81183157433     Delta-E=       -0.000032000527 Rises=F Damp=F
 DIIS: error= 5.36D-05 at cycle   8 NSaved=   8.
 NSaved= 8 IEnMin= 8 EnMin= -4069.81183157433     IErMin= 8 ErrMin= 5.36D-05
 ErrMax= 5.36D-05  0.00D+00 EMaxC= 1.00D-01 BMatC= 5.03D-06 BMatP= 2.59D-05
 IDIUse=1 WtCom= 1.00D+00 WtEn= 0.00D+00
 Coeff-Com:  0.223D-02-0.444D-02-0.790D-02-0.121D-01-0.874D-02 0.349D-01
 Coeff-Com:  0.320D+00 0.676D+00
 Coeff:      0.223D-02-0.444D-02-0.790D-02-0.121D-01-0.874D-02 0.349D-01
 Coeff:      0.320D+00 0.676D+00
 Gap=     0.123 Goal=   None    Shift=    0.000
 RMSDP=3.41D-06 MaxDP=3.70D-04 DE=-3.20D-05 OVMax= 1.17D-03

 Cycle   9  Pass 1  IDiag  1:
 RMSU=  1.99D-06    CP:  9.64D-01  1.49D+00  6.85D-01  6.22D-01  8.53D-01
                    CP:  8.92D-01  9.95D-01  9.69D-01
 E= -4069.81183977144     Delta-E=       -0.000008197116 Rises=F Damp=F
 DIIS: error= 2.04D-05 at cycle   9 NSaved=   9.
 NSaved= 9 IEnMin= 9 EnMin= -4069.81183977144     IErMin= 9 ErrMin= 2.04D-05
 ErrMax= 2.04D-05  0.00D+00 EMaxC= 1.00D-01 BMatC= 7.87D-07 BMatP= 5.03D-06
 IDIUse=1 WtCom= 1.00D+00 WtEn= 0.00D+00
 Coeff-Com:  0.481D-03-0.797D-03-0.276D-02-0.613D-02-0.204D-01-0.410D-01
 Coeff-Com:  0.922D-01 0.340D+00 0.639D+00
 Coeff:      0.481D-03-0.797D-03-0.276D-02-0.613D-02-0.204D-01-0.410D-01
 Coeff:      0.922D-01 0.340D+00 0.639D+00
 Gap=     0.123 Goal=   None    Shift=    0.000
 RMSDP=1.49D-06 MaxDP=1.56D-04 DE=-8.20D-06 OVMax= 7.87D-04

 Cycle  10  Pass 1  IDiag  1:
 RMSU=  9.76D-07    CP:  9.64D-01  1.49D+00  6.85D-01  6.23D-01  8.56D-01
                    CP:  9.05D-01  1.04D+00  1.14D+00  1.06D+00
 E= -4069.81184156137     Delta-E=       -0.000001789922 Rises=F Damp=F
 DIIS: error= 9.81D-06 at cycle  10 NSaved=  10.
 NSaved=10 IEnMin=10 EnMin= -4069.81184156137     IErMin=10 ErrMin= 9.81D-06
 ErrMax= 9.81D-06  0.00D+00 EMaxC= 1.00D-01 BMatC= 1.77D-07 BMatP= 7.87D-07
 IDIUse=1 WtCom= 1.00D+00 WtEn= 0.00D+00
 Coeff-Com: -0.433D-03 0.909D-03 0.124D-02 0.107D-02-0.356D-02-0.315D-01
 Coeff-Com: -0.446D-01-0.718D-01 0.231D+00 0.918D+00
 Coeff:     -0.433D-03 0.909D-03 0.124D-02 0.107D-02-0.356D-02-0.315D-01
 Coeff:     -0.446D-01-0.718D-01 0.231D+00 0.918D+00
 Gap=     0.123 Goal=   None    Shift=    0.000
 RMSDP=1.28D-06 MaxDP=1.21D-04 DE=-1.79D-06 OVMax= 6.57D-04

 Cycle  11  Pass 1  IDiag  1:
 RMSU=  5.48D-07    CP:  9.64D-01  1.49D+00  6.85D-01  6.23D-01  8.59D-01
                    CP:  9.16D-01  1.09D+00  1.25D+00  1.40D+00  1.39D+00
 E= -4069.81184242470     Delta-E=       -0.000000863332 Rises=F Damp=F
 DIIS: error= 4.67D-06 at cycle  11 NSaved=  11.
 NSaved=11 IEnMin=11 EnMin= -4069.81184242470     IErMin=11 ErrMin= 4.67D-06
 ErrMax= 4.67D-06  0.00D+00 EMaxC= 1.00D-01 BMatC= 7.07D-08 BMatP= 1.77D-07
 IDIUse=1 WtCom= 1.00D+00 WtEn= 0.00D+00
 Coeff-Com: -0.342D-03 0.665D-03 0.138D-02 0.216D-02 0.450D-02-0.841D-02
 Coeff-Com: -0.413D-01-0.133D+00-0.434D-01 0.488D+00 0.730D+00
 Coeff:     -0.342D-03 0.665D-03 0.138D-02 0.216D-02 0.450D-02-0.841D-02
 Coeff:     -0.413D-01-0.133D+00-0.434D-01 0.488D+00 0.730D+00
 Gap=     0.123 Goal=   None    Shift=    0.000
 RMSDP=7.31D-07 MaxDP=6.92D-05 DE=-8.63D-07 OVMax= 4.08D-04

 Cycle  12  Pass 1  IDiag  1:
 RMSU=  2.77D-07    CP:  9.64D-01  1.49D+00  6.85D-01  6.23D-01  8.60D-01
                    CP:  9.18D-01  1.11D+00  1.32D+00  1.57D+00  1.79D+00
                    CP:  1.19D+00
 E= -4069.81184272198     Delta-E=       -0.000000297277 Rises=F Damp=F
 DIIS: error= 2.68D-06 at cycle  12 NSaved=  12.
 NSaved=12 IEnMin=12 EnMin= -4069.81184272198     IErMin=12 ErrMin= 2.68D-06
 ErrMax= 2.68D-06  0.00D+00 EMaxC= 1.00D-01 BMatC= 1.66D-08 BMatP= 7.07D-08
 IDIUse=1 WtCom= 1.00D+00 WtEn= 0.00D+00
 Coeff-Com: -0.521D-05-0.722D-05 0.208D-03 0.548D-03 0.346D-02 0.402D-02
 Coeff-Com:  0.253D-02-0.349D-01-0.734D-01-0.619D-01 0.244D+00 0.915D+00
 Coeff:     -0.521D-05-0.722D-05 0.208D-03 0.548D-03 0.346D-02 0.402D-02
 Coeff:      0.253D-02-0.349D-01-0.734D-01-0.619D-01 0.244D+00 0.915D+00
 Gap=     0.123 Goal=   None    Shift=    0.000
 RMSDP=4.60D-07 MaxDP=2.95D-05 DE=-2.97D-07 OVMax= 2.66D-04

 Cycle  13  Pass 1  IDiag  1:
 RMSU=  1.72D-07    CP:  9.64D-01  1.49D+00  6.85D-01  6.23D-01  8.60D-01
                    CP:  9.18D-01  1.11D+00  1.35D+00  1.68D+00  2.02D+00
                    CP:  1.60D+00  1.27D+00
 E= -4069.81184282375     Delta-E=       -0.000000101776 Rises=F Damp=F
 DIIS: error= 1.57D-06 at cycle  13 NSaved=  13.
 NSaved=13 IEnMin=13 EnMin= -4069.81184282375     IErMin=13 ErrMin= 1.57D-06
 ErrMax= 1.57D-06  0.00D+00 EMaxC= 1.00D-01 BMatC= 9.24D-09 BMatP= 1.66D-08
 IDIUse=1 WtCom= 1.00D+00 WtEn= 0.00D+00
 Coeff-Com:  0.123D-03-0.251D-03-0.376D-03-0.463D-03 0.661D-03 0.495D-02
 Coeff-Com:  0.188D-01 0.242D-01-0.303D-01-0.242D+00-0.168D+00 0.599D+00
 Coeff-Com:  0.794D+00
 Coeff:      0.123D-03-0.251D-03-0.376D-03-0.463D-03 0.661D-03 0.495D-02
 Coeff:      0.188D-01 0.242D-01-0.303D-01-0.242D+00-0.168D+00 0.599D+00
 Coeff:      0.794D+00
 Gap=     0.123 Goal=   None    Shift=    0.000
 RMSDP=3.63D-07 MaxDP=2.41D-05 DE=-1.02D-07 OVMax= 2.19D-04

 Cycle  14  Pass 1  IDiag  1:
 RMSU=  7.98D-08    CP:  9.64D-01  1.49D+00  6.85D-01  6.23D-01  8.60D-01
                    CP:  9.19D-01  1.12D+00  1.37D+00  1.76D+00  2.22D+00
                    CP:  1.87D+00  1.79D+00  1.10D+00
 E= -4069.81184286440     Delta-E=       -0.000000040651 Rises=F Damp=F
 DIIS: error= 7.38D-07 at cycle  14 NSaved=  14.
 NSaved=14 IEnMin=14 EnMin= -4069.81184286440     IErMin=14 ErrMin= 7.38D-07
 ErrMax= 7.38D-07  0.00D+00 EMaxC= 1.00D-01 BMatC= 1.37D-09 BMatP= 9.24D-09
 IDIUse=1 WtCom= 1.00D+00 WtEn= 0.00D+00
 Coeff-Com:  0.682D-04-0.135D-03-0.253D-03-0.394D-03-0.434D-03 0.119D-02
 Coeff-Com:  0.101D-01 0.198D-01 0.583D-02-0.101D+00-0.146D+00 0.938D-01
 Coeff-Com:  0.401D+00 0.716D+00
 Coeff:      0.682D-04-0.135D-03-0.253D-03-0.394D-03-0.434D-03 0.119D-02
 Coeff:      0.101D-01 0.198D-01 0.583D-02-0.101D+00-0.146D+00 0.938D-01
 Coeff:      0.401D+00 0.716D+00
 Gap=     0.123 Goal=   None    Shift=    0.000
 RMSDP=1.07D-07 MaxDP=7.49D-06 DE=-4.07D-08 OVMax= 5.94D-05

 Cycle  15  Pass 1  IDiag  1:
 RMSU=  3.93D-08    CP:  9.64D-01  1.49D+00  6.85D-01  6.23D-01  8.60D-01
                    CP:  9.19D-01  1.12D+00  1.38D+00  1.78D+00  2.26D+00
                    CP:  1.97D+00  1.93D+00  1.33D+00  1.03D+00
 E= -4069.81184286891     Delta-E=       -0.000000004504 Rises=F Damp=F
 DIIS: error= 3.71D-07 at cycle  15 NSaved=  15.
 NSaved=15 IEnMin=15 EnMin= -4069.81184286891     IErMin=15 ErrMin= 3.71D-07
 ErrMax= 3.71D-07  0.00D+00 EMaxC= 1.00D-01 BMatC= 2.48D-10 BMatP= 1.37D-09
 IDIUse=1 WtCom= 1.00D+00 WtEn= 0.00D+00
 Coeff-Com:  0.591D-05-0.998D-05-0.352D-04-0.862D-04-0.287D-03-0.557D-03
 Coeff-Com:  0.110D-02 0.271D-02 0.883D-02 0.147D-02-0.309D-01-0.709D-01
 Coeff-Com:  0.299D-01 0.304D+00 0.755D+00
 Coeff:      0.591D-05-0.998D-05-0.352D-04-0.862D-04-0.287D-03-0.557D-03
 Coeff:      0.110D-02 0.271D-02 0.883D-02 0.147D-02-0.309D-01-0.709D-01
 Coeff:      0.299D-01 0.304D+00 0.755D+00
 Gap=     0.123 Goal=   None    Shift=    0.000
 RMSDP=4.02D-08 MaxDP=2.41D-06 DE=-4.50D-09 OVMax= 2.93D-05

 Cycle  16  Pass 1  IDiag  1:
 RMSU=  1.96D-08    CP:  9.64D-01  1.49D+00  6.85D-01  6.23D-01  8.60D-01
                    CP:  9.19D-01  1.12D+00  1.38D+00  1.78D+00  2.27D+00
                    CP:  1.99D+00  1.99D+00  1.40D+00  1.24D+00  1.13D+00
 E= -4069.81184286947     Delta-E=       -0.000000000568 Rises=F Damp=F
 DIIS: error= 2.05D-07 at cycle  16 NSaved=  16.
 NSaved=16 IEnMin=16 EnMin= -4069.81184286947     IErMin=16 ErrMin= 2.05D-07
 ErrMax= 2.05D-07  0.00D+00 EMaxC= 1.00D-01 BMatC= 9.07D-11 BMatP= 2.48D-10
 IDIUse=1 WtCom= 1.00D+00 WtEn= 0.00D+00
 Coeff-Com: -0.138D-04 0.280D-04 0.447D-04 0.489D-04-0.350D-04-0.631D-03
 Coeff-Com: -0.174D-02-0.410D-02 0.388D-02 0.249D-01 0.195D-01-0.631D-01
 Coeff-Com: -0.790D-01-0.274D-01 0.401D+00 0.727D+00
 Coeff:     -0.138D-04 0.280D-04 0.447D-04 0.489D-04-0.350D-04-0.631D-03
 Coeff:     -0.174D-02-0.410D-02 0.388D-02 0.249D-01 0.195D-01-0.631D-01
 Coeff:     -0.790D-01-0.274D-01 0.401D+00 0.727D+00
 Gap=     0.123 Goal=   None    Shift=    0.000
 RMSDP=2.32D-08 MaxDP=1.58D-06 DE=-5.68D-10 OVMax= 1.27D-05

 Cycle  17  Pass 1  IDiag  1:
 RMSU=  1.10D-08    CP:  9.64D-01  1.49D+00  6.85D-01  6.23D-01  8.60D-01
                    CP:  9.19D-01  1.12D+00  1.38D+00  1.78D+00  2.28D+00
                    CP:  2.01D+00  2.01D+00  1.45D+00  1.33D+00  1.41D+00
                    CP:  1.20D+00
 E= -4069.81184286990     Delta-E=       -0.000000000426 Rises=F Damp=F
 DIIS: error= 9.74D-08 at cycle  17 NSaved=  17.
 NSaved=17 IEnMin=17 EnMin= -4069.81184286990     IErMin=17 ErrMin= 9.74D-08
 ErrMax= 9.74D-08  0.00D+00 EMaxC= 1.00D-01 BMatC= 2.01D-11 BMatP= 9.07D-11
 IDIUse=1 WtCom= 1.00D+00 WtEn= 0.00D+00
 Coeff-Com: -0.762D-05 0.149D-04 0.297D-04 0.430D-04 0.780D-04-0.144D-03
 Coeff-Com: -0.899D-03-0.287D-02-0.599D-04 0.103D-01 0.175D-01-0.943D-02
 Coeff-Com: -0.380D-01-0.985D-01-0.146D-01 0.307D+00 0.830D+00
 Coeff:     -0.762D-05 0.149D-04 0.297D-04 0.430D-04 0.780D-04-0.144D-03
 Coeff:     -0.899D-03-0.287D-02-0.599D-04 0.103D-01 0.175D-01-0.943D-02
 Coeff:     -0.380D-01-0.985D-01-0.146D-01 0.307D+00 0.830D+00
 Gap=     0.123 Goal=   None    Shift=    0.000
 RMSDP=1.36D-08 MaxDP=9.16D-07 DE=-4.26D-10 OVMax= 9.74D-06

 Cycle  18  Pass 1  IDiag  1:
 RMSU=  5.48D-09    CP:  9.64D-01  1.49D+00  6.85D-01  6.23D-01  8.60D-01
                    CP:  9.19D-01  1.12D+00  1.38D+00  1.78D+00  2.28D+00
                    CP:  2.01D+00  2.02D+00  1.46D+00  1.40D+00  1.57D+00
                    CP:  1.59D+00  1.32D+00
 E= -4069.81184287003     Delta-E=       -0.000000000135 Rises=F Damp=F
 DIIS: error= 7.18D-08 at cycle  18 NSaved=  18.
 NSaved=18 IEnMin=18 EnMin= -4069.81184287003     IErMin=18 ErrMin= 7.18D-08
 ErrMax= 7.18D-08  0.00D+00 EMaxC= 1.00D-01 BMatC= 8.55D-12 BMatP= 2.01D-11
 IDIUse=1 WtCom= 1.00D+00 WtEn= 0.00D+00
 Coeff-Com:  0.792D-06-0.193D-05 0.884D-07 0.474D-05 0.650D-04 0.147D-03
 Coeff-Com:  0.226D-03-0.172D-03-0.117D-02-0.415D-02 0.199D-02 0.165D-01
 Coeff-Com:  0.112D-01-0.437D-01-0.148D+00-0.131D+00 0.418D+00 0.880D+00
 Coeff:      0.792D-06-0.193D-05 0.884D-07 0.474D-05 0.650D-04 0.147D-03
 Coeff:      0.226D-03-0.172D-03-0.117D-02-0.415D-02 0.199D-02 0.165D-01
 Coeff:      0.112D-01-0.437D-01-0.148D+00-0.131D+00 0.418D+00 0.880D+00
 Gap=     0.123 Goal=   None    Shift=    0.000
 RMSDP=1.09D-08 MaxDP=6.98D-07 DE=-1.35D-10 OVMax= 5.93D-06

 Cycle  19  Pass 1  IDiag  1:
 RMSU=  3.20D-09    CP:  9.64D-01  1.49D+00  6.85D-01  6.23D-01  8.60D-01
                    CP:  9.19D-01  1.12D+00  1.38D+00  1.78D+00  2.28D+00
                    CP:  2.01D+00  2.02D+00  1.48D+00  1.43D+00  1.71D+00
                    CP:  1.86D+00  1.84D+00  1.19D+00
 E= -4069.81184287010     Delta-E=       -0.000000000065 Rises=F Damp=F
 DIIS: error= 2.61D-08 at cycle  19 NSaved=  19.
 NSaved=19 IEnMin=19 EnMin= -4069.81184287010     IErMin=19 ErrMin= 2.61D-08
 ErrMax= 2.61D-08  0.00D+00 EMaxC= 1.00D-01 BMatC= 2.47D-12 BMatP= 8.55D-12
 IDIUse=1 WtCom= 1.00D+00 WtEn= 0.00D+00
 Coeff-Com:  0.314D-05-0.637D-05-0.103D-04-0.122D-04 0.196D-04 0.138D-03
 Coeff-Com:  0.486D-03 0.842D-03-0.630D-03-0.650D-02-0.490D-02 0.140D-01
 Coeff-Com:  0.219D-01 0.702D-02-0.881D-01-0.201D+00-0.915D-02 0.539D+00
 Coeff-Com:  0.726D+00
 Coeff:      0.314D-05-0.637D-05-0.103D-04-0.122D-04 0.196D-04 0.138D-03
 Coeff:      0.486D-03 0.842D-03-0.630D-03-0.650D-02-0.490D-02 0.140D-01
 Coeff:      0.219D-01 0.702D-02-0.881D-01-0.201D+00-0.915D-02 0.539D+00
 Coeff:      0.726D+00
 Gap=     0.123 Goal=   None    Shift=    0.000
 RMSDP=5.86D-09 MaxDP=4.00D-07 DE=-6.55D-11 OVMax= 4.07D-06

 SCF Done:  E(RCAM-B3LYP) =  -4069.81184287     A.U. after   19 cycles
            NFock= 19  Conv=0.59D-08     -V/T= 2.0102
 KE= 4.028801833406D+03 PE=-3.918653241528D+04 EE= 1.623553224197D+04
 Leave Link  502 at Fri Sep 10 12:29:50 2021, MaxMem= 23488102400 cpu:           13430.0 elap:             584.5
 (Enter /sw/apps/gaussian-16.0/g16/l801.exe)
 DoSCS=F DFT=T ScalE2(SS,OS)=  1.000000  1.000000
 ExpMin= 3.36D-02 ExpMax= 4.95D+03 ExpMxC= 7.45D+02 IAcc=3 IRadAn=         5 AccDes= 0.00D+00
 HarFok:  IExCor=  205 AccDes= 0.00D+00 IRadAn=         5 IDoV=-2 UseB2=F ITyADJ=14
 ICtDFT= 12500011 ScaDFX=  1.000000  1.000000  1.000000  1.000000
 GSVD:  LWork=       -9588 too small for GESVD, short by       45590 words or       45590 for optimal perf.
 Largest valence mixing into a core orbital is  2.03D-04
 Largest core mixing into a valence orbital is  5.23D-05
 Range of M.O.s used for correlation:    95  1572
 NBasis=  1572 NAE=   312 NBE=   312 NFC=    94 NFV=     0
 NROrb=   1478 NOA=   218 NOB=   218 NVA=  1260 NVB=  1260
 Leave Link  801 at Fri Sep 10 12:29:50 2021, MaxMem= 23488102400 cpu:               9.3 elap:               0.4
 (Enter /sw/apps/gaussian-16.0/g16/l914.exe)
 RHF ground state
 Two-electron integrals replicated using symmetry.
 MDV= 23488102400 DFT=T DoStab=F Mixed=T DoRPA=T DoScal=F NonHer=T
 Making orbital integer symmetry assigments:
 Orbital symmetries:
       Occupied  (A) (A) (A) (A) (A) (A) (A) (A) (A) (A) (A) (A)
                 (A) (A) (A) (A) (A) (A) (A) (A) (A) (A) (A) (A)
                 (A) (A) (A) (A) (A) (A) (A) (A) (A) (A) (A) (A)
                 (A) (A) (A) (A) (A) (A) (A) (A) (A) (A) (A) (A)
                 (A) (A) (A) (A) (A) (A) (A) (A) (A) (A) (A) (A)
                 (A) (A) (A) (A) (A) (A) (A) (A) (A) (A) (A) (A)
                 (A) (A) (A) (A) (A) (A) (A) (A) (A) (A) (A) (A)
                 (A) (A) (A) (A) (A) (A) (A) (A) (A) (A) (A) (A)
                 (A) (A) (A) (A) (A) (A) (A) (A) (A) (A) (A) (A)
                 (A) (A) (A) (A) (A) (A) (A) (A) (A) (A) (A) (A)
                 (A) (A) (A) (A) (A) (A) (A) (A) (A) (A) (A) (A)
                 (A) (A) (A) (A) (A) (A) (A) (A) (A) (A) (A) (A)
                 (A) (A) (A) (A) (A) (A) (A) (A) (A) (A) (A) (A)
                 (A) (A) (A) (A) (A) (A) (A) (A) (A) (A) (A) (A)
                 (A) (A) (A) (A) (A) (A) (A) (A) (A) (A) (A) (A)
                 (A) (A) (A) (A) (A) (A) (A) (A) (A) (A) (A) (A)
                 (A) (A) (A) (A) (A) (A) (A) (A) (A) (A) (A) (A)
                 (A) (A) (A) (A) (A) (A) (A) (A) (A) (A) (A) (A)
                 (A) (A) (A) (A) (A) (A) (A) (A) (A) (A) (A) (A)
                 (A) (A) (A) (A) (A) (A) (A) (A) (A) (A) (A) (A)
                 (A) (A) (A) (A) (A) (A) (A) (A) (A) (A) (A) (A)
                 (A) (A) (A) (A) (A) (A) (A) (A) (A) (A) (A) (A)
                 (A) (A) (A) (A) (A) (A) (A) (A) (A) (A) (A) (A)
                 (A) (A) (A) (A) (A) (A) (A) (A) (A) (A) (A) (A)
                 (A) (A) (A) (A) (A) (A) (A) (A) (A) (A) (A) (A)
                 (A) (A) (A) (A) (A) (A) (A) (A) (A) (A) (A) (A)
       Virtual   (A) (A) (A) (A) (A) (A) (A) (A) (A) (A) (A) (A)
                 (A) (A) (A) (A) (A) (A) (A) (A) (A) (A) (A) (A)
                 (A) (A) (A) (A) (A) (A) (A) (A) (A) (A) (A) (A)
                 (A) (A) (A) (A) (A) (A) (A) (A) (A) (A) (A) (A)
                 (A) (A) (A) (A) (A) (A) (A) (A) (A) (A) (A) (A)
                 (A) (A) (A) (A) (A) (A) (A) (A) (A) (A) (A) (A)
                 (A) (A) (A) (A) (A) (A) (A) (A) (A) (A) (A) (A)
                 (A) (A) (A) (A) (A) (A) (A) (A) (A) (A) (A) (A)
                 (A) (A) (A) (A) (A) (A) (A) (A) (A) (A) (A) (A)
                 (A) (A) (A) (A) (A) (A) (A) (A) (A) (A) (A) (A)
                 (A) (A) (A) (A) (A) (A) (A) (A) (A) (A) (A) (A)
                 (A) (A) (A) (A) (A) (A) (A) (A) (A) (A) (A) (A)
                 (A) (A) (A) (A) (A) (A) (A) (A) (A) (A) (A) (A)
                 (A) (A) (A) (A) (A) (A) (A) (A) (A) (A) (A) (A)
                 (A) (A) (A) (A) (A) (A) (A) (A) (A) (A) (A) (A)
                 (A) (A) (A) (A) (A) (A) (A) (A) (A) (A) (A) (A)
                 (A) (A) (A) (A) (A) (A) (A) (A) (A) (A) (A) (A)
                 (A) (A) (A) (A) (A) (A) (A) (A) (A) (A) (A) (A)
                 (A) (A) (A) (A) (A) (A) (A) (A) (A) (A) (A) (A)
                 (A) (A) (A) (A) (A) (A) (A) (A) (A) (A) (A) (A)
                 (A) (A) (A) (A) (A) (A) (A) (A) (A) (A) (A) (A)
                 (A) (A) (A) (A) (A) (A) (A) (A) (A) (A) (A) (A)
                 (A) (A) (A) (A) (A) (A) (A) (A) (A) (A) (A) (A)
                 (A) (A) (A) (A) (A) (A) (A) (A) (A) (A) (A) (A)
                 (A) (A) (A) (A) (A) (A) (A) (A) (A) (A) (A) (A)
                 (A) (A) (A) (A) (A) (A) (A) (A) (A) (A) (A) (A)
                 (A) (A) (A) (A) (A) (A) (A) (A) (A) (A) (A) (A)
                 (A) (A) (A) (A) (A) (A) (A) (A) (A) (A) (A) (A)
                 (A) (A) (A) (A) (A) (A) (A) (A) (A) (A) (A) (A)
                 (A) (A) (A) (A) (A) (A) (A) (A) (A) (A) (A) (A)
                 (A) (A) (A) (A) (A) (A) (A) (A) (A) (A) (A) (A)
                 (A) (A) (A) (A) (A) (A) (A) (A) (A) (A) (A) (A)
                 (A) (A) (A) (A) (A) (A) (A) (A) (A) (A) (A) (A)
                 (A) (A) (A) (A) (A) (A) (A) (A) (A) (A) (A) (A)
                 (A) (A) (A) (A) (A) (A) (A) (A) (A) (A) (A) (A)
                 (A) (A) (A) (A) (A) (A) (A) (A) (A) (A) (A) (A)
                 (A) (A) (A) (A) (A) (A) (A) (A) (A) (A) (A) (A)
                 (A) (A) (A) (A) (A) (A) (A) (A) (A) (A) (A) (A)
                 (A) (A) (A) (A) (A) (A) (A) (A) (A) (A) (A) (A)
                 (A) (A) (A) (A) (A) (A) (A) (A) (A) (A) (A) (A)
                 (A) (A) (A) (A) (A) (A) (A) (A) (A) (A) (A) (A)
                 (A) (A) (A) (A) (A) (A) (A) (A) (A) (A) (A) (A)
                 (A) (A) (A) (A) (A) (A) (A) (A) (A) (A) (A) (A)
                 (A) (A) (A) (A) (A) (A) (A) (A) (A) (A) (A) (A)
                 (A) (A) (A) (A) (A) (A) (A) (A) (A) (A) (A) (A)
                 (A) (A) (A) (A) (A) (A) (A) (A) (A) (A) (A) (A)
                 (A) (A) (A) (A) (A) (A) (A) (A) (A) (A) (A) (A)
                 (A) (A) (A) (A) (A) (A) (A) (A) (A) (A) (A) (A)
                 (A) (A) (A) (A) (A) (A) (A) (A) (A) (A) (A) (A)
                 (A) (A) (A) (A) (A) (A) (A) (A) (A) (A) (A) (A)
                 (A) (A) (A) (A) (A) (A) (A) (A) (A) (A) (A) (A)
                 (A) (A) (A) (A) (A) (A) (A) (A) (A) (A) (A) (A)
                 (A) (A) (A) (A) (A) (A) (A) (A) (A) (A) (A) (A)
                 (A) (A) (A) (A) (A) (A) (A) (A) (A) (A) (A) (A)
                 (A) (A) (A) (A) (A) (A) (A) (A) (A) (A) (A) (A)
                 (A) (A) (A) (A) (A) (A) (A) (A) (A) (A) (A) (A)
                 (A) (A) (A) (A) (A) (A) (A) (A) (A) (A) (A) (A)
                 (A) (A) (A) (A) (A) (A) (A) (A) (A) (A) (A) (A)
                 (A) (A) (A) (A) (A) (A) (A) (A) (A) (A) (A) (A)
                 (A) (A) (A) (A) (A) (A) (A) (A) (A) (A) (A) (A)
                 (A) (A) (A) (A) (A) (A) (A) (A) (A) (A) (A) (A)
                 (A) (A) (A) (A) (A) (A) (A) (A) (A) (A) (A) (A)
                 (A) (A) (A) (A) (A) (A) (A) (A) (A) (A) (A) (A)
                 (A) (A) (A) (A) (A) (A) (A) (A) (A) (A) (A) (A)
                 (A) (A) (A) (A) (A) (A) (A) (A) (A) (A) (A) (A)
                 (A) (A) (A) (A) (A) (A) (A) (A) (A) (A) (A) (A)
                 (A) (A) (A) (A) (A) (A) (A) (A) (A) (A) (A) (A)
                 (A) (A) (A) (A) (A) (A) (A) (A) (A) (A) (A) (A)
                 (A) (A) (A) (A) (A) (A) (A) (A) (A) (A) (A) (A)
                 (A) (A) (A) (A) (A) (A) (A) (A) (A) (A) (A) (A)
                 (A) (A) (A) (A) (A) (A) (A) (A) (A) (A) (A) (A)
                 (A) (A) (A) (A) (A) (A) (A) (A) (A) (A) (A) (A)
                 (A) (A) (A) (A) (A) (A) (A) (A) (A) (A) (A) (A)
                 (A) (A) (A) (A) (A) (A) (A) (A) (A) (A) (A) (A)
                 (A) (A) (A) (A) (A) (A) (A) (A) (A) (A) (A) (A)
                 (A) (A) (A) (A) (A) (A) (A) (A) (A) (A) (A) (A)
                 (A) (A) (A) (A) (A) (A) (A) (A) (A) (A) (A) (A)
                 (A) (A) (A) (A) (A) (A) (A) (A) (A) (A) (A) (A)
                 (A) (A) (A) (A) (A) (A) (A) (A) (A) (A) (A) (A)
                 (A) (A) (A) (A) (A) (A) (A) (A) (A) (A) (A) (A)
                 (A) (A) (A) (A) (A) (A) (A) (A) (A) (A) (A) (A)
                 (A) (A) (A) (A) (A) (A) (A) (A) (A) (A) (A) (A)
                 (A) (A) (A) (A) (A) (A) (A) (A) (A) (A) (A) (A)
                 (A) (A) (A) (A) (A) (A) (A) (A) (A) (A) (A) (A)
                 (A) (A) (A) (A) (A) (A) (A) (A) (A) (A) (A) (A)
                 (A) (A) (A) (A) (A) (A) (A) (A) (A) (A) (A) (A)
                 (A) (A) (A) (A) (A) (A) (A) (A) (A) (A) (A) (A)
                 (A) (A) (A) (A) (A) (A) (A) (A) (A) (A) (A) (A)
                 (A) (A) (A) (A) (A) (A) (A) (A) (A) (A) (A) (A)
                 (A) (A) (A) (A) (A) (A) (A) (A) (A) (A) (A) (A)
                 (A) (A) (A) (A) (A) (A) (A) (A) (A) (A) (A) (A)
                 (A) (A) (A) (A) (A) (A) (A) (A) (A) (A) (A) (A)
                 (A) (A) (A) (A) (A) (A) (A) (A) (A) (A) (A) (A)
                 (A) (A) (A) (A) (A) (A) (A) (A) (A) (A) (A) (A)
                 (A) (A) (A) (A) (A) (A) (A) (A) (A) (A) (A) (A)
                 (A) (A) (A) (A) (A) (A) (A) (A) (A) (A) (A) (A)
                 (A) (A) (A) (A) (A) (A) (A) (A) (A) (A) (A) (A)
                 (A) (A) (A) (A) (A) (A) (A) (A) (A) (A) (A) (A)
                 (A) (A) (A) (A) (A) (A) (A) (A) (A) (A) (A) (A)
                 (A) (A) (A) (A) (A) (A) (A) (A) (A) (A) (A) (A)
                 (A) (A) (A) (A) (A) (A) (A) (A) (A) (A) (A) (A)
                 (A) (A) (A) (A) (A) (A) (A) (A) (A) (A) (A) (A)
                 (A) (A) (A) (A) (A) (A) (A) (A) (A) (A) (A) (A)
                 (A) (A) (A) (A) (A) (A) (A) (A) (A) (A) (A) (A)
                 (A) (A) (A) (A) (A) (A) (A) (A) (A) (A) (A) (A)
    20 initial guesses have been made.
 Convergence on wavefunction:    0.001000000000000
 Davidson Disk Diagonalization:  ConvIn= 1.00D-03 SkipCon=T Conv= 1.00D-03.
 Max sub-space:  2000 roots to seek:    20 dimension of matrix:       549360
 Iteration     1 Dimension    20 NMult     0 NNew     20
 CISAX will form    20 AO SS matrices at one time.
 NMat=    20 NSing=    20 JSym2X= 0.
 FoFJK:  IHMeth= 1 ICntrl=       0 DoSepK=T KAlg= 0 I1Cent=           0 FoldK=F
 IRaf=         1 NMat=      40 IRICut=       1 DoRegI=T DoRafI=F ISym2E= 0 IDoP0=3 IntGTp=3.
 FoFCou: FMM=T IPFlag=           0 FMFlag=      100000 FMFlg1=        2001
         NFxFlg=           0 DoJE=F BraDBF=F KetDBF=F FulRan=T
         wScrn=  0.000000 ICntrl=       500 IOpCl=  0 I1Cent=           0 NGrid=           0
         NMat0=   20 NMatS0=     20 NMatT0=    0 NMatD0=   20 NMtDS0=    0 NMtDT0=    0
 Symmetry not used in FoFCou.
 FMM levels:  10  Number of levels for PrismC:   9
 New state      2 was old state      4
 New state      3 was old state      8
 New state      4 was old state      5
 New state      5 was old state      2
 Excitation Energies [eV] at current iteration:
 Root      1 :     2.583023036513318
 Root      2 :     2.593381351563541
 Root      3 :     2.610871607421106
 Root      4 :     2.617020297625892
 Root      5 :     2.644337866169762
 Root      6 :     2.728605855228232
 Root      7 :     3.382864836075657
 Root      8 :     3.385038974036879
 Root      9 :     3.623553027898002
 Root     10 :     3.666510285808319
 Root     11 :     3.741536279134028
 Root     12 :     3.761743180465728
 Root     13 :     4.272484523199324
 Root     14 :     4.331999841708130
 Root     15 :     4.498963117709229
 Root     16 :     4.505240880518142
 Root     17 :     4.793107813216289
 Root     18 :     4.807423247074723
 Root     19 :     4.822415296179935
 Root     20 :     4.842069819761920
 Iteration     2 Dimension    30 NMult    20 NNew     10
 CISAX will form    10 AO SS matrices at one time.
 NMat=    10 NSing=    10 JSym2X= 0.
 New state      1 was old state      5
 Root      1 not converged, maximum delta is    0.198874967901281
 New state      2 was old state      4
 Root      2 not converged, maximum delta is    0.330873052203456
 Root      3 not converged, maximum delta is    0.410790875615310
 New state      4 was old state      1
 Root      4 not converged, maximum delta is    0.002306639000063
 New state      5 was old state      2
 Root      5 not converged, maximum delta is    0.004479888858547
 Excitation Energies [eV] at current iteration:
 Root      1 :     1.780556307088729   Change is   -0.863781559081033
 Root      2 :     2.229829793073375   Change is   -0.387190504552517
 Root      3 :     2.239901182629974   Change is   -0.370970424791132
 Root      4 :     2.582658724778381   Change is   -0.000364311734936
 Root      5 :     2.592911216267714   Change is   -0.000470135295827
 Iteration     3 Dimension    40 NMult    30 NNew     10
 CISAX will form    10 AO SS matrices at one time.
 NMat=    10 NSing=    10 JSym2X= 0.
 Root      1 not converged, maximum delta is    0.053889139149241
 Root      2 not converged, maximum delta is    0.110869267652220
 Root      3 not converged, maximum delta is    0.106964833148138
 Root      4 has converged.
 Root      5 not converged, maximum delta is    0.001171270446905
 Excitation Energies [eV] at current iteration:
 Root      1 :     1.675129312421927   Change is   -0.105426994666802
 Root      2 :     2.175093992788864   Change is   -0.054735800284512
 Root      3 :     2.197445516763888   Change is   -0.042455665866086
 Root      4 :     2.582656611710178   Change is   -0.000002113068204
 Root      5 :     2.592907512241144   Change is   -0.000003704026570
 Iteration     4 Dimension    48 NMult    40 NNew      8
 CISAX will form     8 AO SS matrices at one time.
 NMat=     8 NSing=     8 JSym2X= 0.
 Root      1 not converged, maximum delta is    0.010227378762958
 Root      2 not converged, maximum delta is    0.480034130209063
 Root      3 not converged, maximum delta is    0.446724664666968
 No map to state      4
 New state      5 was old state      4
 Root      5 has converged.
 Excitation Energies [eV] at current iteration:
 Root      1 :     1.658469278068370   Change is   -0.016660034353558
 Root      2 :     1.812180213458418   Change is   -0.362913779330446
 Root      3 :     2.186075830063864   Change is   -0.011369686700025
 Root      4 :     2.197637946435157
 Root      5 :     2.582656741576168   Change is    0.000000129865990
 Iteration     5 Dimension    56 NMult    48 NNew      8
 CISAX will form     8 AO SS matrices at one time.
 NMat=     8 NSing=     8 JSym2X= 0.
 Root      1 not converged, maximum delta is    0.001601566410235
 Root      2 not converged, maximum delta is    0.035301927347748
 Root      3 not converged, maximum delta is    0.131914971144426
 Root      4 not converged, maximum delta is    0.130887906229379
 Root      5 has converged.
 Excitation Energies [eV] at current iteration:
 Root      1 :     1.656741286281658   Change is   -0.001727991786711
 Root      2 :     1.711394116427794   Change is   -0.100786097030624
 Root      3 :     2.183442735807743   Change is   -0.002633094256121
 Root      4 :     2.193760106224576   Change is   -0.003877840210581
 Root      5 :     2.582656739426934   Change is   -0.000000002149234
 Iteration     6 Dimension    64 NMult    56 NNew      8
 CISAX will form     8 AO SS matrices at one time.
 NMat=     8 NSing=     8 JSym2X= 0.
 Root      1 has converged.
 Root      2 not converged, maximum delta is    0.007670856094222
 Root      3 not converged, maximum delta is    0.015100152173822
 Root      4 not converged, maximum delta is    0.015194610844600
 Root      5 has converged.
 Excitation Energies [eV] at current iteration:
 Root      1 :     1.656494724852122   Change is   -0.000246561429536
 Root      2 :     1.697195618556949   Change is   -0.014198497870845
 Root      3 :     2.183061199286135   Change is   -0.000381536521609
 Root      4 :     2.193346997455436   Change is   -0.000413108769139
 Root      5 :     2.582656738355420   Change is   -0.000000001071513
 Iteration     7 Dimension    70 NMult    64 NNew      6
 CISAX will form     6 AO SS matrices at one time.
 NMat=     6 NSing=     6 JSym2X= 0.
 Root      1 has converged.
 Root      2 not converged, maximum delta is    0.002187563926578
 Root      3 not converged, maximum delta is    0.001115270228556
 Root      4 not converged, maximum delta is    0.001135928350056
 Root      5 has converged.
 Excitation Energies [eV] at current iteration:
 Root      1 :     1.656493585022258   Change is   -0.000001139829864
[...]
 Alpha virt. eigenvalues --    1.83603   1.83960   1.84007   1.84226   1.84283
 Alpha virt. eigenvalues --    1.84655   1.84665   1.84878   1.84995   1.85292
 Alpha virt. eigenvalues --    1.85328   1.85380   1.85472   1.85584   1.85646
 Alpha virt. eigenvalues --    1.86015   1.86075   1.86503   1.86569   1.86737
 Alpha virt. eigenvalues --    1.86749   1.86961   1.86984   1.87192   1.87252
 Alpha virt. eigenvalues --    1.87593   1.87653   1.87860   1.87866   1.88068
 Alpha virt. eigenvalues --    1.88118   1.88243   1.88277   1.88658   1.88725
 Alpha virt. eigenvalues --    1.88997   1.89022   1.89200   1.89343   1.89728
 Alpha virt. eigenvalues --    1.89806   1.89935   1.89966   1.90273   1.90306
 Alpha virt. eigenvalues --    1.90944   1.90988   1.91531   1.91535   1.91626
 Alpha virt. eigenvalues --    1.91674   1.92280   1.92356   1.92759   1.92802
 Alpha virt. eigenvalues --    1.93183   1.93254   1.93551   1.93624   1.94445
 Alpha virt. eigenvalues --    1.94505   1.94877   1.94902   1.95694   1.95734
 Alpha virt. eigenvalues --    1.95912   1.95918   1.96167   1.96180   1.96265
 Alpha virt. eigenvalues --    1.96376   1.96616   1.96805   1.97022   1.97091
 Alpha virt. eigenvalues --    1.97657   1.97660   1.97914   1.98054   1.98265
 Alpha virt. eigenvalues --    1.98362   1.98444   1.98827   1.99165   1.99314
 Alpha virt. eigenvalues --    1.99997   2.00010   2.00841   2.00870   2.01175
 Alpha virt. eigenvalues --    2.01186   2.01635   2.01647   2.01687   2.01887
 Alpha virt. eigenvalues --    2.01893   2.01910   2.02802   2.02973   2.03247
 Alpha virt. eigenvalues --    2.03432   2.03464   2.03582   2.03610   2.03667
 Alpha virt. eigenvalues --    2.04122   2.04223   2.05074   2.05155   2.05707
 Alpha virt. eigenvalues --    2.05720   2.06260   2.06359   2.07070   2.07109
 Alpha virt. eigenvalues --    2.07388   2.07458   2.08614   2.08766   2.09101
 Alpha virt. eigenvalues --    2.09173   2.09702   2.09771   2.11006   2.11178
 Alpha virt. eigenvalues --    2.11381   2.11510   2.11611   2.11715   2.11917
 Alpha virt. eigenvalues --    2.11945   2.12549   2.12650   2.12905   2.12975
 Alpha virt. eigenvalues --    2.12999   2.13038   2.13705   2.13936   2.14341
 Alpha virt. eigenvalues --    2.14356   2.15509   2.15531   2.16109   2.16173
 Alpha virt. eigenvalues --    2.16692   2.16729   2.16957   2.17278   2.17608
 Alpha virt. eigenvalues --    2.17746   2.17891   2.18017   2.18141   2.18289
 Alpha virt. eigenvalues --    2.18489   2.18741   2.19042   2.19318   2.19825
 Alpha virt. eigenvalues --    2.19904   2.20222   2.20345   2.20412   2.20519
 Alpha virt. eigenvalues --    2.21311   2.21377   2.21853   2.21855   2.21933
 Alpha virt. eigenvalues --    2.21958   2.22801   2.22883   2.23468   2.23529
 Alpha virt. eigenvalues --    2.24553   2.24595   2.25128   2.25196   2.26478
 Alpha virt. eigenvalues --    2.26526   2.26975   2.27098   2.27285   2.27294
 Alpha virt. eigenvalues --    2.28325   2.28398   2.29464   2.29532   2.29920
 Alpha virt. eigenvalues --    2.29967   2.30634   2.30692   2.30884   2.31263
 Alpha virt. eigenvalues --    2.31310   2.31350   2.32318   2.32335   2.33308
 Alpha virt. eigenvalues --    2.33315   2.33598   2.33663   2.34253   2.34349
 Alpha virt. eigenvalues --    2.35374   2.35535   2.35978   2.35985   2.36413
 Alpha virt. eigenvalues --    2.36572   2.36580   2.36812   2.37815   2.37888
 Alpha virt. eigenvalues --    2.38445   2.38459   2.38846   2.39025   2.39755
 Alpha virt. eigenvalues --    2.39797   2.40393   2.40398   2.40668   2.40900
 Alpha virt. eigenvalues --    2.41292   2.41444   2.41830   2.41908   2.42205
 Alpha virt. eigenvalues --    2.42213   2.42952   2.43109   2.43161   2.43653
 Alpha virt. eigenvalues --    2.44043   2.44330   2.44887   2.44915   2.45077
 Alpha virt. eigenvalues --    2.45089   2.45664   2.45752   2.46344   2.46480
 Alpha virt. eigenvalues --    2.46582   2.46669   2.46883   2.46981   2.47455
 Alpha virt. eigenvalues --    2.47486   2.47908   2.47981   2.49479   2.49501
 Alpha virt. eigenvalues --    2.50046   2.50294   2.50558   2.50773   2.51298
 Alpha virt. eigenvalues --    2.51341   2.51688   2.52064   2.52456   2.52608
 Alpha virt. eigenvalues --    2.52992   2.53238   2.54046   2.54112   2.54317
 Alpha virt. eigenvalues --    2.54328   2.54906   2.54986   2.55703   2.55743
 Alpha virt. eigenvalues --    2.58049   2.58151   2.58836   2.58984   2.60365
 Alpha virt. eigenvalues --    2.60380   2.60784   2.60984   2.61898   2.61900
 Alpha virt. eigenvalues --    2.62502   2.62714   2.63148   2.63212   2.64118
 Alpha virt. eigenvalues --    2.64284   2.64466   2.64551   2.65190   2.65276
 Alpha virt. eigenvalues --    2.65918   2.65956   2.66949   2.66998   2.67102
 Alpha virt. eigenvalues --    2.67134   2.68070   2.68109   2.68902   2.69039
 Alpha virt. eigenvalues --    2.69094   2.69200   2.69615   2.69692   2.70204
 Alpha virt. eigenvalues --    2.70249   2.71144   2.71173   2.71957   2.72224
 Alpha virt. eigenvalues --    2.72553   2.72798   2.72829   2.72972   2.73408
 Alpha virt. eigenvalues --    2.73501   2.73520   2.73672   2.74597   2.74706
 Alpha virt. eigenvalues --    2.75123   2.75159   2.76621   2.76799   2.77145
 Alpha virt. eigenvalues --    2.77421   2.77629   2.77648   2.78326   2.78352
 Alpha virt. eigenvalues --    2.78761   2.78906   2.79208   2.79315   2.80298
 Alpha virt. eigenvalues --    2.80510   2.80742   2.80751   2.81222   2.81304
 Alpha virt. eigenvalues --    2.82047   2.82115   2.82417   2.82541   2.83895
 Alpha virt. eigenvalues --    2.83928   2.83943   2.83967   2.84608   2.84746
 Alpha virt. eigenvalues --    2.84982   2.85090   2.85743   2.85848   2.86728
 Alpha virt. eigenvalues --    2.87174   2.87225   2.87758   2.88269   2.88324
 Alpha virt. eigenvalues --    2.88718   2.88719   2.88952   2.89131   2.90691
 Alpha virt. eigenvalues --    2.90745   2.91149   2.91398   2.93335   2.93381
 Alpha virt. eigenvalues --    2.93841   2.94393   2.94658   2.94754   2.95518
 Alpha virt. eigenvalues --    2.95532   2.95868   2.96345   2.96474   2.96656
 Alpha virt. eigenvalues --    2.96930   2.97332   2.97970   2.98084   2.98376
 Alpha virt. eigenvalues --    2.98398   2.98575   2.98632   2.98803   2.98868
 Alpha virt. eigenvalues --    2.99007   2.99068   2.99810   2.99909   3.00064
 Alpha virt. eigenvalues --    3.00185   3.00401   3.00419   3.00636   3.01057
 Alpha virt. eigenvalues --    3.02020   3.02142   3.02186   3.02213   3.02838
 Alpha virt. eigenvalues --    3.02861   3.03151   3.03345   3.03503   3.03783
 Alpha virt. eigenvalues --    3.04143   3.04400   3.04539   3.04669   3.04780
 Alpha virt. eigenvalues --    3.04851   3.05408   3.05482   3.06215   3.06296
 Alpha virt. eigenvalues --    3.06974   3.06993   3.07971   3.08334   3.09415
 Alpha virt. eigenvalues --    3.09568   3.09860   3.10464   3.10620   3.10788
 Alpha virt. eigenvalues --    3.11516   3.11538   3.12062   3.12105   3.12348
 Alpha virt. eigenvalues --    3.12438   3.13461   3.13698   3.13763   3.13850
 Alpha virt. eigenvalues --    3.14231   3.14504   3.16154   3.16173   3.17461
 Alpha virt. eigenvalues --    3.17590   3.17915   3.18255   3.19092   3.19319
 Alpha virt. eigenvalues --    3.22448   3.22636   3.24141   3.24502   3.24855
 Alpha virt. eigenvalues --    3.25252   3.26705   3.26727   3.27458   3.27814
 Alpha virt. eigenvalues --    3.29240   3.29257   3.31439   3.31715   3.33250
 Alpha virt. eigenvalues --    3.33615   3.40283   3.40752   3.42846   3.42988
 Alpha virt. eigenvalues --    3.48762   3.48852   3.50221   3.50349   3.50895
 Alpha virt. eigenvalues --    3.51667   3.56744   3.57064   3.59304   3.59414
 Alpha virt. eigenvalues --    3.62577   3.63029   3.66123   3.66342   3.67321
 Alpha virt. eigenvalues --    3.67573   3.73422   3.74064   3.76221   3.76728
          Condensed to atoms (all electrons):
 Mulliken charges:
               1
     1  Mg   0.839393
     2  C   -0.003184
     3  C   -0.094023
     4  C   -0.045957
     5  C   -0.063245
     6  N   -0.256759
     7  C   -0.052429
     8  C   -0.014121
     9  C   -0.087016
    10  C    0.046250
    11  C    0.104885
    12  C    0.053462
    13  C   -0.071358
    14  H    0.034766
    15  N   -0.432992
    16  C    0.168401
    17  C   -0.177200
    18  C   -0.004291
    19  C    0.148659
    20  C    0.110190
    21  C    0.011945
    22  O   -0.250297
    23  C    0.062540
    24  N   -0.341247
    25  C    0.041322
    26  C   -0.027912
    27  C   -0.024114
    28  C    0.075165
    29  C    0.076356
    30  C    0.034962
    31  C   -0.004752
    32  N   -0.310662
    33  C    0.080977
    34  C   -0.168521
    35  C    0.008325
    36  C    0.083510
    37  C    0.127106
    38  C    0.046413
    39  O   -0.188455
    40  C   -0.005541
    41  C    0.212981
    42  O   -0.257431
    43  O   -0.304658
    44  C    0.158047
    45  H   -0.017953
    46  H   -0.017315
    47  H   -0.040804
    48  H    0.000655
    49  H   -0.004094
    50  H    0.025296
    51  H    0.016428
    52  H    0.016361
    53  H    0.011850
    54  H    0.043664
    55  H    0.017792
    56  H    0.018270
    57  H    0.005854
    58  H    0.026269
    59  H    0.039720
    60  H    0.037365
    61  H    0.034559
    62  H    0.031566
    63  H    0.016303
    64  H    0.009135
    65  H    0.022630
    66  H    0.012228
    67  H    0.004578
    68  H    0.005491
    69  H    0.005476
    70  H    0.007323
    71  H    0.021810
    72  H    0.029313
    73  H    0.048586
    74  H    0.009995
    75  H    0.045484
    76  H    0.034923
    77  H    0.042879
    78  H    0.046221
    79  H    0.052657
    80  Mg   0.838448
    81  C   -0.017028
    82  C   -0.087911
    83  C   -0.045683
    84  C   -0.063929
    85  N   -0.254548
    86  C   -0.049773
    87  C   -0.015131
    88  C   -0.090476
    89  C    0.045637
    90  C    0.114477
    91  C    0.062544
    92  C   -0.077609
    93  H    0.034202
    94  N   -0.423322
    95  C    0.162784
    96  C   -0.174881
    97  C   -0.008269
    98  C    0.152001
    99  C    0.099438
   100  C    0.015020
   101  O   -0.254149
   102  C    0.061381
   103  N   -0.350226
   104  C    0.037648
   105  C   -0.019470
   106  C   -0.034969
   107  C    0.089420
   108  C    0.073947
   109  C    0.034565
   110  C   -0.008635
   111  N   -0.324381
   112  C    0.079276
   113  C   -0.161633
   114  C    0.002192
   115  C    0.096819
   116  C    0.131271
   117  C    0.042796
   118  O   -0.187721
   119  C    0.000705
   120  C    0.211288
   121  O   -0.250906
   122  O   -0.305659
   123  C    0.152242
   124  H   -0.020137
   125  H   -0.016277
   126  H   -0.039400
   127  H   -0.000882
   128  H   -0.004527
   129  H    0.022285
   130  H    0.014352
   131  H    0.015910
   132  H    0.014219
   133  H    0.037603
   134  H    0.020637
   135  H    0.019619
   136  H    0.008659
   137  H    0.025511
   138  H    0.039522
   139  H    0.038323
   140  H    0.034990
   141  H    0.033755
   142  H    0.013946
   143  H    0.011919
   144  H    0.024237
   145  H    0.011249
   146  H    0.005444
   147  H    0.004692
   148  H    0.004751
   149  H    0.008342
   150  H    0.025056
   151  H    0.030174
   152  H    0.047259
   153  H    0.009792
   154  H    0.046290
   155  H    0.034724
   156  H    0.043737
   157  H    0.049277
   158  H    0.053158
 Sum of Mulliken charges =  -0.00000
 Mulliken charges with hydrogens summed into heavy atoms:
               1
     1  Mg   0.839393
     2  C   -0.003184
     3  C   -0.111976
     4  C   -0.063272
     5  C   -0.104049
     6  N   -0.256759
     7  C   -0.052429
     8  C   -0.013465
     9  C   -0.091111
    10  C    0.046250
    11  C    0.162970
    12  C    0.108975
    13  C   -0.000529
    15  N   -0.432992
    16  C    0.168401
    17  C   -0.177200
    18  C   -0.004291
    19  C    0.148659
    20  C    0.182033
    21  C    0.011945
    22  O   -0.250297
    23  C    0.166030
    24  N   -0.341247
    25  C    0.041322
    26  C   -0.011610
    27  C   -0.014979
    28  C    0.075165
    29  C    0.115793
    30  C    0.045929
    31  C    0.053694
    32  N   -0.310662
    33  C    0.080977
    34  C   -0.168521
    35  C    0.008325
    36  C    0.083510
    37  C    0.231171
    38  C    0.046413
    39  O   -0.188455
    40  C    0.029382
    41  C    0.212981
    42  O   -0.257431
    43  O   -0.304658
    44  C    0.299804
    80  Mg   0.838448
    81  C   -0.017028
    82  C   -0.108048
    83  C   -0.061960
    84  C   -0.103329
    85  N   -0.254548
    86  C   -0.049773
    87  C   -0.016013
    88  C   -0.095004
    89  C    0.045637
    90  C    0.167024
    91  C    0.114366
    92  C   -0.003152
    94  N   -0.423322
    95  C    0.162784
    96  C   -0.174881
    97  C   -0.008269
    98  C    0.152001
    99  C    0.173130
   100  C    0.015020
   101  O   -0.254149
   102  C    0.168448
   103  N   -0.350226
   104  C    0.037648
   105  C   -0.005524
   106  C   -0.023050
   107  C    0.089420
   108  C    0.114877
   109  C    0.044008
   110  C    0.054936
   111  N   -0.324381
   112  C    0.079276
   113  C   -0.161633
   114  C    0.002192
   115  C    0.096819
   116  C    0.234612
   117  C    0.042796
   118  O   -0.187721
   119  C    0.035428
   120  C    0.211288
   121  O   -0.250906
   122  O   -0.305659
   123  C    0.298415
 Electronic spatial extent (au):  <R**2>=         118544.4001
 Charge=             -0.0000 electrons
 Dipole moment (field-independent basis, Debye):
    X=              0.0130    Y=             -0.5411    Z=              7.0132  Tot=              7.0341
 Quadrupole moment (field-independent basis, Debye-Ang):
   XX=           -460.9355   YY=           -470.5916   ZZ=           -539.1532
   XY=             27.5994   XZ=             -0.9386   YZ=              8.6005
 Traceless Quadrupole moment (field-independent basis, Debye-Ang):
   XX=             29.2913   YY=             19.6352   ZZ=            -48.9264
   XY=             27.5994   XZ=             -0.9386   YZ=              8.6005
 Octapole moment (field-independent basis, Debye-Ang**2):
  XXX=            -50.2450  YYY=            114.8510  ZZZ=            348.3370  XYY=            -49.1526
  XXY=            -65.6349  XXZ=            339.6866  XZZ=             43.2785  YZZ=           -117.5343
  YYZ=           -302.0987  XYZ=            217.2011
 Hexadecapole moment (field-independent basis, Debye-Ang**3):
 XXXX=         -93314.7893 YYYY=         -31313.0856 ZZZZ=         -32694.0905 XXXY=           2175.3717
 XXXZ=            -20.2330 YYYX=           1066.6381 YYYZ=            358.5832 ZZZX=            112.6109
 ZZZY=            -45.4299 XXYY=         -20295.5141 XXZZ=         -21858.5778 YYZZ=         -11141.7912
 XXYZ=            421.8510 YYXZ=              8.9070 ZZXY=            429.4275
 N-N= 1.485238649703D+04 E-N=-3.918653240976D+04  KE= 4.028801833406D+03
 Leave Link  601 at Fri Sep 10 12:55:57 2021, MaxMem= 23488102400 cpu:              17.1 elap:               0.8
 (Enter /sw/apps/gaussian-16.0/g16/l9999.exe)
 1\1\GINC-BP1-COMPUTE00091\SP\RCAM-B3LYP TD-FC\def2SVP\C68H72Mg2N8O8\OF
 15641\10-Sep-2021\0\\#p cam-b3lyp/Def2SVP td=(nstates=5)\\TDDFT excite
 d states in gaussian\\0,1\Mg,0,0.,0.,0.\C,0,-0.217,-2.218,2.801\C,0,-1
 .255,2.442,2.026\C,0,-0.245,1.85,-2.564\C,0,0.146,-2.824,-2.037\N,0,-0
 .617,-0.009,2.126\C,0,-0.594,-0.908,3.105\C,0,-0.936,-0.309,4.502\C,0,
 -1.773,0.964,4.032\C,0,-1.155,1.168,2.66\C,0,-3.263,0.685,3.863\C,0,0.
 345,0.11,5.299\C,0,0.124,0.397,6.787\H,0,1.168,0.033,7.733\N,0,-0.185,
 1.961,-0.152\C,0,-0.703,2.8,0.777\C,0,-0.62,4.156,0.193\C,0,-0.187,4.0
 15,-1.225\C,0,-0.214,2.583,-1.38\C,0,-0.887,5.406,0.974\C,0,0.181,5.01
 3,-2.277\O,0,0.303,4.69,-3.508\C,0,0.31,6.414,-1.837\N,0,-0.265,-0.413
 ,-2.029\C,0,-0.279,0.569,-2.937\C,0,-0.196,0.024,-4.332\C,0,0.124,-1.5
 33,-4.18\C,0,0.086,-1.632,-2.635\C,0,-1.451,0.205,-5.197\C,0,1.373,-2.
 07,-4.923\C,0,2.626,-1.49,-4.306\N,0,0.15,-2.144,0.303\C,0,0.173,-3.13
 6,-0.688\C,0,0.173,-4.438,0.004\C,0,0.133,-4.111,1.358\C,0,0.083,-2.69
 5,1.502\C,0,0.149,-5.715,-0.623\C,0,0.096,-4.629,2.716\O,0,0.208,-5.74
 7,3.221\C,0,-0.255,-3.428,3.701\C,0,0.717,-3.482,4.848\O,0,1.931,-3.25
 5,4.669\O,0,0.038,-3.556,6.003\C,0,0.943,-3.583,7.183\H,0,-1.859,3.22,
 2.497\H,0,-0.218,2.453,-3.474\H,0,0.276,-3.747,-2.605\H,0,-1.554,-0.94
 9,5.132\H,0,-1.585,1.831,4.665\H,0,-3.484,-0.377,3.969\H,0,-3.511,1.02
 7,2.858\H,0,-3.852,1.301,4.543\H,0,0.669,1.096,4.966\H,0,1.13,-0.639,5
 .189\H,0,-0.844,0.026,7.125\H,0,0.062,1.477,6.921\H,0,-1.344,5.186,1.9
 38\H,0,-1.651,5.963,0.432\H,0,0.007,6.02,1.084\H,0,-0.635,6.744,-1.405
 \H,0,0.665,6.97,-2.704\H,0,1.048,6.466,-1.036\H,0,0.608,0.501,-4.891\H
 ,0,-0.692,-2.156,-4.547\H,0,-1.267,0.74,-6.129\H,0,-2.204,0.714,-4.596
 \H,0,-1.967,-0.72,-5.453\H,0,1.356,-1.759,-5.967\H,0,1.452,-3.157,-4.9
 02\H,0,2.714,-0.522,-4.798\H,0,3.487,-2.121,-4.529\H,0,2.495,-1.303,-3
 .24\H,0,0.867,-6.333,-0.084\H,0,0.404,-5.642,-1.68\H,0,-0.891,-5.999,-
 0.463\H,0,-1.283,-3.581,4.028\H,0,0.698,-4.478,7.755\H,0,0.833,-2.619,
 7.68\H,0,2.,-3.754,6.976\Mg,0,10.5052,0.94847,0.78975\C,0,11.52485,-1.
 72451,-1.37694\C,0,11.73591,3.11006,-1.54423\C,0,10.03136,3.30206,2.86
 424\C,0,10.41281,-1.37602,3.38473\N,0,11.48005,0.61497,-1.16746\C,0,11
 .75865,-0.44203,-1.91546\C,0,12.24442,-0.10438,-3.35058\C,0,12.80367,1
 .37522,-3.07327\C,0,11.93194,1.74542,-1.87506\C,0,14.25736,1.39603,-2.
 63091\C,0,11.06997,-0.0889,-4.39099\C,0,11.50946,-0.0722,-5.85671\H,0,
 10.70322,-0.79917,-6.83342\N,0,10.37883,2.908,0.50198\C,0,10.91899,3.6
 1828,-0.51046\C,0,10.55694,5.02119,-0.25569\C,0,9.89931,5.10136,1.0769
 1\C,0,10.10075,3.74723,1.55215\C,0,10.76868,6.11232,-1.26466\C,0,9.215
 07,6.21617,1.80848\O,0,8.92624,6.12676,3.05404\C,0,8.97731,7.45121,1.0
 4713\N,0,10.46261,1.00939,2.86745\C,0,10.18301,2.15129,3.52\C,0,9.9370
 1,1.89465,4.98766\C,0,9.87142,0.30408,5.14058\C,0,10.19379,-0.10348,3.
 68615\C,0,10.98758,2.45492,5.94619\C,0,8.60006,-0.28681,5.80928\C,0,7.
 3991,-0.06899,4.91729\N,0,10.71079,-1.19508,0.96584\C,0,10.66331,-1.96
 206,2.15056\C,0,10.96966,-3.35836,1.77781\C,0,11.19855,-3.30241,0.3947
 1\C,0,11.06549,-1.96225,-0.0589\C,0,11.0552,-4.45945,2.67581\C,0,11.53
 292,-4.07059,-0.78291\O,0,11.67727,-5.26779,-1.02706\C,0,11.88336,-3.0
 6278,-1.961\C,0,11.14338,-3.51119,-3.19139\O,0,9.90072,-3.47899,-3.228
 45\O,0,12.02367,-3.69655,-4.19194\C,0,11.33616,-4.13127,-5.437\H,0,12.
 29255,3.86412,-2.10139\H,0,9.76033,4.058,3.6049\H,0,10.30757,-2.17657,
 4.12007\H,0,13.04006,-0.73907,-3.72193\H,0,12.60135,2.03741,-3.91108\H
 ,0,14.64124,0.401,-2.46153\H,0,14.27766,1.97052,-1.71407\H,0,14.86236,
 1.95519,-3.35039\H,0,10.55705,0.88001,-4.33758\H,0,10.40171,-0.91109,-
 4.22347\H,0,12.57097,-0.32307,-5.97163\H,0,11.4342,0.95205,-6.2299\H,0
 ,11.42154,5.78289,-2.08238\H,0,11.33756,6.90388,-0.76499\H,0,9.83065,6
 .53127,-1.63513\H,0,9.92598,7.84097,0.68577\H,0,8.39963,8.09719,1.7111
 1\H,0,8.37972,7.20687,0.16181\H,0,8.99012,2.31713,5.30072\H,0,10.69257
 ,-0.07954,5.76378\H,0,10.56465,3.13919,6.70578\H,0,11.74814,2.95723,5.
 3633\H,0,11.56627,1.70698,6.48555\H,0,8.38875,0.23331,6.74682\H,0,8.68
 453,-1.34368,6.03928\H,0,7.09505,0.95404,5.15825\H,0,6.61139,-0.78115,
 5.15471\H,0,7.68608,-0.08708,3.85948\H,0,10.54294,-5.28703,2.20336\H,0
 ,10.61704,-4.21925,3.64229\H,0,12.14032,-4.57876,2.7353\H,0,12.96462,-
 3.08693,-2.10201\H,0,11.80579,-5.06869,-5.75065\H,0,11.40819,-3.27431,
 -6.13283\H,0,10.29779,-4.43114,-5.35759\\Version=ES64L-G16RevA.03\Stat
 e=1-A\HF=-4069.8118429\RMSD=5.857e-09\PG=C01 [X(C68H72Mg2N8O8)]\\@


 IF IT'S NOT TRUE, IT'S WELL INVENTED -- DANTE
 Job cpu time:       0 days 14 hours 10 minutes 20.1 seconds.
 Elapsed time:       0 days  0 hours 36 minutes  4.9 seconds.
 File lengths (MBytes):  RWF=  13225 Int=      0 D2E=      0 Chk=    574 Scr=      1
 Normal termination of Gaussian 16 at Fri Sep 10 12:55:57 2021.
