 Entering Gaussian System, Link 0=g16
 Initial command:
 /sw/apps/gaussian-16.0/g16/l1.exe "/tmp/Gau-223097.inp" -scrdir="/tmp/"
 Entering Link 1 = /sw/apps/gaussian-16.0/g16/l1.exe PID=    223098.
  
 Copyright (c) 1988,1990,1992,1993,1995,1998,2003,2009,2016,
            Gaussian, Inc.  All Rights Reserved.
  
 This is part of the Gaussian(R) 16 program.  It is based on
 the Gaussian(R) 09 system (copyright 2009, Gaussian, Inc.),
 the Gaussian(R) 03 system (copyright 2003, Gaussian, Inc.),
 the Gaussian(R) 98 system (copyright 1998, Gaussian, Inc.),
 the Gaussian(R) 94 system (copyright 1995, Gaussian, Inc.),
 the Gaussian 92(TM) system (copyright 1992, Gaussian, Inc.),
 the Gaussian 90(TM) system (copyright 1990, Gaussian, Inc.),
 the Gaussian 88(TM) system (copyright 1988, Gaussian, Inc.),
 the Gaussian 86(TM) system (copyright 1986, Carnegie Mellon
 University), and the Gaussian 82(TM) system (copyright 1983,
 Carnegie Mellon University). Gaussian is a federally registered
 trademark of Gaussian, Inc.
  
 This software contains proprietary and confidential information,
 including trade secrets, belonging to Gaussian, Inc.
  
 This software is provided under written license and may be
 used, copied, transmitted, or stored only in accord with that
 written license.
  
 The following legend is applicable only to US Government
 contracts under FAR:
  
                    RESTRICTED RIGHTS LEGEND
  
 Use, reproduction and disclosure by the US Government is
 subject to restrictions as set forth in subparagraphs (a)
 and (c) of the Commercial Computer Software - Restricted
 Rights clause in FAR 52.227-19.
  
 Gaussian, Inc.
 340 Quinnipiac St., Bldg. 40, Wallingford CT 06492
  
  
 ---------------------------------------------------------------
 Warning -- This program may not be used in any manner that
 competes with the business of Gaussian, Inc. or will provide
 assistance to any competitor of Gaussian, Inc.  The licensee
 of this program is prohibited from giving any competitor of
 Gaussian, Inc. access to this program.  By using this program,
 the user acknowledges that Gaussian, Inc. is engaged in the
 business of creating and licensing software in the field of
 computational chemistry and represents and warrants to the
 licensee that it is not a competitor of Gaussian, Inc. and that
 it will not use this program in any manner prohibited above.
 ---------------------------------------------------------------
  

 Cite this work as:
 Gaussian 16, Revision A.03,
 M. J. Frisch, G. W. Trucks, H. B. Schlegel, G. E. Scuseria, 
 M. A. Robb, J. R. Cheeseman, G. Scalmani, V. Barone, 
 G. A. Petersson, H. Nakatsuji, X. Li, M. Caricato, A. V. Marenich, 
 J. Bloino, B. G. Janesko, R. Gomperts, B. Mennucci, H. P. Hratchian, 
 J. V. Ortiz, A. F. Izmaylov, J. L. Sonnenberg, D. Williams-Young, 
 F. Ding, F. Lipparini, F. Egidi, J. Goings, B. Peng, A. Petrone, 
 T. Henderson, D. Ranasinghe, V. G. Zakrzewski, J. Gao, N. Rega, 
 G. Zheng, W. Liang, M. Hada, M. Ehara, K. Toyota, R. Fukuda, 
 J. Hasegawa, M. Ishida, T. Nakajima, Y. Honda, O. Kitao, H. Nakai, 
 T. Vreven, K. Throssell, J. A. Montgomery, Jr., J. E. Peralta, 
 F. Ogliaro, M. J. Bearpark, J. J. Heyd, E. N. Brothers, K. N. Kudin, 
 V. N. Staroverov, T. A. Keith, R. Kobayashi, J. Normand, 
 K. Raghavachari, A. P. Rendell, J. C. Burant, S. S. Iyengar, 
 J. Tomasi, M. Cossi, J. M. Millam, M. Klene, C. Adamo, R. Cammi, 
 J. W. Ochterski, R. L. Martin, K. Morokuma, O. Farkas, 
 J. B. Foresman, and D. J. Fox, Gaussian, Inc., Wallingford CT, 2016.
 
 ******************************************
 Gaussian 16:  ES64L-G16RevA.03 25-Dec-2016
                12-Sep-2021 
 ******************************************
 %nproc=24
 Will use up to   24 processors via shared memory.
 %mem=175gb
 -----------------------------------
 #p cam-b3lyp/Def2SVP td=(nstates=5)
 -----------------------------------
 1/38=1,172=1/1;
 2/12=2,17=6,18=5,40=1/2;
 3/5=43,7=101,11=9,25=1,30=1,74=-40/1,2,3,8;
 4//1;
 5/5=2,38=5/2;
 8/6=1,10=1,108=5/1;
 9/41=5,42=1,70=2/14;
 6/7=2,8=2,9=2,10=2/1;
 99/5=1,9=1/99;
 Leave Link    1 at Sun Sep 12 03:50:38 2021, MaxMem= 23488102400 cpu:               0.7 elap:               0.0
 (Enter /sw/apps/gaussian-16.0/g16/l101.exe)
 --------------------------------
 TDDFT excited states in gaussian
 --------------------------------
 Symbolic Z-matrix:
 Charge =  0 Multiplicity = 1
 Mg                    0.        0.        0. 
 C                    -0.217    -2.218     2.801 
 C                    -1.255     2.442     2.026 
 C                    -0.245     1.85     -2.564 
 C                     0.146    -2.824    -2.037 
 N                    -0.617    -0.009     2.126 
 C                    -0.594    -0.908     3.105 
 C                    -0.936    -0.309     4.502 
 C                    -1.773     0.964     4.032 
 C                    -1.155     1.168     2.66 
 C                    -3.263     0.685     3.863 
 C                     0.345     0.11      5.299 
 C                     0.124     0.397     6.787 
 H                     1.168     0.033     7.733 
 N                    -0.185     1.961    -0.152 
 C                    -0.703     2.8       0.777 
 C                    -0.62      4.156     0.193 
 C                    -0.187     4.015    -1.225 
 C                    -0.214     2.583    -1.38 
 C                    -0.887     5.406     0.974 
 C                     0.181     5.013    -2.277 
 O                     0.303     4.69     -3.508 
 C                     0.31      6.414    -1.837 
 N                    -0.265    -0.413    -2.029 
 C                    -0.279     0.569    -2.937 
 C                    -0.196     0.024    -4.332 
 C                     0.124    -1.533    -4.18 
 C                     0.086    -1.632    -2.635 
 C                    -1.451     0.205    -5.197 
 C                     1.373    -2.07     -4.923 
 C                     2.626    -1.49     -4.306 
 N                     0.15     -2.144     0.303 
 C                     0.173    -3.136    -0.688 
 C                     0.173    -4.438     0.004 
 C                     0.133    -4.111     1.358 
 C                     0.083    -2.695     1.502 
 C                     0.149    -5.715    -0.623 
 C                     0.096    -4.629     2.716 
 O                     0.208    -5.747     3.221 
 C                    -0.255    -3.428     3.701 
 C                     0.717    -3.482     4.848 
 O                     1.931    -3.255     4.669 
 O                     0.038    -3.556     6.003 
 C                     0.943    -3.583     7.183 
 H                    -1.859     3.22      2.497 
 H                    -0.218     2.453    -3.474 
 H                     0.276    -3.747    -2.605 
 H                    -1.554    -0.949     5.132 
 H                    -1.585     1.831     4.665 
 H                    -3.484    -0.377     3.969 
 H                    -3.511     1.027     2.858 
 H                    -3.852     1.301     4.543 
 H                     0.669     1.096     4.966 
 H                     1.13     -0.639     5.189 
 H                    -0.844     0.026     7.125 
 H                     0.062     1.477     6.921 
 H                    -1.344     5.186     1.938 
 H                    -1.651     5.963     0.432 
 H                     0.007     6.02      1.084 
 H                    -0.635     6.744    -1.405 
 H                     0.665     6.97     -2.704 
 H                     1.048     6.466    -1.036 
 H                     0.608     0.501    -4.891 
 H                    -0.692    -2.156    -4.547 
 H                    -1.267     0.74     -6.129 
 H                    -2.204     0.714    -4.596 
 H                    -1.967    -0.72     -5.453 
 H                     1.356    -1.759    -5.967 
 H                     1.452    -3.157    -4.902 
 H                     2.714    -0.522    -4.798 
 H                     3.487    -2.121    -4.529 
 H                     2.495    -1.303    -3.24 
 H                     0.867    -6.333    -0.084 
 H                     0.404    -5.642    -1.68 
 H                    -0.891    -5.999    -0.463 
 H                    -1.283    -3.581     4.028 
 H                     0.698    -4.478     7.755 
 H                     0.833    -2.619     7.68 
 H                     2.       -3.754     6.976 
 Mg                    15.7736   1.4184    1.20526 
 C                     13.84547  -0.13297   3.80423 
 C                     16.34598   3.99077   3.37088 
 C                     17.09544   3.01534  -1.19681 
 C                     14.13471  -0.66113  -1.06085 
 N                     15.12633   1.76839   3.29112 
 C                     14.44742   1.08066   4.19691 
 C                     14.47901   1.69041   5.62406 
 C                     14.78284   3.21645   5.22688 
 C                     15.49524   2.98539   3.8958 
 C                     13.52743   4.03068   4.96168 
 C                     15.6275   1.08698   6.50659 
 C                     15.52666   1.40658   7.99972 
 H                     15.95636   0.39292   8.95905 
 N                     16.99831   2.97994   1.22096 
 C                     17.11703   3.91125   2.19042 
 C                     18.13776   4.85831   1.71568 
 C                     18.49309   4.50193   0.31516 
 C                     17.50607   3.47561   0.0458 
 C                     18.73339   5.92037   2.59356 
 C                     19.53885   5.01076  -0.63019 
 O                     19.51403   4.7244   -1.87927 
 C                     20.5393   5.92982  -0.06813 
 N                     15.4872   1.36071  -0.85313 
 C                     16.22966   2.12198  -1.67603 
 C                     16.04036   1.71232  -3.11711 
 C                     15.19783   0.3538   -3.07045 
 C                     14.95893   0.25637  -1.54768 
 C                     15.32233   2.72582  -4.00799 
 C                     15.8023  -0.87475  -3.80391 
 C                     17.05789  -1.33169  -3.09674 
 N                     14.40236  -0.24639   1.33267 
 C                     13.81946  -0.95539   0.25953 
 C                     12.86814  -1.92342   0.84293 
 C                     12.94724  -1.69277   2.22461 
 C                     13.86689  -0.64054   2.48262 
 C                     12.04238  -2.82257   0.11098 
 C                     12.45397  -2.09295   3.52278 
 O                     11.72238  -2.99233   3.93464 
 C                     12.91922  -1.01519   4.5944 
 C                     13.49032  -1.75103   5.77545 
 O                     14.53261  -2.41954   5.65991 
 O                     12.83829  -1.3703    6.88913 
 C                     13.37639  -2.06481   8.0891 
 H                     16.39745   4.94909   3.88844 
 H                     17.60469   3.45861  -2.05568 
 H                     13.65747  -1.41206  -1.69412 
 H                     13.54314   1.62655   6.16614 
 H                     15.45391   3.68469   5.94227 
 H                     12.63958   3.41603   4.96887 
 H                     13.66861   4.48006   3.98743 
 H                     13.46035   4.86148   5.66993 
 H                     16.5688   1.59866   6.26808 
 H                     15.69675   0.02554   6.36811 
 H                     14.53913   1.79882   8.27151 
 H                     16.21238   2.22666   8.22614 
 H                     18.15772   6.04703   3.51874 
 H                     18.61496   6.87373   2.0673 
 H                     19.79453   5.75604   2.79266 
 H                     20.03679   6.79865   0.35028 
 H                     21.25278   6.11335  -0.87383 
 H                     21.04646   5.4286    0.76385 
 H                     16.99402   1.51823  -3.59246 
 H                     14.20867   0.47159  -3.53683 
 H                     15.91363   3.02389  -4.89432 
 H                     15.07335   3.59127  -3.40838 
 H                     14.34686   2.40975  -4.37371 
 H                     16.09999  -0.60102  -4.81909 
 H                     15.11563  -1.71084  -3.88406 
 H                     17.82561  -0.66577  -3.50201 
 H                     17.27328  -2.37193  -3.33241 
 H                     16.99336  -1.1429   -2.01885 
 H                     12.09005  -3.77507   0.62182 
 H                     12.36789  -2.90869  -0.92362 
 H                     11.0777  -2.31534   0.19691 
 H                     12.044   -0.4233    4.865 
 H                     12.53222  -2.56416   8.57461 
 H                     13.90496  -1.28745   8.67225 
 H                     14.04972  -2.89816   7.92602 
 
 ITRead=  0  0  0  0  0  0  0  0  0  0  0  0  0  0  0  0  0  0  0  0
 ITRead=  0  0  0  0  0  0  0  0  0  0  0  0  0  0  0  0  0  0  0  0
 ITRead=  0  0  0  0  0  0  0  0  0  0  0  0  0  0  0  0  0  0  0  0
 ITRead=  0  0  0  0  0  0  0  0  0  0  0  0  0  0  0  0  0  0  0  0
 ITRead=  0  0  0  0  0  0  0  0  0  0  0  0  0  0  0  0  0  0  0  0
 ITRead=  0  0  0  0  0  0  0  0  0  0  0  0  0  0  0  0  0  0  0  0
 ITRead=  0  0  0  0  0  0  0  0  0  0  0  0  0  0  0  0  0  0  0  0
 ITRead=  0  0  0  0  0  0  0  0  0  0  0  0  0  0  0  0  0  0
 MicOpt= -1 -1 -1 -1 -1 -1 -1 -1 -1 -1 -1 -1 -1 -1 -1 -1 -1 -1 -1 -1
 MicOpt= -1 -1 -1 -1 -1 -1 -1 -1 -1 -1 -1 -1 -1 -1 -1 -1 -1 -1 -1 -1
 MicOpt= -1 -1 -1 -1 -1 -1 -1 -1 -1 -1 -1 -1 -1 -1 -1 -1 -1 -1 -1 -1
 MicOpt= -1 -1 -1 -1 -1 -1 -1 -1 -1 -1 -1 -1 -1 -1 -1 -1 -1 -1 -1 -1
 MicOpt= -1 -1 -1 -1 -1 -1 -1 -1 -1 -1 -1 -1 -1 -1 -1 -1 -1 -1 -1 -1
 MicOpt= -1 -1 -1 -1 -1 -1 -1 -1 -1 -1 -1 -1 -1 -1 -1 -1 -1 -1 -1 -1
 MicOpt= -1 -1 -1 -1 -1 -1 -1 -1 -1 -1 -1 -1 -1 -1 -1 -1 -1 -1 -1 -1
 MicOpt= -1 -1 -1 -1 -1 -1 -1 -1 -1 -1 -1 -1 -1 -1 -1 -1 -1 -1
 NAtoms=    158 NQM=      158 NQMF=       0 NMMI=      0 NMMIF=      0
                NMic=       0 NMicF=      0.
                    Isotopes and Nuclear Properties:
 (Nuclear quadrupole moments (NQMom) in fm**2, nuclear magnetic moments (NMagM)
  in nuclear magnetons)

  Atom         1           2           3           4           5           6           7           8           9          10
 IAtWgt=          24          12          12          12          12          14          12          12          12          12
 AtmWgt=  23.9850450  12.0000000  12.0000000  12.0000000  12.0000000  14.0030740  12.0000000  12.0000000  12.0000000  12.0000000
 NucSpn=           0           0           0           0           0           2           0           0           0           0
 AtZEff=  -0.0000000  -0.0000000  -0.0000000  -0.0000000  -0.0000000  -0.0000000  -0.0000000  -0.0000000  -0.0000000  -0.0000000
 NQMom=    0.0000000   0.0000000   0.0000000   0.0000000   0.0000000   2.0440000   0.0000000   0.0000000   0.0000000   0.0000000
 NMagM=    0.0000000   0.0000000   0.0000000   0.0000000   0.0000000   0.4037610   0.0000000   0.0000000   0.0000000   0.0000000
 AtZNuc=  12.0000000   6.0000000   6.0000000   6.0000000   6.0000000   7.0000000   6.0000000   6.0000000   6.0000000   6.0000000

  Atom        11          12          13          14          15          16          17          18          19          20
 IAtWgt=          12          12          12           1          14          12          12          12          12          12
 AtmWgt=  12.0000000  12.0000000  12.0000000   1.0078250  14.0030740  12.0000000  12.0000000  12.0000000  12.0000000  12.0000000
 NucSpn=           0           0           0           1           2           0           0           0           0           0
 AtZEff=  -0.0000000  -0.0000000  -0.0000000  -0.0000000  -0.0000000  -0.0000000  -0.0000000  -0.0000000  -0.0000000  -0.0000000
 NQMom=    0.0000000   0.0000000   0.0000000   0.0000000   2.0440000   0.0000000   0.0000000   0.0000000   0.0000000   0.0000000
 NMagM=    0.0000000   0.0000000   0.0000000   2.7928460   0.4037610   0.0000000   0.0000000   0.0000000   0.0000000   0.0000000
 AtZNuc=   6.0000000   6.0000000   6.0000000   1.0000000   7.0000000   6.0000000   6.0000000   6.0000000   6.0000000   6.0000000

  Atom        21          22          23          24          25          26          27          28          29          30
 IAtWgt=          12          16          12          14          12          12          12          12          12          12
 AtmWgt=  12.0000000  15.9949146  12.0000000  14.0030740  12.0000000  12.0000000  12.0000000  12.0000000  12.0000000  12.0000000
 NucSpn=           0           0           0           2           0           0           0           0           0           0
 AtZEff=  -0.0000000  -0.0000000  -0.0000000  -0.0000000  -0.0000000  -0.0000000  -0.0000000  -0.0000000  -0.0000000  -0.0000000
 NQMom=    0.0000000   0.0000000   0.0000000   2.0440000   0.0000000   0.0000000   0.0000000   0.0000000   0.0000000   0.0000000
 NMagM=    0.0000000   0.0000000   0.0000000   0.4037610   0.0000000   0.0000000   0.0000000   0.0000000   0.0000000   0.0000000
 AtZNuc=   6.0000000   8.0000000   6.0000000   7.0000000   6.0000000   6.0000000   6.0000000   6.0000000   6.0000000   6.0000000

  Atom        31          32          33          34          35          36          37          38          39          40
 IAtWgt=          12          14          12          12          12          12          12          12          16          12
 AtmWgt=  12.0000000  14.0030740  12.0000000  12.0000000  12.0000000  12.0000000  12.0000000  12.0000000  15.9949146  12.0000000
 NucSpn=           0           2           0           0           0           0           0           0           0           0
 AtZEff=  -0.0000000  -0.0000000  -0.0000000  -0.0000000  -0.0000000  -0.0000000  -0.0000000  -0.0000000  -0.0000000  -0.0000000
 NQMom=    0.0000000   2.0440000   0.0000000   0.0000000   0.0000000   0.0000000   0.0000000   0.0000000   0.0000000   0.0000000
 NMagM=    0.0000000   0.4037610   0.0000000   0.0000000   0.0000000   0.0000000   0.0000000   0.0000000   0.0000000   0.0000000
 AtZNuc=   6.0000000   7.0000000   6.0000000   6.0000000   6.0000000   6.0000000   6.0000000   6.0000000   8.0000000   6.0000000

  Atom        41          42          43          44          45          46          47          48          49          50
 IAtWgt=          12          16          16          12           1           1           1           1           1           1
 AtmWgt=  12.0000000  15.9949146  15.9949146  12.0000000   1.0078250   1.0078250   1.0078250   1.0078250   1.0078250   1.0078250
 NucSpn=           0           0           0           0           1           1           1           1           1           1
 AtZEff=  -0.0000000  -0.0000000  -0.0000000  -0.0000000  -0.0000000  -0.0000000  -0.0000000  -0.0000000  -0.0000000  -0.0000000
 NQMom=    0.0000000   0.0000000   0.0000000   0.0000000   0.0000000   0.0000000   0.0000000   0.0000000   0.0000000   0.0000000
 NMagM=    0.0000000   0.0000000   0.0000000   0.0000000   2.7928460   2.7928460   2.7928460   2.7928460   2.7928460   2.7928460
 AtZNuc=   6.0000000   8.0000000   8.0000000   6.0000000   1.0000000   1.0000000   1.0000000   1.0000000   1.0000000   1.0000000

  Atom        51          52          53          54          55          56          57          58          59          60
 IAtWgt=           1           1           1           1           1           1           1           1           1           1
 AtmWgt=   1.0078250   1.0078250   1.0078250   1.0078250   1.0078250   1.0078250   1.0078250   1.0078250   1.0078250   1.0078250
 NucSpn=           1           1           1           1           1           1           1           1           1           1
 AtZEff=  -0.0000000  -0.0000000  -0.0000000  -0.0000000  -0.0000000  -0.0000000  -0.0000000  -0.0000000  -0.0000000  -0.0000000
 NQMom=    0.0000000   0.0000000   0.0000000   0.0000000   0.0000000   0.0000000   0.0000000   0.0000000   0.0000000   0.0000000
 NMagM=    2.7928460   2.7928460   2.7928460   2.7928460   2.7928460   2.7928460   2.7928460   2.7928460   2.7928460   2.7928460
 AtZNuc=   1.0000000   1.0000000   1.0000000   1.0000000   1.0000000   1.0000000   1.0000000   1.0000000   1.0000000   1.0000000

  Atom        61          62          63          64          65          66          67          68          69          70
 IAtWgt=           1           1           1           1           1           1           1           1           1           1
 AtmWgt=   1.0078250   1.0078250   1.0078250   1.0078250   1.0078250   1.0078250   1.0078250   1.0078250   1.0078250   1.0078250
 NucSpn=           1           1           1           1           1           1           1           1           1           1
 AtZEff=  -0.0000000  -0.0000000  -0.0000000  -0.0000000  -0.0000000  -0.0000000  -0.0000000  -0.0000000  -0.0000000  -0.0000000
 NQMom=    0.0000000   0.0000000   0.0000000   0.0000000   0.0000000   0.0000000   0.0000000   0.0000000   0.0000000   0.0000000
 NMagM=    2.7928460   2.7928460   2.7928460   2.7928460   2.7928460   2.7928460   2.7928460   2.7928460   2.7928460   2.7928460
 AtZNuc=   1.0000000   1.0000000   1.0000000   1.0000000   1.0000000   1.0000000   1.0000000   1.0000000   1.0000000   1.0000000

  Atom        71          72          73          74          75          76          77          78          79          80
 IAtWgt=           1           1           1           1           1           1           1           1           1          24
 AtmWgt=   1.0078250   1.0078250   1.0078250   1.0078250   1.0078250   1.0078250   1.0078250   1.0078250   1.0078250  23.9850450
 NucSpn=           1           1           1           1           1           1           1           1           1           0
 AtZEff=  -0.0000000  -0.0000000  -0.0000000  -0.0000000  -0.0000000  -0.0000000  -0.0000000  -0.0000000  -0.0000000  -0.0000000
 NQMom=    0.0000000   0.0000000   0.0000000   0.0000000   0.0000000   0.0000000   0.0000000   0.0000000   0.0000000   0.0000000
 NMagM=    2.7928460   2.7928460   2.7928460   2.7928460   2.7928460   2.7928460   2.7928460   2.7928460   2.7928460   0.0000000
 AtZNuc=   1.0000000   1.0000000   1.0000000   1.0000000   1.0000000   1.0000000   1.0000000   1.0000000   1.0000000  12.0000000

  Atom        81          82          83          84          85          86          87          88          89          90
 IAtWgt=          12          12          12          12          14          12          12          12          12          12
 AtmWgt=  12.0000000  12.0000000  12.0000000  12.0000000  14.0030740  12.0000000  12.0000000  12.0000000  12.0000000  12.0000000
 NucSpn=           0           0           0           0           2           0           0           0           0           0
 AtZEff=  -0.0000000  -0.0000000  -0.0000000  -0.0000000  -0.0000000  -0.0000000  -0.0000000  -0.0000000  -0.0000000  -0.0000000
 NQMom=    0.0000000   0.0000000   0.0000000   0.0000000   2.0440000   0.0000000   0.0000000   0.0000000   0.0000000   0.0000000
 NMagM=    0.0000000   0.0000000   0.0000000   0.0000000   0.4037610   0.0000000   0.0000000   0.0000000   0.0000000   0.0000000
 AtZNuc=   6.0000000   6.0000000   6.0000000   6.0000000   7.0000000   6.0000000   6.0000000   6.0000000   6.0000000   6.0000000

  Atom        91          92          93          94          95          96          97          98          99         100
 IAtWgt=          12          12           1          14          12          12          12          12          12          12
 AtmWgt=  12.0000000  12.0000000   1.0078250  14.0030740  12.0000000  12.0000000  12.0000000  12.0000000  12.0000000  12.0000000
 NucSpn=           0           0           1           2           0           0           0           0           0           0
 AtZEff=  -0.0000000  -0.0000000  -0.0000000  -0.0000000  -0.0000000  -0.0000000  -0.0000000  -0.0000000  -0.0000000  -0.0000000
 NQMom=    0.0000000   0.0000000   0.0000000   2.0440000   0.0000000   0.0000000   0.0000000   0.0000000   0.0000000   0.0000000
 NMagM=    0.0000000   0.0000000   2.7928460   0.4037610   0.0000000   0.0000000   0.0000000   0.0000000   0.0000000   0.0000000
 AtZNuc=   6.0000000   6.0000000   1.0000000   7.0000000   6.0000000   6.0000000   6.0000000   6.0000000   6.0000000   6.0000000

  Atom       101         102         103         104         105         106         107         108         109         110
 IAtWgt=          16          12          14          12          12          12          12          12          12          12
 AtmWgt=  15.9949146  12.0000000  14.0030740  12.0000000  12.0000000  12.0000000  12.0000000  12.0000000  12.0000000  12.0000000
 NucSpn=           0           0           2           0           0           0           0           0           0           0
 AtZEff=  -0.0000000  -0.0000000  -0.0000000  -0.0000000  -0.0000000  -0.0000000  -0.0000000  -0.0000000  -0.0000000  -0.0000000
 NQMom=    0.0000000   0.0000000   2.0440000   0.0000000   0.0000000   0.0000000   0.0000000   0.0000000   0.0000000   0.0000000
 NMagM=    0.0000000   0.0000000   0.4037610   0.0000000   0.0000000   0.0000000   0.0000000   0.0000000   0.0000000   0.0000000
 AtZNuc=   8.0000000   6.0000000   7.0000000   6.0000000   6.0000000   6.0000000   6.0000000   6.0000000   6.0000000   6.0000000

  Atom       111         112         113         114         115         116         117         118         119         120
 IAtWgt=          14          12          12          12          12          12          12          16          12          12
 AtmWgt=  14.0030740  12.0000000  12.0000000  12.0000000  12.0000000  12.0000000  12.0000000  15.9949146  12.0000000  12.0000000
 NucSpn=           2           0           0           0           0           0           0           0           0           0
 AtZEff=  -0.0000000  -0.0000000  -0.0000000  -0.0000000  -0.0000000  -0.0000000  -0.0000000  -0.0000000  -0.0000000  -0.0000000
 NQMom=    2.0440000   0.0000000   0.0000000   0.0000000   0.0000000   0.0000000   0.0000000   0.0000000   0.0000000   0.0000000
 NMagM=    0.4037610   0.0000000   0.0000000   0.0000000   0.0000000   0.0000000   0.0000000   0.0000000   0.0000000   0.0000000
 AtZNuc=   7.0000000   6.0000000   6.0000000   6.0000000   6.0000000   6.0000000   6.0000000   8.0000000   6.0000000   6.0000000

  Atom       121         122         123         124         125         126         127         128         129         130
 IAtWgt=          16          16          12           1           1           1           1           1           1           1
 AtmWgt=  15.9949146  15.9949146  12.0000000   1.0078250   1.0078250   1.0078250   1.0078250   1.0078250   1.0078250   1.0078250
 NucSpn=           0           0           0           1           1           1           1           1           1           1
 AtZEff=  -0.0000000  -0.0000000  -0.0000000  -0.0000000  -0.0000000  -0.0000000  -0.0000000  -0.0000000  -0.0000000  -0.0000000
 NQMom=    0.0000000   0.0000000   0.0000000   0.0000000   0.0000000   0.0000000   0.0000000   0.0000000   0.0000000   0.0000000
 NMagM=    0.0000000   0.0000000   0.0000000   2.7928460   2.7928460   2.7928460   2.7928460   2.7928460   2.7928460   2.7928460
 AtZNuc=   8.0000000   8.0000000   6.0000000   1.0000000   1.0000000   1.0000000   1.0000000   1.0000000   1.0000000   1.0000000

  Atom       131         132         133         134         135         136         137         138         139         140
 IAtWgt=           1           1           1           1           1           1           1           1           1           1
 AtmWgt=   1.0078250   1.0078250   1.0078250   1.0078250   1.0078250   1.0078250   1.0078250   1.0078250   1.0078250   1.0078250
 NucSpn=           1           1           1           1           1           1           1           1           1           1
 AtZEff=  -0.0000000  -0.0000000  -0.0000000  -0.0000000  -0.0000000  -0.0000000  -0.0000000  -0.0000000  -0.0000000  -0.0000000
 NQMom=    0.0000000   0.0000000   0.0000000   0.0000000   0.0000000   0.0000000   0.0000000   0.0000000   0.0000000   0.0000000
 NMagM=    2.7928460   2.7928460   2.7928460   2.7928460   2.7928460   2.7928460   2.7928460   2.7928460   2.7928460   2.7928460
 AtZNuc=   1.0000000   1.0000000   1.0000000   1.0000000   1.0000000   1.0000000   1.0000000   1.0000000   1.0000000   1.0000000

  Atom       141         142         143         144         145         146         147         148         149         150
 IAtWgt=           1           1           1           1           1           1           1           1           1           1
 AtmWgt=   1.0078250   1.0078250   1.0078250   1.0078250   1.0078250   1.0078250   1.0078250   1.0078250   1.0078250   1.0078250
 NucSpn=           1           1           1           1           1           1           1           1           1           1
 AtZEff=  -0.0000000  -0.0000000  -0.0000000  -0.0000000  -0.0000000  -0.0000000  -0.0000000  -0.0000000  -0.0000000  -0.0000000
 NQMom=    0.0000000   0.0000000   0.0000000   0.0000000   0.0000000   0.0000000   0.0000000   0.0000000   0.0000000   0.0000000
 NMagM=    2.7928460   2.7928460   2.7928460   2.7928460   2.7928460   2.7928460   2.7928460   2.7928460   2.7928460   2.7928460
 AtZNuc=   1.0000000   1.0000000   1.0000000   1.0000000   1.0000000   1.0000000   1.0000000   1.0000000   1.0000000   1.0000000

  Atom       151         152         153         154         155         156         157         158
 IAtWgt=           1           1           1           1           1           1           1           1
 AtmWgt=   1.0078250   1.0078250   1.0078250   1.0078250   1.0078250   1.0078250   1.0078250   1.0078250
 NucSpn=           1           1           1           1           1           1           1           1
 AtZEff=  -0.0000000  -0.0000000  -0.0000000  -0.0000000  -0.0000000  -0.0000000  -0.0000000  -0.0000000
 NQMom=    0.0000000   0.0000000   0.0000000   0.0000000   0.0000000   0.0000000   0.0000000   0.0000000
 NMagM=    2.7928460   2.7928460   2.7928460   2.7928460   2.7928460   2.7928460   2.7928460   2.7928460
 AtZNuc=   1.0000000   1.0000000   1.0000000   1.0000000   1.0000000   1.0000000   1.0000000   1.0000000
 Leave Link  101 at Sun Sep 12 03:50:38 2021, MaxMem= 23488102400 cpu:               3.7 elap:               0.2
 (Enter /sw/apps/gaussian-16.0/g16/l202.exe)
 Stoichiometry    C68H72Mg2N8O8
 Framework group  C1[X(C68H72Mg2N8O8)]
 Deg. of freedom   468
 Full point group                 C1      NOp   1
 Largest Abelian subgroup         C1      NOp   1
 Largest concise Abelian subgroup C1      NOp   1
                         Standard orientation:                         
 ---------------------------------------------------------------------
 Center     Atomic      Atomic             Coordinates (Angstroms)
 Number     Number       Type             X           Y           Z
 ---------------------------------------------------------------------
      1         12           0        7.669878   -1.070126    0.284483
      2          6           0        8.054890    2.368382   -0.632384
      3          6           0        8.469398   -0.155075    3.472981
      4          6           0        7.781358   -4.151656    1.025001
      5          6           0        8.020989   -1.856817   -3.092423
      6          7           0        8.175641    0.889197    1.182206
      7          6           0        8.229735    2.139637    0.734273
      8          6           0        8.414893    3.193952    1.866311
      9          6           0        9.088298    2.261853    2.970717
     10          6           0        8.516843    0.922651    2.539553
     11          6           0       10.609197    2.201580    2.872050
     12          6           0        7.049924    3.777661    2.364182
     13          6           0        7.154451    5.037423    3.228721
     14          1           0        6.125770    6.059098    3.104855
     15          7           0        7.586627   -1.969369    2.041549
     16          6           0        7.935601   -1.440858    3.239122
     17          6           0        7.693244   -2.502649    4.239394
     18          6           0        7.355195   -3.752516    3.503424
     19          6           0        7.589515   -3.342515    2.142405
     20          6           0        7.743968   -2.267363    5.717845
     21          6           0        6.904227   -5.105335    3.955794
     22          8           0        6.889858   -6.114959    3.171558
     23          6           0        6.559194   -5.239661    5.382662
     24          7           0        8.090467   -2.784169   -0.830323
     25          6           0        8.012357   -4.001113   -0.280841
     26          6           0        8.075701   -5.076560   -1.324556
     27          6           0        7.969042   -4.332279   -2.733251
     28          6           0        7.943644   -2.869336   -2.225883
     29          6           0        9.334574   -5.954557   -1.305282
     30          6           0        6.845734   -4.799925   -3.692367
     31          6           0        5.494927   -4.444659   -3.112534
     32          7           0        7.805784    0.038798   -1.576394
     33          6           0        7.970786   -0.491839   -2.863978
     34          6           0        8.118152    0.649382   -3.785913
     35          6           0        8.044755    1.771579   -2.963032
     36          6           0        7.889365    1.356984   -1.609423
     37          6           0        8.351329    0.564188   -5.186915
     38          6           0        8.086157    3.223913   -2.909488
     39          8           0        8.106368    4.122493   -3.751889
     40          6           0        8.216654    3.665599   -1.385116
     41          6           0        7.205909    4.752321   -1.138668
     42          8           0        5.982520    4.509453   -1.179919
     43          8           0        7.830329    5.840658   -0.663100
     44          6           0        6.880434    6.946840   -0.369476
     45          1           0        8.934704   -0.026132    4.452166
     46          1           0        7.715710   -5.223701    1.222098
     47          1           0        8.049513   -2.023086   -4.170845
     48          1           0        9.084100    4.017207    1.615636
     49          1           0        8.749872    2.512305    3.975935
     50          1           0       10.970748    2.707794    1.977092
     51          1           0       10.856672    1.140491    2.835470
     52          1           0       11.071896    2.585995    3.781398
     53          1           0        6.608405    3.092278    3.087626
     54          1           0        6.383623    3.971958    1.522982
     55          1           0        8.146755    5.484581    3.163206
     56          1           0        7.058333    4.743305    4.273927
     57          1           0        8.178716   -1.296979    5.954263
     58          1           0        8.448715   -2.988682    6.131051
     59          1           0        6.768654   -2.395790    6.187526
     60          1           0        7.426217   -4.976413    5.988897
     61          1           0        6.173591   -6.251210    5.504851
     62          1           0        5.782266   -4.514927    5.627799
     63          1           0        7.241774   -5.769842   -1.222812
     64          1           0        8.881249   -4.436779   -3.321156
     65          1           0        9.124246   -7.019342   -1.201844
     66          1           0        9.978327   -5.603013   -0.499497
     67          1           0        9.986736   -5.837563   -2.170391
     68          1           0        6.871025   -5.883123   -3.806335
     69          1           0        6.918312   -4.360001   -4.687078
     70          1           0        5.297219   -5.271670   -2.431507
     71          1           0        4.742609   -4.399549   -3.900692
     72          1           0        5.545386   -3.534758   -2.514187
     73          1           0        7.700739    1.305929   -5.650080
     74          1           0        8.141496   -0.436838   -5.563106
     75          1           0        9.411541    0.812973   -5.230659
     76          1           0        9.238408    4.017907   -1.247206
     77          1           0        7.219241    7.818154   -0.930061
     78          1           0        6.829936    7.031948    0.716163
     79          1           0        5.869267    6.830611   -0.761101
     80         12           0       -8.187491   -0.377508   -0.294401
     81          6           0       -6.193263    2.603158   -0.427697
     82          6           0       -9.220315    0.630890    2.796072
     83          6           0       -9.598272   -3.199123    0.045601
     84          6           0       -6.163740   -1.677691   -2.816229
     85          7           0       -7.699913    1.405866    0.919728
     86          6           0       -6.977514    2.501433    0.740225
     87          6           0       -7.164821    3.582456    1.838339
     88          6           0       -7.658595    2.629094    3.032554
     89          6           0       -8.264706    1.496470    2.206437
     90          6           0       -6.517533    2.059694    3.859063
     91          6           0       -8.260258    4.638936    1.456393
     92          6           0       -8.279371    5.891819    2.334841
     93          1           0       -8.610502    7.171733    1.714652
     94          7           0       -9.617457   -0.956244    0.954130
     95          6           0       -9.913071   -0.420872    2.157157
     96          6           0      -11.031146   -1.216252    2.687695
     97          6           0      -11.263183   -2.367429    1.773544
     98          6           0      -10.130392   -2.227466    0.880631
     99          6           0      -11.812106   -0.811959    3.904276
    100          6           0      -12.321439   -3.427376    1.720496
    101          8           0      -12.194826   -4.469030    0.984462
    102          6           0      -13.467087   -3.255827    2.625783
    103          7           0       -7.793879   -2.256090   -1.093350
    104          6           0       -8.593513   -3.303094   -0.824439
    105          6           0       -8.277479   -4.475549   -1.722124
    106          6           0       -7.256916   -3.914599   -2.818206
    107          6           0       -7.082747   -2.474408   -2.288198
    108          6           0       -7.664581   -5.694624   -1.033190
    109          6           0       -7.646742   -4.111567   -4.308817
    110          6           0       -8.859830   -3.272541   -4.640243
    111          7           0       -6.605313    0.371913   -1.560552
    112          6           0       -5.876525   -0.348759   -2.531934
    113          6           0       -4.829567    0.555510   -3.050226
    114          6           0       -5.008675    1.741430   -2.322207
    115          6           0       -6.077892    1.580439   -1.400052
    116          6           0       -3.851015    0.221001   -4.028306
    117          6           0       -4.529515    3.089338   -2.116655
    118          8           0       -3.700918    3.810665   -2.670597
    119          6           0       -5.193357    3.665194   -0.792231
    120          6           0       -5.714133    5.043442   -1.095083
    121          8           0       -6.645845    5.203639   -1.903088
    122          8           0       -5.177813    5.918226   -0.224739
    123          6           0       -5.672664    7.297689   -0.477776
    124          1           0       -9.430729    0.738475    3.860519
    125          1           0      -10.121089   -4.158365    0.045301
    126          1           0       -5.555457   -1.975593   -3.672926
    127          1           0       -6.257315    4.099458    2.126303
    128          1           0       -8.423184    3.113526    3.634297
    129          1           0       -5.554035    2.296511    3.432784
    130          1           0       -6.671461    0.988665    3.874585
    131          1           0       -6.602383    2.391451    4.897853
    132          1           0       -9.250742    4.228979    1.692245
    133          1           0       -8.173679    4.921813    0.425319
    134          1           0       -7.371013    5.982908    2.942727
    135          1           0       -9.083261    5.789459    3.067842
    136          1           0      -11.306464   -0.012265    4.459444
    137          1           0      -11.801917   -1.666600    4.589371
    138          1           0      -12.848486   -0.556170    3.673728
    139          1           0      -13.112216   -3.209648    3.652615
    140          1           0      -14.158261   -4.064021    2.378821
    141          1           0      -13.940032   -2.290695    2.412551
    142          1           0       -9.169885   -4.831212   -2.222335
    143          1           0       -6.271938   -4.398344   -2.743157
    144          1           0       -8.246906   -6.622431   -1.188538
    145          1           0       -7.568976   -5.477941    0.022478
    146          1           0       -6.637577   -5.917813   -1.317166
    147          1           0       -7.928895   -5.151214   -4.492286
    148          1           0       -6.846947   -3.868120   -5.000228
    149          1           0       -9.691894   -3.897309   -4.301978
    150          1           0       -8.915905   -3.086302   -5.710851
    151          1           0       -8.875949   -2.351821   -4.045543
    152          1           0       -3.790579    1.060509   -4.708056
    153          1           0       -4.109480   -0.697320   -4.551424
    154          1           0       -2.972069    0.096431   -3.390176
    155          1           0       -4.423881    3.678979   -0.019388
    156          1           0       -4.792238    7.931494   -0.622113
    157          1           0       -6.332909    7.539573    0.376220
    158          1           0       -6.214114    7.474700   -1.399697
 ---------------------------------------------------------------------
 Rotational constants (GHZ):           0.0226406           0.0061088           0.0056414
 Leave Link  202 at Sun Sep 12 03:50:38 2021, MaxMem= 23488102400 cpu:               0.2 elap:               0.0
 (Enter /sw/apps/gaussian-16.0/g16/l301.exe)
 Standard basis: def2SVP (5D, 7F)
 Ernie: Thresh=  0.10000D-02 Tol=  0.10000D-05 Strict=F.
 There are  1658 symmetry adapted cartesian basis functions of A   symmetry.
 There are  1572 symmetry adapted basis functions of A   symmetry.
  1572 basis functions,  2678 primitive gaussians,  1658 cartesian basis functions
   312 alpha electrons      312 beta electrons
       nuclear repulsion energy     13844.9190949060 Hartrees.
 IExCor=20419 DFT=T Ex+Corr=CAM-B3LYP ExCW=0 ScaHFX=  1.000000
 ScaDFX=  1.000000  1.000000  1.000000  0.810000 ScalE2=  1.000000  1.000000
 IRadAn=      5 IRanWt=     -1 IRanGd=            0 ICorTp=0 IEmpDi=  4
 HFx  wShort=  0.000000 wLong=  0.330000 cFull=  0.190000 cShort=  0.000000 cLong=  0.460000
 DFx  wShort=  0.000000 wLong=  0.330000 cFull=  0.190000 cShort=  0.000000 cLong=  0.460000
 NAtoms=  158 NActive=  158 NUniq=  158 SFac= 1.00D+00 NAtFMM=   60 NAOKFM=T Big=T
 Integral buffers will be    131072 words long.
 Raffenetti 1 integral format.
 Two-electron integral symmetry is turned on.
 Leave Link  301 at Sun Sep 12 03:50:38 2021, MaxMem= 23488102400 cpu:               1.4 elap:               0.1
 (Enter /sw/apps/gaussian-16.0/g16/l302.exe)
 NPDir=0 NMtPBC=     1 NCelOv=     1 NCel=       1 NClECP=     1 NCelD=      1
         NCelK=      1 NCelE2=     1 NClLst=     1 CellRange=     0.0.
 One-electron integrals computed using PRISM.
 One-electron integral symmetry used in STVInt
   1 Symmetry operations used in ECPInt.
 ECPInt:  NShTT=  271216 NPrTT=  987664 LenC2=  109655 LenP2D=  246831.
 LDataN:  DoStor=T MaxTD1= 4 Len=   56
 NBasis=  1572 RedAO= T EigKep=  3.36D-04  NBF=  1572
 NBsUse=  1572 1.00D-06 EigRej= -1.00D+00 NBFU=  1572
 Precomputing XC quadrature grid using
 IXCGrd= 4 IRadAn=           5 IRanWt=          -1 IRanGd=           0 AccXCQ= 0.00D+00.
 Generated NRdTot=       0 NPtTot=           0 NUsed=           0 NTot=          32
 NSgBfM=  1097  1082  1082  1088  1097 MxSgAt=   158 MxSgA2=   158.
 Leave Link  302 at Sun Sep 12 03:50:43 2021, MaxMem= 23488102400 cpu:             113.6 elap:               4.8
 (Enter /sw/apps/gaussian-16.0/g16/l303.exe)
 DipDrv:  MaxL=1.
 Leave Link  303 at Sun Sep 12 03:50:43 2021, MaxMem= 23488102400 cpu:               8.4 elap:               0.4
 (Enter /sw/apps/gaussian-16.0/g16/l308.exe)
 Leave Link  308 at Sun Sep 12 03:50:44 2021, MaxMem= 23488102400 cpu:              14.2 elap:               0.7
 (Enter /sw/apps/gaussian-16.0/g16/l401.exe)
 ExpMin= 3.36D-02 ExpMax= 4.95D+03 ExpMxC= 7.45D+02 IAcc=3 IRadAn=         5 AccDes= 0.00D+00
 Harris functional with IExCor=20419 and IRadAn=       5 diagonalized for initial guess.
 HarFok:  IExCor=20419 AccDes= 0.00D+00 IRadAn=         5 IDoV= 1 UseB2=F ITyADJ=14
 ICtDFT=  3500011 ScaDFX=  1.000000  1.000000  1.000000  1.000000
 FoFCou: FMM=F IPFlag=           0 FMFlag=      100000 FMFlg1=        2001
         NFxFlg=           0 DoJE=T BraDBF=F KetDBF=T FulRan=T
         wScrn=  0.000000 ICntrl=       500 IOpCl=  0 I1Cent=   200000004 NGrid=           0
         NMat0=    1 NMatS0=      1 NMatT0=    0 NMatD0=    1 NMtDS0=    0 NMtDT0=    0
 Petite list used in FoFCou.
 Harris En= -3918.65801473541    
 JPrj=0 DoOrth=F DoCkMO=F.
 Leave Link  401 at Sun Sep 12 03:50:51 2021, MaxMem= 23488102400 cpu:             158.5 elap:               6.6
 (Enter /sw/apps/gaussian-16.0/g16/l502.exe)
 Integral symmetry usage will be decided dynamically.
 Closed shell SCF:
 Using DIIS extrapolation, IDIIS=  1040.
 NGot= 23488102400 LenX= 23482547354 LenY= 23479796732
 Requested convergence on RMS density matrix=1.00D-08 within 128 cycles.
 Requested convergence on MAX density matrix=1.00D-06.
 Requested convergence on             energy=1.00D-06.
 No special actions if energy rises.
 Fock matrices will be formed incrementally for  20 cycles.

 Cycle   1  Pass 1  IDiag  1:
 FoFJK:  IHMeth= 1 ICntrl=       0 DoSepK=T KAlg= 0 I1Cent=           0 FoldK=F
 IRaf=         1 NMat=       1 IRICut=       1 DoRegI=T DoRafI=F ISym2E= 0 IDoP0=0 IntGTp=1.
 FoFCou: FMM=T IPFlag=           0 FMFlag=      100000 FMFlg1=        2001
         NFxFlg=           0 DoJE=T BraDBF=F KetDBF=F FulRan=T
         wScrn=  0.000000 ICntrl=       500 IOpCl=  0 I1Cent=           0 NGrid=           0
         NMat0=    1 NMatS0=      1 NMatT0=    0 NMatD0=    1 NMtDS0=    0 NMtDT0=    0
 Symmetry not used in FoFCou.
 FMM levels:  10  Number of levels for PrismC:   9
 E= -4068.94833607578    
 DIIS: error= 2.04D-02 at cycle   1 NSaved=   1.
 NSaved= 1 IEnMin= 1 EnMin= -4068.94833607578     IErMin= 1 ErrMin= 2.04D-02
 ErrMax= 2.04D-02  0.00D+00 EMaxC= 1.00D-01 BMatC= 1.69D+00 BMatP= 1.69D+00
 IDIUse=3 WtCom= 7.96D-01 WtEn= 2.04D-01
 Coeff-Com:  0.100D+01
 Coeff-En:   0.100D+01
 Coeff:      0.100D+01
 Gap=     0.120 Goal=   None    Shift=    0.000
 GapD=    0.120 DampG=1.000 DampE=0.500 DampFc=0.5000 IDamp=-1.
 Damping current iteration by 5.00D-01
 RMSDP=1.57D-03 MaxDP=1.34D-01              OVMax= 2.06D-01

 Cycle   2  Pass 1  IDiag  1:
 RMSU=  7.70D-04    CP:  9.82D-01
 E= -4069.33715928984     Delta-E=       -0.388823214053 Rises=F Damp=T
 DIIS: error= 1.27D-02 at cycle   2 NSaved=   2.
 NSaved= 2 IEnMin= 2 EnMin= -4069.33715928984     IErMin= 2 ErrMin= 1.27D-02
 ErrMax= 1.27D-02  0.00D+00 EMaxC= 1.00D-01 BMatC= 3.07D-01 BMatP= 1.69D+00
 IDIUse=3 WtCom= 8.73D-01 WtEn= 1.27D-01
 Coeff-Com: -0.213D+00 0.121D+01
 Coeff-En:   0.000D+00 0.100D+01
 Coeff:     -0.186D+00 0.119D+01
 Gap=     0.139 Goal=   None    Shift=    0.000
 RMSDP=7.66D-04 MaxDP=9.50D-02 DE=-3.89D-01 OVMax= 1.90D-01

 Cycle   3  Pass 1  IDiag  1:
 RMSU=  7.34D-04    CP:  9.68D-01  1.24D+00
 E= -4069.62588185741     Delta-E=       -0.288722567573 Rises=F Damp=F
 DIIS: error= 1.58D-02 at cycle   3 NSaved=   3.
 NSaved= 3 IEnMin= 3 EnMin= -4069.62588185741     IErMin= 2 ErrMin= 1.27D-02
 ErrMax= 1.58D-02  0.00D+00 EMaxC= 1.00D-01 BMatC= 2.03D-01 BMatP= 3.07D-01
 IDIUse=3 WtCom= 8.42D-01 WtEn= 1.58D-01
 Coeff-Com: -0.267D+00 0.652D+00 0.615D+00
 Coeff-En:   0.000D+00 0.000D+00 0.100D+01
 Coeff:     -0.225D+00 0.549D+00 0.676D+00
 Gap=     0.125 Goal=   None    Shift=    0.000
 RMSDP=5.12D-04 MaxDP=4.80D-02 DE=-2.89D-01 OVMax= 1.48D-01

 Cycle   4  Pass 1  IDiag  1:
 RMSU=  2.67D-04    CP:  9.65D-01  1.55D+00  5.03D-01
 E= -4069.76358697050     Delta-E=       -0.137705113091 Rises=F Damp=F
 DIIS: error= 7.35D-03 at cycle   4 NSaved=   4.
 NSaved= 4 IEnMin= 4 EnMin= -4069.76358697050     IErMin= 4 ErrMin= 7.35D-03
 ErrMax= 7.35D-03  0.00D+00 EMaxC= 1.00D-01 BMatC= 5.12D-02 BMatP= 2.03D-01
 IDIUse=3 WtCom= 9.26D-01 WtEn= 7.35D-02
 Coeff-Com: -0.109D+00 0.226D+00 0.409D+00 0.473D+00
 Coeff-En:   0.000D+00 0.000D+00 0.224D+00 0.776D+00
 Coeff:     -0.101D+00 0.210D+00 0.396D+00 0.495D+00
 Gap=     0.123 Goal=   None    Shift=    0.000
 RMSDP=2.03D-04 MaxDP=2.06D-02 DE=-1.38D-01 OVMax= 6.57D-02

 Cycle   5  Pass 1  IDiag  1:
 RMSU=  7.72D-05    CP:  9.64D-01  1.49D+00  6.89D-01  5.46D-01
 E= -4069.81006917191     Delta-E=       -0.046482201411 Rises=F Damp=F
 DIIS: error= 7.64D-04 at cycle   5 NSaved=   5.
 NSaved= 5 IEnMin= 5 EnMin= -4069.81006917191     IErMin= 5 ErrMin= 7.64D-04
 ErrMax= 7.64D-04  0.00D+00 EMaxC= 1.00D-01 BMatC= 1.23D-03 BMatP= 5.12D-02
 IDIUse=3 WtCom= 9.92D-01 WtEn= 7.64D-03
 Coeff-Com: -0.364D-01 0.715D-01 0.168D+00 0.252D+00 0.546D+00
 Coeff-En:   0.000D+00 0.000D+00 0.000D+00 0.000D+00 0.100D+01
 Coeff:     -0.361D-01 0.710D-01 0.167D+00 0.250D+00 0.549D+00
 Gap=     0.123 Goal=   None    Shift=    0.000
 RMSDP=4.23D-05 MaxDP=4.25D-03 DE=-4.65D-02 OVMax= 1.80D-02

 Cycle   6  Pass 1  IDiag  1:
 RMSU=  3.10D-05    CP:  9.64D-01  1.49D+00  6.80D-01  6.20D-01  7.47D-01
 E= -4069.81115149859     Delta-E=       -0.001082326678 Rises=F Damp=F
 DIIS: error= 2.06D-04 at cycle   6 NSaved=   6.
 NSaved= 6 IEnMin= 6 EnMin= -4069.81115149859     IErMin= 6 ErrMin= 2.06D-04
 ErrMax= 2.06D-04  0.00D+00 EMaxC= 1.00D-01 BMatC= 1.86D-04 BMatP= 1.23D-03
 IDIUse=3 WtCom= 9.98D-01 WtEn= 2.06D-03
 Coeff-Com:  0.221D-02-0.660D-02 0.116D-01 0.409D-01 0.306D+00 0.646D+00
 Coeff-En:   0.000D+00 0.000D+00 0.000D+00 0.000D+00 0.109D+00 0.891D+00
 Coeff:      0.220D-02-0.658D-02 0.116D-01 0.408D-01 0.306D+00 0.646D+00
 Gap=     0.123 Goal=   None    Shift=    0.000
 RMSDP=1.65D-05 MaxDP=1.21D-03 DE=-1.08D-03 OVMax= 7.69D-03

 Cycle   7  Pass 1  IDiag  1:
 RMSU=  1.10D-05    CP:  9.64D-01  1.49D+00  6.86D-01  6.19D-01  8.53D-01
                    CP:  7.44D-01
 E= -4069.81135440771     Delta-E=       -0.000202909119 Rises=F Damp=F
 DIIS: error= 8.64D-05 at cycle   7 NSaved=   7.
 NSaved= 7 IEnMin= 7 EnMin= -4069.81135440771     IErMin= 7 ErrMin= 8.64D-05
 ErrMax= 8.64D-05  0.00D+00 EMaxC= 1.00D-01 BMatC= 2.26D-05 BMatP= 1.86D-04
 IDIUse=1 WtCom= 1.00D+00 WtEn= 0.00D+00
 Coeff-Com:  0.452D-02-0.991D-02-0.895D-02-0.348D-02 0.105D+00 0.333D+00
 Coeff-Com:  0.580D+00
 Coeff:      0.452D-02-0.991D-02-0.895D-02-0.348D-02 0.105D+00 0.333D+00
 Coeff:      0.580D+00
 Gap=     0.123 Goal=   None    Shift=    0.000
 RMSDP=6.62D-06 MaxDP=1.10D-03 DE=-2.03D-04 OVMax= 3.46D-03

 Cycle   8  Pass 1  IDiag  1:
 RMSU=  4.74D-06    CP:  9.64D-01  1.50D+00  6.87D-01  6.24D-01  8.55D-01
                    CP:  8.68D-01  8.19D-01
 E= -4069.81138243359     Delta-E=       -0.000028025883 Rises=F Damp=F
 DIIS: error= 5.23D-05 at cycle   8 NSaved=   8.
 NSaved= 8 IEnMin= 8 EnMin= -4069.81138243359     IErMin= 8 ErrMin= 5.23D-05
 ErrMax= 5.23D-05  0.00D+00 EMaxC= 1.00D-01 BMatC= 4.95D-06 BMatP= 2.26D-05
 IDIUse=1 WtCom= 1.00D+00 WtEn= 0.00D+00
 Coeff-Com:  0.217D-02-0.431D-02-0.780D-02-0.121D-01-0.104D-01 0.328D-01
 Coeff-Com:  0.335D+00 0.664D+00
 Coeff:      0.217D-02-0.431D-02-0.780D-02-0.121D-01-0.104D-01 0.328D-01
 Coeff:      0.335D+00 0.664D+00
 Gap=     0.123 Goal=   None    Shift=    0.000
 RMSDP=3.33D-06 MaxDP=3.73D-04 DE=-2.80D-05 OVMax= 1.06D-03

 Cycle   9  Pass 1  IDiag  1:
 RMSU=  1.94D-06    CP:  9.64D-01  1.50D+00  6.87D-01  6.25D-01  8.72D-01
                    CP:  8.95D-01  1.01D+00  9.56D-01
 E= -4069.81139038887     Delta-E=       -0.000007955274 Rises=F Damp=F
 DIIS: error= 1.98D-05 at cycle   9 NSaved=   9.
 NSaved= 9 IEnMin= 9 EnMin= -4069.81139038887     IErMin= 9 ErrMin= 1.98D-05
 ErrMax= 1.98D-05  0.00D+00 EMaxC= 1.00D-01 BMatC= 7.20D-07 BMatP= 4.95D-06
 IDIUse=1 WtCom= 1.00D+00 WtEn= 0.00D+00
 Coeff-Com:  0.461D-03-0.762D-03-0.267D-02-0.601D-02-0.207D-01-0.400D-01
 Coeff-Com:  0.100D+00 0.328D+00 0.642D+00
 Coeff:      0.461D-03-0.762D-03-0.267D-02-0.601D-02-0.207D-01-0.400D-01
 Coeff:      0.100D+00 0.328D+00 0.642D+00
 Gap=     0.123 Goal=   None    Shift=    0.000
 RMSDP=1.45D-06 MaxDP=1.47D-04 DE=-7.96D-06 OVMax= 7.58D-04

 Cycle  10  Pass 1  IDiag  1:
 RMSU=  9.56D-07    CP:  9.64D-01  1.50D+00  6.87D-01  6.26D-01  8.76D-01
                    CP:  9.08D-01  1.06D+00  1.12D+00  1.06D+00
 E= -4069.81139206147     Delta-E=       -0.000001672601 Rises=F Damp=F
 DIIS: error= 1.04D-05 at cycle  10 NSaved=  10.
 NSaved=10 IEnMin=10 EnMin= -4069.81139206147     IErMin=10 ErrMin= 1.04D-05
 ErrMax= 1.04D-05  0.00D+00 EMaxC= 1.00D-01 BMatC= 1.81D-07 BMatP= 7.20D-07
 IDIUse=1 WtCom= 1.00D+00 WtEn= 0.00D+00
 Coeff-Com: -0.434D-03 0.910D-03 0.125D-02 0.113D-02-0.361D-02-0.315D-01
 Coeff-Com: -0.455D-01-0.782D-01 0.250D+00 0.906D+00
 Coeff:     -0.434D-03 0.910D-03 0.125D-02 0.113D-02-0.361D-02-0.315D-01
 Coeff:     -0.455D-01-0.782D-01 0.250D+00 0.906D+00
 Gap=     0.123 Goal=   None    Shift=    0.000
 RMSDP=1.26D-06 MaxDP=1.26D-04 DE=-1.67D-06 OVMax= 6.34D-04

 Cycle  11  Pass 1  IDiag  1:
 RMSU=  5.34D-07    CP:  9.64D-01  1.50D+00  6.87D-01  6.26D-01  8.78D-01
                    CP:  9.18D-01  1.11D+00  1.24D+00  1.41D+00  1.37D+00
 E= -4069.81139289849     Delta-E=       -0.000000837019 Rises=F Damp=F
 DIIS: error= 4.18D-06 at cycle  11 NSaved=  11.
 NSaved=11 IEnMin=11 EnMin= -4069.81139289849     IErMin=11 ErrMin= 4.18D-06
 ErrMax= 4.18D-06  0.00D+00 EMaxC= 1.00D-01 BMatC= 6.75D-08 BMatP= 1.81D-07
 IDIUse=1 WtCom= 1.00D+00 WtEn= 0.00D+00
 Coeff-Com: -0.335D-03 0.651D-03 0.136D-02 0.214D-02 0.447D-02-0.861D-02
 Coeff-Com: -0.425D-01-0.135D+00-0.282D-01 0.477D+00 0.728D+00
 Coeff:     -0.335D-03 0.651D-03 0.136D-02 0.214D-02 0.447D-02-0.861D-02
 Coeff:     -0.425D-01-0.135D+00-0.282D-01 0.477D+00 0.728D+00
 Gap=     0.123 Goal=   None    Shift=    0.000
 RMSDP=7.13D-07 MaxDP=6.25D-05 DE=-8.37D-07 OVMax= 3.95D-04

 Cycle  12  Pass 1  IDiag  1:
 RMSU=  2.72D-07    CP:  9.64D-01  1.50D+00  6.87D-01  6.26D-01  8.79D-01
                    CP:  9.21D-01  1.13D+00  1.30D+00  1.58D+00  1.77D+00
                    CP:  1.19D+00
 E= -4069.81139318157     Delta-E=       -0.000000283082 Rises=F Damp=F
 DIIS: error= 2.54D-06 at cycle  12 NSaved=  12.
 NSaved=12 IEnMin=12 EnMin= -4069.81139318157     IErMin=12 ErrMin= 2.54D-06
 ErrMax= 2.54D-06  0.00D+00 EMaxC= 1.00D-01 BMatC= 1.66D-08 BMatP= 6.75D-08
 IDIUse=1 WtCom= 1.00D+00 WtEn= 0.00D+00
 Coeff-Com: -0.559D-05-0.628D-05 0.207D-03 0.554D-03 0.347D-02 0.397D-02
 Coeff-Com:  0.230D-02-0.371D-01-0.716D-01-0.640D-01 0.258D+00 0.904D+00
 Coeff:     -0.559D-05-0.628D-05 0.207D-03 0.554D-03 0.347D-02 0.397D-02
 Coeff:      0.230D-02-0.371D-01-0.716D-01-0.640D-01 0.258D+00 0.904D+00
 Gap=     0.123 Goal=   None    Shift=    0.000
 RMSDP=4.53D-07 MaxDP=3.11D-05 DE=-2.83D-07 OVMax= 2.58D-04

 Cycle  13  Pass 1  IDiag  1:
 RMSU=  1.71D-07    CP:  9.64D-01  1.50D+00  6.87D-01  6.26D-01  8.79D-01
                    CP:  9.21D-01  1.14D+00  1.33D+00  1.69D+00  2.00D+00
                    CP:  1.61D+00  1.25D+00
 E= -4069.81139328094     Delta-E=       -0.000000099371 Rises=F Damp=F
 DIIS: error= 1.27D-06 at cycle  13 NSaved=  13.
 NSaved=13 IEnMin=13 EnMin= -4069.81139328094     IErMin=13 ErrMin= 1.27D-06
 ErrMax= 1.27D-06  0.00D+00 EMaxC= 1.00D-01 BMatC= 8.92D-09 BMatP= 1.66D-08
 IDIUse=1 WtCom= 1.00D+00 WtEn= 0.00D+00
 Coeff-Com:  0.122D-03-0.249D-03-0.372D-03-0.456D-03 0.654D-03 0.513D-02
 Coeff-Com:  0.194D-01 0.233D-01-0.345D-01-0.242D+00-0.157D+00 0.593D+00
 Coeff-Com:  0.793D+00
 Coeff:      0.122D-03-0.249D-03-0.372D-03-0.456D-03 0.654D-03 0.513D-02
 Coeff:      0.194D-01 0.233D-01-0.345D-01-0.242D+00-0.157D+00 0.593D+00
 Coeff:      0.793D+00
 Gap=     0.123 Goal=   None    Shift=    0.000
 RMSDP=3.58D-07 MaxDP=2.14D-05 DE=-9.94D-08 OVMax= 2.14D-04

 Cycle  14  Pass 1  IDiag  1:
 RMSU=  7.88D-08    CP:  9.64D-01  1.50D+00  6.87D-01  6.26D-01  8.80D-01
                    CP:  9.22D-01  1.15D+00  1.36D+00  1.77D+00  2.20D+00
                    CP:  1.87D+00  1.77D+00  1.10D+00
 E= -4069.81139332074     Delta-E=       -0.000000039803 Rises=F Damp=F
 DIIS: error= 7.00D-07 at cycle  14 NSaved=  14.
 NSaved=14 IEnMin=14 EnMin= -4069.81139332074     IErMin=14 ErrMin= 7.00D-07
 ErrMax= 7.00D-07  0.00D+00 EMaxC= 1.00D-01 BMatC= 1.37D-09 BMatP= 8.92D-09
 IDIUse=1 WtCom= 1.00D+00 WtEn= 0.00D+00
 Coeff-Com:  0.681D-04-0.134D-03-0.253D-03-0.395D-03-0.468D-03 0.131D-02
 Coeff-Com:  0.106D-01 0.198D-01 0.397D-02-0.102D+00-0.144D+00 0.898D-01
 Coeff-Com:  0.409D+00 0.713D+00
 Coeff:      0.681D-04-0.134D-03-0.253D-03-0.395D-03-0.468D-03 0.131D-02
 Coeff:      0.106D-01 0.198D-01 0.397D-02-0.102D+00-0.144D+00 0.898D-01
 Coeff:      0.409D+00 0.713D+00
 Gap=     0.123 Goal=   None    Shift=    0.000
 RMSDP=1.08D-07 MaxDP=6.74D-06 DE=-3.98D-08 OVMax= 5.81D-05

 Cycle  15  Pass 1  IDiag  1:
 RMSU=  3.93D-08    CP:  9.64D-01  1.50D+00  6.87D-01  6.26D-01  8.80D-01
                    CP:  9.21D-01  1.15D+00  1.36D+00  1.79D+00  2.24D+00
                    CP:  1.98D+00  1.91D+00  1.33D+00  1.03D+00
 E= -4069.81139332516     Delta-E=       -0.000000004417 Rises=F Damp=F
 DIIS: error= 3.26D-07 at cycle  15 NSaved=  15.
 NSaved=15 IEnMin=15 EnMin= -4069.81139332516     IErMin=15 ErrMin= 3.26D-07
 ErrMax= 3.26D-07  0.00D+00 EMaxC= 1.00D-01 BMatC= 2.29D-10 BMatP= 1.37D-09
 IDIUse=1 WtCom= 1.00D+00 WtEn= 0.00D+00
 Coeff-Com:  0.553D-05-0.924D-05-0.337D-04-0.838D-04-0.300D-03-0.526D-03
 Coeff-Com:  0.111D-02 0.266D-02 0.885D-02 0.138D-02-0.303D-01-0.728D-01
 Coeff-Com:  0.332D-01 0.291D+00 0.766D+00
 Coeff:      0.553D-05-0.924D-05-0.337D-04-0.838D-04-0.300D-03-0.526D-03
 Coeff:      0.111D-02 0.266D-02 0.885D-02 0.138D-02-0.303D-01-0.728D-01
 Coeff:      0.332D-01 0.291D+00 0.766D+00
 Gap=     0.123 Goal=   None    Shift=    0.000
 RMSDP=4.01D-08 MaxDP=2.24D-06 DE=-4.42D-09 OVMax= 2.82D-05

 Cycle  16  Pass 1  IDiag  1:
 RMSU=  1.92D-08    CP:  9.64D-01  1.50D+00  6.87D-01  6.26D-01  8.80D-01
                    CP:  9.21D-01  1.15D+00  1.36D+00  1.79D+00  2.26D+00
                    CP:  2.00D+00  1.97D+00  1.41D+00  1.24D+00  1.14D+00
 E= -4069.81139332575     Delta-E=       -0.000000000589 Rises=F Damp=F
 DIIS: error= 1.82D-07 at cycle  16 NSaved=  16.
 NSaved=16 IEnMin=16 EnMin= -4069.81139332575     IErMin=16 ErrMin= 1.82D-07
 ErrMax= 1.82D-07  0.00D+00 EMaxC= 1.00D-01 BMatC= 8.85D-11 BMatP= 2.29D-10
 IDIUse=1 WtCom= 1.00D+00 WtEn= 0.00D+00
 Coeff-Com: -0.143D-04 0.291D-04 0.471D-04 0.532D-04-0.331D-04-0.641D-03
 Coeff-Com: -0.194D-02-0.427D-02 0.445D-02 0.256D-01 0.209D-01-0.649D-01
 Coeff-Com: -0.801D-01-0.426D-01 0.403D+00 0.740D+00
 Coeff:     -0.143D-04 0.291D-04 0.471D-04 0.532D-04-0.331D-04-0.641D-03
 Coeff:     -0.194D-02-0.427D-02 0.445D-02 0.256D-01 0.209D-01-0.649D-01
 Coeff:     -0.801D-01-0.426D-01 0.403D+00 0.740D+00
 Gap=     0.123 Goal=   None    Shift=    0.000
 RMSDP=2.39D-08 MaxDP=1.28D-06 DE=-5.89D-10 OVMax= 1.26D-05

 Cycle  17  Pass 1  IDiag  1:
 RMSU=  1.07D-08    CP:  9.64D-01  1.50D+00  6.87D-01  6.26D-01  8.80D-01
                    CP:  9.22D-01  1.15D+00  1.36D+00  1.79D+00  2.26D+00
                    CP:  2.01D+00  2.00D+00  1.46D+00  1.34D+00  1.44D+00
                    CP:  1.24D+00
 E= -4069.81139332618     Delta-E=       -0.000000000429 Rises=F Damp=F
 DIIS: error= 9.23D-08 at cycle  17 NSaved=  17.
 NSaved=17 IEnMin=17 EnMin= -4069.81139332618     IErMin=17 ErrMin= 9.23D-08
 ErrMax= 9.23D-08  0.00D+00 EMaxC= 1.00D-01 BMatC= 1.83D-11 BMatP= 8.85D-11
 IDIUse=1 WtCom= 1.00D+00 WtEn= 0.00D+00
 Coeff-Com: -0.735D-05 0.143D-04 0.291D-04 0.430D-04 0.827D-04-0.126D-03
 Coeff-Com: -0.941D-03-0.283D-02 0.570D-04 0.943D-02 0.177D-01-0.773D-02
 Coeff-Com: -0.353D-01-0.102D+00-0.254D-01 0.288D+00 0.859D+00
 Coeff:     -0.735D-05 0.143D-04 0.291D-04 0.430D-04 0.827D-04-0.126D-03
 Coeff:     -0.941D-03-0.283D-02 0.570D-04 0.943D-02 0.177D-01-0.773D-02
 Coeff:     -0.353D-01-0.102D+00-0.254D-01 0.288D+00 0.859D+00
 Gap=     0.123 Goal=   None    Shift=    0.000
 RMSDP=1.38D-08 MaxDP=8.51D-07 DE=-4.29D-10 OVMax= 9.51D-06

 Cycle  18  Pass 1  IDiag  1:
 RMSU=  5.15D-09    CP:  9.64D-01  1.50D+00  6.87D-01  6.26D-01  8.80D-01
                    CP:  9.22D-01  1.15D+00  1.36D+00  1.79D+00  2.26D+00
                    CP:  2.02D+00  2.00D+00  1.47D+00  1.41D+00  1.61D+00
                    CP:  1.65D+00  1.37D+00
 E= -4069.81139332657     Delta-E=       -0.000000000397 Rises=F Damp=F
 DIIS: error= 6.18D-08 at cycle  18 NSaved=  18.
 NSaved=18 IEnMin=18 EnMin= -4069.81139332657     IErMin=18 ErrMin= 6.18D-08
 ErrMax= 6.18D-08  0.00D+00 EMaxC= 1.00D-01 BMatC= 7.72D-12 BMatP= 1.83D-11
 IDIUse=1 WtCom= 1.00D+00 WtEn= 0.00D+00
 Coeff-Com:  0.165D-05-0.361D-05-0.301D-05 0.629D-06 0.625D-04 0.175D-03
 Coeff-Com:  0.338D-03 0.104D-03-0.129D-02-0.553D-02 0.638D-03 0.186D-01
 Coeff-Com:  0.160D-01-0.359D-01-0.158D+00-0.177D+00 0.385D+00 0.956D+00
 Coeff:      0.165D-05-0.361D-05-0.301D-05 0.629D-06 0.625D-04 0.175D-03
 Coeff:      0.338D-03 0.104D-03-0.129D-02-0.553D-02 0.638D-03 0.186D-01
 Coeff:      0.160D-01-0.359D-01-0.158D+00-0.177D+00 0.385D+00 0.956D+00
 Gap=     0.123 Goal=   None    Shift=    0.000
 RMSDP=1.17D-08 MaxDP=6.74D-07 DE=-3.97D-10 OVMax= 6.11D-06

 Cycle  19  Pass 1  IDiag  1:
 RMSU=  3.04D-09    CP:  9.64D-01  1.50D+00  6.87D-01  6.26D-01  8.80D-01
                    CP:  9.22D-01  1.15D+00  1.36D+00  1.79D+00  2.26D+00
                    CP:  2.02D+00  2.01D+00  1.49D+00  1.45D+00  1.76D+00
                    CP:  1.96D+00  1.91D+00  1.29D+00
 E= -4069.81139332631     Delta-E=        0.000000000262 Rises=F Damp=F
 DIIS: error= 3.13D-08 at cycle  19 NSaved=  19.
 NSaved=19 IEnMin=18 EnMin= -4069.81139332657     IErMin=19 ErrMin= 3.13D-08
 ErrMax= 3.13D-08  0.00D+00 EMaxC= 1.00D-01 BMatC= 1.79D-12 BMatP= 7.72D-12
 IDIUse=1 WtCom= 1.00D+00 WtEn= 0.00D+00
 Coeff-Com:  0.297D-05-0.601D-05-0.996D-05-0.121D-04 0.155D-04 0.128D-03
 Coeff-Com:  0.478D-03 0.808D-03-0.654D-03-0.614D-02-0.473D-02 0.127D-01
 Coeff-Com:  0.206D-01 0.987D-02-0.762D-01-0.186D+00-0.962D-02 0.517D+00
 Coeff-Com:  0.722D+00
 Coeff:      0.297D-05-0.601D-05-0.996D-05-0.121D-04 0.155D-04 0.128D-03
 Coeff:      0.478D-03 0.808D-03-0.654D-03-0.614D-02-0.473D-02 0.127D-01
 Coeff:      0.206D-01 0.987D-02-0.762D-01-0.186D+00-0.962D-02 0.517D+00
 Coeff:      0.722D+00
 Gap=     0.123 Goal=   None    Shift=    0.000
 RMSDP=4.79D-09 MaxDP=3.45D-07 DE= 2.62D-10 OVMax= 3.47D-06

 SCF Done:  E(RCAM-B3LYP) =  -4069.81139333     A.U. after   19 cycles
            NFock= 19  Conv=0.48D-08     -V/T= 2.0102
 KE= 4.028802266314D+03 PE=-3.717121721459D+04 EE= 1.522768446004D+04
 Leave Link  502 at Sun Sep 12 03:59:38 2021, MaxMem= 23488102400 cpu:           12052.7 elap:             526.8
 (Enter /sw/apps/gaussian-16.0/g16/l801.exe)
 DoSCS=F DFT=T ScalE2(SS,OS)=  1.000000  1.000000
 ExpMin= 3.36D-02 ExpMax= 4.95D+03 ExpMxC= 7.45D+02 IAcc=3 IRadAn=         5 AccDes= 0.00D+00
 HarFok:  IExCor=  205 AccDes= 0.00D+00 IRadAn=         5 IDoV=-2 UseB2=F ITyADJ=14
 ICtDFT= 12500011 ScaDFX=  1.000000  1.000000  1.000000  1.000000
 GSVD:  LWork=       -9588 too small for GESVD, short by       45590 words or       45590 for optimal perf.
 Largest valence mixing into a core orbital is  2.03D-04
 Largest core mixing into a valence orbital is  5.24D-05
 Range of M.O.s used for correlation:    95  1572
 NBasis=  1572 NAE=   312 NBE=   312 NFC=    94 NFV=     0
 NROrb=   1478 NOA=   218 NOB=   218 NVA=  1260 NVB=  1260
 Leave Link  801 at Sun Sep 12 03:59:38 2021, MaxMem= 23488102400 cpu:               9.5 elap:               0.4
 (Enter /sw/apps/gaussian-16.0/g16/l914.exe)
 RHF ground state
 Two-electron integrals replicated using symmetry.
 MDV= 23488102400 DFT=T DoStab=F Mixed=T DoRPA=T DoScal=F NonHer=T
 Making orbital integer symmetry assigments:
 Orbital symmetries:
       Occupied  (A) (A) (A) (A) (A) (A) (A) (A) (A) (A) (A) (A)
                 (A) (A) (A) (A) (A) (A) (A) (A) (A) (A) (A) (A)
                 (A) (A) (A) (A) (A) (A) (A) (A) (A) (A) (A) (A)
                 (A) (A) (A) (A) (A) (A) (A) (A) (A) (A) (A) (A)
                 (A) (A) (A) (A) (A) (A) (A) (A) (A) (A) (A) (A)
                 (A) (A) (A) (A) (A) (A) (A) (A) (A) (A) (A) (A)
                 (A) (A) (A) (A) (A) (A) (A) (A) (A) (A) (A) (A)
                 (A) (A) (A) (A) (A) (A) (A) (A) (A) (A) (A) (A)
                 (A) (A) (A) (A) (A) (A) (A) (A) (A) (A) (A) (A)
                 (A) (A) (A) (A) (A) (A) (A) (A) (A) (A) (A) (A)
                 (A) (A) (A) (A) (A) (A) (A) (A) (A) (A) (A) (A)
                 (A) (A) (A) (A) (A) (A) (A) (A) (A) (A) (A) (A)
                 (A) (A) (A) (A) (A) (A) (A) (A) (A) (A) (A) (A)
                 (A) (A) (A) (A) (A) (A) (A) (A) (A) (A) (A) (A)
                 (A) (A) (A) (A) (A) (A) (A) (A) (A) (A) (A) (A)
                 (A) (A) (A) (A) (A) (A) (A) (A) (A) (A) (A) (A)
                 (A) (A) (A) (A) (A) (A) (A) (A) (A) (A) (A) (A)
                 (A) (A) (A) (A) (A) (A) (A) (A) (A) (A) (A) (A)
                 (A) (A) (A) (A) (A) (A) (A) (A) (A) (A) (A) (A)
                 (A) (A) (A) (A) (A) (A) (A) (A) (A) (A) (A) (A)
                 (A) (A) (A) (A) (A) (A) (A) (A) (A) (A) (A) (A)
                 (A) (A) (A) (A) (A) (A) (A) (A) (A) (A) (A) (A)
                 (A) (A) (A) (A) (A) (A) (A) (A) (A) (A) (A) (A)
                 (A) (A) (A) (A) (A) (A) (A) (A) (A) (A) (A) (A)
                 (A) (A) (A) (A) (A) (A) (A) (A) (A) (A) (A) (A)
                 (A) (A) (A) (A) (A) (A) (A) (A) (A) (A) (A) (A)
       Virtual   (A) (A) (A) (A) (A) (A) (A) (A) (A) (A) (A) (A)
                 (A) (A) (A) (A) (A) (A) (A) (A) (A) (A) (A) (A)
                 (A) (A) (A) (A) (A) (A) (A) (A) (A) (A) (A) (A)
                 (A) (A) (A) (A) (A) (A) (A) (A) (A) (A) (A) (A)
                 (A) (A) (A) (A) (A) (A) (A) (A) (A) (A) (A) (A)
                 (A) (A) (A) (A) (A) (A) (A) (A) (A) (A) (A) (A)
                 (A) (A) (A) (A) (A) (A) (A) (A) (A) (A) (A) (A)
                 (A) (A) (A) (A) (A) (A) (A) (A) (A) (A) (A) (A)
                 (A) (A) (A) (A) (A) (A) (A) (A) (A) (A) (A) (A)
                 (A) (A) (A) (A) (A) (A) (A) (A) (A) (A) (A) (A)
                 (A) (A) (A) (A) (A) (A) (A) (A) (A) (A) (A) (A)
                 (A) (A) (A) (A) (A) (A) (A) (A) (A) (A) (A) (A)
                 (A) (A) (A) (A) (A) (A) (A) (A) (A) (A) (A) (A)
                 (A) (A) (A) (A) (A) (A) (A) (A) (A) (A) (A) (A)
                 (A) (A) (A) (A) (A) (A) (A) (A) (A) (A) (A) (A)
                 (A) (A) (A) (A) (A) (A) (A) (A) (A) (A) (A) (A)
                 (A) (A) (A) (A) (A) (A) (A) (A) (A) (A) (A) (A)
                 (A) (A) (A) (A) (A) (A) (A) (A) (A) (A) (A) (A)
                 (A) (A) (A) (A) (A) (A) (A) (A) (A) (A) (A) (A)
                 (A) (A) (A) (A) (A) (A) (A) (A) (A) (A) (A) (A)
                 (A) (A) (A) (A) (A) (A) (A) (A) (A) (A) (A) (A)
                 (A) (A) (A) (A) (A) (A) (A) (A) (A) (A) (A) (A)
                 (A) (A) (A) (A) (A) (A) (A) (A) (A) (A) (A) (A)
                 (A) (A) (A) (A) (A) (A) (A) (A) (A) (A) (A) (A)
                 (A) (A) (A) (A) (A) (A) (A) (A) (A) (A) (A) (A)
                 (A) (A) (A) (A) (A) (A) (A) (A) (A) (A) (A) (A)
                 (A) (A) (A) (A) (A) (A) (A) (A) (A) (A) (A) (A)
                 (A) (A) (A) (A) (A) (A) (A) (A) (A) (A) (A) (A)
                 (A) (A) (A) (A) (A) (A) (A) (A) (A) (A) (A) (A)
                 (A) (A) (A) (A) (A) (A) (A) (A) (A) (A) (A) (A)
                 (A) (A) (A) (A) (A) (A) (A) (A) (A) (A) (A) (A)
                 (A) (A) (A) (A) (A) (A) (A) (A) (A) (A) (A) (A)
                 (A) (A) (A) (A) (A) (A) (A) (A) (A) (A) (A) (A)
                 (A) (A) (A) (A) (A) (A) (A) (A) (A) (A) (A) (A)
                 (A) (A) (A) (A) (A) (A) (A) (A) (A) (A) (A) (A)
                 (A) (A) (A) (A) (A) (A) (A) (A) (A) (A) (A) (A)
                 (A) (A) (A) (A) (A) (A) (A) (A) (A) (A) (A) (A)
                 (A) (A) (A) (A) (A) (A) (A) (A) (A) (A) (A) (A)
                 (A) (A) (A) (A) (A) (A) (A) (A) (A) (A) (A) (A)
                 (A) (A) (A) (A) (A) (A) (A) (A) (A) (A) (A) (A)
                 (A) (A) (A) (A) (A) (A) (A) (A) (A) (A) (A) (A)
                 (A) (A) (A) (A) (A) (A) (A) (A) (A) (A) (A) (A)
                 (A) (A) (A) (A) (A) (A) (A) (A) (A) (A) (A) (A)
                 (A) (A) (A) (A) (A) (A) (A) (A) (A) (A) (A) (A)
                 (A) (A) (A) (A) (A) (A) (A) (A) (A) (A) (A) (A)
                 (A) (A) (A) (A) (A) (A) (A) (A) (A) (A) (A) (A)
                 (A) (A) (A) (A) (A) (A) (A) (A) (A) (A) (A) (A)
                 (A) (A) (A) (A) (A) (A) (A) (A) (A) (A) (A) (A)
                 (A) (A) (A) (A) (A) (A) (A) (A) (A) (A) (A) (A)
                 (A) (A) (A) (A) (A) (A) (A) (A) (A) (A) (A) (A)
                 (A) (A) (A) (A) (A) (A) (A) (A) (A) (A) (A) (A)
                 (A) (A) (A) (A) (A) (A) (A) (A) (A) (A) (A) (A)
                 (A) (A) (A) (A) (A) (A) (A) (A) (A) (A) (A) (A)
                 (A) (A) (A) (A) (A) (A) (A) (A) (A) (A) (A) (A)
                 (A) (A) (A) (A) (A) (A) (A) (A) (A) (A) (A) (A)
                 (A) (A) (A) (A) (A) (A) (A) (A) (A) (A) (A) (A)
                 (A) (A) (A) (A) (A) (A) (A) (A) (A) (A) (A) (A)
                 (A) (A) (A) (A) (A) (A) (A) (A) (A) (A) (A) (A)
                 (A) (A) (A) (A) (A) (A) (A) (A) (A) (A) (A) (A)
                 (A) (A) (A) (A) (A) (A) (A) (A) (A) (A) (A) (A)
                 (A) (A) (A) (A) (A) (A) (A) (A) (A) (A) (A) (A)
                 (A) (A) (A) (A) (A) (A) (A) (A) (A) (A) (A) (A)
                 (A) (A) (A) (A) (A) (A) (A) (A) (A) (A) (A) (A)
                 (A) (A) (A) (A) (A) (A) (A) (A) (A) (A) (A) (A)
                 (A) (A) (A) (A) (A) (A) (A) (A) (A) (A) (A) (A)
                 (A) (A) (A) (A) (A) (A) (A) (A) (A) (A) (A) (A)
                 (A) (A) (A) (A) (A) (A) (A) (A) (A) (A) (A) (A)
                 (A) (A) (A) (A) (A) (A) (A) (A) (A) (A) (A) (A)
                 (A) (A) (A) (A) (A) (A) (A) (A) (A) (A) (A) (A)
                 (A) (A) (A) (A) (A) (A) (A) (A) (A) (A) (A) (A)
                 (A) (A) (A) (A) (A) (A) (A) (A) (A) (A) (A) (A)
                 (A) (A) (A) (A) (A) (A) (A) (A) (A) (A) (A) (A)
                 (A) (A) (A) (A) (A) (A) (A) (A) (A) (A) (A) (A)
                 (A) (A) (A) (A) (A) (A) (A) (A) (A) (A) (A) (A)
                 (A) (A) (A) (A) (A) (A) (A) (A) (A) (A) (A) (A)
                 (A) (A) (A) (A) (A) (A) (A) (A) (A) (A) (A) (A)
                 (A) (A) (A) (A) (A) (A) (A) (A) (A) (A) (A) (A)
                 (A) (A) (A) (A) (A) (A) (A) (A) (A) (A) (A) (A)
                 (A) (A) (A) (A) (A) (A) (A) (A) (A) (A) (A) (A)
                 (A) (A) (A) (A) (A) (A) (A) (A) (A) (A) (A) (A)
                 (A) (A) (A) (A) (A) (A) (A) (A) (A) (A) (A) (A)
                 (A) (A) (A) (A) (A) (A) (A) (A) (A) (A) (A) (A)
                 (A) (A) (A) (A) (A) (A) (A) (A) (A) (A) (A) (A)
                 (A) (A) (A) (A) (A) (A) (A) (A) (A) (A) (A) (A)
                 (A) (A) (A) (A) (A) (A) (A) (A) (A) (A) (A) (A)
                 (A) (A) (A) (A) (A) (A) (A) (A) (A) (A) (A) (A)
                 (A) (A) (A) (A) (A) (A) (A) (A) (A) (A) (A) (A)
                 (A) (A) (A) (A) (A) (A) (A) (A) (A) (A) (A) (A)
                 (A) (A) (A) (A) (A) (A) (A) (A) (A) (A) (A) (A)
                 (A) (A) (A) (A) (A) (A) (A) (A) (A) (A) (A) (A)
                 (A) (A) (A) (A) (A) (A) (A) (A) (A) (A) (A) (A)
                 (A) (A) (A) (A) (A) (A) (A) (A) (A) (A) (A) (A)
                 (A) (A) (A) (A) (A) (A) (A) (A) (A) (A) (A) (A)
                 (A) (A) (A) (A) (A) (A) (A) (A) (A) (A) (A) (A)
                 (A) (A) (A) (A) (A) (A) (A) (A) (A) (A) (A) (A)
                 (A) (A) (A) (A) (A) (A) (A) (A) (A) (A) (A) (A)
                 (A) (A) (A) (A) (A) (A) (A) (A) (A) (A) (A) (A)
                 (A) (A) (A) (A) (A) (A) (A) (A) (A) (A) (A) (A)
                 (A) (A) (A) (A) (A) (A) (A) (A) (A) (A) (A) (A)
                 (A) (A) (A) (A) (A) (A) (A) (A) (A) (A) (A) (A)
                 (A) (A) (A) (A) (A) (A) (A) (A) (A) (A) (A) (A)
                 (A) (A) (A) (A) (A) (A) (A) (A) (A) (A) (A) (A)
                 (A) (A) (A) (A) (A) (A) (A) (A) (A) (A) (A) (A)
                 (A) (A) (A) (A) (A) (A) (A) (A) (A) (A) (A) (A)
                 (A) (A) (A) (A) (A) (A) (A) (A) (A) (A) (A) (A)
    20 initial guesses have been made.
 Convergence on wavefunction:    0.001000000000000
 Davidson Disk Diagonalization:  ConvIn= 1.00D-03 SkipCon=T Conv= 1.00D-03.
 Max sub-space:  2000 roots to seek:    20 dimension of matrix:       549360
 Iteration     1 Dimension    20 NMult     0 NNew     20
 CISAX will form    20 AO SS matrices at one time.
 NMat=    20 NSing=    20 JSym2X= 0.
 FoFJK:  IHMeth= 1 ICntrl=       0 DoSepK=T KAlg= 0 I1Cent=           0 FoldK=F
 IRaf=         1 NMat=      40 IRICut=       1 DoRegI=T DoRafI=F ISym2E= 0 IDoP0=3 IntGTp=3.
 FoFCou: FMM=T IPFlag=           0 FMFlag=      100000 FMFlg1=        2001
         NFxFlg=           0 DoJE=F BraDBF=F KetDBF=F FulRan=T
         wScrn=  0.000000 ICntrl=       500 IOpCl=  0 I1Cent=           0 NGrid=           0
         NMat0=   20 NMatS0=     20 NMatT0=    0 NMatD0=   20 NMtDS0=    0 NMtDT0=    0
 Symmetry not used in FoFCou.
 FMM levels:  10  Number of levels for PrismC:   9
 New state      1 was old state      8
 New state      2 was old state      5
 New state      3 was old state      1
 New state      5 was old state      2
 Excitation Energies [eV] at current iteration:
 Root      1 :     2.613938074899564
 Root      2 :     2.619828409330449
 Root      3 :     2.670400386962256
 Root      4 :     2.701174454460722
 Root      5 :     2.784898782582565
 Root      6 :     2.786275504223959
 Root      7 :     3.573634380516587
 Root      8 :     3.586685553368854
 Root      9 :     3.623466813848825
 Root     10 :     3.665827417473778
 Root     11 :     3.738112387358769
 Root     12 :     3.760554460779043
 Root     13 :     4.290710017832077
 Root     14 :     4.317042996397822
 Root     15 :     4.692509375219232
 Root     16 :     4.733922689963588
 Root     17 :     4.901935882942467
 Root     18 :     5.007873808106124
 Root     19 :     5.049778580167236
 Root     20 :     5.094943661649460
 Iteration     2 Dimension    30 NMult    20 NNew     10
 CISAX will form    10 AO SS matrices at one time.
 NMat=    10 NSing=    10 JSym2X= 0.
 New state      1 was old state      3
 Root      1 not converged, maximum delta is    0.154676435749590
 New state      2 was old state      4
 Root      2 not converged, maximum delta is    0.158044736284221
 New state      3 was old state      2
 Root      3 not converged, maximum delta is    0.446557060087921
 New state      4 was old state      1
 Root      4 not converged, maximum delta is    0.441646776829649
 Root      5 not converged, maximum delta is    0.006167047980665
 Excitation Energies [eV] at current iteration:
 Root      1 :     1.796215466418914   Change is   -0.874184920543342
 Root      2 :     1.812472587043837   Change is   -0.888701867416885
 Root      3 :     2.235003789518549   Change is   -0.384824619811900
 Root      4 :     2.239925122432011   Change is   -0.374012952467552
 Root      5 :     2.784414504216953   Change is   -0.000484278365612
 Iteration     3 Dimension    40 NMult    30 NNew     10
 CISAX will form    10 AO SS matrices at one time.
 NMat=    10 NSing=    10 JSym2X= 0.
 Root      1 not converged, maximum delta is    0.055165179244611
 Root      2 not converged, maximum delta is    0.056077592568256
 Root      3 not converged, maximum delta is    0.096715981962378
 Root      4 not converged, maximum delta is    0.096277335260231
 Root      5 has converged.
 Excitation Energies [eV] at current iteration:
 Root      1 :     1.689235699835620   Change is   -0.106979766583295
 Root      2 :     1.703897249026052   Change is   -0.108575338017785
 Root      3 :     2.194045098394790   Change is   -0.040958691123759
 Root      4 :     2.200302814669260   Change is   -0.039622307762751
 Root      5 :     2.784413428895516   Change is   -0.000001075321437
 Iteration     4 Dimension    48 NMult    40 NNew      8
 CISAX will form     8 AO SS matrices at one time.
 NMat=     8 NSing=     8 JSym2X= 0.
 Root      1 not converged, maximum delta is    0.010802865713147
 Root      2 not converged, maximum delta is    0.010802966397862
 Root      3 not converged, maximum delta is    0.014450298482703
 Root      4 not converged, maximum delta is    0.014317169265808
 Root      5 has converged.
 Excitation Energies [eV] at current iteration:
 Root      1 :     1.672489434648452   Change is   -0.016746265187167
 Root      2 :     1.687052993847054   Change is   -0.016844255178997
 Root      3 :     2.186787816268250   Change is   -0.007257282126540
 Root      4 :     2.193437699251379   Change is   -0.006865115417882
 Root      5 :     2.784413428895102   Change is   -0.000000000000414
 Iteration     5 Dimension    56 NMult    48 NNew      8
 CISAX will form     8 AO SS matrices at one time.
 NMat=     8 NSing=     8 JSym2X= 0.
 Root      1 not converged, maximum delta is    0.001754776427763
 Root      2 not converged, maximum delta is    0.001762890629715
 Root      3 not converged, maximum delta is    0.002380982897152
 Root      4 not converged, maximum delta is    0.002298562417070
 Root      5 has converged.
 Excitation Energies [eV] at current iteration:
 Root      1 :     1.670727866058124   Change is   -0.001761568590329
 Root      2 :     1.685262439024024   Change is   -0.001790554823030
 Root      3 :     2.185947980609271   Change is   -0.000839835658979
 Root      4 :     2.192651415025332   Change is   -0.000786284226046
 Root      5 :     2.784413428894867   Change is   -0.000000000000236
 Iteration     6 Dimension    64 NMult    56 NNew      8
 CISAX will form     8 AO SS matrices at one time.
 NMat=     8 NSing=     8 JSym2X= 0.
 Root      1 not converged, maximum delta is    0.001101570792000
 Root      2 not converged, maximum delta is    0.001121634245719
 Root      3 not converged, maximum delta is    0.001013352110244
 Root      4 has converged.
 Root      5 has converged.
 Excitation Energies [eV] at current iteration:
 Root      1 :     1.670477063379411   Change is   -0.000250802678712
 Root      2 :     1.685005110736525   Change is   -0.000257328287499
 Root      3 :     2.185820573916634   Change is   -0.000127406692637
 Root      4 :     2.192531650795126   Change is   -0.000119764230207
 Root      5 :     2.784413428894660   Change is   -0.000000000000207
 Iteration     7 Dimension    70 NMult    64 NNew      6
 CISAX will form     6 AO SS matrices at one time.
 NMat=     6 NSing=     6 JSym2X= 0.
 Root      1 has converged.
 Root      2 has converged.
 Root      3 has converged.
 Root      4 has converged.
 Root      5 has converged.
 Excitation Energies [eV] at current iteration:
 Root      1 :     1.670452674773509   Change is   -0.000024388605903
 Root      2 :     1.684980615682175   Change is   -0.000024495054349
[...]
 Alpha virt. eigenvalues --    1.83561   1.83874   1.83924   1.84136   1.84232
 Alpha virt. eigenvalues --    1.84564   1.84570   1.84822   1.84924   1.85159
 Alpha virt. eigenvalues --    1.85222   1.85373   1.85394   1.85525   1.85577
 Alpha virt. eigenvalues --    1.85941   1.85986   1.86416   1.86470   1.86665
 Alpha virt. eigenvalues --    1.86686   1.86856   1.86900   1.87087   1.87170
 Alpha virt. eigenvalues --    1.87524   1.87565   1.87812   1.87814   1.87983
 Alpha virt. eigenvalues --    1.88048   1.88156   1.88214   1.88604   1.88648
 Alpha virt. eigenvalues --    1.88939   1.88968   1.89107   1.89237   1.89691
 Alpha virt. eigenvalues --    1.89733   1.89857   1.89915   1.90227   1.90237
 Alpha virt. eigenvalues --    1.90879   1.90934   1.91458   1.91468   1.91559
 Alpha virt. eigenvalues --    1.91626   1.92223   1.92275   1.92691   1.92750
 Alpha virt. eigenvalues --    1.93099   1.93188   1.93449   1.93537   1.94342
 Alpha virt. eigenvalues --    1.94397   1.94798   1.94850   1.95581   1.95623
 Alpha virt. eigenvalues --    1.95852   1.95854   1.96078   1.96125   1.96218
 Alpha virt. eigenvalues --    1.96262   1.96521   1.96715   1.96965   1.97012
 Alpha virt. eigenvalues --    1.97570   1.97580   1.97844   1.97954   1.98204
 Alpha virt. eigenvalues --    1.98294   1.98395   1.98823   1.99105   1.99262
 Alpha virt. eigenvalues --    1.99948   1.99963   2.00765   2.00776   2.01126
 Alpha virt. eigenvalues --    2.01138   2.01539   2.01613   2.01646   2.01789
 Alpha virt. eigenvalues --    2.01853   2.01860   2.02746   2.02905   2.03170
 Alpha virt. eigenvalues --    2.03347   2.03417   2.03534   2.03565   2.03620
 Alpha virt. eigenvalues --    2.04064   2.04160   2.05010   2.05071   2.05627
 Alpha virt. eigenvalues --    2.05663   2.06197   2.06323   2.07047   2.07083
 Alpha virt. eigenvalues --    2.07312   2.07397   2.08579   2.08688   2.09042
 Alpha virt. eigenvalues --    2.09101   2.09650   2.09716   2.10883   2.11065
 Alpha virt. eigenvalues --    2.11305   2.11447   2.11564   2.11665   2.11843
 Alpha virt. eigenvalues --    2.11896   2.12495   2.12587   2.12833   2.12907
 Alpha virt. eigenvalues --    2.12918   2.12954   2.13656   2.13892   2.14245
 Alpha virt. eigenvalues --    2.14285   2.15438   2.15453   2.16051   2.16118
 Alpha virt. eigenvalues --    2.16624   2.16633   2.16883   2.17229   2.17533
 Alpha virt. eigenvalues --    2.17679   2.17820   2.17966   2.18039   2.18186
 Alpha virt. eigenvalues --    2.18460   2.18714   2.19001   2.19275   2.19764
 Alpha virt. eigenvalues --    2.19854   2.20158   2.20286   2.20342   2.20467
 Alpha virt. eigenvalues --    2.21200   2.21252   2.21787   2.21808   2.21882
 Alpha virt. eigenvalues --    2.21921   2.22731   2.22794   2.23383   2.23433
 Alpha virt. eigenvalues --    2.24453   2.24507   2.25031   2.25060   2.26431
 Alpha virt. eigenvalues --    2.26478   2.26894   2.27042   2.27233   2.27243
 Alpha virt. eigenvalues --    2.28254   2.28340   2.29380   2.29466   2.29859
 Alpha virt. eigenvalues --    2.29915   2.30577   2.30656   2.30861   2.31202
 Alpha virt. eigenvalues --    2.31234   2.31330   2.32229   2.32268   2.33258
 Alpha virt. eigenvalues --    2.33264   2.33517   2.33582   2.34167   2.34251
 Alpha virt. eigenvalues --    2.35343   2.35513   2.35914   2.35936   2.36367
 Alpha virt. eigenvalues --    2.36457   2.36476   2.36741   2.37711   2.37770
 Alpha virt. eigenvalues --    2.38361   2.38405   2.38803   2.38978   2.39701
 Alpha virt. eigenvalues --    2.39727   2.40292   2.40293   2.40608   2.40854
 Alpha virt. eigenvalues --    2.41235   2.41390   2.41722   2.41794   2.42172
 Alpha virt. eigenvalues --    2.42177   2.42844   2.43043   2.43116   2.43698
 Alpha virt. eigenvalues --    2.43999   2.44297   2.44833   2.44847   2.45021
 Alpha virt. eigenvalues --    2.45021   2.45606   2.45665   2.46311   2.46409
 Alpha virt. eigenvalues --    2.46535   2.46600   2.46840   2.46923   2.47376
 Alpha virt. eigenvalues --    2.47415   2.47828   2.47912   2.49411   2.49412
 Alpha virt. eigenvalues --    2.49915   2.50170   2.50474   2.50649   2.51246
 Alpha virt. eigenvalues --    2.51299   2.51633   2.52004   2.52414   2.52564
 Alpha virt. eigenvalues --    2.52925   2.53182   2.53986   2.54028   2.54247
 Alpha virt. eigenvalues --    2.54299   2.54841   2.54906   2.55630   2.55693
 Alpha virt. eigenvalues --    2.57972   2.58096   2.58751   2.58918   2.60330
 Alpha virt. eigenvalues --    2.60339   2.60727   2.60934   2.61817   2.61836
 Alpha virt. eigenvalues --    2.62447   2.62648   2.63075   2.63151   2.64048
 Alpha virt. eigenvalues --    2.64231   2.64343   2.64436   2.65114   2.65192
 Alpha virt. eigenvalues --    2.65871   2.65902   2.66833   2.66883   2.67016
 Alpha virt. eigenvalues --    2.67065   2.67994   2.68019   2.68832   2.68970
 Alpha virt. eigenvalues --    2.69055   2.69152   2.69497   2.69606   2.70111
 Alpha virt. eigenvalues --    2.70153   2.71081   2.71099   2.71913   2.72181
 Alpha virt. eigenvalues --    2.72522   2.72756   2.72781   2.72987   2.73296
 Alpha virt. eigenvalues --    2.73376   2.73503   2.73703   2.74532   2.74634
 Alpha virt. eigenvalues --    2.75074   2.75098   2.76534   2.76701   2.77098
 Alpha virt. eigenvalues --    2.77362   2.77565   2.77611   2.78289   2.78299
 Alpha virt. eigenvalues --    2.78703   2.78857   2.79167   2.79250   2.80268
 Alpha virt. eigenvalues --    2.80457   2.80711   2.80730   2.81181   2.81248
 Alpha virt. eigenvalues --    2.82021   2.82055   2.82350   2.82454   2.83853
 Alpha virt. eigenvalues --    2.83862   2.83897   2.83944   2.84544   2.84660
 Alpha virt. eigenvalues --    2.84898   2.84990   2.85696   2.85771   2.86674
 Alpha virt. eigenvalues --    2.87118   2.87196   2.87759   2.88241   2.88257
 Alpha virt. eigenvalues --    2.88626   2.88638   2.88889   2.89051   2.90610
 Alpha virt. eigenvalues --    2.90660   2.91075   2.91292   2.93271   2.93326
 Alpha virt. eigenvalues --    2.93775   2.94311   2.94572   2.94656   2.95466
 Alpha virt. eigenvalues --    2.95483   2.95864   2.96351   2.96375   2.96557
 Alpha virt. eigenvalues --    2.96891   2.97323   2.97946   2.98027   2.98315
 Alpha virt. eigenvalues --    2.98364   2.98485   2.98576   2.98728   2.98815
 Alpha virt. eigenvalues --    2.98944   2.98992   2.99682   2.99795   3.00036
 Alpha virt. eigenvalues --    3.00158   3.00335   3.00346   3.00585   3.00989
 Alpha virt. eigenvalues --    3.01898   3.02091   3.02113   3.02139   3.02831
 Alpha virt. eigenvalues --    3.02880   3.03102   3.03306   3.03427   3.03705
 Alpha virt. eigenvalues --    3.04053   3.04273   3.04430   3.04578   3.04655
 Alpha virt. eigenvalues --    3.04766   3.05349   3.05390   3.06160   3.06220
 Alpha virt. eigenvalues --    3.06921   3.06931   3.07914   3.08240   3.09352
 Alpha virt. eigenvalues --    3.09514   3.09804   3.10421   3.10554   3.10735
 Alpha virt. eigenvalues --    3.11425   3.11473   3.11894   3.12069   3.12268
 Alpha virt. eigenvalues --    3.12300   3.13404   3.13650   3.13690   3.13742
 Alpha virt. eigenvalues --    3.14252   3.14500   3.15983   3.16015   3.17389
 Alpha virt. eigenvalues --    3.17543   3.17875   3.18176   3.19038   3.19235
 Alpha virt. eigenvalues --    3.22475   3.22623   3.24071   3.24464   3.24822
 Alpha virt. eigenvalues --    3.25231   3.26626   3.26670   3.27406   3.27743
 Alpha virt. eigenvalues --    3.29251   3.29278   3.31391   3.31648   3.33191
 Alpha virt. eigenvalues --    3.33535   3.40290   3.40815   3.42816   3.42922
 Alpha virt. eigenvalues --    3.48727   3.48794   3.50140   3.50288   3.50841
 Alpha virt. eigenvalues --    3.51592   3.56667   3.57014   3.59213   3.59344
 Alpha virt. eigenvalues --    3.62536   3.62967   3.66110   3.66285   3.67365
 Alpha virt. eigenvalues --    3.67572   3.73445   3.74063   3.76224   3.76726
          Condensed to atoms (all electrons):
 Mulliken charges:
               1
     1  Mg   0.838878
     2  C   -0.002650
     3  C   -0.094200
     4  C   -0.046005
     5  C   -0.064066
     6  N   -0.256710
     7  C   -0.052384
     8  C   -0.014010
     9  C   -0.086976
    10  C    0.046278
    11  C    0.104871
    12  C    0.053500
    13  C   -0.071760
    14  H    0.036446
    15  N   -0.433047
    16  C    0.168303
    17  C   -0.177346
    18  C   -0.004199
    19  C    0.148630
    20  C    0.110257
    21  C    0.012107
    22  O   -0.249902
    23  C    0.062567
    24  N   -0.341132
    25  C    0.041151
    26  C   -0.028080
    27  C   -0.024009
    28  C    0.074940
    29  C    0.076230
    30  C    0.035173
    31  C   -0.004470
    32  N   -0.310612
    33  C    0.080665
    34  C   -0.169381
    35  C    0.008624
    36  C    0.083303
    37  C    0.127176
    38  C    0.046640
    39  O   -0.187789
    40  C   -0.005531
    41  C    0.212848
    42  O   -0.255984
    43  O   -0.305143
    44  C    0.157395
    45  H   -0.017849
    46  H   -0.017111
    47  H   -0.041488
    48  H    0.000961
    49  H   -0.004236
    50  H    0.025475
    51  H    0.016337
    52  H    0.016428
    53  H    0.011022
    54  H    0.044810
    55  H    0.017712
    56  H    0.017531
    57  H    0.005736
    58  H    0.026584
    59  H    0.039171
    60  H    0.037266
    61  H    0.035347
    62  H    0.031307
    63  H    0.016309
    64  H    0.009409
    65  H    0.022983
    66  H    0.012526
    67  H    0.004661
    68  H    0.006102
    69  H    0.004828
    70  H    0.008472
    71  H    0.017946
    72  H    0.029341
    73  H    0.048257
    74  H    0.009032
    75  H    0.045889
    76  H    0.034963
    77  H    0.042891
    78  H    0.045980
    79  H    0.054813
    80  Mg   0.837678
    81  C   -0.016792
    82  C   -0.087895
    83  C   -0.045602
    84  C   -0.064888
    85  N   -0.254491
    86  C   -0.049837
    87  C   -0.015014
    88  C   -0.090509
    89  C    0.045625
    90  C    0.114423
    91  C    0.062570
    92  C   -0.077732
    93  H    0.034835
    94  N   -0.423437
    95  C    0.162757
    96  C   -0.174883
    97  C   -0.007990
    98  C    0.151985
    99  C    0.099470
   100  C    0.015421
   101  O   -0.253396
   102  C    0.061262
   103  N   -0.350066
   104  C    0.037403
   105  C   -0.019771
   106  C   -0.034843
   107  C    0.089032
   108  C    0.073713
   109  C    0.034748
   110  C   -0.007649
   111  N   -0.324229
   112  C    0.078561
   113  C   -0.162965
   114  C    0.002725
   115  C    0.096129
   116  C    0.131595
   117  C    0.042870
   118  O   -0.186147
   119  C    0.000750
   120  C    0.211439
   121  O   -0.251164
   122  O   -0.305529
   123  C    0.152022
   124  H   -0.020036
   125  H   -0.015777
   126  H   -0.040285
   127  H   -0.000605
   128  H   -0.004577
   129  H    0.022575
   130  H    0.014336
   131  H    0.015779
   132  H    0.013832
   133  H    0.037814
   134  H    0.020626
   135  H    0.019356
   136  H    0.008517
   137  H    0.025817
   138  H    0.039555
   139  H    0.038090
   140  H    0.036179
   141  H    0.033820
   142  H    0.014250
   143  H    0.012478
   144  H    0.024937
   145  H    0.011568
   146  H    0.005677
   147  H    0.006098
   148  H    0.003725
   149  H    0.010818
   150  H    0.017895
   151  H    0.030183
   152  H    0.046574
   153  H    0.008193
   154  H    0.048043
   155  H    0.035503
   156  H    0.044221
   157  H    0.049041
   158  H    0.053596
 Sum of Mulliken charges =  -0.00000
 Mulliken charges with hydrogens summed into heavy atoms:
               1
     1  Mg   0.838878
     2  C   -0.002650
     3  C   -0.112049
     4  C   -0.063116
     5  C   -0.105554
     6  N   -0.256710
     7  C   -0.052384
     8  C   -0.013049
     9  C   -0.091212
    10  C    0.046278
    11  C    0.163111
    12  C    0.109332
    13  C   -0.000070
    15  N   -0.433047
    16  C    0.168303
    17  C   -0.177346
    18  C   -0.004199
    19  C    0.148630
    20  C    0.181748
    21  C    0.012107
    22  O   -0.249902
    23  C    0.166487
    24  N   -0.341132
    25  C    0.041151
    26  C   -0.011771
    27  C   -0.014600
    28  C    0.074940
    29  C    0.116399
    30  C    0.046103
    31  C    0.051290
    32  N   -0.310612
    33  C    0.080665
    34  C   -0.169381
    35  C    0.008624
    36  C    0.083303
    37  C    0.230354
    38  C    0.046640
    39  O   -0.187789
    40  C    0.029431
    41  C    0.212848
    42  O   -0.255984
    43  O   -0.305143
    44  C    0.301078
    80  Mg   0.837678
    81  C   -0.016792
    82  C   -0.107931
    83  C   -0.061379
    84  C   -0.105173
    85  N   -0.254491
    86  C   -0.049837
    87  C   -0.015620
    88  C   -0.095085
    89  C    0.045625
    90  C    0.167114
    91  C    0.114215
    92  C   -0.002915
    94  N   -0.423437
    95  C    0.162757
    96  C   -0.174883
    97  C   -0.007990
    98  C    0.151985
    99  C    0.173359
   100  C    0.015421
   101  O   -0.253396
   102  C    0.169351
   103  N   -0.350066
   104  C    0.037403
   105  C   -0.005520
   106  C   -0.022364
   107  C    0.089032
   108  C    0.115894
   109  C    0.044572
   110  C    0.051246
   111  N   -0.324229
   112  C    0.078561
   113  C   -0.162965
   114  C    0.002725
   115  C    0.096129
   116  C    0.234405
   117  C    0.042870
   118  O   -0.186147
   119  C    0.036253
   120  C    0.211439
   121  O   -0.251164
   122  O   -0.305529
   123  C    0.298880
 Electronic spatial extent (au):  <R**2>=         187697.7608
 Charge=             -0.0000 electrons
 Dipole moment (field-independent basis, Debye):
    X=              0.6875    Y=             -0.8430    Z=              8.2175  Tot=              8.2892
 Quadrupole moment (field-independent basis, Debye-Ang):
   XX=           -475.7424   YY=           -520.6891   ZZ=           -474.5564
   XY=            -19.7805   XZ=             -4.4667   YZ=             59.7818
 Traceless Quadrupole moment (field-independent basis, Debye-Ang):
   XX=             14.5869   YY=            -30.3598   ZZ=             15.7729
   XY=            -19.7805   XZ=             -4.4667   YZ=             59.7818
 Octapole moment (field-independent basis, Debye-Ang**2):
  XXX=            162.7303  YYY=            456.3036  ZZZ=            158.0790  XYY=             14.4296
  XXY=            275.6034  XXZ=            645.8666  XZZ=              8.8679  YZZ=           -179.1760
  YYZ=             11.8732  XYZ=             80.7563
 Hexadecapole moment (field-independent basis, Debye-Ang**3):
 XXXX=        -192890.8288 YYYY=         -37385.6154 ZZZZ=         -20607.0112 XXXY=          -3574.3802
 XXXZ=          -2429.6215 YYYX=            -53.6186 YYYZ=           1056.4393 ZZZX=            608.6262
 ZZZY=             31.1783 XXYY=         -41483.2424 XXZZ=         -33341.1425 YYZZ=         -10304.8672
 XXYZ=           2833.6604 YYXZ=            -70.4233 ZZXY=           -351.6595
 N-N= 1.384491909491D+04 E-N=-3.717121719918D+04  KE= 4.028802266314D+03
 Leave Link  601 at Sun Sep 12 04:20:56 2021, MaxMem= 23488102400 cpu:              18.0 elap:               0.9
 (Enter /sw/apps/gaussian-16.0/g16/l9999.exe)
 1\1\GINC-BP1-COMPUTE00090\SP\RCAM-B3LYP TD-FC\def2SVP\C68H72Mg2N8O8\OF
 15641\12-Sep-2021\0\\#p cam-b3lyp/Def2SVP td=(nstates=5)\\TDDFT excite
 d states in gaussian\\0,1\Mg,0,0.,0.,0.\C,0,-0.217,-2.218,2.801\C,0,-1
 .255,2.442,2.026\C,0,-0.245,1.85,-2.564\C,0,0.146,-2.824,-2.037\N,0,-0
 .617,-0.009,2.126\C,0,-0.594,-0.908,3.105\C,0,-0.936,-0.309,4.502\C,0,
 -1.773,0.964,4.032\C,0,-1.155,1.168,2.66\C,0,-3.263,0.685,3.863\C,0,0.
 345,0.11,5.299\C,0,0.124,0.397,6.787\H,0,1.168,0.033,7.733\N,0,-0.185,
 1.961,-0.152\C,0,-0.703,2.8,0.777\C,0,-0.62,4.156,0.193\C,0,-0.187,4.0
 15,-1.225\C,0,-0.214,2.583,-1.38\C,0,-0.887,5.406,0.974\C,0,0.181,5.01
 3,-2.277\O,0,0.303,4.69,-3.508\C,0,0.31,6.414,-1.837\N,0,-0.265,-0.413
 ,-2.029\C,0,-0.279,0.569,-2.937\C,0,-0.196,0.024,-4.332\C,0,0.124,-1.5
 33,-4.18\C,0,0.086,-1.632,-2.635\C,0,-1.451,0.205,-5.197\C,0,1.373,-2.
 07,-4.923\C,0,2.626,-1.49,-4.306\N,0,0.15,-2.144,0.303\C,0,0.173,-3.13
 6,-0.688\C,0,0.173,-4.438,0.004\C,0,0.133,-4.111,1.358\C,0,0.083,-2.69
 5,1.502\C,0,0.149,-5.715,-0.623\C,0,0.096,-4.629,2.716\O,0,0.208,-5.74
 7,3.221\C,0,-0.255,-3.428,3.701\C,0,0.717,-3.482,4.848\O,0,1.931,-3.25
 5,4.669\O,0,0.038,-3.556,6.003\C,0,0.943,-3.583,7.183\H,0,-1.859,3.22,
 2.497\H,0,-0.218,2.453,-3.474\H,0,0.276,-3.747,-2.605\H,0,-1.554,-0.94
 9,5.132\H,0,-1.585,1.831,4.665\H,0,-3.484,-0.377,3.969\H,0,-3.511,1.02
 7,2.858\H,0,-3.852,1.301,4.543\H,0,0.669,1.096,4.966\H,0,1.13,-0.639,5
 .189\H,0,-0.844,0.026,7.125\H,0,0.062,1.477,6.921\H,0,-1.344,5.186,1.9
 38\H,0,-1.651,5.963,0.432\H,0,0.007,6.02,1.084\H,0,-0.635,6.744,-1.405
 \H,0,0.665,6.97,-2.704\H,0,1.048,6.466,-1.036\H,0,0.608,0.501,-4.891\H
 ,0,-0.692,-2.156,-4.547\H,0,-1.267,0.74,-6.129\H,0,-2.204,0.714,-4.596
 \H,0,-1.967,-0.72,-5.453\H,0,1.356,-1.759,-5.967\H,0,1.452,-3.157,-4.9
 02\H,0,2.714,-0.522,-4.798\H,0,3.487,-2.121,-4.529\H,0,2.495,-1.303,-3
 .24\H,0,0.867,-6.333,-0.084\H,0,0.404,-5.642,-1.68\H,0,-0.891,-5.999,-
 0.463\H,0,-1.283,-3.581,4.028\H,0,0.698,-4.478,7.755\H,0,0.833,-2.619,
 7.68\H,0,2.,-3.754,6.976\Mg,0,15.7736,1.4184,1.20526\C,0,13.84547,-0.1
 3297,3.80423\C,0,16.34598,3.99077,3.37088\C,0,17.09544,3.01534,-1.1968
 1\C,0,14.13471,-0.66113,-1.06085\N,0,15.12633,1.76839,3.29112\C,0,14.4
 4742,1.08066,4.19691\C,0,14.47901,1.69041,5.62406\C,0,14.78284,3.21645
 ,5.22688\C,0,15.49524,2.98539,3.8958\C,0,13.52743,4.03068,4.96168\C,0,
 15.6275,1.08698,6.50659\C,0,15.52666,1.40658,7.99972\H,0,15.95636,0.39
 292,8.95905\N,0,16.99831,2.97994,1.22096\C,0,17.11703,3.91125,2.19042\
 C,0,18.13776,4.85831,1.71568\C,0,18.49309,4.50193,0.31516\C,0,17.50607
 ,3.47561,0.0458\C,0,18.73339,5.92037,2.59356\C,0,19.53885,5.01076,-0.6
 3019\O,0,19.51403,4.7244,-1.87927\C,0,20.5393,5.92982,-0.06813\N,0,15.
 4872,1.36071,-0.85313\C,0,16.22966,2.12198,-1.67603\C,0,16.04036,1.712
 32,-3.11711\C,0,15.19783,0.3538,-3.07045\C,0,14.95893,0.25637,-1.54768
 \C,0,15.32233,2.72582,-4.00799\C,0,15.8023,-0.87475,-3.80391\C,0,17.05
 789,-1.33169,-3.09674\N,0,14.40236,-0.24639,1.33267\C,0,13.81946,-0.95
 539,0.25953\C,0,12.86814,-1.92342,0.84293\C,0,12.94724,-1.69277,2.2246
 1\C,0,13.86689,-0.64054,2.48262\C,0,12.04238,-2.82257,0.11098\C,0,12.4
 5397,-2.09295,3.52278\O,0,11.72238,-2.99233,3.93464\C,0,12.91922,-1.01
 519,4.5944\C,0,13.49032,-1.75103,5.77545\O,0,14.53261,-2.41954,5.65991
 \O,0,12.83829,-1.3703,6.88913\C,0,13.37639,-2.06481,8.0891\H,0,16.3974
 5,4.94909,3.88844\H,0,17.60469,3.45861,-2.05568\H,0,13.65747,-1.41206,
 -1.69412\H,0,13.54314,1.62655,6.16614\H,0,15.45391,3.68469,5.94227\H,0
 ,12.63958,3.41603,4.96887\H,0,13.66861,4.48006,3.98743\H,0,13.46035,4.
 86148,5.66993\H,0,16.5688,1.59866,6.26808\H,0,15.69675,0.02554,6.36811
 \H,0,14.53913,1.79882,8.27151\H,0,16.21238,2.22666,8.22614\H,0,18.1577
 2,6.04703,3.51874\H,0,18.61496,6.87373,2.0673\H,0,19.79453,5.75604,2.7
 9266\H,0,20.03679,6.79865,0.35028\H,0,21.25278,6.11335,-0.87383\H,0,21
 .04646,5.4286,0.76385\H,0,16.99402,1.51823,-3.59246\H,0,14.20867,0.471
 59,-3.53683\H,0,15.91363,3.02389,-4.89432\H,0,15.07335,3.59127,-3.4083
 8\H,0,14.34686,2.40975,-4.37371\H,0,16.09999,-0.60102,-4.81909\H,0,15.
 11563,-1.71084,-3.88406\H,0,17.82561,-0.66577,-3.50201\H,0,17.27328,-2
 .37193,-3.33241\H,0,16.99336,-1.1429,-2.01885\H,0,12.09005,-3.77507,0.
 62182\H,0,12.36789,-2.90869,-0.92362\H,0,11.0777,-2.31534,0.19691\H,0,
 12.044,-0.4233,4.865\H,0,12.53222,-2.56416,8.57461\H,0,13.90496,-1.287
 45,8.67225\H,0,14.04972,-2.89816,7.92602\\Version=ES64L-G16RevA.03\Sta
 te=1-A\HF=-4069.8113933\RMSD=4.791e-09\PG=C01 [X(C68H72Mg2N8O8)]\\@


 TO ERR IS HUMAN - AND TO BLAME IT ON A COMPUTER IS EVEN MORE SO.
 Job cpu time:       0 days 11 hours 52 minutes 11.6 seconds.
 Elapsed time:       0 days  0 hours 30 minutes 17.2 seconds.
 File lengths (MBytes):  RWF=  13225 Int=      0 D2E=      0 Chk=    574 Scr=      1
 Normal termination of Gaussian 16 at Sun Sep 12 04:20:56 2021.
