 Entering Gaussian System, Link 0=g16
 Initial command:
 /sw/apps/gaussian-16.0/g16/l1.exe "/tmp/Gau-123847.inp" -scrdir="/tmp/"
 Entering Link 1 = /sw/apps/gaussian-16.0/g16/l1.exe PID=    123848.
  
 Copyright (c) 1988,1990,1992,1993,1995,1998,2003,2009,2016,
            Gaussian, Inc.  All Rights Reserved.
  
 This is part of the Gaussian(R) 16 program.  It is based on
 the Gaussian(R) 09 system (copyright 2009, Gaussian, Inc.),
 the Gaussian(R) 03 system (copyright 2003, Gaussian, Inc.),
 the Gaussian(R) 98 system (copyright 1998, Gaussian, Inc.),
 the Gaussian(R) 94 system (copyright 1995, Gaussian, Inc.),
 the Gaussian 92(TM) system (copyright 1992, Gaussian, Inc.),
 the Gaussian 90(TM) system (copyright 1990, Gaussian, Inc.),
 the Gaussian 88(TM) system (copyright 1988, Gaussian, Inc.),
 the Gaussian 86(TM) system (copyright 1986, Carnegie Mellon
 University), and the Gaussian 82(TM) system (copyright 1983,
 Carnegie Mellon University). Gaussian is a federally registered
 trademark of Gaussian, Inc.
  
 This software contains proprietary and confidential information,
 including trade secrets, belonging to Gaussian, Inc.
  
 This software is provided under written license and may be
 used, copied, transmitted, or stored only in accord with that
 written license.
  
 The following legend is applicable only to US Government
 contracts under FAR:
  
                    RESTRICTED RIGHTS LEGEND
  
 Use, reproduction and disclosure by the US Government is
 subject to restrictions as set forth in subparagraphs (a)
 and (c) of the Commercial Computer Software - Restricted
 Rights clause in FAR 52.227-19.
  
 Gaussian, Inc.
 340 Quinnipiac St., Bldg. 40, Wallingford CT 06492
  
  
 ---------------------------------------------------------------
 Warning -- This program may not be used in any manner that
 competes with the business of Gaussian, Inc. or will provide
 assistance to any competitor of Gaussian, Inc.  The licensee
 of this program is prohibited from giving any competitor of
 Gaussian, Inc. access to this program.  By using this program,
 the user acknowledges that Gaussian, Inc. is engaged in the
 business of creating and licensing software in the field of
 computational chemistry and represents and warrants to the
 licensee that it is not a competitor of Gaussian, Inc. and that
 it will not use this program in any manner prohibited above.
 ---------------------------------------------------------------
  

 Cite this work as:
 Gaussian 16, Revision A.03,
 M. J. Frisch, G. W. Trucks, H. B. Schlegel, G. E. Scuseria, 
 M. A. Robb, J. R. Cheeseman, G. Scalmani, V. Barone, 
 G. A. Petersson, H. Nakatsuji, X. Li, M. Caricato, A. V. Marenich, 
 J. Bloino, B. G. Janesko, R. Gomperts, B. Mennucci, H. P. Hratchian, 
 J. V. Ortiz, A. F. Izmaylov, J. L. Sonnenberg, D. Williams-Young, 
 F. Ding, F. Lipparini, F. Egidi, J. Goings, B. Peng, A. Petrone, 
 T. Henderson, D. Ranasinghe, V. G. Zakrzewski, J. Gao, N. Rega, 
 G. Zheng, W. Liang, M. Hada, M. Ehara, K. Toyota, R. Fukuda, 
 J. Hasegawa, M. Ishida, T. Nakajima, Y. Honda, O. Kitao, H. Nakai, 
 T. Vreven, K. Throssell, J. A. Montgomery, Jr., J. E. Peralta, 
 F. Ogliaro, M. J. Bearpark, J. J. Heyd, E. N. Brothers, K. N. Kudin, 
 V. N. Staroverov, T. A. Keith, R. Kobayashi, J. Normand, 
 K. Raghavachari, A. P. Rendell, J. C. Burant, S. S. Iyengar, 
 J. Tomasi, M. Cossi, J. M. Millam, M. Klene, C. Adamo, R. Cammi, 
 J. W. Ochterski, R. L. Martin, K. Morokuma, O. Farkas, 
 J. B. Foresman, and D. J. Fox, Gaussian, Inc., Wallingford CT, 2016.
 
 ******************************************
 Gaussian 16:  ES64L-G16RevA.03 25-Dec-2016
                 4-Sep-2021 
 ******************************************
 %nproc=24
 Will use up to   24 processors via shared memory.
 %mem=175gb
 -----------------------------------
 #p cam-b3lyp/Def2SVP td=(nstates=5)
 -----------------------------------
 1/38=1,172=1/1;
 2/12=2,17=6,18=5,40=1/2;
 3/5=43,7=101,11=9,25=1,30=1,74=-40/1,2,3,8;
 4//1;
 5/5=2,38=5/2;
 8/6=1,10=1,108=5/1;
 9/41=5,42=1,70=2/14;
 6/7=2,8=2,9=2,10=2/1;
 99/5=1,9=1/99;
 Leave Link    1 at Sat Sep  4 08:21:07 2021, MaxMem= 23488102400 cpu:               0.8 elap:               0.0
 (Enter /sw/apps/gaussian-16.0/g16/l101.exe)
 --------------------------------
 TDDFT excited states in gaussian
 --------------------------------
 Symbolic Z-matrix:
 Charge =  0 Multiplicity = 1
 Mg                    0.        0.        0. 
 C                    -0.217    -2.218     2.801 
 C                    -1.255     2.442     2.026 
 C                    -0.245     1.85     -2.564 
 C                     0.146    -2.824    -2.037 
 N                    -0.617    -0.009     2.126 
 C                    -0.594    -0.908     3.105 
 C                    -0.936    -0.309     4.502 
 C                    -1.773     0.964     4.032 
 C                    -1.155     1.168     2.66 
 C                    -3.263     0.685     3.863 
 C                     0.345     0.11      5.299 
 C                     0.124     0.397     6.787 
 H                     1.168     0.033     7.733 
 N                    -0.185     1.961    -0.152 
 C                    -0.703     2.8       0.777 
 C                    -0.62      4.156     0.193 
 C                    -0.187     4.015    -1.225 
 C                    -0.214     2.583    -1.38 
 C                    -0.887     5.406     0.974 
 C                     0.181     5.013    -2.277 
 O                     0.303     4.69     -3.508 
 C                     0.31      6.414    -1.837 
 N                    -0.265    -0.413    -2.029 
 C                    -0.279     0.569    -2.937 
 C                    -0.196     0.024    -4.332 
 C                     0.124    -1.533    -4.18 
 C                     0.086    -1.632    -2.635 
 C                    -1.451     0.205    -5.197 
 C                     1.373    -2.07     -4.923 
 C                     2.626    -1.49     -4.306 
 N                     0.15     -2.144     0.303 
 C                     0.173    -3.136    -0.688 
 C                     0.173    -4.438     0.004 
 C                     0.133    -4.111     1.358 
 C                     0.083    -2.695     1.502 
 C                     0.149    -5.715    -0.623 
 C                     0.096    -4.629     2.716 
 O                     0.208    -5.747     3.221 
 C                    -0.255    -3.428     3.701 
 C                     0.717    -3.482     4.848 
 O                     1.931    -3.255     4.669 
 O                     0.038    -3.556     6.003 
 C                     0.943    -3.583     7.183 
 H                    -1.859     3.22      2.497 
 H                    -0.218     2.453    -3.474 
 H                     0.276    -3.747    -2.605 
 H                    -1.554    -0.949     5.132 
 H                    -1.585     1.831     4.665 
 H                    -3.484    -0.377     3.969 
 H                    -3.511     1.027     2.858 
 H                    -3.852     1.301     4.543 
 H                     0.669     1.096     4.966 
 H                     1.13     -0.639     5.189 
 H                    -0.844     0.026     7.125 
 H                     0.062     1.477     6.921 
 H                    -1.344     5.186     1.938 
 H                    -1.651     5.963     0.432 
 H                     0.007     6.02      1.084 
 H                    -0.635     6.744    -1.405 
 H                     0.665     6.97     -2.704 
 H                     1.048     6.466    -1.036 
 H                     0.608     0.501    -4.891 
 H                    -0.692    -2.156    -4.547 
 H                    -1.267     0.74     -6.129 
 H                    -2.204     0.714    -4.596 
 H                    -1.967    -0.72     -5.453 
 H                     1.356    -1.759    -5.967 
 H                     1.452    -3.157    -4.902 
 H                     2.714    -0.522    -4.798 
 H                     3.487    -2.121    -4.529 
 H                     2.495    -1.303    -3.24 
 H                     0.867    -6.333    -0.084 
 H                     0.404    -5.642    -1.68 
 H                    -0.891    -5.999    -0.463 
 H                    -1.283    -3.581     4.028 
 H                     0.698    -4.478     7.755 
 H                     0.833    -2.619     7.68 
 H                     2.       -3.754     6.976 
 Mg                    13.14625   1.18458   0.99096 
 C                     12.67426   4.68005   0.32916 
 C                     12.56472   0.63118  -2.32418 
 C                     13.10961  -1.92548   1.61835 
 C                     12.55868   1.88407   4.35417 
 N                     12.69054   2.5591   -0.68095 
 C                     12.59719   3.87248  -0.82467 
 C                     12.49107   4.35246  -2.29706 
 C                     11.89628   3.00915  -2.9456 
 C                     12.44318   1.99216  -1.94595 
 C                     10.3784   2.94479  -2.91041 
 C                     13.88924   4.71577  -2.90954 
 C                     13.83212   5.48138  -4.23329 
 H                     14.8498   6.49533  -4.4954 
 N                     13.3622  -0.37254  -0.22037 
 C                     13.10136  -0.41633  -1.54374 
 C                     13.40312  -1.79224  -1.96797 
 C                     13.70587  -2.60105  -0.75599 
 C                     13.37679  -1.64863   0.28549 
 C                     13.46344  -2.20435  -3.41017 
 C                     14.1966  -4.00432  -0.56565 
 O                     14.1624  -4.58017   0.57892 
 C                     14.63138  -4.71663  -1.77605 
 N                     12.66639   0.09568   2.69577 
 C                     12.7856  -1.24345   2.71706 
 C                     12.65236  -1.78067   4.12206 
 C                     12.66009  -0.49674   5.07549 
 C                     12.70886   0.61414   4.0036 
 C                     11.40093  -2.61315   4.40007 
 C                     13.71627  -0.47204   6.21416 
 C                     15.10504  -0.35957   5.62759 
 N                     12.87965   2.96481   2.18586 
 C                     12.61974   3.03051   3.5723 
 C                     12.4016   4.45267   3.90744 
 C                     12.52798   5.11845   2.67892 
 C                     12.7853   4.17544   1.64741 
 C                     12.0813   4.96385   5.19671 
 C                     12.49169   6.40342   2.01845 
 O                     12.40022   7.57125   2.39468 
 C                     12.45932   6.16343   0.44754 
 C                     13.47963   7.07168  -0.18221 
 O                     14.69205   6.91438   0.04562 
 O                     12.87682   7.83262  -1.11385 
 C                     13.85017   8.74263  -1.77439 
 H                     12.17408   0.32569  -3.29524 
 H                     13.19419  -2.97545   1.90797 
 H                     12.46715   2.19485   5.39711 
 H                     11.8073   5.17732  -2.45779 
 H                     12.30971   2.83158  -3.935 
 H                     9.95346   3.76202  -2.34675 
 H                     10.13479   1.99807  -2.44627 
 H                     9.9796    2.89323  -3.92757 
 H                     14.38286   3.79502  -3.24618 
 H                     14.48502   5.25997  -2.20277 
 H                     12.83081   5.88059  -4.4357 
 H                     14.00984   4.77697  -5.04953 
 H                     13.03329  -1.43738  -4.06601 
 H                     12.79598  -3.06528  -3.5249 
 H                     14.46895  -2.4924   -3.72423 
 H                     13.80817  -4.75938  -2.48524 
 H                     15.03082  -5.67052  -1.42616 
 H                     15.42944  -4.1382   -2.25473 
 H                     13.49484  -2.41215   4.37615 
 H                     11.70463  -0.37845   5.60741 
 H                     11.627   -3.629     4.7756 
 H                     10.81663  -2.66511   3.49098 
 H                     10.69722  -2.16886   5.10192 
 H                     13.69104  -1.40988   6.7745 
 H                     13.56523   0.33259   6.92601 
 H                     15.34998  -1.39507   5.37296 
 H                     15.80008   0.04111   6.36272 
 H                     15.09271   0.2153    4.69431 
 H                     12.68672   5.84898   5.33991 
 H                     12.26531   4.22532   5.97419 
 H                     11.01477   5.16615   5.06687 
 H                     11.44793   6.38298   0.10337 
 H                     13.46416   9.76032  -1.6605 
 H                     13.96454   8.35977  -2.80594 
 H                     14.832    8.83737  -1.32552 
 
 ITRead=  0  0  0  0  0  0  0  0  0  0  0  0  0  0  0  0  0  0  0  0
 ITRead=  0  0  0  0  0  0  0  0  0  0  0  0  0  0  0  0  0  0  0  0
 ITRead=  0  0  0  0  0  0  0  0  0  0  0  0  0  0  0  0  0  0  0  0
 ITRead=  0  0  0  0  0  0  0  0  0  0  0  0  0  0  0  0  0  0  0  0
 ITRead=  0  0  0  0  0  0  0  0  0  0  0  0  0  0  0  0  0  0  0  0
 ITRead=  0  0  0  0  0  0  0  0  0  0  0  0  0  0  0  0  0  0  0  0
 ITRead=  0  0  0  0  0  0  0  0  0  0  0  0  0  0  0  0  0  0  0  0
 ITRead=  0  0  0  0  0  0  0  0  0  0  0  0  0  0  0  0  0  0
 MicOpt= -1 -1 -1 -1 -1 -1 -1 -1 -1 -1 -1 -1 -1 -1 -1 -1 -1 -1 -1 -1
 MicOpt= -1 -1 -1 -1 -1 -1 -1 -1 -1 -1 -1 -1 -1 -1 -1 -1 -1 -1 -1 -1
 MicOpt= -1 -1 -1 -1 -1 -1 -1 -1 -1 -1 -1 -1 -1 -1 -1 -1 -1 -1 -1 -1
 MicOpt= -1 -1 -1 -1 -1 -1 -1 -1 -1 -1 -1 -1 -1 -1 -1 -1 -1 -1 -1 -1
 MicOpt= -1 -1 -1 -1 -1 -1 -1 -1 -1 -1 -1 -1 -1 -1 -1 -1 -1 -1 -1 -1
 MicOpt= -1 -1 -1 -1 -1 -1 -1 -1 -1 -1 -1 -1 -1 -1 -1 -1 -1 -1 -1 -1
 MicOpt= -1 -1 -1 -1 -1 -1 -1 -1 -1 -1 -1 -1 -1 -1 -1 -1 -1 -1 -1 -1
 MicOpt= -1 -1 -1 -1 -1 -1 -1 -1 -1 -1 -1 -1 -1 -1 -1 -1 -1 -1
 NAtoms=    158 NQM=      158 NQMF=       0 NMMI=      0 NMMIF=      0
                NMic=       0 NMicF=      0.
                    Isotopes and Nuclear Properties:
 (Nuclear quadrupole moments (NQMom) in fm**2, nuclear magnetic moments (NMagM)
  in nuclear magnetons)

  Atom         1           2           3           4           5           6           7           8           9          10
 IAtWgt=          24          12          12          12          12          14          12          12          12          12
 AtmWgt=  23.9850450  12.0000000  12.0000000  12.0000000  12.0000000  14.0030740  12.0000000  12.0000000  12.0000000  12.0000000
 NucSpn=           0           0           0           0           0           2           0           0           0           0
 AtZEff=  -0.0000000  -0.0000000  -0.0000000  -0.0000000  -0.0000000  -0.0000000  -0.0000000  -0.0000000  -0.0000000  -0.0000000
 NQMom=    0.0000000   0.0000000   0.0000000   0.0000000   0.0000000   2.0440000   0.0000000   0.0000000   0.0000000   0.0000000
 NMagM=    0.0000000   0.0000000   0.0000000   0.0000000   0.0000000   0.4037610   0.0000000   0.0000000   0.0000000   0.0000000
 AtZNuc=  12.0000000   6.0000000   6.0000000   6.0000000   6.0000000   7.0000000   6.0000000   6.0000000   6.0000000   6.0000000

  Atom        11          12          13          14          15          16          17          18          19          20
 IAtWgt=          12          12          12           1          14          12          12          12          12          12
 AtmWgt=  12.0000000  12.0000000  12.0000000   1.0078250  14.0030740  12.0000000  12.0000000  12.0000000  12.0000000  12.0000000
 NucSpn=           0           0           0           1           2           0           0           0           0           0
 AtZEff=  -0.0000000  -0.0000000  -0.0000000  -0.0000000  -0.0000000  -0.0000000  -0.0000000  -0.0000000  -0.0000000  -0.0000000
 NQMom=    0.0000000   0.0000000   0.0000000   0.0000000   2.0440000   0.0000000   0.0000000   0.0000000   0.0000000   0.0000000
 NMagM=    0.0000000   0.0000000   0.0000000   2.7928460   0.4037610   0.0000000   0.0000000   0.0000000   0.0000000   0.0000000
 AtZNuc=   6.0000000   6.0000000   6.0000000   1.0000000   7.0000000   6.0000000   6.0000000   6.0000000   6.0000000   6.0000000

  Atom        21          22          23          24          25          26          27          28          29          30
 IAtWgt=          12          16          12          14          12          12          12          12          12          12
 AtmWgt=  12.0000000  15.9949146  12.0000000  14.0030740  12.0000000  12.0000000  12.0000000  12.0000000  12.0000000  12.0000000
 NucSpn=           0           0           0           2           0           0           0           0           0           0
 AtZEff=  -0.0000000  -0.0000000  -0.0000000  -0.0000000  -0.0000000  -0.0000000  -0.0000000  -0.0000000  -0.0000000  -0.0000000
 NQMom=    0.0000000   0.0000000   0.0000000   2.0440000   0.0000000   0.0000000   0.0000000   0.0000000   0.0000000   0.0000000
 NMagM=    0.0000000   0.0000000   0.0000000   0.4037610   0.0000000   0.0000000   0.0000000   0.0000000   0.0000000   0.0000000
 AtZNuc=   6.0000000   8.0000000   6.0000000   7.0000000   6.0000000   6.0000000   6.0000000   6.0000000   6.0000000   6.0000000

  Atom        31          32          33          34          35          36          37          38          39          40
 IAtWgt=          12          14          12          12          12          12          12          12          16          12
 AtmWgt=  12.0000000  14.0030740  12.0000000  12.0000000  12.0000000  12.0000000  12.0000000  12.0000000  15.9949146  12.0000000
 NucSpn=           0           2           0           0           0           0           0           0           0           0
 AtZEff=  -0.0000000  -0.0000000  -0.0000000  -0.0000000  -0.0000000  -0.0000000  -0.0000000  -0.0000000  -0.0000000  -0.0000000
 NQMom=    0.0000000   2.0440000   0.0000000   0.0000000   0.0000000   0.0000000   0.0000000   0.0000000   0.0000000   0.0000000
 NMagM=    0.0000000   0.4037610   0.0000000   0.0000000   0.0000000   0.0000000   0.0000000   0.0000000   0.0000000   0.0000000
 AtZNuc=   6.0000000   7.0000000   6.0000000   6.0000000   6.0000000   6.0000000   6.0000000   6.0000000   8.0000000   6.0000000

  Atom        41          42          43          44          45          46          47          48          49          50
 IAtWgt=          12          16          16          12           1           1           1           1           1           1
 AtmWgt=  12.0000000  15.9949146  15.9949146  12.0000000   1.0078250   1.0078250   1.0078250   1.0078250   1.0078250   1.0078250
 NucSpn=           0           0           0           0           1           1           1           1           1           1
 AtZEff=  -0.0000000  -0.0000000  -0.0000000  -0.0000000  -0.0000000  -0.0000000  -0.0000000  -0.0000000  -0.0000000  -0.0000000
 NQMom=    0.0000000   0.0000000   0.0000000   0.0000000   0.0000000   0.0000000   0.0000000   0.0000000   0.0000000   0.0000000
 NMagM=    0.0000000   0.0000000   0.0000000   0.0000000   2.7928460   2.7928460   2.7928460   2.7928460   2.7928460   2.7928460
 AtZNuc=   6.0000000   8.0000000   8.0000000   6.0000000   1.0000000   1.0000000   1.0000000   1.0000000   1.0000000   1.0000000

  Atom        51          52          53          54          55          56          57          58          59          60
 IAtWgt=           1           1           1           1           1           1           1           1           1           1
 AtmWgt=   1.0078250   1.0078250   1.0078250   1.0078250   1.0078250   1.0078250   1.0078250   1.0078250   1.0078250   1.0078250
 NucSpn=           1           1           1           1           1           1           1           1           1           1
 AtZEff=  -0.0000000  -0.0000000  -0.0000000  -0.0000000  -0.0000000  -0.0000000  -0.0000000  -0.0000000  -0.0000000  -0.0000000
 NQMom=    0.0000000   0.0000000   0.0000000   0.0000000   0.0000000   0.0000000   0.0000000   0.0000000   0.0000000   0.0000000
 NMagM=    2.7928460   2.7928460   2.7928460   2.7928460   2.7928460   2.7928460   2.7928460   2.7928460   2.7928460   2.7928460
 AtZNuc=   1.0000000   1.0000000   1.0000000   1.0000000   1.0000000   1.0000000   1.0000000   1.0000000   1.0000000   1.0000000

  Atom        61          62          63          64          65          66          67          68          69          70
 IAtWgt=           1           1           1           1           1           1           1           1           1           1
 AtmWgt=   1.0078250   1.0078250   1.0078250   1.0078250   1.0078250   1.0078250   1.0078250   1.0078250   1.0078250   1.0078250
 NucSpn=           1           1           1           1           1           1           1           1           1           1
 AtZEff=  -0.0000000  -0.0000000  -0.0000000  -0.0000000  -0.0000000  -0.0000000  -0.0000000  -0.0000000  -0.0000000  -0.0000000
 NQMom=    0.0000000   0.0000000   0.0000000   0.0000000   0.0000000   0.0000000   0.0000000   0.0000000   0.0000000   0.0000000
 NMagM=    2.7928460   2.7928460   2.7928460   2.7928460   2.7928460   2.7928460   2.7928460   2.7928460   2.7928460   2.7928460
 AtZNuc=   1.0000000   1.0000000   1.0000000   1.0000000   1.0000000   1.0000000   1.0000000   1.0000000   1.0000000   1.0000000

  Atom        71          72          73          74          75          76          77          78          79          80
 IAtWgt=           1           1           1           1           1           1           1           1           1          24
 AtmWgt=   1.0078250   1.0078250   1.0078250   1.0078250   1.0078250   1.0078250   1.0078250   1.0078250   1.0078250  23.9850450
 NucSpn=           1           1           1           1           1           1           1           1           1           0
 AtZEff=  -0.0000000  -0.0000000  -0.0000000  -0.0000000  -0.0000000  -0.0000000  -0.0000000  -0.0000000  -0.0000000  -0.0000000
 NQMom=    0.0000000   0.0000000   0.0000000   0.0000000   0.0000000   0.0000000   0.0000000   0.0000000   0.0000000   0.0000000
 NMagM=    2.7928460   2.7928460   2.7928460   2.7928460   2.7928460   2.7928460   2.7928460   2.7928460   2.7928460   0.0000000
 AtZNuc=   1.0000000   1.0000000   1.0000000   1.0000000   1.0000000   1.0000000   1.0000000   1.0000000   1.0000000  12.0000000

  Atom        81          82          83          84          85          86          87          88          89          90
 IAtWgt=          12          12          12          12          14          12          12          12          12          12
 AtmWgt=  12.0000000  12.0000000  12.0000000  12.0000000  14.0030740  12.0000000  12.0000000  12.0000000  12.0000000  12.0000000
 NucSpn=           0           0           0           0           2           0           0           0           0           0
 AtZEff=  -0.0000000  -0.0000000  -0.0000000  -0.0000000  -0.0000000  -0.0000000  -0.0000000  -0.0000000  -0.0000000  -0.0000000
 NQMom=    0.0000000   0.0000000   0.0000000   0.0000000   2.0440000   0.0000000   0.0000000   0.0000000   0.0000000   0.0000000
 NMagM=    0.0000000   0.0000000   0.0000000   0.0000000   0.4037610   0.0000000   0.0000000   0.0000000   0.0000000   0.0000000
 AtZNuc=   6.0000000   6.0000000   6.0000000   6.0000000   7.0000000   6.0000000   6.0000000   6.0000000   6.0000000   6.0000000

  Atom        91          92          93          94          95          96          97          98          99         100
 IAtWgt=          12          12           1          14          12          12          12          12          12          12
 AtmWgt=  12.0000000  12.0000000   1.0078250  14.0030740  12.0000000  12.0000000  12.0000000  12.0000000  12.0000000  12.0000000
 NucSpn=           0           0           1           2           0           0           0           0           0           0
 AtZEff=  -0.0000000  -0.0000000  -0.0000000  -0.0000000  -0.0000000  -0.0000000  -0.0000000  -0.0000000  -0.0000000  -0.0000000
 NQMom=    0.0000000   0.0000000   0.0000000   2.0440000   0.0000000   0.0000000   0.0000000   0.0000000   0.0000000   0.0000000
 NMagM=    0.0000000   0.0000000   2.7928460   0.4037610   0.0000000   0.0000000   0.0000000   0.0000000   0.0000000   0.0000000
 AtZNuc=   6.0000000   6.0000000   1.0000000   7.0000000   6.0000000   6.0000000   6.0000000   6.0000000   6.0000000   6.0000000

  Atom       101         102         103         104         105         106         107         108         109         110
 IAtWgt=          16          12          14          12          12          12          12          12          12          12
 AtmWgt=  15.9949146  12.0000000  14.0030740  12.0000000  12.0000000  12.0000000  12.0000000  12.0000000  12.0000000  12.0000000
 NucSpn=           0           0           2           0           0           0           0           0           0           0
 AtZEff=  -0.0000000  -0.0000000  -0.0000000  -0.0000000  -0.0000000  -0.0000000  -0.0000000  -0.0000000  -0.0000000  -0.0000000
 NQMom=    0.0000000   0.0000000   2.0440000   0.0000000   0.0000000   0.0000000   0.0000000   0.0000000   0.0000000   0.0000000
 NMagM=    0.0000000   0.0000000   0.4037610   0.0000000   0.0000000   0.0000000   0.0000000   0.0000000   0.0000000   0.0000000
 AtZNuc=   8.0000000   6.0000000   7.0000000   6.0000000   6.0000000   6.0000000   6.0000000   6.0000000   6.0000000   6.0000000

  Atom       111         112         113         114         115         116         117         118         119         120
 IAtWgt=          14          12          12          12          12          12          12          16          12          12
 AtmWgt=  14.0030740  12.0000000  12.0000000  12.0000000  12.0000000  12.0000000  12.0000000  15.9949146  12.0000000  12.0000000
 NucSpn=           2           0           0           0           0           0           0           0           0           0
 AtZEff=  -0.0000000  -0.0000000  -0.0000000  -0.0000000  -0.0000000  -0.0000000  -0.0000000  -0.0000000  -0.0000000  -0.0000000
 NQMom=    2.0440000   0.0000000   0.0000000   0.0000000   0.0000000   0.0000000   0.0000000   0.0000000   0.0000000   0.0000000
 NMagM=    0.4037610   0.0000000   0.0000000   0.0000000   0.0000000   0.0000000   0.0000000   0.0000000   0.0000000   0.0000000
 AtZNuc=   7.0000000   6.0000000   6.0000000   6.0000000   6.0000000   6.0000000   6.0000000   8.0000000   6.0000000   6.0000000

  Atom       121         122         123         124         125         126         127         128         129         130
 IAtWgt=          16          16          12           1           1           1           1           1           1           1
 AtmWgt=  15.9949146  15.9949146  12.0000000   1.0078250   1.0078250   1.0078250   1.0078250   1.0078250   1.0078250   1.0078250
 NucSpn=           0           0           0           1           1           1           1           1           1           1
 AtZEff=  -0.0000000  -0.0000000  -0.0000000  -0.0000000  -0.0000000  -0.0000000  -0.0000000  -0.0000000  -0.0000000  -0.0000000
 NQMom=    0.0000000   0.0000000   0.0000000   0.0000000   0.0000000   0.0000000   0.0000000   0.0000000   0.0000000   0.0000000
 NMagM=    0.0000000   0.0000000   0.0000000   2.7928460   2.7928460   2.7928460   2.7928460   2.7928460   2.7928460   2.7928460
 AtZNuc=   8.0000000   8.0000000   6.0000000   1.0000000   1.0000000   1.0000000   1.0000000   1.0000000   1.0000000   1.0000000

  Atom       131         132         133         134         135         136         137         138         139         140
 IAtWgt=           1           1           1           1           1           1           1           1           1           1
 AtmWgt=   1.0078250   1.0078250   1.0078250   1.0078250   1.0078250   1.0078250   1.0078250   1.0078250   1.0078250   1.0078250
 NucSpn=           1           1           1           1           1           1           1           1           1           1
 AtZEff=  -0.0000000  -0.0000000  -0.0000000  -0.0000000  -0.0000000  -0.0000000  -0.0000000  -0.0000000  -0.0000000  -0.0000000
 NQMom=    0.0000000   0.0000000   0.0000000   0.0000000   0.0000000   0.0000000   0.0000000   0.0000000   0.0000000   0.0000000
 NMagM=    2.7928460   2.7928460   2.7928460   2.7928460   2.7928460   2.7928460   2.7928460   2.7928460   2.7928460   2.7928460
 AtZNuc=   1.0000000   1.0000000   1.0000000   1.0000000   1.0000000   1.0000000   1.0000000   1.0000000   1.0000000   1.0000000

  Atom       141         142         143         144         145         146         147         148         149         150
 IAtWgt=           1           1           1           1           1           1           1           1           1           1
 AtmWgt=   1.0078250   1.0078250   1.0078250   1.0078250   1.0078250   1.0078250   1.0078250   1.0078250   1.0078250   1.0078250
 NucSpn=           1           1           1           1           1           1           1           1           1           1
 AtZEff=  -0.0000000  -0.0000000  -0.0000000  -0.0000000  -0.0000000  -0.0000000  -0.0000000  -0.0000000  -0.0000000  -0.0000000
 NQMom=    0.0000000   0.0000000   0.0000000   0.0000000   0.0000000   0.0000000   0.0000000   0.0000000   0.0000000   0.0000000
 NMagM=    2.7928460   2.7928460   2.7928460   2.7928460   2.7928460   2.7928460   2.7928460   2.7928460   2.7928460   2.7928460
 AtZNuc=   1.0000000   1.0000000   1.0000000   1.0000000   1.0000000   1.0000000   1.0000000   1.0000000   1.0000000   1.0000000

  Atom       151         152         153         154         155         156         157         158
 IAtWgt=           1           1           1           1           1           1           1           1
 AtmWgt=   1.0078250   1.0078250   1.0078250   1.0078250   1.0078250   1.0078250   1.0078250   1.0078250
 NucSpn=           1           1           1           1           1           1           1           1
 AtZEff=  -0.0000000  -0.0000000  -0.0000000  -0.0000000  -0.0000000  -0.0000000  -0.0000000  -0.0000000
 NQMom=    0.0000000   0.0000000   0.0000000   0.0000000   0.0000000   0.0000000   0.0000000   0.0000000
 NMagM=    2.7928460   2.7928460   2.7928460   2.7928460   2.7928460   2.7928460   2.7928460   2.7928460
 AtZNuc=   1.0000000   1.0000000   1.0000000   1.0000000   1.0000000   1.0000000   1.0000000   1.0000000
 Leave Link  101 at Sat Sep  4 08:21:07 2021, MaxMem= 23488102400 cpu:               3.8 elap:               0.2
 (Enter /sw/apps/gaussian-16.0/g16/l202.exe)
 Stoichiometry    C68H72Mg2N8O8
 Framework group  C1[X(C68H72Mg2N8O8)]
 Deg. of freedom   468
 Full point group                 C1      NOp   1
 Largest Abelian subgroup         C1      NOp   1
 Largest concise Abelian subgroup C1      NOp   1
                         Standard orientation:                         
 ---------------------------------------------------------------------
 Center     Atomic      Atomic             Coordinates (Angstroms)
 Number     Number       Type             X           Y           Z
 ---------------------------------------------------------------------
      1         12           0        6.462478    0.935384    0.340841
      2          6           0        7.176901   -2.405508   -0.726989
      3          6           0        7.228597    1.952194   -2.824949
      4          6           0        6.279529    3.927851    1.374422
      5          6           0        6.859592   -0.184412    3.617122
      6          7           0        7.105865   -0.179956   -1.459914
      7          6           0        7.284066   -1.464238   -1.753230
      8          6           0        7.521352   -1.724178   -3.270959
      9          6           0        8.072621   -0.287798   -3.689186
     10          6           0        7.401820    0.551672   -2.616227
     11          6           0        9.584975   -0.150360   -3.546361
     12          6           0        6.196126   -2.072150   -4.028864
     13          6           0        6.380231   -2.655372   -5.432898
     14          1           0        5.449345   -3.673416   -5.895916
     15          7           0        6.240843    2.624843   -0.658886
     16          6           0        6.593160    2.856187   -1.946379
     17          6           0        6.224972    4.261290   -2.223515
     18          6           0        5.804814    4.883729   -0.937385
     19          6           0        6.120614    3.831059   -0.005971
     20          6           0        6.245148    4.861893   -3.595601
     21          6           0        5.222411    6.219785   -0.599902
     22          8           0        5.147100    6.644560    0.603621
     23          6           0        4.818140    7.066366   -1.736963
     24          7           0        6.770204    1.813657    2.209417
     25          6           0        6.567520    3.122122    2.398682
     26          6           0        6.572765    3.470027    3.857748
     27          6           0        6.579849    2.080022    4.643618
     28          6           0        6.664581    1.122772    3.429220
     29          6           0        7.748945    4.332590    4.335866
     30          6           0        5.453705    1.854386    5.683478
     31          6           0        4.119858    1.743320    4.979481
     32          7           0        6.758374   -0.980824    1.316361
     33          6           0        6.920682   -1.211431    2.690097
     34          6           0        7.198525   -2.649861    2.856799
     35          6           0        7.194934   -3.156399    1.558626
     36          6           0        6.957572   -2.096594    0.637342
     37          6           0        7.471416   -3.308707    4.088012
     38          6           0        7.360850   -4.342121    0.733767
     39          8           0        7.488222   -5.546030    0.961521
     40          6           0        7.476852   -3.882677   -0.786523
     41          6           0        6.556760   -4.754934   -1.596404
     42          8           0        5.319008   -4.685814   -1.453026
     43          8           0        7.256910   -5.355276   -2.571044
     44          6           0        6.397474   -6.212948   -3.430068
     45          1           0        7.669431    2.412220   -3.711505
     46          1           0        6.113990    4.926835    1.783158
     47          1           0        6.910577   -0.620976    4.616254
     48          1           0        8.267962   -2.487730   -3.490015
     49          1           0        7.722947    0.010381   -4.677386
     50          1           0       10.019806   -1.021962   -3.057329
     51          1           0        9.740170    0.742835   -2.940877
     52          1           0       10.047871    0.057656   -4.511365
     53          1           0        5.671962   -1.149638   -4.278434
     54          1           0        5.578600   -2.747757   -3.435954
     55          1           0        7.409384   -2.974387   -5.600177
     56          1           0        6.222979   -1.856659   -6.157832
     57          1           0        6.754404    4.214732   -4.308614
     58          1           0        6.869747    5.753463   -3.543749
     59          1           0        5.246786    5.131977   -3.940071
     60          1           0        5.683447    7.250548   -2.374043
     61          1           0        4.341899    7.944995   -1.303309
     62          1           0        4.099344    6.518548   -2.347026
     63          1           0        5.678604    4.029498    4.129580
     64          1           0        7.499151    1.936086    5.211807
     65          1           0        7.443215    5.261928    4.817078
     66          1           0        8.392796    4.529255    3.479087
     67          1           0        8.438174    3.830209    5.014095
     68          1           0        5.388428    2.704175    6.362111
     69          1           0        5.598489    0.958298    6.287063
     70          1           0        3.827552    2.784287    4.846149
     71          1           0        3.401871    1.213408    5.606298
     72          1           0        4.228801    1.305767    3.986926
     73          1           0        6.904233   -4.239236    4.068280
     74          1           0        7.188222   -2.690166    4.939370
     75          1           0        8.550146   -3.443398    4.010196
     76          1           0        8.520069   -4.010270   -1.073821
     77          1           0        6.829978   -7.213480   -3.419568
     78          1           0        6.317292   -5.706452   -4.392065
     79          1           0        5.394088   -6.418550   -3.055524
     80         12           0       -6.629347   -1.013009    0.210405
     81          6           0       -6.892112    2.247466   -1.265847
     82          6           0       -6.005918    0.545468    3.179760
     83          6           0       -5.947957   -3.855173    1.445413
     84          6           0       -6.137396   -2.274951   -3.000699
     85          7           0       -6.493269    1.125349    0.759195
     86          6           0       -6.672358    2.275456    0.127120
     87          6           0       -6.692455    3.521607    1.052473
     88          6           0       -5.847721    2.923145    2.280125
     89          6           0       -6.157887    1.439777    2.090167
     90          6           0       -4.348249    3.120397    2.131750
     91          6           0       -8.145952    3.915435    1.493210
     92          6           0       -8.269647    5.296413    2.140771
     93          1           0       -9.477240    6.077804    1.888550
     94          7           0       -6.544521   -1.603968    2.103062
     95          6           0       -6.303694   -0.834982    3.185618
     96          6           0       -6.325896   -1.746828    4.339828
     97          6           0       -6.435793   -3.141898    3.833439
     98          6           0       -6.289539   -2.917651    2.409219
     99          6           0       -6.326394   -1.261508    5.760349
    100          6           0       -6.626503   -4.461055    4.518760
    101          8           0       -6.455304   -5.571358    3.901725
    102          6           0       -6.928188   -4.415106    5.956941
    103          7           0       -5.907358   -2.775835   -0.622374
    104          6           0       -5.750496   -3.881025    0.127213
    105          6           0       -5.485626   -5.091995   -0.735213
    106          6           0       -5.738229   -4.611649   -2.239548
    107          6           0       -6.031544   -3.117294   -1.982156
    108          6           0       -4.085972   -5.695825   -0.622304
    109          6           0       -6.756919   -5.431056   -3.078320
    110          6           0       -8.149588   -5.251179   -2.518398
    111          7           0       -6.710399   -0.225084   -1.799740
    112          6           0       -6.444862   -0.920389   -2.999793
    113          6           0       -6.515520    0.064679   -4.098470
    114          6           0       -6.796777    1.278707   -3.453855
    115          6           0       -6.874535    1.068997   -2.050477
    116          6           0       -6.283466   -0.207707   -5.476174
    117          6           0       -7.035066    2.691880   -3.640525
    118          8           0       -7.177102    3.427404   -4.616524
    119          6           0       -6.982227    3.405097   -2.221043
    120          6           0       -8.177339    4.311945   -2.112094
    121          8           0       -9.327951    3.840770   -2.085709
    122          8           0       -7.759012    5.561324   -1.839293
    123          6           0       -8.909063    6.495532   -1.710921
    124          1           0       -5.578422    0.926229    4.107742
    125          1           0       -5.811435   -4.876434    1.808535
    126          1           0       -6.092744   -2.607214   -4.040071
    127          1           0       -6.194280    4.395032    0.649089
    128          1           0       -6.233679    3.274343    3.233574
    129          1           0       -4.089044    3.527039    1.165517
    130          1           0       -3.908465    2.139987    2.259948
    131          1           0       -3.965382    3.732256    2.953551
    132          1           0       -8.447247    3.283762    2.338774
    133          1           0       -8.827613    3.840745    0.668352
    134          1           0       -7.374569    5.909262    1.978870
    135          1           0       -8.314353    5.168514    3.225053
    136          1           0       -6.073419   -0.195829    5.821425
    137          1           0       -5.499484   -1.766669    6.271131
    138          1           0       -7.257398   -1.490370    6.283330
    139          1           0       -6.126249   -3.897362    6.477794
    140          1           0       -7.118388   -5.449758    6.248829
    141          1           0       -7.835805   -3.819389    6.105160
    142          1           0       -6.176944   -5.892215   -0.501054
    143          1           0       -4.817729   -4.652292   -2.840267
    144          1           0       -4.093383   -6.764039   -0.334303
    145          1           0       -3.519541   -5.113308    0.092105
    146          1           0       -3.475382   -5.617440   -1.520208
    147          1           0       -6.530997   -6.498137   -3.011557
    148          1           0       -6.760618   -5.167886   -4.130794
    149          1           0       -8.182613   -5.977606   -1.700899
    150          1           0       -8.898628   -5.474573   -3.275417
    151          1           0       -8.271304   -4.254412   -2.078763
    152          1           0       -7.054083    0.311512   -6.030300
    153          1           0       -6.299165   -1.276671   -5.678245
    154          1           0       -5.283098    0.217527   -5.593261
    155          1           0       -6.043142    3.957105   -2.166525
    156          1           0       -8.736815    7.313290   -2.417511
    157          1           0       -8.961166    6.759531   -0.637912
    158          1           0       -9.881473    6.140372   -2.031435
 ---------------------------------------------------------------------
 Rotational constants (GHZ):           0.0204287           0.0079987           0.0074003
 Leave Link  202 at Sat Sep  4 08:21:07 2021, MaxMem= 23488102400 cpu:               0.2 elap:               0.0
 (Enter /sw/apps/gaussian-16.0/g16/l301.exe)
 Standard basis: def2SVP (5D, 7F)
 Ernie: Thresh=  0.10000D-02 Tol=  0.10000D-05 Strict=F.
 There are  1658 symmetry adapted cartesian basis functions of A   symmetry.
 There are  1572 symmetry adapted basis functions of A   symmetry.
  1572 basis functions,  2678 primitive gaussians,  1658 cartesian basis functions
   312 alpha electrons      312 beta electrons
       nuclear repulsion energy     14236.9593008644 Hartrees.
 IExCor=20419 DFT=T Ex+Corr=CAM-B3LYP ExCW=0 ScaHFX=  1.000000
 ScaDFX=  1.000000  1.000000  1.000000  0.810000 ScalE2=  1.000000  1.000000
 IRadAn=      5 IRanWt=     -1 IRanGd=            0 ICorTp=0 IEmpDi=  4
 HFx  wShort=  0.000000 wLong=  0.330000 cFull=  0.190000 cShort=  0.000000 cLong=  0.460000
 DFx  wShort=  0.000000 wLong=  0.330000 cFull=  0.190000 cShort=  0.000000 cLong=  0.460000
 NAtoms=  158 NActive=  158 NUniq=  158 SFac= 1.00D+00 NAtFMM=   60 NAOKFM=T Big=T
 Integral buffers will be    131072 words long.
 Raffenetti 1 integral format.
 Two-electron integral symmetry is turned on.
 Leave Link  301 at Sat Sep  4 08:21:07 2021, MaxMem= 23488102400 cpu:               1.4 elap:               0.1
 (Enter /sw/apps/gaussian-16.0/g16/l302.exe)
 NPDir=0 NMtPBC=     1 NCelOv=     1 NCel=       1 NClECP=     1 NCelD=      1
         NCelK=      1 NCelE2=     1 NClLst=     1 CellRange=     0.0.
 One-electron integrals computed using PRISM.
 One-electron integral symmetry used in STVInt
   1 Symmetry operations used in ECPInt.
 ECPInt:  NShTT=  271216 NPrTT=  987664 LenC2=  116444 LenP2D=  255089.
 LDataN:  DoStor=T MaxTD1= 4 Len=   56
 NBasis=  1572 RedAO= T EigKep=  3.36D-04  NBF=  1572
 NBsUse=  1572 1.00D-06 EigRej= -1.00D+00 NBFU=  1572
 Precomputing XC quadrature grid using
 IXCGrd= 4 IRadAn=           5 IRanWt=          -1 IRanGd=           0 AccXCQ= 0.00D+00.
 Generated NRdTot=       0 NPtTot=           0 NUsed=           0 NTot=          32
 NSgBfM=   977   958   965   976   977 MxSgAt=   158 MxSgA2=   152.
 Leave Link  302 at Sat Sep  4 08:21:12 2021, MaxMem= 23488102400 cpu:             111.7 elap:               4.7
 (Enter /sw/apps/gaussian-16.0/g16/l303.exe)
 DipDrv:  MaxL=1.
 Leave Link  303 at Sat Sep  4 08:21:12 2021, MaxMem= 23488102400 cpu:               9.1 elap:               0.4
 (Enter /sw/apps/gaussian-16.0/g16/l308.exe)
 Leave Link  308 at Sat Sep  4 08:21:13 2021, MaxMem= 23488102400 cpu:              15.1 elap:               0.7
 (Enter /sw/apps/gaussian-16.0/g16/l401.exe)
 ExpMin= 3.36D-02 ExpMax= 4.95D+03 ExpMxC= 7.45D+02 IAcc=3 IRadAn=         5 AccDes= 0.00D+00
 Harris functional with IExCor=20419 and IRadAn=       5 diagonalized for initial guess.
 HarFok:  IExCor=20419 AccDes= 0.00D+00 IRadAn=         5 IDoV= 1 UseB2=F ITyADJ=14
 ICtDFT=  3500011 ScaDFX=  1.000000  1.000000  1.000000  1.000000
 FoFCou: FMM=F IPFlag=           0 FMFlag=      100000 FMFlg1=        2001
         NFxFlg=           0 DoJE=T BraDBF=F KetDBF=T FulRan=T
         wScrn=  0.000000 ICntrl=       500 IOpCl=  0 I1Cent=   200000004 NGrid=           0
         NMat0=    1 NMatS0=      1 NMatT0=    0 NMatD0=    1 NMtDS0=    0 NMtDT0=    0
 Petite list used in FoFCou.
 Harris En= -3918.65801360159    
 JPrj=0 DoOrth=F DoCkMO=F.
 Leave Link  401 at Sat Sep  4 08:21:20 2021, MaxMem= 23488102400 cpu:             167.5 elap:               7.0
 (Enter /sw/apps/gaussian-16.0/g16/l502.exe)
 Integral symmetry usage will be decided dynamically.
 Closed shell SCF:
 Using DIIS extrapolation, IDIIS=  1040.
 NGot= 23488102400 LenX= 23482547354 LenY= 23479796732
 Requested convergence on RMS density matrix=1.00D-08 within 128 cycles.
 Requested convergence on MAX density matrix=1.00D-06.
 Requested convergence on             energy=1.00D-06.
 No special actions if energy rises.
 Fock matrices will be formed incrementally for  20 cycles.

 Cycle   1  Pass 1  IDiag  1:
 FoFJK:  IHMeth= 1 ICntrl=       0 DoSepK=T KAlg= 0 I1Cent=           0 FoldK=F
 IRaf=         1 NMat=       1 IRICut=       1 DoRegI=T DoRafI=F ISym2E= 0 IDoP0=0 IntGTp=1.
 FoFCou: FMM=T IPFlag=           0 FMFlag=      100000 FMFlg1=        2001
         NFxFlg=           0 DoJE=T BraDBF=F KetDBF=F FulRan=T
         wScrn=  0.000000 ICntrl=       500 IOpCl=  0 I1Cent=           0 NGrid=           0
         NMat0=    1 NMatS0=      1 NMatT0=    0 NMatD0=    1 NMtDS0=    0 NMtDT0=    0
 Symmetry not used in FoFCou.
 FMM levels:  10  Number of levels for PrismC:   9
 E= -4068.94957440523    
 DIIS: error= 2.04D-02 at cycle   1 NSaved=   1.
 NSaved= 1 IEnMin= 1 EnMin= -4068.94957440523     IErMin= 1 ErrMin= 2.04D-02
 ErrMax= 2.04D-02  0.00D+00 EMaxC= 1.00D-01 BMatC= 1.69D+00 BMatP= 1.69D+00
 IDIUse=3 WtCom= 7.96D-01 WtEn= 2.04D-01
 Coeff-Com:  0.100D+01
 Coeff-En:   0.100D+01
 Coeff:      0.100D+01
 Gap=     0.120 Goal=   None    Shift=    0.000
 GapD=    0.120 DampG=1.000 DampE=0.500 DampFc=0.5000 IDamp=-1.
 Damping current iteration by 5.00D-01
 RMSDP=1.57D-03 MaxDP=1.35D-01              OVMax= 2.02D-01

 Cycle   2  Pass 1  IDiag  1:
 RMSU=  7.69D-04    CP:  9.82D-01
 E= -4069.33851606242     Delta-E=       -0.388941657187 Rises=F Damp=T
 DIIS: error= 1.27D-02 at cycle   2 NSaved=   2.
 NSaved= 2 IEnMin= 2 EnMin= -4069.33851606242     IErMin= 2 ErrMin= 1.27D-02
 ErrMax= 1.27D-02  0.00D+00 EMaxC= 1.00D-01 BMatC= 3.07D-01 BMatP= 1.69D+00
 IDIUse=3 WtCom= 8.73D-01 WtEn= 1.27D-01
 Coeff-Com: -0.213D+00 0.121D+01
 Coeff-En:   0.000D+00 0.100D+01
 Coeff:     -0.186D+00 0.119D+01
 Gap=     0.135 Goal=   None    Shift=    0.000
 RMSDP=7.64D-04 MaxDP=9.41D-02 DE=-3.89D-01 OVMax= 1.88D-01

 Cycle   3  Pass 1  IDiag  1:
 RMSU=  7.31D-04    CP:  9.68D-01  1.24D+00
 E= -4069.62877516459     Delta-E=       -0.290259102174 Rises=F Damp=F
 DIIS: error= 1.57D-02 at cycle   3 NSaved=   3.
 NSaved= 3 IEnMin= 3 EnMin= -4069.62877516459     IErMin= 2 ErrMin= 1.27D-02
 ErrMax= 1.57D-02  0.00D+00 EMaxC= 1.00D-01 BMatC= 2.01D-01 BMatP= 3.07D-01
 IDIUse=3 WtCom= 8.43D-01 WtEn= 1.57D-01
 Coeff-Com: -0.267D+00 0.651D+00 0.616D+00
 Coeff-En:   0.000D+00 0.000D+00 0.100D+01
 Coeff:     -0.225D+00 0.549D+00 0.676D+00
 Gap=     0.123 Goal=   None    Shift=    0.000
 RMSDP=5.06D-04 MaxDP=4.91D-02 DE=-2.90D-01 OVMax= 1.42D-01

 Cycle   4  Pass 1  IDiag  1:
 RMSU=  2.64D-04    CP:  9.65D-01  1.55D+00  5.07D-01
 E= -4069.76573331678     Delta-E=       -0.136958152190 Rises=F Damp=F
 DIIS: error= 7.29D-03 at cycle   4 NSaved=   4.
 NSaved= 4 IEnMin= 4 EnMin= -4069.76573331678     IErMin= 4 ErrMin= 7.29D-03
 ErrMax= 7.29D-03  0.00D+00 EMaxC= 1.00D-01 BMatC= 5.00D-02 BMatP= 2.01D-01
 IDIUse=3 WtCom= 9.27D-01 WtEn= 7.29D-02
 Coeff-Com: -0.108D+00 0.225D+00 0.408D+00 0.475D+00
 Coeff-En:   0.000D+00 0.000D+00 0.219D+00 0.781D+00
 Coeff:     -0.101D+00 0.209D+00 0.394D+00 0.497D+00
 Gap=     0.122 Goal=   None    Shift=    0.000
 RMSDP=1.98D-04 MaxDP=2.07D-02 DE=-1.37D-01 OVMax= 6.10D-02

 Cycle   5  Pass 1  IDiag  1:
 RMSU=  7.50D-05    CP:  9.64D-01  1.49D+00  6.89D-01  5.53D-01
 E= -4069.81066735594     Delta-E=       -0.044934039157 Rises=F Damp=F
 DIIS: error= 8.09D-04 at cycle   5 NSaved=   5.
 NSaved= 5 IEnMin= 5 EnMin= -4069.81066735594     IErMin= 5 ErrMin= 8.09D-04
 ErrMax= 8.09D-04  0.00D+00 EMaxC= 1.00D-01 BMatC= 1.13D-03 BMatP= 5.00D-02
 IDIUse=3 WtCom= 9.92D-01 WtEn= 8.09D-03
 Coeff-Com: -0.353D-01 0.691D-01 0.163D+00 0.248D+00 0.555D+00
 Coeff-En:   0.000D+00 0.000D+00 0.000D+00 0.000D+00 0.100D+01
 Coeff:     -0.350D-01 0.686D-01 0.162D+00 0.246D+00 0.559D+00
 Gap=     0.121 Goal=   None    Shift=    0.000
 RMSDP=3.96D-05 MaxDP=4.21D-03 DE=-4.49D-02 OVMax= 1.63D-02

 Cycle   6  Pass 1  IDiag  1:
 RMSU=  2.97D-05    CP:  9.64D-01  1.49D+00  6.82D-01  6.23D-01  7.67D-01
 E= -4069.81162861527     Delta-E=       -0.000961259335 Rises=F Damp=F
 DIIS: error= 2.26D-04 at cycle   6 NSaved=   6.
 NSaved= 6 IEnMin= 6 EnMin= -4069.81162861527     IErMin= 6 ErrMin= 2.26D-04
 ErrMax= 2.26D-04  0.00D+00 EMaxC= 1.00D-01 BMatC= 1.70D-04 BMatP= 1.13D-03
 IDIUse=3 WtCom= 9.98D-01 WtEn= 2.26D-03
 Coeff-Com:  0.242D-02-0.698D-02 0.102D-01 0.389D-01 0.306D+00 0.649D+00
 Coeff-En:   0.000D+00 0.000D+00 0.000D+00 0.000D+00 0.984D-01 0.902D+00
 Coeff:      0.241D-02-0.696D-02 0.102D-01 0.388D-01 0.306D+00 0.650D+00
 Gap=     0.122 Goal=   None    Shift=    0.000
 RMSDP=1.53D-05 MaxDP=1.30D-03 DE=-9.61D-04 OVMax= 7.31D-03

 Cycle   7  Pass 1  IDiag  1:
 RMSU=  1.04D-05    CP:  9.64D-01  1.50D+00  6.87D-01  6.23D-01  8.64D-01
                    CP:  7.54D-01
 E= -4069.81180899400     Delta-E=       -0.000180378724 Rises=F Damp=F
 DIIS: error= 8.81D-05 at cycle   7 NSaved=   7.
 NSaved= 7 IEnMin= 7 EnMin= -4069.81180899400     IErMin= 7 ErrMin= 8.81D-05
 ErrMax= 8.81D-05  0.00D+00 EMaxC= 1.00D-01 BMatC= 1.92D-05 BMatP= 1.70D-04
 IDIUse=1 WtCom= 1.00D+00 WtEn= 0.00D+00
 Coeff-Com:  0.441D-02-0.963D-02-0.905D-02-0.421D-02 0.993D-01 0.324D+00
 Coeff-Com:  0.595D+00
 Coeff:      0.441D-02-0.963D-02-0.905D-02-0.421D-02 0.993D-01 0.324D+00
 Coeff:      0.595D+00
 Gap=     0.122 Goal=   None    Shift=    0.000
 RMSDP=6.35D-06 MaxDP=1.18D-03 DE=-1.80D-04 OVMax= 3.58D-03

 Cycle   8  Pass 1  IDiag  1:
 RMSU=  4.59D-06    CP:  9.64D-01  1.50D+00  6.88D-01  6.27D-01  8.70D-01
                    CP:  8.80D-01  8.34D-01
 E= -4069.81183287217     Delta-E=       -0.000023878176 Rises=F Damp=F
 DIIS: error= 5.04D-05 at cycle   8 NSaved=   8.
 NSaved= 8 IEnMin= 8 EnMin= -4069.81183287217     IErMin= 8 ErrMin= 5.04D-05
 ErrMax= 5.04D-05  0.00D+00 EMaxC= 1.00D-01 BMatC= 4.62D-06 BMatP= 1.92D-05
 IDIUse=1 WtCom= 1.00D+00 WtEn= 0.00D+00
 Coeff-Com:  0.211D-02-0.418D-02-0.767D-02-0.121D-01-0.130D-01 0.328D-01
 Coeff-Com:  0.349D+00 0.653D+00
 Coeff:      0.211D-02-0.418D-02-0.767D-02-0.121D-01-0.130D-01 0.328D-01
 Coeff:      0.349D+00 0.653D+00
 Gap=     0.122 Goal=   None    Shift=    0.000
 RMSDP=3.22D-06 MaxDP=3.94D-04 DE=-2.39D-05 OVMax= 1.20D-03

 Cycle   9  Pass 1  IDiag  1:
 RMSU=  1.89D-06    CP:  9.64D-01  1.50D+00  6.89D-01  6.29D-01  8.87D-01
                    CP:  9.05D-01  1.03D+00  9.30D-01
 E= -4069.81184026244     Delta-E=       -0.000007390270 Rises=F Damp=F
 DIIS: error= 2.04D-05 at cycle   9 NSaved=   9.
 NSaved= 9 IEnMin= 9 EnMin= -4069.81184026244     IErMin= 9 ErrMin= 2.04D-05
 ErrMax= 2.04D-05  0.00D+00 EMaxC= 1.00D-01 BMatC= 6.65D-07 BMatP= 4.62D-06
 IDIUse=1 WtCom= 1.00D+00 WtEn= 0.00D+00
 Coeff-Com:  0.456D-03-0.756D-03-0.263D-02-0.594D-02-0.216D-01-0.375D-01
 Coeff-Com:  0.106D+00 0.327D+00 0.635D+00
 Coeff:      0.456D-03-0.756D-03-0.263D-02-0.594D-02-0.216D-01-0.375D-01
 Coeff:      0.106D+00 0.327D+00 0.635D+00
 Gap=     0.122 Goal=   None    Shift=    0.000
 RMSDP=1.39D-06 MaxDP=1.64D-04 DE=-7.39D-06 OVMax= 7.82D-04

 Cycle  10  Pass 1  IDiag  1:
 RMSU=  9.26D-07    CP:  9.64D-01  1.50D+00  6.89D-01  6.29D-01  8.90D-01
                    CP:  9.19D-01  1.08D+00  1.10D+00  1.04D+00
 E= -4069.81184179172     Delta-E=       -0.000001529279 Rises=F Damp=F
 DIIS: error= 1.10D-05 at cycle  10 NSaved=  10.
 NSaved=10 IEnMin=10 EnMin= -4069.81184179172     IErMin=10 ErrMin= 1.10D-05
 ErrMax= 1.10D-05  0.00D+00 EMaxC= 1.00D-01 BMatC= 1.64D-07 BMatP= 6.65D-07
 IDIUse=1 WtCom= 1.00D+00 WtEn= 0.00D+00
 Coeff-Com: -0.425D-03 0.890D-03 0.123D-02 0.115D-02-0.384D-02-0.305D-01
 Coeff-Com: -0.487D-01-0.746D-01 0.259D+00 0.896D+00
 Coeff:     -0.425D-03 0.890D-03 0.123D-02 0.115D-02-0.384D-02-0.305D-01
 Coeff:     -0.487D-01-0.746D-01 0.259D+00 0.896D+00
 Gap=     0.122 Goal=   None    Shift=    0.000
 RMSDP=1.21D-06 MaxDP=1.38D-04 DE=-1.53D-06 OVMax= 5.99D-04

 Cycle  11  Pass 1  IDiag  1:
 RMSU=  5.07D-07    CP:  9.64D-01  1.50D+00  6.89D-01  6.29D-01  8.92D-01
                    CP:  9.30D-01  1.13D+00  1.21D+00  1.38D+00  1.36D+00
 E= -4069.81184255239     Delta-E=       -0.000000760669 Rises=F Damp=F
 DIIS: error= 3.84D-06 at cycle  11 NSaved=  11.
 NSaved=11 IEnMin=11 EnMin= -4069.81184255239     IErMin=11 ErrMin= 3.84D-06
 ErrMax= 3.84D-06  0.00D+00 EMaxC= 1.00D-01 BMatC= 5.73D-08 BMatP= 1.64D-07
 IDIUse=1 WtCom= 1.00D+00 WtEn= 0.00D+00
 Coeff-Com: -0.323D-03 0.627D-03 0.131D-02 0.211D-02 0.435D-02-0.821D-02
 Coeff-Com: -0.452D-01-0.131D+00-0.195D-01 0.462D+00 0.734D+00
 Coeff:     -0.323D-03 0.627D-03 0.131D-02 0.211D-02 0.435D-02-0.821D-02
 Coeff:     -0.452D-01-0.131D+00-0.195D-01 0.462D+00 0.734D+00
 Gap=     0.122 Goal=   None    Shift=    0.000
 RMSDP=6.67D-07 MaxDP=5.64D-05 DE=-7.61D-07 OVMax= 3.46D-04

 Cycle  12  Pass 1  IDiag  1:
 RMSU=  2.57D-07    CP:  9.64D-01  1.50D+00  6.89D-01  6.30D-01  8.93D-01
                    CP:  9.32D-01  1.15D+00  1.27D+00  1.55D+00  1.74D+00
                    CP:  1.20D+00
 E= -4069.81184280300     Delta-E=       -0.000000250613 Rises=F Damp=F
 DIIS: error= 2.47D-06 at cycle  12 NSaved=  12.
 NSaved=12 IEnMin=12 EnMin= -4069.81184280300     IErMin=12 ErrMin= 2.47D-06
 ErrMax= 2.47D-06  0.00D+00 EMaxC= 1.00D-01 BMatC= 1.32D-08 BMatP= 5.73D-08
 IDIUse=1 WtCom= 1.00D+00 WtEn= 0.00D+00
 Coeff-Com:  0.485D-05-0.258D-04 0.157D-03 0.478D-03 0.319D-02 0.423D-02
 Coeff-Com:  0.304D-02-0.328D-01-0.681D-01-0.805D-01 0.239D+00 0.932D+00
 Coeff:      0.485D-05-0.258D-04 0.157D-03 0.478D-03 0.319D-02 0.423D-02
 Coeff:      0.304D-02-0.328D-01-0.681D-01-0.805D-01 0.239D+00 0.932D+00
 Gap=     0.122 Goal=   None    Shift=    0.000
 RMSDP=4.36D-07 MaxDP=3.03D-05 DE=-2.51D-07 OVMax= 2.66D-04

 Cycle  13  Pass 1  IDiag  1:
 RMSU=  1.65D-07    CP:  9.64D-01  1.50D+00  6.89D-01  6.30D-01  8.93D-01
                    CP:  9.32D-01  1.16D+00  1.30D+00  1.66D+00  1.97D+00
                    CP:  1.62D+00  1.28D+00
 E= -4069.81184289149     Delta-E=       -0.000000088487 Rises=F Damp=F
 DIIS: error= 1.51D-06 at cycle  13 NSaved=  13.
 NSaved=13 IEnMin=13 EnMin= -4069.81184289149     IErMin=13 ErrMin= 1.51D-06
 ErrMax= 1.51D-06  0.00D+00 EMaxC= 1.00D-01 BMatC= 8.02D-09 BMatP= 1.32D-08
 IDIUse=1 WtCom= 1.00D+00 WtEn= 0.00D+00
 Coeff-Com:  0.119D-03-0.243D-03-0.366D-03-0.451D-03 0.552D-03 0.515D-02
 Coeff-Com:  0.199D-01 0.224D-01-0.366D-01-0.238D+00-0.157D+00 0.624D+00
 Coeff-Com:  0.761D+00
 Coeff:      0.119D-03-0.243D-03-0.366D-03-0.451D-03 0.552D-03 0.515D-02
 Coeff:      0.199D-01 0.224D-01-0.366D-01-0.238D+00-0.157D+00 0.624D+00
 Coeff:      0.761D+00
 Gap=     0.122 Goal=   None    Shift=    0.000
 RMSDP=3.25D-07 MaxDP=2.11D-05 DE=-8.85D-08 OVMax= 1.72D-04

 Cycle  14  Pass 1  IDiag  1:
 RMSU=  7.70D-08    CP:  9.64D-01  1.50D+00  6.89D-01  6.30D-01  8.93D-01
                    CP:  9.33D-01  1.16D+00  1.32D+00  1.73D+00  2.16D+00
                    CP:  1.87D+00  1.79D+00  1.06D+00
 E= -4069.81184292551     Delta-E=       -0.000000034015 Rises=F Damp=F
 DIIS: error= 1.01D-06 at cycle  14 NSaved=  14.
 NSaved=14 IEnMin=14 EnMin= -4069.81184292551     IErMin=14 ErrMin= 1.01D-06
 ErrMax= 1.01D-06  0.00D+00 EMaxC= 1.00D-01 BMatC= 1.17D-09 BMatP= 8.02D-09
 IDIUse=1 WtCom= 1.00D+00 WtEn= 0.00D+00
 Coeff-Com:  0.665D-04-0.131D-03-0.246D-03-0.386D-03-0.486D-03 0.138D-02
 Coeff-Com:  0.111D-01 0.192D-01 0.199D-02-0.999D-01-0.146D+00 0.115D+00
 Coeff-Com:  0.389D+00 0.709D+00
 Coeff:      0.665D-04-0.131D-03-0.246D-03-0.386D-03-0.486D-03 0.138D-02
 Coeff:      0.111D-01 0.192D-01 0.199D-02-0.999D-01-0.146D+00 0.115D+00
 Coeff:      0.389D+00 0.709D+00
 Gap=     0.122 Goal=   None    Shift=    0.000
 RMSDP=1.01D-07 MaxDP=6.80D-06 DE=-3.40D-08 OVMax= 6.90D-05

 Cycle  15  Pass 1  IDiag  1:
 RMSU=  3.91D-08    CP:  9.64D-01  1.50D+00  6.89D-01  6.30D-01  8.93D-01
                    CP:  9.33D-01  1.16D+00  1.33D+00  1.74D+00  2.20D+00
                    CP:  1.98D+00  1.93D+00  1.30D+00  9.96D-01
 E= -4069.81184292963     Delta-E=       -0.000000004125 Rises=F Damp=F
 DIIS: error= 5.43D-07 at cycle  15 NSaved=  15.
 NSaved=15 IEnMin=15 EnMin= -4069.81184292963     IErMin=15 ErrMin= 5.43D-07
 ErrMax= 5.43D-07  0.00D+00 EMaxC= 1.00D-01 BMatC= 2.80D-10 BMatP= 1.17D-09
 IDIUse=1 WtCom= 1.00D+00 WtEn= 0.00D+00
 Coeff-Com:  0.859D-05-0.152D-04-0.448D-04-0.101D-03-0.336D-03-0.440D-03
 Coeff-Com:  0.168D-02 0.371D-02 0.890D-02-0.204D-02-0.403D-01-0.628D-01
 Coeff-Com:  0.322D-01 0.351D+00 0.709D+00
 Coeff:      0.859D-05-0.152D-04-0.448D-04-0.101D-03-0.336D-03-0.440D-03
 Coeff:      0.168D-02 0.371D-02 0.890D-02-0.204D-02-0.403D-01-0.628D-01
 Coeff:      0.322D-01 0.351D+00 0.709D+00
 Gap=     0.122 Goal=   None    Shift=    0.000
 RMSDP=4.05D-08 MaxDP=2.58D-06 DE=-4.13D-09 OVMax= 2.35D-05

 Cycle  16  Pass 1  IDiag  1:
 RMSU=  1.91D-08    CP:  9.64D-01  1.50D+00  6.89D-01  6.30D-01  8.93D-01
                    CP:  9.33D-01  1.17D+00  1.33D+00  1.75D+00  2.22D+00
                    CP:  2.00D+00  2.00D+00  1.37D+00  1.22D+00  1.11D+00
 E= -4069.81184293018     Delta-E=       -0.000000000553 Rises=F Damp=F
 DIIS: error= 2.36D-07 at cycle  16 NSaved=  16.
 NSaved=16 IEnMin=16 EnMin= -4069.81184293018     IErMin=16 ErrMin= 2.36D-07
 ErrMax= 2.36D-07  0.00D+00 EMaxC= 1.00D-01 BMatC= 7.82D-11 BMatP= 2.80D-10
 IDIUse=1 WtCom= 1.00D+00 WtEn= 0.00D+00
 Coeff-Com: -0.135D-04 0.275D-04 0.442D-04 0.489D-04-0.398D-04-0.636D-03
 Coeff-Com: -0.195D-02-0.396D-02 0.493D-02 0.251D-01 0.175D-01-0.640D-01
 Coeff-Com: -0.897D-01 0.313D-02 0.363D+00 0.746D+00
 Coeff:     -0.135D-04 0.275D-04 0.442D-04 0.489D-04-0.398D-04-0.636D-03
 Coeff:     -0.195D-02-0.396D-02 0.493D-02 0.251D-01 0.175D-01-0.640D-01
 Coeff:     -0.897D-01 0.313D-02 0.363D+00 0.746D+00
 Gap=     0.122 Goal=   None    Shift=    0.000
 RMSDP=2.41D-08 MaxDP=1.88D-06 DE=-5.53D-10 OVMax= 1.81D-05

 Cycle  17  Pass 1  IDiag  1:
 RMSU=  1.21D-08    CP:  9.64D-01  1.50D+00  6.89D-01  6.30D-01  8.93D-01
                    CP:  9.33D-01  1.17D+00  1.33D+00  1.75D+00  2.22D+00
                    CP:  2.02D+00  2.02D+00  1.42D+00  1.31D+00  1.41D+00
                    CP:  1.17D+00
 E= -4069.81184293070     Delta-E=       -0.000000000517 Rises=F Damp=F
 DIIS: error= 1.18D-07 at cycle  17 NSaved=  17.
 NSaved=17 IEnMin=17 EnMin= -4069.81184293070     IErMin=17 ErrMin= 1.18D-07
 ErrMax= 1.18D-07  0.00D+00 EMaxC= 1.00D-01 BMatC= 2.57D-11 BMatP= 7.82D-11
 IDIUse=1 WtCom= 1.00D+00 WtEn= 0.00D+00
 Coeff-Com: -0.917D-05 0.180D-04 0.351D-04 0.505D-04 0.785D-04-0.213D-03
 Coeff-Com: -0.132D-02-0.331D-02 0.821D-03 0.132D-01 0.201D-01-0.154D-01
 Coeff-Com: -0.544D-01-0.924D-01-0.281D-01 0.400D+00 0.761D+00
 Coeff:     -0.917D-05 0.180D-04 0.351D-04 0.505D-04 0.785D-04-0.213D-03
 Coeff:     -0.132D-02-0.331D-02 0.821D-03 0.132D-01 0.201D-01-0.154D-01
 Coeff:     -0.544D-01-0.924D-01-0.281D-01 0.400D+00 0.761D+00
 Gap=     0.122 Goal=   None    Shift=    0.000
 RMSDP=1.43D-08 MaxDP=9.40D-07 DE=-5.17D-10 OVMax= 8.01D-06

 Cycle  18  Pass 1  IDiag  1:
 RMSU=  5.64D-09    CP:  9.64D-01  1.50D+00  6.89D-01  6.30D-01  8.93D-01
                    CP:  9.33D-01  1.17D+00  1.33D+00  1.75D+00  2.22D+00
                    CP:  2.02D+00  2.03D+00  1.44D+00  1.39D+00  1.58D+00
                    CP:  1.57D+00  1.27D+00
 E= -4069.81184293080     Delta-E=       -0.000000000102 Rises=F Damp=F
 DIIS: error= 8.00D-08 at cycle  18 NSaved=  18.
 NSaved=18 IEnMin=18 EnMin= -4069.81184293080     IErMin=18 ErrMin= 8.00D-08
 ErrMax= 8.00D-08  0.00D+00 EMaxC= 1.00D-01 BMatC= 7.09D-12 BMatP= 2.57D-11
 IDIUse=1 WtCom= 1.00D+00 WtEn= 0.00D+00
 Coeff-Com:  0.190D-06-0.740D-06 0.236D-05 0.796D-05 0.691D-04 0.133D-03
 Coeff-Com:  0.123D-03-0.436D-03-0.115D-02-0.325D-02 0.372D-02 0.169D-01
 Coeff-Com:  0.646D-02-0.455D-01-0.156D+00-0.515D-01 0.348D+00 0.883D+00
 Coeff:      0.190D-06-0.740D-06 0.236D-05 0.796D-05 0.691D-04 0.133D-03
 Coeff:      0.123D-03-0.436D-03-0.115D-02-0.325D-02 0.372D-02 0.169D-01
 Coeff:      0.646D-02-0.455D-01-0.156D+00-0.515D-01 0.348D+00 0.883D+00
 Gap=     0.122 Goal=   None    Shift=    0.000
 RMSDP=1.06D-08 MaxDP=8.35D-07 DE=-1.02D-10 OVMax= 7.21D-06

 Cycle  19  Pass 1  IDiag  1:
 RMSU=  3.32D-09    CP:  9.64D-01  1.50D+00  6.89D-01  6.30D-01  8.93D-01
                    CP:  9.33D-01  1.17D+00  1.33D+00  1.75D+00  2.22D+00
                    CP:  2.02D+00  2.04D+00  1.45D+00  1.43D+00  1.71D+00
                    CP:  1.83D+00  1.75D+00  1.17D+00
 E= -4069.81184293110     Delta-E=       -0.000000000298 Rises=F Damp=F
 DIIS: error= 3.49D-08 at cycle  19 NSaved=  19.
 NSaved=19 IEnMin=19 EnMin= -4069.81184293110     IErMin=19 ErrMin= 3.49D-08
 ErrMax= 3.49D-08  0.00D+00 EMaxC= 1.00D-01 BMatC= 3.26D-12 BMatP= 7.09D-12
 IDIUse=1 WtCom= 1.00D+00 WtEn= 0.00D+00
 Coeff-Com:  0.341D-05-0.692D-05-0.112D-04-0.134D-04 0.201D-04 0.160D-03
 Coeff-Com:  0.581D-03 0.895D-03-0.927D-03-0.719D-02-0.511D-02 0.166D-01
 Coeff-Com:  0.243D-01 0.518D-02-0.982D-01-0.189D+00-0.919D-01 0.578D+00
 Coeff-Com:  0.767D+00
 Coeff:      0.341D-05-0.692D-05-0.112D-04-0.134D-04 0.201D-04 0.160D-03
 Coeff:      0.581D-03 0.895D-03-0.927D-03-0.719D-02-0.511D-02 0.166D-01
 Coeff:      0.243D-01 0.518D-02-0.982D-01-0.189D+00-0.919D-01 0.578D+00
 Coeff:      0.767D+00
 Gap=     0.122 Goal=   None    Shift=    0.000
 RMSDP=7.37D-09 MaxDP=4.93D-07 DE=-2.98D-10 OVMax= 3.97D-06

 SCF Done:  E(RCAM-B3LYP) =  -4069.81184293     A.U. after   19 cycles
            NFock= 19  Conv=0.74D-08     -V/T= 2.0102
 KE= 4.028801877790D+03 PE=-3.795487585136D+04 EE= 1.561930282977D+04
 Leave Link  502 at Sat Sep  4 08:30:13 2021, MaxMem= 23488102400 cpu:           12205.2 elap:             532.4
 (Enter /sw/apps/gaussian-16.0/g16/l801.exe)
 DoSCS=F DFT=T ScalE2(SS,OS)=  1.000000  1.000000
 ExpMin= 3.36D-02 ExpMax= 4.95D+03 ExpMxC= 7.45D+02 IAcc=3 IRadAn=         5 AccDes= 0.00D+00
 HarFok:  IExCor=  205 AccDes= 0.00D+00 IRadAn=         5 IDoV=-2 UseB2=F ITyADJ=14
 ICtDFT= 12500011 ScaDFX=  1.000000  1.000000  1.000000  1.000000
 GSVD:  LWork=       -9588 too small for GESVD, short by       45590 words or       45590 for optimal perf.
 Largest valence mixing into a core orbital is  2.03D-04
 Largest core mixing into a valence orbital is  5.25D-05
 Range of M.O.s used for correlation:    95  1572
 NBasis=  1572 NAE=   312 NBE=   312 NFC=    94 NFV=     0
 NROrb=   1478 NOA=   218 NOB=   218 NVA=  1260 NVB=  1260
 Leave Link  801 at Sat Sep  4 08:30:13 2021, MaxMem= 23488102400 cpu:               8.0 elap:               0.4
 (Enter /sw/apps/gaussian-16.0/g16/l914.exe)
 RHF ground state
 Two-electron integrals replicated using symmetry.
 MDV= 23488102400 DFT=T DoStab=F Mixed=T DoRPA=T DoScal=F NonHer=T
 Making orbital integer symmetry assigments:
 Orbital symmetries:
       Occupied  (A) (A) (A) (A) (A) (A) (A) (A) (A) (A) (A) (A)
                 (A) (A) (A) (A) (A) (A) (A) (A) (A) (A) (A) (A)
                 (A) (A) (A) (A) (A) (A) (A) (A) (A) (A) (A) (A)
                 (A) (A) (A) (A) (A) (A) (A) (A) (A) (A) (A) (A)
                 (A) (A) (A) (A) (A) (A) (A) (A) (A) (A) (A) (A)
                 (A) (A) (A) (A) (A) (A) (A) (A) (A) (A) (A) (A)
                 (A) (A) (A) (A) (A) (A) (A) (A) (A) (A) (A) (A)
                 (A) (A) (A) (A) (A) (A) (A) (A) (A) (A) (A) (A)
                 (A) (A) (A) (A) (A) (A) (A) (A) (A) (A) (A) (A)
                 (A) (A) (A) (A) (A) (A) (A) (A) (A) (A) (A) (A)
                 (A) (A) (A) (A) (A) (A) (A) (A) (A) (A) (A) (A)
                 (A) (A) (A) (A) (A) (A) (A) (A) (A) (A) (A) (A)
                 (A) (A) (A) (A) (A) (A) (A) (A) (A) (A) (A) (A)
                 (A) (A) (A) (A) (A) (A) (A) (A) (A) (A) (A) (A)
                 (A) (A) (A) (A) (A) (A) (A) (A) (A) (A) (A) (A)
                 (A) (A) (A) (A) (A) (A) (A) (A) (A) (A) (A) (A)
                 (A) (A) (A) (A) (A) (A) (A) (A) (A) (A) (A) (A)
                 (A) (A) (A) (A) (A) (A) (A) (A) (A) (A) (A) (A)
                 (A) (A) (A) (A) (A) (A) (A) (A) (A) (A) (A) (A)
                 (A) (A) (A) (A) (A) (A) (A) (A) (A) (A) (A) (A)
                 (A) (A) (A) (A) (A) (A) (A) (A) (A) (A) (A) (A)
                 (A) (A) (A) (A) (A) (A) (A) (A) (A) (A) (A) (A)
                 (A) (A) (A) (A) (A) (A) (A) (A) (A) (A) (A) (A)
                 (A) (A) (A) (A) (A) (A) (A) (A) (A) (A) (A) (A)
                 (A) (A) (A) (A) (A) (A) (A) (A) (A) (A) (A) (A)
                 (A) (A) (A) (A) (A) (A) (A) (A) (A) (A) (A) (A)
       Virtual   (A) (A) (A) (A) (A) (A) (A) (A) (A) (A) (A) (A)
                 (A) (A) (A) (A) (A) (A) (A) (A) (A) (A) (A) (A)
                 (A) (A) (A) (A) (A) (A) (A) (A) (A) (A) (A) (A)
                 (A) (A) (A) (A) (A) (A) (A) (A) (A) (A) (A) (A)
                 (A) (A) (A) (A) (A) (A) (A) (A) (A) (A) (A) (A)
                 (A) (A) (A) (A) (A) (A) (A) (A) (A) (A) (A) (A)
                 (A) (A) (A) (A) (A) (A) (A) (A) (A) (A) (A) (A)
                 (A) (A) (A) (A) (A) (A) (A) (A) (A) (A) (A) (A)
                 (A) (A) (A) (A) (A) (A) (A) (A) (A) (A) (A) (A)
                 (A) (A) (A) (A) (A) (A) (A) (A) (A) (A) (A) (A)
                 (A) (A) (A) (A) (A) (A) (A) (A) (A) (A) (A) (A)
                 (A) (A) (A) (A) (A) (A) (A) (A) (A) (A) (A) (A)
                 (A) (A) (A) (A) (A) (A) (A) (A) (A) (A) (A) (A)
                 (A) (A) (A) (A) (A) (A) (A) (A) (A) (A) (A) (A)
                 (A) (A) (A) (A) (A) (A) (A) (A) (A) (A) (A) (A)
                 (A) (A) (A) (A) (A) (A) (A) (A) (A) (A) (A) (A)
                 (A) (A) (A) (A) (A) (A) (A) (A) (A) (A) (A) (A)
                 (A) (A) (A) (A) (A) (A) (A) (A) (A) (A) (A) (A)
                 (A) (A) (A) (A) (A) (A) (A) (A) (A) (A) (A) (A)
                 (A) (A) (A) (A) (A) (A) (A) (A) (A) (A) (A) (A)
                 (A) (A) (A) (A) (A) (A) (A) (A) (A) (A) (A) (A)
                 (A) (A) (A) (A) (A) (A) (A) (A) (A) (A) (A) (A)
                 (A) (A) (A) (A) (A) (A) (A) (A) (A) (A) (A) (A)
                 (A) (A) (A) (A) (A) (A) (A) (A) (A) (A) (A) (A)
                 (A) (A) (A) (A) (A) (A) (A) (A) (A) (A) (A) (A)
                 (A) (A) (A) (A) (A) (A) (A) (A) (A) (A) (A) (A)
                 (A) (A) (A) (A) (A) (A) (A) (A) (A) (A) (A) (A)
                 (A) (A) (A) (A) (A) (A) (A) (A) (A) (A) (A) (A)
                 (A) (A) (A) (A) (A) (A) (A) (A) (A) (A) (A) (A)
                 (A) (A) (A) (A) (A) (A) (A) (A) (A) (A) (A) (A)
                 (A) (A) (A) (A) (A) (A) (A) (A) (A) (A) (A) (A)
                 (A) (A) (A) (A) (A) (A) (A) (A) (A) (A) (A) (A)
                 (A) (A) (A) (A) (A) (A) (A) (A) (A) (A) (A) (A)
                 (A) (A) (A) (A) (A) (A) (A) (A) (A) (A) (A) (A)
                 (A) (A) (A) (A) (A) (A) (A) (A) (A) (A) (A) (A)
                 (A) (A) (A) (A) (A) (A) (A) (A) (A) (A) (A) (A)
                 (A) (A) (A) (A) (A) (A) (A) (A) (A) (A) (A) (A)
                 (A) (A) (A) (A) (A) (A) (A) (A) (A) (A) (A) (A)
                 (A) (A) (A) (A) (A) (A) (A) (A) (A) (A) (A) (A)
                 (A) (A) (A) (A) (A) (A) (A) (A) (A) (A) (A) (A)
                 (A) (A) (A) (A) (A) (A) (A) (A) (A) (A) (A) (A)
                 (A) (A) (A) (A) (A) (A) (A) (A) (A) (A) (A) (A)
                 (A) (A) (A) (A) (A) (A) (A) (A) (A) (A) (A) (A)
                 (A) (A) (A) (A) (A) (A) (A) (A) (A) (A) (A) (A)
                 (A) (A) (A) (A) (A) (A) (A) (A) (A) (A) (A) (A)
                 (A) (A) (A) (A) (A) (A) (A) (A) (A) (A) (A) (A)
                 (A) (A) (A) (A) (A) (A) (A) (A) (A) (A) (A) (A)
                 (A) (A) (A) (A) (A) (A) (A) (A) (A) (A) (A) (A)
                 (A) (A) (A) (A) (A) (A) (A) (A) (A) (A) (A) (A)
                 (A) (A) (A) (A) (A) (A) (A) (A) (A) (A) (A) (A)
                 (A) (A) (A) (A) (A) (A) (A) (A) (A) (A) (A) (A)
                 (A) (A) (A) (A) (A) (A) (A) (A) (A) (A) (A) (A)
                 (A) (A) (A) (A) (A) (A) (A) (A) (A) (A) (A) (A)
                 (A) (A) (A) (A) (A) (A) (A) (A) (A) (A) (A) (A)
                 (A) (A) (A) (A) (A) (A) (A) (A) (A) (A) (A) (A)
                 (A) (A) (A) (A) (A) (A) (A) (A) (A) (A) (A) (A)
                 (A) (A) (A) (A) (A) (A) (A) (A) (A) (A) (A) (A)
                 (A) (A) (A) (A) (A) (A) (A) (A) (A) (A) (A) (A)
                 (A) (A) (A) (A) (A) (A) (A) (A) (A) (A) (A) (A)
                 (A) (A) (A) (A) (A) (A) (A) (A) (A) (A) (A) (A)
                 (A) (A) (A) (A) (A) (A) (A) (A) (A) (A) (A) (A)
                 (A) (A) (A) (A) (A) (A) (A) (A) (A) (A) (A) (A)
                 (A) (A) (A) (A) (A) (A) (A) (A) (A) (A) (A) (A)
                 (A) (A) (A) (A) (A) (A) (A) (A) (A) (A) (A) (A)
                 (A) (A) (A) (A) (A) (A) (A) (A) (A) (A) (A) (A)
                 (A) (A) (A) (A) (A) (A) (A) (A) (A) (A) (A) (A)
                 (A) (A) (A) (A) (A) (A) (A) (A) (A) (A) (A) (A)
                 (A) (A) (A) (A) (A) (A) (A) (A) (A) (A) (A) (A)
                 (A) (A) (A) (A) (A) (A) (A) (A) (A) (A) (A) (A)
                 (A) (A) (A) (A) (A) (A) (A) (A) (A) (A) (A) (A)
                 (A) (A) (A) (A) (A) (A) (A) (A) (A) (A) (A) (A)
                 (A) (A) (A) (A) (A) (A) (A) (A) (A) (A) (A) (A)
                 (A) (A) (A) (A) (A) (A) (A) (A) (A) (A) (A) (A)
                 (A) (A) (A) (A) (A) (A) (A) (A) (A) (A) (A) (A)
                 (A) (A) (A) (A) (A) (A) (A) (A) (A) (A) (A) (A)
                 (A) (A) (A) (A) (A) (A) (A) (A) (A) (A) (A) (A)
                 (A) (A) (A) (A) (A) (A) (A) (A) (A) (A) (A) (A)
                 (A) (A) (A) (A) (A) (A) (A) (A) (A) (A) (A) (A)
                 (A) (A) (A) (A) (A) (A) (A) (A) (A) (A) (A) (A)
                 (A) (A) (A) (A) (A) (A) (A) (A) (A) (A) (A) (A)
                 (A) (A) (A) (A) (A) (A) (A) (A) (A) (A) (A) (A)
                 (A) (A) (A) (A) (A) (A) (A) (A) (A) (A) (A) (A)
                 (A) (A) (A) (A) (A) (A) (A) (A) (A) (A) (A) (A)
                 (A) (A) (A) (A) (A) (A) (A) (A) (A) (A) (A) (A)
                 (A) (A) (A) (A) (A) (A) (A) (A) (A) (A) (A) (A)
                 (A) (A) (A) (A) (A) (A) (A) (A) (A) (A) (A) (A)
                 (A) (A) (A) (A) (A) (A) (A) (A) (A) (A) (A) (A)
                 (A) (A) (A) (A) (A) (A) (A) (A) (A) (A) (A) (A)
                 (A) (A) (A) (A) (A) (A) (A) (A) (A) (A) (A) (A)
                 (A) (A) (A) (A) (A) (A) (A) (A) (A) (A) (A) (A)
                 (A) (A) (A) (A) (A) (A) (A) (A) (A) (A) (A) (A)
                 (A) (A) (A) (A) (A) (A) (A) (A) (A) (A) (A) (A)
                 (A) (A) (A) (A) (A) (A) (A) (A) (A) (A) (A) (A)
                 (A) (A) (A) (A) (A) (A) (A) (A) (A) (A) (A) (A)
                 (A) (A) (A) (A) (A) (A) (A) (A) (A) (A) (A) (A)
                 (A) (A) (A) (A) (A) (A) (A) (A) (A) (A) (A) (A)
                 (A) (A) (A) (A) (A) (A) (A) (A) (A) (A) (A) (A)
                 (A) (A) (A) (A) (A) (A) (A) (A) (A) (A) (A) (A)
                 (A) (A) (A) (A) (A) (A) (A) (A) (A) (A) (A) (A)
                 (A) (A) (A) (A) (A) (A) (A) (A) (A) (A) (A) (A)
                 (A) (A) (A) (A) (A) (A) (A) (A) (A) (A) (A) (A)
                 (A) (A) (A) (A) (A) (A) (A) (A) (A) (A) (A) (A)
                 (A) (A) (A) (A) (A) (A) (A) (A) (A) (A) (A) (A)
                 (A) (A) (A) (A) (A) (A) (A) (A) (A) (A) (A) (A)
                 (A) (A) (A) (A) (A) (A) (A) (A) (A) (A) (A) (A)
    20 initial guesses have been made.
 Convergence on wavefunction:    0.001000000000000
 Davidson Disk Diagonalization:  ConvIn= 1.00D-03 SkipCon=T Conv= 1.00D-03.
 Max sub-space:  2000 roots to seek:    20 dimension of matrix:       549360
 Iteration     1 Dimension    20 NMult     0 NNew     20
 CISAX will form    20 AO SS matrices at one time.
 NMat=    20 NSing=    20 JSym2X= 0.
 FoFJK:  IHMeth= 1 ICntrl=       0 DoSepK=T KAlg= 0 I1Cent=           0 FoldK=F
 IRaf=         1 NMat=      40 IRICut=       1 DoRegI=T DoRafI=F ISym2E= 0 IDoP0=3 IntGTp=3.
 FoFCou: FMM=T IPFlag=           0 FMFlag=      100000 FMFlg1=        2001
         NFxFlg=           0 DoJE=F BraDBF=F KetDBF=F FulRan=T
         wScrn=  0.000000 ICntrl=       500 IOpCl=  0 I1Cent=           0 NGrid=           0
         NMat0=   20 NMatS0=     20 NMatT0=    0 NMatD0=   20 NMtDS0=    0 NMtDT0=    0
 Symmetry not used in FoFCou.
 FMM levels:  10  Number of levels for PrismC:   9
 New state      1 was old state      7
 New state      2 was old state      6
 New state      3 was old state      1
 New state      4 was old state      2
 New state      5 was old state      3
 Excitation Energies [eV] at current iteration:
 Root      1 :     2.613526709098997
 Root      2 :     2.619198525626185
 Root      3 :     2.651227562734078
 Root      4 :     2.664135543724765
 Root      5 :     2.706531635761793
 Root      6 :     2.738043758748621
 Root      7 :     3.440713470617399
 Root      8 :     3.538832027769288
 Root      9 :     3.632562939328814
 Root     10 :     3.669218518082311
 Root     11 :     3.735161157099758
 Root     12 :     3.758051871942182
 Root     13 :     4.288836870761821
 Root     14 :     4.322292559126666
 Root     15 :     4.555935877405393
 Root     16 :     4.672928234971850
 Root     17 :     4.870206004764392
 Root     18 :     4.904067477964143
 Root     19 :     4.963742922754061
 Root     20 :     4.995721548187547
 Iteration     2 Dimension    30 NMult    20 NNew     10
 CISAX will form    10 AO SS matrices at one time.
 NMat=    10 NSing=    10 JSym2X= 0.
 New state      1 was old state      4
 Root      1 not converged, maximum delta is    0.153129659052770
 New state      2 was old state      5
 Root      2 not converged, maximum delta is    0.157364446979078
 New state      3 was old state      1
 Root      3 not converged, maximum delta is    0.273143887371666
 New state      4 was old state      2
 Root      4 not converged, maximum delta is    0.263293278784538
 New state      5 was old state      3
 Root      5 not converged, maximum delta is    0.001347755712275
 Excitation Energies [eV] at current iteration:
 Root      1 :     1.793672260181353   Change is   -0.870463283543412
 Root      2 :     1.813957189199603   Change is   -0.892574446562189
 Root      3 :     2.234146008211092   Change is   -0.379380700887905
 Root      4 :     2.240626063529346   Change is   -0.378572462096839
 Root      5 :     2.651055206472839   Change is   -0.000172356261239
 Iteration     3 Dimension    40 NMult    30 NNew     10
 CISAX will form    10 AO SS matrices at one time.
 NMat=    10 NSing=    10 JSym2X= 0.
 Root      1 not converged, maximum delta is    0.056511921069508
 Root      2 not converged, maximum delta is    0.057294243487043
 Root      3 not converged, maximum delta is    0.070276871187903
 Root      4 not converged, maximum delta is    0.069853248798920
 Root      5 has converged.
 Excitation Energies [eV] at current iteration:
 Root      1 :     1.686981865820352   Change is   -0.106690394361000
 Root      2 :     1.705227906221120   Change is   -0.108729282978484
 Root      3 :     2.193256935554166   Change is   -0.040889072656925
 Root      4 :     2.201199775519227   Change is   -0.039426288010119
 Root      5 :     2.651054389499557   Change is   -0.000000816973282
 Iteration     4 Dimension    48 NMult    40 NNew      8
 CISAX will form     8 AO SS matrices at one time.
 NMat=     8 NSing=     8 JSym2X= 0.
 Root      1 not converged, maximum delta is    0.010923100996235
 Root      2 not converged, maximum delta is    0.010839385082557
 Root      3 not converged, maximum delta is    0.012153753353997
 Root      4 not converged, maximum delta is    0.012005644647287
 Root      5 has converged.
 Excitation Energies [eV] at current iteration:
 Root      1 :     1.670263746718608   Change is   -0.016718119101745
 Root      2 :     1.688349838470553   Change is   -0.016878067750566
 Root      3 :     2.186045512497704   Change is   -0.007211423056463
 Root      4 :     2.194360808242430   Change is   -0.006838967276797
 Root      5 :     2.651054389498906   Change is   -0.000000000000651
 Iteration     5 Dimension    56 NMult    48 NNew      8
 CISAX will form     8 AO SS matrices at one time.
 NMat=     8 NSing=     8 JSym2X= 0.
 Root      1 not converged, maximum delta is    0.001769959822154
 Root      2 not converged, maximum delta is    0.001777041907138
 Root      3 not converged, maximum delta is    0.002434093816621
 Root      4 not converged, maximum delta is    0.002304947220237
 Root      5 has converged.
 Excitation Energies [eV] at current iteration:
 Root      1 :     1.668505113967403   Change is   -0.001758632751204
 Root      2 :     1.686558352766713   Change is   -0.001791485703840
 Root      3 :     2.185207697269723   Change is   -0.000837815227981
 Root      4 :     2.193576778342201   Change is   -0.000784029900228
 Root      5 :     2.651054389497820   Change is   -0.000000000001085
 Iteration     6 Dimension    64 NMult    56 NNew      8
 CISAX will form     8 AO SS matrices at one time.
 NMat=     8 NSing=     8 JSym2X= 0.
 Root      1 not converged, maximum delta is    0.001097892439681
 Root      2 not converged, maximum delta is    0.001108255108161
 Root      3 not converged, maximum delta is    0.001021605260528
 Root      4 has converged.
 Root      5 has converged.
 Excitation Energies [eV] at current iteration:
 Root      1 :     1.668254633560806   Change is   -0.000250480406597
 Root      2 :     1.686301212291199   Change is   -0.000257140475514
 Root      3 :     2.185081065837478   Change is   -0.000126631432245
 Root      4 :     2.193457494536754   Change is   -0.000119283805447
 Root      5 :     2.651054389497418   Change is   -0.000000000000403
 Iteration     7 Dimension    70 NMult    64 NNew      6
 CISAX will form     6 AO SS matrices at one time.
 NMat=     6 NSing=     6 JSym2X= 0.
 Root      1 has converged.
 Root      2 has converged.
 Root      3 has converged.
 Root      4 has converged.
 Root      5 has converged.
 Excitation Energies [eV] at current iteration:
 Root      1 :     1.668230265685634   Change is   -0.000024367875172
[...]
 Alpha virt. eigenvalues --    1.84420   1.84584   1.84798   1.84842   1.85056
 Alpha virt. eigenvalues --    1.85177   1.85255   1.85400   1.85475   1.85544
 Alpha virt. eigenvalues --    1.85844   1.85954   1.86330   1.86450   1.86533
 Alpha virt. eigenvalues --    1.86708   1.86755   1.86902   1.87000   1.87086
 Alpha virt. eigenvalues --    1.87420   1.87529   1.87660   1.87820   1.87843
 Alpha virt. eigenvalues --    1.88016   1.88088   1.88232   1.88521   1.88634
 Alpha virt. eigenvalues --    1.88815   1.88998   1.89085   1.89148   1.89612
 Alpha virt. eigenvalues --    1.89719   1.89732   1.89930   1.90102   1.90242
 Alpha virt. eigenvalues --    1.90729   1.90952   1.91327   1.91415   1.91520
 Alpha virt. eigenvalues --    1.91639   1.92133   1.92226   1.92613   1.92708
 Alpha virt. eigenvalues --    1.92958   1.93210   1.93302   1.93574   1.94240
 Alpha virt. eigenvalues --    1.94370   1.94666   1.94890   1.95427   1.95679
 Alpha virt. eigenvalues --    1.95709   1.95857   1.95977   1.96110   1.96111
 Alpha virt. eigenvalues --    1.96214   1.96537   1.96564   1.96881   1.96995
 Alpha virt. eigenvalues --    1.97418   1.97591   1.97801   1.97845   1.98155
 Alpha virt. eigenvalues --    1.98217   1.98382   1.98661   1.99119   1.99137
 Alpha virt. eigenvalues --    1.99813   1.99977   2.00633   2.00780   2.00982
 Alpha virt. eigenvalues --    2.01144   2.01469   2.01578   2.01637   2.01643
 Alpha virt. eigenvalues --    2.01704   2.01864   2.02763   2.02765   2.03201
 Alpha virt. eigenvalues --    2.03228   2.03389   2.03422   2.03471   2.03561
 Alpha virt. eigenvalues --    2.04014   2.04077   2.04939   2.05034   2.05493
 Alpha virt. eigenvalues --    2.05687   2.06061   2.06335   2.06892   2.07060
 Alpha virt. eigenvalues --    2.07162   2.07393   2.08564   2.08620   2.08967
 Alpha virt. eigenvalues --    2.09045   2.09578   2.09654   2.10729   2.11107
 Alpha virt. eigenvalues --    2.11164   2.11453   2.11526   2.11569   2.11715
 Alpha virt. eigenvalues --    2.11914   2.12448   2.12509   2.12787   2.12813
 Alpha virt. eigenvalues --    2.12859   2.12919   2.13671   2.13761   2.14098
 Alpha virt. eigenvalues --    2.14347   2.15315   2.15460   2.15911   2.16134
 Alpha virt. eigenvalues --    2.16494   2.16650   2.16740   2.17208   2.17390
 Alpha virt. eigenvalues --    2.17680   2.17734   2.17984   2.18031   2.18069
 Alpha virt. eigenvalues --    2.18313   2.18706   2.18856   2.19268   2.19625
 Alpha virt. eigenvalues --    2.19855   2.20027   2.20190   2.20282   2.20481
 Alpha virt. eigenvalues --    2.21103   2.21252   2.21650   2.21729   2.21800
 Alpha virt. eigenvalues --    2.21909   2.22657   2.22753   2.23280   2.23398
 Alpha virt. eigenvalues --    2.24370   2.24472   2.24907   2.25070   2.26285
 Alpha virt. eigenvalues --    2.26481   2.26751   2.27058   2.27088   2.27241
 Alpha virt. eigenvalues --    2.28121   2.28361   2.29247   2.29492   2.29721
 Alpha virt. eigenvalues --    2.29922   2.30440   2.30653   2.30848   2.31056
 Alpha virt. eigenvalues --    2.31168   2.31257   2.32090   2.32306   2.33119
 Alpha virt. eigenvalues --    2.33275   2.33432   2.33533   2.34101   2.34206
 Alpha virt. eigenvalues --    2.35325   2.35354   2.35787   2.35951   2.36307
 Alpha virt. eigenvalues --    2.36377   2.36513   2.36609   2.37615   2.37731
 Alpha virt. eigenvalues --    2.38234   2.38438   2.38816   2.38849   2.39593
 Alpha virt. eigenvalues --    2.39710   2.40140   2.40333   2.40472   2.40861
 Alpha virt. eigenvalues --    2.41245   2.41253   2.41646   2.41739   2.42024
 Alpha virt. eigenvalues --    2.42154   2.42892   2.42899   2.43064   2.43519
 Alpha virt. eigenvalues --    2.44022   2.44153   2.44715   2.44849   2.44882
 Alpha virt. eigenvalues --    2.45032   2.45523   2.45611   2.46286   2.46324
 Alpha virt. eigenvalues --    2.46460   2.46531   2.46785   2.46825   2.47222
 Alpha virt. eigenvalues --    2.47422   2.47686   2.47942   2.49279   2.49461
 Alpha virt. eigenvalues --    2.49941   2.50019   2.50498   2.50510   2.51104
 Alpha virt. eigenvalues --    2.51296   2.51649   2.51869   2.52419   2.52422
 Alpha virt. eigenvalues --    2.52791   2.53200   2.53891   2.54020   2.54129
 Alpha virt. eigenvalues --    2.54342   2.54757   2.54847   2.55495   2.55711
 Alpha virt. eigenvalues --    2.57844   2.58124   2.58613   2.58962   2.60191
 Alpha virt. eigenvalues --    2.60318   2.60597   2.60960   2.61687   2.61871
 Alpha virt. eigenvalues --    2.62468   2.62513   2.62931   2.63162   2.63921
 Alpha virt. eigenvalues --    2.64189   2.64252   2.64504   2.65048   2.65146
 Alpha virt. eigenvalues --    2.65773   2.65888   2.66732   2.66861   2.66887
 Alpha virt. eigenvalues --    2.67100   2.67876   2.68025   2.68832   2.68853
 Alpha virt. eigenvalues --    2.69004   2.69046   2.69346   2.69625   2.69963
 Alpha virt. eigenvalues --    2.70174   2.70949   2.71093   2.71914   2.72028
 Alpha virt. eigenvalues --    2.72501   2.72635   2.72747   2.72810   2.73224
 Alpha virt. eigenvalues --    2.73336   2.73463   2.73513   2.74483   2.74531
 Alpha virt. eigenvalues --    2.74952   2.75078   2.76553   2.76555   2.77082
 Alpha virt. eigenvalues --    2.77212   2.77434   2.77636   2.78165   2.78332
 Alpha virt. eigenvalues --    2.78704   2.78726   2.79108   2.79176   2.80292
 Alpha virt. eigenvalues --    2.80324   2.80574   2.80695   2.81097   2.81165
 Alpha virt. eigenvalues --    2.81916   2.81996   2.82308   2.82365   2.83733
 Alpha virt. eigenvalues --    2.83751   2.83873   2.83906   2.84517   2.84553
 Alpha virt. eigenvalues --    2.84843   2.84931   2.85640   2.85721   2.86674
 Alpha virt. eigenvalues --    2.86961   2.87168   2.87587   2.88136   2.88263
 Alpha virt. eigenvalues --    2.88476   2.88631   2.88892   2.88905   2.90468
 Alpha virt. eigenvalues --    2.90680   2.91113   2.91143   2.93137   2.93342
 Alpha virt. eigenvalues --    2.93797   2.94171   2.94519   2.94613   2.95351
 Alpha virt. eigenvalues --    2.95487   2.95819   2.96177   2.96394   2.96396
 Alpha virt. eigenvalues --    2.96864   2.97155   2.97801   2.98064   2.98195
 Alpha virt. eigenvalues --    2.98333   2.98358   2.98582   2.98591   2.98773
 Alpha virt. eigenvalues --    2.98857   2.98944   2.99539   2.99825   3.00011
 Alpha virt. eigenvalues --    3.00017   3.00202   3.00357   3.00443   3.01012
 Alpha virt. eigenvalues --    3.01934   3.01939   3.02020   3.02131   3.02721
 Alpha virt. eigenvalues --    3.02823   3.02958   3.03306   3.03343   3.03725
 Alpha virt. eigenvalues --    3.04077   3.04115   3.04425   3.04453   3.04502
 Alpha virt. eigenvalues --    3.04722   3.05261   3.05397   3.06086   3.06224
 Alpha virt. eigenvalues --    3.06787   3.06975   3.07957   3.08117   3.09382
 Alpha virt. eigenvalues --    3.09412   3.09671   3.10423   3.10433   3.10758
 Alpha virt. eigenvalues --    3.11283   3.11559   3.11930   3.11938   3.12099
 Alpha virt. eigenvalues --    3.12318   3.13267   3.13598   3.13656   3.13721
 Alpha virt. eigenvalues --    3.14078   3.14455   3.15852   3.16020   3.17241
 Alpha virt. eigenvalues --    3.17526   3.17910   3.18048   3.19053   3.19100
 Alpha virt. eigenvalues --    3.22290   3.22582   3.23927   3.24443   3.24658
 Alpha virt. eigenvalues --    3.25186   3.26481   3.26670   3.27410   3.27598
 Alpha virt. eigenvalues --    3.29086   3.29201   3.31392   3.31504   3.33205
 Alpha virt. eigenvalues --    3.33395   3.40229   3.40619   3.42796   3.42843
 Alpha virt. eigenvalues --    3.48641   3.48700   3.50001   3.50301   3.50855
 Alpha virt. eigenvalues --    3.51453   3.56527   3.57026   3.59069   3.59370
 Alpha virt. eigenvalues --    3.62524   3.62818   3.66146   3.66163   3.67173
 Alpha virt. eigenvalues --    3.67518   3.73258   3.73999   3.76043   3.76659
          Condensed to atoms (all electrons):
 Mulliken charges:
               1
     1  Mg   0.838569
     2  C   -0.002903
     3  C   -0.093810
     4  C   -0.046100
     5  C   -0.064099
     6  N   -0.256769
     7  C   -0.052440
     8  C   -0.014028
     9  C   -0.087040
    10  C    0.046295
    11  C    0.104761
    12  C    0.053401
    13  C   -0.071848
    14  H    0.036017
    15  N   -0.433182
    16  C    0.168390
    17  C   -0.176884
    18  C   -0.004012
    19  C    0.148671
    20  C    0.110056
    21  C    0.012136
    22  O   -0.250053
    23  C    0.062462
    24  N   -0.341068
    25  C    0.041240
    26  C   -0.028139
    27  C   -0.023884
    28  C    0.074648
    29  C    0.076164
    30  C    0.035241
    31  C   -0.004388
    32  N   -0.310468
    33  C    0.080303
    34  C   -0.169766
    35  C    0.008438
    36  C    0.082932
    37  C    0.127325
    38  C    0.046157
    39  O   -0.188280
    40  C   -0.005363
    41  C    0.212972
    42  O   -0.257207
    43  O   -0.304734
    44  C    0.157699
    45  H   -0.017313
    46  H   -0.017071
    47  H   -0.041685
    48  H    0.001026
    49  H   -0.003774
    50  H    0.025501
    51  H    0.016435
    52  H    0.016880
    53  H    0.011354
    54  H    0.043975
    55  H    0.017962
    56  H    0.018224
    57  H    0.006110
    58  H    0.026962
    59  H    0.040106
    60  H    0.037597
    61  H    0.035563
    62  H    0.031898
    63  H    0.016021
    64  H    0.009564
    65  H    0.023012
    66  H    0.012817
    67  H    0.004813
    68  H    0.006032
    69  H    0.004781
    70  H    0.008180
    71  H    0.017255
    72  H    0.029388
    73  H    0.047677
    74  H    0.008877
    75  H    0.046093
    76  H    0.035278
    77  H    0.043064
    78  H    0.046458
    79  H    0.053531
    80  Mg   0.838028
    81  C   -0.017006
    82  C   -0.087819
    83  C   -0.045062
    84  C   -0.064601
    85  N   -0.254605
    86  C   -0.049919
    87  C   -0.015083
    88  C   -0.090524
    89  C    0.045888
    90  C    0.114356
    91  C    0.062541
    92  C   -0.077787
    93  H    0.034508
    94  N   -0.423597
    95  C    0.163165
    96  C   -0.174452
    97  C   -0.007471
    98  C    0.152220
    99  C    0.099314
   100  C    0.015732
   101  O   -0.252691
   102  C    0.061191
   103  N   -0.349991
   104  C    0.037950
   105  C   -0.020146
   106  C   -0.034613
   107  C    0.088884
   108  C    0.073109
   109  C    0.034709
   110  C   -0.007615
   111  N   -0.323987
   112  C    0.078334
   113  C   -0.163381
   114  C    0.001945
   115  C    0.096201
   116  C    0.131564
   117  C    0.042018
   118  O   -0.188723
   119  C    0.001029
   120  C    0.211163
   121  O   -0.251077
   122  O   -0.305674
   123  C    0.152129
   124  H   -0.019659
   125  H   -0.015015
   126  H   -0.040736
   127  H   -0.000811
   128  H   -0.004497
   129  H    0.022378
   130  H    0.014881
   131  H    0.016465
   132  H    0.013874
   133  H    0.037519
   134  H    0.020837
   135  H    0.019567
   136  H    0.008635
   137  H    0.026362
   138  H    0.039631
   139  H    0.038348
   140  H    0.036465
   141  H    0.033612
   142  H    0.014193
   143  H    0.012755
   144  H    0.025426
   145  H    0.013146
   146  H    0.006717
   147  H    0.006410
   148  H    0.003215
   149  H    0.011002
   150  H    0.017525
   151  H    0.029960
   152  H    0.045589
   153  H    0.008414
   154  H    0.046379
   155  H    0.034664
   156  H    0.043559
   157  H    0.049578
   158  H    0.053457
 Sum of Mulliken charges =  -0.00000
 Mulliken charges with hydrogens summed into heavy atoms:
               1
     1  Mg   0.838569
     2  C   -0.002903
     3  C   -0.111123
     4  C   -0.063171
     5  C   -0.105785
     6  N   -0.256769
     7  C   -0.052440
     8  C   -0.013002
     9  C   -0.090814
    10  C    0.046295
    11  C    0.163576
    12  C    0.108730
    13  C    0.000355
    15  N   -0.433182
    16  C    0.168390
    17  C   -0.176884
    18  C   -0.004012
    19  C    0.148671
    20  C    0.183234
    21  C    0.012136
    22  O   -0.250053
    23  C    0.167519
    24  N   -0.341068
    25  C    0.041240
    26  C   -0.012118
    27  C   -0.014320
    28  C    0.074648
    29  C    0.116806
    30  C    0.046054
    31  C    0.050434
    32  N   -0.310468
    33  C    0.080303
    34  C   -0.169766
    35  C    0.008438
    36  C    0.082932
    37  C    0.229971
    38  C    0.046157
    39  O   -0.188280
    40  C    0.029915
    41  C    0.212972
    42  O   -0.257207
    43  O   -0.304734
    44  C    0.300753
    80  Mg   0.838028
    81  C   -0.017006
    82  C   -0.107478
    83  C   -0.060077
    84  C   -0.105337
    85  N   -0.254605
    86  C   -0.049919
    87  C   -0.015894
    88  C   -0.095021
    89  C    0.045888
    90  C    0.168081
    91  C    0.113933
    92  C   -0.002876
    94  N   -0.423597
    95  C    0.163165
    96  C   -0.174452
    97  C   -0.007471
    98  C    0.152220
    99  C    0.173942
   100  C    0.015732
   101  O   -0.252691
   102  C    0.169615
   103  N   -0.349991
   104  C    0.037950
   105  C   -0.005953
   106  C   -0.021859
   107  C    0.088884
   108  C    0.118398
   109  C    0.044334
   110  C    0.050873
   111  N   -0.323987
   112  C    0.078334
   113  C   -0.163381
   114  C    0.001945
   115  C    0.096201
   116  C    0.231946
   117  C    0.042018
   118  O   -0.188723
   119  C    0.035693
   120  C    0.211163
   121  O   -0.251077
   122  O   -0.305674
   123  C    0.298723
 Electronic spatial extent (au):  <R**2>=         150960.0943
 Charge=             -0.0000 electrons
 Dipole moment (field-independent basis, Debye):
    X=              3.6261    Y=              3.3278    Z=              0.8271  Tot=              4.9907
 Quadrupole moment (field-independent basis, Debye-Ang):
   XX=           -521.6280   YY=           -536.7463   ZZ=           -460.8252
   XY=             18.3842   XZ=            -57.2821   YZ=             33.5306
 Traceless Quadrupole moment (field-independent basis, Debye-Ang):
   XX=            -15.2282   YY=            -30.3465   ZZ=             45.5747
   XY=             18.3842   XZ=            -57.2821   YZ=             33.5306
 Octapole moment (field-independent basis, Debye-Ang**2):
  XXX=            497.9440  YYY=            166.6776  ZZZ=            187.3350  XYY=           -241.2790
  XXY=            171.2279  XXZ=            100.5218  XZZ=            239.9842  YZZ=            -86.4843
  YYZ=           -275.4113  XYZ=           -197.6799
 Hexadecapole moment (field-independent basis, Debye-Ang**3):
 XXXX=        -141999.8146 YYYY=         -40135.1778 ZZZZ=         -26088.9920 XXXY=            661.8307
 XXXZ=          -3535.1058 YYYX=          -1924.1022 YYYZ=            645.5963 ZZZX=          -1098.0297
 ZZZY=            373.3277 XXYY=         -30365.5128 XXZZ=         -25863.9805 YYZZ=         -10849.1757
 XXYZ=           1461.0079 YYXZ=           -595.8520 ZZXY=            721.4206
 N-N= 1.423695930086D+04 E-N=-3.795487585007D+04  KE= 4.028801877790D+03
 Leave Link  601 at Sat Sep  4 08:51:36 2021, MaxMem= 23488102400 cpu:              17.9 elap:               0.9
 (Enter /sw/apps/gaussian-16.0/g16/l9999.exe)
 1\1\GINC-BP1-COMPUTE00083\SP\RCAM-B3LYP TD-FC\def2SVP\C68H72Mg2N8O8\OF
 15641\04-Sep-2021\0\\#p cam-b3lyp/Def2SVP td=(nstates=5)\\TDDFT excite
 d states in gaussian\\0,1\Mg,0,0.,0.,0.\C,0,-0.217,-2.218,2.801\C,0,-1
 .255,2.442,2.026\C,0,-0.245,1.85,-2.564\C,0,0.146,-2.824,-2.037\N,0,-0
 .617,-0.009,2.126\C,0,-0.594,-0.908,3.105\C,0,-0.936,-0.309,4.502\C,0,
 -1.773,0.964,4.032\C,0,-1.155,1.168,2.66\C,0,-3.263,0.685,3.863\C,0,0.
 345,0.11,5.299\C,0,0.124,0.397,6.787\H,0,1.168,0.033,7.733\N,0,-0.185,
 1.961,-0.152\C,0,-0.703,2.8,0.777\C,0,-0.62,4.156,0.193\C,0,-0.187,4.0
 15,-1.225\C,0,-0.214,2.583,-1.38\C,0,-0.887,5.406,0.974\C,0,0.181,5.01
 3,-2.277\O,0,0.303,4.69,-3.508\C,0,0.31,6.414,-1.837\N,0,-0.265,-0.413
 ,-2.029\C,0,-0.279,0.569,-2.937\C,0,-0.196,0.024,-4.332\C,0,0.124,-1.5
 33,-4.18\C,0,0.086,-1.632,-2.635\C,0,-1.451,0.205,-5.197\C,0,1.373,-2.
 07,-4.923\C,0,2.626,-1.49,-4.306\N,0,0.15,-2.144,0.303\C,0,0.173,-3.13
 6,-0.688\C,0,0.173,-4.438,0.004\C,0,0.133,-4.111,1.358\C,0,0.083,-2.69
 5,1.502\C,0,0.149,-5.715,-0.623\C,0,0.096,-4.629,2.716\O,0,0.208,-5.74
 7,3.221\C,0,-0.255,-3.428,3.701\C,0,0.717,-3.482,4.848\O,0,1.931,-3.25
 5,4.669\O,0,0.038,-3.556,6.003\C,0,0.943,-3.583,7.183\H,0,-1.859,3.22,
 2.497\H,0,-0.218,2.453,-3.474\H,0,0.276,-3.747,-2.605\H,0,-1.554,-0.94
 9,5.132\H,0,-1.585,1.831,4.665\H,0,-3.484,-0.377,3.969\H,0,-3.511,1.02
 7,2.858\H,0,-3.852,1.301,4.543\H,0,0.669,1.096,4.966\H,0,1.13,-0.639,5
 .189\H,0,-0.844,0.026,7.125\H,0,0.062,1.477,6.921\H,0,-1.344,5.186,1.9
 38\H,0,-1.651,5.963,0.432\H,0,0.007,6.02,1.084\H,0,-0.635,6.744,-1.405
 \H,0,0.665,6.97,-2.704\H,0,1.048,6.466,-1.036\H,0,0.608,0.501,-4.891\H
 ,0,-0.692,-2.156,-4.547\H,0,-1.267,0.74,-6.129\H,0,-2.204,0.714,-4.596
 \H,0,-1.967,-0.72,-5.453\H,0,1.356,-1.759,-5.967\H,0,1.452,-3.157,-4.9
 02\H,0,2.714,-0.522,-4.798\H,0,3.487,-2.121,-4.529\H,0,2.495,-1.303,-3
 .24\H,0,0.867,-6.333,-0.084\H,0,0.404,-5.642,-1.68\H,0,-0.891,-5.999,-
 0.463\H,0,-1.283,-3.581,4.028\H,0,0.698,-4.478,7.755\H,0,0.833,-2.619,
 7.68\H,0,2.,-3.754,6.976\Mg,0,13.14625,1.18458,0.99096\C,0,12.67426,4.
 68005,0.32916\C,0,12.56472,0.63118,-2.32418\C,0,13.10961,-1.92548,1.61
 835\C,0,12.55868,1.88407,4.35417\N,0,12.69054,2.5591,-0.68095\C,0,12.5
 9719,3.87248,-0.82467\C,0,12.49107,4.35246,-2.29706\C,0,11.89628,3.009
 15,-2.9456\C,0,12.44318,1.99216,-1.94595\C,0,10.3784,2.94479,-2.91041\
 C,0,13.88924,4.71577,-2.90954\C,0,13.83212,5.48138,-4.23329\H,0,14.849
 8,6.49533,-4.4954\N,0,13.3622,-0.37254,-0.22037\C,0,13.10136,-0.41633,
 -1.54374\C,0,13.40312,-1.79224,-1.96797\C,0,13.70587,-2.60105,-0.75599
 \C,0,13.37679,-1.64863,0.28549\C,0,13.46344,-2.20435,-3.41017\C,0,14.1
 966,-4.00432,-0.56565\O,0,14.1624,-4.58017,0.57892\C,0,14.63138,-4.716
 63,-1.77605\N,0,12.66639,0.09568,2.69577\C,0,12.7856,-1.24345,2.71706\
 C,0,12.65236,-1.78067,4.12206\C,0,12.66009,-0.49674,5.07549\C,0,12.708
 86,0.61414,4.0036\C,0,11.40093,-2.61315,4.40007\C,0,13.71627,-0.47204,
 6.21416\C,0,15.10504,-0.35957,5.62759\N,0,12.87965,2.96481,2.18586\C,0
 ,12.61974,3.03051,3.5723\C,0,12.4016,4.45267,3.90744\C,0,12.52798,5.11
 845,2.67892\C,0,12.7853,4.17544,1.64741\C,0,12.0813,4.96385,5.19671\C,
 0,12.49169,6.40342,2.01845\O,0,12.40022,7.57125,2.39468\C,0,12.45932,6
 .16343,0.44754\C,0,13.47963,7.07168,-0.18221\O,0,14.69205,6.91438,0.04
 562\O,0,12.87682,7.83262,-1.11385\C,0,13.85017,8.74263,-1.77439\H,0,12
 .17408,0.32569,-3.29524\H,0,13.19419,-2.97545,1.90797\H,0,12.46715,2.1
 9485,5.39711\H,0,11.8073,5.17732,-2.45779\H,0,12.30971,2.83158,-3.935\
 H,0,9.95346,3.76202,-2.34675\H,0,10.13479,1.99807,-2.44627\H,0,9.9796,
 2.89323,-3.92757\H,0,14.38286,3.79502,-3.24618\H,0,14.48502,5.25997,-2
 .20277\H,0,12.83081,5.88059,-4.4357\H,0,14.00984,4.77697,-5.04953\H,0,
 13.03329,-1.43738,-4.06601\H,0,12.79598,-3.06528,-3.5249\H,0,14.46895,
 -2.4924,-3.72423\H,0,13.80817,-4.75938,-2.48524\H,0,15.03082,-5.67052,
 -1.42616\H,0,15.42944,-4.1382,-2.25473\H,0,13.49484,-2.41215,4.37615\H
 ,0,11.70463,-0.37845,5.60741\H,0,11.627,-3.629,4.7756\H,0,10.81663,-2.
 66511,3.49098\H,0,10.69722,-2.16886,5.10192\H,0,13.69104,-1.40988,6.77
 45\H,0,13.56523,0.33259,6.92601\H,0,15.34998,-1.39507,5.37296\H,0,15.8
 0008,0.04111,6.36272\H,0,15.09271,0.2153,4.69431\H,0,12.68672,5.84898,
 5.33991\H,0,12.26531,4.22532,5.97419\H,0,11.01477,5.16615,5.06687\H,0,
 11.44793,6.38298,0.10337\H,0,13.46416,9.76032,-1.6605\H,0,13.96454,8.3
 5977,-2.80594\H,0,14.832,8.83737,-1.32552\\Version=ES64L-G16RevA.03\St
 ate=1-A\HF=-4069.8118429\RMSD=7.365e-09\PG=C01 [X(C68H72Mg2N8O8)]\\@


 Once you get people laughing, they're
 listening and you can tell them almost anything.
                                 -- Herb Gardner
 Job cpu time:       0 days 11 hours 57 minutes 25.0 seconds.
 Elapsed time:       0 days  0 hours 30 minutes 28.9 seconds.
 File lengths (MBytes):  RWF=  13225 Int=      0 D2E=      0 Chk=    574 Scr=      1
 Normal termination of Gaussian 16 at Sat Sep  4 08:51:37 2021.
