 Entering Gaussian System, Link 0=g16
 Initial command:
 /sw/apps/gaussian-16.0/g16/l1.exe "/tmp/Gau-105356.inp" -scrdir="/tmp/"
 Entering Link 1 = /sw/apps/gaussian-16.0/g16/l1.exe PID=    105357.
  
 Copyright (c) 1988,1990,1992,1993,1995,1998,2003,2009,2016,
            Gaussian, Inc.  All Rights Reserved.
  
 This is part of the Gaussian(R) 16 program.  It is based on
 the Gaussian(R) 09 system (copyright 2009, Gaussian, Inc.),
 the Gaussian(R) 03 system (copyright 2003, Gaussian, Inc.),
 the Gaussian(R) 98 system (copyright 1998, Gaussian, Inc.),
 the Gaussian(R) 94 system (copyright 1995, Gaussian, Inc.),
 the Gaussian 92(TM) system (copyright 1992, Gaussian, Inc.),
 the Gaussian 90(TM) system (copyright 1990, Gaussian, Inc.),
 the Gaussian 88(TM) system (copyright 1988, Gaussian, Inc.),
 the Gaussian 86(TM) system (copyright 1986, Carnegie Mellon
 University), and the Gaussian 82(TM) system (copyright 1983,
 Carnegie Mellon University). Gaussian is a federally registered
 trademark of Gaussian, Inc.
  
 This software contains proprietary and confidential information,
 including trade secrets, belonging to Gaussian, Inc.
  
 This software is provided under written license and may be
 used, copied, transmitted, or stored only in accord with that
 written license.
  
 The following legend is applicable only to US Government
 contracts under FAR:
  
                    RESTRICTED RIGHTS LEGEND
  
 Use, reproduction and disclosure by the US Government is
 subject to restrictions as set forth in subparagraphs (a)
 and (c) of the Commercial Computer Software - Restricted
 Rights clause in FAR 52.227-19.
  
 Gaussian, Inc.
 340 Quinnipiac St., Bldg. 40, Wallingford CT 06492
  
  
 ---------------------------------------------------------------
 Warning -- This program may not be used in any manner that
 competes with the business of Gaussian, Inc. or will provide
 assistance to any competitor of Gaussian, Inc.  The licensee
 of this program is prohibited from giving any competitor of
 Gaussian, Inc. access to this program.  By using this program,
 the user acknowledges that Gaussian, Inc. is engaged in the
 business of creating and licensing software in the field of
 computational chemistry and represents and warrants to the
 licensee that it is not a competitor of Gaussian, Inc. and that
 it will not use this program in any manner prohibited above.
 ---------------------------------------------------------------
  

 Cite this work as:
 Gaussian 16, Revision A.03,
 M. J. Frisch, G. W. Trucks, H. B. Schlegel, G. E. Scuseria, 
 M. A. Robb, J. R. Cheeseman, G. Scalmani, V. Barone, 
 G. A. Petersson, H. Nakatsuji, X. Li, M. Caricato, A. V. Marenich, 
 J. Bloino, B. G. Janesko, R. Gomperts, B. Mennucci, H. P. Hratchian, 
 J. V. Ortiz, A. F. Izmaylov, J. L. Sonnenberg, D. Williams-Young, 
 F. Ding, F. Lipparini, F. Egidi, J. Goings, B. Peng, A. Petrone, 
 T. Henderson, D. Ranasinghe, V. G. Zakrzewski, J. Gao, N. Rega, 
 G. Zheng, W. Liang, M. Hada, M. Ehara, K. Toyota, R. Fukuda, 
 J. Hasegawa, M. Ishida, T. Nakajima, Y. Honda, O. Kitao, H. Nakai, 
 T. Vreven, K. Throssell, J. A. Montgomery, Jr., J. E. Peralta, 
 F. Ogliaro, M. J. Bearpark, J. J. Heyd, E. N. Brothers, K. N. Kudin, 
 V. N. Staroverov, T. A. Keith, R. Kobayashi, J. Normand, 
 K. Raghavachari, A. P. Rendell, J. C. Burant, S. S. Iyengar, 
 J. Tomasi, M. Cossi, J. M. Millam, M. Klene, C. Adamo, R. Cammi, 
 J. W. Ochterski, R. L. Martin, K. Morokuma, O. Farkas, 
 J. B. Foresman, and D. J. Fox, Gaussian, Inc., Wallingford CT, 2016.
 
 ******************************************
 Gaussian 16:  ES64L-G16RevA.03 25-Dec-2016
                12-Sep-2021 
 ******************************************
 %nproc=24
 Will use up to   24 processors via shared memory.
 %mem=175gb
 -----------------------------------
 #p cam-b3lyp/Def2SVP td=(nstates=5)
 -----------------------------------
 1/38=1,172=1/1;
 2/12=2,17=6,18=5,40=1/2;
 3/5=43,7=101,11=9,25=1,30=1,74=-40/1,2,3,8;
 4//1;
 5/5=2,38=5/2;
 8/6=1,10=1,108=5/1;
 9/41=5,42=1,70=2/14;
 6/7=2,8=2,9=2,10=2/1;
 99/5=1,9=1/99;
 Leave Link    1 at Sun Sep 12 20:49:47 2021, MaxMem= 23488102400 cpu:               0.5 elap:               0.0
 (Enter /sw/apps/gaussian-16.0/g16/l101.exe)
 --------------------------------
 TDDFT excited states in gaussian
 --------------------------------
 Symbolic Z-matrix:
 Charge =  0 Multiplicity = 1
 Mg                    0.        0.        0. 
 C                    -0.217    -2.218     2.801 
 C                    -1.255     2.442     2.026 
 C                    -0.245     1.85     -2.564 
 C                     0.146    -2.824    -2.037 
 N                    -0.617    -0.009     2.126 
 C                    -0.594    -0.908     3.105 
 C                    -0.936    -0.309     4.502 
 C                    -1.773     0.964     4.032 
 C                    -1.155     1.168     2.66 
 C                    -3.263     0.685     3.863 
 C                     0.345     0.11      5.299 
 C                     0.124     0.397     6.787 
 H                     1.168     0.033     7.733 
 N                    -0.185     1.961    -0.152 
 C                    -0.703     2.8       0.777 
 C                    -0.62      4.156     0.193 
 C                    -0.187     4.015    -1.225 
 C                    -0.214     2.583    -1.38 
 C                    -0.887     5.406     0.974 
 C                     0.181     5.013    -2.277 
 O                     0.303     4.69     -3.508 
 C                     0.31      6.414    -1.837 
 N                    -0.265    -0.413    -2.029 
 C                    -0.279     0.569    -2.937 
 C                    -0.196     0.024    -4.332 
 C                     0.124    -1.533    -4.18 
 C                     0.086    -1.632    -2.635 
 C                    -1.451     0.205    -5.197 
 C                     1.373    -2.07     -4.923 
 C                     2.626    -1.49     -4.306 
 N                     0.15     -2.144     0.303 
 C                     0.173    -3.136    -0.688 
 C                     0.173    -4.438     0.004 
 C                     0.133    -4.111     1.358 
 C                     0.083    -2.695     1.502 
 C                     0.149    -5.715    -0.623 
 C                     0.096    -4.629     2.716 
 O                     0.208    -5.747     3.221 
 C                    -0.255    -3.428     3.701 
 C                     0.717    -3.482     4.848 
 O                     1.931    -3.255     4.669 
 O                     0.038    -3.556     6.003 
 C                     0.943    -3.583     7.183 
 H                    -1.859     3.22      2.497 
 H                    -0.218     2.453    -3.474 
 H                     0.276    -3.747    -2.605 
 H                    -1.554    -0.949     5.132 
 H                    -1.585     1.831     4.665 
 H                    -3.484    -0.377     3.969 
 H                    -3.511     1.027     2.858 
 H                    -3.852     1.301     4.543 
 H                     0.669     1.096     4.966 
 H                     1.13     -0.639     5.189 
 H                    -0.844     0.026     7.125 
 H                     0.062     1.477     6.921 
 H                    -1.344     5.186     1.938 
 H                    -1.651     5.963     0.432 
 H                     0.007     6.02      1.084 
 H                    -0.635     6.744    -1.405 
 H                     0.665     6.97     -2.704 
 H                     1.048     6.466    -1.036 
 H                     0.608     0.501    -4.891 
 H                    -0.692    -2.156    -4.547 
 H                    -1.267     0.74     -6.129 
 H                    -2.204     0.714    -4.596 
 H                    -1.967    -0.72     -5.453 
 H                     1.356    -1.759    -5.967 
 H                     1.452    -3.157    -4.902 
 H                     2.714    -0.522    -4.798 
 H                     3.487    -2.121    -4.529 
 H                     2.495    -1.303    -3.24 
 H                     0.867    -6.333    -0.084 
 H                     0.404    -5.642    -1.68 
 H                    -0.891    -5.999    -0.463 
 H                    -1.283    -3.581     4.028 
 H                     0.698    -4.478     7.755 
 H                     0.833    -2.619     7.68 
 H                     2.       -3.754     6.976 
 Mg                    31.53154   2.84752   2.40127 
 C                     33.49429   1.94456   5.26682 
 C                     28.87148   3.17132   4.51168 
 C                     29.67842   3.20531  -0.14929 
 C                     33.99136   1.36932   0.42392 
 N                     31.33382   2.56784   4.58644 
 C                     32.16174   2.28407   5.58061 
 C                     31.5465   2.44708   6.9964 
 C                     29.99881   2.26544   6.6084 
 C                     30.05535   2.72896   5.15423 
 C                     29.53876   0.81727   6.63057 
 C                     31.82263   3.86522   7.60846 
 C                     31.52101   3.99024   9.1035 
 H                     32.37767   4.84866   9.91698 
 N                     29.7072   3.61113   2.23625 
 C                     28.7646   3.68214   3.19944 
 C                     27.59267   4.31025   2.56997 
 C                     27.86312   4.45397   1.11363 
 C                     29.11232   3.72755   1.00455 
 C                     26.40207   4.78043   3.35407 
 C                     27.11408   5.12225   0.00073 
 O                     27.41288   4.91926  -1.22905 
 C                     25.96137   5.94786   0.38946 
 N                     31.68695   2.17535   0.44005 
 C                     30.77058   2.51726  -0.4826 
 C                     31.23328   2.15132  -1.8727 
 C                     32.76225   1.71001  -1.71431 
 C                     32.89874   1.81667  -0.17958 
 C                     30.45018   1.03412  -2.56191 
 C                     33.80283   2.4463   -2.60186 
 C                     33.91206   3.89298  -2.17691 
 N                     33.49158   2.00055   2.73138 
 C                     34.34023   1.41301   1.76771 
 C                     35.51318   0.87784   2.48898 
 C                     35.25256   1.17316   3.8356 
 C                     33.99583   1.82698   3.94796 
 C                     36.6038   0.17802   1.9 
 C                     35.7499   1.07099   5.18871 
 O                     36.8021   0.69146   5.70114 
 C                     34.57528   1.45304   6.18904 
 C                     35.12429   2.41923   7.20274 
 O                     35.50322   3.55179   6.85588 
 O                     34.91033   1.93075   8.43804 
 C                     35.42767   2.85902   9.47847 
 H                     27.9258   3.08051   5.04677 
 H                     29.12981   3.4004   -1.07365 
 H                     34.84778   0.98128  -0.13164 
 H                     31.84239   1.68789   7.71044 
 H                     29.36457   2.92538   7.19457 
 H                     30.36119   0.13566   6.78916 
 H                     29.08048   0.63941   5.66651 
 H                     28.74441   0.68538   7.3708 
 H                     31.08884   4.57685   7.2086 
 H                     32.8321   4.17306   7.4165 
 H                     31.39293   3.0114    9.58142 
 H                     30.54921   4.47559   9.22205 
 H                     26.4163   4.39078   4.37943 
 H                     25.51807   4.31926   2.90049 
 H                     26.28506   5.86601   3.33182 
 H                     25.24606   5.33593   0.93382 
 H                     25.61045   6.41299  -0.53379 
 H                     26.30456   6.72327   1.08341 
 H                     31.18119   3.00653  -2.53527 
 H                     32.90907   0.65033  -1.96996 
 H                     30.02107   1.33823  -3.53528 
 H                     29.67057   0.69942  -1.89056 
 H                     31.01138   0.11823  -2.73913 
 H                     33.47447   2.45293  -3.64412 
 H                     34.7885   1.99369  -2.57763 
 H                     33.07605   4.36746  -2.69943 
 H                     34.86463   4.31398  -2.49221 
 H                     33.7327   4.00173  -1.10096 
 H                     37.50539   0.56895   2.35255 
 H                     36.61621   0.29868   0.81877 
 H                     36.36108  -0.84606   2.19598 
 H                     34.22539   0.52931   6.65152 
 H                     36.12143   2.28603   10.10142 
 H                     34.53313   3.27874   9.97583 
 H                     36.06149   3.67506   9.15166 
 
 ITRead=  0  0  0  0  0  0  0  0  0  0  0  0  0  0  0  0  0  0  0  0
 ITRead=  0  0  0  0  0  0  0  0  0  0  0  0  0  0  0  0  0  0  0  0
 ITRead=  0  0  0  0  0  0  0  0  0  0  0  0  0  0  0  0  0  0  0  0
 ITRead=  0  0  0  0  0  0  0  0  0  0  0  0  0  0  0  0  0  0  0  0
 ITRead=  0  0  0  0  0  0  0  0  0  0  0  0  0  0  0  0  0  0  0  0
 ITRead=  0  0  0  0  0  0  0  0  0  0  0  0  0  0  0  0  0  0  0  0
 ITRead=  0  0  0  0  0  0  0  0  0  0  0  0  0  0  0  0  0  0  0  0
 ITRead=  0  0  0  0  0  0  0  0  0  0  0  0  0  0  0  0  0  0
 MicOpt= -1 -1 -1 -1 -1 -1 -1 -1 -1 -1 -1 -1 -1 -1 -1 -1 -1 -1 -1 -1
 MicOpt= -1 -1 -1 -1 -1 -1 -1 -1 -1 -1 -1 -1 -1 -1 -1 -1 -1 -1 -1 -1
 MicOpt= -1 -1 -1 -1 -1 -1 -1 -1 -1 -1 -1 -1 -1 -1 -1 -1 -1 -1 -1 -1
 MicOpt= -1 -1 -1 -1 -1 -1 -1 -1 -1 -1 -1 -1 -1 -1 -1 -1 -1 -1 -1 -1
 MicOpt= -1 -1 -1 -1 -1 -1 -1 -1 -1 -1 -1 -1 -1 -1 -1 -1 -1 -1 -1 -1
 MicOpt= -1 -1 -1 -1 -1 -1 -1 -1 -1 -1 -1 -1 -1 -1 -1 -1 -1 -1 -1 -1
 MicOpt= -1 -1 -1 -1 -1 -1 -1 -1 -1 -1 -1 -1 -1 -1 -1 -1 -1 -1 -1 -1
 MicOpt= -1 -1 -1 -1 -1 -1 -1 -1 -1 -1 -1 -1 -1 -1 -1 -1 -1 -1
 NAtoms=    158 NQM=      158 NQMF=       0 NMMI=      0 NMMIF=      0
                NMic=       0 NMicF=      0.
                    Isotopes and Nuclear Properties:
 (Nuclear quadrupole moments (NQMom) in fm**2, nuclear magnetic moments (NMagM)
  in nuclear magnetons)

  Atom         1           2           3           4           5           6           7           8           9          10
 IAtWgt=          24          12          12          12          12          14          12          12          12          12
 AtmWgt=  23.9850450  12.0000000  12.0000000  12.0000000  12.0000000  14.0030740  12.0000000  12.0000000  12.0000000  12.0000000
 NucSpn=           0           0           0           0           0           2           0           0           0           0
 AtZEff=  -0.0000000  -0.0000000  -0.0000000  -0.0000000  -0.0000000  -0.0000000  -0.0000000  -0.0000000  -0.0000000  -0.0000000
 NQMom=    0.0000000   0.0000000   0.0000000   0.0000000   0.0000000   2.0440000   0.0000000   0.0000000   0.0000000   0.0000000
 NMagM=    0.0000000   0.0000000   0.0000000   0.0000000   0.0000000   0.4037610   0.0000000   0.0000000   0.0000000   0.0000000
 AtZNuc=  12.0000000   6.0000000   6.0000000   6.0000000   6.0000000   7.0000000   6.0000000   6.0000000   6.0000000   6.0000000

  Atom        11          12          13          14          15          16          17          18          19          20
 IAtWgt=          12          12          12           1          14          12          12          12          12          12
 AtmWgt=  12.0000000  12.0000000  12.0000000   1.0078250  14.0030740  12.0000000  12.0000000  12.0000000  12.0000000  12.0000000
 NucSpn=           0           0           0           1           2           0           0           0           0           0
 AtZEff=  -0.0000000  -0.0000000  -0.0000000  -0.0000000  -0.0000000  -0.0000000  -0.0000000  -0.0000000  -0.0000000  -0.0000000
 NQMom=    0.0000000   0.0000000   0.0000000   0.0000000   2.0440000   0.0000000   0.0000000   0.0000000   0.0000000   0.0000000
 NMagM=    0.0000000   0.0000000   0.0000000   2.7928460   0.4037610   0.0000000   0.0000000   0.0000000   0.0000000   0.0000000
 AtZNuc=   6.0000000   6.0000000   6.0000000   1.0000000   7.0000000   6.0000000   6.0000000   6.0000000   6.0000000   6.0000000

  Atom        21          22          23          24          25          26          27          28          29          30
 IAtWgt=          12          16          12          14          12          12          12          12          12          12
 AtmWgt=  12.0000000  15.9949146  12.0000000  14.0030740  12.0000000  12.0000000  12.0000000  12.0000000  12.0000000  12.0000000
 NucSpn=           0           0           0           2           0           0           0           0           0           0
 AtZEff=  -0.0000000  -0.0000000  -0.0000000  -0.0000000  -0.0000000  -0.0000000  -0.0000000  -0.0000000  -0.0000000  -0.0000000
 NQMom=    0.0000000   0.0000000   0.0000000   2.0440000   0.0000000   0.0000000   0.0000000   0.0000000   0.0000000   0.0000000
 NMagM=    0.0000000   0.0000000   0.0000000   0.4037610   0.0000000   0.0000000   0.0000000   0.0000000   0.0000000   0.0000000
 AtZNuc=   6.0000000   8.0000000   6.0000000   7.0000000   6.0000000   6.0000000   6.0000000   6.0000000   6.0000000   6.0000000

  Atom        31          32          33          34          35          36          37          38          39          40
 IAtWgt=          12          14          12          12          12          12          12          12          16          12
 AtmWgt=  12.0000000  14.0030740  12.0000000  12.0000000  12.0000000  12.0000000  12.0000000  12.0000000  15.9949146  12.0000000
 NucSpn=           0           2           0           0           0           0           0           0           0           0
 AtZEff=  -0.0000000  -0.0000000  -0.0000000  -0.0000000  -0.0000000  -0.0000000  -0.0000000  -0.0000000  -0.0000000  -0.0000000
 NQMom=    0.0000000   2.0440000   0.0000000   0.0000000   0.0000000   0.0000000   0.0000000   0.0000000   0.0000000   0.0000000
 NMagM=    0.0000000   0.4037610   0.0000000   0.0000000   0.0000000   0.0000000   0.0000000   0.0000000   0.0000000   0.0000000
 AtZNuc=   6.0000000   7.0000000   6.0000000   6.0000000   6.0000000   6.0000000   6.0000000   6.0000000   8.0000000   6.0000000

  Atom        41          42          43          44          45          46          47          48          49          50
 IAtWgt=          12          16          16          12           1           1           1           1           1           1
 AtmWgt=  12.0000000  15.9949146  15.9949146  12.0000000   1.0078250   1.0078250   1.0078250   1.0078250   1.0078250   1.0078250
 NucSpn=           0           0           0           0           1           1           1           1           1           1
 AtZEff=  -0.0000000  -0.0000000  -0.0000000  -0.0000000  -0.0000000  -0.0000000  -0.0000000  -0.0000000  -0.0000000  -0.0000000
 NQMom=    0.0000000   0.0000000   0.0000000   0.0000000   0.0000000   0.0000000   0.0000000   0.0000000   0.0000000   0.0000000
 NMagM=    0.0000000   0.0000000   0.0000000   0.0000000   2.7928460   2.7928460   2.7928460   2.7928460   2.7928460   2.7928460
 AtZNuc=   6.0000000   8.0000000   8.0000000   6.0000000   1.0000000   1.0000000   1.0000000   1.0000000   1.0000000   1.0000000

  Atom        51          52          53          54          55          56          57          58          59          60
 IAtWgt=           1           1           1           1           1           1           1           1           1           1
 AtmWgt=   1.0078250   1.0078250   1.0078250   1.0078250   1.0078250   1.0078250   1.0078250   1.0078250   1.0078250   1.0078250
 NucSpn=           1           1           1           1           1           1           1           1           1           1
 AtZEff=  -0.0000000  -0.0000000  -0.0000000  -0.0000000  -0.0000000  -0.0000000  -0.0000000  -0.0000000  -0.0000000  -0.0000000
 NQMom=    0.0000000   0.0000000   0.0000000   0.0000000   0.0000000   0.0000000   0.0000000   0.0000000   0.0000000   0.0000000
 NMagM=    2.7928460   2.7928460   2.7928460   2.7928460   2.7928460   2.7928460   2.7928460   2.7928460   2.7928460   2.7928460
 AtZNuc=   1.0000000   1.0000000   1.0000000   1.0000000   1.0000000   1.0000000   1.0000000   1.0000000   1.0000000   1.0000000

  Atom        61          62          63          64          65          66          67          68          69          70
 IAtWgt=           1           1           1           1           1           1           1           1           1           1
 AtmWgt=   1.0078250   1.0078250   1.0078250   1.0078250   1.0078250   1.0078250   1.0078250   1.0078250   1.0078250   1.0078250
 NucSpn=           1           1           1           1           1           1           1           1           1           1
 AtZEff=  -0.0000000  -0.0000000  -0.0000000  -0.0000000  -0.0000000  -0.0000000  -0.0000000  -0.0000000  -0.0000000  -0.0000000
 NQMom=    0.0000000   0.0000000   0.0000000   0.0000000   0.0000000   0.0000000   0.0000000   0.0000000   0.0000000   0.0000000
 NMagM=    2.7928460   2.7928460   2.7928460   2.7928460   2.7928460   2.7928460   2.7928460   2.7928460   2.7928460   2.7928460
 AtZNuc=   1.0000000   1.0000000   1.0000000   1.0000000   1.0000000   1.0000000   1.0000000   1.0000000   1.0000000   1.0000000

  Atom        71          72          73          74          75          76          77          78          79          80
 IAtWgt=           1           1           1           1           1           1           1           1           1          24
 AtmWgt=   1.0078250   1.0078250   1.0078250   1.0078250   1.0078250   1.0078250   1.0078250   1.0078250   1.0078250  23.9850450
 NucSpn=           1           1           1           1           1           1           1           1           1           0
 AtZEff=  -0.0000000  -0.0000000  -0.0000000  -0.0000000  -0.0000000  -0.0000000  -0.0000000  -0.0000000  -0.0000000  -0.0000000
 NQMom=    0.0000000   0.0000000   0.0000000   0.0000000   0.0000000   0.0000000   0.0000000   0.0000000   0.0000000   0.0000000
 NMagM=    2.7928460   2.7928460   2.7928460   2.7928460   2.7928460   2.7928460   2.7928460   2.7928460   2.7928460   0.0000000
 AtZNuc=   1.0000000   1.0000000   1.0000000   1.0000000   1.0000000   1.0000000   1.0000000   1.0000000   1.0000000  12.0000000

  Atom        81          82          83          84          85          86          87          88          89          90
 IAtWgt=          12          12          12          12          14          12          12          12          12          12
 AtmWgt=  12.0000000  12.0000000  12.0000000  12.0000000  14.0030740  12.0000000  12.0000000  12.0000000  12.0000000  12.0000000
 NucSpn=           0           0           0           0           2           0           0           0           0           0
 AtZEff=  -0.0000000  -0.0000000  -0.0000000  -0.0000000  -0.0000000  -0.0000000  -0.0000000  -0.0000000  -0.0000000  -0.0000000
 NQMom=    0.0000000   0.0000000   0.0000000   0.0000000   2.0440000   0.0000000   0.0000000   0.0000000   0.0000000   0.0000000
 NMagM=    0.0000000   0.0000000   0.0000000   0.0000000   0.4037610   0.0000000   0.0000000   0.0000000   0.0000000   0.0000000
 AtZNuc=   6.0000000   6.0000000   6.0000000   6.0000000   7.0000000   6.0000000   6.0000000   6.0000000   6.0000000   6.0000000

  Atom        91          92          93          94          95          96          97          98          99         100
 IAtWgt=          12          12           1          14          12          12          12          12          12          12
 AtmWgt=  12.0000000  12.0000000   1.0078250  14.0030740  12.0000000  12.0000000  12.0000000  12.0000000  12.0000000  12.0000000
 NucSpn=           0           0           1           2           0           0           0           0           0           0
 AtZEff=  -0.0000000  -0.0000000  -0.0000000  -0.0000000  -0.0000000  -0.0000000  -0.0000000  -0.0000000  -0.0000000  -0.0000000
 NQMom=    0.0000000   0.0000000   0.0000000   2.0440000   0.0000000   0.0000000   0.0000000   0.0000000   0.0000000   0.0000000
 NMagM=    0.0000000   0.0000000   2.7928460   0.4037610   0.0000000   0.0000000   0.0000000   0.0000000   0.0000000   0.0000000
 AtZNuc=   6.0000000   6.0000000   1.0000000   7.0000000   6.0000000   6.0000000   6.0000000   6.0000000   6.0000000   6.0000000

  Atom       101         102         103         104         105         106         107         108         109         110
 IAtWgt=          16          12          14          12          12          12          12          12          12          12
 AtmWgt=  15.9949146  12.0000000  14.0030740  12.0000000  12.0000000  12.0000000  12.0000000  12.0000000  12.0000000  12.0000000
 NucSpn=           0           0           2           0           0           0           0           0           0           0
 AtZEff=  -0.0000000  -0.0000000  -0.0000000  -0.0000000  -0.0000000  -0.0000000  -0.0000000  -0.0000000  -0.0000000  -0.0000000
 NQMom=    0.0000000   0.0000000   2.0440000   0.0000000   0.0000000   0.0000000   0.0000000   0.0000000   0.0000000   0.0000000
 NMagM=    0.0000000   0.0000000   0.4037610   0.0000000   0.0000000   0.0000000   0.0000000   0.0000000   0.0000000   0.0000000
 AtZNuc=   8.0000000   6.0000000   7.0000000   6.0000000   6.0000000   6.0000000   6.0000000   6.0000000   6.0000000   6.0000000

  Atom       111         112         113         114         115         116         117         118         119         120
 IAtWgt=          14          12          12          12          12          12          12          16          12          12
 AtmWgt=  14.0030740  12.0000000  12.0000000  12.0000000  12.0000000  12.0000000  12.0000000  15.9949146  12.0000000  12.0000000
 NucSpn=           2           0           0           0           0           0           0           0           0           0
 AtZEff=  -0.0000000  -0.0000000  -0.0000000  -0.0000000  -0.0000000  -0.0000000  -0.0000000  -0.0000000  -0.0000000  -0.0000000
 NQMom=    2.0440000   0.0000000   0.0000000   0.0000000   0.0000000   0.0000000   0.0000000   0.0000000   0.0000000   0.0000000
 NMagM=    0.4037610   0.0000000   0.0000000   0.0000000   0.0000000   0.0000000   0.0000000   0.0000000   0.0000000   0.0000000
 AtZNuc=   7.0000000   6.0000000   6.0000000   6.0000000   6.0000000   6.0000000   6.0000000   8.0000000   6.0000000   6.0000000

  Atom       121         122         123         124         125         126         127         128         129         130
 IAtWgt=          16          16          12           1           1           1           1           1           1           1
 AtmWgt=  15.9949146  15.9949146  12.0000000   1.0078250   1.0078250   1.0078250   1.0078250   1.0078250   1.0078250   1.0078250
 NucSpn=           0           0           0           1           1           1           1           1           1           1
 AtZEff=  -0.0000000  -0.0000000  -0.0000000  -0.0000000  -0.0000000  -0.0000000  -0.0000000  -0.0000000  -0.0000000  -0.0000000
 NQMom=    0.0000000   0.0000000   0.0000000   0.0000000   0.0000000   0.0000000   0.0000000   0.0000000   0.0000000   0.0000000
 NMagM=    0.0000000   0.0000000   0.0000000   2.7928460   2.7928460   2.7928460   2.7928460   2.7928460   2.7928460   2.7928460
 AtZNuc=   8.0000000   8.0000000   6.0000000   1.0000000   1.0000000   1.0000000   1.0000000   1.0000000   1.0000000   1.0000000

  Atom       131         132         133         134         135         136         137         138         139         140
 IAtWgt=           1           1           1           1           1           1           1           1           1           1
 AtmWgt=   1.0078250   1.0078250   1.0078250   1.0078250   1.0078250   1.0078250   1.0078250   1.0078250   1.0078250   1.0078250
 NucSpn=           1           1           1           1           1           1           1           1           1           1
 AtZEff=  -0.0000000  -0.0000000  -0.0000000  -0.0000000  -0.0000000  -0.0000000  -0.0000000  -0.0000000  -0.0000000  -0.0000000
 NQMom=    0.0000000   0.0000000   0.0000000   0.0000000   0.0000000   0.0000000   0.0000000   0.0000000   0.0000000   0.0000000
 NMagM=    2.7928460   2.7928460   2.7928460   2.7928460   2.7928460   2.7928460   2.7928460   2.7928460   2.7928460   2.7928460
 AtZNuc=   1.0000000   1.0000000   1.0000000   1.0000000   1.0000000   1.0000000   1.0000000   1.0000000   1.0000000   1.0000000

  Atom       141         142         143         144         145         146         147         148         149         150
 IAtWgt=           1           1           1           1           1           1           1           1           1           1
 AtmWgt=   1.0078250   1.0078250   1.0078250   1.0078250   1.0078250   1.0078250   1.0078250   1.0078250   1.0078250   1.0078250
 NucSpn=           1           1           1           1           1           1           1           1           1           1
 AtZEff=  -0.0000000  -0.0000000  -0.0000000  -0.0000000  -0.0000000  -0.0000000  -0.0000000  -0.0000000  -0.0000000  -0.0000000
 NQMom=    0.0000000   0.0000000   0.0000000   0.0000000   0.0000000   0.0000000   0.0000000   0.0000000   0.0000000   0.0000000
 NMagM=    2.7928460   2.7928460   2.7928460   2.7928460   2.7928460   2.7928460   2.7928460   2.7928460   2.7928460   2.7928460
 AtZNuc=   1.0000000   1.0000000   1.0000000   1.0000000   1.0000000   1.0000000   1.0000000   1.0000000   1.0000000   1.0000000

  Atom       151         152         153         154         155         156         157         158
 IAtWgt=           1           1           1           1           1           1           1           1
 AtmWgt=   1.0078250   1.0078250   1.0078250   1.0078250   1.0078250   1.0078250   1.0078250   1.0078250
 NucSpn=           1           1           1           1           1           1           1           1
 AtZEff=  -0.0000000  -0.0000000  -0.0000000  -0.0000000  -0.0000000  -0.0000000  -0.0000000  -0.0000000
 NQMom=    0.0000000   0.0000000   0.0000000   0.0000000   0.0000000   0.0000000   0.0000000   0.0000000
 NMagM=    2.7928460   2.7928460   2.7928460   2.7928460   2.7928460   2.7928460   2.7928460   2.7928460
 AtZNuc=   1.0000000   1.0000000   1.0000000   1.0000000   1.0000000   1.0000000   1.0000000   1.0000000
 Leave Link  101 at Sun Sep 12 20:49:47 2021, MaxMem= 23488102400 cpu:               3.2 elap:               0.2
 (Enter /sw/apps/gaussian-16.0/g16/l202.exe)
 Stoichiometry    C68H72Mg2N8O8
 Framework group  C1[X(C68H72Mg2N8O8)]
 Deg. of freedom   468
 Full point group                 C1      NOp   1
 Largest Abelian subgroup         C1      NOp   1
 Largest concise Abelian subgroup C1      NOp   1
                         Standard orientation:                         
 ---------------------------------------------------------------------
 Center     Atomic      Atomic             Coordinates (Angstroms)
 Number     Number       Type             X           Y           Z
 ---------------------------------------------------------------------
      1         12           0       16.012774   -0.633422    0.100994
      2          6           0       16.194104    2.654429   -1.302349
      3          6           0       16.881461    0.757335    3.093358
      4          6           0       16.302986   -3.571442    1.258766
      5          6           0       16.279380   -1.873538   -3.145033
      6          7           0       16.453523    1.453373    0.694016
      7          6           0       16.429548    2.629078    0.074084
      8          6           0       16.603458    3.839936    1.038943
      9          6           0       17.361704    3.103706    2.232687
     10          6           0       16.841737    1.693294    2.017517
     11          6           0       18.879136    3.096676    2.078241
     12          6           0       15.230338    4.427901    1.508591
     13          6           0       15.303915    5.800597    2.183608
     14          1           0       14.222258    6.748510    1.962643
     15          7           0       16.037871   -1.277980    1.968282
     16          6           0       16.403613   -0.570704    3.064311
     17          6           0       16.250433   -1.489979    4.212419
     18          6           0       15.947955   -2.844924    3.673230
     19          6           0       16.112169   -2.621618    2.259531
     20          6           0       16.343155   -1.046032    5.640026
     21          6           0       15.581014   -4.138614    4.328862
     22          8           0       15.588000   -5.248628    3.694517
     23          6           0       15.295085   -4.084814    5.773989
     24          7           0       16.476651   -2.467810   -0.780751
     25          6           0       16.478690   -3.597080   -0.064002
     26          6           0       16.557067   -4.805479   -0.949195
     27          6           0       16.362717   -4.273230   -2.442075
     28          6           0       16.283614   -2.755774   -2.143180
     29          6           0       17.857595   -5.616015   -0.861625
     30          6           0       15.229754   -4.920469   -3.277477
     31          6           0       13.885018   -4.546224   -2.695476
     32          7           0       16.026117    0.206133   -1.900509
     33          6           0       16.170222   -0.493489   -3.107339
     34          6           0       16.227516    0.511262   -4.184957
     35          6           0       16.128777    1.734234   -3.524324
     36          6           0       16.043303    1.508789   -2.120699
     37          6           0       16.413569    0.239124   -5.569066
     38          6           0       16.100388    3.179956   -3.675776
     39          8           0       16.045626    3.950421   -4.635399
     40          6           0       16.264217    3.838011   -2.234959
     41          6           0       15.210704    4.903397   -2.099423
     42          8           0       14.000099    4.603856   -2.053862
     43          8           0       15.797527    6.074302   -1.807594
     44          6           0       14.805503    7.168265   -1.630713
     45          1           0       17.375099    1.043654    4.024102
     46          1           0       16.297515   -4.606686    1.606153
     47          1           0       16.276883   -2.189202   -4.189927
     48          1           0       17.221683    4.647956    0.647375
     49          1           0       17.048069    3.478720    3.206710
     50          1           0       19.182522    3.486596    1.106727
     51          1           0       19.177170    2.052925    2.179492
     52          1           0       19.355029    3.625666    2.904360
     53          1           0       14.849743    3.833037    2.338859
     54          1           0       14.525147    4.471979    0.677876
     55          1           0       16.269912    6.276973    2.013834
     56          1           0       15.260455    5.653290    3.262780
     57          1           0       16.737795   -0.033891    5.719862
     58          1           0       17.097177   -1.670158    6.119219
     59          1           0       15.393070   -1.149301    6.164437
     60          1           0       16.169511   -3.700826    6.299804
     61          1           0       14.964555   -5.084815    6.052555
     62          1           0       14.492763   -3.367387    5.948707
     63          1           0       15.762609   -5.513220   -0.716032
     64          1           0       17.257011   -4.419798   -3.048235
     65          1           0       17.703956   -6.663650   -0.601701
     66          1           0       18.512062   -5.126256   -0.141139
     67          1           0       18.471336   -5.594096   -1.761769
     68          1           0       15.304303   -6.006745   -3.240169
     69          1           0       15.244358   -4.622853   -4.326029
     70          1           0       13.753223   -5.276487   -1.897869
     71          1           0       13.103259   -4.645953   -3.449212
     72          1           0       13.912221   -3.559537   -2.232664
     73          1           0       15.710780    0.878752   -6.102857
     74          1           0       16.239855   -0.813245   -5.792552
     75          1           0       17.457925    0.525362   -5.692538
     76          1           0       17.271679    4.250632   -2.191518
     77          1           0       15.080321    7.965546   -2.321403
     78          1           0       14.790335    7.403721   -0.566413
     79          1           0       13.787745    6.953714   -1.958547
     80         12           0      -15.737417   -0.825254    0.132508
     81          6           0      -17.840181    2.061635   -0.218716
     82          6           0      -13.295900    1.274845    1.256417
     83          6           0      -13.721562   -3.273253    0.027366
     84          6           0      -17.890304   -2.486553   -2.047141
     85          7           0      -15.694174    1.365243    0.436048
     86          6           0      -16.572195    2.350923    0.327126
     87          6           0      -16.090514    3.708255    0.906079
     88          6           0      -14.506506    3.468066    0.796044
     89          6           0      -14.484960    1.942646    0.868756
     90          6           0      -13.925304    3.890682   -0.542960
     91          6           0      -16.537991    3.915254    2.395677
     92          6           0      -16.370821    5.341253    2.925141
     93          1           0      -17.362263    5.854995    3.866211
     94          7           0      -13.979228   -1.079982    1.017059
     95          6           0      -13.127746   -0.116823    1.427638
     96          6           0      -11.967794   -0.820837    1.996014
     97          6           0      -12.130583   -2.277443    1.738091
     98          6           0      -13.298712   -2.264373    0.880542
     99          6           0      -10.890328   -0.119924    2.771384
    100          6           0      -11.354754   -3.481708    2.178591
    101          8           0      -11.533869   -4.631576    1.641408
    102          6           0      -10.313783   -3.256272    3.192022
    103          7           0      -15.673871   -2.550686   -1.025592
    104          6           0      -14.718905   -3.477519   -0.833392
    105          6           0      -15.033530   -4.748915   -1.585020
    106          6           0      -16.526008   -4.567564   -2.130193
    107          6           0      -16.795450   -3.123115   -1.654410
    108          6           0      -14.102660   -5.079878   -2.751354
    109          6           0      -17.551282   -5.672578   -1.755452
    110          6           0      -17.820341   -5.644023   -0.268109
    111          7           0      -17.636481   -0.397351   -0.804800
    112          6           0      -18.349620   -1.221794   -1.702461
    113          6           0      -19.526140   -0.453420   -2.158367
    114          6           0      -19.402470    0.783025   -1.506883
    115          6           0      -18.220803    0.792361   -0.717547
    116          6           0      -20.500166   -0.901061   -3.094844
    117          6           0      -19.997242    2.086255   -1.315752
    118          8           0      -21.050479    2.619694   -1.661996
    119          6           0      -18.945519    3.017604   -0.572231
    120          6           0      -19.657154    3.713714    0.555390
    121          8           0      -20.103938    3.064410    1.517357
    122          8           0      -19.502453    5.043406    0.419947
    123          6           0      -20.181508    5.776896    1.521172
    124          1           0      -12.392491    1.867362    1.403570
    125          1           0      -13.118801   -4.184303    0.039263
    126          1           0      -18.661688   -2.969660   -2.650674
    127          1           0      -16.376107    4.576936    0.325043
    128          1           0      -13.981905    3.897733    1.645489
    129          1           0      -14.695344    4.174158   -1.244968
    130          1           0      -13.376498    3.032972   -0.909311
    131          1           0      -13.185225    4.683152   -0.399425
    132          1           0      -15.838985    3.386395    3.056321
    133          1           0      -17.551517    3.593734    2.537219
    134          1           0      -16.197143    6.062999    2.117764
    135          1           0      -15.457873    5.384248    3.524050
    136          1           0      -10.953758    0.968925    2.654009
    137          1           0       -9.935593   -0.388109    2.306168
    138          1           0      -10.866968   -0.416245    3.822249
    139          1           0       -9.594434   -2.532643    2.816056
    140          1           0       -9.930933   -4.247349    3.443166
    141          1           0      -10.778470   -2.807453    4.077027
    142          1           0      -15.002551   -5.606540   -0.924250
    143          1           0      -16.558656   -4.547576   -3.229452
    144          1           0      -13.624071   -6.073149   -2.659528
    145          1           0      -13.353945   -4.302070   -2.821837
    146          1           0      -14.565640   -5.044792   -3.736050
    147          1           0      -17.141202   -6.660803   -1.977747
    148          1           0      -18.492449   -5.587174   -2.288273
    149          1           0      -16.989211   -6.223934    0.144198
    150          1           0      -18.777219   -6.110609   -0.042887
    151          1           0      -17.739110   -4.624744    0.127032
    152          1           0      -21.466160   -0.616646   -2.699298
    153          1           0      -20.435204   -1.975539   -3.253110
    154          1           0      -20.193947   -0.336578   -3.979630
    155          1           0      -18.555161    3.722619   -1.307187
    156          1           0      -20.870970    6.487159    1.054421
    157          1           0      -19.370311    6.197813    2.144487
    158          1           0      -20.855406    5.214681    2.156963
 ---------------------------------------------------------------------
 Rotational constants (GHZ):           0.0247681           0.0015930           0.0015571
 Leave Link  202 at Sun Sep 12 20:49:47 2021, MaxMem= 23488102400 cpu:               0.2 elap:               0.0
 (Enter /sw/apps/gaussian-16.0/g16/l301.exe)
 Standard basis: def2SVP (5D, 7F)
 Ernie: Thresh=  0.10000D-02 Tol=  0.10000D-05 Strict=F.
 There are  1658 symmetry adapted cartesian basis functions of A   symmetry.
 There are  1572 symmetry adapted basis functions of A   symmetry.
  1572 basis functions,  2678 primitive gaussians,  1658 cartesian basis functions
   312 alpha electrons      312 beta electrons
       nuclear repulsion energy     12302.9549417242 Hartrees.
 IExCor=20419 DFT=T Ex+Corr=CAM-B3LYP ExCW=0 ScaHFX=  1.000000
 ScaDFX=  1.000000  1.000000  1.000000  0.810000 ScalE2=  1.000000  1.000000
 IRadAn=      5 IRanWt=     -1 IRanGd=            0 ICorTp=0 IEmpDi=  4
 HFx  wShort=  0.000000 wLong=  0.330000 cFull=  0.190000 cShort=  0.000000 cLong=  0.460000
 DFx  wShort=  0.000000 wLong=  0.330000 cFull=  0.190000 cShort=  0.000000 cLong=  0.460000
 NAtoms=  158 NActive=  158 NUniq=  158 SFac= 1.00D+00 NAtFMM=   60 NAOKFM=T Big=T
 Integral buffers will be    131072 words long.
 Raffenetti 1 integral format.
 Two-electron integral symmetry is turned on.
 Leave Link  301 at Sun Sep 12 20:49:47 2021, MaxMem= 23488102400 cpu:               1.3 elap:               0.1
 (Enter /sw/apps/gaussian-16.0/g16/l302.exe)
 NPDir=0 NMtPBC=     1 NCelOv=     1 NCel=       1 NClECP=     1 NCelD=      1
         NCelK=      1 NCelE2=     1 NClLst=     1 CellRange=     0.0.
 One-electron integrals computed using PRISM.
 One-electron integral symmetry used in STVInt
   1 Symmetry operations used in ECPInt.
 ECPInt:  NShTT=  271216 NPrTT=  987664 LenC2=  103957 LenP2D=  239866.
 LDataN:  DoStor=T MaxTD1= 4 Len=   56
 NBasis=  1572 RedAO= T EigKep=  3.36D-04  NBF=  1572
 NBsUse=  1572 1.00D-06 EigRej= -1.00D+00 NBFU=  1572
 Precomputing XC quadrature grid using
 IXCGrd= 4 IRadAn=           5 IRanWt=          -1 IRanGd=           0 AccXCQ= 0.00D+00.
 Generated NRdTot=       0 NPtTot=           0 NUsed=           0 NTot=          32
 NSgBfM=   812   812   812   812   812 MxSgAt=   158 MxSgA2=    79.
 Leave Link  302 at Sun Sep 12 20:49:51 2021, MaxMem= 23488102400 cpu:              95.1 elap:               4.0
 (Enter /sw/apps/gaussian-16.0/g16/l303.exe)
 DipDrv:  MaxL=1.
 Leave Link  303 at Sun Sep 12 20:49:52 2021, MaxMem= 23488102400 cpu:               8.9 elap:               0.4
 (Enter /sw/apps/gaussian-16.0/g16/l308.exe)
 Leave Link  308 at Sun Sep 12 20:49:53 2021, MaxMem= 23488102400 cpu:              15.0 elap:               0.7
 (Enter /sw/apps/gaussian-16.0/g16/l401.exe)
 ExpMin= 3.36D-02 ExpMax= 4.95D+03 ExpMxC= 7.45D+02 IAcc=3 IRadAn=         5 AccDes= 0.00D+00
 Harris functional with IExCor=20419 and IRadAn=       5 diagonalized for initial guess.
 HarFok:  IExCor=20419 AccDes= 0.00D+00 IRadAn=         5 IDoV= 1 UseB2=F ITyADJ=14
 ICtDFT=  3500011 ScaDFX=  1.000000  1.000000  1.000000  1.000000
 FoFCou: FMM=F IPFlag=           0 FMFlag=      100000 FMFlg1=        2001
         NFxFlg=           0 DoJE=T BraDBF=F KetDBF=T FulRan=T
         wScrn=  0.000000 ICntrl=       500 IOpCl=  0 I1Cent=   200000004 NGrid=           0
         NMat0=    1 NMatS0=      1 NMatT0=    0 NMatD0=    1 NMtDS0=    0 NMtDT0=    0
 Petite list used in FoFCou.
 Harris En= -3918.65801037443    
 JPrj=0 DoOrth=F DoCkMO=F.
 Leave Link  401 at Sun Sep 12 20:49:59 2021, MaxMem= 23488102400 cpu:             159.8 elap:               6.7
 (Enter /sw/apps/gaussian-16.0/g16/l502.exe)
 Integral symmetry usage will be decided dynamically.
 Closed shell SCF:
 Using DIIS extrapolation, IDIIS=  1040.
 NGot= 23488102400 LenX= 23482547354 LenY= 23479796732
 Requested convergence on RMS density matrix=1.00D-08 within 128 cycles.
 Requested convergence on MAX density matrix=1.00D-06.
 Requested convergence on             energy=1.00D-06.
 No special actions if energy rises.
 Fock matrices will be formed incrementally for  20 cycles.

 Cycle   1  Pass 1  IDiag  1:
 FoFJK:  IHMeth= 1 ICntrl=       0 DoSepK=T KAlg= 0 I1Cent=           0 FoldK=F
 IRaf=         1 NMat=       1 IRICut=       1 DoRegI=T DoRafI=F ISym2E= 0 IDoP0=0 IntGTp=1.
 FoFCou: FMM=T IPFlag=           0 FMFlag=      100000 FMFlg1=        2001
         NFxFlg=           0 DoJE=T BraDBF=F KetDBF=F FulRan=T
         wScrn=  0.000000 ICntrl=       500 IOpCl=  0 I1Cent=           0 NGrid=           0
         NMat0=    1 NMatS0=      1 NMatT0=    0 NMatD0=    1 NMtDS0=    0 NMtDT0=    0
 Symmetry not used in FoFCou.
 FMM levels:  10  Number of levels for PrismC:   9
 E= -4068.94929785935    
 DIIS: error= 2.04D-02 at cycle   1 NSaved=   1.
 NSaved= 1 IEnMin= 1 EnMin= -4068.94929785935     IErMin= 1 ErrMin= 2.04D-02
 ErrMax= 2.04D-02  0.00D+00 EMaxC= 1.00D-01 BMatC= 1.69D+00 BMatP= 1.69D+00
 IDIUse=3 WtCom= 7.96D-01 WtEn= 2.04D-01
 Coeff-Com:  0.100D+01
 Coeff-En:   0.100D+01
 Coeff:      0.100D+01
 Gap=     0.120 Goal=   None    Shift=    0.000
 GapD=    0.120 DampG=1.000 DampE=0.500 DampFc=0.5000 IDamp=-1.
 Damping current iteration by 5.00D-01
 RMSDP=1.57D-03 MaxDP=1.35D-01              OVMax= 2.03D-01

 Cycle   2  Pass 1  IDiag  1:
 RMSU=  7.69D-04    CP:  9.82D-01
 E= -4069.33821497645     Delta-E=       -0.388917117098 Rises=F Damp=T
 DIIS: error= 1.27D-02 at cycle   2 NSaved=   2.
 NSaved= 2 IEnMin= 2 EnMin= -4069.33821497645     IErMin= 2 ErrMin= 1.27D-02
 ErrMax= 1.27D-02  0.00D+00 EMaxC= 1.00D-01 BMatC= 3.07D-01 BMatP= 1.69D+00
 IDIUse=3 WtCom= 8.73D-01 WtEn= 1.27D-01
 Coeff-Com: -0.213D+00 0.121D+01
 Coeff-En:   0.000D+00 0.100D+01
 Coeff:     -0.186D+00 0.119D+01
 Gap=     0.137 Goal=   None    Shift=    0.000
 RMSDP=7.65D-04 MaxDP=9.43D-02 DE=-3.89D-01 OVMax= 1.88D-01

 Cycle   3  Pass 1  IDiag  1:
 RMSU=  7.32D-04    CP:  9.68D-01  1.24D+00
 E= -4069.62802346069     Delta-E=       -0.289808484238 Rises=F Damp=F
 DIIS: error= 1.58D-02 at cycle   3 NSaved=   3.
 NSaved= 3 IEnMin= 3 EnMin= -4069.62802346069     IErMin= 2 ErrMin= 1.27D-02
 ErrMax= 1.58D-02  0.00D+00 EMaxC= 1.00D-01 BMatC= 2.02D-01 BMatP= 3.07D-01
 IDIUse=3 WtCom= 8.42D-01 WtEn= 1.58D-01
 Coeff-Com: -0.267D+00 0.652D+00 0.616D+00
 Coeff-En:   0.000D+00 0.000D+00 0.100D+01
 Coeff:     -0.225D+00 0.549D+00 0.676D+00
 Gap=     0.125 Goal=   None    Shift=    0.000
 RMSDP=5.08D-04 MaxDP=4.77D-02 DE=-2.90D-01 OVMax= 1.42D-01

 Cycle   4  Pass 1  IDiag  1:
 RMSU=  2.65D-04    CP:  9.65D-01  1.55D+00  5.06D-01
 E= -4069.76513367191     Delta-E=       -0.137110211224 Rises=F Damp=F
 DIIS: error= 7.31D-03 at cycle   4 NSaved=   4.
 NSaved= 4 IEnMin= 4 EnMin= -4069.76513367191     IErMin= 4 ErrMin= 7.31D-03
 ErrMax= 7.31D-03  0.00D+00 EMaxC= 1.00D-01 BMatC= 5.03D-02 BMatP= 2.02D-01
 IDIUse=3 WtCom= 9.27D-01 WtEn= 7.31D-02
 Coeff-Com: -0.109D+00 0.226D+00 0.409D+00 0.474D+00
 Coeff-En:   0.000D+00 0.000D+00 0.221D+00 0.779D+00
 Coeff:     -0.101D+00 0.209D+00 0.395D+00 0.497D+00
 Gap=     0.123 Goal=   None    Shift=    0.000
 RMSDP=2.00D-04 MaxDP=2.07D-02 DE=-1.37D-01 OVMax= 6.16D-02

 Cycle   5  Pass 1  IDiag  1:
 RMSU=  7.57D-05    CP:  9.64D-01  1.49D+00  6.89D-01  5.50D-01
 E= -4069.81055010502     Delta-E=       -0.045416433106 Rises=F Damp=F
 DIIS: error= 7.87D-04 at cycle   5 NSaved=   5.
 NSaved= 5 IEnMin= 5 EnMin= -4069.81055010502     IErMin= 5 ErrMin= 7.87D-04
 ErrMax= 7.87D-04  0.00D+00 EMaxC= 1.00D-01 BMatC= 1.16D-03 BMatP= 5.03D-02
 IDIUse=3 WtCom= 9.92D-01 WtEn= 7.87D-03
 Coeff-Com: -0.357D-01 0.701D-01 0.165D+00 0.249D+00 0.552D+00
 Coeff-En:   0.000D+00 0.000D+00 0.000D+00 0.000D+00 0.100D+01
 Coeff:     -0.354D-01 0.695D-01 0.164D+00 0.247D+00 0.555D+00
 Gap=     0.123 Goal=   None    Shift=    0.000
 RMSDP=4.06D-05 MaxDP=4.16D-03 DE=-4.54D-02 OVMax= 1.63D-02

 Cycle   6  Pass 1  IDiag  1:
 RMSU=  3.01D-05    CP:  9.64D-01  1.49D+00  6.81D-01  6.21D-01  7.60D-01
 E= -4069.81155293675     Delta-E=       -0.001002831730 Rises=F Damp=F
 DIIS: error= 2.19D-04 at cycle   6 NSaved=   6.
 NSaved= 6 IEnMin= 6 EnMin= -4069.81155293675     IErMin= 6 ErrMin= 2.19D-04
 ErrMax= 2.19D-04  0.00D+00 EMaxC= 1.00D-01 BMatC= 1.75D-04 BMatP= 1.16D-03
 IDIUse=3 WtCom= 9.98D-01 WtEn= 2.19D-03
 Coeff-Com:  0.232D-02-0.680D-02 0.108D-01 0.397D-01 0.306D+00 0.648D+00
 Coeff-En:   0.000D+00 0.000D+00 0.000D+00 0.000D+00 0.102D+00 0.898D+00
 Coeff:      0.232D-02-0.678D-02 0.108D-01 0.396D-01 0.306D+00 0.648D+00
 Gap=     0.123 Goal=   None    Shift=    0.000
 RMSDP=1.58D-05 MaxDP=1.23D-03 DE=-1.00D-03 OVMax= 7.22D-03

 Cycle   7  Pass 1  IDiag  1:
 RMSU=  1.06D-05    CP:  9.64D-01  1.50D+00  6.87D-01  6.21D-01  8.60D-01
                    CP:  7.50D-01
 E= -4069.81174080605     Delta-E=       -0.000187869304 Rises=F Damp=F
 DIIS: error= 8.32D-05 at cycle   7 NSaved=   7.
 NSaved= 7 IEnMin= 7 EnMin= -4069.81174080605     IErMin= 7 ErrMin= 8.32D-05
 ErrMax= 8.32D-05  0.00D+00 EMaxC= 1.00D-01 BMatC= 2.06D-05 BMatP= 1.75D-04
 IDIUse=1 WtCom= 1.00D+00 WtEn= 0.00D+00
 Coeff-Com:  0.445D-02-0.973D-02-0.899D-02-0.386D-02 0.102D+00 0.329D+00
 Coeff-Com:  0.588D+00
 Coeff:      0.445D-02-0.973D-02-0.899D-02-0.386D-02 0.102D+00 0.329D+00
 Coeff:      0.588D+00
 Gap=     0.123 Goal=   None    Shift=    0.000
 RMSDP=6.48D-06 MaxDP=1.11D-03 DE=-1.88D-04 OVMax= 3.40D-03

 Cycle   8  Pass 1  IDiag  1:
 RMSU=  4.66D-06    CP:  9.64D-01  1.50D+00  6.88D-01  6.26D-01  8.65D-01
                    CP:  8.76D-01  8.24D-01
 E= -4069.81176635031     Delta-E=       -0.000025544257 Rises=F Damp=F
 DIIS: error= 5.01D-05 at cycle   8 NSaved=   8.
 NSaved= 8 IEnMin= 8 EnMin= -4069.81176635031     IErMin= 8 ErrMin= 5.01D-05
 ErrMax= 5.01D-05  0.00D+00 EMaxC= 1.00D-01 BMatC= 4.81D-06 BMatP= 2.06D-05
 IDIUse=1 WtCom= 1.00D+00 WtEn= 0.00D+00
 Coeff-Com:  0.215D-02-0.425D-02-0.774D-02-0.121D-01-0.118D-01 0.335D-01
 Coeff-Com:  0.345D+00 0.656D+00
 Coeff:      0.215D-02-0.425D-02-0.774D-02-0.121D-01-0.118D-01 0.335D-01
 Coeff:      0.345D+00 0.656D+00
 Gap=     0.123 Goal=   None    Shift=    0.000
 RMSDP=3.26D-06 MaxDP=3.54D-04 DE=-2.55D-05 OVMax= 1.12D-03

 Cycle   9  Pass 1  IDiag  1:
 RMSU=  1.90D-06    CP:  9.64D-01  1.50D+00  6.88D-01  6.27D-01  8.81D-01
                    CP:  9.02D-01  1.02D+00  9.39D-01
 E= -4069.81177402106     Delta-E=       -0.000007670751 Rises=F Damp=F
 DIIS: error= 1.93D-05 at cycle   9 NSaved=   9.
 NSaved= 9 IEnMin= 9 EnMin= -4069.81177402106     IErMin= 9 ErrMin= 1.93D-05
 ErrMax= 1.93D-05  0.00D+00 EMaxC= 1.00D-01 BMatC= 6.84D-07 BMatP= 4.81D-06
 IDIUse=1 WtCom= 1.00D+00 WtEn= 0.00D+00
 Coeff-Com:  0.462D-03-0.767D-03-0.266D-02-0.598D-02-0.213D-01-0.385D-01
 Coeff-Com:  0.105D+00 0.326D+00 0.639D+00
 Coeff:      0.462D-03-0.767D-03-0.266D-02-0.598D-02-0.213D-01-0.385D-01
 Coeff:      0.105D+00 0.326D+00 0.639D+00
 Gap=     0.123 Goal=   None    Shift=    0.000
 RMSDP=1.41D-06 MaxDP=1.50D-04 DE=-7.67D-06 OVMax= 7.45D-04

 Cycle  10  Pass 1  IDiag  1:
 RMSU=  9.35D-07    CP:  9.64D-01  1.50D+00  6.88D-01  6.28D-01  8.85D-01
                    CP:  9.15D-01  1.07D+00  1.10D+00  1.05D+00
 E= -4069.81177559687     Delta-E=       -0.000001575809 Rises=F Damp=F
 DIIS: error= 1.03D-05 at cycle  10 NSaved=  10.
 NSaved=10 IEnMin=10 EnMin= -4069.81177559687     IErMin=10 ErrMin= 1.03D-05
 ErrMax= 1.03D-05  0.00D+00 EMaxC= 1.00D-01 BMatC= 1.71D-07 BMatP= 6.84D-07
 IDIUse=1 WtCom= 1.00D+00 WtEn= 0.00D+00
 Coeff-Com: -0.426D-03 0.892D-03 0.123D-02 0.112D-02-0.378D-02-0.309D-01
 Coeff-Com: -0.465D-01-0.762D-01 0.255D+00 0.899D+00
 Coeff:     -0.426D-03 0.892D-03 0.123D-02 0.112D-02-0.378D-02-0.309D-01
 Coeff:     -0.465D-01-0.762D-01 0.255D+00 0.899D+00
 Gap=     0.123 Goal=   None    Shift=    0.000
 RMSDP=1.22D-06 MaxDP=1.25D-04 DE=-1.58D-06 OVMax= 6.05D-04

 Cycle  11  Pass 1  IDiag  1:
 RMSU=  5.13D-07    CP:  9.64D-01  1.50D+00  6.88D-01  6.28D-01  8.87D-01
                    CP:  9.25D-01  1.12D+00  1.22D+00  1.39D+00  1.37D+00
 E= -4069.81177637859     Delta-E=       -0.000000781722 Rises=F Damp=F
 DIIS: error= 3.93D-06 at cycle  11 NSaved=  11.
 NSaved=11 IEnMin=11 EnMin= -4069.81177637859     IErMin=11 ErrMin= 3.93D-06
 ErrMax= 3.93D-06  0.00D+00 EMaxC= 1.00D-01 BMatC= 6.06D-08 BMatP= 1.71D-07
 IDIUse=1 WtCom= 1.00D+00 WtEn= 0.00D+00
 Coeff-Com: -0.326D-03 0.634D-03 0.132D-02 0.211D-02 0.440D-02-0.834D-02
 Coeff-Com: -0.436D-01-0.132D+00-0.228D-01 0.464D+00 0.735D+00
 Coeff:     -0.326D-03 0.634D-03 0.132D-02 0.211D-02 0.440D-02-0.834D-02
 Coeff:     -0.436D-01-0.132D+00-0.228D-01 0.464D+00 0.735D+00
 Gap=     0.123 Goal=   None    Shift=    0.000
 RMSDP=6.83D-07 MaxDP=5.78D-05 DE=-7.82D-07 OVMax= 3.70D-04

 Cycle  12  Pass 1  IDiag  1:
 RMSU=  2.62D-07    CP:  9.64D-01  1.50D+00  6.88D-01  6.28D-01  8.88D-01
                    CP:  9.28D-01  1.14D+00  1.28D+00  1.56D+00  1.76D+00
                    CP:  1.20D+00
 E= -4069.81177663904     Delta-E=       -0.000000260443 Rises=F Damp=F
 DIIS: error= 2.34D-06 at cycle  12 NSaved=  12.
 NSaved=12 IEnMin=12 EnMin= -4069.81177663904     IErMin=12 ErrMin= 2.34D-06
 ErrMax= 2.34D-06  0.00D+00 EMaxC= 1.00D-01 BMatC= 1.47D-08 BMatP= 6.06D-08
 IDIUse=1 WtCom= 1.00D+00 WtEn= 0.00D+00
 Coeff-Com:  0.326D-06-0.171D-04 0.177D-03 0.507D-03 0.329D-02 0.405D-02
 Coeff-Com:  0.282D-02-0.348D-01-0.677D-01-0.760D-01 0.251D+00 0.917D+00
 Coeff:      0.326D-06-0.171D-04 0.177D-03 0.507D-03 0.329D-02 0.405D-02
 Coeff:      0.282D-02-0.348D-01-0.677D-01-0.760D-01 0.251D+00 0.917D+00
 Gap=     0.123 Goal=   None    Shift=    0.000
 RMSDP=4.36D-07 MaxDP=3.02D-05 DE=-2.60D-07 OVMax= 2.47D-04

 Cycle  13  Pass 1  IDiag  1:
 RMSU=  1.65D-07    CP:  9.64D-01  1.50D+00  6.88D-01  6.28D-01  8.88D-01
                    CP:  9.28D-01  1.14D+00  1.31D+00  1.67D+00  1.98D+00
                    CP:  1.61D+00  1.27D+00
 E= -4069.81177673007     Delta-E=       -0.000000091031 Rises=F Damp=F
 DIIS: error= 1.23D-06 at cycle  13 NSaved=  13.
 NSaved=13 IEnMin=13 EnMin= -4069.81177673007     IErMin=13 ErrMin= 1.23D-06
 ErrMax= 1.23D-06  0.00D+00 EMaxC= 1.00D-01 BMatC= 8.06D-09 BMatP= 1.47D-08
 IDIUse=1 WtCom= 1.00D+00 WtEn= 0.00D+00
 Coeff-Com:  0.120D-03-0.244D-03-0.369D-03-0.456D-03 0.568D-03 0.508D-02
 Coeff-Com:  0.197D-01 0.227D-01-0.340D-01-0.241D+00-0.156D+00 0.598D+00
 Coeff-Com:  0.785D+00
 Coeff:      0.120D-03-0.244D-03-0.369D-03-0.456D-03 0.568D-03 0.508D-02
 Coeff:      0.197D-01 0.227D-01-0.340D-01-0.241D+00-0.156D+00 0.598D+00
 Coeff:      0.785D+00
 Gap=     0.123 Goal=   None    Shift=    0.000
 RMSDP=3.38D-07 MaxDP=2.06D-05 DE=-9.10D-08 OVMax= 1.95D-04

 Cycle  14  Pass 1  IDiag  1:
 RMSU=  7.58D-08    CP:  9.64D-01  1.50D+00  6.88D-01  6.28D-01  8.88D-01
                    CP:  9.29D-01  1.15D+00  1.33D+00  1.74D+00  2.18D+00
                    CP:  1.88D+00  1.79D+00  1.09D+00
 E= -4069.81177676575     Delta-E=       -0.000000035685 Rises=F Damp=F
 DIIS: error= 6.29D-07 at cycle  14 NSaved=  14.
 NSaved=14 IEnMin=14 EnMin= -4069.81177676575     IErMin=14 ErrMin= 6.29D-07
 ErrMax= 6.29D-07  0.00D+00 EMaxC= 1.00D-01 BMatC= 1.24D-09 BMatP= 8.06D-09
 IDIUse=1 WtCom= 1.00D+00 WtEn= 0.00D+00
 Coeff-Com:  0.661D-04-0.130D-03-0.245D-03-0.386D-03-0.484D-03 0.129D-02
 Coeff-Com:  0.108D-01 0.191D-01 0.361D-02-0.995D-01-0.142D+00 0.934D-01
 Coeff-Com:  0.404D+00 0.710D+00
 Coeff:      0.661D-04-0.130D-03-0.245D-03-0.386D-03-0.484D-03 0.129D-02
 Coeff:      0.108D-01 0.191D-01 0.361D-02-0.995D-01-0.142D+00 0.934D-01
 Coeff:      0.404D+00 0.710D+00
 Gap=     0.123 Goal=   None    Shift=    0.000
 RMSDP=1.01D-07 MaxDP=6.88D-06 DE=-3.57D-08 OVMax= 5.42D-05

 Cycle  15  Pass 1  IDiag  1:
 RMSU=  3.82D-08    CP:  9.64D-01  1.50D+00  6.88D-01  6.28D-01  8.88D-01
                    CP:  9.29D-01  1.15D+00  1.33D+00  1.76D+00  2.22D+00
                    CP:  1.98D+00  1.92D+00  1.33D+00  1.03D+00
 E= -4069.81177676967     Delta-E=       -0.000000003920 Rises=F Damp=F
 DIIS: error= 3.40D-07 at cycle  15 NSaved=  15.
 NSaved=15 IEnMin=15 EnMin= -4069.81177676967     IErMin=15 ErrMin= 3.40D-07
 ErrMax= 3.40D-07  0.00D+00 EMaxC= 1.00D-01 BMatC= 2.24D-10 BMatP= 1.24D-09
 IDIUse=1 WtCom= 1.00D+00 WtEn= 0.00D+00
 Coeff-Com:  0.519D-05-0.859D-05-0.320D-04-0.808D-04-0.299D-03-0.513D-03
 Coeff-Com:  0.112D-02 0.250D-02 0.874D-02 0.184D-02-0.306D-01-0.731D-01
 Coeff-Com:  0.287D-01 0.297D+00 0.765D+00
 Coeff:      0.519D-05-0.859D-05-0.320D-04-0.808D-04-0.299D-03-0.513D-03
 Coeff:      0.112D-02 0.250D-02 0.874D-02 0.184D-02-0.306D-01-0.731D-01
 Coeff:      0.287D-01 0.297D+00 0.765D+00
 Gap=     0.123 Goal=   None    Shift=    0.000
 RMSDP=4.06D-08 MaxDP=2.72D-06 DE=-3.92D-09 OVMax= 2.67D-05

 Cycle  16  Pass 1  IDiag  1:
 RMSU=  1.86D-08    CP:  9.64D-01  1.50D+00  6.88D-01  6.28D-01  8.88D-01
                    CP:  9.29D-01  1.15D+00  1.34D+00  1.76D+00  2.23D+00
                    CP:  2.01D+00  1.98D+00  1.40D+00  1.24D+00  1.14D+00
 E= -4069.81177677063     Delta-E=       -0.000000000959 Rises=F Damp=F
 DIIS: error= 1.68D-07 at cycle  16 NSaved=  16.
 NSaved=16 IEnMin=16 EnMin= -4069.81177677063     IErMin=16 ErrMin= 1.68D-07
 ErrMax= 1.68D-07  0.00D+00 EMaxC= 1.00D-01 BMatC= 8.10D-11 BMatP= 2.24D-10
 IDIUse=1 WtCom= 1.00D+00 WtEn= 0.00D+00
 Coeff-Com: -0.142D-04 0.287D-04 0.469D-04 0.537D-04-0.266D-04-0.632D-03
 Coeff-Com: -0.198D-02-0.425D-02 0.455D-02 0.255D-01 0.206D-01-0.646D-01
 Coeff-Com: -0.833D-01-0.372D-01 0.398D+00 0.744D+00
 Coeff:     -0.142D-04 0.287D-04 0.469D-04 0.537D-04-0.266D-04-0.632D-03
 Coeff:     -0.198D-02-0.425D-02 0.455D-02 0.255D-01 0.206D-01-0.646D-01
 Coeff:     -0.833D-01-0.372D-01 0.398D+00 0.744D+00
 Gap=     0.123 Goal=   None    Shift=    0.000
 RMSDP=2.28D-08 MaxDP=1.49D-06 DE=-9.59D-10 OVMax= 1.31D-05

 Cycle  17  Pass 1  IDiag  1:
 RMSU=  1.04D-08    CP:  9.64D-01  1.50D+00  6.88D-01  6.28D-01  8.88D-01
                    CP:  9.29D-01  1.15D+00  1.34D+00  1.76D+00  2.24D+00
                    CP:  2.02D+00  2.01D+00  1.45D+00  1.34D+00  1.44D+00
                    CP:  1.25D+00
 E= -4069.81177677091     Delta-E=       -0.000000000284 Rises=F Damp=F
 DIIS: error= 9.55D-08 at cycle  17 NSaved=  17.
 NSaved=17 IEnMin=17 EnMin= -4069.81177677091     IErMin=17 ErrMin= 9.55D-08
 ErrMax= 9.55D-08  0.00D+00 EMaxC= 1.00D-01 BMatC= 1.77D-11 BMatP= 8.10D-11
 IDIUse=1 WtCom= 1.00D+00 WtEn= 0.00D+00
 Coeff-Com: -0.717D-05 0.140D-04 0.285D-04 0.424D-04 0.838D-04-0.122D-03
 Coeff-Com: -0.964D-03-0.279D-02 0.151D-03 0.920D-02 0.174D-01-0.723D-02
 Coeff-Com: -0.369D-01-0.102D+00-0.317D-01 0.294D+00 0.860D+00
 Coeff:     -0.717D-05 0.140D-04 0.285D-04 0.424D-04 0.838D-04-0.122D-03
 Coeff:     -0.964D-03-0.279D-02 0.151D-03 0.920D-02 0.174D-01-0.723D-02
 Coeff:     -0.369D-01-0.102D+00-0.317D-01 0.294D+00 0.860D+00
 Gap=     0.123 Goal=   None    Shift=    0.000
 RMSDP=1.37D-08 MaxDP=9.25D-07 DE=-2.84D-10 OVMax= 8.82D-06

 Cycle  18  Pass 1  IDiag  1:
 RMSU=  4.85D-09    CP:  9.64D-01  1.50D+00  6.88D-01  6.28D-01  8.88D-01
                    CP:  9.29D-01  1.15D+00  1.34D+00  1.76D+00  2.24D+00
                    CP:  2.02D+00  2.02D+00  1.47D+00  1.41D+00  1.61D+00
                    CP:  1.66D+00  1.39D+00
 E= -4069.81177677108     Delta-E=       -0.000000000171 Rises=F Damp=F
 DIIS: error= 5.01D-08 at cycle  18 NSaved=  18.
 NSaved=18 IEnMin=18 EnMin= -4069.81177677108     IErMin=18 ErrMin= 5.01D-08
 ErrMax= 5.01D-08  0.00D+00 EMaxC= 1.00D-01 BMatC= 6.84D-12 BMatP= 1.77D-11
 IDIUse=1 WtCom= 1.00D+00 WtEn= 0.00D+00
 Coeff-Com:  0.207D-05-0.445D-05-0.465D-05-0.184D-05 0.589D-04 0.184D-03
 Coeff-Com:  0.407D-03 0.231D-03-0.129D-02-0.622D-02-0.150D-03 0.203D-01
 Coeff-Com:  0.186D-01-0.324D-01-0.163D+00-0.193D+00 0.347D+00 0.101D+01
 Coeff:      0.207D-05-0.445D-05-0.465D-05-0.184D-05 0.589D-04 0.184D-03
 Coeff:      0.407D-03 0.231D-03-0.129D-02-0.622D-02-0.150D-03 0.203D-01
 Coeff:      0.186D-01-0.324D-01-0.163D+00-0.193D+00 0.347D+00 0.101D+01
 Gap=     0.123 Goal=   None    Shift=    0.000
 RMSDP=1.17D-08 MaxDP=7.34D-07 DE=-1.71D-10 OVMax= 6.88D-06

 Cycle  19  Pass 1  IDiag  1:
 RMSU=  2.78D-09    CP:  9.64D-01  1.50D+00  6.88D-01  6.28D-01  8.88D-01
                    CP:  9.29D-01  1.15D+00  1.34D+00  1.76D+00  2.24D+00
                    CP:  2.03D+00  2.02D+00  1.48D+00  1.46D+00  1.77D+00
                    CP:  1.99D+00  1.94D+00  1.38D+00
 E= -4069.81177677107     Delta-E=        0.000000000013 Rises=F Damp=F
 DIIS: error= 3.62D-08 at cycle  19 NSaved=  19.
 NSaved=19 IEnMin=18 EnMin= -4069.81177677108     IErMin=19 ErrMin= 3.62D-08
 ErrMax= 3.62D-08  0.00D+00 EMaxC= 1.00D-01 BMatC= 1.41D-12 BMatP= 6.84D-12
 IDIUse=1 WtCom= 1.00D+00 WtEn= 0.00D+00
 Coeff-Com:  0.287D-05-0.579D-05-0.984D-05-0.123D-04 0.107D-04 0.118D-03
 Coeff-Com:  0.474D-03 0.791D-03-0.594D-03-0.592D-02-0.480D-02 0.120D-01
 Coeff-Com:  0.200D-01 0.114D-01-0.683D-01-0.177D+00-0.350D-01 0.490D+00
 Coeff-Com:  0.757D+00
 Coeff:      0.287D-05-0.579D-05-0.984D-05-0.123D-04 0.107D-04 0.118D-03
 Coeff:      0.474D-03 0.791D-03-0.594D-03-0.592D-02-0.480D-02 0.120D-01
 Coeff:      0.200D-01 0.114D-01-0.683D-01-0.177D+00-0.350D-01 0.490D+00
 Coeff:      0.757D+00
 Gap=     0.123 Goal=   None    Shift=    0.000
 RMSDP=4.54D-09 MaxDP=3.01D-07 DE= 1.27D-11 OVMax= 2.86D-06

 SCF Done:  E(RCAM-B3LYP) =  -4069.81177677     A.U. after   19 cycles
            NFock= 19  Conv=0.45D-08     -V/T= 2.0102
 KE= 4.028802073880D+03 PE=-3.408667554789D+04 EE= 1.368510675551D+04
 Leave Link  502 at Sun Sep 12 20:58:22 2021, MaxMem= 23488102400 cpu:           11474.5 elap:             502.3
 (Enter /sw/apps/gaussian-16.0/g16/l801.exe)
 DoSCS=F DFT=T ScalE2(SS,OS)=  1.000000  1.000000
 ExpMin= 3.36D-02 ExpMax= 4.95D+03 ExpMxC= 7.45D+02 IAcc=3 IRadAn=         5 AccDes= 0.00D+00
 HarFok:  IExCor=  205 AccDes= 0.00D+00 IRadAn=         5 IDoV=-2 UseB2=F ITyADJ=14
 ICtDFT= 12500011 ScaDFX=  1.000000  1.000000  1.000000  1.000000
 GSVD:  LWork=       -9588 too small for GESVD, short by       45590 words or       45590 for optimal perf.
 Largest valence mixing into a core orbital is  2.03D-04
 Largest core mixing into a valence orbital is  5.24D-05
 Range of M.O.s used for correlation:    95  1572
 NBasis=  1572 NAE=   312 NBE=   312 NFC=    94 NFV=     0
 NROrb=   1478 NOA=   218 NOB=   218 NVA=  1260 NVB=  1260
 Leave Link  801 at Sun Sep 12 20:58:22 2021, MaxMem= 23488102400 cpu:               8.1 elap:               0.4
 (Enter /sw/apps/gaussian-16.0/g16/l914.exe)
 RHF ground state
 Two-electron integrals replicated using symmetry.
 MDV= 23488102400 DFT=T DoStab=F Mixed=T DoRPA=T DoScal=F NonHer=T
 Making orbital integer symmetry assigments:
 Orbital symmetries:
       Occupied  (A) (A) (A) (A) (A) (A) (A) (A) (A) (A) (A) (A)
                 (A) (A) (A) (A) (A) (A) (A) (A) (A) (A) (A) (A)
                 (A) (A) (A) (A) (A) (A) (A) (A) (A) (A) (A) (A)
                 (A) (A) (A) (A) (A) (A) (A) (A) (A) (A) (A) (A)
                 (A) (A) (A) (A) (A) (A) (A) (A) (A) (A) (A) (A)
                 (A) (A) (A) (A) (A) (A) (A) (A) (A) (A) (A) (A)
                 (A) (A) (A) (A) (A) (A) (A) (A) (A) (A) (A) (A)
                 (A) (A) (A) (A) (A) (A) (A) (A) (A) (A) (A) (A)
                 (A) (A) (A) (A) (A) (A) (A) (A) (A) (A) (A) (A)
                 (A) (A) (A) (A) (A) (A) (A) (A) (A) (A) (A) (A)
                 (A) (A) (A) (A) (A) (A) (A) (A) (A) (A) (A) (A)
                 (A) (A) (A) (A) (A) (A) (A) (A) (A) (A) (A) (A)
                 (A) (A) (A) (A) (A) (A) (A) (A) (A) (A) (A) (A)
                 (A) (A) (A) (A) (A) (A) (A) (A) (A) (A) (A) (A)
                 (A) (A) (A) (A) (A) (A) (A) (A) (A) (A) (A) (A)
                 (A) (A) (A) (A) (A) (A) (A) (A) (A) (A) (A) (A)
                 (A) (A) (A) (A) (A) (A) (A) (A) (A) (A) (A) (A)
                 (A) (A) (A) (A) (A) (A) (A) (A) (A) (A) (A) (A)
                 (A) (A) (A) (A) (A) (A) (A) (A) (A) (A) (A) (A)
                 (A) (A) (A) (A) (A) (A) (A) (A) (A) (A) (A) (A)
                 (A) (A) (A) (A) (A) (A) (A) (A) (A) (A) (A) (A)
                 (A) (A) (A) (A) (A) (A) (A) (A) (A) (A) (A) (A)
                 (A) (A) (A) (A) (A) (A) (A) (A) (A) (A) (A) (A)
                 (A) (A) (A) (A) (A) (A) (A) (A) (A) (A) (A) (A)
                 (A) (A) (A) (A) (A) (A) (A) (A) (A) (A) (A) (A)
                 (A) (A) (A) (A) (A) (A) (A) (A) (A) (A) (A) (A)
       Virtual   (A) (A) (A) (A) (A) (A) (A) (A) (A) (A) (A) (A)
                 (A) (A) (A) (A) (A) (A) (A) (A) (A) (A) (A) (A)
                 (A) (A) (A) (A) (A) (A) (A) (A) (A) (A) (A) (A)
                 (A) (A) (A) (A) (A) (A) (A) (A) (A) (A) (A) (A)
                 (A) (A) (A) (A) (A) (A) (A) (A) (A) (A) (A) (A)
                 (A) (A) (A) (A) (A) (A) (A) (A) (A) (A) (A) (A)
                 (A) (A) (A) (A) (A) (A) (A) (A) (A) (A) (A) (A)
                 (A) (A) (A) (A) (A) (A) (A) (A) (A) (A) (A) (A)
                 (A) (A) (A) (A) (A) (A) (A) (A) (A) (A) (A) (A)
                 (A) (A) (A) (A) (A) (A) (A) (A) (A) (A) (A) (A)
                 (A) (A) (A) (A) (A) (A) (A) (A) (A) (A) (A) (A)
                 (A) (A) (A) (A) (A) (A) (A) (A) (A) (A) (A) (A)
                 (A) (A) (A) (A) (A) (A) (A) (A) (A) (A) (A) (A)
                 (A) (A) (A) (A) (A) (A) (A) (A) (A) (A) (A) (A)
                 (A) (A) (A) (A) (A) (A) (A) (A) (A) (A) (A) (A)
                 (A) (A) (A) (A) (A) (A) (A) (A) (A) (A) (A) (A)
                 (A) (A) (A) (A) (A) (A) (A) (A) (A) (A) (A) (A)
                 (A) (A) (A) (A) (A) (A) (A) (A) (A) (A) (A) (A)
                 (A) (A) (A) (A) (A) (A) (A) (A) (A) (A) (A) (A)
                 (A) (A) (A) (A) (A) (A) (A) (A) (A) (A) (A) (A)
                 (A) (A) (A) (A) (A) (A) (A) (A) (A) (A) (A) (A)
                 (A) (A) (A) (A) (A) (A) (A) (A) (A) (A) (A) (A)
                 (A) (A) (A) (A) (A) (A) (A) (A) (A) (A) (A) (A)
                 (A) (A) (A) (A) (A) (A) (A) (A) (A) (A) (A) (A)
                 (A) (A) (A) (A) (A) (A) (A) (A) (A) (A) (A) (A)
                 (A) (A) (A) (A) (A) (A) (A) (A) (A) (A) (A) (A)
                 (A) (A) (A) (A) (A) (A) (A) (A) (A) (A) (A) (A)
                 (A) (A) (A) (A) (A) (A) (A) (A) (A) (A) (A) (A)
                 (A) (A) (A) (A) (A) (A) (A) (A) (A) (A) (A) (A)
                 (A) (A) (A) (A) (A) (A) (A) (A) (A) (A) (A) (A)
                 (A) (A) (A) (A) (A) (A) (A) (A) (A) (A) (A) (A)
                 (A) (A) (A) (A) (A) (A) (A) (A) (A) (A) (A) (A)
                 (A) (A) (A) (A) (A) (A) (A) (A) (A) (A) (A) (A)
                 (A) (A) (A) (A) (A) (A) (A) (A) (A) (A) (A) (A)
                 (A) (A) (A) (A) (A) (A) (A) (A) (A) (A) (A) (A)
                 (A) (A) (A) (A) (A) (A) (A) (A) (A) (A) (A) (A)
                 (A) (A) (A) (A) (A) (A) (A) (A) (A) (A) (A) (A)
                 (A) (A) (A) (A) (A) (A) (A) (A) (A) (A) (A) (A)
                 (A) (A) (A) (A) (A) (A) (A) (A) (A) (A) (A) (A)
                 (A) (A) (A) (A) (A) (A) (A) (A) (A) (A) (A) (A)
                 (A) (A) (A) (A) (A) (A) (A) (A) (A) (A) (A) (A)
                 (A) (A) (A) (A) (A) (A) (A) (A) (A) (A) (A) (A)
                 (A) (A) (A) (A) (A) (A) (A) (A) (A) (A) (A) (A)
                 (A) (A) (A) (A) (A) (A) (A) (A) (A) (A) (A) (A)
                 (A) (A) (A) (A) (A) (A) (A) (A) (A) (A) (A) (A)
                 (A) (A) (A) (A) (A) (A) (A) (A) (A) (A) (A) (A)
                 (A) (A) (A) (A) (A) (A) (A) (A) (A) (A) (A) (A)
                 (A) (A) (A) (A) (A) (A) (A) (A) (A) (A) (A) (A)
                 (A) (A) (A) (A) (A) (A) (A) (A) (A) (A) (A) (A)
                 (A) (A) (A) (A) (A) (A) (A) (A) (A) (A) (A) (A)
                 (A) (A) (A) (A) (A) (A) (A) (A) (A) (A) (A) (A)
                 (A) (A) (A) (A) (A) (A) (A) (A) (A) (A) (A) (A)
                 (A) (A) (A) (A) (A) (A) (A) (A) (A) (A) (A) (A)
                 (A) (A) (A) (A) (A) (A) (A) (A) (A) (A) (A) (A)
                 (A) (A) (A) (A) (A) (A) (A) (A) (A) (A) (A) (A)
                 (A) (A) (A) (A) (A) (A) (A) (A) (A) (A) (A) (A)
                 (A) (A) (A) (A) (A) (A) (A) (A) (A) (A) (A) (A)
                 (A) (A) (A) (A) (A) (A) (A) (A) (A) (A) (A) (A)
                 (A) (A) (A) (A) (A) (A) (A) (A) (A) (A) (A) (A)
                 (A) (A) (A) (A) (A) (A) (A) (A) (A) (A) (A) (A)
                 (A) (A) (A) (A) (A) (A) (A) (A) (A) (A) (A) (A)
                 (A) (A) (A) (A) (A) (A) (A) (A) (A) (A) (A) (A)
                 (A) (A) (A) (A) (A) (A) (A) (A) (A) (A) (A) (A)
                 (A) (A) (A) (A) (A) (A) (A) (A) (A) (A) (A) (A)
                 (A) (A) (A) (A) (A) (A) (A) (A) (A) (A) (A) (A)
                 (A) (A) (A) (A) (A) (A) (A) (A) (A) (A) (A) (A)
                 (A) (A) (A) (A) (A) (A) (A) (A) (A) (A) (A) (A)
                 (A) (A) (A) (A) (A) (A) (A) (A) (A) (A) (A) (A)
                 (A) (A) (A) (A) (A) (A) (A) (A) (A) (A) (A) (A)
                 (A) (A) (A) (A) (A) (A) (A) (A) (A) (A) (A) (A)
                 (A) (A) (A) (A) (A) (A) (A) (A) (A) (A) (A) (A)
                 (A) (A) (A) (A) (A) (A) (A) (A) (A) (A) (A) (A)
                 (A) (A) (A) (A) (A) (A) (A) (A) (A) (A) (A) (A)
                 (A) (A) (A) (A) (A) (A) (A) (A) (A) (A) (A) (A)
                 (A) (A) (A) (A) (A) (A) (A) (A) (A) (A) (A) (A)
                 (A) (A) (A) (A) (A) (A) (A) (A) (A) (A) (A) (A)
                 (A) (A) (A) (A) (A) (A) (A) (A) (A) (A) (A) (A)
                 (A) (A) (A) (A) (A) (A) (A) (A) (A) (A) (A) (A)
                 (A) (A) (A) (A) (A) (A) (A) (A) (A) (A) (A) (A)
                 (A) (A) (A) (A) (A) (A) (A) (A) (A) (A) (A) (A)
                 (A) (A) (A) (A) (A) (A) (A) (A) (A) (A) (A) (A)
                 (A) (A) (A) (A) (A) (A) (A) (A) (A) (A) (A) (A)
                 (A) (A) (A) (A) (A) (A) (A) (A) (A) (A) (A) (A)
                 (A) (A) (A) (A) (A) (A) (A) (A) (A) (A) (A) (A)
                 (A) (A) (A) (A) (A) (A) (A) (A) (A) (A) (A) (A)
                 (A) (A) (A) (A) (A) (A) (A) (A) (A) (A) (A) (A)
                 (A) (A) (A) (A) (A) (A) (A) (A) (A) (A) (A) (A)
                 (A) (A) (A) (A) (A) (A) (A) (A) (A) (A) (A) (A)
                 (A) (A) (A) (A) (A) (A) (A) (A) (A) (A) (A) (A)
                 (A) (A) (A) (A) (A) (A) (A) (A) (A) (A) (A) (A)
                 (A) (A) (A) (A) (A) (A) (A) (A) (A) (A) (A) (A)
                 (A) (A) (A) (A) (A) (A) (A) (A) (A) (A) (A) (A)
                 (A) (A) (A) (A) (A) (A) (A) (A) (A) (A) (A) (A)
                 (A) (A) (A) (A) (A) (A) (A) (A) (A) (A) (A) (A)
                 (A) (A) (A) (A) (A) (A) (A) (A) (A) (A) (A) (A)
                 (A) (A) (A) (A) (A) (A) (A) (A) (A) (A) (A) (A)
                 (A) (A) (A) (A) (A) (A) (A) (A) (A) (A) (A) (A)
                 (A) (A) (A) (A) (A) (A) (A) (A) (A) (A) (A) (A)
                 (A) (A) (A) (A) (A) (A) (A) (A) (A) (A) (A) (A)
                 (A) (A) (A) (A) (A) (A) (A) (A) (A) (A) (A) (A)
                 (A) (A) (A) (A) (A) (A) (A) (A) (A) (A) (A) (A)
                 (A) (A) (A) (A) (A) (A) (A) (A) (A) (A) (A) (A)
                 (A) (A) (A) (A) (A) (A) (A) (A) (A) (A) (A) (A)
                 (A) (A) (A) (A) (A) (A) (A) (A) (A) (A) (A) (A)
                 (A) (A) (A) (A) (A) (A) (A) (A) (A) (A) (A) (A)
    20 initial guesses have been made.
 Convergence on wavefunction:    0.001000000000000
 Davidson Disk Diagonalization:  ConvIn= 1.00D-03 SkipCon=T Conv= 1.00D-03.
 Max sub-space:  2000 roots to seek:    20 dimension of matrix:       549360
 Iteration     1 Dimension    20 NMult     0 NNew     20
 CISAX will form    20 AO SS matrices at one time.
 NMat=    20 NSing=    20 JSym2X= 0.
 FoFJK:  IHMeth= 1 ICntrl=       0 DoSepK=T KAlg= 0 I1Cent=           0 FoldK=F
 IRaf=         1 NMat=      40 IRICut=       1 DoRegI=T DoRafI=F ISym2E= 0 IDoP0=3 IntGTp=3.
 FoFCou: FMM=T IPFlag=           0 FMFlag=      100000 FMFlg1=        2001
         NFxFlg=           0 DoJE=F BraDBF=F KetDBF=F FulRan=T
         wScrn=  0.000000 ICntrl=       500 IOpCl=  0 I1Cent=           0 NGrid=           0
         NMat0=   20 NMatS0=     20 NMatT0=    0 NMatD0=   20 NMtDS0=    0 NMtDT0=    0
 Symmetry not used in FoFCou.
 FMM levels:  10  Number of levels for PrismC:   9
 New state      1 was old state      7
 New state      2 was old state      6
 New state      3 was old state      2
 New state      4 was old state      3
 New state      5 was old state      1
 Excitation Energies [eV] at current iteration:
 Root      1 :     2.614327862543148
 Root      2 :     2.619317693718139
 Root      3 :     2.680835477801692
 Root      4 :     2.689777976354006
 Root      5 :     3.061716790912150
 Root      6 :     3.069578468895018
 Root      7 :     3.629040650331719
 Root      8 :     3.669330265701036
 Root      9 :     3.735556284487830
 Root     10 :     3.759207942442365
 Root     11 :     3.858489720619887
 Root     12 :     3.872940981101554
 Root     13 :     4.303326145825223
 Root     14 :     4.306905068820551
 Root     15 :     4.972661569787471
 Root     16 :     5.000863805598229
 Root     17 :     5.255773538501588
 Root     18 :     5.298269221551197
 Root     19 :     5.303147065522229
 Root     20 :     5.332132103350348
 Iteration     2 Dimension    30 NMult    20 NNew     10
 CISAX will form    10 AO SS matrices at one time.
 NMat=    10 NSing=    10 JSym2X= 0.
 New state      1 was old state      3
 Root      1 not converged, maximum delta is    0.190353862880426
 New state      2 was old state      4
 Root      2 not converged, maximum delta is    0.191638683040312
 New state      3 was old state      2
 Root      3 not converged, maximum delta is    0.072105189829248
 New state      4 was old state      1
 Root      4 not converged, maximum delta is    0.089380905098117
 Root      5 not converged, maximum delta is    0.002042676930016
 Excitation Energies [eV] at current iteration:
 Root      1 :     1.801533524426212   Change is   -0.879301953375481
 Root      2 :     1.807226596121881   Change is   -0.882551380232125
 Root      3 :     2.235878272405774   Change is   -0.383439421312364
 Root      4 :     2.239098935002432   Change is   -0.375228927540716
 Root      5 :     3.061662142848389   Change is   -0.000054648063762
 Iteration     3 Dimension    40 NMult    30 NNew     10
 CISAX will form    10 AO SS matrices at one time.
 NMat=    10 NSing=    10 JSym2X= 0.
 Root      1 not converged, maximum delta is    0.071669900376847
 Root      2 not converged, maximum delta is    0.072853208977618
 Root      3 not converged, maximum delta is    0.043993566224386
 Root      4 not converged, maximum delta is    0.042517658692241
 Root      5 has converged.
 Excitation Energies [eV] at current iteration:
 Root      1 :     1.694294225510283   Change is   -0.107239298915928
 Root      2 :     1.698834374264466   Change is   -0.108392221857415
 Root      3 :     2.194428291815590   Change is   -0.041449980590184
 Root      4 :     2.200256524187274   Change is   -0.038842410815158
 Root      5 :     3.061662122766222   Change is   -0.000000020082167
 Iteration     4 Dimension    48 NMult    40 NNew      8
 CISAX will form     8 AO SS matrices at one time.
 NMat=     8 NSing=     8 JSym2X= 0.
 Root      1 not converged, maximum delta is    0.013350315822837
 Root      2 not converged, maximum delta is    0.013620685228490
 Root      3 not converged, maximum delta is    0.009725527685257
 Root      4 not converged, maximum delta is    0.008884695877488
 Root      5 has converged.
 Excitation Energies [eV] at current iteration:
 Root      1 :     1.677586617983072   Change is   -0.016707607527211
 Root      2 :     1.681948764943793   Change is   -0.016885609320673
 Root      3 :     2.187128682115592   Change is   -0.007299609699998
 Root      4 :     2.193486103010716   Change is   -0.006770421176557
 Root      5 :     3.061662122766168   Change is   -0.000000000000054
 Iteration     5 Dimension    56 NMult    48 NNew      8
 CISAX will form     8 AO SS matrices at one time.
 NMat=     8 NSing=     8 JSym2X= 0.
 Root      1 not converged, maximum delta is    0.002220039425657
 Root      2 not converged, maximum delta is    0.002222053242947
 Root      3 not converged, maximum delta is    0.002500180835603
 Root      4 not converged, maximum delta is    0.002383980012557
 Root      5 has converged.
 Excitation Energies [eV] at current iteration:
 Root      1 :     1.675807246460999   Change is   -0.001779371522073
 Root      2 :     1.680176952186868   Change is   -0.001771812756926
 Root      3 :     2.186282839328923   Change is   -0.000845842786668
 Root      4 :     2.192710868756055   Change is   -0.000775234254662
 Root      5 :     3.061662122766248   Change is    0.000000000000080
 Iteration     6 Dimension    64 NMult    56 NNew      8
 CISAX will form     8 AO SS matrices at one time.
 NMat=     8 NSing=     8 JSym2X= 0.
 Root      1 not converged, maximum delta is    0.001394206953707
 Root      2 not converged, maximum delta is    0.001416868132722
 Root      3 not converged, maximum delta is    0.001068708519571
 Root      4 not converged, maximum delta is    0.001012855693377
 Root      5 has converged.
 Excitation Energies [eV] at current iteration:
 Root      1 :     1.675553499432753   Change is   -0.000253747028247
 Root      2 :     1.679921987725971   Change is   -0.000254964460896
 Root      3 :     2.186154647348507   Change is   -0.000128191980417
 Root      4 :     2.192593211393660   Change is   -0.000117657362394
 Root      5 :     3.061662122766168   Change is   -0.000000000000080
 Iteration     7 Dimension    72 NMult    64 NNew      8
 CISAX will form     8 AO SS matrices at one time.
 NMat=     8 NSing=     8 JSym2X= 0.
 Root      1 has converged.
 Root      2 has converged.
 Root      3 has converged.
 Root      4 has converged.
 Root      5 has converged.
 Excitation Energies [eV] at current iteration:
 Root      1 :     1.675529326470875   Change is   -0.000024172961877
[...]
 Alpha virt. eigenvalues --    1.84468   1.84481   1.84743   1.84829   1.85079
 Alpha virt. eigenvalues --    1.85120   1.85292   1.85304   1.85444   1.85503
 Alpha virt. eigenvalues --    1.85855   1.85885   1.86338   1.86379   1.86574
 Alpha virt. eigenvalues --    1.86607   1.86780   1.86801   1.86996   1.87055
 Alpha virt. eigenvalues --    1.87437   1.87462   1.87697   1.87725   1.87886
 Alpha virt. eigenvalues --    1.87969   1.88058   1.88133   1.88528   1.88554
 Alpha virt. eigenvalues --    1.88840   1.88893   1.89027   1.89145   1.89615
 Alpha virt. eigenvalues --    1.89645   1.89765   1.89832   1.90136   1.90144
 Alpha virt. eigenvalues --    1.90769   1.90848   1.91366   1.91380   1.91458
 Alpha virt. eigenvalues --    1.91545   1.92136   1.92171   1.92614   1.92641
 Alpha virt. eigenvalues --    1.93000   1.93104   1.93356   1.93456   1.94262
 Alpha virt. eigenvalues --    1.94301   1.94707   1.94769   1.95494   1.95546
 Alpha virt. eigenvalues --    1.95744   1.95765   1.96001   1.96011   1.96125
 Alpha virt. eigenvalues --    1.96171   1.96435   1.96612   1.96890   1.96917
 Alpha virt. eigenvalues --    1.97467   1.97494   1.97754   1.97853   1.98119
 Alpha virt. eigenvalues --    1.98186   1.98300   1.98689   1.99025   1.99152
 Alpha virt. eigenvalues --    1.99837   1.99884   2.00677   2.00678   2.01013
 Alpha virt. eigenvalues --    2.01048   2.01459   2.01495   2.01559   2.01691
 Alpha virt. eigenvalues --    2.01735   2.01775   2.02662   2.02803   2.03093
 Alpha virt. eigenvalues --    2.03253   2.03331   2.03420   2.03472   2.03499
 Alpha virt. eigenvalues --    2.03977   2.04052   2.04929   2.04976   2.05532
 Alpha virt. eigenvalues --    2.05582   2.06096   2.06238   2.06917   2.06983
 Alpha virt. eigenvalues --    2.07201   2.07298   2.08507   2.08605   2.08955
 Alpha virt. eigenvalues --    2.08998   2.09563   2.09605   2.10797   2.10985
 Alpha virt. eigenvalues --    2.11200   2.11357   2.11482   2.11553   2.11744
 Alpha virt. eigenvalues --    2.11816   2.12415   2.12481   2.12752   2.12819
 Alpha virt. eigenvalues --    2.12822   2.12851   2.13580   2.13781   2.14156
 Alpha virt. eigenvalues --    2.14203   2.15353   2.15357   2.15941   2.16031
 Alpha virt. eigenvalues --    2.16540   2.16543   2.16770   2.17122   2.17433
 Alpha virt. eigenvalues --    2.17600   2.17722   2.17883   2.17953   2.18087
 Alpha virt. eigenvalues --    2.18339   2.18621   2.18882   2.19183   2.19656
 Alpha virt. eigenvalues --    2.19768   2.20054   2.20191   2.20227   2.20387
 Alpha virt. eigenvalues --    2.21122   2.21169   2.21686   2.21712   2.21759
 Alpha virt. eigenvalues --    2.21823   2.22650   2.22696   2.23290   2.23330
 Alpha virt. eigenvalues --    2.24367   2.24411   2.24954   2.24977   2.26313
 Alpha virt. eigenvalues --    2.26387   2.26795   2.26956   2.27116   2.27150
 Alpha virt. eigenvalues --    2.28152   2.28262   2.29284   2.29385   2.29749
 Alpha virt. eigenvalues --    2.29826   2.30469   2.30568   2.30771   2.31097
 Alpha virt. eigenvalues --    2.31148   2.31193   2.32137   2.32188   2.33149
 Alpha virt. eigenvalues --    2.33181   2.33429   2.33476   2.34087   2.34155
 Alpha virt. eigenvalues --    2.35244   2.35383   2.35811   2.35856   2.36280
 Alpha virt. eigenvalues --    2.36369   2.36395   2.36638   2.37623   2.37675
 Alpha virt. eigenvalues --    2.38274   2.38329   2.38728   2.38869   2.39613
 Alpha virt. eigenvalues --    2.39625   2.40197   2.40212   2.40499   2.40772
 Alpha virt. eigenvalues --    2.41157   2.41281   2.41638   2.41702   2.42051
 Alpha virt. eigenvalues --    2.42071   2.42767   2.42959   2.43011   2.43542
 Alpha virt. eigenvalues --    2.43921   2.44182   2.44745   2.44749   2.44917
 Alpha virt. eigenvalues --    2.44931   2.45514   2.45561   2.46229   2.46316
 Alpha virt. eigenvalues --    2.46439   2.46491   2.46740   2.46812   2.47267
 Alpha virt. eigenvalues --    2.47319   2.47727   2.47828   2.49325   2.49336
 Alpha virt. eigenvalues --    2.49833   2.50083   2.50398   2.50564   2.51132
 Alpha virt. eigenvalues --    2.51206   2.51552   2.51898   2.52335   2.52450
 Alpha virt. eigenvalues --    2.52821   2.53102   2.53910   2.53932   2.54165
 Alpha virt. eigenvalues --    2.54225   2.54744   2.54801   2.55533   2.55605
 Alpha virt. eigenvalues --    2.57878   2.58016   2.58657   2.58840   2.60217
 Alpha virt. eigenvalues --    2.60235   2.60624   2.60859   2.61724   2.61757
 Alpha virt. eigenvalues --    2.62366   2.62544   2.62968   2.63060   2.63948
 Alpha virt. eigenvalues --    2.64153   2.64259   2.64360   2.65032   2.65092
 Alpha virt. eigenvalues --    2.65794   2.65797   2.66753   2.66791   2.66922
 Alpha virt. eigenvalues --    2.66990   2.67913   2.67921   2.68752   2.68869
 Alpha virt. eigenvalues --    2.68962   2.69034   2.69403   2.69524   2.70010
 Alpha virt. eigenvalues --    2.70068   2.70991   2.70997   2.71823   2.72064
 Alpha virt. eigenvalues --    2.72421   2.72663   2.72664   2.72835   2.73216
 Alpha virt. eigenvalues --    2.73289   2.73395   2.73539   2.74435   2.74522
 Alpha virt. eigenvalues --    2.74983   2.74986   2.76448   2.76603   2.76992
 Alpha virt. eigenvalues --    2.77243   2.77468   2.77533   2.78203   2.78225
 Alpha virt. eigenvalues --    2.78616   2.78740   2.79082   2.79145   2.80193
 Alpha virt. eigenvalues --    2.80356   2.80598   2.80614   2.81075   2.81125
 Alpha virt. eigenvalues --    2.81913   2.81944   2.82259   2.82353   2.83762
 Alpha virt. eigenvalues --    2.83773   2.83779   2.83827   2.84451   2.84556
 Alpha virt. eigenvalues --    2.84809   2.84895   2.85618   2.85680   2.86582
 Alpha virt. eigenvalues --    2.87006   2.87096   2.87614   2.88163   2.88167
 Alpha virt. eigenvalues --    2.88519   2.88538   2.88794   2.88945   2.90507
 Alpha virt. eigenvalues --    2.90581   2.90991   2.91200   2.93165   2.93243
 Alpha virt. eigenvalues --    2.93692   2.94211   2.94495   2.94570   2.95376
 Alpha virt. eigenvalues --    2.95394   2.95759   2.96209   2.96295   2.96451
 Alpha virt. eigenvalues --    2.96791   2.97184   2.97825   2.97954   2.98219
 Alpha virt. eigenvalues --    2.98277   2.98376   2.98494   2.98611   2.98698
 Alpha virt. eigenvalues --    2.98842   2.98895   2.99598   2.99722   2.99936
 Alpha virt. eigenvalues --    3.00040   3.00230   3.00258   3.00471   3.00912
 Alpha virt. eigenvalues --    3.01822   3.02001   3.02037   3.02044   3.02741
 Alpha virt. eigenvalues --    3.02743   3.02987   3.03239   3.03340   3.03628
 Alpha virt. eigenvalues --    3.03972   3.04182   3.04351   3.04461   3.04559
 Alpha virt. eigenvalues --    3.04645   3.05273   3.05310   3.06084   3.06125
 Alpha virt. eigenvalues --    3.06813   3.06856   3.07843   3.08158   3.09278
 Alpha virt. eigenvalues --    3.09412   3.09704   3.10351   3.10453   3.10657
 Alpha virt. eigenvalues --    3.11345   3.11400   3.11817   3.11953   3.12190
 Alpha virt. eigenvalues --    3.12222   3.13293   3.13567   3.13608   3.13653
 Alpha virt. eigenvalues --    3.14100   3.14391   3.15907   3.15935   3.17275
 Alpha virt. eigenvalues --    3.17436   3.17799   3.18092   3.18951   3.19141
 Alpha virt. eigenvalues --    3.22313   3.22514   3.23959   3.24355   3.24685
 Alpha virt. eigenvalues --    3.25109   3.26517   3.26573   3.27312   3.27634
 Alpha virt. eigenvalues --    3.29109   3.29138   3.31296   3.31538   3.33102
 Alpha virt. eigenvalues --    3.33432   3.40177   3.40638   3.42737   3.42832
 Alpha virt. eigenvalues --    3.48613   3.48672   3.50036   3.50199   3.50754
 Alpha virt. eigenvalues --    3.51489   3.56565   3.56923   3.59114   3.59257
 Alpha virt. eigenvalues --    3.62432   3.62851   3.66036   3.66202   3.67195
 Alpha virt. eigenvalues --    3.67459   3.73281   3.73937   3.76067   3.76595
          Condensed to atoms (all electrons):
 Mulliken charges:
               1
     1  Mg   0.838746
     2  C   -0.002981
     3  C   -0.094144
     4  C   -0.045858
     5  C   -0.063943
     6  N   -0.256791
     7  C   -0.052475
     8  C   -0.014024
     9  C   -0.086988
    10  C    0.046326
    11  C    0.104807
    12  C    0.053471
    13  C   -0.071776
    14  H    0.036037
    15  N   -0.433144
    16  C    0.168408
    17  C   -0.177140
    18  C   -0.003999
    19  C    0.148706
    20  C    0.110172
    21  C    0.012282
    22  O   -0.249584
    23  C    0.062478
    24  N   -0.341145
    25  C    0.041232
    26  C   -0.028197
    27  C   -0.023982
    28  C    0.074840
    29  C    0.076165
    30  C    0.035134
    31  C   -0.004511
    32  N   -0.310470
    33  C    0.080403
    34  C   -0.169724
    35  C    0.008357
    36  C    0.082972
    37  C    0.127316
    38  C    0.046102
    39  O   -0.188464
    40  C   -0.005317
    41  C    0.212861
    42  O   -0.257151
    43  O   -0.304773
    44  C    0.157716
    45  H   -0.017591
    46  H   -0.016803
    47  H   -0.041473
    48  H    0.000943
    49  H   -0.004048
    50  H    0.025482
    51  H    0.016472
    52  H    0.016672
    53  H    0.011187
    54  H    0.044084
    55  H    0.017900
    56  H    0.017947
    57  H    0.005871
    58  H    0.026860
    59  H    0.039533
    60  H    0.037363
    61  H    0.035685
    62  H    0.031470
    63  H    0.016573
    64  H    0.009484
    65  H    0.023248
    66  H    0.012552
    67  H    0.004776
    68  H    0.006406
    69  H    0.004736
    70  H    0.008798
    71  H    0.018145
    72  H    0.028944
    73  H    0.047546
    74  H    0.009126
    75  H    0.046027
    76  H    0.035166
    77  H    0.042946
    78  H    0.046392
    79  H    0.053629
    80  Mg   0.837802
    81  C   -0.016783
    82  C   -0.087753
    83  C   -0.045471
    84  C   -0.064900
    85  N   -0.254557
    86  C   -0.049883
    87  C   -0.015060
    88  C   -0.090526
    89  C    0.045755
    90  C    0.114354
    91  C    0.062509
    92  C   -0.077894
    93  H    0.034866
    94  N   -0.423490
    95  C    0.162909
    96  C   -0.174566
    97  C   -0.007787
    98  C    0.152117
    99  C    0.099342
   100  C    0.015597
   101  O   -0.253154
   102  C    0.061190
   103  N   -0.350058
   104  C    0.037516
   105  C   -0.019851
   106  C   -0.034818
   107  C    0.088953
   108  C    0.073645
   109  C    0.034738
   110  C   -0.007682
   111  N   -0.324111
   112  C    0.078441
   113  C   -0.163144
   114  C    0.002228
   115  C    0.096163
   116  C    0.131496
   117  C    0.042374
   118  O   -0.187915
   119  C    0.000901
   120  C    0.211261
   121  O   -0.251031
   122  O   -0.305622
   123  C    0.152035
   124  H   -0.019593
   125  H   -0.015533
   126  H   -0.040468
   127  H   -0.000644
   128  H   -0.004311
   129  H    0.022462
   130  H    0.014476
   131  H    0.016345
   132  H    0.013915
   133  H    0.037667
   134  H    0.020809
   135  H    0.019601
   136  H    0.008791
   137  H    0.026256
   138  H    0.039787
   139  H    0.038327
   140  H    0.036429
   141  H    0.033861
   142  H    0.014405
   143  H    0.012429
   144  H    0.025171
   145  H    0.011691
   146  H    0.005691
   147  H    0.006275
   148  H    0.003635
   149  H    0.010940
   150  H    0.017916
   151  H    0.030098
   152  H    0.045982
   153  H    0.008502
   154  H    0.046941
   155  H    0.035040
   156  H    0.043906
   157  H    0.049500
   158  H    0.053565
 Sum of Mulliken charges =  -0.00000
 Mulliken charges with hydrogens summed into heavy atoms:
               1
     1  Mg   0.838746
     2  C   -0.002981
     3  C   -0.111734
     4  C   -0.062661
     5  C   -0.105416
     6  N   -0.256791
     7  C   -0.052475
     8  C   -0.013081
     9  C   -0.091036
    10  C    0.046326
    11  C    0.163432
    12  C    0.108742
    13  C    0.000109
    15  N   -0.433144
    16  C    0.168408
    17  C   -0.177140
    18  C   -0.003999
    19  C    0.148706
    20  C    0.182437
    21  C    0.012282
    22  O   -0.249584
    23  C    0.166996
    24  N   -0.341145
    25  C    0.041232
    26  C   -0.011624
    27  C   -0.014498
    28  C    0.074840
    29  C    0.116742
    30  C    0.046276
    31  C    0.051377
    32  N   -0.310470
    33  C    0.080403
    34  C   -0.169724
    35  C    0.008357
    36  C    0.082972
    37  C    0.230014
    38  C    0.046102
    39  O   -0.188464
    40  C    0.029849
    41  C    0.212861
    42  O   -0.257151
    43  O   -0.304773
    44  C    0.300682
    80  Mg   0.837802
    81  C   -0.016783
    82  C   -0.107345
    83  C   -0.061004
    84  C   -0.105368
    85  N   -0.254557
    86  C   -0.049883
    87  C   -0.015704
    88  C   -0.094838
    89  C    0.045755
    90  C    0.167637
    91  C    0.114091
    92  C   -0.002618
    94  N   -0.423490
    95  C    0.162909
    96  C   -0.174566
    97  C   -0.007787
    98  C    0.152117
    99  C    0.174176
   100  C    0.015597
   101  O   -0.253154
   102  C    0.169807
   103  N   -0.350058
   104  C    0.037516
   105  C   -0.005446
   106  C   -0.022389
   107  C    0.088953
   108  C    0.116197
   109  C    0.044648
   110  C    0.051271
   111  N   -0.324111
   112  C    0.078441
   113  C   -0.163144
   114  C    0.002228
   115  C    0.096163
   116  C    0.232921
   117  C    0.042374
   118  O   -0.187915
   119  C    0.035941
   120  C    0.211261
   121  O   -0.251031
   122  O   -0.305622
   123  C    0.299006
 Electronic spatial extent (au):  <R**2>=         629427.0891
 Charge=             -0.0000 electrons
 Dipole moment (field-independent basis, Debye):
    X=              6.2092    Y=              1.6227    Z=              4.7122  Tot=              7.9619
 Quadrupole moment (field-independent basis, Debye-Ang):
   XX=           -596.9908   YY=           -496.2622   ZZ=           -493.4892
   XY=              6.3053   XZ=             63.0081   YZ=             54.8889
 Traceless Quadrupole moment (field-independent basis, Debye-Ang):
   XX=            -68.0767   YY=             32.6519   ZZ=             35.4248
   XY=              6.3053   XZ=             63.0081   YZ=             54.8889
 Octapole moment (field-independent basis, Debye-Ang**2):
  XXX=           5451.3414  YYY=            382.1597  ZZZ=            175.7881  XYY=           -333.8612
  XXY=           -289.6332  XXZ=           1030.6019  XZZ=             72.4367  YZZ=           -117.5230
  YYZ=            -52.6004  XYZ=            229.2213
 Hexadecapole moment (field-independent basis, Debye-Ang**3):
 XXXX=        -880644.1825 YYYY=         -35986.6591 ZZZZ=         -17600.6156 XXXY=          15978.5637
 XXXZ=          15887.2983 YYYX=            956.1252 YYYZ=           1061.9556 ZZZX=           2526.3012
 ZZZY=            178.4378 XXYY=        -133707.1056 XXZZ=        -133755.3729 YYZZ=          -9565.5912
 XXYZ=          15704.4600 YYXZ=           -808.7653 ZZXY=          -1359.4493
 N-N= 1.230295494172D+04 E-N=-3.408667554085D+04  KE= 4.028802073880D+03
 Leave Link  601 at Sun Sep 12 21:17:17 2021, MaxMem= 23488102400 cpu:              15.3 elap:               0.8
 (Enter /sw/apps/gaussian-16.0/g16/l9999.exe)
 1\1\GINC-BP1-COMPUTE00082\SP\RCAM-B3LYP TD-FC\def2SVP\C68H72Mg2N8O8\OF
 15641\12-Sep-2021\0\\#p cam-b3lyp/Def2SVP td=(nstates=5)\\TDDFT excite
 d states in gaussian\\0,1\Mg,0,0.,0.,0.\C,0,-0.217,-2.218,2.801\C,0,-1
 .255,2.442,2.026\C,0,-0.245,1.85,-2.564\C,0,0.146,-2.824,-2.037\N,0,-0
 .617,-0.009,2.126\C,0,-0.594,-0.908,3.105\C,0,-0.936,-0.309,4.502\C,0,
 -1.773,0.964,4.032\C,0,-1.155,1.168,2.66\C,0,-3.263,0.685,3.863\C,0,0.
 345,0.11,5.299\C,0,0.124,0.397,6.787\H,0,1.168,0.033,7.733\N,0,-0.185,
 1.961,-0.152\C,0,-0.703,2.8,0.777\C,0,-0.62,4.156,0.193\C,0,-0.187,4.0
 15,-1.225\C,0,-0.214,2.583,-1.38\C,0,-0.887,5.406,0.974\C,0,0.181,5.01
 3,-2.277\O,0,0.303,4.69,-3.508\C,0,0.31,6.414,-1.837\N,0,-0.265,-0.413
 ,-2.029\C,0,-0.279,0.569,-2.937\C,0,-0.196,0.024,-4.332\C,0,0.124,-1.5
 33,-4.18\C,0,0.086,-1.632,-2.635\C,0,-1.451,0.205,-5.197\C,0,1.373,-2.
 07,-4.923\C,0,2.626,-1.49,-4.306\N,0,0.15,-2.144,0.303\C,0,0.173,-3.13
 6,-0.688\C,0,0.173,-4.438,0.004\C,0,0.133,-4.111,1.358\C,0,0.083,-2.69
 5,1.502\C,0,0.149,-5.715,-0.623\C,0,0.096,-4.629,2.716\O,0,0.208,-5.74
 7,3.221\C,0,-0.255,-3.428,3.701\C,0,0.717,-3.482,4.848\O,0,1.931,-3.25
 5,4.669\O,0,0.038,-3.556,6.003\C,0,0.943,-3.583,7.183\H,0,-1.859,3.22,
 2.497\H,0,-0.218,2.453,-3.474\H,0,0.276,-3.747,-2.605\H,0,-1.554,-0.94
 9,5.132\H,0,-1.585,1.831,4.665\H,0,-3.484,-0.377,3.969\H,0,-3.511,1.02
 7,2.858\H,0,-3.852,1.301,4.543\H,0,0.669,1.096,4.966\H,0,1.13,-0.639,5
 .189\H,0,-0.844,0.026,7.125\H,0,0.062,1.477,6.921\H,0,-1.344,5.186,1.9
 38\H,0,-1.651,5.963,0.432\H,0,0.007,6.02,1.084\H,0,-0.635,6.744,-1.405
 \H,0,0.665,6.97,-2.704\H,0,1.048,6.466,-1.036\H,0,0.608,0.501,-4.891\H
 ,0,-0.692,-2.156,-4.547\H,0,-1.267,0.74,-6.129\H,0,-2.204,0.714,-4.596
 \H,0,-1.967,-0.72,-5.453\H,0,1.356,-1.759,-5.967\H,0,1.452,-3.157,-4.9
 02\H,0,2.714,-0.522,-4.798\H,0,3.487,-2.121,-4.529\H,0,2.495,-1.303,-3
 .24\H,0,0.867,-6.333,-0.084\H,0,0.404,-5.642,-1.68\H,0,-0.891,-5.999,-
 0.463\H,0,-1.283,-3.581,4.028\H,0,0.698,-4.478,7.755\H,0,0.833,-2.619,
 7.68\H,0,2.,-3.754,6.976\Mg,0,31.53154,2.84752,2.40127\C,0,33.49429,1.
 94456,5.26682\C,0,28.87148,3.17132,4.51168\C,0,29.67842,3.20531,-0.149
 29\C,0,33.99136,1.36932,0.42392\N,0,31.33382,2.56784,4.58644\C,0,32.16
 174,2.28407,5.58061\C,0,31.5465,2.44708,6.9964\C,0,29.99881,2.26544,6.
 6084\C,0,30.05535,2.72896,5.15423\C,0,29.53876,0.81727,6.63057\C,0,31.
 82263,3.86522,7.60846\C,0,31.52101,3.99024,9.1035\H,0,32.37767,4.84866
 ,9.91698\N,0,29.7072,3.61113,2.23625\C,0,28.7646,3.68214,3.19944\C,0,2
 7.59267,4.31025,2.56997\C,0,27.86312,4.45397,1.11363\C,0,29.11232,3.72
 755,1.00455\C,0,26.40207,4.78043,3.35407\C,0,27.11408,5.12225,0.00073\
 O,0,27.41288,4.91926,-1.22905\C,0,25.96137,5.94786,0.38946\N,0,31.6869
 5,2.17535,0.44005\C,0,30.77058,2.51726,-0.4826\C,0,31.23328,2.15132,-1
 .8727\C,0,32.76225,1.71001,-1.71431\C,0,32.89874,1.81667,-0.17958\C,0,
 30.45018,1.03412,-2.56191\C,0,33.80283,2.4463,-2.60186\C,0,33.91206,3.
 89298,-2.17691\N,0,33.49158,2.00055,2.73138\C,0,34.34023,1.41301,1.767
 71\C,0,35.51318,0.87784,2.48898\C,0,35.25256,1.17316,3.8356\C,0,33.995
 83,1.82698,3.94796\C,0,36.6038,0.17802,1.9\C,0,35.7499,1.07099,5.18871
 \O,0,36.8021,0.69146,5.70114\C,0,34.57528,1.45304,6.18904\C,0,35.12429
 ,2.41923,7.20274\O,0,35.50322,3.55179,6.85588\O,0,34.91033,1.93075,8.4
 3804\C,0,35.42767,2.85902,9.47847\H,0,27.9258,3.08051,5.04677\H,0,29.1
 2981,3.4004,-1.07365\H,0,34.84778,0.98128,-0.13164\H,0,31.84239,1.6878
 9,7.71044\H,0,29.36457,2.92538,7.19457\H,0,30.36119,0.13566,6.78916\H,
 0,29.08048,0.63941,5.66651\H,0,28.74441,0.68538,7.3708\H,0,31.08884,4.
 57685,7.2086\H,0,32.8321,4.17306,7.4165\H,0,31.39293,3.0114,9.58142\H,
 0,30.54921,4.47559,9.22205\H,0,26.4163,4.39078,4.37943\H,0,25.51807,4.
 31926,2.90049\H,0,26.28506,5.86601,3.33182\H,0,25.24606,5.33593,0.9338
 2\H,0,25.61045,6.41299,-0.53379\H,0,26.30456,6.72327,1.08341\H,0,31.18
 119,3.00653,-2.53527\H,0,32.90907,0.65033,-1.96996\H,0,30.02107,1.3382
 3,-3.53528\H,0,29.67057,0.69942,-1.89056\H,0,31.01138,0.11823,-2.73913
 \H,0,33.47447,2.45293,-3.64412\H,0,34.7885,1.99369,-2.57763\H,0,33.076
 05,4.36746,-2.69943\H,0,34.86463,4.31398,-2.49221\H,0,33.7327,4.00173,
 -1.10096\H,0,37.50539,0.56895,2.35255\H,0,36.61621,0.29868,0.81877\H,0
 ,36.36108,-0.84606,2.19598\H,0,34.22539,0.52931,6.65152\H,0,36.12143,2
 .28603,10.10142\H,0,34.53313,3.27874,9.97583\H,0,36.06149,3.67506,9.15
 166\\Version=ES64L-G16RevA.03\State=1-A\HF=-4069.8117768\RMSD=4.537e-0
 9\PG=C01 [X(C68H72Mg2N8O8)]\\@


 TO SEE A WORLD IN A GRAIN OF SAND
 AND A HEAVEN IN A WILD FLOWER
 HOLD INFINITY IN THE PALM OF YOUR HAND
 AND ETERNITY IN AN HOUR

                       -- WILLIAM BLAKE
 Job cpu time:       0 days 10 hours 45 minutes 15.8 seconds.
 Elapsed time:       0 days  0 hours 27 minutes 28.6 seconds.
 File lengths (MBytes):  RWF=  13225 Int=      0 D2E=      0 Chk=    574 Scr=      1
 Normal termination of Gaussian 16 at Sun Sep 12 21:17:18 2021.
