 Entering Gaussian System, Link 0=g16
 Initial command:
 /sw/apps/gaussian-16.0/g16/l1.exe "/tmp/Gau-25562.inp" -scrdir="/tmp/"
 Entering Link 1 = /sw/apps/gaussian-16.0/g16/l1.exe PID=     25563.
  
 Copyright (c) 1988,1990,1992,1993,1995,1998,2003,2009,2016,
            Gaussian, Inc.  All Rights Reserved.
  
 This is part of the Gaussian(R) 16 program.  It is based on
 the Gaussian(R) 09 system (copyright 2009, Gaussian, Inc.),
 the Gaussian(R) 03 system (copyright 2003, Gaussian, Inc.),
 the Gaussian(R) 98 system (copyright 1998, Gaussian, Inc.),
 the Gaussian(R) 94 system (copyright 1995, Gaussian, Inc.),
 the Gaussian 92(TM) system (copyright 1992, Gaussian, Inc.),
 the Gaussian 90(TM) system (copyright 1990, Gaussian, Inc.),
 the Gaussian 88(TM) system (copyright 1988, Gaussian, Inc.),
 the Gaussian 86(TM) system (copyright 1986, Carnegie Mellon
 University), and the Gaussian 82(TM) system (copyright 1983,
 Carnegie Mellon University). Gaussian is a federally registered
 trademark of Gaussian, Inc.
  
 This software contains proprietary and confidential information,
 including trade secrets, belonging to Gaussian, Inc.
  
 This software is provided under written license and may be
 used, copied, transmitted, or stored only in accord with that
 written license.
  
 The following legend is applicable only to US Government
 contracts under FAR:
  
                    RESTRICTED RIGHTS LEGEND
  
 Use, reproduction and disclosure by the US Government is
 subject to restrictions as set forth in subparagraphs (a)
 and (c) of the Commercial Computer Software - Restricted
 Rights clause in FAR 52.227-19.
  
 Gaussian, Inc.
 340 Quinnipiac St., Bldg. 40, Wallingford CT 06492
  
  
 ---------------------------------------------------------------
 Warning -- This program may not be used in any manner that
 competes with the business of Gaussian, Inc. or will provide
 assistance to any competitor of Gaussian, Inc.  The licensee
 of this program is prohibited from giving any competitor of
 Gaussian, Inc. access to this program.  By using this program,
 the user acknowledges that Gaussian, Inc. is engaged in the
 business of creating and licensing software in the field of
 computational chemistry and represents and warrants to the
 licensee that it is not a competitor of Gaussian, Inc. and that
 it will not use this program in any manner prohibited above.
 ---------------------------------------------------------------
  

 Cite this work as:
 Gaussian 16, Revision A.03,
 M. J. Frisch, G. W. Trucks, H. B. Schlegel, G. E. Scuseria, 
 M. A. Robb, J. R. Cheeseman, G. Scalmani, V. Barone, 
 G. A. Petersson, H. Nakatsuji, X. Li, M. Caricato, A. V. Marenich, 
 J. Bloino, B. G. Janesko, R. Gomperts, B. Mennucci, H. P. Hratchian, 
 J. V. Ortiz, A. F. Izmaylov, J. L. Sonnenberg, D. Williams-Young, 
 F. Ding, F. Lipparini, F. Egidi, J. Goings, B. Peng, A. Petrone, 
 T. Henderson, D. Ranasinghe, V. G. Zakrzewski, J. Gao, N. Rega, 
 G. Zheng, W. Liang, M. Hada, M. Ehara, K. Toyota, R. Fukuda, 
 J. Hasegawa, M. Ishida, T. Nakajima, Y. Honda, O. Kitao, H. Nakai, 
 T. Vreven, K. Throssell, J. A. Montgomery, Jr., J. E. Peralta, 
 F. Ogliaro, M. J. Bearpark, J. J. Heyd, E. N. Brothers, K. N. Kudin, 
 V. N. Staroverov, T. A. Keith, R. Kobayashi, J. Normand, 
 K. Raghavachari, A. P. Rendell, J. C. Burant, S. S. Iyengar, 
 J. Tomasi, M. Cossi, J. M. Millam, M. Klene, C. Adamo, R. Cammi, 
 J. W. Ochterski, R. L. Martin, K. Morokuma, O. Farkas, 
 J. B. Foresman, and D. J. Fox, Gaussian, Inc., Wallingford CT, 2016.
 
 ******************************************
 Gaussian 16:  ES64L-G16RevA.03 25-Dec-2016
                12-Sep-2021 
 ******************************************
 %nproc=24
 Will use up to   24 processors via shared memory.
 %mem=175gb
 -----------------------------------
 #p cam-b3lyp/Def2SVP td=(nstates=5)
 -----------------------------------
 1/38=1,172=1/1;
 2/12=2,17=6,18=5,40=1/2;
 3/5=43,7=101,11=9,25=1,30=1,74=-40/1,2,3,8;
 4//1;
 5/5=2,38=5/2;
 8/6=1,10=1,108=5/1;
 9/41=5,42=1,70=2/14;
 6/7=2,8=2,9=2,10=2/1;
 99/5=1,9=1/99;
 Leave Link    1 at Sun Sep 12 04:02:47 2021, MaxMem= 23488102400 cpu:               0.9 elap:               0.0
 (Enter /sw/apps/gaussian-16.0/g16/l101.exe)
 --------------------------------
 TDDFT excited states in gaussian
 --------------------------------
 Symbolic Z-matrix:
 Charge =  0 Multiplicity = 1
 Mg                    0.        0.        0. 
 C                    -0.217    -2.218     2.801 
 C                    -1.255     2.442     2.026 
 C                    -0.245     1.85     -2.564 
 C                     0.146    -2.824    -2.037 
 N                    -0.617    -0.009     2.126 
 C                    -0.594    -0.908     3.105 
 C                    -0.936    -0.309     4.502 
 C                    -1.773     0.964     4.032 
 C                    -1.155     1.168     2.66 
 C                    -3.263     0.685     3.863 
 C                     0.345     0.11      5.299 
 C                     0.124     0.397     6.787 
 H                     1.168     0.033     7.733 
 N                    -0.185     1.961    -0.152 
 C                    -0.703     2.8       0.777 
 C                    -0.62      4.156     0.193 
 C                    -0.187     4.015    -1.225 
 C                    -0.214     2.583    -1.38 
 C                    -0.887     5.406     0.974 
 C                     0.181     5.013    -2.277 
 O                     0.303     4.69     -3.508 
 C                     0.31      6.414    -1.837 
 N                    -0.265    -0.413    -2.029 
 C                    -0.279     0.569    -2.937 
 C                    -0.196     0.024    -4.332 
 C                     0.124    -1.533    -4.18 
 C                     0.086    -1.632    -2.635 
 C                    -1.451     0.205    -5.197 
 C                     1.373    -2.07     -4.923 
 C                     2.626    -1.49     -4.306 
 N                     0.15     -2.144     0.303 
 C                     0.173    -3.136    -0.688 
 C                     0.173    -4.438     0.004 
 C                     0.133    -4.111     1.358 
 C                     0.083    -2.695     1.502 
 C                     0.149    -5.715    -0.623 
 C                     0.096    -4.629     2.716 
 O                     0.208    -5.747     3.221 
 C                    -0.255    -3.428     3.701 
 C                     0.717    -3.482     4.848 
 O                     1.931    -3.255     4.669 
 O                     0.038    -3.556     6.003 
 C                     0.943    -3.583     7.183 
 H                    -1.859     3.22      2.497 
 H                    -0.218     2.453    -3.474 
 H                     0.276    -3.747    -2.605 
 H                    -1.554    -0.949     5.132 
 H                    -1.585     1.831     4.665 
 H                    -3.484    -0.377     3.969 
 H                    -3.511     1.027     2.858 
 H                    -3.852     1.301     4.543 
 H                     0.669     1.096     4.966 
 H                     1.13     -0.639     5.189 
 H                    -0.844     0.026     7.125 
 H                     0.062     1.477     6.921 
 H                    -1.344     5.186     1.938 
 H                    -1.651     5.963     0.432 
 H                     0.007     6.02      1.084 
 H                    -0.635     6.744    -1.405 
 H                     0.665     6.97     -2.704 
 H                     1.048     6.466    -1.036 
 H                     0.608     0.501    -4.891 
 H                    -0.692    -2.156    -4.547 
 H                    -1.267     0.74     -6.129 
 H                    -2.204     0.714    -4.596 
 H                    -1.967    -0.72     -5.453 
 H                     1.356    -1.759    -5.967 
 H                     1.452    -3.157    -4.902 
 H                     2.714    -0.522    -4.798 
 H                     3.487    -2.121    -4.529 
 H                     2.495    -1.303    -3.24 
 H                     0.867    -6.333    -0.084 
 H                     0.404    -5.642    -1.68 
 H                    -0.891    -5.999    -0.463 
 H                    -1.283    -3.581     4.028 
 H                     0.698    -4.478     7.755 
 H                     0.833    -2.619     7.68 
 H                     2.       -3.754     6.976 
 Mg                    15.77265   1.42744   1.20034 
 C                     15.28636   1.52425   4.75466 
 C                     14.60829   4.63205   1.104 
 C                     15.76259   1.22329  -1.96599 
 C                     15.79847  -2.0494    1.43828 
 N                     15.06979   2.79477   2.7905 
 C                     14.98802   2.74358   4.1115 
 C                     14.64009   4.09702   4.78731 
 C                     13.90575   4.80372   3.54627 
 C                     14.59091   4.0605    2.40135 
 C                     12.416    4.51065   3.48215 
 C                     15.9195   4.89223   5.22636 
 C                     15.6533   6.07128   6.16483 
 H                     16.63658   6.3711    7.20201 
 N                     15.73268   2.85428  -0.17846 
 C                     15.24437   4.10489  -0.04135 
 C                     15.43074   4.75504  -1.34778 
 C                     15.91811   3.73401  -2.31457 
 C                     15.80096   2.53343  -1.51147 
 C                     15.22802   6.22716  -1.56037 
 C                     16.39675   3.82168  -3.73211 
 O                     16.54694   2.77603  -4.45798 
 C                     16.59496   5.17364  -4.27471 
 N                     15.56795  -0.17478  -0.10861 
 C                     15.65316   0.0038   -1.43856 
 C                     15.75222  -1.31844  -2.16124 
 C                     15.96017  -2.41798  -1.01871 
 C                     15.8513  -1.5119    0.2273 
 C                     14.54648  -1.6991   -3.02011 
 C                     17.19872  -3.34583  -1.15197 
 C                     18.46667  -2.54415  -0.96493 
 N                     15.76588  -0.02202   2.80255 
 C                     15.75314  -1.42876   2.68011 
 C                     15.63481  -1.98345   4.0442 
 C                     15.56317  -0.85167   4.87029 
 C                     15.61166   0.32529   4.07537 
 C                     15.55764  -3.36539   4.37648 
 C                     15.44685  -0.38502   6.23316 
 O                     15.45356  -0.92361   7.33933 
 C                     15.13509   1.17338   6.20883 
 C                     16.05412   1.8463    7.19122 
 O                     17.28303   1.85856   7.00091 
 O                     15.31891   2.54745   8.0734 
 C                     16.18641   3.2419    9.06184 
 H                     14.04654   5.55104   0.93436 
 H                     15.86817   1.09555  -3.04581 
 H                     15.89825  -3.12411   1.6048 
 H                     13.9611   4.02351   5.62835 
 H                     14.13572   5.86515   3.50351 
 H                     12.1177   3.77723   4.21649 
 H                     12.23167   4.14116   2.48188 
 H                     11.84498   5.43935   3.57037 
 H                     16.32215   5.43011   4.35844 
 H                     16.64356   4.23534   5.6678 
 H                     14.6431   6.03918   6.59074 
 H                     15.66731   6.99249   5.57729 
 H                     14.71095   6.68892  -0.71019 
 H                     14.52799   6.33617  -2.3958 
 H                     16.15544   6.7489   -1.80603 
 H                     15.66002   5.72605  -4.21834 
 H                     17.02355   5.02977  -5.26843 
 H                     17.31269   5.70402  -3.63895 
 H                     16.60887  -1.3338   -2.82382 
 H                     15.1154  -3.12078  -0.97098 
 H                     14.80721  -1.89026  -4.0782 
 H                     13.81166  -0.90843  -2.94642 
 H                     13.98784  -2.56673  -2.67321 
 H                     17.24634  -3.77189  -2.15714 
 H                     17.1955  -4.17388  -0.45103 
 H                     18.63575  -2.11475  -1.95695 
 H                     19.28955  -3.1921   -0.66982 
 H                     18.30745  -1.71263  -0.26859 
 H                     16.20221  -3.51632   5.23219 
 H                     15.85436  -3.99292   3.53866 
 H                     14.49059  -3.45352   4.59764 
 H                     14.08547   1.3017    6.47604 
 H                     15.85349   2.9273    10.05576 
 H                     16.10916   4.31912   8.8223 
 H                     17.23356   2.96439   9.09188 
 
 ITRead=  0  0  0  0  0  0  0  0  0  0  0  0  0  0  0  0  0  0  0  0
 ITRead=  0  0  0  0  0  0  0  0  0  0  0  0  0  0  0  0  0  0  0  0
 ITRead=  0  0  0  0  0  0  0  0  0  0  0  0  0  0  0  0  0  0  0  0
 ITRead=  0  0  0  0  0  0  0  0  0  0  0  0  0  0  0  0  0  0  0  0
 ITRead=  0  0  0  0  0  0  0  0  0  0  0  0  0  0  0  0  0  0  0  0
 ITRead=  0  0  0  0  0  0  0  0  0  0  0  0  0  0  0  0  0  0  0  0
 ITRead=  0  0  0  0  0  0  0  0  0  0  0  0  0  0  0  0  0  0  0  0
 ITRead=  0  0  0  0  0  0  0  0  0  0  0  0  0  0  0  0  0  0
 MicOpt= -1 -1 -1 -1 -1 -1 -1 -1 -1 -1 -1 -1 -1 -1 -1 -1 -1 -1 -1 -1
 MicOpt= -1 -1 -1 -1 -1 -1 -1 -1 -1 -1 -1 -1 -1 -1 -1 -1 -1 -1 -1 -1
 MicOpt= -1 -1 -1 -1 -1 -1 -1 -1 -1 -1 -1 -1 -1 -1 -1 -1 -1 -1 -1 -1
 MicOpt= -1 -1 -1 -1 -1 -1 -1 -1 -1 -1 -1 -1 -1 -1 -1 -1 -1 -1 -1 -1
 MicOpt= -1 -1 -1 -1 -1 -1 -1 -1 -1 -1 -1 -1 -1 -1 -1 -1 -1 -1 -1 -1
 MicOpt= -1 -1 -1 -1 -1 -1 -1 -1 -1 -1 -1 -1 -1 -1 -1 -1 -1 -1 -1 -1
 MicOpt= -1 -1 -1 -1 -1 -1 -1 -1 -1 -1 -1 -1 -1 -1 -1 -1 -1 -1 -1 -1
 MicOpt= -1 -1 -1 -1 -1 -1 -1 -1 -1 -1 -1 -1 -1 -1 -1 -1 -1 -1
 NAtoms=    158 NQM=      158 NQMF=       0 NMMI=      0 NMMIF=      0
                NMic=       0 NMicF=      0.
                    Isotopes and Nuclear Properties:
 (Nuclear quadrupole moments (NQMom) in fm**2, nuclear magnetic moments (NMagM)
  in nuclear magnetons)

  Atom         1           2           3           4           5           6           7           8           9          10
 IAtWgt=          24          12          12          12          12          14          12          12          12          12
 AtmWgt=  23.9850450  12.0000000  12.0000000  12.0000000  12.0000000  14.0030740  12.0000000  12.0000000  12.0000000  12.0000000
 NucSpn=           0           0           0           0           0           2           0           0           0           0
 AtZEff=  -0.0000000  -0.0000000  -0.0000000  -0.0000000  -0.0000000  -0.0000000  -0.0000000  -0.0000000  -0.0000000  -0.0000000
 NQMom=    0.0000000   0.0000000   0.0000000   0.0000000   0.0000000   2.0440000   0.0000000   0.0000000   0.0000000   0.0000000
 NMagM=    0.0000000   0.0000000   0.0000000   0.0000000   0.0000000   0.4037610   0.0000000   0.0000000   0.0000000   0.0000000
 AtZNuc=  12.0000000   6.0000000   6.0000000   6.0000000   6.0000000   7.0000000   6.0000000   6.0000000   6.0000000   6.0000000

  Atom        11          12          13          14          15          16          17          18          19          20
 IAtWgt=          12          12          12           1          14          12          12          12          12          12
 AtmWgt=  12.0000000  12.0000000  12.0000000   1.0078250  14.0030740  12.0000000  12.0000000  12.0000000  12.0000000  12.0000000
 NucSpn=           0           0           0           1           2           0           0           0           0           0
 AtZEff=  -0.0000000  -0.0000000  -0.0000000  -0.0000000  -0.0000000  -0.0000000  -0.0000000  -0.0000000  -0.0000000  -0.0000000
 NQMom=    0.0000000   0.0000000   0.0000000   0.0000000   2.0440000   0.0000000   0.0000000   0.0000000   0.0000000   0.0000000
 NMagM=    0.0000000   0.0000000   0.0000000   2.7928460   0.4037610   0.0000000   0.0000000   0.0000000   0.0000000   0.0000000
 AtZNuc=   6.0000000   6.0000000   6.0000000   1.0000000   7.0000000   6.0000000   6.0000000   6.0000000   6.0000000   6.0000000

  Atom        21          22          23          24          25          26          27          28          29          30
 IAtWgt=          12          16          12          14          12          12          12          12          12          12
 AtmWgt=  12.0000000  15.9949146  12.0000000  14.0030740  12.0000000  12.0000000  12.0000000  12.0000000  12.0000000  12.0000000
 NucSpn=           0           0           0           2           0           0           0           0           0           0
 AtZEff=  -0.0000000  -0.0000000  -0.0000000  -0.0000000  -0.0000000  -0.0000000  -0.0000000  -0.0000000  -0.0000000  -0.0000000
 NQMom=    0.0000000   0.0000000   0.0000000   2.0440000   0.0000000   0.0000000   0.0000000   0.0000000   0.0000000   0.0000000
 NMagM=    0.0000000   0.0000000   0.0000000   0.4037610   0.0000000   0.0000000   0.0000000   0.0000000   0.0000000   0.0000000
 AtZNuc=   6.0000000   8.0000000   6.0000000   7.0000000   6.0000000   6.0000000   6.0000000   6.0000000   6.0000000   6.0000000

  Atom        31          32          33          34          35          36          37          38          39          40
 IAtWgt=          12          14          12          12          12          12          12          12          16          12
 AtmWgt=  12.0000000  14.0030740  12.0000000  12.0000000  12.0000000  12.0000000  12.0000000  12.0000000  15.9949146  12.0000000
 NucSpn=           0           2           0           0           0           0           0           0           0           0
 AtZEff=  -0.0000000  -0.0000000  -0.0000000  -0.0000000  -0.0000000  -0.0000000  -0.0000000  -0.0000000  -0.0000000  -0.0000000
 NQMom=    0.0000000   2.0440000   0.0000000   0.0000000   0.0000000   0.0000000   0.0000000   0.0000000   0.0000000   0.0000000
 NMagM=    0.0000000   0.4037610   0.0000000   0.0000000   0.0000000   0.0000000   0.0000000   0.0000000   0.0000000   0.0000000
 AtZNuc=   6.0000000   7.0000000   6.0000000   6.0000000   6.0000000   6.0000000   6.0000000   6.0000000   8.0000000   6.0000000

  Atom        41          42          43          44          45          46          47          48          49          50
 IAtWgt=          12          16          16          12           1           1           1           1           1           1
 AtmWgt=  12.0000000  15.9949146  15.9949146  12.0000000   1.0078250   1.0078250   1.0078250   1.0078250   1.0078250   1.0078250
 NucSpn=           0           0           0           0           1           1           1           1           1           1
 AtZEff=  -0.0000000  -0.0000000  -0.0000000  -0.0000000  -0.0000000  -0.0000000  -0.0000000  -0.0000000  -0.0000000  -0.0000000
 NQMom=    0.0000000   0.0000000   0.0000000   0.0000000   0.0000000   0.0000000   0.0000000   0.0000000   0.0000000   0.0000000
 NMagM=    0.0000000   0.0000000   0.0000000   0.0000000   2.7928460   2.7928460   2.7928460   2.7928460   2.7928460   2.7928460
 AtZNuc=   6.0000000   8.0000000   8.0000000   6.0000000   1.0000000   1.0000000   1.0000000   1.0000000   1.0000000   1.0000000

  Atom        51          52          53          54          55          56          57          58          59          60
 IAtWgt=           1           1           1           1           1           1           1           1           1           1
 AtmWgt=   1.0078250   1.0078250   1.0078250   1.0078250   1.0078250   1.0078250   1.0078250   1.0078250   1.0078250   1.0078250
 NucSpn=           1           1           1           1           1           1           1           1           1           1
 AtZEff=  -0.0000000  -0.0000000  -0.0000000  -0.0000000  -0.0000000  -0.0000000  -0.0000000  -0.0000000  -0.0000000  -0.0000000
 NQMom=    0.0000000   0.0000000   0.0000000   0.0000000   0.0000000   0.0000000   0.0000000   0.0000000   0.0000000   0.0000000
 NMagM=    2.7928460   2.7928460   2.7928460   2.7928460   2.7928460   2.7928460   2.7928460   2.7928460   2.7928460   2.7928460
 AtZNuc=   1.0000000   1.0000000   1.0000000   1.0000000   1.0000000   1.0000000   1.0000000   1.0000000   1.0000000   1.0000000

  Atom        61          62          63          64          65          66          67          68          69          70
 IAtWgt=           1           1           1           1           1           1           1           1           1           1
 AtmWgt=   1.0078250   1.0078250   1.0078250   1.0078250   1.0078250   1.0078250   1.0078250   1.0078250   1.0078250   1.0078250
 NucSpn=           1           1           1           1           1           1           1           1           1           1
 AtZEff=  -0.0000000  -0.0000000  -0.0000000  -0.0000000  -0.0000000  -0.0000000  -0.0000000  -0.0000000  -0.0000000  -0.0000000
 NQMom=    0.0000000   0.0000000   0.0000000   0.0000000   0.0000000   0.0000000   0.0000000   0.0000000   0.0000000   0.0000000
 NMagM=    2.7928460   2.7928460   2.7928460   2.7928460   2.7928460   2.7928460   2.7928460   2.7928460   2.7928460   2.7928460
 AtZNuc=   1.0000000   1.0000000   1.0000000   1.0000000   1.0000000   1.0000000   1.0000000   1.0000000   1.0000000   1.0000000

  Atom        71          72          73          74          75          76          77          78          79          80
 IAtWgt=           1           1           1           1           1           1           1           1           1          24
 AtmWgt=   1.0078250   1.0078250   1.0078250   1.0078250   1.0078250   1.0078250   1.0078250   1.0078250   1.0078250  23.9850450
 NucSpn=           1           1           1           1           1           1           1           1           1           0
 AtZEff=  -0.0000000  -0.0000000  -0.0000000  -0.0000000  -0.0000000  -0.0000000  -0.0000000  -0.0000000  -0.0000000  -0.0000000
 NQMom=    0.0000000   0.0000000   0.0000000   0.0000000   0.0000000   0.0000000   0.0000000   0.0000000   0.0000000   0.0000000
 NMagM=    2.7928460   2.7928460   2.7928460   2.7928460   2.7928460   2.7928460   2.7928460   2.7928460   2.7928460   0.0000000
 AtZNuc=   1.0000000   1.0000000   1.0000000   1.0000000   1.0000000   1.0000000   1.0000000   1.0000000   1.0000000  12.0000000

  Atom        81          82          83          84          85          86          87          88          89          90
 IAtWgt=          12          12          12          12          14          12          12          12          12          12
 AtmWgt=  12.0000000  12.0000000  12.0000000  12.0000000  14.0030740  12.0000000  12.0000000  12.0000000  12.0000000  12.0000000
 NucSpn=           0           0           0           0           2           0           0           0           0           0
 AtZEff=  -0.0000000  -0.0000000  -0.0000000  -0.0000000  -0.0000000  -0.0000000  -0.0000000  -0.0000000  -0.0000000  -0.0000000
 NQMom=    0.0000000   0.0000000   0.0000000   0.0000000   2.0440000   0.0000000   0.0000000   0.0000000   0.0000000   0.0000000
 NMagM=    0.0000000   0.0000000   0.0000000   0.0000000   0.4037610   0.0000000   0.0000000   0.0000000   0.0000000   0.0000000
 AtZNuc=   6.0000000   6.0000000   6.0000000   6.0000000   7.0000000   6.0000000   6.0000000   6.0000000   6.0000000   6.0000000

  Atom        91          92          93          94          95          96          97          98          99         100
 IAtWgt=          12          12           1          14          12          12          12          12          12          12
 AtmWgt=  12.0000000  12.0000000   1.0078250  14.0030740  12.0000000  12.0000000  12.0000000  12.0000000  12.0000000  12.0000000
 NucSpn=           0           0           1           2           0           0           0           0           0           0
 AtZEff=  -0.0000000  -0.0000000  -0.0000000  -0.0000000  -0.0000000  -0.0000000  -0.0000000  -0.0000000  -0.0000000  -0.0000000
 NQMom=    0.0000000   0.0000000   0.0000000   2.0440000   0.0000000   0.0000000   0.0000000   0.0000000   0.0000000   0.0000000
 NMagM=    0.0000000   0.0000000   2.7928460   0.4037610   0.0000000   0.0000000   0.0000000   0.0000000   0.0000000   0.0000000
 AtZNuc=   6.0000000   6.0000000   1.0000000   7.0000000   6.0000000   6.0000000   6.0000000   6.0000000   6.0000000   6.0000000

  Atom       101         102         103         104         105         106         107         108         109         110
 IAtWgt=          16          12          14          12          12          12          12          12          12          12
 AtmWgt=  15.9949146  12.0000000  14.0030740  12.0000000  12.0000000  12.0000000  12.0000000  12.0000000  12.0000000  12.0000000
 NucSpn=           0           0           2           0           0           0           0           0           0           0
 AtZEff=  -0.0000000  -0.0000000  -0.0000000  -0.0000000  -0.0000000  -0.0000000  -0.0000000  -0.0000000  -0.0000000  -0.0000000
 NQMom=    0.0000000   0.0000000   2.0440000   0.0000000   0.0000000   0.0000000   0.0000000   0.0000000   0.0000000   0.0000000
 NMagM=    0.0000000   0.0000000   0.4037610   0.0000000   0.0000000   0.0000000   0.0000000   0.0000000   0.0000000   0.0000000
 AtZNuc=   8.0000000   6.0000000   7.0000000   6.0000000   6.0000000   6.0000000   6.0000000   6.0000000   6.0000000   6.0000000

  Atom       111         112         113         114         115         116         117         118         119         120
 IAtWgt=          14          12          12          12          12          12          12          16          12          12
 AtmWgt=  14.0030740  12.0000000  12.0000000  12.0000000  12.0000000  12.0000000  12.0000000  15.9949146  12.0000000  12.0000000
 NucSpn=           2           0           0           0           0           0           0           0           0           0
 AtZEff=  -0.0000000  -0.0000000  -0.0000000  -0.0000000  -0.0000000  -0.0000000  -0.0000000  -0.0000000  -0.0000000  -0.0000000
 NQMom=    2.0440000   0.0000000   0.0000000   0.0000000   0.0000000   0.0000000   0.0000000   0.0000000   0.0000000   0.0000000
 NMagM=    0.4037610   0.0000000   0.0000000   0.0000000   0.0000000   0.0000000   0.0000000   0.0000000   0.0000000   0.0000000
 AtZNuc=   7.0000000   6.0000000   6.0000000   6.0000000   6.0000000   6.0000000   6.0000000   8.0000000   6.0000000   6.0000000

  Atom       121         122         123         124         125         126         127         128         129         130
 IAtWgt=          16          16          12           1           1           1           1           1           1           1
 AtmWgt=  15.9949146  15.9949146  12.0000000   1.0078250   1.0078250   1.0078250   1.0078250   1.0078250   1.0078250   1.0078250
 NucSpn=           0           0           0           1           1           1           1           1           1           1
 AtZEff=  -0.0000000  -0.0000000  -0.0000000  -0.0000000  -0.0000000  -0.0000000  -0.0000000  -0.0000000  -0.0000000  -0.0000000
 NQMom=    0.0000000   0.0000000   0.0000000   0.0000000   0.0000000   0.0000000   0.0000000   0.0000000   0.0000000   0.0000000
 NMagM=    0.0000000   0.0000000   0.0000000   2.7928460   2.7928460   2.7928460   2.7928460   2.7928460   2.7928460   2.7928460
 AtZNuc=   8.0000000   8.0000000   6.0000000   1.0000000   1.0000000   1.0000000   1.0000000   1.0000000   1.0000000   1.0000000

  Atom       131         132         133         134         135         136         137         138         139         140
 IAtWgt=           1           1           1           1           1           1           1           1           1           1
 AtmWgt=   1.0078250   1.0078250   1.0078250   1.0078250   1.0078250   1.0078250   1.0078250   1.0078250   1.0078250   1.0078250
 NucSpn=           1           1           1           1           1           1           1           1           1           1
 AtZEff=  -0.0000000  -0.0000000  -0.0000000  -0.0000000  -0.0000000  -0.0000000  -0.0000000  -0.0000000  -0.0000000  -0.0000000
 NQMom=    0.0000000   0.0000000   0.0000000   0.0000000   0.0000000   0.0000000   0.0000000   0.0000000   0.0000000   0.0000000
 NMagM=    2.7928460   2.7928460   2.7928460   2.7928460   2.7928460   2.7928460   2.7928460   2.7928460   2.7928460   2.7928460
 AtZNuc=   1.0000000   1.0000000   1.0000000   1.0000000   1.0000000   1.0000000   1.0000000   1.0000000   1.0000000   1.0000000

  Atom       141         142         143         144         145         146         147         148         149         150
 IAtWgt=           1           1           1           1           1           1           1           1           1           1
 AtmWgt=   1.0078250   1.0078250   1.0078250   1.0078250   1.0078250   1.0078250   1.0078250   1.0078250   1.0078250   1.0078250
 NucSpn=           1           1           1           1           1           1           1           1           1           1
 AtZEff=  -0.0000000  -0.0000000  -0.0000000  -0.0000000  -0.0000000  -0.0000000  -0.0000000  -0.0000000  -0.0000000  -0.0000000
 NQMom=    0.0000000   0.0000000   0.0000000   0.0000000   0.0000000   0.0000000   0.0000000   0.0000000   0.0000000   0.0000000
 NMagM=    2.7928460   2.7928460   2.7928460   2.7928460   2.7928460   2.7928460   2.7928460   2.7928460   2.7928460   2.7928460
 AtZNuc=   1.0000000   1.0000000   1.0000000   1.0000000   1.0000000   1.0000000   1.0000000   1.0000000   1.0000000   1.0000000

  Atom       151         152         153         154         155         156         157         158
 IAtWgt=           1           1           1           1           1           1           1           1
 AtmWgt=   1.0078250   1.0078250   1.0078250   1.0078250   1.0078250   1.0078250   1.0078250   1.0078250
 NucSpn=           1           1           1           1           1           1           1           1
 AtZEff=  -0.0000000  -0.0000000  -0.0000000  -0.0000000  -0.0000000  -0.0000000  -0.0000000  -0.0000000
 NQMom=    0.0000000   0.0000000   0.0000000   0.0000000   0.0000000   0.0000000   0.0000000   0.0000000
 NMagM=    2.7928460   2.7928460   2.7928460   2.7928460   2.7928460   2.7928460   2.7928460   2.7928460
 AtZNuc=   1.0000000   1.0000000   1.0000000   1.0000000   1.0000000   1.0000000   1.0000000   1.0000000
 Leave Link  101 at Sun Sep 12 04:02:47 2021, MaxMem= 23488102400 cpu:               5.4 elap:               0.2
 (Enter /sw/apps/gaussian-16.0/g16/l202.exe)
 Stoichiometry    C68H72Mg2N8O8
 Framework group  C1[X(C68H72Mg2N8O8)]
 Deg. of freedom   468
 Full point group                 C1      NOp   1
 Largest Abelian subgroup         C1      NOp   1
 Largest concise Abelian subgroup C1      NOp   1
                         Standard orientation:                         
 ---------------------------------------------------------------------
 Center     Atomic      Atomic             Coordinates (Angstroms)
 Number     Number       Type             X           Y           Z
 ---------------------------------------------------------------------
      1         12           0        7.854922   -0.719564    0.193083
      2          6           0        8.100788    2.562184   -1.214716
      3          6           0        8.625493    0.678199    3.208965
      4          6           0        8.090537   -3.654597    1.370659
      5          6           0        8.228500   -1.972928   -3.037270
      6          7           0        8.284742    1.367334    0.793716
      7          6           0        8.288014    2.540833    0.169168
      8          6           0        8.434007    3.754432    1.135210
      9          6           0        9.146669    3.019098    2.357256
     10          6           0        8.627758    1.610342    2.129087
     11          6           0       10.668509    3.004415    2.255818
     12          6           0        7.048194    4.350535    1.554630
     13          6           0        7.104790    5.725364    2.226938
     14          1           0        6.036043    6.677490    1.965054
     15          7           0        7.811863   -1.357310    2.062381
     16          6           0        8.142586   -0.647693    3.167981
     17          6           0        7.945098   -1.561984    4.313299
     18          6           0        7.655096   -2.917491    3.768695
     19          6           0        7.869528   -2.700192    2.360797
     20          6           0        7.990158   -1.113190    5.741691
     21          6           0        7.259340   -4.207017    4.415714
     22          8           0        7.283100   -5.319394    3.785931
     23          6           0        6.923503   -4.146530    5.849798
     24          7           0        8.340436   -2.559351   -0.665460
     25          6           0        8.312092   -3.685955    0.054917
     26          6           0        8.415465   -4.897978   -0.822723
     27          6           0        8.275794   -4.370361   -2.323345
     28          6           0        8.193601   -2.851455   -2.032761
     29          6           0        9.708253   -5.714245   -0.687009
     30          6           0        7.169532   -5.015396   -3.195431
     31          6           0        5.807147   -4.632725   -2.661982
     32          7           0        7.942007    0.112499   -1.809698
     33          6           0        8.124712   -0.592253   -3.008288
     34          6           0        8.224327    0.408221   -4.086804
     35          6           0        8.108497    1.634078   -3.434346
     36          6           0        7.973097    1.414236   -2.033765
     37          6           0        8.457179    0.130092   -5.462616
     38          6           0        8.092332    3.079347   -3.591812
     39          8           0        8.074728    3.846499   -4.555483
     40          6           0        8.209020    3.741963   -2.148500
     41          6           0        7.156544    4.812749   -2.053537
     42          8           0        5.943664    4.519032   -2.049138
     43          8           0        7.738450    5.981975   -1.745578
     44          6           0        6.746122    7.081204   -1.607254
     45          1           0        9.087774    0.965657    4.155329
     46          1           0        8.068005   -4.688510    1.721306
     47          1           0        8.260892   -2.292445   -4.080492
     48          1           0        9.069364    4.558102    0.762570
     49          1           0        8.801093    3.399178    3.318421
     50          1           0       11.007422    3.389313    1.294095
     51          1           0       10.957829    1.959666    2.371089
     52          1           0       11.117864    3.534234    3.096145
     53          1           0        6.636059    3.760533    2.373228
     54          1           0        6.372590    4.394826    0.699690
     55          1           0        8.078388    6.196595    2.089251
     56          1           0        7.023056    5.582260    3.304454
     57          1           0        8.386624   -0.102612    5.831650
     58          1           0        8.724028   -1.739049    6.249080
     59          1           0        7.021896   -1.210080    6.233030
     60          1           0        7.780910   -3.764682    6.404408
     61          1           0        6.578679   -5.143938    6.120211
     62          1           0        6.119029   -3.424724    5.993905
     63          1           0        7.609983   -5.601135   -0.614888
     64          1           0        9.189949   -4.523346   -2.897444
     65          1           0        9.540632   -6.760181   -0.428891
     66          1           0       10.339563   -5.224880    0.054112
     67          1           0       10.353077   -5.698525   -1.565286
     68          1           0        7.237528   -6.101863   -3.151703
     69          1           0        7.222082   -4.721737   -4.243884
     70          1           0        5.644146   -5.359406   -1.866873
     71          1           0        5.051651   -4.731596   -3.442150
     72          1           0        5.822939   -3.644468   -2.201998
     73          1           0        7.776486    0.771011   -6.022838
     74          1           0        8.286314   -0.922276   -5.688294
     75          1           0        9.506562    0.410992   -5.550625
     76          1           0        9.216323    4.150035   -2.071432
     77          1           0        7.048653    7.874629   -2.290764
     78          1           0        6.695014    7.320669   -0.544969
     79          1           0        5.739385    6.870192   -1.969600
     80         12           0       -8.018591   -0.742909   -0.341645
     81          6           0       -7.852799    2.689212    0.693777
     82          6           0       -7.249485   -1.593592    2.870730
     83          6           0       -7.713583   -3.747296   -1.315325
     84          6           0       -7.640734    0.373015   -3.621529
     85          7           0       -7.625865    0.479761    1.459203
     86          6           0       -7.651487    1.772465    1.746619
     87          6           0       -7.530028    2.097492    3.259623
     88          6           0       -6.784081    0.756973    3.734420
     89          6           0       -7.273351   -0.194227    2.644239
     90          6           0       -5.269723    0.847127    3.645265
     91          6           0       -8.929570    2.252050    3.952014
     92          6           0       -8.890093    2.870948    5.350997
     93          1           0       -9.987470    3.744801    5.756729
     94          7           0       -8.035290   -2.436269    0.693156
     95          6           0       -7.716514   -2.597816    1.994523
     96          6           0       -7.868561   -4.034774    2.270606
     97          6           0       -8.143588   -4.732821    0.985380
     98          6           0       -7.949965   -3.644897    0.047820
     99          6           0       -7.829352   -4.605303    3.658549
    100          6           0       -8.506627   -6.148623    0.653856
    101          8           0       -8.465783   -6.590299   -0.548675
    102          6           0       -8.821083   -7.027886    1.789423
    103          7           0       -7.509227   -1.587057   -2.172034
    104          6           0       -7.501767   -2.921099   -2.339945
    105          6           0       -7.376928   -3.286438   -3.799857
    106          6           0       -7.546065   -1.913452   -4.602297
    107          6           0       -7.655144   -0.936108   -3.411383
    108          6           0       -6.064930   -3.955965   -4.208223
    109          6           0       -8.646392   -1.869481   -5.697749
    110          6           0      -10.013887   -1.959292   -5.059576
    111          7           0       -7.971979    1.174346   -1.336642
    112          6           0       -7.777505    1.415893   -2.714287
    113          6           0       -7.709294    2.880624   -2.894105
    114          6           0       -7.846862    3.393000   -1.595248
    115          6           0       -7.970408    2.322564   -0.668756
    116          6           0       -7.492931    3.558204   -4.127067
    117          6           0       -7.904996    4.595731   -0.796019
    118          8           0       -7.940387    5.800852   -1.041307
    119          6           0       -7.784538    4.190592    0.736218
    120          6           0       -8.859172    4.919636    1.495286
    121          8           0      -10.059662    4.669043    1.288853
    122          8           0       -8.292862    5.630501    2.487431
    123          6           0       -9.319679    6.362563    3.275824
    124          1           0       -6.791500   -1.962838    3.788766
    125          1           0       -7.710280   -4.762705   -1.718326
    126          1           0       -7.622647    0.802954   -4.625277
    127          1           0       -6.921401    2.963471    3.490781
    128          1           0       -7.137191    0.432812    4.709911
    129          1           0       -4.948028    1.758805    3.164122
    130          1           0       -4.957065   -0.014733    3.070389
    131          1           0       -4.825758    0.724841    4.637369
    132          1           0       -9.319227    1.255908    4.198177
    133          1           0       -9.603192    2.808390    3.329635
    134          1           0       -7.923565    3.342731    5.565889
    135          1           0       -8.966072    2.067806    6.088030
    136          1           0       -7.446852   -3.875535    4.382788
    137          1           0       -7.079108   -5.403421    3.655108
    138          1           0       -8.789070   -5.023757    3.969205
    139          1           0       -7.968675   -7.065996    2.463511
    140          1           0       -9.142578   -7.972799    1.347102
    141          1           0       -9.649709   -6.586681    2.354532
    142          1           0       -8.165636   -3.966643   -4.097106
    143          1           0       -6.629123   -1.644161   -5.146855
    144          1           0       -6.209178   -4.942250   -4.688340
    145          1           0       -5.440927   -4.048551   -3.329248
    146          1           0       -5.436377   -3.370592   -4.877148
    147          1           0       -8.555791   -2.733660   -6.360432
    148          1           0       -8.602112   -0.981195   -6.319022
    149          1           0      -10.148764   -3.035446   -4.915437
    150          1           0      -10.773832   -1.551635   -5.723173
    151          1           0      -10.017188   -1.490997   -4.068438
    152          1           0       -8.184953    4.389478   -4.151110
    153          1           0       -7.638387    2.894112   -4.976539
    154          1           0       -6.445887    3.849556   -4.008382
    155          1           0       -6.785036    4.470247    1.071416
    156          1           0       -9.036937    7.419742    3.265109
    157          1           0       -9.354120    5.860315    4.260867
    158          1           0      -10.323922    6.408108    2.871030
 ---------------------------------------------------------------------
 Rotational constants (GHZ):           0.0202512           0.0059461           0.0055870
 Leave Link  202 at Sun Sep 12 04:02:47 2021, MaxMem= 23488102400 cpu:               0.2 elap:               0.0
 (Enter /sw/apps/gaussian-16.0/g16/l301.exe)
 Standard basis: def2SVP (5D, 7F)
 Ernie: Thresh=  0.10000D-02 Tol=  0.10000D-05 Strict=F.
 There are  1658 symmetry adapted cartesian basis functions of A   symmetry.
 There are  1572 symmetry adapted basis functions of A   symmetry.
  1572 basis functions,  2678 primitive gaussians,  1658 cartesian basis functions
   312 alpha electrons      312 beta electrons
       nuclear repulsion energy     13737.9097685993 Hartrees.
 IExCor=20419 DFT=T Ex+Corr=CAM-B3LYP ExCW=0 ScaHFX=  1.000000
 ScaDFX=  1.000000  1.000000  1.000000  0.810000 ScalE2=  1.000000  1.000000
 IRadAn=      5 IRanWt=     -1 IRanGd=            0 ICorTp=0 IEmpDi=  4
 HFx  wShort=  0.000000 wLong=  0.330000 cFull=  0.190000 cShort=  0.000000 cLong=  0.460000
 DFx  wShort=  0.000000 wLong=  0.330000 cFull=  0.190000 cShort=  0.000000 cLong=  0.460000
 NAtoms=  158 NActive=  158 NUniq=  158 SFac= 1.00D+00 NAtFMM=   60 NAOKFM=T Big=T
 Integral buffers will be    131072 words long.
 Raffenetti 1 integral format.
 Two-electron integral symmetry is turned on.
 Leave Link  301 at Sun Sep 12 04:02:47 2021, MaxMem= 23488102400 cpu:               1.4 elap:               0.1
 (Enter /sw/apps/gaussian-16.0/g16/l302.exe)
 NPDir=0 NMtPBC=     1 NCelOv=     1 NCel=       1 NClECP=     1 NCelD=      1
         NCelK=      1 NCelE2=     1 NClLst=     1 CellRange=     0.0.
 One-electron integrals computed using PRISM.
 One-electron integral symmetry used in STVInt
   1 Symmetry operations used in ECPInt.
 ECPInt:  NShTT=  271216 NPrTT=  987664 LenC2=  107268 LenP2D=  244203.
 LDataN:  DoStor=T MaxTD1= 4 Len=   56
 NBasis=  1572 RedAO= T EigKep=  3.36D-04  NBF=  1572
 NBsUse=  1572 1.00D-06 EigRej= -1.00D+00 NBFU=  1572
 Precomputing XC quadrature grid using
 IXCGrd= 4 IRadAn=           5 IRanWt=          -1 IRanGd=           0 AccXCQ= 0.00D+00.
 Generated NRdTot=       0 NPtTot=           0 NUsed=           0 NTot=          32
 NSgBfM=   863   833   845   862   863 MxSgAt=   158 MxSgA2=   147.
 Leave Link  302 at Sun Sep 12 04:02:52 2021, MaxMem= 23488102400 cpu:             110.1 elap:               4.6
 (Enter /sw/apps/gaussian-16.0/g16/l303.exe)
 DipDrv:  MaxL=1.
 Leave Link  303 at Sun Sep 12 04:02:53 2021, MaxMem= 23488102400 cpu:              10.9 elap:               0.5
 (Enter /sw/apps/gaussian-16.0/g16/l308.exe)
 Leave Link  308 at Sun Sep 12 04:02:53 2021, MaxMem= 23488102400 cpu:              12.1 elap:               0.6
 (Enter /sw/apps/gaussian-16.0/g16/l401.exe)
 ExpMin= 3.36D-02 ExpMax= 4.95D+03 ExpMxC= 7.45D+02 IAcc=3 IRadAn=         5 AccDes= 0.00D+00
 Harris functional with IExCor=20419 and IRadAn=       5 diagonalized for initial guess.
 HarFok:  IExCor=20419 AccDes= 0.00D+00 IRadAn=         5 IDoV= 1 UseB2=F ITyADJ=14
 ICtDFT=  3500011 ScaDFX=  1.000000  1.000000  1.000000  1.000000
 FoFCou: FMM=F IPFlag=           0 FMFlag=      100000 FMFlg1=        2001
         NFxFlg=           0 DoJE=T BraDBF=F KetDBF=T FulRan=T
         wScrn=  0.000000 ICntrl=       500 IOpCl=  0 I1Cent=   200000004 NGrid=           0
         NMat0=    1 NMatS0=      1 NMatT0=    0 NMatD0=    1 NMtDS0=    0 NMtDT0=    0
 Petite list used in FoFCou.
 Harris En= -3918.65801394548    
 JPrj=0 DoOrth=F DoCkMO=F.
 Leave Link  401 at Sun Sep 12 04:03:00 2021, MaxMem= 23488102400 cpu:             168.7 elap:               7.0
 (Enter /sw/apps/gaussian-16.0/g16/l502.exe)
 Integral symmetry usage will be decided dynamically.
 Closed shell SCF:
 Using DIIS extrapolation, IDIIS=  1040.
 NGot= 23488102400 LenX= 23482547354 LenY= 23479796732
 Requested convergence on RMS density matrix=1.00D-08 within 128 cycles.
 Requested convergence on MAX density matrix=1.00D-06.
 Requested convergence on             energy=1.00D-06.
 No special actions if energy rises.
 Fock matrices will be formed incrementally for  20 cycles.

 Cycle   1  Pass 1  IDiag  1:
 FoFJK:  IHMeth= 1 ICntrl=       0 DoSepK=T KAlg= 0 I1Cent=           0 FoldK=F
 IRaf=         1 NMat=       1 IRICut=       1 DoRegI=T DoRafI=F ISym2E= 0 IDoP0=0 IntGTp=1.
 FoFCou: FMM=T IPFlag=           0 FMFlag=      100000 FMFlg1=        2001
         NFxFlg=           0 DoJE=T BraDBF=F KetDBF=F FulRan=T
         wScrn=  0.000000 ICntrl=       500 IOpCl=  0 I1Cent=           0 NGrid=           0
         NMat0=    1 NMatS0=      1 NMatT0=    0 NMatD0=    1 NMtDS0=    0 NMtDT0=    0
 Symmetry not used in FoFCou.
 FMM levels:  10  Number of levels for PrismC:   9
 E= -4068.94901326312    
 DIIS: error= 2.04D-02 at cycle   1 NSaved=   1.
 NSaved= 1 IEnMin= 1 EnMin= -4068.94901326312     IErMin= 1 ErrMin= 2.04D-02
 ErrMax= 2.04D-02  0.00D+00 EMaxC= 1.00D-01 BMatC= 1.69D+00 BMatP= 1.69D+00
 IDIUse=3 WtCom= 7.96D-01 WtEn= 2.04D-01
 Coeff-Com:  0.100D+01
 Coeff-En:   0.100D+01
 Coeff:      0.100D+01
 Gap=     0.120 Goal=   None    Shift=    0.000
 GapD=    0.120 DampG=1.000 DampE=0.500 DampFc=0.5000 IDamp=-1.
 Damping current iteration by 5.00D-01
 RMSDP=1.57D-03 MaxDP=1.35D-01              OVMax= 2.05D-01

 Cycle   2  Pass 1  IDiag  1:
 RMSU=  7.70D-04    CP:  9.82D-01
 E= -4069.33782337633     Delta-E=       -0.388810113207 Rises=F Damp=T
 DIIS: error= 1.27D-02 at cycle   2 NSaved=   2.
 NSaved= 2 IEnMin= 2 EnMin= -4069.33782337633     IErMin= 2 ErrMin= 1.27D-02
 ErrMax= 1.27D-02  0.00D+00 EMaxC= 1.00D-01 BMatC= 3.07D-01 BMatP= 1.69D+00
 IDIUse=3 WtCom= 8.73D-01 WtEn= 1.27D-01
 Coeff-Com: -0.213D+00 0.121D+01
 Coeff-En:   0.000D+00 0.100D+01
 Coeff:     -0.186D+00 0.119D+01
 Gap=     0.136 Goal=   None    Shift=    0.000
 RMSDP=7.65D-04 MaxDP=9.42D-02 DE=-3.89D-01 OVMax= 1.90D-01

 Cycle   3  Pass 1  IDiag  1:
 RMSU=  7.33D-04    CP:  9.68D-01  1.24D+00
 E= -4069.62690776555     Delta-E=       -0.289084389220 Rises=F Damp=F
 DIIS: error= 1.57D-02 at cycle   3 NSaved=   3.
 NSaved= 3 IEnMin= 3 EnMin= -4069.62690776555     IErMin= 2 ErrMin= 1.27D-02
 ErrMax= 1.57D-02  0.00D+00 EMaxC= 1.00D-01 BMatC= 2.02D-01 BMatP= 3.07D-01
 IDIUse=3 WtCom= 8.43D-01 WtEn= 1.57D-01
 Coeff-Com: -0.267D+00 0.652D+00 0.615D+00
 Coeff-En:   0.000D+00 0.000D+00 0.100D+01
 Coeff:     -0.225D+00 0.549D+00 0.676D+00
 Gap=     0.124 Goal=   None    Shift=    0.000
 RMSDP=5.10D-04 MaxDP=4.91D-02 DE=-2.89D-01 OVMax= 1.46D-01

 Cycle   4  Pass 1  IDiag  1:
 RMSU=  2.66D-04    CP:  9.65D-01  1.55D+00  5.04D-01
 E= -4069.76446637331     Delta-E=       -0.137558607763 Rises=F Damp=F
 DIIS: error= 7.28D-03 at cycle   4 NSaved=   4.
 NSaved= 4 IEnMin= 4 EnMin= -4069.76446637331     IErMin= 4 ErrMin= 7.28D-03
 ErrMax= 7.28D-03  0.00D+00 EMaxC= 1.00D-01 BMatC= 5.07D-02 BMatP= 2.02D-01
 IDIUse=3 WtCom= 9.27D-01 WtEn= 7.28D-02
 Coeff-Com: -0.109D+00 0.226D+00 0.409D+00 0.474D+00
 Coeff-En:   0.000D+00 0.000D+00 0.222D+00 0.778D+00
 Coeff:     -0.101D+00 0.210D+00 0.395D+00 0.496D+00
 Gap=     0.122 Goal=   None    Shift=    0.000
 RMSDP=2.02D-04 MaxDP=2.06D-02 DE=-1.38D-01 OVMax= 6.43D-02

 Cycle   5  Pass 1  IDiag  1:
 RMSU=  7.67D-05    CP:  9.64D-01  1.49D+00  6.89D-01  5.47D-01
 E= -4069.81043453002     Delta-E=       -0.045968156708 Rises=F Damp=F
 DIIS: error= 7.76D-04 at cycle   5 NSaved=   5.
 NSaved= 5 IEnMin= 5 EnMin= -4069.81043453002     IErMin= 5 ErrMin= 7.76D-04
 ErrMax= 7.76D-04  0.00D+00 EMaxC= 1.00D-01 BMatC= 1.20D-03 BMatP= 5.07D-02
 IDIUse=3 WtCom= 9.92D-01 WtEn= 7.76D-03
 Coeff-Com: -0.363D-01 0.713D-01 0.167D+00 0.251D+00 0.547D+00
 Coeff-En:   0.000D+00 0.000D+00 0.000D+00 0.000D+00 0.100D+01
 Coeff:     -0.360D-01 0.707D-01 0.166D+00 0.249D+00 0.551D+00
 Gap=     0.122 Goal=   None    Shift=    0.000
 RMSDP=4.18D-05 MaxDP=4.19D-03 DE=-4.60D-02 OVMax= 1.76D-02

 Cycle   6  Pass 1  IDiag  1:
 RMSU=  3.08D-05    CP:  9.64D-01  1.49D+00  6.80D-01  6.20D-01  7.50D-01
 E= -4069.81148864960     Delta-E=       -0.001054119577 Rises=F Damp=F
 DIIS: error= 2.06D-04 at cycle   6 NSaved=   6.
 NSaved= 6 IEnMin= 6 EnMin= -4069.81148864960     IErMin= 6 ErrMin= 2.06D-04
 ErrMax= 2.06D-04  0.00D+00 EMaxC= 1.00D-01 BMatC= 1.83D-04 BMatP= 1.20D-03
 IDIUse=3 WtCom= 9.98D-01 WtEn= 2.06D-03
 Coeff-Com:  0.220D-02-0.657D-02 0.115D-01 0.406D-01 0.306D+00 0.646D+00
 Coeff-En:   0.000D+00 0.000D+00 0.000D+00 0.000D+00 0.108D+00 0.892D+00
 Coeff:      0.219D-02-0.656D-02 0.114D-01 0.405D-01 0.306D+00 0.646D+00
 Gap=     0.122 Goal=   None    Shift=    0.000
 RMSDP=1.63D-05 MaxDP=1.20D-03 DE=-1.05D-03 OVMax= 7.62D-03

 Cycle   7  Pass 1  IDiag  1:
 RMSU=  1.09D-05    CP:  9.64D-01  1.50D+00  6.86D-01  6.20D-01  8.54D-01
                    CP:  7.45D-01
 E= -4069.81168750603     Delta-E=       -0.000198856429 Rises=F Damp=F
 DIIS: error= 8.83D-05 at cycle   7 NSaved=   7.
 NSaved= 7 IEnMin= 7 EnMin= -4069.81168750603     IErMin= 7 ErrMin= 8.83D-05
 ErrMax= 8.83D-05  0.00D+00 EMaxC= 1.00D-01 BMatC= 2.21D-05 BMatP= 1.83D-04
 IDIUse=1 WtCom= 1.00D+00 WtEn= 0.00D+00
 Coeff-Com:  0.450D-02-0.985D-02-0.893D-02-0.355D-02 0.104D+00 0.333D+00
 Coeff-Com:  0.581D+00
 Coeff:      0.450D-02-0.985D-02-0.893D-02-0.355D-02 0.104D+00 0.333D+00
 Coeff:      0.581D+00
 Gap=     0.122 Goal=   None    Shift=    0.000
 RMSDP=6.59D-06 MaxDP=1.11D-03 DE=-1.99D-04 OVMax= 3.50D-03

 Cycle   8  Pass 1  IDiag  1:
 RMSU=  4.72D-06    CP:  9.64D-01  1.50D+00  6.87D-01  6.25D-01  8.57D-01
                    CP:  8.70D-01  8.19D-01
 E= -4069.81171494064     Delta-E=       -0.000027434617 Rises=F Damp=F
 DIIS: error= 5.12D-05 at cycle   8 NSaved=   8.
 NSaved= 8 IEnMin= 8 EnMin= -4069.81171494064     IErMin= 8 ErrMin= 5.12D-05
 ErrMax= 5.12D-05  0.00D+00 EMaxC= 1.00D-01 BMatC= 4.89D-06 BMatP= 2.21D-05
 IDIUse=1 WtCom= 1.00D+00 WtEn= 0.00D+00
 Coeff-Com:  0.217D-02-0.430D-02-0.778D-02-0.121D-01-0.108D-01 0.332D-01
 Coeff-Com:  0.337D+00 0.663D+00
 Coeff:      0.217D-02-0.430D-02-0.778D-02-0.121D-01-0.108D-01 0.332D-01
 Coeff:      0.337D+00 0.663D+00
 Gap=     0.122 Goal=   None    Shift=    0.000
 RMSDP=3.31D-06 MaxDP=3.77D-04 DE=-2.74D-05 OVMax= 1.08D-03

 Cycle   9  Pass 1  IDiag  1:
 RMSU=  1.93D-06    CP:  9.64D-01  1.50D+00  6.87D-01  6.26D-01  8.74D-01
                    CP:  8.96D-01  1.01D+00  9.50D-01
 E= -4069.81172278123     Delta-E=       -0.000007840586 Rises=F Damp=F
 DIIS: error= 1.96D-05 at cycle   9 NSaved=   9.
 NSaved= 9 IEnMin= 9 EnMin= -4069.81172278123     IErMin= 9 ErrMin= 1.96D-05
 ErrMax= 1.96D-05  0.00D+00 EMaxC= 1.00D-01 BMatC= 7.09D-07 BMatP= 4.89D-06
 IDIUse=1 WtCom= 1.00D+00 WtEn= 0.00D+00
 Coeff-Com:  0.468D-03-0.776D-03-0.268D-02-0.601D-02-0.209D-01-0.393D-01
 Coeff-Com:  0.101D+00 0.329D+00 0.639D+00
 Coeff:      0.468D-03-0.776D-03-0.268D-02-0.601D-02-0.209D-01-0.393D-01
 Coeff:      0.101D+00 0.329D+00 0.639D+00
 Gap=     0.122 Goal=   None    Shift=    0.000
 RMSDP=1.43D-06 MaxDP=1.51D-04 DE=-7.84D-06 OVMax= 7.47D-04

 Cycle  10  Pass 1  IDiag  1:
 RMSU=  9.47D-07    CP:  9.64D-01  1.50D+00  6.87D-01  6.26D-01  8.78D-01
                    CP:  9.09D-01  1.06D+00  1.12D+00  1.06D+00
 E= -4069.81172441179     Delta-E=       -0.000001630564 Rises=F Damp=F
 DIIS: error= 1.02D-05 at cycle  10 NSaved=  10.
 NSaved=10 IEnMin=10 EnMin= -4069.81172441179     IErMin=10 ErrMin= 1.02D-05
 ErrMax= 1.02D-05  0.00D+00 EMaxC= 1.00D-01 BMatC= 1.74D-07 BMatP= 7.09D-07
 IDIUse=1 WtCom= 1.00D+00 WtEn= 0.00D+00
 Coeff-Com: -0.428D-03 0.898D-03 0.123D-02 0.111D-02-0.371D-02-0.311D-01
 Coeff-Com: -0.455D-01-0.760D-01 0.249D+00 0.904D+00
 Coeff:     -0.428D-03 0.898D-03 0.123D-02 0.111D-02-0.371D-02-0.311D-01
 Coeff:     -0.455D-01-0.760D-01 0.249D+00 0.904D+00
 Gap=     0.122 Goal=   None    Shift=    0.000
 RMSDP=1.24D-06 MaxDP=1.26D-04 DE=-1.63D-06 OVMax= 6.22D-04

 Cycle  11  Pass 1  IDiag  1:
 RMSU=  5.25D-07    CP:  9.64D-01  1.50D+00  6.87D-01  6.27D-01  8.80D-01
                    CP:  9.19D-01  1.11D+00  1.23D+00  1.40D+00  1.37D+00
 E= -4069.81172521776     Delta-E=       -0.000000805965 Rises=F Damp=F
 DIIS: error= 4.08D-06 at cycle  11 NSaved=  11.
 NSaved=11 IEnMin=11 EnMin= -4069.81172521776     IErMin=11 ErrMin= 4.08D-06
 ErrMax= 4.08D-06  0.00D+00 EMaxC= 1.00D-01 BMatC= 6.45D-08 BMatP= 1.74D-07
 IDIUse=1 WtCom= 1.00D+00 WtEn= 0.00D+00
 Coeff-Com: -0.332D-03 0.645D-03 0.134D-02 0.213D-02 0.441D-02-0.851D-02
 Coeff-Com: -0.427D-01-0.133D+00-0.279D-01 0.474D+00 0.730D+00
 Coeff:     -0.332D-03 0.645D-03 0.134D-02 0.213D-02 0.441D-02-0.851D-02
 Coeff:     -0.427D-01-0.133D+00-0.279D-01 0.474D+00 0.730D+00
 Gap=     0.122 Goal=   None    Shift=    0.000
 RMSDP=6.98D-07 MaxDP=6.02D-05 DE=-8.06D-07 OVMax= 3.82D-04

 Cycle  12  Pass 1  IDiag  1:
 RMSU=  2.67D-07    CP:  9.64D-01  1.50D+00  6.87D-01  6.27D-01  8.81D-01
                    CP:  9.22D-01  1.13D+00  1.29D+00  1.56D+00  1.76D+00
                    CP:  1.19D+00
 E= -4069.81172548951     Delta-E=       -0.000000271753 Rises=F Damp=F
 DIIS: error= 2.43D-06 at cycle  12 NSaved=  12.
 NSaved=12 IEnMin=12 EnMin= -4069.81172548951     IErMin=12 ErrMin= 2.43D-06
 ErrMax= 2.43D-06  0.00D+00 EMaxC= 1.00D-01 BMatC= 1.57D-08 BMatP= 6.45D-08
 IDIUse=1 WtCom= 1.00D+00 WtEn= 0.00D+00
 Coeff-Com: -0.496D-05-0.706D-05 0.200D-03 0.541D-03 0.340D-02 0.392D-02
 Coeff-Com:  0.227D-02-0.362D-01-0.703D-01-0.652D-01 0.256D+00 0.906D+00
 Coeff:     -0.496D-05-0.706D-05 0.200D-03 0.541D-03 0.340D-02 0.392D-02
 Coeff:      0.227D-02-0.362D-01-0.703D-01-0.652D-01 0.256D+00 0.906D+00
 Gap=     0.122 Goal=   None    Shift=    0.000
 RMSDP=4.41D-07 MaxDP=3.15D-05 DE=-2.72D-07 OVMax= 2.51D-04

 Cycle  13  Pass 1  IDiag  1:
 RMSU=  1.68D-07    CP:  9.64D-01  1.50D+00  6.87D-01  6.27D-01  8.81D-01
                    CP:  9.22D-01  1.14D+00  1.32D+00  1.67D+00  1.99D+00
                    CP:  1.61D+00  1.26D+00
 E= -4069.81172558408     Delta-E=       -0.000000094569 Rises=F Damp=F
 DIIS: error= 1.27D-06 at cycle  13 NSaved=  13.
 NSaved=13 IEnMin=13 EnMin= -4069.81172558408     IErMin=13 ErrMin= 1.27D-06
 ErrMax= 1.27D-06  0.00D+00 EMaxC= 1.00D-01 BMatC= 8.50D-09 BMatP= 1.57D-08
 IDIUse=1 WtCom= 1.00D+00 WtEn= 0.00D+00
 Coeff-Com:  0.120D-03-0.246D-03-0.369D-03-0.453D-03 0.629D-03 0.506D-02
 Coeff-Com:  0.193D-01 0.230D-01-0.340D-01-0.240D+00-0.157D+00 0.592D+00
 Coeff-Com:  0.791D+00
 Coeff:      0.120D-03-0.246D-03-0.369D-03-0.453D-03 0.629D-03 0.506D-02
 Coeff:      0.193D-01 0.230D-01-0.340D-01-0.240D+00-0.157D+00 0.592D+00
 Coeff:      0.791D+00
 Gap=     0.122 Goal=   None    Shift=    0.000
 RMSDP=3.48D-07 MaxDP=2.37D-05 DE=-9.46D-08 OVMax= 2.06D-04

 Cycle  14  Pass 1  IDiag  1:
 RMSU=  7.73D-08    CP:  9.64D-01  1.50D+00  6.87D-01  6.27D-01  8.82D-01
                    CP:  9.23D-01  1.14D+00  1.35D+00  1.75D+00  2.18D+00
                    CP:  1.87D+00  1.78D+00  1.10D+00
 E= -4069.81172562174     Delta-E=       -0.000000037653 Rises=F Damp=F
 DIIS: error= 6.76D-07 at cycle  14 NSaved=  14.
 NSaved=14 IEnMin=14 EnMin= -4069.81172562174     IErMin=14 ErrMin= 6.76D-07
 ErrMax= 6.76D-07  0.00D+00 EMaxC= 1.00D-01 BMatC= 1.31D-09 BMatP= 8.50D-09
 IDIUse=1 WtCom= 1.00D+00 WtEn= 0.00D+00
 Coeff-Com:  0.674D-04-0.133D-03-0.250D-03-0.391D-03-0.469D-03 0.129D-02
 Coeff-Com:  0.106D-01 0.196D-01 0.389D-02-0.101D+00-0.144D+00 0.901D-01
 Coeff-Com:  0.408D+00 0.712D+00
 Coeff:      0.674D-04-0.133D-03-0.250D-03-0.391D-03-0.469D-03 0.129D-02
 Coeff:      0.106D-01 0.196D-01 0.389D-02-0.101D+00-0.144D+00 0.901D-01
 Coeff:      0.408D+00 0.712D+00
 Gap=     0.122 Goal=   None    Shift=    0.000
 RMSDP=1.05D-07 MaxDP=6.98D-06 DE=-3.77D-08 OVMax= 5.63D-05

 Cycle  15  Pass 1  IDiag  1:
 RMSU=  3.88D-08    CP:  9.64D-01  1.50D+00  6.87D-01  6.27D-01  8.82D-01
                    CP:  9.22D-01  1.15D+00  1.35D+00  1.77D+00  2.23D+00
                    CP:  1.97D+00  1.91D+00  1.33D+00  1.03D+00
 E= -4069.81172562601     Delta-E=       -0.000000004271 Rises=F Damp=F
 DIIS: error= 3.16D-07 at cycle  15 NSaved=  15.
 NSaved=15 IEnMin=15 EnMin= -4069.81172562601     IErMin=15 ErrMin= 3.16D-07
 ErrMax= 3.16D-07  0.00D+00 EMaxC= 1.00D-01 BMatC= 2.24D-10 BMatP= 1.31D-09
 IDIUse=1 WtCom= 1.00D+00 WtEn= 0.00D+00
 Coeff-Com:  0.557D-05-0.933D-05-0.334D-04-0.829D-04-0.298D-03-0.516D-03
 Coeff-Com:  0.113D-02 0.264D-02 0.875D-02 0.137D-02-0.304D-01-0.728D-01
 Coeff-Com:  0.318D-01 0.293D+00 0.766D+00
 Coeff:      0.557D-05-0.933D-05-0.334D-04-0.829D-04-0.298D-03-0.516D-03
 Coeff:      0.113D-02 0.264D-02 0.875D-02 0.137D-02-0.304D-01-0.728D-01
 Coeff:      0.318D-01 0.293D+00 0.766D+00
 Gap=     0.122 Goal=   None    Shift=    0.000
 RMSDP=4.00D-08 MaxDP=2.76D-06 DE=-4.27D-09 OVMax= 2.80D-05

 Cycle  16  Pass 1  IDiag  1:
 RMSU=  1.90D-08    CP:  9.64D-01  1.50D+00  6.87D-01  6.27D-01  8.82D-01
                    CP:  9.22D-01  1.15D+00  1.35D+00  1.77D+00  2.24D+00
                    CP:  2.00D+00  1.97D+00  1.41D+00  1.24D+00  1.14D+00
 E= -4069.81172562678     Delta-E=       -0.000000000771 Rises=F Damp=F
 DIIS: error= 1.79D-07 at cycle  16 NSaved=  16.
 NSaved=16 IEnMin=16 EnMin= -4069.81172562678     IErMin=16 ErrMin= 1.79D-07
 ErrMax= 1.79D-07  0.00D+00 EMaxC= 1.00D-01 BMatC= 8.62D-11 BMatP= 2.24D-10
 IDIUse=1 WtCom= 1.00D+00 WtEn= 0.00D+00
 Coeff-Com: -0.142D-04 0.287D-04 0.466D-04 0.527D-04-0.320D-04-0.635D-03
 Coeff-Com: -0.193D-02-0.423D-02 0.443D-02 0.254D-01 0.207D-01-0.647D-01
 Coeff-Com: -0.811D-01-0.401D-01 0.404D+00 0.738D+00
 Coeff:     -0.142D-04 0.287D-04 0.466D-04 0.527D-04-0.320D-04-0.635D-03
 Coeff:     -0.193D-02-0.423D-02 0.443D-02 0.254D-01 0.207D-01-0.647D-01
 Coeff:     -0.811D-01-0.401D-01 0.404D+00 0.738D+00
 Gap=     0.122 Goal=   None    Shift=    0.000
 RMSDP=2.34D-08 MaxDP=1.63D-06 DE=-7.71D-10 OVMax= 1.22D-05

 Cycle  17  Pass 1  IDiag  1:
 RMSU=  1.05D-08    CP:  9.64D-01  1.50D+00  6.87D-01  6.27D-01  8.82D-01
                    CP:  9.22D-01  1.15D+00  1.35D+00  1.78D+00  2.25D+00
                    CP:  2.01D+00  2.00D+00  1.46D+00  1.34D+00  1.44D+00
                    CP:  1.24D+00
 E= -4069.81172562718     Delta-E=       -0.000000000400 Rises=F Damp=F
 DIIS: error= 9.13D-08 at cycle  17 NSaved=  17.
 NSaved=17 IEnMin=17 EnMin= -4069.81172562718     IErMin=17 ErrMin= 9.13D-08
 ErrMax= 9.13D-08  0.00D+00 EMaxC= 1.00D-01 BMatC= 1.79D-11 BMatP= 8.62D-11
 IDIUse=1 WtCom= 1.00D+00 WtEn= 0.00D+00
 Coeff-Com: -0.729D-05 0.142D-04 0.288D-04 0.426D-04 0.821D-04-0.127D-03
 Coeff-Com: -0.940D-03-0.282D-02 0.964D-04 0.941D-02 0.175D-01-0.763D-02
 Coeff-Com: -0.359D-01-0.102D+00-0.240D-01 0.287D+00 0.859D+00
 Coeff:     -0.729D-05 0.142D-04 0.288D-04 0.426D-04 0.821D-04-0.127D-03
 Coeff:     -0.940D-03-0.282D-02 0.964D-04 0.941D-02 0.175D-01-0.763D-02
 Coeff:     -0.359D-01-0.102D+00-0.240D-01 0.287D+00 0.859D+00
 Gap=     0.122 Goal=   None    Shift=    0.000
 RMSDP=1.37D-08 MaxDP=1.10D-06 DE=-4.00D-10 OVMax= 9.58D-06

 Cycle  18  Pass 1  IDiag  1:
 RMSU=  5.13D-09    CP:  9.64D-01  1.50D+00  6.87D-01  6.27D-01  8.82D-01
                    CP:  9.22D-01  1.15D+00  1.35D+00  1.78D+00  2.25D+00
                    CP:  2.02D+00  2.00D+00  1.47D+00  1.41D+00  1.61D+00
                    CP:  1.65D+00  1.37D+00
 E= -4069.81172562741     Delta-E=       -0.000000000233 Rises=F Damp=F
 DIIS: error= 6.33D-08 at cycle  18 NSaved=  18.
 NSaved=18 IEnMin=18 EnMin= -4069.81172562741     IErMin=18 ErrMin= 6.33D-08
 ErrMax= 6.33D-08  0.00D+00 EMaxC= 1.00D-01 BMatC= 7.74D-12 BMatP= 1.79D-11
 IDIUse=1 WtCom= 1.00D+00 WtEn= 0.00D+00
 Coeff-Com:  0.153D-05-0.339D-05-0.262D-05 0.108D-05 0.625D-04 0.170D-03
 Coeff-Com:  0.324D-03 0.610D-04-0.126D-02-0.538D-02 0.848D-03 0.187D-01
 Coeff-Com:  0.156D-01-0.372D-01-0.158D+00-0.175D+00 0.395D+00 0.946D+00
 Coeff:      0.153D-05-0.339D-05-0.262D-05 0.108D-05 0.625D-04 0.170D-03
 Coeff:      0.324D-03 0.610D-04-0.126D-02-0.538D-02 0.848D-03 0.187D-01
 Coeff:      0.156D-01-0.372D-01-0.158D+00-0.175D+00 0.395D+00 0.946D+00
 Gap=     0.122 Goal=   None    Shift=    0.000
 RMSDP=1.15D-08 MaxDP=7.95D-07 DE=-2.33D-10 OVMax= 6.04D-06

 Cycle  19  Pass 1  IDiag  1:
 RMSU=  3.06D-09    CP:  9.64D-01  1.50D+00  6.87D-01  6.27D-01  8.82D-01
                    CP:  9.22D-01  1.15D+00  1.35D+00  1.78D+00  2.25D+00
                    CP:  2.02D+00  2.01D+00  1.49D+00  1.45D+00  1.75D+00
                    CP:  1.95D+00  1.91D+00  1.28D+00
 E= -4069.81172562763     Delta-E=       -0.000000000215 Rises=F Damp=F
 DIIS: error= 3.11D-08 at cycle  19 NSaved=  19.
 NSaved=19 IEnMin=19 EnMin= -4069.81172562763     IErMin=19 ErrMin= 3.11D-08
 ErrMax= 3.11D-08  0.00D+00 EMaxC= 1.00D-01 BMatC= 1.86D-12 BMatP= 7.74D-12
 IDIUse=1 WtCom= 1.00D+00 WtEn= 0.00D+00
 Coeff-Com:  0.300D-05-0.607D-05-0.100D-04-0.122D-04 0.159D-04 0.130D-03
 Coeff-Com:  0.487D-03 0.809D-03-0.662D-03-0.623D-02-0.476D-02 0.131D-01
 Coeff-Com:  0.211D-01 0.942D-02-0.788D-01-0.191D+00-0.456D-02 0.524D+00
 Coeff-Com:  0.717D+00
 Coeff:      0.300D-05-0.607D-05-0.100D-04-0.122D-04 0.159D-04 0.130D-03
 Coeff:      0.487D-03 0.809D-03-0.662D-03-0.623D-02-0.476D-02 0.131D-01
 Coeff:      0.211D-01 0.942D-02-0.788D-01-0.191D+00-0.456D-02 0.524D+00
 Coeff:      0.717D+00
 Gap=     0.122 Goal=   None    Shift=    0.000
 RMSDP=4.90D-09 MaxDP=3.64D-07 DE=-2.15D-10 OVMax= 3.61D-06

 SCF Done:  E(RCAM-B3LYP) =  -4069.81172563     A.U. after   19 cycles
            NFock= 19  Conv=0.49D-08     -V/T= 2.0102
 KE= 4.028802050265D+03 PE=-3.695674164998D+04 EE= 1.512021810549D+04
 Leave Link  502 at Sun Sep 12 04:11:33 2021, MaxMem= 23488102400 cpu:           11708.1 elap:             512.7
 (Enter /sw/apps/gaussian-16.0/g16/l801.exe)
 DoSCS=F DFT=T ScalE2(SS,OS)=  1.000000  1.000000
 ExpMin= 3.36D-02 ExpMax= 4.95D+03 ExpMxC= 7.45D+02 IAcc=3 IRadAn=         5 AccDes= 0.00D+00
 HarFok:  IExCor=  205 AccDes= 0.00D+00 IRadAn=         5 IDoV=-2 UseB2=F ITyADJ=14
 ICtDFT= 12500011 ScaDFX=  1.000000  1.000000  1.000000  1.000000
 GSVD:  LWork=       -9588 too small for GESVD, short by       45590 words or       45590 for optimal perf.
 Largest valence mixing into a core orbital is  2.03D-04
 Largest core mixing into a valence orbital is  5.24D-05
 Range of M.O.s used for correlation:    95  1572
 NBasis=  1572 NAE=   312 NBE=   312 NFC=    94 NFV=     0
 NROrb=   1478 NOA=   218 NOB=   218 NVA=  1260 NVB=  1260
 Leave Link  801 at Sun Sep 12 04:11:34 2021, MaxMem= 23488102400 cpu:               8.6 elap:               0.4
 (Enter /sw/apps/gaussian-16.0/g16/l914.exe)
 RHF ground state
 Two-electron integrals replicated using symmetry.
 MDV= 23488102400 DFT=T DoStab=F Mixed=T DoRPA=T DoScal=F NonHer=T
 Making orbital integer symmetry assigments:
 Orbital symmetries:
       Occupied  (A) (A) (A) (A) (A) (A) (A) (A) (A) (A) (A) (A)
                 (A) (A) (A) (A) (A) (A) (A) (A) (A) (A) (A) (A)
                 (A) (A) (A) (A) (A) (A) (A) (A) (A) (A) (A) (A)
                 (A) (A) (A) (A) (A) (A) (A) (A) (A) (A) (A) (A)
                 (A) (A) (A) (A) (A) (A) (A) (A) (A) (A) (A) (A)
                 (A) (A) (A) (A) (A) (A) (A) (A) (A) (A) (A) (A)
                 (A) (A) (A) (A) (A) (A) (A) (A) (A) (A) (A) (A)
                 (A) (A) (A) (A) (A) (A) (A) (A) (A) (A) (A) (A)
                 (A) (A) (A) (A) (A) (A) (A) (A) (A) (A) (A) (A)
                 (A) (A) (A) (A) (A) (A) (A) (A) (A) (A) (A) (A)
                 (A) (A) (A) (A) (A) (A) (A) (A) (A) (A) (A) (A)
                 (A) (A) (A) (A) (A) (A) (A) (A) (A) (A) (A) (A)
                 (A) (A) (A) (A) (A) (A) (A) (A) (A) (A) (A) (A)
                 (A) (A) (A) (A) (A) (A) (A) (A) (A) (A) (A) (A)
                 (A) (A) (A) (A) (A) (A) (A) (A) (A) (A) (A) (A)
                 (A) (A) (A) (A) (A) (A) (A) (A) (A) (A) (A) (A)
                 (A) (A) (A) (A) (A) (A) (A) (A) (A) (A) (A) (A)
                 (A) (A) (A) (A) (A) (A) (A) (A) (A) (A) (A) (A)
                 (A) (A) (A) (A) (A) (A) (A) (A) (A) (A) (A) (A)
                 (A) (A) (A) (A) (A) (A) (A) (A) (A) (A) (A) (A)
                 (A) (A) (A) (A) (A) (A) (A) (A) (A) (A) (A) (A)
                 (A) (A) (A) (A) (A) (A) (A) (A) (A) (A) (A) (A)
                 (A) (A) (A) (A) (A) (A) (A) (A) (A) (A) (A) (A)
                 (A) (A) (A) (A) (A) (A) (A) (A) (A) (A) (A) (A)
                 (A) (A) (A) (A) (A) (A) (A) (A) (A) (A) (A) (A)
                 (A) (A) (A) (A) (A) (A) (A) (A) (A) (A) (A) (A)
       Virtual   (A) (A) (A) (A) (A) (A) (A) (A) (A) (A) (A) (A)
                 (A) (A) (A) (A) (A) (A) (A) (A) (A) (A) (A) (A)
                 (A) (A) (A) (A) (A) (A) (A) (A) (A) (A) (A) (A)
                 (A) (A) (A) (A) (A) (A) (A) (A) (A) (A) (A) (A)
                 (A) (A) (A) (A) (A) (A) (A) (A) (A) (A) (A) (A)
                 (A) (A) (A) (A) (A) (A) (A) (A) (A) (A) (A) (A)
                 (A) (A) (A) (A) (A) (A) (A) (A) (A) (A) (A) (A)
                 (A) (A) (A) (A) (A) (A) (A) (A) (A) (A) (A) (A)
                 (A) (A) (A) (A) (A) (A) (A) (A) (A) (A) (A) (A)
                 (A) (A) (A) (A) (A) (A) (A) (A) (A) (A) (A) (A)
                 (A) (A) (A) (A) (A) (A) (A) (A) (A) (A) (A) (A)
                 (A) (A) (A) (A) (A) (A) (A) (A) (A) (A) (A) (A)
                 (A) (A) (A) (A) (A) (A) (A) (A) (A) (A) (A) (A)
                 (A) (A) (A) (A) (A) (A) (A) (A) (A) (A) (A) (A)
                 (A) (A) (A) (A) (A) (A) (A) (A) (A) (A) (A) (A)
                 (A) (A) (A) (A) (A) (A) (A) (A) (A) (A) (A) (A)
                 (A) (A) (A) (A) (A) (A) (A) (A) (A) (A) (A) (A)
                 (A) (A) (A) (A) (A) (A) (A) (A) (A) (A) (A) (A)
                 (A) (A) (A) (A) (A) (A) (A) (A) (A) (A) (A) (A)
                 (A) (A) (A) (A) (A) (A) (A) (A) (A) (A) (A) (A)
                 (A) (A) (A) (A) (A) (A) (A) (A) (A) (A) (A) (A)
                 (A) (A) (A) (A) (A) (A) (A) (A) (A) (A) (A) (A)
                 (A) (A) (A) (A) (A) (A) (A) (A) (A) (A) (A) (A)
                 (A) (A) (A) (A) (A) (A) (A) (A) (A) (A) (A) (A)
                 (A) (A) (A) (A) (A) (A) (A) (A) (A) (A) (A) (A)
                 (A) (A) (A) (A) (A) (A) (A) (A) (A) (A) (A) (A)
                 (A) (A) (A) (A) (A) (A) (A) (A) (A) (A) (A) (A)
                 (A) (A) (A) (A) (A) (A) (A) (A) (A) (A) (A) (A)
                 (A) (A) (A) (A) (A) (A) (A) (A) (A) (A) (A) (A)
                 (A) (A) (A) (A) (A) (A) (A) (A) (A) (A) (A) (A)
                 (A) (A) (A) (A) (A) (A) (A) (A) (A) (A) (A) (A)
                 (A) (A) (A) (A) (A) (A) (A) (A) (A) (A) (A) (A)
                 (A) (A) (A) (A) (A) (A) (A) (A) (A) (A) (A) (A)
                 (A) (A) (A) (A) (A) (A) (A) (A) (A) (A) (A) (A)
                 (A) (A) (A) (A) (A) (A) (A) (A) (A) (A) (A) (A)
                 (A) (A) (A) (A) (A) (A) (A) (A) (A) (A) (A) (A)
                 (A) (A) (A) (A) (A) (A) (A) (A) (A) (A) (A) (A)
                 (A) (A) (A) (A) (A) (A) (A) (A) (A) (A) (A) (A)
                 (A) (A) (A) (A) (A) (A) (A) (A) (A) (A) (A) (A)
                 (A) (A) (A) (A) (A) (A) (A) (A) (A) (A) (A) (A)
                 (A) (A) (A) (A) (A) (A) (A) (A) (A) (A) (A) (A)
                 (A) (A) (A) (A) (A) (A) (A) (A) (A) (A) (A) (A)
                 (A) (A) (A) (A) (A) (A) (A) (A) (A) (A) (A) (A)
                 (A) (A) (A) (A) (A) (A) (A) (A) (A) (A) (A) (A)
                 (A) (A) (A) (A) (A) (A) (A) (A) (A) (A) (A) (A)
                 (A) (A) (A) (A) (A) (A) (A) (A) (A) (A) (A) (A)
                 (A) (A) (A) (A) (A) (A) (A) (A) (A) (A) (A) (A)
                 (A) (A) (A) (A) (A) (A) (A) (A) (A) (A) (A) (A)
                 (A) (A) (A) (A) (A) (A) (A) (A) (A) (A) (A) (A)
                 (A) (A) (A) (A) (A) (A) (A) (A) (A) (A) (A) (A)
                 (A) (A) (A) (A) (A) (A) (A) (A) (A) (A) (A) (A)
                 (A) (A) (A) (A) (A) (A) (A) (A) (A) (A) (A) (A)
                 (A) (A) (A) (A) (A) (A) (A) (A) (A) (A) (A) (A)
                 (A) (A) (A) (A) (A) (A) (A) (A) (A) (A) (A) (A)
                 (A) (A) (A) (A) (A) (A) (A) (A) (A) (A) (A) (A)
                 (A) (A) (A) (A) (A) (A) (A) (A) (A) (A) (A) (A)
                 (A) (A) (A) (A) (A) (A) (A) (A) (A) (A) (A) (A)
                 (A) (A) (A) (A) (A) (A) (A) (A) (A) (A) (A) (A)
                 (A) (A) (A) (A) (A) (A) (A) (A) (A) (A) (A) (A)
                 (A) (A) (A) (A) (A) (A) (A) (A) (A) (A) (A) (A)
                 (A) (A) (A) (A) (A) (A) (A) (A) (A) (A) (A) (A)
                 (A) (A) (A) (A) (A) (A) (A) (A) (A) (A) (A) (A)
                 (A) (A) (A) (A) (A) (A) (A) (A) (A) (A) (A) (A)
                 (A) (A) (A) (A) (A) (A) (A) (A) (A) (A) (A) (A)
                 (A) (A) (A) (A) (A) (A) (A) (A) (A) (A) (A) (A)
                 (A) (A) (A) (A) (A) (A) (A) (A) (A) (A) (A) (A)
                 (A) (A) (A) (A) (A) (A) (A) (A) (A) (A) (A) (A)
                 (A) (A) (A) (A) (A) (A) (A) (A) (A) (A) (A) (A)
                 (A) (A) (A) (A) (A) (A) (A) (A) (A) (A) (A) (A)
                 (A) (A) (A) (A) (A) (A) (A) (A) (A) (A) (A) (A)
                 (A) (A) (A) (A) (A) (A) (A) (A) (A) (A) (A) (A)
                 (A) (A) (A) (A) (A) (A) (A) (A) (A) (A) (A) (A)
                 (A) (A) (A) (A) (A) (A) (A) (A) (A) (A) (A) (A)
                 (A) (A) (A) (A) (A) (A) (A) (A) (A) (A) (A) (A)
                 (A) (A) (A) (A) (A) (A) (A) (A) (A) (A) (A) (A)
                 (A) (A) (A) (A) (A) (A) (A) (A) (A) (A) (A) (A)
                 (A) (A) (A) (A) (A) (A) (A) (A) (A) (A) (A) (A)
                 (A) (A) (A) (A) (A) (A) (A) (A) (A) (A) (A) (A)
                 (A) (A) (A) (A) (A) (A) (A) (A) (A) (A) (A) (A)
                 (A) (A) (A) (A) (A) (A) (A) (A) (A) (A) (A) (A)
                 (A) (A) (A) (A) (A) (A) (A) (A) (A) (A) (A) (A)
                 (A) (A) (A) (A) (A) (A) (A) (A) (A) (A) (A) (A)
                 (A) (A) (A) (A) (A) (A) (A) (A) (A) (A) (A) (A)
                 (A) (A) (A) (A) (A) (A) (A) (A) (A) (A) (A) (A)
                 (A) (A) (A) (A) (A) (A) (A) (A) (A) (A) (A) (A)
                 (A) (A) (A) (A) (A) (A) (A) (A) (A) (A) (A) (A)
                 (A) (A) (A) (A) (A) (A) (A) (A) (A) (A) (A) (A)
                 (A) (A) (A) (A) (A) (A) (A) (A) (A) (A) (A) (A)
                 (A) (A) (A) (A) (A) (A) (A) (A) (A) (A) (A) (A)
                 (A) (A) (A) (A) (A) (A) (A) (A) (A) (A) (A) (A)
                 (A) (A) (A) (A) (A) (A) (A) (A) (A) (A) (A) (A)
                 (A) (A) (A) (A) (A) (A) (A) (A) (A) (A) (A) (A)
                 (A) (A) (A) (A) (A) (A) (A) (A) (A) (A) (A) (A)
                 (A) (A) (A) (A) (A) (A) (A) (A) (A) (A) (A) (A)
                 (A) (A) (A) (A) (A) (A) (A) (A) (A) (A) (A) (A)
                 (A) (A) (A) (A) (A) (A) (A) (A) (A) (A) (A) (A)
                 (A) (A) (A) (A) (A) (A) (A) (A) (A) (A) (A) (A)
                 (A) (A) (A) (A) (A) (A) (A) (A) (A) (A) (A) (A)
                 (A) (A) (A) (A) (A) (A) (A) (A) (A) (A) (A) (A)
                 (A) (A) (A) (A) (A) (A) (A) (A) (A) (A) (A) (A)
                 (A) (A) (A) (A) (A) (A) (A) (A) (A) (A) (A) (A)
                 (A) (A) (A) (A) (A) (A) (A) (A) (A) (A) (A) (A)
                 (A) (A) (A) (A) (A) (A) (A) (A) (A) (A) (A) (A)
                 (A) (A) (A) (A) (A) (A) (A) (A) (A) (A) (A) (A)
                 (A) (A) (A) (A) (A) (A) (A) (A) (A) (A) (A) (A)
    20 initial guesses have been made.
 Convergence on wavefunction:    0.001000000000000
 Davidson Disk Diagonalization:  ConvIn= 1.00D-03 SkipCon=T Conv= 1.00D-03.
 Max sub-space:  2000 roots to seek:    20 dimension of matrix:       549360
 Iteration     1 Dimension    20 NMult     0 NNew     20
 CISAX will form    20 AO SS matrices at one time.
 NMat=    20 NSing=    20 JSym2X= 0.
 FoFJK:  IHMeth= 1 ICntrl=       0 DoSepK=T KAlg= 0 I1Cent=           0 FoldK=F
 IRaf=         1 NMat=      40 IRICut=       1 DoRegI=T DoRafI=F ISym2E= 0 IDoP0=3 IntGTp=3.
 FoFCou: FMM=T IPFlag=           0 FMFlag=      100000 FMFlg1=        2001
         NFxFlg=           0 DoJE=F BraDBF=F KetDBF=F FulRan=T
         wScrn=  0.000000 ICntrl=       500 IOpCl=  0 I1Cent=           0 NGrid=           0
         NMat0=   20 NMatS0=     20 NMatT0=    0 NMatD0=   20 NMtDS0=    0 NMtDT0=    0
 Symmetry not used in FoFCou.
 FMM levels:  10  Number of levels for PrismC:   9
 New state      1 was old state      7
 New state      2 was old state      6
 New state      3 was old state      2
 New state      4 was old state      3
 New state      5 was old state      1
 Excitation Energies [eV] at current iteration:
 Root      1 :     2.613836507188869
 Root      2 :     2.618939114326104
 Root      3 :     2.672145420899175
 Root      4 :     2.698655218781048
 Root      5 :     2.765551759207634
 Root      6 :     2.824202443627950
 Root      7 :     3.556868853423096
 Root      8 :     3.625364000243509
 Root      9 :     3.627326919030671
 Root     10 :     3.667888551023078
 Root     11 :     3.737078964676025
 Root     12 :     3.760479377080979
 Root     13 :     4.295388923756541
 Root     14 :     4.313576569032173
 Root     15 :     4.673978050657580
 Root     16 :     4.757651795388694
 Root     17 :     4.976694906587014
 Root     18 :     5.012054603245070
 Root     19 :     5.051037265006157
 Root     20 :     5.084716707486479
 Iteration     2 Dimension    30 NMult    20 NNew     10
 CISAX will form    10 AO SS matrices at one time.
 NMat=    10 NSing=    10 JSym2X= 0.
 New state      1 was old state      3
 Root      1 not converged, maximum delta is    0.158560772612436
 New state      2 was old state      4
 Root      2 not converged, maximum delta is    0.161580342209632
 New state      3 was old state      2
 Root      3 not converged, maximum delta is    0.293450184697231
 New state      4 was old state      1
 Root      4 not converged, maximum delta is    0.289454211651470
 Root      5 has converged.
 Excitation Energies [eV] at current iteration:
 Root      1 :     1.797091276132139   Change is   -0.875054144767035
 Root      2 :     1.811009537880403   Change is   -0.887645680900645
 Root      3 :     2.235201630061709   Change is   -0.383737484264395
 Root      4 :     2.239317563270956   Change is   -0.374518943917913
 Root      5 :     2.765468213002008   Change is   -0.000083546205625
 Iteration     3 Dimension    38 NMult    30 NNew      8
 CISAX will form     8 AO SS matrices at one time.
 NMat=     8 NSing=     8 JSym2X= 0.
 Root      1 not converged, maximum delta is    0.056756781156579
 Root      2 not converged, maximum delta is    0.057682301676936
 Root      3 not converged, maximum delta is    0.077921976539725
 Root      4 not converged, maximum delta is    0.077561062089833
 Root      5 has converged.
 Excitation Energies [eV] at current iteration:
 Root      1 :     1.690094447931234   Change is   -0.106996828200905
 Root      2 :     1.702444264141136   Change is   -0.108565273739267
 Root      3 :     2.194003624783924   Change is   -0.041198005277785
 Root      4 :     2.200050086979376   Change is   -0.039267476291580
 Root      5 :     2.765468213002038   Change is    0.000000000000030
 Iteration     4 Dimension    46 NMult    38 NNew      8
 CISAX will form     8 AO SS matrices at one time.
 NMat=     8 NSing=     8 JSym2X= 0.
 Root      1 not converged, maximum delta is    0.010966876002760
 Root      2 not converged, maximum delta is    0.011017223965712
 Root      3 not converged, maximum delta is    0.010151121919536
 Root      4 not converged, maximum delta is    0.010059578087542
 Root      5 has converged.
 Excitation Energies [eV] at current iteration:
 Root      1 :     1.673356594813340   Change is   -0.016737853117894
 Root      2 :     1.685588077919332   Change is   -0.016856186221804
 Root      3 :     2.186726634181373   Change is   -0.007276990602551
 Root      4 :     2.193227707165602   Change is   -0.006822379813774
 Root      5 :     2.765468213001949   Change is   -0.000000000000089
 Iteration     5 Dimension    54 NMult    46 NNew      8
 CISAX will form     8 AO SS matrices at one time.
 NMat=     8 NSing=     8 JSym2X= 0.
 Root      1 not converged, maximum delta is    0.001816191008646
 Root      2 not converged, maximum delta is    0.001825438890619
 Root      3 not converged, maximum delta is    0.002459887063348
 Root      4 not converged, maximum delta is    0.002360836565410
 Root      5 has converged.
 Excitation Energies [eV] at current iteration:
 Root      1 :     1.671594182995612   Change is   -0.001762411817727
 Root      2 :     1.683800315343956   Change is   -0.001787762575376
 Root      3 :     2.185884708960104   Change is   -0.000841925221269
 Root      4 :     2.192445414479399   Change is   -0.000782292686203
 Root      5 :     2.765468213002038   Change is    0.000000000000089
 Iteration     6 Dimension    62 NMult    54 NNew      8
 CISAX will form     8 AO SS matrices at one time.
 NMat=     8 NSing=     8 JSym2X= 0.
 Root      1 not converged, maximum delta is    0.001122977861828
 Root      2 not converged, maximum delta is    0.001143378076220
 Root      3 not converged, maximum delta is    0.001049674375477
 Root      4 not converged, maximum delta is    0.001003113308354
 Root      5 has converged.
 Excitation Energies [eV] at current iteration:
 Root      1 :     1.671343109441401   Change is   -0.000251073554211
 Root      2 :     1.683543616050154   Change is   -0.000256699293802
 Root      3 :     2.185756897455447   Change is   -0.000127811504657
 Root      4 :     2.192326384554868   Change is   -0.000119029924530
 Root      5 :     2.765468213001979   Change is   -0.000000000000059
 Iteration     7 Dimension    70 NMult    62 NNew      8
 CISAX will form     8 AO SS matrices at one time.
 NMat=     8 NSing=     8 JSym2X= 0.
 Root      1 has converged.
 Root      2 has converged.
 Root      3 has converged.
 Root      4 has converged.
 Root      5 has converged.
 Excitation Energies [eV] at current iteration:
 Root      1 :     1.671318665196933   Change is   -0.000024444244468
[...]
 Alpha virt. eigenvalues --    1.83527   1.83762   1.83912   1.84024   1.84211
 Alpha virt. eigenvalues --    1.84454   1.84547   1.84803   1.84808   1.85110
 Alpha virt. eigenvalues --    1.85140   1.85275   1.85356   1.85462   1.85505
 Alpha virt. eigenvalues --    1.85869   1.85919   1.86360   1.86402   1.86552
 Alpha virt. eigenvalues --    1.86667   1.86787   1.86847   1.87052   1.87058
 Alpha virt. eigenvalues --    1.87450   1.87498   1.87689   1.87782   1.87870
 Alpha virt. eigenvalues --    1.88035   1.88042   1.88193   1.88535   1.88587
 Alpha virt. eigenvalues --    1.88827   1.88952   1.89093   1.89131   1.89620
 Alpha virt. eigenvalues --    1.89674   1.89740   1.89894   1.90120   1.90204
 Alpha virt. eigenvalues --    1.90760   1.90910   1.91355   1.91447   1.91448
 Alpha virt. eigenvalues --    1.91600   1.92159   1.92196   1.92635   1.92668
 Alpha virt. eigenvalues --    1.92984   1.93170   1.93339   1.93525   1.94287
 Alpha virt. eigenvalues --    1.94327   1.94687   1.94834   1.95478   1.95618
 Alpha virt. eigenvalues --    1.95735   1.95824   1.96004   1.96063   1.96155
 Alpha virt. eigenvalues --    1.96184   1.96499   1.96600   1.96899   1.96949
 Alpha virt. eigenvalues --    1.97455   1.97555   1.97816   1.97841   1.98175
 Alpha virt. eigenvalues --    1.98180   1.98357   1.98696   1.99089   1.99144
 Alpha virt. eigenvalues --    1.99828   1.99938   2.00662   2.00744   2.01002
 Alpha virt. eigenvalues --    2.01109   2.01490   2.01530   2.01612   2.01677
 Alpha virt. eigenvalues --    2.01728   2.01830   2.02723   2.02789   2.03161
 Alpha virt. eigenvalues --    2.03241   2.03389   2.03411   2.03493   2.03534
 Alpha virt. eigenvalues --    2.04039   2.04042   2.04956   2.04994   2.05511
 Alpha virt. eigenvalues --    2.05646   2.06077   2.06298   2.06916   2.07039
 Alpha virt. eigenvalues --    2.07191   2.07369   2.08568   2.08575   2.08981
 Alpha virt. eigenvalues --    2.09016   2.09593   2.09623   2.10778   2.11057
 Alpha virt. eigenvalues --    2.11185   2.11423   2.11534   2.11547   2.11726
 Alpha virt. eigenvalues --    2.11875   2.12470   2.12470   2.12802   2.12817
 Alpha virt. eigenvalues --    2.12838   2.12883   2.13631   2.13775   2.14139
 Alpha virt. eigenvalues --    2.14277   2.15335   2.15421   2.15933   2.16095
 Alpha virt. eigenvalues --    2.16521   2.16607   2.16758   2.17194   2.17419
 Alpha virt. eigenvalues --    2.17670   2.17706   2.17944   2.18023   2.18073
 Alpha virt. eigenvalues --    2.18332   2.18677   2.18877   2.19240   2.19645
 Alpha virt. eigenvalues --    2.19827   2.20040   2.20219   2.20256   2.20444
 Alpha virt. eigenvalues --    2.21148   2.21194   2.21668   2.21753   2.21778
 Alpha virt. eigenvalues --    2.21885   2.22680   2.22713   2.23317   2.23362
 Alpha virt. eigenvalues --    2.24391   2.24436   2.24956   2.25020   2.26305
 Alpha virt. eigenvalues --    2.26449   2.26779   2.27019   2.27108   2.27213
 Alpha virt. eigenvalues --    2.28139   2.28320   2.29266   2.29450   2.29737
 Alpha virt. eigenvalues --    2.29889   2.30459   2.30622   2.30818   2.31087
 Alpha virt. eigenvalues --    2.31199   2.31217   2.32117   2.32256   2.33136
 Alpha virt. eigenvalues --    2.33239   2.33464   2.33494   2.34142   2.34151
 Alpha virt. eigenvalues --    2.35301   2.35385   2.35797   2.35914   2.36343
 Alpha virt. eigenvalues --    2.36349   2.36466   2.36620   2.37659   2.37696
 Alpha virt. eigenvalues --    2.38247   2.38392   2.38777   2.38860   2.39609
 Alpha virt. eigenvalues --    2.39676   2.40183   2.40280   2.40488   2.40825
 Alpha virt. eigenvalues --    2.41208   2.41275   2.41684   2.41703   2.42049
 Alpha virt. eigenvalues --    2.42133   2.42836   2.42938   2.43051   2.43562
 Alpha virt. eigenvalues --    2.43978   2.44174   2.44728   2.44811   2.44905
 Alpha virt. eigenvalues --    2.44996   2.45546   2.45581   2.46289   2.46289
 Alpha virt. eigenvalues --    2.46478   2.46507   2.46799   2.46804   2.47257
 Alpha virt. eigenvalues --    2.47391   2.47712   2.47895   2.49302   2.49403
 Alpha virt. eigenvalues --    2.49902   2.50063   2.50459   2.50541   2.51124
 Alpha virt. eigenvalues --    2.51266   2.51612   2.51884   2.52383   2.52444
 Alpha virt. eigenvalues --    2.52809   2.53161   2.53914   2.53973   2.54133
 Alpha virt. eigenvalues --    2.54287   2.54787   2.54815   2.55511   2.55672
 Alpha virt. eigenvalues --    2.57856   2.58080   2.58641   2.58906   2.60210
 Alpha virt. eigenvalues --    2.60293   2.60613   2.60914   2.61703   2.61822
 Alpha virt. eigenvalues --    2.62425   2.62532   2.62955   2.63126   2.63932
 Alpha virt. eigenvalues --    2.64212   2.64242   2.64433   2.65078   2.65097
 Alpha virt. eigenvalues --    2.65785   2.65847   2.66773   2.66821   2.66905
 Alpha virt. eigenvalues --    2.67052   2.67905   2.67978   2.68813   2.68853
 Alpha virt. eigenvalues --    2.69018   2.69027   2.69387   2.69587   2.69997
 Alpha virt. eigenvalues --    2.70136   2.70981   2.71056   2.71882   2.72057
 Alpha virt. eigenvalues --    2.72480   2.72656   2.72720   2.72848   2.73270
 Alpha virt. eigenvalues --    2.73287   2.73447   2.73550   2.74502   2.74510
 Alpha virt. eigenvalues --    2.74974   2.75046   2.76516   2.76587   2.77060
 Alpha virt. eigenvalues --    2.77233   2.77447   2.77592   2.78173   2.78284
 Alpha virt. eigenvalues --    2.78682   2.78732   2.79131   2.79140   2.80249
 Alpha virt. eigenvalues --    2.80334   2.80594   2.80670   2.81116   2.81143
 Alpha virt. eigenvalues --    2.81932   2.81975   2.82328   2.82338   2.83744
 Alpha virt. eigenvalues --    2.83764   2.83836   2.83891   2.84523   2.84540
 Alpha virt. eigenvalues --    2.84877   2.84882   2.85655   2.85678   2.86643
 Alpha virt. eigenvalues --    2.86998   2.87147   2.87624   2.88138   2.88222
 Alpha virt. eigenvalues --    2.88508   2.88611   2.88863   2.88930   2.90498
 Alpha virt. eigenvalues --    2.90640   2.91060   2.91184   2.93153   2.93304
 Alpha virt. eigenvalues --    2.93756   2.94194   2.94545   2.94562   2.95370
 Alpha virt. eigenvalues --    2.95442   2.95804   2.96219   2.96357   2.96441
 Alpha virt. eigenvalues --    2.96842   2.97191   2.97823   2.98015   2.98196
 Alpha virt. eigenvalues --    2.98328   2.98365   2.98556   2.98602   2.98778
 Alpha virt. eigenvalues --    2.98875   2.98915   2.99573   2.99784   2.99989
 Alpha virt. eigenvalues --    3.00033   3.00223   3.00318   3.00463   3.00970
 Alpha virt. eigenvalues --    3.01888   3.01987   3.02023   3.02088   3.02745
 Alpha virt. eigenvalues --    3.02792   3.02984   3.03293   3.03315   3.03686
 Alpha virt. eigenvalues --    3.04033   3.04167   3.04412   3.04450   3.04545
 Alpha virt. eigenvalues --    3.04728   3.05288   3.05338   3.06109   3.06150
 Alpha virt. eigenvalues --    3.06805   3.06917   3.07905   3.08131   3.09346
 Alpha virt. eigenvalues --    3.09399   3.09692   3.10392   3.10440   3.10714
 Alpha virt. eigenvalues --    3.11324   3.11473   3.11891   3.11948   3.12171
 Alpha virt. eigenvalues --    3.12275   3.13282   3.13622   3.13631   3.13676
 Alpha virt. eigenvalues --    3.14111   3.14441   3.15914   3.15978   3.17263
 Alpha virt. eigenvalues --    3.17507   3.17862   3.18062   3.19017   3.19117
 Alpha virt. eigenvalues --    3.22324   3.22568   3.23945   3.24423   3.24682
 Alpha virt. eigenvalues --    3.25175   3.26502   3.26643   3.27379   3.27620
 Alpha virt. eigenvalues --    3.29121   3.29191   3.31363   3.31523   3.33170
 Alpha virt. eigenvalues --    3.33414   3.40222   3.40659   3.42800   3.42804
 Alpha virt. eigenvalues --    3.48662   3.48683   3.50020   3.50267   3.50820
 Alpha virt. eigenvalues --    3.51471   3.56546   3.56991   3.59096   3.59329
 Alpha virt. eigenvalues --    3.62500   3.62838   3.66096   3.66169   3.67209
 Alpha virt. eigenvalues --    3.67509   3.73290   3.73994   3.76072   3.76656
          Condensed to atoms (all electrons):
 Mulliken charges:
               1
     1  Mg   0.838628
     2  C   -0.002925
     3  C   -0.094210
     4  C   -0.045931
     5  C   -0.063976
     6  N   -0.256790
     7  C   -0.052415
     8  C   -0.013991
     9  C   -0.086978
    10  C    0.046291
    11  C    0.104807
    12  C    0.053498
    13  C   -0.071920
    14  H    0.036518
    15  N   -0.433112
    16  C    0.168305
    17  C   -0.177286
    18  C   -0.004159
    19  C    0.148654
    20  C    0.110201
    21  C    0.012106
    22  O   -0.249656
    23  C    0.062584
    24  N   -0.341149
    25  C    0.041224
    26  C   -0.028190
    27  C   -0.024003
    28  C    0.074895
    29  C    0.076162
    30  C    0.035120
    31  C   -0.004494
    32  N   -0.310523
    33  C    0.080504
    34  C   -0.169671
    35  C    0.008464
    36  C    0.083011
    37  C    0.127292
    38  C    0.046199
    39  O   -0.188131
    40  C   -0.005334
    41  C    0.212922
    42  O   -0.257042
    43  O   -0.304835
    44  C    0.157554
    45  H   -0.017630
    46  H   -0.016889
    47  H   -0.041411
    48  H    0.001088
    49  H   -0.004100
    50  H    0.025554
    51  H    0.016420
    52  H    0.016690
    53  H    0.010945
    54  H    0.044228
    55  H    0.017970
    56  H    0.017776
    57  H    0.005895
    58  H    0.026821
    59  H    0.039087
    60  H    0.037439
    61  H    0.035426
    62  H    0.031060
    63  H    0.016500
    64  H    0.009547
    65  H    0.023213
    66  H    0.012551
    67  H    0.004823
    68  H    0.006450
    69  H    0.004790
    70  H    0.008745
    71  H    0.018178
    72  H    0.028893
    73  H    0.047687
    74  H    0.009125
    75  H    0.046125
    76  H    0.035240
    77  H    0.043163
    78  H    0.046397
    79  H    0.053984
    80  Mg   0.838038
    81  C   -0.016830
    82  C   -0.087857
    83  C   -0.045451
    84  C   -0.064489
    85  N   -0.254548
    86  C   -0.049770
    87  C   -0.015107
    88  C   -0.090540
    89  C    0.045792
    90  C    0.114408
    91  C    0.062595
    92  C   -0.077737
    93  H    0.034674
    94  N   -0.423501
    95  C    0.162877
    96  C   -0.174694
    97  C   -0.007840
    98  C    0.152103
    99  C    0.099406
   100  C    0.015530
   101  O   -0.253235
   102  C    0.061225
   103  N   -0.349988
   104  C    0.037581
   105  C   -0.019892
   106  C   -0.034905
   107  C    0.088921
   108  C    0.073570
   109  C    0.034735
   110  C   -0.007661
   111  N   -0.324167
   112  C    0.078497
   113  C   -0.162832
   114  C    0.002348
   115  C    0.096246
   116  C    0.131435
   117  C    0.042591
   118  O   -0.187830
   119  C    0.000831
   120  C    0.211198
   121  O   -0.251082
   122  O   -0.305630
   123  C    0.152097
   124  H   -0.019919
   125  H   -0.015604
   126  H   -0.040173
   127  H   -0.000759
   128  H   -0.004646
   129  H    0.022720
   130  H    0.014744
   131  H    0.015707
   132  H    0.013884
   133  H    0.037682
   134  H    0.020598
   135  H    0.019425
   136  H    0.008536
   137  H    0.026110
   138  H    0.039581
   139  H    0.038243
   140  H    0.036275
   141  H    0.033765
   142  H    0.014248
   143  H    0.012890
   144  H    0.024930
   145  H    0.011821
   146  H    0.006044
   147  H    0.006229
   148  H    0.003791
   149  H    0.010829
   150  H    0.017843
   151  H    0.030041
   152  H    0.045862
   153  H    0.008574
   154  H    0.047776
   155  H    0.035212
   156  H    0.043784
   157  H    0.049309
   158  H    0.053534
 Sum of Mulliken charges =  -0.00000
 Mulliken charges with hydrogens summed into heavy atoms:
               1
     1  Mg   0.838628
     2  C   -0.002925
     3  C   -0.111840
     4  C   -0.062819
     5  C   -0.105388
     6  N   -0.256790
     7  C   -0.052415
     8  C   -0.012902
     9  C   -0.091078
    10  C    0.046291
    11  C    0.163471
    12  C    0.108672
    13  C    0.000344
    15  N   -0.433112
    16  C    0.168305
    17  C   -0.177286
    18  C   -0.004159
    19  C    0.148654
    20  C    0.182004
    21  C    0.012106
    22  O   -0.249656
    23  C    0.166509
    24  N   -0.341149
    25  C    0.041224
    26  C   -0.011690
    27  C   -0.014456
    28  C    0.074895
    29  C    0.116749
    30  C    0.046360
    31  C    0.051321
    32  N   -0.310523
    33  C    0.080504
    34  C   -0.169671
    35  C    0.008464
    36  C    0.083011
    37  C    0.230228
    38  C    0.046199
    39  O   -0.188131
    40  C    0.029906
    41  C    0.212922
    42  O   -0.257042
    43  O   -0.304835
    44  C    0.301098
    80  Mg   0.838038
    81  C   -0.016830
    82  C   -0.107775
    83  C   -0.061054
    84  C   -0.104662
    85  N   -0.254548
    86  C   -0.049770
    87  C   -0.015866
    88  C   -0.095186
    89  C    0.045792
    90  C    0.167578
    91  C    0.114161
    92  C   -0.003041
    94  N   -0.423501
    95  C    0.162877
    96  C   -0.174694
    97  C   -0.007840
    98  C    0.152103
    99  C    0.173633
   100  C    0.015530
   101  O   -0.253235
   102  C    0.169508
   103  N   -0.349988
   104  C    0.037581
   105  C   -0.005645
   106  C   -0.022015
   107  C    0.088921
   108  C    0.116365
   109  C    0.044755
   110  C    0.051052
   111  N   -0.324167
   112  C    0.078497
   113  C   -0.162832
   114  C    0.002348
   115  C    0.096246
   116  C    0.233647
   117  C    0.042591
   118  O   -0.187830
   119  C    0.036044
   120  C    0.211198
   121  O   -0.251082
   122  O   -0.305630
   123  C    0.298725
 Electronic spatial extent (au):  <R**2>=         192849.2048
 Charge=             -0.0000 electrons
 Dipole moment (field-independent basis, Debye):
    X=              3.7892    Y=             -2.1994    Z=              7.3365  Tot=              8.5451
 Quadrupole moment (field-independent basis, Debye-Ang):
   XX=           -517.9194   YY=           -539.4943   ZZ=           -459.4767
   XY=             24.5093   XZ=              5.1201   YZ=             37.1347
 Traceless Quadrupole moment (field-independent basis, Debye-Ang):
   XX=            -12.2893   YY=            -33.8642   ZZ=             46.1535
   XY=             24.5093   XZ=              5.1201   YZ=             37.1347
 Octapole moment (field-independent basis, Debye-Ang**2):
  XXX=            724.4575  YYY=            277.5791  ZZZ=            138.6862  XYY=            234.1635
  XXY=           -153.0854  XXZ=            464.0671  XZZ=           -241.5141  YZZ=            -91.1753
  YYZ=            140.3617  XYZ=            265.0209
 Hexadecapole moment (field-independent basis, Debye-Ang**3):
 XXXX=        -199603.2609 YYYY=         -40451.6842 ZZZZ=         -25914.0019 XXXY=           2251.3081
 XXXZ=            -71.3898 YYYX=            844.4835 YYYZ=            636.4242 ZZZX=           1524.9252
 ZZZY=            365.7802 XXYY=         -41270.2601 XXZZ=         -34015.7989 YYZZ=         -11052.8376
 XXYZ=           2528.0864 YYXZ=          -2098.6288 ZZXY=           -808.9067
 N-N= 1.373790976860D+04 E-N=-3.695674164116D+04  KE= 4.028802050265D+03
 Leave Link  601 at Sun Sep 12 04:31:32 2021, MaxMem= 23488102400 cpu:              14.4 elap:               0.7
 (Enter /sw/apps/gaussian-16.0/g16/l9999.exe)
 1\1\GINC-BP1-COMPUTE00099\SP\RCAM-B3LYP TD-FC\def2SVP\C68H72Mg2N8O8\OF
 15641\12-Sep-2021\0\\#p cam-b3lyp/Def2SVP td=(nstates=5)\\TDDFT excite
 d states in gaussian\\0,1\Mg,0,0.,0.,0.\C,0,-0.217,-2.218,2.801\C,0,-1
 .255,2.442,2.026\C,0,-0.245,1.85,-2.564\C,0,0.146,-2.824,-2.037\N,0,-0
 .617,-0.009,2.126\C,0,-0.594,-0.908,3.105\C,0,-0.936,-0.309,4.502\C,0,
 -1.773,0.964,4.032\C,0,-1.155,1.168,2.66\C,0,-3.263,0.685,3.863\C,0,0.
 345,0.11,5.299\C,0,0.124,0.397,6.787\H,0,1.168,0.033,7.733\N,0,-0.185,
 1.961,-0.152\C,0,-0.703,2.8,0.777\C,0,-0.62,4.156,0.193\C,0,-0.187,4.0
 15,-1.225\C,0,-0.214,2.583,-1.38\C,0,-0.887,5.406,0.974\C,0,0.181,5.01
 3,-2.277\O,0,0.303,4.69,-3.508\C,0,0.31,6.414,-1.837\N,0,-0.265,-0.413
 ,-2.029\C,0,-0.279,0.569,-2.937\C,0,-0.196,0.024,-4.332\C,0,0.124,-1.5
 33,-4.18\C,0,0.086,-1.632,-2.635\C,0,-1.451,0.205,-5.197\C,0,1.373,-2.
 07,-4.923\C,0,2.626,-1.49,-4.306\N,0,0.15,-2.144,0.303\C,0,0.173,-3.13
 6,-0.688\C,0,0.173,-4.438,0.004\C,0,0.133,-4.111,1.358\C,0,0.083,-2.69
 5,1.502\C,0,0.149,-5.715,-0.623\C,0,0.096,-4.629,2.716\O,0,0.208,-5.74
 7,3.221\C,0,-0.255,-3.428,3.701\C,0,0.717,-3.482,4.848\O,0,1.931,-3.25
 5,4.669\O,0,0.038,-3.556,6.003\C,0,0.943,-3.583,7.183\H,0,-1.859,3.22,
 2.497\H,0,-0.218,2.453,-3.474\H,0,0.276,-3.747,-2.605\H,0,-1.554,-0.94
 9,5.132\H,0,-1.585,1.831,4.665\H,0,-3.484,-0.377,3.969\H,0,-3.511,1.02
 7,2.858\H,0,-3.852,1.301,4.543\H,0,0.669,1.096,4.966\H,0,1.13,-0.639,5
 .189\H,0,-0.844,0.026,7.125\H,0,0.062,1.477,6.921\H,0,-1.344,5.186,1.9
 38\H,0,-1.651,5.963,0.432\H,0,0.007,6.02,1.084\H,0,-0.635,6.744,-1.405
 \H,0,0.665,6.97,-2.704\H,0,1.048,6.466,-1.036\H,0,0.608,0.501,-4.891\H
 ,0,-0.692,-2.156,-4.547\H,0,-1.267,0.74,-6.129\H,0,-2.204,0.714,-4.596
 \H,0,-1.967,-0.72,-5.453\H,0,1.356,-1.759,-5.967\H,0,1.452,-3.157,-4.9
 02\H,0,2.714,-0.522,-4.798\H,0,3.487,-2.121,-4.529\H,0,2.495,-1.303,-3
 .24\H,0,0.867,-6.333,-0.084\H,0,0.404,-5.642,-1.68\H,0,-0.891,-5.999,-
 0.463\H,0,-1.283,-3.581,4.028\H,0,0.698,-4.478,7.755\H,0,0.833,-2.619,
 7.68\H,0,2.,-3.754,6.976\Mg,0,15.77265,1.42744,1.20034\C,0,15.28636,1.
 52425,4.75466\C,0,14.60829,4.63205,1.104\C,0,15.76259,1.22329,-1.96599
 \C,0,15.79847,-2.0494,1.43828\N,0,15.06979,2.79477,2.7905\C,0,14.98802
 ,2.74358,4.1115\C,0,14.64009,4.09702,4.78731\C,0,13.90575,4.80372,3.54
 627\C,0,14.59091,4.0605,2.40135\C,0,12.416,4.51065,3.48215\C,0,15.9195
 ,4.89223,5.22636\C,0,15.6533,6.07128,6.16483\H,0,16.63658,6.3711,7.202
 01\N,0,15.73268,2.85428,-0.17846\C,0,15.24437,4.10489,-0.04135\C,0,15.
 43074,4.75504,-1.34778\C,0,15.91811,3.73401,-2.31457\C,0,15.80096,2.53
 343,-1.51147\C,0,15.22802,6.22716,-1.56037\C,0,16.39675,3.82168,-3.732
 11\O,0,16.54694,2.77603,-4.45798\C,0,16.59496,5.17364,-4.27471\N,0,15.
 56795,-0.17478,-0.10861\C,0,15.65316,0.0038,-1.43856\C,0,15.75222,-1.3
 1844,-2.16124\C,0,15.96017,-2.41798,-1.01871\C,0,15.8513,-1.5119,0.227
 3\C,0,14.54648,-1.6991,-3.02011\C,0,17.19872,-3.34583,-1.15197\C,0,18.
 46667,-2.54415,-0.96493\N,0,15.76588,-0.02202,2.80255\C,0,15.75314,-1.
 42876,2.68011\C,0,15.63481,-1.98345,4.0442\C,0,15.56317,-0.85167,4.870
 29\C,0,15.61166,0.32529,4.07537\C,0,15.55764,-3.36539,4.37648\C,0,15.4
 4685,-0.38502,6.23316\O,0,15.45356,-0.92361,7.33933\C,0,15.13509,1.173
 38,6.20883\C,0,16.05412,1.8463,7.19122\O,0,17.28303,1.85856,7.00091\O,
 0,15.31891,2.54745,8.0734\C,0,16.18641,3.2419,9.06184\H,0,14.04654,5.5
 5104,0.93436\H,0,15.86817,1.09555,-3.04581\H,0,15.89825,-3.12411,1.604
 8\H,0,13.9611,4.02351,5.62835\H,0,14.13572,5.86515,3.50351\H,0,12.1177
 ,3.77723,4.21649\H,0,12.23167,4.14116,2.48188\H,0,11.84498,5.43935,3.5
 7037\H,0,16.32215,5.43011,4.35844\H,0,16.64356,4.23534,5.6678\H,0,14.6
 431,6.03918,6.59074\H,0,15.66731,6.99249,5.57729\H,0,14.71095,6.68892,
 -0.71019\H,0,14.52799,6.33617,-2.3958\H,0,16.15544,6.7489,-1.80603\H,0
 ,15.66002,5.72605,-4.21834\H,0,17.02355,5.02977,-5.26843\H,0,17.31269,
 5.70402,-3.63895\H,0,16.60887,-1.3338,-2.82382\H,0,15.1154,-3.12078,-0
 .97098\H,0,14.80721,-1.89026,-4.0782\H,0,13.81166,-0.90843,-2.94642\H,
 0,13.98784,-2.56673,-2.67321\H,0,17.24634,-3.77189,-2.15714\H,0,17.195
 5,-4.17388,-0.45103\H,0,18.63575,-2.11475,-1.95695\H,0,19.28955,-3.192
 1,-0.66982\H,0,18.30745,-1.71263,-0.26859\H,0,16.20221,-3.51632,5.2321
 9\H,0,15.85436,-3.99292,3.53866\H,0,14.49059,-3.45352,4.59764\H,0,14.0
 8547,1.3017,6.47604\H,0,15.85349,2.9273,10.05576\H,0,16.10916,4.31912,
 8.8223\H,0,17.23356,2.96439,9.09188\\Version=ES64L-G16RevA.03\State=1-
 A\HF=-4069.8117256\RMSD=4.899e-09\PG=C01 [X(C68H72Mg2N8O8)]\\@


 WHEN YOU'VE SEEN ONE NUCLEAR WAR YOU'VE SEEN THEM ALL.
 Job cpu time:       0 days 11 hours 14 minutes 22.8 seconds.
 Elapsed time:       0 days  0 hours 28 minutes 42.8 seconds.
 File lengths (MBytes):  RWF=  13225 Int=      0 D2E=      0 Chk=    574 Scr=      1
 Normal termination of Gaussian 16 at Sun Sep 12 04:31:33 2021.
