 Entering Gaussian System, Link 0=g16
 Initial command:
 /sw/apps/gaussian-16.0/g16/l1.exe "/tmp/Gau-146190.inp" -scrdir="/tmp/"
 Entering Link 1 = /sw/apps/gaussian-16.0/g16/l1.exe PID=    146191.
  
 Copyright (c) 1988,1990,1992,1993,1995,1998,2003,2009,2016,
            Gaussian, Inc.  All Rights Reserved.
  
 This is part of the Gaussian(R) 16 program.  It is based on
 the Gaussian(R) 09 system (copyright 2009, Gaussian, Inc.),
 the Gaussian(R) 03 system (copyright 2003, Gaussian, Inc.),
 the Gaussian(R) 98 system (copyright 1998, Gaussian, Inc.),
 the Gaussian(R) 94 system (copyright 1995, Gaussian, Inc.),
 the Gaussian 92(TM) system (copyright 1992, Gaussian, Inc.),
 the Gaussian 90(TM) system (copyright 1990, Gaussian, Inc.),
 the Gaussian 88(TM) system (copyright 1988, Gaussian, Inc.),
 the Gaussian 86(TM) system (copyright 1986, Carnegie Mellon
 University), and the Gaussian 82(TM) system (copyright 1983,
 Carnegie Mellon University). Gaussian is a federally registered
 trademark of Gaussian, Inc.
  
 This software contains proprietary and confidential information,
 including trade secrets, belonging to Gaussian, Inc.
  
 This software is provided under written license and may be
 used, copied, transmitted, or stored only in accord with that
 written license.
  
 The following legend is applicable only to US Government
 contracts under FAR:
  
                    RESTRICTED RIGHTS LEGEND
  
 Use, reproduction and disclosure by the US Government is
 subject to restrictions as set forth in subparagraphs (a)
 and (c) of the Commercial Computer Software - Restricted
 Rights clause in FAR 52.227-19.
  
 Gaussian, Inc.
 340 Quinnipiac St., Bldg. 40, Wallingford CT 06492
  
  
 ---------------------------------------------------------------
 Warning -- This program may not be used in any manner that
 competes with the business of Gaussian, Inc. or will provide
 assistance to any competitor of Gaussian, Inc.  The licensee
 of this program is prohibited from giving any competitor of
 Gaussian, Inc. access to this program.  By using this program,
 the user acknowledges that Gaussian, Inc. is engaged in the
 business of creating and licensing software in the field of
 computational chemistry and represents and warrants to the
 licensee that it is not a competitor of Gaussian, Inc. and that
 it will not use this program in any manner prohibited above.
 ---------------------------------------------------------------
  

 Cite this work as:
 Gaussian 16, Revision A.03,
 M. J. Frisch, G. W. Trucks, H. B. Schlegel, G. E. Scuseria, 
 M. A. Robb, J. R. Cheeseman, G. Scalmani, V. Barone, 
 G. A. Petersson, H. Nakatsuji, X. Li, M. Caricato, A. V. Marenich, 
 J. Bloino, B. G. Janesko, R. Gomperts, B. Mennucci, H. P. Hratchian, 
 J. V. Ortiz, A. F. Izmaylov, J. L. Sonnenberg, D. Williams-Young, 
 F. Ding, F. Lipparini, F. Egidi, J. Goings, B. Peng, A. Petrone, 
 T. Henderson, D. Ranasinghe, V. G. Zakrzewski, J. Gao, N. Rega, 
 G. Zheng, W. Liang, M. Hada, M. Ehara, K. Toyota, R. Fukuda, 
 J. Hasegawa, M. Ishida, T. Nakajima, Y. Honda, O. Kitao, H. Nakai, 
 T. Vreven, K. Throssell, J. A. Montgomery, Jr., J. E. Peralta, 
 F. Ogliaro, M. J. Bearpark, J. J. Heyd, E. N. Brothers, K. N. Kudin, 
 V. N. Staroverov, T. A. Keith, R. Kobayashi, J. Normand, 
 K. Raghavachari, A. P. Rendell, J. C. Burant, S. S. Iyengar, 
 J. Tomasi, M. Cossi, J. M. Millam, M. Klene, C. Adamo, R. Cammi, 
 J. W. Ochterski, R. L. Martin, K. Morokuma, O. Farkas, 
 J. B. Foresman, and D. J. Fox, Gaussian, Inc., Wallingford CT, 2016.
 
 ******************************************
 Gaussian 16:  ES64L-G16RevA.03 25-Dec-2016
                11-Sep-2021 
 ******************************************
 %nproc=24
 Will use up to   24 processors via shared memory.
 %mem=175gb
 -----------------------------------
 #p cam-b3lyp/Def2SVP td=(nstates=5)
 -----------------------------------
 1/38=1,172=1/1;
 2/12=2,17=6,18=5,40=1/2;
 3/5=43,7=101,11=9,25=1,30=1,74=-40/1,2,3,8;
 4//1;
 5/5=2,38=5/2;
 8/6=1,10=1,108=5/1;
 9/41=5,42=1,70=2/14;
 6/7=2,8=2,9=2,10=2/1;
 99/5=1,9=1/99;
 Leave Link    1 at Sat Sep 11 07:36:55 2021, MaxMem= 23488102400 cpu:               0.8 elap:               0.0
 (Enter /sw/apps/gaussian-16.0/g16/l101.exe)
 --------------------------------
 TDDFT excited states in gaussian
 --------------------------------
 Symbolic Z-matrix:
 Charge =  0 Multiplicity = 1
 Mg                    0.        0.        0. 
 C                    -0.217    -2.218     2.801 
 C                    -1.255     2.442     2.026 
 C                    -0.245     1.85     -2.564 
 C                     0.146    -2.824    -2.037 
 N                    -0.617    -0.009     2.126 
 C                    -0.594    -0.908     3.105 
 C                    -0.936    -0.309     4.502 
 C                    -1.773     0.964     4.032 
 C                    -1.155     1.168     2.66 
 C                    -3.263     0.685     3.863 
 C                     0.345     0.11      5.299 
 C                     0.124     0.397     6.787 
 H                     1.168     0.033     7.733 
 N                    -0.185     1.961    -0.152 
 C                    -0.703     2.8       0.777 
 C                    -0.62      4.156     0.193 
 C                    -0.187     4.015    -1.225 
 C                    -0.214     2.583    -1.38 
 C                    -0.887     5.406     0.974 
 C                     0.181     5.013    -2.277 
 O                     0.303     4.69     -3.508 
 C                     0.31      6.414    -1.837 
 N                    -0.265    -0.413    -2.029 
 C                    -0.279     0.569    -2.937 
 C                    -0.196     0.024    -4.332 
 C                     0.124    -1.533    -4.18 
 C                     0.086    -1.632    -2.635 
 C                    -1.451     0.205    -5.197 
 C                     1.373    -2.07     -4.923 
 C                     2.626    -1.49     -4.306 
 N                     0.15     -2.144     0.303 
 C                     0.173    -3.136    -0.688 
 C                     0.173    -4.438     0.004 
 C                     0.133    -4.111     1.358 
 C                     0.083    -2.695     1.502 
 C                     0.149    -5.715    -0.623 
 C                     0.096    -4.629     2.716 
 O                     0.208    -5.747     3.221 
 C                    -0.255    -3.428     3.701 
 C                     0.717    -3.482     4.848 
 O                     1.931    -3.255     4.669 
 O                     0.038    -3.556     6.003 
 C                     0.943    -3.583     7.183 
 H                    -1.859     3.22      2.497 
 H                    -0.218     2.453    -3.474 
 H                     0.276    -3.747    -2.605 
 H                    -1.554    -0.949     5.132 
 H                    -1.585     1.831     4.665 
 H                    -3.484    -0.377     3.969 
 H                    -3.511     1.027     2.858 
 H                    -3.852     1.301     4.543 
 H                     0.669     1.096     4.966 
 H                     1.13     -0.639     5.189 
 H                    -0.844     0.026     7.125 
 H                     0.062     1.477     6.921 
 H                    -1.344     5.186     1.938 
 H                    -1.651     5.963     0.432 
 H                     0.007     6.02      1.084 
 H                    -0.635     6.744    -1.405 
 H                     0.665     6.97     -2.704 
 H                     1.048     6.466    -1.036 
 H                     0.608     0.501    -4.891 
 H                    -0.692    -2.156    -4.547 
 H                    -1.267     0.74     -6.129 
 H                    -2.204     0.714    -4.596 
 H                    -1.967    -0.72     -5.453 
 H                     1.356    -1.759    -5.967 
 H                     1.452    -3.157    -4.902 
 H                     2.714    -0.522    -4.798 
 H                     3.487    -2.121    -4.529 
 H                     2.495    -1.303    -3.24 
 H                     0.867    -6.333    -0.084 
 H                     0.404    -5.642    -1.68 
 H                    -0.891    -5.999    -0.463 
 H                    -1.283    -3.581     4.028 
 H                     0.698    -4.478     7.755 
 H                     0.833    -2.619     7.68 
 H                     2.       -3.754     6.976 
 Mg                    13.14642   1.18263   0.99094 
 C                     12.76409   4.40935  -0.5326 
 C                     12.61957  -0.1714   -2.09509 
 C                     13.02944  -1.67133   2.37248 
 C                     12.50691   2.70893   4.05805 
 N                     12.7544   2.10341  -0.98156 
 C                     12.69259   3.34065  -1.45032 
 C                     12.62651   3.43952  -2.99803 
 C                     12.01571   1.98659  -3.30594 
 C                     12.52016   1.24268  -2.0711 
 C                     10.49639   1.95751  -3.29355 
 C                     14.04427   3.61586  -3.64678 
 C                     14.0304   4.02759  -5.12057 
 H                     15.07499   4.92748  -5.60171 
 N                     13.35264  -0.63085   0.21163 
 C                     13.1175  -0.99941  -1.06514 
 C                     13.39764  -2.44234  -1.12546 
 C                     13.65834  -2.92775   0.25698 
 C                     13.32927  -1.74032   1.01974 
 C                     13.47788  -3.20235  -2.4175 
 C                     14.11445  -4.24679   0.80315 
 O                     14.04477  -4.51806   2.05391 
 C                     14.55779  -5.24562  -0.18034 
 N                     12.60886   0.56166   2.90086 
 C                     12.69841  -0.73149   3.25816 
 C                     12.52534  -0.89874   4.74895 
 C                     12.54193   0.58226   5.35222 
 C                     12.63638   1.38945   4.03886 
 C                     11.25074  -1.61521   5.19445 
 C                     13.57535   0.87342   6.47469 
 C                     14.97772   0.81352   5.91331 
 N                     12.89478   3.20884   1.69749 
 C                     12.60861   3.62275   3.01691 
 C                     12.41484   5.08687   2.98154 
 C                     12.58031   5.42276   1.6294 
 C                     12.83765   4.24808   0.87215 
 C                     12.07996   5.90881   4.09437 
 C                     12.58528   6.50258   0.66884 
 O                     12.51176   7.72867   0.73978 
 C                     12.5792   5.87858  -0.793 
 C                     13.63148   6.58431  -1.60366 
 O                     14.83537   6.46937  -1.31376 
 O                     13.06421   7.09819  -2.71023 
 C                     14.07021   7.79869  -3.5523 
 H                     12.24192  -0.70331  -2.96879 
 H                     13.0853  -2.61698   2.91663 
 H                     12.40128   3.27166   4.98802 
 H                     11.96424   4.20904  -3.3762 
 H                     12.44493   1.56101  -4.20927 
 H                     10.07815   2.89631  -2.96208 
 H                     10.22295   1.16068  -2.61433 
 H                     10.11703   1.66008  -4.27536 
 H                     14.52435   2.6324   -3.73097 
 H                     14.63747   4.3096   -3.08335 
 H                     13.04229   4.3797   -5.44089 
 H                     14.20907   3.13895  -5.73083 
 H                     13.07779  -2.61657  -3.25427 
 H                     12.79425  -4.05381  -2.33061 
 H                     14.48297  -3.57584  -2.62477 
 H                     13.74823  -5.4508   -0.87674 
 H                     14.92925  -6.08827   0.40604 
 H                     15.3777  -4.81793  -0.76808 
 H                     13.3486  -1.46027   5.17325 
 H                     11.5788   0.84495   5.81395 
 H                     11.44705  -2.50864   5.81679 
 H                     10.6838  -1.88305   4.31276 
 H                     10.54295  -0.99849   5.74572 
 H                     13.51846   0.10569   7.25027 
 H                     13.42764   1.83261   6.95959 
 H                     15.20509  -0.25656   5.93093 
 H                     15.66645   1.37379   6.54244 
 H                     14.99664   1.13733   4.8662 
 H                     12.70154   6.7918    4.02747 
 H                     12.23221   5.38489   5.03569 
 H                     11.02091   6.08943   3.89174 
 H                     11.57994   6.02151  -1.20605 
 H                     13.70426   8.81868  -3.70525 
 H                     14.19687   7.16866  -4.45272 
 H                     15.04467   7.98667  -3.11694 
 
 ITRead=  0  0  0  0  0  0  0  0  0  0  0  0  0  0  0  0  0  0  0  0
 ITRead=  0  0  0  0  0  0  0  0  0  0  0  0  0  0  0  0  0  0  0  0
 ITRead=  0  0  0  0  0  0  0  0  0  0  0  0  0  0  0  0  0  0  0  0
 ITRead=  0  0  0  0  0  0  0  0  0  0  0  0  0  0  0  0  0  0  0  0
 ITRead=  0  0  0  0  0  0  0  0  0  0  0  0  0  0  0  0  0  0  0  0
 ITRead=  0  0  0  0  0  0  0  0  0  0  0  0  0  0  0  0  0  0  0  0
 ITRead=  0  0  0  0  0  0  0  0  0  0  0  0  0  0  0  0  0  0  0  0
 ITRead=  0  0  0  0  0  0  0  0  0  0  0  0  0  0  0  0  0  0
 MicOpt= -1 -1 -1 -1 -1 -1 -1 -1 -1 -1 -1 -1 -1 -1 -1 -1 -1 -1 -1 -1
 MicOpt= -1 -1 -1 -1 -1 -1 -1 -1 -1 -1 -1 -1 -1 -1 -1 -1 -1 -1 -1 -1
 MicOpt= -1 -1 -1 -1 -1 -1 -1 -1 -1 -1 -1 -1 -1 -1 -1 -1 -1 -1 -1 -1
 MicOpt= -1 -1 -1 -1 -1 -1 -1 -1 -1 -1 -1 -1 -1 -1 -1 -1 -1 -1 -1 -1
 MicOpt= -1 -1 -1 -1 -1 -1 -1 -1 -1 -1 -1 -1 -1 -1 -1 -1 -1 -1 -1 -1
 MicOpt= -1 -1 -1 -1 -1 -1 -1 -1 -1 -1 -1 -1 -1 -1 -1 -1 -1 -1 -1 -1
 MicOpt= -1 -1 -1 -1 -1 -1 -1 -1 -1 -1 -1 -1 -1 -1 -1 -1 -1 -1 -1 -1
 MicOpt= -1 -1 -1 -1 -1 -1 -1 -1 -1 -1 -1 -1 -1 -1 -1 -1 -1 -1
 NAtoms=    158 NQM=      158 NQMF=       0 NMMI=      0 NMMIF=      0
                NMic=       0 NMicF=      0.
                    Isotopes and Nuclear Properties:
 (Nuclear quadrupole moments (NQMom) in fm**2, nuclear magnetic moments (NMagM)
  in nuclear magnetons)

  Atom         1           2           3           4           5           6           7           8           9          10
 IAtWgt=          24          12          12          12          12          14          12          12          12          12
 AtmWgt=  23.9850450  12.0000000  12.0000000  12.0000000  12.0000000  14.0030740  12.0000000  12.0000000  12.0000000  12.0000000
 NucSpn=           0           0           0           0           0           2           0           0           0           0
 AtZEff=  -0.0000000  -0.0000000  -0.0000000  -0.0000000  -0.0000000  -0.0000000  -0.0000000  -0.0000000  -0.0000000  -0.0000000
 NQMom=    0.0000000   0.0000000   0.0000000   0.0000000   0.0000000   2.0440000   0.0000000   0.0000000   0.0000000   0.0000000
 NMagM=    0.0000000   0.0000000   0.0000000   0.0000000   0.0000000   0.4037610   0.0000000   0.0000000   0.0000000   0.0000000
 AtZNuc=  12.0000000   6.0000000   6.0000000   6.0000000   6.0000000   7.0000000   6.0000000   6.0000000   6.0000000   6.0000000

  Atom        11          12          13          14          15          16          17          18          19          20
 IAtWgt=          12          12          12           1          14          12          12          12          12          12
 AtmWgt=  12.0000000  12.0000000  12.0000000   1.0078250  14.0030740  12.0000000  12.0000000  12.0000000  12.0000000  12.0000000
 NucSpn=           0           0           0           1           2           0           0           0           0           0
 AtZEff=  -0.0000000  -0.0000000  -0.0000000  -0.0000000  -0.0000000  -0.0000000  -0.0000000  -0.0000000  -0.0000000  -0.0000000
 NQMom=    0.0000000   0.0000000   0.0000000   0.0000000   2.0440000   0.0000000   0.0000000   0.0000000   0.0000000   0.0000000
 NMagM=    0.0000000   0.0000000   0.0000000   2.7928460   0.4037610   0.0000000   0.0000000   0.0000000   0.0000000   0.0000000
 AtZNuc=   6.0000000   6.0000000   6.0000000   1.0000000   7.0000000   6.0000000   6.0000000   6.0000000   6.0000000   6.0000000

  Atom        21          22          23          24          25          26          27          28          29          30
 IAtWgt=          12          16          12          14          12          12          12          12          12          12
 AtmWgt=  12.0000000  15.9949146  12.0000000  14.0030740  12.0000000  12.0000000  12.0000000  12.0000000  12.0000000  12.0000000
 NucSpn=           0           0           0           2           0           0           0           0           0           0
 AtZEff=  -0.0000000  -0.0000000  -0.0000000  -0.0000000  -0.0000000  -0.0000000  -0.0000000  -0.0000000  -0.0000000  -0.0000000
 NQMom=    0.0000000   0.0000000   0.0000000   2.0440000   0.0000000   0.0000000   0.0000000   0.0000000   0.0000000   0.0000000
 NMagM=    0.0000000   0.0000000   0.0000000   0.4037610   0.0000000   0.0000000   0.0000000   0.0000000   0.0000000   0.0000000
 AtZNuc=   6.0000000   8.0000000   6.0000000   7.0000000   6.0000000   6.0000000   6.0000000   6.0000000   6.0000000   6.0000000

  Atom        31          32          33          34          35          36          37          38          39          40
 IAtWgt=          12          14          12          12          12          12          12          12          16          12
 AtmWgt=  12.0000000  14.0030740  12.0000000  12.0000000  12.0000000  12.0000000  12.0000000  12.0000000  15.9949146  12.0000000
 NucSpn=           0           2           0           0           0           0           0           0           0           0
 AtZEff=  -0.0000000  -0.0000000  -0.0000000  -0.0000000  -0.0000000  -0.0000000  -0.0000000  -0.0000000  -0.0000000  -0.0000000
 NQMom=    0.0000000   2.0440000   0.0000000   0.0000000   0.0000000   0.0000000   0.0000000   0.0000000   0.0000000   0.0000000
 NMagM=    0.0000000   0.4037610   0.0000000   0.0000000   0.0000000   0.0000000   0.0000000   0.0000000   0.0000000   0.0000000
 AtZNuc=   6.0000000   7.0000000   6.0000000   6.0000000   6.0000000   6.0000000   6.0000000   6.0000000   8.0000000   6.0000000

  Atom        41          42          43          44          45          46          47          48          49          50
 IAtWgt=          12          16          16          12           1           1           1           1           1           1
 AtmWgt=  12.0000000  15.9949146  15.9949146  12.0000000   1.0078250   1.0078250   1.0078250   1.0078250   1.0078250   1.0078250
 NucSpn=           0           0           0           0           1           1           1           1           1           1
 AtZEff=  -0.0000000  -0.0000000  -0.0000000  -0.0000000  -0.0000000  -0.0000000  -0.0000000  -0.0000000  -0.0000000  -0.0000000
 NQMom=    0.0000000   0.0000000   0.0000000   0.0000000   0.0000000   0.0000000   0.0000000   0.0000000   0.0000000   0.0000000
 NMagM=    0.0000000   0.0000000   0.0000000   0.0000000   2.7928460   2.7928460   2.7928460   2.7928460   2.7928460   2.7928460
 AtZNuc=   6.0000000   8.0000000   8.0000000   6.0000000   1.0000000   1.0000000   1.0000000   1.0000000   1.0000000   1.0000000

  Atom        51          52          53          54          55          56          57          58          59          60
 IAtWgt=           1           1           1           1           1           1           1           1           1           1
 AtmWgt=   1.0078250   1.0078250   1.0078250   1.0078250   1.0078250   1.0078250   1.0078250   1.0078250   1.0078250   1.0078250
 NucSpn=           1           1           1           1           1           1           1           1           1           1
 AtZEff=  -0.0000000  -0.0000000  -0.0000000  -0.0000000  -0.0000000  -0.0000000  -0.0000000  -0.0000000  -0.0000000  -0.0000000
 NQMom=    0.0000000   0.0000000   0.0000000   0.0000000   0.0000000   0.0000000   0.0000000   0.0000000   0.0000000   0.0000000
 NMagM=    2.7928460   2.7928460   2.7928460   2.7928460   2.7928460   2.7928460   2.7928460   2.7928460   2.7928460   2.7928460
 AtZNuc=   1.0000000   1.0000000   1.0000000   1.0000000   1.0000000   1.0000000   1.0000000   1.0000000   1.0000000   1.0000000

  Atom        61          62          63          64          65          66          67          68          69          70
 IAtWgt=           1           1           1           1           1           1           1           1           1           1
 AtmWgt=   1.0078250   1.0078250   1.0078250   1.0078250   1.0078250   1.0078250   1.0078250   1.0078250   1.0078250   1.0078250
 NucSpn=           1           1           1           1           1           1           1           1           1           1
 AtZEff=  -0.0000000  -0.0000000  -0.0000000  -0.0000000  -0.0000000  -0.0000000  -0.0000000  -0.0000000  -0.0000000  -0.0000000
 NQMom=    0.0000000   0.0000000   0.0000000   0.0000000   0.0000000   0.0000000   0.0000000   0.0000000   0.0000000   0.0000000
 NMagM=    2.7928460   2.7928460   2.7928460   2.7928460   2.7928460   2.7928460   2.7928460   2.7928460   2.7928460   2.7928460
 AtZNuc=   1.0000000   1.0000000   1.0000000   1.0000000   1.0000000   1.0000000   1.0000000   1.0000000   1.0000000   1.0000000

  Atom        71          72          73          74          75          76          77          78          79          80
 IAtWgt=           1           1           1           1           1           1           1           1           1          24
 AtmWgt=   1.0078250   1.0078250   1.0078250   1.0078250   1.0078250   1.0078250   1.0078250   1.0078250   1.0078250  23.9850450
 NucSpn=           1           1           1           1           1           1           1           1           1           0
 AtZEff=  -0.0000000  -0.0000000  -0.0000000  -0.0000000  -0.0000000  -0.0000000  -0.0000000  -0.0000000  -0.0000000  -0.0000000
 NQMom=    0.0000000   0.0000000   0.0000000   0.0000000   0.0000000   0.0000000   0.0000000   0.0000000   0.0000000   0.0000000
 NMagM=    2.7928460   2.7928460   2.7928460   2.7928460   2.7928460   2.7928460   2.7928460   2.7928460   2.7928460   0.0000000
 AtZNuc=   1.0000000   1.0000000   1.0000000   1.0000000   1.0000000   1.0000000   1.0000000   1.0000000   1.0000000  12.0000000

  Atom        81          82          83          84          85          86          87          88          89          90
 IAtWgt=          12          12          12          12          14          12          12          12          12          12
 AtmWgt=  12.0000000  12.0000000  12.0000000  12.0000000  14.0030740  12.0000000  12.0000000  12.0000000  12.0000000  12.0000000
 NucSpn=           0           0           0           0           2           0           0           0           0           0
 AtZEff=  -0.0000000  -0.0000000  -0.0000000  -0.0000000  -0.0000000  -0.0000000  -0.0000000  -0.0000000  -0.0000000  -0.0000000
 NQMom=    0.0000000   0.0000000   0.0000000   0.0000000   2.0440000   0.0000000   0.0000000   0.0000000   0.0000000   0.0000000
 NMagM=    0.0000000   0.0000000   0.0000000   0.0000000   0.4037610   0.0000000   0.0000000   0.0000000   0.0000000   0.0000000
 AtZNuc=   6.0000000   6.0000000   6.0000000   6.0000000   7.0000000   6.0000000   6.0000000   6.0000000   6.0000000   6.0000000

  Atom        91          92          93          94          95          96          97          98          99         100
 IAtWgt=          12          12           1          14          12          12          12          12          12          12
 AtmWgt=  12.0000000  12.0000000   1.0078250  14.0030740  12.0000000  12.0000000  12.0000000  12.0000000  12.0000000  12.0000000
 NucSpn=           0           0           1           2           0           0           0           0           0           0
 AtZEff=  -0.0000000  -0.0000000  -0.0000000  -0.0000000  -0.0000000  -0.0000000  -0.0000000  -0.0000000  -0.0000000  -0.0000000
 NQMom=    0.0000000   0.0000000   0.0000000   2.0440000   0.0000000   0.0000000   0.0000000   0.0000000   0.0000000   0.0000000
 NMagM=    0.0000000   0.0000000   2.7928460   0.4037610   0.0000000   0.0000000   0.0000000   0.0000000   0.0000000   0.0000000
 AtZNuc=   6.0000000   6.0000000   1.0000000   7.0000000   6.0000000   6.0000000   6.0000000   6.0000000   6.0000000   6.0000000

  Atom       101         102         103         104         105         106         107         108         109         110
 IAtWgt=          16          12          14          12          12          12          12          12          12          12
 AtmWgt=  15.9949146  12.0000000  14.0030740  12.0000000  12.0000000  12.0000000  12.0000000  12.0000000  12.0000000  12.0000000
 NucSpn=           0           0           2           0           0           0           0           0           0           0
 AtZEff=  -0.0000000  -0.0000000  -0.0000000  -0.0000000  -0.0000000  -0.0000000  -0.0000000  -0.0000000  -0.0000000  -0.0000000
 NQMom=    0.0000000   0.0000000   2.0440000   0.0000000   0.0000000   0.0000000   0.0000000   0.0000000   0.0000000   0.0000000
 NMagM=    0.0000000   0.0000000   0.4037610   0.0000000   0.0000000   0.0000000   0.0000000   0.0000000   0.0000000   0.0000000
 AtZNuc=   8.0000000   6.0000000   7.0000000   6.0000000   6.0000000   6.0000000   6.0000000   6.0000000   6.0000000   6.0000000

  Atom       111         112         113         114         115         116         117         118         119         120
 IAtWgt=          14          12          12          12          12          12          12          16          12          12
 AtmWgt=  14.0030740  12.0000000  12.0000000  12.0000000  12.0000000  12.0000000  12.0000000  15.9949146  12.0000000  12.0000000
 NucSpn=           2           0           0           0           0           0           0           0           0           0
 AtZEff=  -0.0000000  -0.0000000  -0.0000000  -0.0000000  -0.0000000  -0.0000000  -0.0000000  -0.0000000  -0.0000000  -0.0000000
 NQMom=    2.0440000   0.0000000   0.0000000   0.0000000   0.0000000   0.0000000   0.0000000   0.0000000   0.0000000   0.0000000
 NMagM=    0.4037610   0.0000000   0.0000000   0.0000000   0.0000000   0.0000000   0.0000000   0.0000000   0.0000000   0.0000000
 AtZNuc=   7.0000000   6.0000000   6.0000000   6.0000000   6.0000000   6.0000000   6.0000000   8.0000000   6.0000000   6.0000000

  Atom       121         122         123         124         125         126         127         128         129         130
 IAtWgt=          16          16          12           1           1           1           1           1           1           1
 AtmWgt=  15.9949146  15.9949146  12.0000000   1.0078250   1.0078250   1.0078250   1.0078250   1.0078250   1.0078250   1.0078250
 NucSpn=           0           0           0           1           1           1           1           1           1           1
 AtZEff=  -0.0000000  -0.0000000  -0.0000000  -0.0000000  -0.0000000  -0.0000000  -0.0000000  -0.0000000  -0.0000000  -0.0000000
 NQMom=    0.0000000   0.0000000   0.0000000   0.0000000   0.0000000   0.0000000   0.0000000   0.0000000   0.0000000   0.0000000
 NMagM=    0.0000000   0.0000000   0.0000000   2.7928460   2.7928460   2.7928460   2.7928460   2.7928460   2.7928460   2.7928460
 AtZNuc=   8.0000000   8.0000000   6.0000000   1.0000000   1.0000000   1.0000000   1.0000000   1.0000000   1.0000000   1.0000000

  Atom       131         132         133         134         135         136         137         138         139         140
 IAtWgt=           1           1           1           1           1           1           1           1           1           1
 AtmWgt=   1.0078250   1.0078250   1.0078250   1.0078250   1.0078250   1.0078250   1.0078250   1.0078250   1.0078250   1.0078250
 NucSpn=           1           1           1           1           1           1           1           1           1           1
 AtZEff=  -0.0000000  -0.0000000  -0.0000000  -0.0000000  -0.0000000  -0.0000000  -0.0000000  -0.0000000  -0.0000000  -0.0000000
 NQMom=    0.0000000   0.0000000   0.0000000   0.0000000   0.0000000   0.0000000   0.0000000   0.0000000   0.0000000   0.0000000
 NMagM=    2.7928460   2.7928460   2.7928460   2.7928460   2.7928460   2.7928460   2.7928460   2.7928460   2.7928460   2.7928460
 AtZNuc=   1.0000000   1.0000000   1.0000000   1.0000000   1.0000000   1.0000000   1.0000000   1.0000000   1.0000000   1.0000000

  Atom       141         142         143         144         145         146         147         148         149         150
 IAtWgt=           1           1           1           1           1           1           1           1           1           1
 AtmWgt=   1.0078250   1.0078250   1.0078250   1.0078250   1.0078250   1.0078250   1.0078250   1.0078250   1.0078250   1.0078250
 NucSpn=           1           1           1           1           1           1           1           1           1           1
 AtZEff=  -0.0000000  -0.0000000  -0.0000000  -0.0000000  -0.0000000  -0.0000000  -0.0000000  -0.0000000  -0.0000000  -0.0000000
 NQMom=    0.0000000   0.0000000   0.0000000   0.0000000   0.0000000   0.0000000   0.0000000   0.0000000   0.0000000   0.0000000
 NMagM=    2.7928460   2.7928460   2.7928460   2.7928460   2.7928460   2.7928460   2.7928460   2.7928460   2.7928460   2.7928460
 AtZNuc=   1.0000000   1.0000000   1.0000000   1.0000000   1.0000000   1.0000000   1.0000000   1.0000000   1.0000000   1.0000000

  Atom       151         152         153         154         155         156         157         158
 IAtWgt=           1           1           1           1           1           1           1           1
 AtmWgt=   1.0078250   1.0078250   1.0078250   1.0078250   1.0078250   1.0078250   1.0078250   1.0078250
 NucSpn=           1           1           1           1           1           1           1           1
 AtZEff=  -0.0000000  -0.0000000  -0.0000000  -0.0000000  -0.0000000  -0.0000000  -0.0000000  -0.0000000
 NQMom=    0.0000000   0.0000000   0.0000000   0.0000000   0.0000000   0.0000000   0.0000000   0.0000000
 NMagM=    2.7928460   2.7928460   2.7928460   2.7928460   2.7928460   2.7928460   2.7928460   2.7928460
 AtZNuc=   1.0000000   1.0000000   1.0000000   1.0000000   1.0000000   1.0000000   1.0000000   1.0000000
 Leave Link  101 at Sat Sep 11 07:36:55 2021, MaxMem= 23488102400 cpu:               3.2 elap:               0.2
 (Enter /sw/apps/gaussian-16.0/g16/l202.exe)
 Stoichiometry    C68H72Mg2N8O8
 Framework group  C1[X(C68H72Mg2N8O8)]
 Deg. of freedom   468
 Full point group                 C1      NOp   1
 Largest Abelian subgroup         C1      NOp   1
 Largest concise Abelian subgroup C1      NOp   1
                         Standard orientation:                         
 ---------------------------------------------------------------------
 Center     Atomic      Atomic             Coordinates (Angstroms)
 Number     Number       Type             X           Y           Z
 ---------------------------------------------------------------------
      1         12           0        6.453122    1.001436    0.256449
      2          6           0        7.210280   -2.439618   -0.374481
      3          6           0        7.279627    1.625177   -2.994843
      4          6           0        6.230158    4.097126    0.907303
      5          6           0        6.787867    0.299263    3.653589
      6          7           0        7.141142   -0.322600   -1.378850
      7          6           0        7.333322   -1.631719   -1.507090
      8          6           0        7.604150   -2.075453   -2.975806
      9          6           0        8.155343   -0.697162   -3.557611
     10          6           0        7.456951    0.262814   -2.610712
     11          6           0        9.663481   -0.530000   -3.402439
     12          6           0        6.297352   -2.526033   -3.711324
     13          6           0        6.514586   -3.276939   -5.028254
     14          1           0        5.599902   -4.352495   -5.380221
     15          7           0        6.242319    2.552176   -0.949211
     16          6           0        6.620296    2.625423   -2.248078
     17          6           0        6.249469    3.982174   -2.704583
     18          6           0        5.798487    4.755355   -1.514247
     19          6           0        6.100988    3.828844   -0.453375
     20          6           0        6.294917    4.408477   -4.139835
     21          6           0        5.200954    6.117810   -1.356761
     22          8           0        5.097684    6.687619   -0.216925
     23          6           0        4.815599    6.813604   -2.597895
     24          7           0        6.716002    2.106875    2.007601
     25          6           0        6.501391    3.426899    2.029121
     26          6           0        6.473737    3.952759    3.433630
     27          6           0        6.472724    2.670830    4.385687
     28          6           0        6.588891    1.571398    3.301241
     29          6           0        7.634286    4.878031    3.824796
     30          6           0        5.326295    2.565888    5.422561
     31          6           0        4.008296    2.356981    4.710990
     32          7           0        6.740062   -0.776652    1.467694
     33          6           0        6.874762   -0.834034    2.862412
     34          6           0        7.157798   -2.238307    3.211663
     35          6           0        7.184681   -2.901644    1.986467
     36          6           0        6.960342   -1.966120    0.936344
     37          6           0        7.408674   -2.737300    4.520289
     38          6           0        7.375189   -4.178864    1.318430
     39          8           0        7.505072   -5.344175    1.696151
     40          6           0        7.520427   -3.910142   -0.244427
     41          6           0        6.622962   -4.883877   -0.958362
     42          8           0        5.382061   -4.808273   -0.849656
     43          8           0        7.347163   -5.594150   -1.836763
     44          6           0        6.511287   -6.558970   -2.600037
     45          1           0        7.736247    1.975734   -3.922501
     46          1           0        6.049942    5.137547    1.185662
     47          1           0        6.820430   -0.009816    4.699946
     48          1           0        8.359859   -2.853748   -3.083439
     49          1           0        7.824777   -0.526634   -4.581998
     50          1           0       10.093211   -1.330567   -2.800487
     51          1           0        9.800418    0.432582   -2.909309
     52          1           0       10.145351   -0.439025   -4.376246
     53          1           0        5.772950   -1.646084   -4.083821
     54          1           0        5.671591   -3.128383   -3.051836
     55          1           0        7.548966   -3.605275   -5.133911
     56          1           0        6.367790   -2.575491   -5.849607
     57          1           0        6.823038    3.682477   -4.756729
     58          1           0        6.912831    5.304989   -4.186285
     59          1           0        5.302413    4.625184   -4.535192
     60          1           0        5.693011    6.925006   -3.235302
     61          1           0        4.324965    7.734992   -2.286170
     62          1           0        4.113187    6.188278   -3.149740
     63          1           0        5.570644    4.533804    3.615936
     64          1           0        7.380698    2.606302    4.985763
     65          1           0        7.312809    5.857100    4.180859
     66          1           0        8.294853    4.972707    2.963414
     67          1           0        8.312108    4.469455    4.573822
     68          1           0        5.241535    3.492543    5.989192
     69          1           0        5.463780    1.752689    6.135342
     70          1           0        3.712522    3.370867    4.443810
     71          1           0        3.280495    1.902527    5.384034
     72          1           0        4.140818    1.800899    3.782714
     73          1           0        6.847722   -3.667996    4.604590
     74          1           0        7.103816   -2.020615    5.282540
     75          1           0        8.489607   -2.871233    4.481543
     76          1           0        8.570231   -4.063268   -0.492592
     77          1           0        6.949569   -7.546722   -2.456898
     78          1           0        6.448325   -6.176156   -3.618807
     79          1           0        5.501497   -6.725320   -2.223219
     80         12           0       -6.620691   -1.062938    0.105715
     81          6           0       -6.940213    2.354676   -0.941611
     82          6           0       -5.956632    0.115039    3.237160
     83          6           0       -5.890888   -4.030414    0.959471
     84          6           0       -6.176766   -1.903626   -3.247180
     85          7           0       -6.493870    0.990402    0.918108
     86          6           0       -6.695010    2.209014    0.439729
     87          6           0       -6.709293    3.328025    1.515442
     88          6           0       -5.836628    2.588930    2.642866
     89          6           0       -6.136805    1.138001    2.272191
     90          6           0       -4.342006    2.820298    2.494861
     91          6           0       -8.157905    3.646563    2.027372
     92          6           0       -8.282105    4.933231    2.846414
     93          1           0       -9.501182    5.726494    2.715830
     94          7           0       -6.495560   -1.887177    1.906696
     95          6           0       -6.241743   -1.258374    3.073509
     96          6           0       -6.234340   -2.308872    4.103345
     97          6           0       -6.340954   -3.629980    3.426562
     98          6           0       -6.223079   -3.226034    2.039835
     99          6           0       -6.212985   -2.006862    5.573636
    100          6           0       -6.507007   -5.027190    3.942736
    101          8           0       -6.337199   -6.048689    3.187390
    102          6           0       -6.782463   -5.166656    5.380143
    103          7           0       -5.898290   -2.698210   -0.955600
    104          6           0       -5.717603   -3.887364   -0.354614
    105          6           0       -5.457758   -4.976653   -1.367685
    106          6           0       -5.742463   -4.313067   -2.794628
    107          6           0       -6.044488   -2.866592   -2.345316
    108          6           0       -4.050843   -5.574030   -1.356111
    109          6           0       -6.769018   -5.031467   -3.712646
    110          6           0       -8.152667   -4.939518   -3.110619
    111          7           0       -6.746019   -0.028450   -1.786953
    112          6           0       -6.496420   -0.563589   -3.069688
    113          6           0       -6.596290    0.551471   -4.033594
    114          6           0       -6.876566    1.671112   -3.235888
    115          6           0       -6.926470    1.284999   -1.869158
    116          6           0       -6.387276    0.457893   -5.438470
    117          6           0       -7.131048    3.093766   -3.238211
    118          8           0       -7.297756    3.944991   -4.110770
    119          6           0       -7.058447    3.622567   -1.741050
    120          6           0       -8.259499    4.494808   -1.497765
    121          8           0       -9.405113    4.011087   -1.511404
    122          8           0       -7.847543    5.704392   -1.076380
    123          6           0       -9.003434    6.601824   -0.811145
    124          1           0       -5.515526    0.380376    4.198368
    125          1           0       -5.738443   -5.087746    1.188127
    126          1           0       -6.148327   -2.101444   -4.320831
    127          1           0       -6.226589    4.250986    1.217254
    128          1           0       -6.208061    2.812511    3.639562
    129          1           0       -4.104403    3.348613    1.583504
    130          1           0       -3.891070    1.836589    2.490467
    131          1           0       -3.949561    3.327771    3.380744
    132          1           0       -8.437781    2.909804    2.791319
    133          1           0       -8.853985    3.668929    1.211537
    134          1           0       -7.395760    5.571701    2.747944
    135          1           0       -8.305615    4.668927    3.906419
    136          1           0       -5.968589   -0.954636    5.764644
    137          1           0       -5.372233   -2.563099    6.002145
    138          1           0       -7.132054   -2.310466    6.079403
    139          1           0       -5.975755   -4.709788    5.948432
    140          1           0       -6.957859   -6.231972    5.542072
    141          1           0       -7.692538   -4.604736    5.618091
    142          1           0       -6.137363   -5.807804   -1.224758
    143          1           0       -4.832890   -4.267104   -3.411382
    144          1           0       -4.043267   -6.670069   -1.205439
    145          1           0       -3.476609   -5.080020   -0.583618
    146          1           0       -3.457693   -5.375966   -2.247264
    147          1           0       -6.532251   -6.095816   -3.785268
    148          1           0       -6.794555   -4.637558   -4.723178
    149          1           0       -8.163997   -5.763682   -2.391103
    150          1           0       -8.913521   -5.073989   -3.876827
    151          1           0       -8.275260   -4.007685   -2.546430
    152          1           0       -7.172680    1.034179   -5.909152
    153          1           0       -6.397033   -0.577102   -5.773801
    154          1           0       -5.393132    0.905801   -5.518010
    155          1           0       -6.123551    4.173857   -1.633311
    156          1           0       -8.851685    7.504170   -1.411507
    157          1           0       -9.038085    6.727610    0.287360
    158          1           0       -9.978344    6.279003   -1.157243
 ---------------------------------------------------------------------
 Rotational constants (GHZ):           0.0204639           0.0080520           0.0073394
 Leave Link  202 at Sat Sep 11 07:36:55 2021, MaxMem= 23488102400 cpu:               0.2 elap:               0.0
 (Enter /sw/apps/gaussian-16.0/g16/l301.exe)
 Standard basis: def2SVP (5D, 7F)
 Ernie: Thresh=  0.10000D-02 Tol=  0.10000D-05 Strict=F.
 There are  1658 symmetry adapted cartesian basis functions of A   symmetry.
 There are  1572 symmetry adapted basis functions of A   symmetry.
  1572 basis functions,  2678 primitive gaussians,  1658 cartesian basis functions
   312 alpha electrons      312 beta electrons
       nuclear repulsion energy     14236.7650096914 Hartrees.
 IExCor=20419 DFT=T Ex+Corr=CAM-B3LYP ExCW=0 ScaHFX=  1.000000
 ScaDFX=  1.000000  1.000000  1.000000  0.810000 ScalE2=  1.000000  1.000000
 IRadAn=      5 IRanWt=     -1 IRanGd=            0 ICorTp=0 IEmpDi=  4
 HFx  wShort=  0.000000 wLong=  0.330000 cFull=  0.190000 cShort=  0.000000 cLong=  0.460000
 DFx  wShort=  0.000000 wLong=  0.330000 cFull=  0.190000 cShort=  0.000000 cLong=  0.460000
 NAtoms=  158 NActive=  158 NUniq=  158 SFac= 1.00D+00 NAtFMM=   60 NAOKFM=T Big=T
 Integral buffers will be    131072 words long.
 Raffenetti 1 integral format.
 Two-electron integral symmetry is turned on.
 Leave Link  301 at Sat Sep 11 07:36:55 2021, MaxMem= 23488102400 cpu:               1.3 elap:               0.1
 (Enter /sw/apps/gaussian-16.0/g16/l302.exe)
 NPDir=0 NMtPBC=     1 NCelOv=     1 NCel=       1 NClECP=     1 NCelD=      1
         NCelK=      1 NCelE2=     1 NClLst=     1 CellRange=     0.0.
 One-electron integrals computed using PRISM.
 One-electron integral symmetry used in STVInt
   1 Symmetry operations used in ECPInt.
 ECPInt:  NShTT=  271216 NPrTT=  987664 LenC2=  116420 LenP2D=  255074.
 LDataN:  DoStor=T MaxTD1= 4 Len=   56
 NBasis=  1572 RedAO= T EigKep=  3.36D-04  NBF=  1572
 NBsUse=  1572 1.00D-06 EigRej= -1.00D+00 NBFU=  1572
 Precomputing XC quadrature grid using
 IXCGrd= 4 IRadAn=           5 IRanWt=          -1 IRanGd=           0 AccXCQ= 0.00D+00.
 Generated NRdTot=       0 NPtTot=           0 NUsed=           0 NTot=          32
 NSgBfM=   992   972   979   980   992 MxSgAt=   158 MxSgA2=   152.
 Leave Link  302 at Sat Sep 11 07:37:00 2021, MaxMem= 23488102400 cpu:             115.0 elap:               4.8
 (Enter /sw/apps/gaussian-16.0/g16/l303.exe)
 DipDrv:  MaxL=1.
 Leave Link  303 at Sat Sep 11 07:37:01 2021, MaxMem= 23488102400 cpu:               8.6 elap:               0.4
 (Enter /sw/apps/gaussian-16.0/g16/l308.exe)
 Leave Link  308 at Sat Sep 11 07:37:01 2021, MaxMem= 23488102400 cpu:              14.1 elap:               0.7
 (Enter /sw/apps/gaussian-16.0/g16/l401.exe)
 ExpMin= 3.36D-02 ExpMax= 4.95D+03 ExpMxC= 7.45D+02 IAcc=3 IRadAn=         5 AccDes= 0.00D+00
 Harris functional with IExCor=20419 and IRadAn=       5 diagonalized for initial guess.
 HarFok:  IExCor=20419 AccDes= 0.00D+00 IRadAn=         5 IDoV= 1 UseB2=F ITyADJ=14
 ICtDFT=  3500011 ScaDFX=  1.000000  1.000000  1.000000  1.000000
 FoFCou: FMM=F IPFlag=           0 FMFlag=      100000 FMFlg1=        2001
         NFxFlg=           0 DoJE=T BraDBF=F KetDBF=T FulRan=T
         wScrn=  0.000000 ICntrl=       500 IOpCl=  0 I1Cent=   200000004 NGrid=           0
         NMat0=    1 NMatS0=      1 NMatT0=    0 NMatD0=    1 NMtDS0=    0 NMtDT0=    0
 Petite list used in FoFCou.
 Harris En= -3918.65800981792    
 JPrj=0 DoOrth=F DoCkMO=F.
 Leave Link  401 at Sat Sep 11 07:37:08 2021, MaxMem= 23488102400 cpu:             164.2 elap:               6.9
 (Enter /sw/apps/gaussian-16.0/g16/l502.exe)
 Integral symmetry usage will be decided dynamically.
 Closed shell SCF:
 Using DIIS extrapolation, IDIIS=  1040.
 NGot= 23488102400 LenX= 23482547354 LenY= 23479796732
 Requested convergence on RMS density matrix=1.00D-08 within 128 cycles.
 Requested convergence on MAX density matrix=1.00D-06.
 Requested convergence on             energy=1.00D-06.
 No special actions if energy rises.
 Fock matrices will be formed incrementally for  20 cycles.

 Cycle   1  Pass 1  IDiag  1:
 FoFJK:  IHMeth= 1 ICntrl=       0 DoSepK=T KAlg= 0 I1Cent=           0 FoldK=F
 IRaf=         1 NMat=       1 IRICut=       1 DoRegI=T DoRafI=F ISym2E= 0 IDoP0=0 IntGTp=1.
 FoFCou: FMM=T IPFlag=           0 FMFlag=      100000 FMFlg1=        2001
         NFxFlg=           0 DoJE=T BraDBF=F KetDBF=F FulRan=T
         wScrn=  0.000000 ICntrl=       500 IOpCl=  0 I1Cent=           0 NGrid=           0
         NMat0=    1 NMatS0=      1 NMatT0=    0 NMatD0=    1 NMtDS0=    0 NMtDT0=    0
 Symmetry not used in FoFCou.
 FMM levels:  10  Number of levels for PrismC:   9
 E= -4068.94958860836    
 DIIS: error= 2.04D-02 at cycle   1 NSaved=   1.
 NSaved= 1 IEnMin= 1 EnMin= -4068.94958860836     IErMin= 1 ErrMin= 2.04D-02
 ErrMax= 2.04D-02  0.00D+00 EMaxC= 1.00D-01 BMatC= 1.69D+00 BMatP= 1.69D+00
 IDIUse=3 WtCom= 7.96D-01 WtEn= 2.04D-01
 Coeff-Com:  0.100D+01
 Coeff-En:   0.100D+01
 Coeff:      0.100D+01
 Gap=     0.120 Goal=   None    Shift=    0.000
 GapD=    0.120 DampG=1.000 DampE=0.500 DampFc=0.5000 IDamp=-1.
 Damping current iteration by 5.00D-01
 RMSDP=1.57D-03 MaxDP=1.35D-01              OVMax= 2.01D-01

 Cycle   2  Pass 1  IDiag  1:
 RMSU=  7.69D-04    CP:  9.82D-01
 E= -4069.33857980248     Delta-E=       -0.388991194119 Rises=F Damp=T
 DIIS: error= 1.27D-02 at cycle   2 NSaved=   2.
 NSaved= 2 IEnMin= 2 EnMin= -4069.33857980248     IErMin= 2 ErrMin= 1.27D-02
 ErrMax= 1.27D-02  0.00D+00 EMaxC= 1.00D-01 BMatC= 3.07D-01 BMatP= 1.69D+00
 IDIUse=3 WtCom= 8.73D-01 WtEn= 1.27D-01
 Coeff-Com: -0.213D+00 0.121D+01
 Coeff-En:   0.000D+00 0.100D+01
 Coeff:     -0.186D+00 0.119D+01
 Gap=     0.135 Goal=   None    Shift=    0.000
 RMSDP=7.64D-04 MaxDP=9.42D-02 DE=-3.89D-01 OVMax= 1.87D-01

 Cycle   3  Pass 1  IDiag  1:
 RMSU=  7.31D-04    CP:  9.68D-01  1.24D+00
 E= -4069.62908626669     Delta-E=       -0.290506464211 Rises=F Damp=F
 DIIS: error= 1.57D-02 at cycle   3 NSaved=   3.
 NSaved= 3 IEnMin= 3 EnMin= -4069.62908626669     IErMin= 2 ErrMin= 1.27D-02
 ErrMax= 1.57D-02  0.00D+00 EMaxC= 1.00D-01 BMatC= 2.01D-01 BMatP= 3.07D-01
 IDIUse=3 WtCom= 8.43D-01 WtEn= 1.57D-01
 Coeff-Com: -0.267D+00 0.651D+00 0.616D+00
 Coeff-En:   0.000D+00 0.000D+00 0.100D+01
 Coeff:     -0.225D+00 0.549D+00 0.676D+00
 Gap=     0.123 Goal=   None    Shift=    0.000
 RMSDP=5.05D-04 MaxDP=4.87D-02 DE=-2.91D-01 OVMax= 1.40D-01

 Cycle   4  Pass 1  IDiag  1:
 RMSU=  2.64D-04    CP:  9.65D-01  1.55D+00  5.08D-01
 E= -4069.76592616337     Delta-E=       -0.136839896677 Rises=F Damp=F
 DIIS: error= 7.29D-03 at cycle   4 NSaved=   4.
 NSaved= 4 IEnMin= 4 EnMin= -4069.76592616337     IErMin= 4 ErrMin= 7.29D-03
 ErrMax= 7.29D-03  0.00D+00 EMaxC= 1.00D-01 BMatC= 4.99D-02 BMatP= 2.01D-01
 IDIUse=3 WtCom= 9.27D-01 WtEn= 7.29D-02
 Coeff-Com: -0.108D+00 0.225D+00 0.408D+00 0.475D+00
 Coeff-En:   0.000D+00 0.000D+00 0.218D+00 0.782D+00
 Coeff:     -0.100D+00 0.209D+00 0.394D+00 0.498D+00
 Gap=     0.122 Goal=   None    Shift=    0.000
 RMSDP=1.97D-04 MaxDP=2.05D-02 DE=-1.37D-01 OVMax= 5.99D-02

 Cycle   5  Pass 1  IDiag  1:
 RMSU=  7.47D-05    CP:  9.64D-01  1.49D+00  6.89D-01  5.54D-01
 E= -4069.81064583566     Delta-E=       -0.044719672293 Rises=F Damp=F
 DIIS: error= 8.12D-04 at cycle   5 NSaved=   5.
 NSaved= 5 IEnMin= 5 EnMin= -4069.81064583566     IErMin= 5 ErrMin= 8.12D-04
 ErrMax= 8.12D-04  0.00D+00 EMaxC= 1.00D-01 BMatC= 1.11D-03 BMatP= 4.99D-02
 IDIUse=3 WtCom= 9.92D-01 WtEn= 8.12D-03
 Coeff-Com: -0.350D-01 0.686D-01 0.162D+00 0.247D+00 0.557D+00
 Coeff-En:   0.000D+00 0.000D+00 0.000D+00 0.000D+00 0.100D+01
 Coeff:     -0.347D-01 0.681D-01 0.161D+00 0.245D+00 0.561D+00
 Gap=     0.121 Goal=   None    Shift=    0.000
 RMSDP=3.92D-05 MaxDP=4.19D-03 DE=-4.47D-02 OVMax= 1.58D-02

 Cycle   6  Pass 1  IDiag  1:
 RMSU=  2.94D-05    CP:  9.64D-01  1.49D+00  6.82D-01  6.23D-01  7.71D-01
 E= -4069.81158794758     Delta-E=       -0.000942111918 Rises=F Damp=F
 DIIS: error= 2.31D-04 at cycle   6 NSaved=   6.
 NSaved= 6 IEnMin= 6 EnMin= -4069.81158794758     IErMin= 6 ErrMin= 2.31D-04
 ErrMax= 2.31D-04  0.00D+00 EMaxC= 1.00D-01 BMatC= 1.67D-04 BMatP= 1.11D-03
 IDIUse=3 WtCom= 9.98D-01 WtEn= 2.31D-03
 Coeff-Com:  0.247D-02-0.707D-02 0.996D-02 0.385D-01 0.307D+00 0.650D+00
 Coeff-En:   0.000D+00 0.000D+00 0.000D+00 0.000D+00 0.960D-01 0.904D+00
 Coeff:      0.246D-02-0.705D-02 0.993D-02 0.384D-01 0.306D+00 0.650D+00
 Gap=     0.122 Goal=   None    Shift=    0.000
 RMSDP=1.51D-05 MaxDP=1.31D-03 DE=-9.42D-04 OVMax= 7.13D-03

 Cycle   7  Pass 1  IDiag  1:
 RMSU=  1.03D-05    CP:  9.64D-01  1.50D+00  6.88D-01  6.23D-01  8.67D-01
                    CP:  7.56D-01
 E= -4069.81176449859     Delta-E=       -0.000176551017 Rises=F Damp=F
 DIIS: error= 8.56D-05 at cycle   7 NSaved=   7.
 NSaved= 7 IEnMin= 7 EnMin= -4069.81176449859     IErMin= 7 ErrMin= 8.56D-05
 ErrMax= 8.56D-05  0.00D+00 EMaxC= 1.00D-01 BMatC= 1.86D-05 BMatP= 1.67D-04
 IDIUse=1 WtCom= 1.00D+00 WtEn= 0.00D+00
 Coeff-Com:  0.439D-02-0.958D-02-0.909D-02-0.439D-02 0.980D-01 0.322D+00
 Coeff-Com:  0.598D+00
 Coeff:      0.439D-02-0.958D-02-0.909D-02-0.439D-02 0.980D-01 0.322D+00
 Coeff:      0.598D+00
 Gap=     0.122 Goal=   None    Shift=    0.000
 RMSDP=6.30D-06 MaxDP=1.18D-03 DE=-1.77D-04 OVMax= 3.53D-03

 Cycle   8  Pass 1  IDiag  1:
 RMSU=  4.56D-06    CP:  9.64D-01  1.50D+00  6.88D-01  6.28D-01  8.73D-01
                    CP:  8.82D-01  8.38D-01
 E= -4069.81178761842     Delta-E=       -0.000023119828 Rises=F Damp=F
 DIIS: error= 4.93D-05 at cycle   8 NSaved=   8.
 NSaved= 8 IEnMin= 8 EnMin= -4069.81178761842     IErMin= 8 ErrMin= 4.93D-05
 ErrMax= 4.93D-05  0.00D+00 EMaxC= 1.00D-01 BMatC= 4.56D-06 BMatP= 1.86D-05
 IDIUse=1 WtCom= 1.00D+00 WtEn= 0.00D+00
 Coeff-Com:  0.210D-02-0.415D-02-0.765D-02-0.121D-01-0.134D-01 0.326D-01
 Coeff-Com:  0.352D+00 0.651D+00
 Coeff:      0.210D-02-0.415D-02-0.765D-02-0.121D-01-0.134D-01 0.326D-01
 Coeff:      0.352D+00 0.651D+00
 Gap=     0.122 Goal=   None    Shift=    0.000
 RMSDP=3.20D-06 MaxDP=3.82D-04 DE=-2.31D-05 OVMax= 1.22D-03

 Cycle   9  Pass 1  IDiag  1:
 RMSU=  1.88D-06    CP:  9.64D-01  1.50D+00  6.89D-01  6.29D-01  8.90D-01
                    CP:  9.08D-01  1.04D+00  9.25D-01
 E= -4069.81179491549     Delta-E=       -0.000007297072 Rises=F Damp=F
 DIIS: error= 2.07D-05 at cycle   9 NSaved=   9.
 NSaved= 9 IEnMin= 9 EnMin= -4069.81179491549     IErMin= 9 ErrMin= 2.07D-05
 ErrMax= 2.07D-05  0.00D+00 EMaxC= 1.00D-01 BMatC= 6.57D-07 BMatP= 4.56D-06
 IDIUse=1 WtCom= 1.00D+00 WtEn= 0.00D+00
 Coeff-Com:  0.454D-03-0.753D-03-0.262D-02-0.592D-02-0.217D-01-0.371D-01
 Coeff-Com:  0.107D+00 0.327D+00 0.634D+00
 Coeff:      0.454D-03-0.753D-03-0.262D-02-0.592D-02-0.217D-01-0.371D-01
 Coeff:      0.107D+00 0.327D+00 0.634D+00
 Gap=     0.122 Goal=   None    Shift=    0.000
 RMSDP=1.38D-06 MaxDP=1.64D-04 DE=-7.30D-06 OVMax= 7.84D-04

 Cycle  10  Pass 1  IDiag  1:
 RMSU=  9.23D-07    CP:  9.64D-01  1.50D+00  6.89D-01  6.30D-01  8.92D-01
                    CP:  9.22D-01  1.08D+00  1.09D+00  1.04D+00
 E= -4069.81179642560     Delta-E=       -0.000001510103 Rises=F Damp=F
 DIIS: error= 1.11D-05 at cycle  10 NSaved=  10.
 NSaved=10 IEnMin=10 EnMin= -4069.81179642560     IErMin=10 ErrMin= 1.11D-05
 ErrMax= 1.11D-05  0.00D+00 EMaxC= 1.00D-01 BMatC= 1.64D-07 BMatP= 6.57D-07
 IDIUse=1 WtCom= 1.00D+00 WtEn= 0.00D+00
 Coeff-Com: -0.424D-03 0.888D-03 0.123D-02 0.115D-02-0.389D-02-0.304D-01
 Coeff-Com: -0.493D-01-0.741D-01 0.263D+00 0.892D+00
 Coeff:     -0.424D-03 0.888D-03 0.123D-02 0.115D-02-0.389D-02-0.304D-01
 Coeff:     -0.493D-01-0.741D-01 0.263D+00 0.892D+00
 Gap=     0.122 Goal=   None    Shift=    0.000
 RMSDP=1.20D-06 MaxDP=1.37D-04 DE=-1.51D-06 OVMax= 5.93D-04

 Cycle  11  Pass 1  IDiag  1:
 RMSU=  5.04D-07    CP:  9.64D-01  1.50D+00  6.89D-01  6.30D-01  8.95D-01
                    CP:  9.32D-01  1.13D+00  1.20D+00  1.38D+00  1.36D+00
 E= -4069.81179717842     Delta-E=       -0.000000752822 Rises=F Damp=F
 DIIS: error= 3.82D-06 at cycle  11 NSaved=  11.
 NSaved=11 IEnMin=11 EnMin= -4069.81179717842     IErMin=11 ErrMin= 3.82D-06
 ErrMax= 3.82D-06  0.00D+00 EMaxC= 1.00D-01 BMatC= 5.62D-08 BMatP= 1.64D-07
 IDIUse=1 WtCom= 1.00D+00 WtEn= 0.00D+00
 Coeff-Com: -0.321D-03 0.625D-03 0.131D-02 0.210D-02 0.434D-02-0.821D-02
 Coeff-Com: -0.458D-01-0.130D+00-0.164D-01 0.458D+00 0.734D+00
 Coeff:     -0.321D-03 0.625D-03 0.131D-02 0.210D-02 0.434D-02-0.821D-02
 Coeff:     -0.458D-01-0.130D+00-0.164D-01 0.458D+00 0.734D+00
 Gap=     0.122 Goal=   None    Shift=    0.000
 RMSDP=6.62D-07 MaxDP=5.52D-05 DE=-7.53D-07 OVMax= 3.45D-04

 Cycle  12  Pass 1  IDiag  1:
 RMSU=  2.56D-07    CP:  9.64D-01  1.50D+00  6.89D-01  6.30D-01  8.96D-01
                    CP:  9.35D-01  1.15D+00  1.26D+00  1.54D+00  1.74D+00
                    CP:  1.20D+00
 E= -4069.81179742532     Delta-E=       -0.000000246899 Rises=F Damp=F
 DIIS: error= 2.44D-06 at cycle  12 NSaved=  12.
 NSaved=12 IEnMin=12 EnMin= -4069.81179742532     IErMin=12 ErrMin= 2.44D-06
 ErrMax= 2.44D-06  0.00D+00 EMaxC= 1.00D-01 BMatC= 1.30D-08 BMatP= 5.62D-08
 IDIUse=1 WtCom= 1.00D+00 WtEn= 0.00D+00
 Coeff-Com:  0.531D-05-0.266D-04 0.155D-03 0.475D-03 0.317D-02 0.425D-02
 Coeff-Com:  0.303D-02-0.330D-01-0.672D-01-0.823D-01 0.239D+00 0.932D+00
 Coeff:      0.531D-05-0.266D-04 0.155D-03 0.475D-03 0.317D-02 0.425D-02
 Coeff:      0.303D-02-0.330D-01-0.672D-01-0.823D-01 0.239D+00 0.932D+00
 Gap=     0.122 Goal=   None    Shift=    0.000
 RMSDP=4.34D-07 MaxDP=2.99D-05 DE=-2.47D-07 OVMax= 2.65D-04

 Cycle  13  Pass 1  IDiag  1:
 RMSU=  1.64D-07    CP:  9.64D-01  1.50D+00  6.89D-01  6.30D-01  8.96D-01
                    CP:  9.35D-01  1.16D+00  1.29D+00  1.65D+00  1.97D+00
                    CP:  1.62D+00  1.28D+00
 E= -4069.81179751276     Delta-E=       -0.000000087446 Rises=F Damp=F
 DIIS: error= 1.52D-06 at cycle  13 NSaved=  13.
 NSaved=13 IEnMin=13 EnMin= -4069.81179751276     IErMin=13 ErrMin= 1.52D-06
 ErrMax= 1.52D-06  0.00D+00 EMaxC= 1.00D-01 BMatC= 7.95D-09 BMatP= 1.30D-08
 IDIUse=1 WtCom= 1.00D+00 WtEn= 0.00D+00
 Coeff-Com:  0.118D-03-0.242D-03-0.364D-03-0.449D-03 0.547D-03 0.517D-02
 Coeff-Com:  0.201D-01 0.220D-01-0.370D-01-0.238D+00-0.155D+00 0.626D+00
 Coeff-Com:  0.757D+00
 Coeff:      0.118D-03-0.242D-03-0.364D-03-0.449D-03 0.547D-03 0.517D-02
 Coeff:      0.201D-01 0.220D-01-0.370D-01-0.238D+00-0.155D+00 0.626D+00
 Coeff:      0.757D+00
 Gap=     0.122 Goal=   None    Shift=    0.000
 RMSDP=3.21D-07 MaxDP=2.07D-05 DE=-8.74D-08 OVMax= 1.70D-04

 Cycle  14  Pass 1  IDiag  1:
 RMSU=  7.70D-08    CP:  9.64D-01  1.50D+00  6.89D-01  6.30D-01  8.96D-01
                    CP:  9.36D-01  1.17D+00  1.32D+00  1.72D+00  2.15D+00
                    CP:  1.87D+00  1.79D+00  1.06D+00
 E= -4069.81179754639     Delta-E=       -0.000000033626 Rises=F Damp=F
 DIIS: error= 1.02D-06 at cycle  14 NSaved=  14.
 NSaved=14 IEnMin=14 EnMin= -4069.81179754639     IErMin=14 ErrMin= 1.02D-06
 ErrMax= 1.02D-06  0.00D+00 EMaxC= 1.00D-01 BMatC= 1.17D-09 BMatP= 7.95D-09
 IDIUse=1 WtCom= 1.00D+00 WtEn= 0.00D+00
 Coeff-Com:  0.665D-04-0.131D-03-0.246D-03-0.386D-03-0.489D-03 0.141D-02
 Coeff-Com:  0.112D-01 0.191D-01 0.163D-02-0.100D+00-0.146D+00 0.117D+00
 Coeff-Com:  0.389D+00 0.707D+00
 Coeff:      0.665D-04-0.131D-03-0.246D-03-0.386D-03-0.489D-03 0.141D-02
 Coeff:      0.112D-01 0.191D-01 0.163D-02-0.100D+00-0.146D+00 0.117D+00
 Coeff:      0.389D+00 0.707D+00
 Gap=     0.122 Goal=   None    Shift=    0.000
 RMSDP=1.01D-07 MaxDP=6.76D-06 DE=-3.36D-08 OVMax= 6.96D-05

 Cycle  15  Pass 1  IDiag  1:
 RMSU=  3.92D-08    CP:  9.64D-01  1.50D+00  6.89D-01  6.30D-01  8.96D-01
                    CP:  9.35D-01  1.17D+00  1.32D+00  1.74D+00  2.19D+00
                    CP:  1.98D+00  1.93D+00  1.30D+00  9.90D-01
 E= -4069.81179755009     Delta-E=       -0.000000003700 Rises=F Damp=F
 DIIS: error= 5.47D-07 at cycle  15 NSaved=  15.
 NSaved=15 IEnMin=15 EnMin= -4069.81179755009     IErMin=15 ErrMin= 5.47D-07
 ErrMax= 5.47D-07  0.00D+00 EMaxC= 1.00D-01 BMatC= 2.85D-10 BMatP= 1.17D-09
 IDIUse=1 WtCom= 1.00D+00 WtEn= 0.00D+00
 Coeff-Com:  0.900D-05-0.161D-04-0.462D-04-0.103D-03-0.340D-03-0.424D-03
 Coeff-Com:  0.178D-02 0.382D-02 0.892D-02-0.268D-02-0.413D-01-0.616D-01
 Coeff-Com:  0.332D-01 0.355D+00 0.704D+00
 Coeff:      0.900D-05-0.161D-04-0.462D-04-0.103D-03-0.340D-03-0.424D-03
 Coeff:      0.178D-02 0.382D-02 0.892D-02-0.268D-02-0.413D-01-0.616D-01
 Coeff:      0.332D-01 0.355D+00 0.704D+00
 Gap=     0.122 Goal=   None    Shift=    0.000
 RMSDP=4.04D-08 MaxDP=2.57D-06 DE=-3.70D-09 OVMax= 2.34D-05

 Cycle  16  Pass 1  IDiag  1:
 RMSU=  1.91D-08    CP:  9.64D-01  1.50D+00  6.89D-01  6.30D-01  8.96D-01
                    CP:  9.35D-01  1.17D+00  1.32D+00  1.74D+00  2.21D+00
                    CP:  2.00D+00  2.00D+00  1.37D+00  1.22D+00  1.11D+00
 E= -4069.81179755097     Delta-E=       -0.000000000884 Rises=F Damp=F
 DIIS: error= 2.28D-07 at cycle  16 NSaved=  16.
 NSaved=16 IEnMin=16 EnMin= -4069.81179755097     IErMin=16 ErrMin= 2.28D-07
 ErrMax= 2.28D-07  0.00D+00 EMaxC= 1.00D-01 BMatC= 7.83D-11 BMatP= 2.85D-10
 IDIUse=1 WtCom= 1.00D+00 WtEn= 0.00D+00
 Coeff-Com: -0.135D-04 0.274D-04 0.440D-04 0.485D-04-0.408D-04-0.638D-03
 Coeff-Com: -0.196D-02-0.393D-02 0.506D-02 0.250D-01 0.172D-01-0.640D-01
 Coeff-Com: -0.904D-01 0.597D-02 0.360D+00 0.748D+00
 Coeff:     -0.135D-04 0.274D-04 0.440D-04 0.485D-04-0.408D-04-0.638D-03
 Coeff:     -0.196D-02-0.393D-02 0.506D-02 0.250D-01 0.172D-01-0.640D-01
 Coeff:     -0.904D-01 0.597D-02 0.360D+00 0.748D+00
 Gap=     0.122 Goal=   None    Shift=    0.000
 RMSDP=2.43D-08 MaxDP=1.94D-06 DE=-8.84D-10 OVMax= 1.82D-05

 Cycle  17  Pass 1  IDiag  1:
 RMSU=  1.21D-08    CP:  9.64D-01  1.50D+00  6.89D-01  6.30D-01  8.96D-01
                    CP:  9.35D-01  1.17D+00  1.32D+00  1.75D+00  2.21D+00
                    CP:  2.02D+00  2.02D+00  1.41D+00  1.31D+00  1.41D+00
                    CP:  1.17D+00
 E= -4069.81179755151     Delta-E=       -0.000000000535 Rises=F Damp=F
 DIIS: error= 1.13D-07 at cycle  17 NSaved=  17.
 NSaved=17 IEnMin=17 EnMin= -4069.81179755151     IErMin=17 ErrMin= 1.13D-07
 ErrMax= 1.13D-07  0.00D+00 EMaxC= 1.00D-01 BMatC= 2.58D-11 BMatP= 7.83D-11
 IDIUse=1 WtCom= 1.00D+00 WtEn= 0.00D+00
 Coeff-Com: -0.920D-05 0.181D-04 0.352D-04 0.507D-04 0.787D-04-0.216D-03
 Coeff-Com: -0.135D-02-0.332D-02 0.918D-03 0.133D-01 0.202D-01-0.156D-01
 Coeff-Com: -0.552D-01-0.911D-01-0.297D-01 0.401D+00 0.761D+00
 Coeff:     -0.920D-05 0.181D-04 0.352D-04 0.507D-04 0.787D-04-0.216D-03
 Coeff:     -0.135D-02-0.332D-02 0.918D-03 0.133D-01 0.202D-01-0.156D-01
 Coeff:     -0.552D-01-0.911D-01-0.297D-01 0.401D+00 0.761D+00
 Gap=     0.122 Goal=   None    Shift=    0.000
 RMSDP=1.43D-08 MaxDP=9.31D-07 DE=-5.35D-10 OVMax= 8.01D-06

 Cycle  18  Pass 1  IDiag  1:
 RMSU=  5.64D-09    CP:  9.64D-01  1.50D+00  6.89D-01  6.30D-01  8.96D-01
                    CP:  9.35D-01  1.17D+00  1.32D+00  1.75D+00  2.22D+00
                    CP:  2.02D+00  2.03D+00  1.43D+00  1.38D+00  1.58D+00
                    CP:  1.57D+00  1.27D+00
 E= -4069.81179755170     Delta-E=       -0.000000000189 Rises=F Damp=F
 DIIS: error= 7.99D-08 at cycle  18 NSaved=  18.
 NSaved=18 IEnMin=18 EnMin= -4069.81179755170     IErMin=18 ErrMin= 7.99D-08
 ErrMax= 7.99D-08  0.00D+00 EMaxC= 1.00D-01 BMatC= 7.12D-12 BMatP= 2.58D-11
 IDIUse=1 WtCom= 1.00D+00 WtEn= 0.00D+00
 Coeff-Com:  0.168D-06-0.697D-06 0.244D-05 0.808D-05 0.692D-04 0.133D-03
 Coeff-Com:  0.118D-03-0.451D-03-0.114D-02-0.324D-02 0.381D-02 0.169D-01
 Coeff-Com:  0.620D-02-0.452D-01-0.157D+00-0.521D-01 0.346D+00 0.885D+00
 Coeff:      0.168D-06-0.697D-06 0.244D-05 0.808D-05 0.692D-04 0.133D-03
 Coeff:      0.118D-03-0.451D-03-0.114D-02-0.324D-02 0.381D-02 0.169D-01
 Coeff:      0.620D-02-0.452D-01-0.157D+00-0.521D-01 0.346D+00 0.885D+00
 Gap=     0.122 Goal=   None    Shift=    0.000
 RMSDP=1.07D-08 MaxDP=8.40D-07 DE=-1.89D-10 OVMax= 7.17D-06

 Cycle  19  Pass 1  IDiag  1:
 RMSU=  3.31D-09    CP:  9.64D-01  1.50D+00  6.89D-01  6.30D-01  8.96D-01
                    CP:  9.35D-01  1.17D+00  1.32D+00  1.75D+00  2.22D+00
                    CP:  2.02D+00  2.04D+00  1.44D+00  1.42D+00  1.71D+00
                    CP:  1.83D+00  1.75D+00  1.18D+00
 E= -4069.81179755164     Delta-E=        0.000000000058 Rises=F Damp=F
 DIIS: error= 3.47D-08 at cycle  19 NSaved=  19.
 NSaved=19 IEnMin=18 EnMin= -4069.81179755170     IErMin=19 ErrMin= 3.47D-08
 ErrMax= 3.47D-08  0.00D+00 EMaxC= 1.00D-01 BMatC= 3.23D-12 BMatP= 7.12D-12
 IDIUse=1 WtCom= 1.00D+00 WtEn= 0.00D+00
 Coeff-Com:  0.342D-05-0.694D-05-0.113D-04-0.134D-04 0.199D-04 0.161D-03
 Coeff-Com:  0.590D-03 0.892D-03-0.946D-03-0.721D-02-0.511D-02 0.167D-01
 Coeff-Com:  0.244D-01 0.527D-02-0.974D-01-0.189D+00-0.946D-01 0.576D+00
 Coeff-Com:  0.771D+00
 Coeff:      0.342D-05-0.694D-05-0.113D-04-0.134D-04 0.199D-04 0.161D-03
 Coeff:      0.590D-03 0.892D-03-0.946D-03-0.721D-02-0.511D-02 0.167D-01
 Coeff:      0.244D-01 0.527D-02-0.974D-01-0.189D+00-0.946D-01 0.576D+00
 Coeff:      0.771D+00
 Gap=     0.122 Goal=   None    Shift=    0.000
 RMSDP=7.38D-09 MaxDP=4.90D-07 DE= 5.82D-11 OVMax= 4.01D-06

 SCF Done:  E(RCAM-B3LYP) =  -4069.81179755     A.U. after   19 cycles
            NFock= 19  Conv=0.74D-08     -V/T= 2.0102
 KE= 4.028801836382D+03 PE=-3.795449598103D+04 EE= 1.561911733740D+04
 Leave Link  502 at Sat Sep 11 07:46:07 2021, MaxMem= 23488102400 cpu:           12351.9 elap:             538.6
 (Enter /sw/apps/gaussian-16.0/g16/l801.exe)
 DoSCS=F DFT=T ScalE2(SS,OS)=  1.000000  1.000000
 ExpMin= 3.36D-02 ExpMax= 4.95D+03 ExpMxC= 7.45D+02 IAcc=3 IRadAn=         5 AccDes= 0.00D+00
 HarFok:  IExCor=  205 AccDes= 0.00D+00 IRadAn=         5 IDoV=-2 UseB2=F ITyADJ=14
 ICtDFT= 12500011 ScaDFX=  1.000000  1.000000  1.000000  1.000000
 GSVD:  LWork=       -9588 too small for GESVD, short by       45590 words or       45590 for optimal perf.
 Largest valence mixing into a core orbital is  2.03D-04
 Largest core mixing into a valence orbital is  5.24D-05
 Range of M.O.s used for correlation:    95  1572
 NBasis=  1572 NAE=   312 NBE=   312 NFC=    94 NFV=     0
 NROrb=   1478 NOA=   218 NOB=   218 NVA=  1260 NVB=  1260
 Leave Link  801 at Sat Sep 11 07:46:07 2021, MaxMem= 23488102400 cpu:               8.4 elap:               0.4
 (Enter /sw/apps/gaussian-16.0/g16/l914.exe)
 RHF ground state
 Two-electron integrals replicated using symmetry.
 MDV= 23488102400 DFT=T DoStab=F Mixed=T DoRPA=T DoScal=F NonHer=T
 Making orbital integer symmetry assigments:
 Orbital symmetries:
       Occupied  (A) (A) (A) (A) (A) (A) (A) (A) (A) (A) (A) (A)
                 (A) (A) (A) (A) (A) (A) (A) (A) (A) (A) (A) (A)
                 (A) (A) (A) (A) (A) (A) (A) (A) (A) (A) (A) (A)
                 (A) (A) (A) (A) (A) (A) (A) (A) (A) (A) (A) (A)
                 (A) (A) (A) (A) (A) (A) (A) (A) (A) (A) (A) (A)
                 (A) (A) (A) (A) (A) (A) (A) (A) (A) (A) (A) (A)
                 (A) (A) (A) (A) (A) (A) (A) (A) (A) (A) (A) (A)
                 (A) (A) (A) (A) (A) (A) (A) (A) (A) (A) (A) (A)
                 (A) (A) (A) (A) (A) (A) (A) (A) (A) (A) (A) (A)
                 (A) (A) (A) (A) (A) (A) (A) (A) (A) (A) (A) (A)
                 (A) (A) (A) (A) (A) (A) (A) (A) (A) (A) (A) (A)
                 (A) (A) (A) (A) (A) (A) (A) (A) (A) (A) (A) (A)
                 (A) (A) (A) (A) (A) (A) (A) (A) (A) (A) (A) (A)
                 (A) (A) (A) (A) (A) (A) (A) (A) (A) (A) (A) (A)
                 (A) (A) (A) (A) (A) (A) (A) (A) (A) (A) (A) (A)
                 (A) (A) (A) (A) (A) (A) (A) (A) (A) (A) (A) (A)
                 (A) (A) (A) (A) (A) (A) (A) (A) (A) (A) (A) (A)
                 (A) (A) (A) (A) (A) (A) (A) (A) (A) (A) (A) (A)
                 (A) (A) (A) (A) (A) (A) (A) (A) (A) (A) (A) (A)
                 (A) (A) (A) (A) (A) (A) (A) (A) (A) (A) (A) (A)
                 (A) (A) (A) (A) (A) (A) (A) (A) (A) (A) (A) (A)
                 (A) (A) (A) (A) (A) (A) (A) (A) (A) (A) (A) (A)
                 (A) (A) (A) (A) (A) (A) (A) (A) (A) (A) (A) (A)
                 (A) (A) (A) (A) (A) (A) (A) (A) (A) (A) (A) (A)
                 (A) (A) (A) (A) (A) (A) (A) (A) (A) (A) (A) (A)
                 (A) (A) (A) (A) (A) (A) (A) (A) (A) (A) (A) (A)
       Virtual   (A) (A) (A) (A) (A) (A) (A) (A) (A) (A) (A) (A)
                 (A) (A) (A) (A) (A) (A) (A) (A) (A) (A) (A) (A)
                 (A) (A) (A) (A) (A) (A) (A) (A) (A) (A) (A) (A)
                 (A) (A) (A) (A) (A) (A) (A) (A) (A) (A) (A) (A)
                 (A) (A) (A) (A) (A) (A) (A) (A) (A) (A) (A) (A)
                 (A) (A) (A) (A) (A) (A) (A) (A) (A) (A) (A) (A)
                 (A) (A) (A) (A) (A) (A) (A) (A) (A) (A) (A) (A)
                 (A) (A) (A) (A) (A) (A) (A) (A) (A) (A) (A) (A)
                 (A) (A) (A) (A) (A) (A) (A) (A) (A) (A) (A) (A)
                 (A) (A) (A) (A) (A) (A) (A) (A) (A) (A) (A) (A)
                 (A) (A) (A) (A) (A) (A) (A) (A) (A) (A) (A) (A)
                 (A) (A) (A) (A) (A) (A) (A) (A) (A) (A) (A) (A)
                 (A) (A) (A) (A) (A) (A) (A) (A) (A) (A) (A) (A)
                 (A) (A) (A) (A) (A) (A) (A) (A) (A) (A) (A) (A)
                 (A) (A) (A) (A) (A) (A) (A) (A) (A) (A) (A) (A)
                 (A) (A) (A) (A) (A) (A) (A) (A) (A) (A) (A) (A)
                 (A) (A) (A) (A) (A) (A) (A) (A) (A) (A) (A) (A)
                 (A) (A) (A) (A) (A) (A) (A) (A) (A) (A) (A) (A)
                 (A) (A) (A) (A) (A) (A) (A) (A) (A) (A) (A) (A)
                 (A) (A) (A) (A) (A) (A) (A) (A) (A) (A) (A) (A)
                 (A) (A) (A) (A) (A) (A) (A) (A) (A) (A) (A) (A)
                 (A) (A) (A) (A) (A) (A) (A) (A) (A) (A) (A) (A)
                 (A) (A) (A) (A) (A) (A) (A) (A) (A) (A) (A) (A)
                 (A) (A) (A) (A) (A) (A) (A) (A) (A) (A) (A) (A)
                 (A) (A) (A) (A) (A) (A) (A) (A) (A) (A) (A) (A)
                 (A) (A) (A) (A) (A) (A) (A) (A) (A) (A) (A) (A)
                 (A) (A) (A) (A) (A) (A) (A) (A) (A) (A) (A) (A)
                 (A) (A) (A) (A) (A) (A) (A) (A) (A) (A) (A) (A)
                 (A) (A) (A) (A) (A) (A) (A) (A) (A) (A) (A) (A)
                 (A) (A) (A) (A) (A) (A) (A) (A) (A) (A) (A) (A)
                 (A) (A) (A) (A) (A) (A) (A) (A) (A) (A) (A) (A)
                 (A) (A) (A) (A) (A) (A) (A) (A) (A) (A) (A) (A)
                 (A) (A) (A) (A) (A) (A) (A) (A) (A) (A) (A) (A)
                 (A) (A) (A) (A) (A) (A) (A) (A) (A) (A) (A) (A)
                 (A) (A) (A) (A) (A) (A) (A) (A) (A) (A) (A) (A)
                 (A) (A) (A) (A) (A) (A) (A) (A) (A) (A) (A) (A)
                 (A) (A) (A) (A) (A) (A) (A) (A) (A) (A) (A) (A)
                 (A) (A) (A) (A) (A) (A) (A) (A) (A) (A) (A) (A)
                 (A) (A) (A) (A) (A) (A) (A) (A) (A) (A) (A) (A)
                 (A) (A) (A) (A) (A) (A) (A) (A) (A) (A) (A) (A)
                 (A) (A) (A) (A) (A) (A) (A) (A) (A) (A) (A) (A)
                 (A) (A) (A) (A) (A) (A) (A) (A) (A) (A) (A) (A)
                 (A) (A) (A) (A) (A) (A) (A) (A) (A) (A) (A) (A)
                 (A) (A) (A) (A) (A) (A) (A) (A) (A) (A) (A) (A)
                 (A) (A) (A) (A) (A) (A) (A) (A) (A) (A) (A) (A)
                 (A) (A) (A) (A) (A) (A) (A) (A) (A) (A) (A) (A)
                 (A) (A) (A) (A) (A) (A) (A) (A) (A) (A) (A) (A)
                 (A) (A) (A) (A) (A) (A) (A) (A) (A) (A) (A) (A)
                 (A) (A) (A) (A) (A) (A) (A) (A) (A) (A) (A) (A)
                 (A) (A) (A) (A) (A) (A) (A) (A) (A) (A) (A) (A)
                 (A) (A) (A) (A) (A) (A) (A) (A) (A) (A) (A) (A)
                 (A) (A) (A) (A) (A) (A) (A) (A) (A) (A) (A) (A)
                 (A) (A) (A) (A) (A) (A) (A) (A) (A) (A) (A) (A)
                 (A) (A) (A) (A) (A) (A) (A) (A) (A) (A) (A) (A)
                 (A) (A) (A) (A) (A) (A) (A) (A) (A) (A) (A) (A)
                 (A) (A) (A) (A) (A) (A) (A) (A) (A) (A) (A) (A)
                 (A) (A) (A) (A) (A) (A) (A) (A) (A) (A) (A) (A)
                 (A) (A) (A) (A) (A) (A) (A) (A) (A) (A) (A) (A)
                 (A) (A) (A) (A) (A) (A) (A) (A) (A) (A) (A) (A)
                 (A) (A) (A) (A) (A) (A) (A) (A) (A) (A) (A) (A)
                 (A) (A) (A) (A) (A) (A) (A) (A) (A) (A) (A) (A)
                 (A) (A) (A) (A) (A) (A) (A) (A) (A) (A) (A) (A)
                 (A) (A) (A) (A) (A) (A) (A) (A) (A) (A) (A) (A)
                 (A) (A) (A) (A) (A) (A) (A) (A) (A) (A) (A) (A)
                 (A) (A) (A) (A) (A) (A) (A) (A) (A) (A) (A) (A)
                 (A) (A) (A) (A) (A) (A) (A) (A) (A) (A) (A) (A)
                 (A) (A) (A) (A) (A) (A) (A) (A) (A) (A) (A) (A)
                 (A) (A) (A) (A) (A) (A) (A) (A) (A) (A) (A) (A)
                 (A) (A) (A) (A) (A) (A) (A) (A) (A) (A) (A) (A)
                 (A) (A) (A) (A) (A) (A) (A) (A) (A) (A) (A) (A)
                 (A) (A) (A) (A) (A) (A) (A) (A) (A) (A) (A) (A)
                 (A) (A) (A) (A) (A) (A) (A) (A) (A) (A) (A) (A)
                 (A) (A) (A) (A) (A) (A) (A) (A) (A) (A) (A) (A)
                 (A) (A) (A) (A) (A) (A) (A) (A) (A) (A) (A) (A)
                 (A) (A) (A) (A) (A) (A) (A) (A) (A) (A) (A) (A)
                 (A) (A) (A) (A) (A) (A) (A) (A) (A) (A) (A) (A)
                 (A) (A) (A) (A) (A) (A) (A) (A) (A) (A) (A) (A)
                 (A) (A) (A) (A) (A) (A) (A) (A) (A) (A) (A) (A)
                 (A) (A) (A) (A) (A) (A) (A) (A) (A) (A) (A) (A)
                 (A) (A) (A) (A) (A) (A) (A) (A) (A) (A) (A) (A)
                 (A) (A) (A) (A) (A) (A) (A) (A) (A) (A) (A) (A)
                 (A) (A) (A) (A) (A) (A) (A) (A) (A) (A) (A) (A)
                 (A) (A) (A) (A) (A) (A) (A) (A) (A) (A) (A) (A)
                 (A) (A) (A) (A) (A) (A) (A) (A) (A) (A) (A) (A)
                 (A) (A) (A) (A) (A) (A) (A) (A) (A) (A) (A) (A)
                 (A) (A) (A) (A) (A) (A) (A) (A) (A) (A) (A) (A)
                 (A) (A) (A) (A) (A) (A) (A) (A) (A) (A) (A) (A)
                 (A) (A) (A) (A) (A) (A) (A) (A) (A) (A) (A) (A)
                 (A) (A) (A) (A) (A) (A) (A) (A) (A) (A) (A) (A)
                 (A) (A) (A) (A) (A) (A) (A) (A) (A) (A) (A) (A)
                 (A) (A) (A) (A) (A) (A) (A) (A) (A) (A) (A) (A)
                 (A) (A) (A) (A) (A) (A) (A) (A) (A) (A) (A) (A)
                 (A) (A) (A) (A) (A) (A) (A) (A) (A) (A) (A) (A)
                 (A) (A) (A) (A) (A) (A) (A) (A) (A) (A) (A) (A)
                 (A) (A) (A) (A) (A) (A) (A) (A) (A) (A) (A) (A)
                 (A) (A) (A) (A) (A) (A) (A) (A) (A) (A) (A) (A)
                 (A) (A) (A) (A) (A) (A) (A) (A) (A) (A) (A) (A)
                 (A) (A) (A) (A) (A) (A) (A) (A) (A) (A) (A) (A)
                 (A) (A) (A) (A) (A) (A) (A) (A) (A) (A) (A) (A)
                 (A) (A) (A) (A) (A) (A) (A) (A) (A) (A) (A) (A)
                 (A) (A) (A) (A) (A) (A) (A) (A) (A) (A) (A) (A)
                 (A) (A) (A) (A) (A) (A) (A) (A) (A) (A) (A) (A)
                 (A) (A) (A) (A) (A) (A) (A) (A) (A) (A) (A) (A)
                 (A) (A) (A) (A) (A) (A) (A) (A) (A) (A) (A) (A)
                 (A) (A) (A) (A) (A) (A) (A) (A) (A) (A) (A) (A)
    20 initial guesses have been made.
 Convergence on wavefunction:    0.001000000000000
 Davidson Disk Diagonalization:  ConvIn= 1.00D-03 SkipCon=T Conv= 1.00D-03.
 Max sub-space:  2000 roots to seek:    20 dimension of matrix:       549360
 Iteration     1 Dimension    20 NMult     0 NNew     20
 CISAX will form    20 AO SS matrices at one time.
 NMat=    20 NSing=    20 JSym2X= 0.
 FoFJK:  IHMeth= 1 ICntrl=       0 DoSepK=T KAlg= 0 I1Cent=           0 FoldK=F
 IRaf=         1 NMat=      40 IRICut=       1 DoRegI=T DoRafI=F ISym2E= 0 IDoP0=3 IntGTp=3.
 FoFCou: FMM=T IPFlag=           0 FMFlag=      100000 FMFlg1=        2001
         NFxFlg=           0 DoJE=F BraDBF=F KetDBF=F FulRan=T
         wScrn=  0.000000 ICntrl=       500 IOpCl=  0 I1Cent=           0 NGrid=           0
         NMat0=   20 NMatS0=     20 NMatT0=    0 NMatD0=   20 NMtDS0=    0 NMtDT0=    0
 Symmetry not used in FoFCou.
 FMM levels:  10  Number of levels for PrismC:   9
 New state      1 was old state      7
 New state      2 was old state      6
 New state      3 was old state      1
 New state      4 was old state      2
 New state      5 was old state      3
 Excitation Energies [eV] at current iteration:
 Root      1 :     2.613297154339025
 Root      2 :     2.619665052089154
 Root      3 :     2.651464898099509
 Root      4 :     2.660640303000148
 Root      5 :     2.710439859696167
 Root      6 :     2.738374575962440
 Root      7 :     3.441055623151104
 Root      8 :     3.539204930691227
 Root      9 :     3.632809205603163
 Root     10 :     3.669628996558106
 Root     11 :     3.734278738168247
 Root     12 :     3.757473796029617
 Root     13 :     4.286579616166427
 Root     14 :     4.325347870980438
 Root     15 :     4.556216065484347
 Root     16 :     4.672801893615786
 Root     17 :     4.869710990853820
 Root     18 :     4.902963173573409
 Root     19 :     4.963450391358040
 Root     20 :     4.995230625725462
 Iteration     2 Dimension    30 NMult    20 NNew     10
 CISAX will form    10 AO SS matrices at one time.
 NMat=    10 NSing=    10 JSym2X= 0.
 New state      1 was old state      4
 Root      1 not converged, maximum delta is    0.149830871529778
 New state      2 was old state      5
 Root      2 not converged, maximum delta is    0.154936711138963
 New state      3 was old state      1
 Root      3 not converged, maximum delta is    0.278366593265585
 New state      4 was old state      2
 Root      4 not converged, maximum delta is    0.267035317064965
 New state      5 was old state      3
 Root      5 not converged, maximum delta is    0.001320766646177
 Excitation Energies [eV] at current iteration:
 Root      1 :     1.792030261161345   Change is   -0.868610041838802
 Root      2 :     1.816046667617923   Change is   -0.894393192078244
 Root      3 :     2.234042183601927   Change is   -0.379254970737098
 Root      4 :     2.240919168821820   Change is   -0.378745883267335
 Root      5 :     2.651295516448546   Change is   -0.000169381650963
 Iteration     3 Dimension    40 NMult    30 NNew     10
 CISAX will form    10 AO SS matrices at one time.
 NMat=    10 NSing=    10 JSym2X= 0.
 Root      1 not converged, maximum delta is    0.055655264599442
 Root      2 not converged, maximum delta is    0.056408543568750
 Root      3 not converged, maximum delta is    0.072472053174230
 Root      4 not converged, maximum delta is    0.072018013221428
 Root      5 has converged.
 Excitation Energies [eV] at current iteration:
 Root      1 :     1.685508321171305   Change is   -0.106521939990040
 Root      2 :     1.707136052111781   Change is   -0.108910615506142
 Root      3 :     2.193278453351271   Change is   -0.040763730250656
 Root      4 :     2.201529321179663   Change is   -0.039389847642157
 Root      5 :     2.651294734132475   Change is   -0.000000782316071
 Iteration     4 Dimension    48 NMult    40 NNew      8
 CISAX will form     8 AO SS matrices at one time.
 NMat=     8 NSing=     8 JSym2X= 0.
 Root      1 not converged, maximum delta is    0.010740750512379
 Root      2 not converged, maximum delta is    0.010595756981126
 Root      3 not converged, maximum delta is    0.012621342238249
 Root      4 not converged, maximum delta is    0.012465052606283
 Root      5 has converged.
 Excitation Energies [eV] at current iteration:
 Root      1 :     1.668800195204229   Change is   -0.016708125967076
 Root      2 :     1.690250827073726   Change is   -0.016885225038055
 Root      3 :     2.186087989291444   Change is   -0.007190464059827
 Root      4 :     2.194692958526252   Change is   -0.006836362653410
 Root      5 :     2.651294734130491   Change is   -0.000000000001984
 Iteration     5 Dimension    56 NMult    48 NNew      8
 CISAX will form     8 AO SS matrices at one time.
 NMat=     8 NSing=     8 JSym2X= 0.
 Root      1 not converged, maximum delta is    0.001729396486030
 Root      2 not converged, maximum delta is    0.001751462414895
 Root      3 not converged, maximum delta is    0.002408245113989
 Root      4 not converged, maximum delta is    0.002276981073017
 Root      5 has converged.
 Excitation Energies [eV] at current iteration:
 Root      1 :     1.667047255014605   Change is   -0.001752940189624
 Root      2 :     1.688453168107611   Change is   -0.001797658966114
 Root      3 :     2.185251629241785   Change is   -0.000836360049658
 Root      4 :     2.193910719998919   Change is   -0.000782238527333
 Root      5 :     2.651294734129436   Change is   -0.000000000001054
 Iteration     6 Dimension    64 NMult    56 NNew      8
 CISAX will form     8 AO SS matrices at one time.
 NMat=     8 NSing=     8 JSym2X= 0.
 Root      1 not converged, maximum delta is    0.001074758854135
 Root      2 not converged, maximum delta is    0.001088852588539
 Root      3 not converged, maximum delta is    0.001005536738077
 Root      4 has converged.
 Root      5 has converged.
 Excitation Energies [eV] at current iteration:
 Root      1 :     1.666797879149592   Change is   -0.000249375865013
 Root      2 :     1.688195089825630   Change is   -0.000258078281981
 Root      3 :     2.185125585970713   Change is   -0.000126043271072
 Root      4 :     2.193791593824771   Change is   -0.000119126174148
 Root      5 :     2.651294734128599   Change is   -0.000000000000837
 Iteration     7 Dimension    70 NMult    64 NNew      6
 CISAX will form     6 AO SS matrices at one time.
 NMat=     6 NSing=     6 JSym2X= 0.
 Root      1 has converged.
 Root      2 has converged.
 Root      3 has converged.
 Root      4 has converged.
 Root      5 has converged.
 Excitation Energies [eV] at current iteration:
 Root      1 :     1.666773573003105   Change is   -0.000024306146487
[...]
 Alpha virt. eigenvalues --    1.84420   1.84582   1.84802   1.84845   1.85054
 Alpha virt. eigenvalues --    1.85175   1.85256   1.85408   1.85489   1.85548
 Alpha virt. eigenvalues --    1.85845   1.85954   1.86330   1.86448   1.86539
 Alpha virt. eigenvalues --    1.86710   1.86756   1.86896   1.86999   1.87085
 Alpha virt. eigenvalues --    1.87419   1.87530   1.87663   1.87822   1.87844
 Alpha virt. eigenvalues --    1.88017   1.88085   1.88233   1.88522   1.88635
 Alpha virt. eigenvalues --    1.88816   1.88999   1.89084   1.89140   1.89617
 Alpha virt. eigenvalues --    1.89723   1.89737   1.89933   1.90105   1.90245
 Alpha virt. eigenvalues --    1.90730   1.90952   1.91326   1.91417   1.91512
 Alpha virt. eigenvalues --    1.91641   1.92133   1.92228   1.92610   1.92708
 Alpha virt. eigenvalues --    1.92959   1.93209   1.93303   1.93569   1.94238
 Alpha virt. eigenvalues --    1.94365   1.94669   1.94888   1.95427   1.95669
 Alpha virt. eigenvalues --    1.95709   1.95858   1.95977   1.96108   1.96110
 Alpha virt. eigenvalues --    1.96217   1.96536   1.96564   1.96882   1.96996
 Alpha virt. eigenvalues --    1.97418   1.97589   1.97799   1.97845   1.98154
 Alpha virt. eigenvalues --    1.98218   1.98385   1.98663   1.99120   1.99135
 Alpha virt. eigenvalues --    1.99813   1.99980   2.00632   2.00777   2.00983
 Alpha virt. eigenvalues --    2.01146   2.01469   2.01573   2.01637   2.01648
 Alpha virt. eigenvalues --    2.01707   2.01866   2.02763   2.02766   2.03201
 Alpha virt. eigenvalues --    2.03220   2.03391   2.03425   2.03471   2.03564
 Alpha virt. eigenvalues --    2.04015   2.04077   2.04941   2.05034   2.05497
 Alpha virt. eigenvalues --    2.05688   2.06066   2.06339   2.06894   2.07066
 Alpha virt. eigenvalues --    2.07161   2.07392   2.08572   2.08623   2.08968
 Alpha virt. eigenvalues --    2.09047   2.09579   2.09657   2.10729   2.11100
 Alpha virt. eigenvalues --    2.11165   2.11454   2.11524   2.11572   2.11716
 Alpha virt. eigenvalues --    2.11918   2.12448   2.12511   2.12789   2.12812
 Alpha virt. eigenvalues --    2.12858   2.12919   2.13674   2.13759   2.14100
 Alpha virt. eigenvalues --    2.14338   2.15317   2.15461   2.15911   2.16134
 Alpha virt. eigenvalues --    2.16495   2.16649   2.16740   2.17210   2.17392
 Alpha virt. eigenvalues --    2.17683   2.17728   2.17985   2.18030   2.18063
 Alpha virt. eigenvalues --    2.18316   2.18711   2.18856   2.19271   2.19625
 Alpha virt. eigenvalues --    2.19858   2.20027   2.20189   2.20283   2.20485
 Alpha virt. eigenvalues --    2.21103   2.21243   2.21654   2.21729   2.21803
 Alpha virt. eigenvalues --    2.21913   2.22657   2.22753   2.23280   2.23394
 Alpha virt. eigenvalues --    2.24372   2.24469   2.24908   2.25068   2.26286
 Alpha virt. eigenvalues --    2.26484   2.26753   2.27058   2.27088   2.27243
 Alpha virt. eigenvalues --    2.28121   2.28363   2.29248   2.29492   2.29721
 Alpha virt. eigenvalues --    2.29924   2.30439   2.30658   2.30854   2.31055
 Alpha virt. eigenvalues --    2.31169   2.31253   2.32093   2.32304   2.33121
 Alpha virt. eigenvalues --    2.33279   2.33432   2.33532   2.34100   2.34200
 Alpha virt. eigenvalues --    2.35330   2.35355   2.35787   2.35955   2.36308
 Alpha virt. eigenvalues --    2.36381   2.36507   2.36611   2.37614   2.37725
 Alpha virt. eigenvalues --    2.38240   2.38440   2.38820   2.38848   2.39594
 Alpha virt. eigenvalues --    2.39712   2.40139   2.40326   2.40471   2.40864
 Alpha virt. eigenvalues --    2.41247   2.41250   2.41646   2.41737   2.42024
 Alpha virt. eigenvalues --    2.42158   2.42886   2.42900   2.43074   2.43523
 Alpha virt. eigenvalues --    2.44025   2.44157   2.44716   2.44851   2.44882
 Alpha virt. eigenvalues --    2.45032   2.45523   2.45611   2.46293   2.46330
 Alpha virt. eigenvalues --    2.46461   2.46533   2.46786   2.46829   2.47222
 Alpha virt. eigenvalues --    2.47419   2.47687   2.47940   2.49283   2.49458
 Alpha virt. eigenvalues --    2.49934   2.50018   2.50500   2.50512   2.51104
 Alpha virt. eigenvalues --    2.51299   2.51652   2.51870   2.52421   2.52423
 Alpha virt. eigenvalues --    2.52791   2.53202   2.53892   2.54020   2.54138
 Alpha virt. eigenvalues --    2.54345   2.54758   2.54846   2.55500   2.55712
 Alpha virt. eigenvalues --    2.57848   2.58126   2.58614   2.58959   2.60192
 Alpha virt. eigenvalues --    2.60323   2.60596   2.60962   2.61689   2.61870
 Alpha virt. eigenvalues --    2.62468   2.62512   2.62931   2.63162   2.63921
 Alpha virt. eigenvalues --    2.64189   2.64255   2.64493   2.65048   2.65143
 Alpha virt. eigenvalues --    2.65773   2.65891   2.66731   2.66858   2.66887
 Alpha virt. eigenvalues --    2.67099   2.67876   2.68023   2.68834   2.68854
 Alpha virt. eigenvalues --    2.69005   2.69050   2.69344   2.69624   2.69962
 Alpha virt. eigenvalues --    2.70171   2.70949   2.71094   2.71917   2.72031
 Alpha virt. eigenvalues --    2.72505   2.72635   2.72750   2.72813   2.73224
 Alpha virt. eigenvalues --    2.73330   2.73470   2.73517   2.74484   2.74531
 Alpha virt. eigenvalues --    2.74952   2.75080   2.76552   2.76554   2.77084
 Alpha virt. eigenvalues --    2.77213   2.77439   2.77640   2.78176   2.78339
 Alpha virt. eigenvalues --    2.78705   2.78725   2.79111   2.79179   2.80299
 Alpha virt. eigenvalues --    2.80331   2.80575   2.80700   2.81098   2.81168
 Alpha virt. eigenvalues --    2.81917   2.82001   2.82309   2.82363   2.83735
 Alpha virt. eigenvalues --    2.83756   2.83878   2.83911   2.84518   2.84552
 Alpha virt. eigenvalues --    2.84843   2.84926   2.85646   2.85724   2.86676
 Alpha virt. eigenvalues --    2.86963   2.87174   2.87588   2.88144   2.88270
 Alpha virt. eigenvalues --    2.88473   2.88627   2.88893   2.88906   2.90465
 Alpha virt. eigenvalues --    2.90678   2.91107   2.91143   2.93137   2.93344
 Alpha virt. eigenvalues --    2.93796   2.94172   2.94524   2.94611   2.95349
 Alpha virt. eigenvalues --    2.95489   2.95829   2.96178   2.96393   2.96395
 Alpha virt. eigenvalues --    2.96869   2.97156   2.97801   2.98066   2.98200
 Alpha virt. eigenvalues --    2.98331   2.98363   2.98580   2.98592   2.98772
 Alpha virt. eigenvalues --    2.98861   2.98943   2.99539   2.99824   3.00017
 Alpha virt. eigenvalues --    3.00020   3.00203   3.00360   3.00443   3.01013
 Alpha virt. eigenvalues --    3.01932   3.01933   3.02026   3.02136   3.02726
 Alpha virt. eigenvalues --    3.02832   3.02956   3.03311   3.03348   3.03725
 Alpha virt. eigenvalues --    3.04076   3.04113   3.04421   3.04450   3.04500
 Alpha virt. eigenvalues --    3.04719   3.05263   3.05395   3.06087   3.06217
 Alpha virt. eigenvalues --    3.06785   3.06972   3.07958   3.08121   3.09383
 Alpha virt. eigenvalues --    3.09407   3.09671   3.10422   3.10437   3.10760
 Alpha virt. eigenvalues --    3.11287   3.11546   3.11926   3.11929   3.12095
 Alpha virt. eigenvalues --    3.12320   3.13267   3.13600   3.13660   3.13718
 Alpha virt. eigenvalues --    3.14081   3.14464   3.15851   3.16010   3.17241
 Alpha virt. eigenvalues --    3.17528   3.17913   3.18057   3.19055   3.19105
 Alpha virt. eigenvalues --    3.22293   3.22590   3.23928   3.24446   3.24660
 Alpha virt. eigenvalues --    3.25191   3.26482   3.26672   3.27412   3.27599
 Alpha virt. eigenvalues --    3.29090   3.29209   3.31394   3.31505   3.33206
 Alpha virt. eigenvalues --    3.33397   3.40241   3.40623   3.42804   3.42848
 Alpha virt. eigenvalues --    3.48642   3.48703   3.50001   3.50302   3.50857
 Alpha virt. eigenvalues --    3.51455   3.56530   3.57028   3.59070   3.59368
 Alpha virt. eigenvalues --    3.62527   3.62819   3.66153   3.66175   3.67177
 Alpha virt. eigenvalues --    3.67527   3.73261   3.74006   3.76046   3.76666
          Condensed to atoms (all electrons):
 Mulliken charges:
               1
     1  Mg   0.838608
     2  C   -0.002886
     3  C   -0.093856
     4  C   -0.046080
     5  C   -0.064150
     6  N   -0.256758
     7  C   -0.052485
     8  C   -0.014029
     9  C   -0.087022
    10  C    0.046291
    11  C    0.104766
    12  C    0.053430
    13  C   -0.071817
    14  H    0.035978
    15  N   -0.433209
    16  C    0.168413
    17  C   -0.176884
    18  C   -0.003932
    19  C    0.148734
    20  C    0.110073
    21  C    0.012261
    22  O   -0.249906
    23  C    0.062423
    24  N   -0.341091
    25  C    0.041240
    26  C   -0.028178
    27  C   -0.023865
    28  C    0.074619
    29  C    0.076163
    30  C    0.035270
    31  C   -0.004377
    32  N   -0.310446
    33  C    0.080273
    34  C   -0.169875
    35  C    0.008458
    36  C    0.082868
    37  C    0.127343
    38  C    0.046121
    39  O   -0.188303
    40  C   -0.005344
    41  C    0.212936
    42  O   -0.257141
    43  O   -0.304755
    44  C    0.157659
    45  H   -0.017325
    46  H   -0.016975
    47  H   -0.041786
    48  H    0.001031
    49  H   -0.003831
    50  H    0.025509
    51  H    0.016450
    52  H    0.016859
    53  H    0.011272
    54  H    0.044017
    55  H    0.017984
    56  H    0.018123
    57  H    0.006029
    58  H    0.027014
    59  H    0.040131
    60  H    0.037508
    61  H    0.035838
    62  H    0.031980
    63  H    0.016118
    64  H    0.009543
    65  H    0.023085
    66  H    0.012831
    67  H    0.004784
    68  H    0.006067
    69  H    0.004642
    70  H    0.008377
    71  H    0.016954
    72  H    0.029397
    73  H    0.047571
    74  H    0.008763
    75  H    0.046097
    76  H    0.035261
    77  H    0.043086
    78  H    0.046396
    79  H    0.053664
    80  Mg   0.838087
    81  C   -0.016981
    82  C   -0.087744
    83  C   -0.044990
    84  C   -0.064783
    85  N   -0.254612
    86  C   -0.049881
    87  C   -0.015108
    88  C   -0.090542
    89  C    0.045903
    90  C    0.114345
    91  C    0.062551
    92  C   -0.077794
    93  H    0.034530
    94  N   -0.423654
    95  C    0.163169
    96  C   -0.174294
    97  C   -0.007401
    98  C    0.152234
    99  C    0.099237
   100  C    0.015849
   101  O   -0.252699
   102  C    0.061172
   103  N   -0.349995
   104  C    0.037915
   105  C   -0.020134
   106  C   -0.034564
   107  C    0.088880
   108  C    0.073214
   109  C    0.034758
   110  C   -0.007618
   111  N   -0.323992
   112  C    0.078317
   113  C   -0.163472
   114  C    0.001995
   115  C    0.096143
   116  C    0.131559
   117  C    0.042013
   118  O   -0.188656
   119  C    0.001039
   120  C    0.211152
   121  O   -0.251122
   122  O   -0.305606
   123  C    0.152138
   124  H   -0.019610
   125  H   -0.015001
   126  H   -0.040892
   127  H   -0.000700
   128  H   -0.004527
   129  H    0.022567
   130  H    0.014927
   131  H    0.016262
   132  H    0.013850
   133  H    0.037526
   134  H    0.020866
   135  H    0.019523
   136  H    0.008612
   137  H    0.026628
   138  H    0.039639
   139  H    0.038535
   140  H    0.036503
   141  H    0.033550
   142  H    0.014207
   143  H    0.012416
   144  H    0.025355
   145  H    0.013394
   146  H    0.006128
   147  H    0.006262
   148  H    0.003158
   149  H    0.011010
   150  H    0.017527
   151  H    0.030057
   152  H    0.045618
   153  H    0.008304
   154  H    0.046286
   155  H    0.034844
   156  H    0.043645
   157  H    0.049554
   158  H    0.053421
 Sum of Mulliken charges =  -0.00000
 Mulliken charges with hydrogens summed into heavy atoms:
               1
     1  Mg   0.838608
     2  C   -0.002886
     3  C   -0.111181
     4  C   -0.063055
     5  C   -0.105936
     6  N   -0.256758
     7  C   -0.052485
     8  C   -0.012998
     9  C   -0.090853
    10  C    0.046291
    11  C    0.163584
    12  C    0.108719
    13  C    0.000268
    15  N   -0.433209
    16  C    0.168413
    17  C   -0.176884
    18  C   -0.003932
    19  C    0.148734
    20  C    0.183246
    21  C    0.012261
    22  O   -0.249906
    23  C    0.167749
    24  N   -0.341091
    25  C    0.041240
    26  C   -0.012060
    27  C   -0.014322
    28  C    0.074619
    29  C    0.116863
    30  C    0.045979
    31  C    0.050350
    32  N   -0.310446
    33  C    0.080273
    34  C   -0.169875
    35  C    0.008458
    36  C    0.082868
    37  C    0.229774
    38  C    0.046121
    39  O   -0.188303
    40  C    0.029917
    41  C    0.212936
    42  O   -0.257141
    43  O   -0.304755
    44  C    0.300806
    80  Mg   0.838087
    81  C   -0.016981
    82  C   -0.107354
    83  C   -0.059991
    84  C   -0.105675
    85  N   -0.254612
    86  C   -0.049881
    87  C   -0.015808
    88  C   -0.095069
    89  C    0.045903
    90  C    0.168102
    91  C    0.113926
    92  C   -0.002876
    94  N   -0.423654
    95  C    0.163169
    96  C   -0.174294
    97  C   -0.007401
    98  C    0.152234
    99  C    0.174115
   100  C    0.015849
   101  O   -0.252699
   102  C    0.169760
   103  N   -0.349995
   104  C    0.037915
   105  C   -0.005927
   106  C   -0.022149
   107  C    0.088880
   108  C    0.118091
   109  C    0.044178
   110  C    0.050975
   111  N   -0.323992
   112  C    0.078317
   113  C   -0.163472
   114  C    0.001995
   115  C    0.096143
   116  C    0.231766
   117  C    0.042013
   118  O   -0.188656
   119  C    0.035883
   120  C    0.211152
   121  O   -0.251122
   122  O   -0.305606
   123  C    0.298758
 Electronic spatial extent (au):  <R**2>=         151056.7120
 Charge=             -0.0000 electrons
 Dipole moment (field-independent basis, Debye):
    X=              3.7394    Y=              2.4525    Z=              0.5405  Tot=              4.5044
 Quadrupole moment (field-independent basis, Debye-Ang):
   XX=           -522.1405   YY=           -543.8511   ZZ=           -453.3422
   XY=             20.3115   XZ=            -60.3243   YZ=             39.9248
 Traceless Quadrupole moment (field-independent basis, Debye-Ang):
   XX=            -15.6959   YY=            -37.4065   ZZ=             53.1024
   XY=             20.3115   XZ=            -60.3243   YZ=             39.9248
 Octapole moment (field-independent basis, Debye-Ang**2):
  XXX=            521.0060  YYY=            113.4215  ZZZ=            141.0605  XYY=           -173.3717
  XXY=            111.4104  XXZ=             72.8254  XZZ=            171.2845  YZZ=            -65.0615
  YYZ=           -203.0122  XYZ=           -136.4093
 Hexadecapole moment (field-independent basis, Debye-Ang**3):
 XXXX=        -142309.7221 YYYY=         -41568.6648 ZZZZ=         -24798.3690 XXXY=            801.7774
 XXXZ=          -3794.0237 YYYX=          -2450.7974 YYYZ=           1082.1135 ZZZX=           -831.5769
 ZZZY=             32.2420 XXYY=         -30734.9092 XXZZ=         -25498.9197 YYZZ=         -10717.6722
 XXYZ=           1901.6970 YYXZ=          -1012.0922 ZZXY=           1215.7968
 N-N= 1.423676500969D+04 E-N=-3.795449597954D+04  KE= 4.028801836382D+03
 Leave Link  601 at Sat Sep 11 08:07:07 2021, MaxMem= 23488102400 cpu:              17.6 elap:               0.9
 (Enter /sw/apps/gaussian-16.0/g16/l9999.exe)
 1\1\GINC-BP1-COMPUTE00092\SP\RCAM-B3LYP TD-FC\def2SVP\C68H72Mg2N8O8\OF
 15641\11-Sep-2021\0\\#p cam-b3lyp/Def2SVP td=(nstates=5)\\TDDFT excite
 d states in gaussian\\0,1\Mg,0,0.,0.,0.\C,0,-0.217,-2.218,2.801\C,0,-1
 .255,2.442,2.026\C,0,-0.245,1.85,-2.564\C,0,0.146,-2.824,-2.037\N,0,-0
 .617,-0.009,2.126\C,0,-0.594,-0.908,3.105\C,0,-0.936,-0.309,4.502\C,0,
 -1.773,0.964,4.032\C,0,-1.155,1.168,2.66\C,0,-3.263,0.685,3.863\C,0,0.
 345,0.11,5.299\C,0,0.124,0.397,6.787\H,0,1.168,0.033,7.733\N,0,-0.185,
 1.961,-0.152\C,0,-0.703,2.8,0.777\C,0,-0.62,4.156,0.193\C,0,-0.187,4.0
 15,-1.225\C,0,-0.214,2.583,-1.38\C,0,-0.887,5.406,0.974\C,0,0.181,5.01
 3,-2.277\O,0,0.303,4.69,-3.508\C,0,0.31,6.414,-1.837\N,0,-0.265,-0.413
 ,-2.029\C,0,-0.279,0.569,-2.937\C,0,-0.196,0.024,-4.332\C,0,0.124,-1.5
 33,-4.18\C,0,0.086,-1.632,-2.635\C,0,-1.451,0.205,-5.197\C,0,1.373,-2.
 07,-4.923\C,0,2.626,-1.49,-4.306\N,0,0.15,-2.144,0.303\C,0,0.173,-3.13
 6,-0.688\C,0,0.173,-4.438,0.004\C,0,0.133,-4.111,1.358\C,0,0.083,-2.69
 5,1.502\C,0,0.149,-5.715,-0.623\C,0,0.096,-4.629,2.716\O,0,0.208,-5.74
 7,3.221\C,0,-0.255,-3.428,3.701\C,0,0.717,-3.482,4.848\O,0,1.931,-3.25
 5,4.669\O,0,0.038,-3.556,6.003\C,0,0.943,-3.583,7.183\H,0,-1.859,3.22,
 2.497\H,0,-0.218,2.453,-3.474\H,0,0.276,-3.747,-2.605\H,0,-1.554,-0.94
 9,5.132\H,0,-1.585,1.831,4.665\H,0,-3.484,-0.377,3.969\H,0,-3.511,1.02
 7,2.858\H,0,-3.852,1.301,4.543\H,0,0.669,1.096,4.966\H,0,1.13,-0.639,5
 .189\H,0,-0.844,0.026,7.125\H,0,0.062,1.477,6.921\H,0,-1.344,5.186,1.9
 38\H,0,-1.651,5.963,0.432\H,0,0.007,6.02,1.084\H,0,-0.635,6.744,-1.405
 \H,0,0.665,6.97,-2.704\H,0,1.048,6.466,-1.036\H,0,0.608,0.501,-4.891\H
 ,0,-0.692,-2.156,-4.547\H,0,-1.267,0.74,-6.129\H,0,-2.204,0.714,-4.596
 \H,0,-1.967,-0.72,-5.453\H,0,1.356,-1.759,-5.967\H,0,1.452,-3.157,-4.9
 02\H,0,2.714,-0.522,-4.798\H,0,3.487,-2.121,-4.529\H,0,2.495,-1.303,-3
 .24\H,0,0.867,-6.333,-0.084\H,0,0.404,-5.642,-1.68\H,0,-0.891,-5.999,-
 0.463\H,0,-1.283,-3.581,4.028\H,0,0.698,-4.478,7.755\H,0,0.833,-2.619,
 7.68\H,0,2.,-3.754,6.976\Mg,0,13.14642,1.18263,0.99094\C,0,12.76409,4.
 40935,-0.5326\C,0,12.61957,-0.1714,-2.09509\C,0,13.02944,-1.67133,2.37
 248\C,0,12.50691,2.70893,4.05805\N,0,12.7544,2.10341,-0.98156\C,0,12.6
 9259,3.34065,-1.45032\C,0,12.62651,3.43952,-2.99803\C,0,12.01571,1.986
 59,-3.30594\C,0,12.52016,1.24268,-2.0711\C,0,10.49639,1.95751,-3.29355
 \C,0,14.04427,3.61586,-3.64678\C,0,14.0304,4.02759,-5.12057\H,0,15.074
 99,4.92748,-5.60171\N,0,13.35264,-0.63085,0.21163\C,0,13.1175,-0.99941
 ,-1.06514\C,0,13.39764,-2.44234,-1.12546\C,0,13.65834,-2.92775,0.25698
 \C,0,13.32927,-1.74032,1.01974\C,0,13.47788,-3.20235,-2.4175\C,0,14.11
 445,-4.24679,0.80315\O,0,14.04477,-4.51806,2.05391\C,0,14.55779,-5.245
 62,-0.18034\N,0,12.60886,0.56166,2.90086\C,0,12.69841,-0.73149,3.25816
 \C,0,12.52534,-0.89874,4.74895\C,0,12.54193,0.58226,5.35222\C,0,12.636
 38,1.38945,4.03886\C,0,11.25074,-1.61521,5.19445\C,0,13.57535,0.87342,
 6.47469\C,0,14.97772,0.81352,5.91331\N,0,12.89478,3.20884,1.69749\C,0,
 12.60861,3.62275,3.01691\C,0,12.41484,5.08687,2.98154\C,0,12.58031,5.4
 2276,1.6294\C,0,12.83765,4.24808,0.87215\C,0,12.07996,5.90881,4.09437\
 C,0,12.58528,6.50258,0.66884\O,0,12.51176,7.72867,0.73978\C,0,12.5792,
 5.87858,-0.793\C,0,13.63148,6.58431,-1.60366\O,0,14.83537,6.46937,-1.3
 1376\O,0,13.06421,7.09819,-2.71023\C,0,14.07021,7.79869,-3.5523\H,0,12
 .24192,-0.70331,-2.96879\H,0,13.0853,-2.61698,2.91663\H,0,12.40128,3.2
 7166,4.98802\H,0,11.96424,4.20904,-3.3762\H,0,12.44493,1.56101,-4.2092
 7\H,0,10.07815,2.89631,-2.96208\H,0,10.22295,1.16068,-2.61433\H,0,10.1
 1703,1.66008,-4.27536\H,0,14.52435,2.6324,-3.73097\H,0,14.63747,4.3096
 ,-3.08335\H,0,13.04229,4.3797,-5.44089\H,0,14.20907,3.13895,-5.73083\H
 ,0,13.07779,-2.61657,-3.25427\H,0,12.79425,-4.05381,-2.33061\H,0,14.48
 297,-3.57584,-2.62477\H,0,13.74823,-5.4508,-0.87674\H,0,14.92925,-6.08
 827,0.40604\H,0,15.3777,-4.81793,-0.76808\H,0,13.3486,-1.46027,5.17325
 \H,0,11.5788,0.84495,5.81395\H,0,11.44705,-2.50864,5.81679\H,0,10.6838
 ,-1.88305,4.31276\H,0,10.54295,-0.99849,5.74572\H,0,13.51846,0.10569,7
 .25027\H,0,13.42764,1.83261,6.95959\H,0,15.20509,-0.25656,5.93093\H,0,
 15.66645,1.37379,6.54244\H,0,14.99664,1.13733,4.8662\H,0,12.70154,6.79
 18,4.02747\H,0,12.23221,5.38489,5.03569\H,0,11.02091,6.08943,3.89174\H
 ,0,11.57994,6.02151,-1.20605\H,0,13.70426,8.81868,-3.70525\H,0,14.1968
 7,7.16866,-4.45272\H,0,15.04467,7.98667,-3.11694\\Version=ES64L-G16Rev
 A.03\State=1-A\HF=-4069.8117976\RMSD=7.383e-09\PG=C01 [X(C68H72Mg2N8O8
 )]\\@


 LIVE PURE, SPEAK TRUE, RIGHT WRONG, FOLLOW THE KING...
 ELSE, WHEREFORE BORN......
           IDYLLS OF THE KING, TENNYSON
 Job cpu time:       0 days 11 hours 50 minutes 31.7 seconds.
 Elapsed time:       0 days  0 hours 30 minutes 12.1 seconds.
 File lengths (MBytes):  RWF=  13225 Int=      0 D2E=      0 Chk=    574 Scr=      1
 Normal termination of Gaussian 16 at Sat Sep 11 08:07:08 2021.
