 Entering Gaussian System, Link 0=g16
 Initial command:
 /sw/apps/gaussian-16.0/g16/l1.exe "/tmp/Gau-129919.inp" -scrdir="/tmp/"
 Entering Link 1 = /sw/apps/gaussian-16.0/g16/l1.exe PID=    129920.
  
 Copyright (c) 1988,1990,1992,1993,1995,1998,2003,2009,2016,
            Gaussian, Inc.  All Rights Reserved.
  
 This is part of the Gaussian(R) 16 program.  It is based on
 the Gaussian(R) 09 system (copyright 2009, Gaussian, Inc.),
 the Gaussian(R) 03 system (copyright 2003, Gaussian, Inc.),
 the Gaussian(R) 98 system (copyright 1998, Gaussian, Inc.),
 the Gaussian(R) 94 system (copyright 1995, Gaussian, Inc.),
 the Gaussian 92(TM) system (copyright 1992, Gaussian, Inc.),
 the Gaussian 90(TM) system (copyright 1990, Gaussian, Inc.),
 the Gaussian 88(TM) system (copyright 1988, Gaussian, Inc.),
 the Gaussian 86(TM) system (copyright 1986, Carnegie Mellon
 University), and the Gaussian 82(TM) system (copyright 1983,
 Carnegie Mellon University). Gaussian is a federally registered
 trademark of Gaussian, Inc.
  
 This software contains proprietary and confidential information,
 including trade secrets, belonging to Gaussian, Inc.
  
 This software is provided under written license and may be
 used, copied, transmitted, or stored only in accord with that
 written license.
  
 The following legend is applicable only to US Government
 contracts under FAR:
  
                    RESTRICTED RIGHTS LEGEND
  
 Use, reproduction and disclosure by the US Government is
 subject to restrictions as set forth in subparagraphs (a)
 and (c) of the Commercial Computer Software - Restricted
 Rights clause in FAR 52.227-19.
  
 Gaussian, Inc.
 340 Quinnipiac St., Bldg. 40, Wallingford CT 06492
  
  
 ---------------------------------------------------------------
 Warning -- This program may not be used in any manner that
 competes with the business of Gaussian, Inc. or will provide
 assistance to any competitor of Gaussian, Inc.  The licensee
 of this program is prohibited from giving any competitor of
 Gaussian, Inc. access to this program.  By using this program,
 the user acknowledges that Gaussian, Inc. is engaged in the
 business of creating and licensing software in the field of
 computational chemistry and represents and warrants to the
 licensee that it is not a competitor of Gaussian, Inc. and that
 it will not use this program in any manner prohibited above.
 ---------------------------------------------------------------
  

 Cite this work as:
 Gaussian 16, Revision A.03,
 M. J. Frisch, G. W. Trucks, H. B. Schlegel, G. E. Scuseria, 
 M. A. Robb, J. R. Cheeseman, G. Scalmani, V. Barone, 
 G. A. Petersson, H. Nakatsuji, X. Li, M. Caricato, A. V. Marenich, 
 J. Bloino, B. G. Janesko, R. Gomperts, B. Mennucci, H. P. Hratchian, 
 J. V. Ortiz, A. F. Izmaylov, J. L. Sonnenberg, D. Williams-Young, 
 F. Ding, F. Lipparini, F. Egidi, J. Goings, B. Peng, A. Petrone, 
 T. Henderson, D. Ranasinghe, V. G. Zakrzewski, J. Gao, N. Rega, 
 G. Zheng, W. Liang, M. Hada, M. Ehara, K. Toyota, R. Fukuda, 
 J. Hasegawa, M. Ishida, T. Nakajima, Y. Honda, O. Kitao, H. Nakai, 
 T. Vreven, K. Throssell, J. A. Montgomery, Jr., J. E. Peralta, 
 F. Ogliaro, M. J. Bearpark, J. J. Heyd, E. N. Brothers, K. N. Kudin, 
 V. N. Staroverov, T. A. Keith, R. Kobayashi, J. Normand, 
 K. Raghavachari, A. P. Rendell, J. C. Burant, S. S. Iyengar, 
 J. Tomasi, M. Cossi, J. M. Millam, M. Klene, C. Adamo, R. Cammi, 
 J. W. Ochterski, R. L. Martin, K. Morokuma, O. Farkas, 
 J. B. Foresman, and D. J. Fox, Gaussian, Inc., Wallingford CT, 2016.
 
 ******************************************
 Gaussian 16:  ES64L-G16RevA.03 25-Dec-2016
                11-Sep-2021 
 ******************************************
 %nproc=24
 Will use up to   24 processors via shared memory.
 %mem=175gb
 -----------------------------------
 #p cam-b3lyp/Def2SVP td=(nstates=5)
 -----------------------------------
 1/38=1,172=1/1;
 2/12=2,17=6,18=5,40=1/2;
 3/5=43,7=101,11=9,25=1,30=1,74=-40/1,2,3,8;
 4//1;
 5/5=2,38=5/2;
 8/6=1,10=1,108=5/1;
 9/41=5,42=1,70=2/14;
 6/7=2,8=2,9=2,10=2/1;
 99/5=1,9=1/99;
 Leave Link    1 at Sat Sep 11 15:49:23 2021, MaxMem= 23488102400 cpu:               0.8 elap:               0.0
 (Enter /sw/apps/gaussian-16.0/g16/l101.exe)
 --------------------------------
 TDDFT excited states in gaussian
 --------------------------------
 Symbolic Z-matrix:
 Charge =  0 Multiplicity = 1
 Mg                    0.        0.        0. 
 C                    -0.217    -2.218     2.801 
 C                    -1.255     2.442     2.026 
 C                    -0.245     1.85     -2.564 
 C                     0.146    -2.824    -2.037 
 N                    -0.617    -0.009     2.126 
 C                    -0.594    -0.908     3.105 
 C                    -0.936    -0.309     4.502 
 C                    -1.773     0.964     4.032 
 C                    -1.155     1.168     2.66 
 C                    -3.263     0.685     3.863 
 C                     0.345     0.11      5.299 
 C                     0.124     0.397     6.787 
 H                     1.168     0.033     7.733 
 N                    -0.185     1.961    -0.152 
 C                    -0.703     2.8       0.777 
 C                    -0.62      4.156     0.193 
 C                    -0.187     4.015    -1.225 
 C                    -0.214     2.583    -1.38 
 C                    -0.887     5.406     0.974 
 C                     0.181     5.013    -2.277 
 O                     0.303     4.69     -3.508 
 C                     0.31      6.414    -1.837 
 N                    -0.265    -0.413    -2.029 
 C                    -0.279     0.569    -2.937 
 C                    -0.196     0.024    -4.332 
 C                     0.124    -1.533    -4.18 
 C                     0.086    -1.632    -2.635 
 C                    -1.451     0.205    -5.197 
 C                     1.373    -2.07     -4.923 
 C                     2.626    -1.49     -4.306 
 N                     0.15     -2.144     0.303 
 C                     0.173    -3.136    -0.688 
 C                     0.173    -4.438     0.004 
 C                     0.133    -4.111     1.358 
 C                     0.083    -2.695     1.502 
 C                     0.149    -5.715    -0.623 
 C                     0.096    -4.629     2.716 
 O                     0.208    -5.747     3.221 
 C                    -0.255    -3.428     3.701 
 C                     0.717    -3.482     4.848 
 O                     1.931    -3.255     4.669 
 O                     0.038    -3.556     6.003 
 C                     0.943    -3.583     7.183 
 H                    -1.859     3.22      2.497 
 H                    -0.218     2.453    -3.474 
 H                     0.276    -3.747    -2.605 
 H                    -1.554    -0.949     5.132 
 H                    -1.585     1.831     4.665 
 H                    -3.484    -0.377     3.969 
 H                    -3.511     1.027     2.858 
 H                    -3.852     1.301     4.543 
 H                     0.669     1.096     4.966 
 H                     1.13     -0.639     5.189 
 H                    -0.844     0.026     7.125 
 H                     0.062     1.477     6.921 
 H                    -1.344     5.186     1.938 
 H                    -1.651     5.963     0.432 
 H                     0.007     6.02      1.084 
 H                    -0.635     6.744    -1.405 
 H                     0.665     6.97     -2.704 
 H                     1.048     6.466    -1.036 
 H                     0.608     0.501    -4.891 
 H                    -0.692    -2.156    -4.547 
 H                    -1.267     0.74     -6.129 
 H                    -2.204     0.714    -4.596 
 H                    -1.967    -0.72     -5.453 
 H                     1.356    -1.759    -5.967 
 H                     1.452    -3.157    -4.902 
 H                     2.714    -0.522    -4.798 
 H                     3.487    -2.121    -4.529 
 H                     2.495    -1.303    -3.24 
 H                     0.867    -6.333    -0.084 
 H                     0.404    -5.642    -1.68 
 H                    -0.891    -5.999    -0.463 
 H                    -1.283    -3.581     4.028 
 H                     0.698    -4.478     7.755 
 H                     0.833    -2.619     7.68 
 H                     2.       -3.754     6.976 
 Mg                    13.14541   1.18119   1.00598 
 C                     13.25559  -2.40522   1.07339 
 C                     12.02863   1.05852   4.22659 
 C                     12.60841   4.3036    0.83392 
 C                     13.1589   0.97775  -2.47312 
 N                     12.73571  -0.51397   2.36642 
 C                     12.87296  -1.82983   2.30301 
 C                     12.66171  -2.5644    3.65406 
 C                     11.74261  -1.46764   4.38293 
 C                     12.21777  -0.21933   3.64226 
 C                     10.25864  -1.6489    4.11035 
 C                     14.00775  -2.79161   4.42774 
 C                     13.918   -3.77031   5.6007 
 H                     15.0637  -4.63259   5.87695 
 N                     12.89887   2.52323   2.44706 
 C                     12.45851   2.29745   3.7026 
 C                     12.43567   3.61163   4.36335 
 C                     12.74117   4.65367   3.34574 
 C                     12.74083   3.85158   2.13879 
 C                     12.22233   3.7763    5.8401 
 C                     12.97983   6.13019   3.44134 
 O                     12.99234   6.87898   2.40115 
 C                     13.10545   6.68763   4.79595 
 N                     12.70324   2.45052  -0.5801 
 C                     12.56979   3.7748   -0.38927 
 C                     12.52833   4.51411  -1.70535 
 C                     12.90624   3.43037  -2.81902 
 C                     13.01849   2.17655  -1.92419 
 C                     11.19157   5.16433  -2.06127 
 C                     14.09181   3.77412  -3.76185 
 C                     15.38494   3.79347  -2.97901 
 N                     13.3825  -0.38874  -0.45934 
 C                     13.3289  -0.2592   -1.86449 
 C                     13.42979  -1.61971  -2.43129 
 C                     13.51259  -2.455    -1.30704 
 C                     13.44622  -1.67217  -0.12287 
 C                     13.38828  -1.94947  -3.81536 
 C                     13.63035  -3.82188  -0.85265 
 O                     13.81209  -4.90746  -1.40241 
 C                     13.34192  -3.86161   0.70992 
 C                     14.42071  -4.68338   1.36063 
 O                     15.60122  -4.29224   1.35848 
 O                     13.85209  -5.68055   2.06255 
 C                     14.88138  -6.517     2.73541 
 H                     11.46018   1.12564   5.15462 
 H                     12.53191   5.38695   0.71569 
 H                     13.26898   0.83838  -3.55068 
 H                     12.13028  -3.50569   3.5811 
 H                     11.97799  -1.39561   5.4416 
 H                     10.07519  -2.4168    3.37359 
 H                     9.90585  -0.69014   3.75344 
 H                     9.72387  -1.83767   5.04561 
 H                     14.2691  -1.87317   4.96895 
 H                     14.7851  -3.10191   3.75687 
 H                     12.99185  -4.3574    5.57773 
 H                     13.84817  -3.19572   6.52751 
 H                     11.85998   2.84866   6.30009 
 H                     11.39537   4.48336   5.96683 
 H                     13.1039   4.16813   6.35193 
 H                     12.20099   6.47291   5.36013 
 H                     13.36148   7.7397    4.65643 
 H                     13.92626   6.17545   5.3103 
 H                     13.26318   5.30954  -1.7254 
 H                     12.07074   3.24882  -3.51098 
 H                     11.27073   6.25244  -2.2452 
 H                     10.49085   4.96382  -1.2617 
 H                     10.6853   4.73642  -2.92486 
 H                     13.96611   4.77656  -4.17835 
 H                     14.19241   3.08876  -4.59681 
 H                     15.39381   4.79644  -2.54192 
 H                     16.23564   3.64377  -3.64078 
 H                     15.35546   3.07396  -2.15252 
 H                     14.16329  -2.68541  -3.98346 
 H                     13.53293  -1.06925  -4.4383 
 H                     12.37137  -2.34363  -3.89153 
 H                     12.35301  -4.29996   0.84947 
 H                     14.71295  -7.54987   2.41526 
 H                     14.78148  -6.30192   3.81593 
 H                     15.91485  -6.37103   2.44373 
 
 ITRead=  0  0  0  0  0  0  0  0  0  0  0  0  0  0  0  0  0  0  0  0
 ITRead=  0  0  0  0  0  0  0  0  0  0  0  0  0  0  0  0  0  0  0  0
 ITRead=  0  0  0  0  0  0  0  0  0  0  0  0  0  0  0  0  0  0  0  0
 ITRead=  0  0  0  0  0  0  0  0  0  0  0  0  0  0  0  0  0  0  0  0
 ITRead=  0  0  0  0  0  0  0  0  0  0  0  0  0  0  0  0  0  0  0  0
 ITRead=  0  0  0  0  0  0  0  0  0  0  0  0  0  0  0  0  0  0  0  0
 ITRead=  0  0  0  0  0  0  0  0  0  0  0  0  0  0  0  0  0  0  0  0
 ITRead=  0  0  0  0  0  0  0  0  0  0  0  0  0  0  0  0  0  0
 MicOpt= -1 -1 -1 -1 -1 -1 -1 -1 -1 -1 -1 -1 -1 -1 -1 -1 -1 -1 -1 -1
 MicOpt= -1 -1 -1 -1 -1 -1 -1 -1 -1 -1 -1 -1 -1 -1 -1 -1 -1 -1 -1 -1
 MicOpt= -1 -1 -1 -1 -1 -1 -1 -1 -1 -1 -1 -1 -1 -1 -1 -1 -1 -1 -1 -1
 MicOpt= -1 -1 -1 -1 -1 -1 -1 -1 -1 -1 -1 -1 -1 -1 -1 -1 -1 -1 -1 -1
 MicOpt= -1 -1 -1 -1 -1 -1 -1 -1 -1 -1 -1 -1 -1 -1 -1 -1 -1 -1 -1 -1
 MicOpt= -1 -1 -1 -1 -1 -1 -1 -1 -1 -1 -1 -1 -1 -1 -1 -1 -1 -1 -1 -1
 MicOpt= -1 -1 -1 -1 -1 -1 -1 -1 -1 -1 -1 -1 -1 -1 -1 -1 -1 -1 -1 -1
 MicOpt= -1 -1 -1 -1 -1 -1 -1 -1 -1 -1 -1 -1 -1 -1 -1 -1 -1 -1
 NAtoms=    158 NQM=      158 NQMF=       0 NMMI=      0 NMMIF=      0
                NMic=       0 NMicF=      0.
                    Isotopes and Nuclear Properties:
 (Nuclear quadrupole moments (NQMom) in fm**2, nuclear magnetic moments (NMagM)
  in nuclear magnetons)

  Atom         1           2           3           4           5           6           7           8           9          10
 IAtWgt=          24          12          12          12          12          14          12          12          12          12
 AtmWgt=  23.9850450  12.0000000  12.0000000  12.0000000  12.0000000  14.0030740  12.0000000  12.0000000  12.0000000  12.0000000
 NucSpn=           0           0           0           0           0           2           0           0           0           0
 AtZEff=  -0.0000000  -0.0000000  -0.0000000  -0.0000000  -0.0000000  -0.0000000  -0.0000000  -0.0000000  -0.0000000  -0.0000000
 NQMom=    0.0000000   0.0000000   0.0000000   0.0000000   0.0000000   2.0440000   0.0000000   0.0000000   0.0000000   0.0000000
 NMagM=    0.0000000   0.0000000   0.0000000   0.0000000   0.0000000   0.4037610   0.0000000   0.0000000   0.0000000   0.0000000
 AtZNuc=  12.0000000   6.0000000   6.0000000   6.0000000   6.0000000   7.0000000   6.0000000   6.0000000   6.0000000   6.0000000

  Atom        11          12          13          14          15          16          17          18          19          20
 IAtWgt=          12          12          12           1          14          12          12          12          12          12
 AtmWgt=  12.0000000  12.0000000  12.0000000   1.0078250  14.0030740  12.0000000  12.0000000  12.0000000  12.0000000  12.0000000
 NucSpn=           0           0           0           1           2           0           0           0           0           0
 AtZEff=  -0.0000000  -0.0000000  -0.0000000  -0.0000000  -0.0000000  -0.0000000  -0.0000000  -0.0000000  -0.0000000  -0.0000000
 NQMom=    0.0000000   0.0000000   0.0000000   0.0000000   2.0440000   0.0000000   0.0000000   0.0000000   0.0000000   0.0000000
 NMagM=    0.0000000   0.0000000   0.0000000   2.7928460   0.4037610   0.0000000   0.0000000   0.0000000   0.0000000   0.0000000
 AtZNuc=   6.0000000   6.0000000   6.0000000   1.0000000   7.0000000   6.0000000   6.0000000   6.0000000   6.0000000   6.0000000

  Atom        21          22          23          24          25          26          27          28          29          30
 IAtWgt=          12          16          12          14          12          12          12          12          12          12
 AtmWgt=  12.0000000  15.9949146  12.0000000  14.0030740  12.0000000  12.0000000  12.0000000  12.0000000  12.0000000  12.0000000
 NucSpn=           0           0           0           2           0           0           0           0           0           0
 AtZEff=  -0.0000000  -0.0000000  -0.0000000  -0.0000000  -0.0000000  -0.0000000  -0.0000000  -0.0000000  -0.0000000  -0.0000000
 NQMom=    0.0000000   0.0000000   0.0000000   2.0440000   0.0000000   0.0000000   0.0000000   0.0000000   0.0000000   0.0000000
 NMagM=    0.0000000   0.0000000   0.0000000   0.4037610   0.0000000   0.0000000   0.0000000   0.0000000   0.0000000   0.0000000
 AtZNuc=   6.0000000   8.0000000   6.0000000   7.0000000   6.0000000   6.0000000   6.0000000   6.0000000   6.0000000   6.0000000

  Atom        31          32          33          34          35          36          37          38          39          40
 IAtWgt=          12          14          12          12          12          12          12          12          16          12
 AtmWgt=  12.0000000  14.0030740  12.0000000  12.0000000  12.0000000  12.0000000  12.0000000  12.0000000  15.9949146  12.0000000
 NucSpn=           0           2           0           0           0           0           0           0           0           0
 AtZEff=  -0.0000000  -0.0000000  -0.0000000  -0.0000000  -0.0000000  -0.0000000  -0.0000000  -0.0000000  -0.0000000  -0.0000000
 NQMom=    0.0000000   2.0440000   0.0000000   0.0000000   0.0000000   0.0000000   0.0000000   0.0000000   0.0000000   0.0000000
 NMagM=    0.0000000   0.4037610   0.0000000   0.0000000   0.0000000   0.0000000   0.0000000   0.0000000   0.0000000   0.0000000
 AtZNuc=   6.0000000   7.0000000   6.0000000   6.0000000   6.0000000   6.0000000   6.0000000   6.0000000   8.0000000   6.0000000

  Atom        41          42          43          44          45          46          47          48          49          50
 IAtWgt=          12          16          16          12           1           1           1           1           1           1
 AtmWgt=  12.0000000  15.9949146  15.9949146  12.0000000   1.0078250   1.0078250   1.0078250   1.0078250   1.0078250   1.0078250
 NucSpn=           0           0           0           0           1           1           1           1           1           1
 AtZEff=  -0.0000000  -0.0000000  -0.0000000  -0.0000000  -0.0000000  -0.0000000  -0.0000000  -0.0000000  -0.0000000  -0.0000000
 NQMom=    0.0000000   0.0000000   0.0000000   0.0000000   0.0000000   0.0000000   0.0000000   0.0000000   0.0000000   0.0000000
 NMagM=    0.0000000   0.0000000   0.0000000   0.0000000   2.7928460   2.7928460   2.7928460   2.7928460   2.7928460   2.7928460
 AtZNuc=   6.0000000   8.0000000   8.0000000   6.0000000   1.0000000   1.0000000   1.0000000   1.0000000   1.0000000   1.0000000

  Atom        51          52          53          54          55          56          57          58          59          60
 IAtWgt=           1           1           1           1           1           1           1           1           1           1
 AtmWgt=   1.0078250   1.0078250   1.0078250   1.0078250   1.0078250   1.0078250   1.0078250   1.0078250   1.0078250   1.0078250
 NucSpn=           1           1           1           1           1           1           1           1           1           1
 AtZEff=  -0.0000000  -0.0000000  -0.0000000  -0.0000000  -0.0000000  -0.0000000  -0.0000000  -0.0000000  -0.0000000  -0.0000000
 NQMom=    0.0000000   0.0000000   0.0000000   0.0000000   0.0000000   0.0000000   0.0000000   0.0000000   0.0000000   0.0000000
 NMagM=    2.7928460   2.7928460   2.7928460   2.7928460   2.7928460   2.7928460   2.7928460   2.7928460   2.7928460   2.7928460
 AtZNuc=   1.0000000   1.0000000   1.0000000   1.0000000   1.0000000   1.0000000   1.0000000   1.0000000   1.0000000   1.0000000

  Atom        61          62          63          64          65          66          67          68          69          70
 IAtWgt=           1           1           1           1           1           1           1           1           1           1
 AtmWgt=   1.0078250   1.0078250   1.0078250   1.0078250   1.0078250   1.0078250   1.0078250   1.0078250   1.0078250   1.0078250
 NucSpn=           1           1           1           1           1           1           1           1           1           1
 AtZEff=  -0.0000000  -0.0000000  -0.0000000  -0.0000000  -0.0000000  -0.0000000  -0.0000000  -0.0000000  -0.0000000  -0.0000000
 NQMom=    0.0000000   0.0000000   0.0000000   0.0000000   0.0000000   0.0000000   0.0000000   0.0000000   0.0000000   0.0000000
 NMagM=    2.7928460   2.7928460   2.7928460   2.7928460   2.7928460   2.7928460   2.7928460   2.7928460   2.7928460   2.7928460
 AtZNuc=   1.0000000   1.0000000   1.0000000   1.0000000   1.0000000   1.0000000   1.0000000   1.0000000   1.0000000   1.0000000

  Atom        71          72          73          74          75          76          77          78          79          80
 IAtWgt=           1           1           1           1           1           1           1           1           1          24
 AtmWgt=   1.0078250   1.0078250   1.0078250   1.0078250   1.0078250   1.0078250   1.0078250   1.0078250   1.0078250  23.9850450
 NucSpn=           1           1           1           1           1           1           1           1           1           0
 AtZEff=  -0.0000000  -0.0000000  -0.0000000  -0.0000000  -0.0000000  -0.0000000  -0.0000000  -0.0000000  -0.0000000  -0.0000000
 NQMom=    0.0000000   0.0000000   0.0000000   0.0000000   0.0000000   0.0000000   0.0000000   0.0000000   0.0000000   0.0000000
 NMagM=    2.7928460   2.7928460   2.7928460   2.7928460   2.7928460   2.7928460   2.7928460   2.7928460   2.7928460   0.0000000
 AtZNuc=   1.0000000   1.0000000   1.0000000   1.0000000   1.0000000   1.0000000   1.0000000   1.0000000   1.0000000  12.0000000

  Atom        81          82          83          84          85          86          87          88          89          90
 IAtWgt=          12          12          12          12          14          12          12          12          12          12
 AtmWgt=  12.0000000  12.0000000  12.0000000  12.0000000  14.0030740  12.0000000  12.0000000  12.0000000  12.0000000  12.0000000
 NucSpn=           0           0           0           0           2           0           0           0           0           0
 AtZEff=  -0.0000000  -0.0000000  -0.0000000  -0.0000000  -0.0000000  -0.0000000  -0.0000000  -0.0000000  -0.0000000  -0.0000000
 NQMom=    0.0000000   0.0000000   0.0000000   0.0000000   2.0440000   0.0000000   0.0000000   0.0000000   0.0000000   0.0000000
 NMagM=    0.0000000   0.0000000   0.0000000   0.0000000   0.4037610   0.0000000   0.0000000   0.0000000   0.0000000   0.0000000
 AtZNuc=   6.0000000   6.0000000   6.0000000   6.0000000   7.0000000   6.0000000   6.0000000   6.0000000   6.0000000   6.0000000

  Atom        91          92          93          94          95          96          97          98          99         100
 IAtWgt=          12          12           1          14          12          12          12          12          12          12
 AtmWgt=  12.0000000  12.0000000   1.0078250  14.0030740  12.0000000  12.0000000  12.0000000  12.0000000  12.0000000  12.0000000
 NucSpn=           0           0           1           2           0           0           0           0           0           0
 AtZEff=  -0.0000000  -0.0000000  -0.0000000  -0.0000000  -0.0000000  -0.0000000  -0.0000000  -0.0000000  -0.0000000  -0.0000000
 NQMom=    0.0000000   0.0000000   0.0000000   2.0440000   0.0000000   0.0000000   0.0000000   0.0000000   0.0000000   0.0000000
 NMagM=    0.0000000   0.0000000   2.7928460   0.4037610   0.0000000   0.0000000   0.0000000   0.0000000   0.0000000   0.0000000
 AtZNuc=   6.0000000   6.0000000   1.0000000   7.0000000   6.0000000   6.0000000   6.0000000   6.0000000   6.0000000   6.0000000

  Atom       101         102         103         104         105         106         107         108         109         110
 IAtWgt=          16          12          14          12          12          12          12          12          12          12
 AtmWgt=  15.9949146  12.0000000  14.0030740  12.0000000  12.0000000  12.0000000  12.0000000  12.0000000  12.0000000  12.0000000
 NucSpn=           0           0           2           0           0           0           0           0           0           0
 AtZEff=  -0.0000000  -0.0000000  -0.0000000  -0.0000000  -0.0000000  -0.0000000  -0.0000000  -0.0000000  -0.0000000  -0.0000000
 NQMom=    0.0000000   0.0000000   2.0440000   0.0000000   0.0000000   0.0000000   0.0000000   0.0000000   0.0000000   0.0000000
 NMagM=    0.0000000   0.0000000   0.4037610   0.0000000   0.0000000   0.0000000   0.0000000   0.0000000   0.0000000   0.0000000
 AtZNuc=   8.0000000   6.0000000   7.0000000   6.0000000   6.0000000   6.0000000   6.0000000   6.0000000   6.0000000   6.0000000

  Atom       111         112         113         114         115         116         117         118         119         120
 IAtWgt=          14          12          12          12          12          12          12          16          12          12
 AtmWgt=  14.0030740  12.0000000  12.0000000  12.0000000  12.0000000  12.0000000  12.0000000  15.9949146  12.0000000  12.0000000
 NucSpn=           2           0           0           0           0           0           0           0           0           0
 AtZEff=  -0.0000000  -0.0000000  -0.0000000  -0.0000000  -0.0000000  -0.0000000  -0.0000000  -0.0000000  -0.0000000  -0.0000000
 NQMom=    2.0440000   0.0000000   0.0000000   0.0000000   0.0000000   0.0000000   0.0000000   0.0000000   0.0000000   0.0000000
 NMagM=    0.4037610   0.0000000   0.0000000   0.0000000   0.0000000   0.0000000   0.0000000   0.0000000   0.0000000   0.0000000
 AtZNuc=   7.0000000   6.0000000   6.0000000   6.0000000   6.0000000   6.0000000   6.0000000   8.0000000   6.0000000   6.0000000

  Atom       121         122         123         124         125         126         127         128         129         130
 IAtWgt=          16          16          12           1           1           1           1           1           1           1
 AtmWgt=  15.9949146  15.9949146  12.0000000   1.0078250   1.0078250   1.0078250   1.0078250   1.0078250   1.0078250   1.0078250
 NucSpn=           0           0           0           1           1           1           1           1           1           1
 AtZEff=  -0.0000000  -0.0000000  -0.0000000  -0.0000000  -0.0000000  -0.0000000  -0.0000000  -0.0000000  -0.0000000  -0.0000000
 NQMom=    0.0000000   0.0000000   0.0000000   0.0000000   0.0000000   0.0000000   0.0000000   0.0000000   0.0000000   0.0000000
 NMagM=    0.0000000   0.0000000   0.0000000   2.7928460   2.7928460   2.7928460   2.7928460   2.7928460   2.7928460   2.7928460
 AtZNuc=   8.0000000   8.0000000   6.0000000   1.0000000   1.0000000   1.0000000   1.0000000   1.0000000   1.0000000   1.0000000

  Atom       131         132         133         134         135         136         137         138         139         140
 IAtWgt=           1           1           1           1           1           1           1           1           1           1
 AtmWgt=   1.0078250   1.0078250   1.0078250   1.0078250   1.0078250   1.0078250   1.0078250   1.0078250   1.0078250   1.0078250
 NucSpn=           1           1           1           1           1           1           1           1           1           1
 AtZEff=  -0.0000000  -0.0000000  -0.0000000  -0.0000000  -0.0000000  -0.0000000  -0.0000000  -0.0000000  -0.0000000  -0.0000000
 NQMom=    0.0000000   0.0000000   0.0000000   0.0000000   0.0000000   0.0000000   0.0000000   0.0000000   0.0000000   0.0000000
 NMagM=    2.7928460   2.7928460   2.7928460   2.7928460   2.7928460   2.7928460   2.7928460   2.7928460   2.7928460   2.7928460
 AtZNuc=   1.0000000   1.0000000   1.0000000   1.0000000   1.0000000   1.0000000   1.0000000   1.0000000   1.0000000   1.0000000

  Atom       141         142         143         144         145         146         147         148         149         150
 IAtWgt=           1           1           1           1           1           1           1           1           1           1
 AtmWgt=   1.0078250   1.0078250   1.0078250   1.0078250   1.0078250   1.0078250   1.0078250   1.0078250   1.0078250   1.0078250
 NucSpn=           1           1           1           1           1           1           1           1           1           1
 AtZEff=  -0.0000000  -0.0000000  -0.0000000  -0.0000000  -0.0000000  -0.0000000  -0.0000000  -0.0000000  -0.0000000  -0.0000000
 NQMom=    0.0000000   0.0000000   0.0000000   0.0000000   0.0000000   0.0000000   0.0000000   0.0000000   0.0000000   0.0000000
 NMagM=    2.7928460   2.7928460   2.7928460   2.7928460   2.7928460   2.7928460   2.7928460   2.7928460   2.7928460   2.7928460
 AtZNuc=   1.0000000   1.0000000   1.0000000   1.0000000   1.0000000   1.0000000   1.0000000   1.0000000   1.0000000   1.0000000

  Atom       151         152         153         154         155         156         157         158
 IAtWgt=           1           1           1           1           1           1           1           1
 AtmWgt=   1.0078250   1.0078250   1.0078250   1.0078250   1.0078250   1.0078250   1.0078250   1.0078250
 NucSpn=           1           1           1           1           1           1           1           1
 AtZEff=  -0.0000000  -0.0000000  -0.0000000  -0.0000000  -0.0000000  -0.0000000  -0.0000000  -0.0000000
 NQMom=    0.0000000   0.0000000   0.0000000   0.0000000   0.0000000   0.0000000   0.0000000   0.0000000
 NMagM=    2.7928460   2.7928460   2.7928460   2.7928460   2.7928460   2.7928460   2.7928460   2.7928460
 AtZNuc=   1.0000000   1.0000000   1.0000000   1.0000000   1.0000000   1.0000000   1.0000000   1.0000000
 Leave Link  101 at Sat Sep 11 15:49:24 2021, MaxMem= 23488102400 cpu:               3.1 elap:               0.2
 (Enter /sw/apps/gaussian-16.0/g16/l202.exe)
 Stoichiometry    C68H72Mg2N8O8
 Framework group  C1[X(C68H72Mg2N8O8)]
 Deg. of freedom   468
 Full point group                 C1      NOp   1
 Largest Abelian subgroup         C1      NOp   1
 Largest concise Abelian subgroup C1      NOp   1
                         Standard orientation:                         
 ---------------------------------------------------------------------
 Center     Atomic      Atomic             Coordinates (Angstroms)
 Number     Number       Type             X           Y           Z
 ---------------------------------------------------------------------
      1         12           0       -6.523062    0.607787   -0.513346
      2          6           0       -6.764904   -2.717240    0.789697
      3          6           0       -7.625528    1.716841    2.519414
      4          6           0       -6.752345    3.506611   -1.778601
      5          6           0       -6.544543   -0.798534   -3.701991
      6          7           0       -7.088361   -0.461763    1.340609
      7          6           0       -7.079335   -1.732965    1.729368
      8          6           0       -7.362138   -1.915848    3.250535
      9          6           0       -8.156277   -0.560582    3.523655
     10          6           0       -7.563610    0.295244    2.418109
     11          6           0       -9.660289   -0.679975    3.299611
     12          6           0       -6.045857   -1.988780    4.095411
     13          6           0       -6.218651   -2.489569    5.532320
     14          1           0       -5.168240   -3.307240    6.120026
     15          7           0       -6.629507    2.379540    0.354070
     16          6           0       -7.089373    2.644707    1.600464
     17          6           0       -6.963868    4.107305    1.778608
     18          6           0       -6.571524    4.693446    0.466891
     19          6           0       -6.662125    3.538194   -0.389008
     20          6           0       -7.159413    4.795707    3.094516
     21          6           0       -6.187629    6.077626    0.048799
     22          8           0       -6.109017    6.419611   -1.180608
     23          6           0       -5.989559    7.059413    1.130420
     24          7           0       -6.854039    1.285490   -2.459832
     25          6           0       -6.848889    2.592073   -2.745837
     26          6           0       -6.822477    2.826667   -4.227123
     27          6           0       -6.564294    1.399941   -4.896114
     28          6           0       -6.569068    0.533195   -3.612759
     29          6           0       -8.089339    3.450609   -4.828595
     30          6           0       -5.357158    1.283485   -5.860313
     31          6           0       -4.066459    1.441146   -5.088084
     32          7           0       -6.455582   -1.397336   -1.341580
     33          6           0       -6.498035   -1.751190   -2.697921
     34          6           0       -6.535769   -3.223906   -2.759176
     35          6           0       -6.529339   -3.626680   -1.425168
     36          6           0       -6.516583   -2.477815   -0.583599
     37          6           0       -6.628293   -4.006621   -3.943756
     38          6           0       -6.555154   -4.759939   -0.514720
     39          8           0       -6.477841   -5.982030   -0.648917
     40          6           0       -6.831722   -4.215067    0.955808
     41          6           0       -5.835407   -4.865579    1.876405
     42          8           0       -4.617654   -4.608217    1.785799
     43          8           0       -6.488808   -5.498013    2.863136
     44          6           0       -5.557488   -6.140362    3.828632
     45          1           0       -8.184909    2.163385    3.343813
     46          1           0       -6.722141    4.486532   -2.259518
     47          1           0       -6.467016   -1.309650   -4.663346
     48          1           0       -7.990964   -2.771791    3.496225
     49          1           0       -7.916946   -0.138234    4.499393
     50          1           0       -9.922884   -1.643820    2.863757
     51          1           0       -9.917974    0.129625    2.616502
     52          1           0      -10.206413   -0.479260    4.221695
     53          1           0       -5.689044   -0.977962    4.292874
     54          1           0       -5.295754   -2.597436    3.589239
     55          1           0       -7.192872   -2.957435    5.676904
     56          1           0       -6.232175   -1.624985    6.196030
     57          1           0       -7.601793    4.128842    3.833526
     58          1           0       -7.912320    5.568500    2.940794
     59          1           0       -6.238121    5.247956    3.461971
     60          1           0       -6.909220    7.147662    1.709200
     61          1           0       -5.632665    7.969225    0.649050
     62          1           0       -5.230896    6.681050    1.816147
     63          1           0       -6.012970    3.501718   -4.501768
     64          1           0       -7.414262    1.068206   -5.492922
     65          1           0       -7.905693    4.379310   -5.369422
     66          1           0       -8.805655    3.603003   -4.021775
     67          1           0       -8.649605    2.795192   -5.494889
     68          1           0       -5.386352    2.080603   -6.602402
     69          1           0       -5.323203    0.333977   -6.394665
     70          1           0       -3.949965    2.522586   -5.026859
     71          1           0       -3.238240    0.989611   -5.635241
     72          1           0       -4.163735    1.065691   -4.069233
     73          1           0       -5.923956   -4.829380   -3.821504
     74          1           0       -6.396072   -3.414562   -4.828709
     75          1           0       -7.675092   -4.307645   -3.905631
     76          1           0       -7.857022   -4.488017    1.203560
     77          1           0       -5.825815   -7.195641    3.879839
     78          1           0       -5.615039   -5.558431    4.748659
     79          1           0       -4.513874   -6.208154    3.519421
     80         12           0        6.680708    0.803129    0.398418
     81          6           0        6.642400   -2.325106   -1.359904
     82          6           0        5.637901   -0.906745    3.159479
     83          6           0        6.270761    3.594565    1.850054
     84          6           0        6.601630    2.389093   -2.703867
     85          7           0        6.233457   -1.337186    0.731939
     86          6           0        6.313984   -2.442618    0.006763
     87          6           0        6.104897   -3.754885    0.809130
     88          6           0        5.250345   -3.156630    2.030076
     89          6           0        5.759263   -1.716881    2.002299
     90          6           0        3.753941   -3.139468    1.765872
     91          6           0        7.458554   -4.374591    1.304717
     92          6           0        7.356313   -5.810019    1.825140
     93          1           0        8.471288   -6.720501    1.579534
     94          7           0        6.525393    1.236148    2.328946
     95          6           0        6.106435    0.416282    3.315640
     96          6           0        6.154543    1.215074    4.550063
     97          6           0        6.478684    2.621293    4.186487
     98          6           0        6.415644    2.541044    2.740921
     99          6           0        5.984013    0.614350    5.915153
    100          6           0        6.781125    3.839951    5.004786
    101          8           0        6.799807    5.011810    4.485907
    102          6           0        6.962634    3.631557    6.448779
    103          7           0        6.253824    2.710947   -0.308947
    104          6           0        6.180522    3.759027    0.530158
    105          6           0        6.138237    5.063699   -0.229058
    106          6           0        6.443480    4.684416   -1.752390
    107          6           0        6.524779    3.147851   -1.619183
    108          6           0        4.821632    5.836283   -0.151232
    109          6           0        7.619267    5.429861   -2.441234
    110          6           0        8.930608    5.019312   -1.810970
    111          7           0        6.816467    0.186169   -1.667734
    112          6           0        6.734403    1.010611   -2.811264
    113          6           0        6.764586    0.122450   -3.991386
    114          6           0        6.839515   -1.168809   -3.447749
    115          6           0        6.834567   -1.092036   -2.028747
    116          6           0        6.675898    0.540014   -5.349285
    117          6           0        6.910949   -2.579945   -3.751544
    118          8           0        7.033797   -3.241673   -4.781483
    119          6           0        6.658941   -3.398525   -2.412584
    120          6           0        7.717824   -4.462101   -2.312134
    121          8           0        8.913262   -4.152001   -2.165970
    122          8           0        7.125121   -5.663518   -2.186961
    123          6           0        8.134483   -6.749784   -2.072755
    124          1           0        5.095340   -1.305243    4.017213
    125          1           0        6.236801    4.590100    2.298646
    126          1           0        6.679722    2.811956   -3.707742
    127          1           0        5.532959   -4.516659    0.293034
    128          1           0        5.514036   -3.636213    2.969140
    129          1           0        3.520793   -3.423961    0.750566
    130          1           0        3.433037   -2.123885    1.957388
    131          1           0        3.234494   -3.763006    2.499151
    132          1           0        7.771083   -3.863174    2.224240
    133          1           0        8.205813   -4.320909    0.537028
    134          1           0        6.406136   -6.282373    1.547649
    135          1           0        7.332984   -5.782351    2.917247
    136          1           0        5.594403   -0.409549    5.858248
    137          1           0        5.190649    1.179383    6.416321
    138          1           0        6.893305    0.671919    6.517266
    139          1           0        6.063878    3.182363    6.864609
    140          1           0        7.258993    4.602979    6.849251
    141          1           0        7.773491    2.910044    6.598923
    142          1           0        6.905011    5.741986    0.124636
    143          1           0        5.584647    4.898219   -2.405477
    144          1           0        4.941762    6.865476    0.236595
    145          1           0        4.132659    5.275289    0.466123
    146          1           0        4.277196    5.916779   -1.090547
    147          1           0        7.525575    6.507854   -2.288555
    148          1           0        7.670917    5.259467   -3.511419
    149          1           0        8.991972    5.662336   -0.927891
    150          1           0        9.758068    5.205074   -2.492764
    151          1           0        8.891037    3.981305   -1.460793
    152          1           0        7.415165   -0.027727   -5.898521
    153          1           0        6.842143    1.610739   -5.447653
    154          1           0        5.641851    0.263067   -5.571356
    155          1           0        5.656224   -3.823461   -2.472208
    156          1           0        7.915320   -7.473989   -2.863438
    157          1           0        8.069796   -7.109127   -1.028509
    158          1           0        9.165805   -6.500909   -2.293843
 ---------------------------------------------------------------------
 Rotational constants (GHZ):           0.0203185           0.0080388           0.0074955
 Leave Link  202 at Sat Sep 11 15:49:24 2021, MaxMem= 23488102400 cpu:               0.2 elap:               0.0
 (Enter /sw/apps/gaussian-16.0/g16/l301.exe)
 Standard basis: def2SVP (5D, 7F)
 Ernie: Thresh=  0.10000D-02 Tol=  0.10000D-05 Strict=F.
 There are  1658 symmetry adapted cartesian basis functions of A   symmetry.
 There are  1572 symmetry adapted basis functions of A   symmetry.
  1572 basis functions,  2678 primitive gaussians,  1658 cartesian basis functions
   312 alpha electrons      312 beta electrons
       nuclear repulsion energy     14249.4425039447 Hartrees.
 IExCor=20419 DFT=T Ex+Corr=CAM-B3LYP ExCW=0 ScaHFX=  1.000000
 ScaDFX=  1.000000  1.000000  1.000000  0.810000 ScalE2=  1.000000  1.000000
 IRadAn=      5 IRanWt=     -1 IRanGd=            0 ICorTp=0 IEmpDi=  4
 HFx  wShort=  0.000000 wLong=  0.330000 cFull=  0.190000 cShort=  0.000000 cLong=  0.460000
 DFx  wShort=  0.000000 wLong=  0.330000 cFull=  0.190000 cShort=  0.000000 cLong=  0.460000
 NAtoms=  158 NActive=  158 NUniq=  158 SFac= 1.00D+00 NAtFMM=   60 NAOKFM=T Big=T
 Integral buffers will be    131072 words long.
 Raffenetti 1 integral format.
 Two-electron integral symmetry is turned on.
 Leave Link  301 at Sat Sep 11 15:49:24 2021, MaxMem= 23488102400 cpu:               1.4 elap:               0.1
 (Enter /sw/apps/gaussian-16.0/g16/l302.exe)
 NPDir=0 NMtPBC=     1 NCelOv=     1 NCel=       1 NClECP=     1 NCelD=      1
         NCelK=      1 NCelE2=     1 NClLst=     1 CellRange=     0.0.
 One-electron integrals computed using PRISM.
 One-electron integral symmetry used in STVInt
   1 Symmetry operations used in ECPInt.
 ECPInt:  NShTT=  271216 NPrTT=  987664 LenC2=  116700 LenP2D=  255445.
 LDataN:  DoStor=T MaxTD1= 4 Len=   56
 NBasis=  1572 RedAO= T EigKep=  3.36D-04  NBF=  1572
 NBsUse=  1572 1.00D-06 EigRej= -1.00D+00 NBFU=  1572
 Precomputing XC quadrature grid using
 IXCGrd= 4 IRadAn=           5 IRanWt=          -1 IRanGd=           0 AccXCQ= 0.00D+00.
 Generated NRdTot=       0 NPtTot=           0 NUsed=           0 NTot=          32
 NSgBfM=  1028  1002  1007  1028  1028 MxSgAt=   158 MxSgA2=   156.
 Leave Link  302 at Sat Sep 11 15:49:28 2021, MaxMem= 23488102400 cpu:             114.5 elap:               4.8
 (Enter /sw/apps/gaussian-16.0/g16/l303.exe)
 DipDrv:  MaxL=1.
 Leave Link  303 at Sat Sep 11 15:49:29 2021, MaxMem= 23488102400 cpu:               9.6 elap:               0.4
 (Enter /sw/apps/gaussian-16.0/g16/l308.exe)
 Leave Link  308 at Sat Sep 11 15:49:30 2021, MaxMem= 23488102400 cpu:              12.2 elap:               0.6
 (Enter /sw/apps/gaussian-16.0/g16/l401.exe)
 ExpMin= 3.36D-02 ExpMax= 4.95D+03 ExpMxC= 7.45D+02 IAcc=3 IRadAn=         5 AccDes= 0.00D+00
 Harris functional with IExCor=20419 and IRadAn=       5 diagonalized for initial guess.
 HarFok:  IExCor=20419 AccDes= 0.00D+00 IRadAn=         5 IDoV= 1 UseB2=F ITyADJ=14
 ICtDFT=  3500011 ScaDFX=  1.000000  1.000000  1.000000  1.000000
 FoFCou: FMM=F IPFlag=           0 FMFlag=      100000 FMFlg1=        2001
         NFxFlg=           0 DoJE=T BraDBF=F KetDBF=T FulRan=T
         wScrn=  0.000000 ICntrl=       500 IOpCl=  0 I1Cent=   200000004 NGrid=           0
         NMat0=    1 NMatS0=      1 NMatT0=    0 NMatD0=    1 NMtDS0=    0 NMtDT0=    0
 Petite list used in FoFCou.
 Harris En= -3918.65801293961    
 JPrj=0 DoOrth=F DoCkMO=F.
 Leave Link  401 at Sat Sep 11 15:49:37 2021, MaxMem= 23488102400 cpu:             168.6 elap:               7.1
 (Enter /sw/apps/gaussian-16.0/g16/l502.exe)
 Integral symmetry usage will be decided dynamically.
 Closed shell SCF:
 Using DIIS extrapolation, IDIIS=  1040.
 NGot= 23488102400 LenX= 23482547354 LenY= 23479796732
 Requested convergence on RMS density matrix=1.00D-08 within 128 cycles.
 Requested convergence on MAX density matrix=1.00D-06.
 Requested convergence on             energy=1.00D-06.
 No special actions if energy rises.
 Fock matrices will be formed incrementally for  20 cycles.

 Cycle   1  Pass 1  IDiag  1:
 FoFJK:  IHMeth= 1 ICntrl=       0 DoSepK=T KAlg= 0 I1Cent=           0 FoldK=F
 IRaf=         1 NMat=       1 IRICut=       1 DoRegI=T DoRafI=F ISym2E= 0 IDoP0=0 IntGTp=1.
 FoFCou: FMM=T IPFlag=           0 FMFlag=      100000 FMFlg1=        2001
         NFxFlg=           0 DoJE=T BraDBF=F KetDBF=F FulRan=T
         wScrn=  0.000000 ICntrl=       500 IOpCl=  0 I1Cent=           0 NGrid=           0
         NMat0=    1 NMatS0=      1 NMatT0=    0 NMatD0=    1 NMtDS0=    0 NMtDT0=    0
 Symmetry not used in FoFCou.
 FMM levels:  10  Number of levels for PrismC:   9
 E= -4068.94954222773    
 DIIS: error= 2.04D-02 at cycle   1 NSaved=   1.
 NSaved= 1 IEnMin= 1 EnMin= -4068.94954222773     IErMin= 1 ErrMin= 2.04D-02
 ErrMax= 2.04D-02  0.00D+00 EMaxC= 1.00D-01 BMatC= 1.69D+00 BMatP= 1.69D+00
 IDIUse=3 WtCom= 7.96D-01 WtEn= 2.04D-01
 Coeff-Com:  0.100D+01
 Coeff-En:   0.100D+01
 Coeff:      0.100D+01
 Gap=     0.120 Goal=   None    Shift=    0.000
 GapD=    0.120 DampG=1.000 DampE=0.500 DampFc=0.5000 IDamp=-1.
 Damping current iteration by 5.00D-01
 RMSDP=1.57D-03 MaxDP=1.35D-01              OVMax= 2.03D-01

 Cycle   2  Pass 1  IDiag  1:
 RMSU=  7.69D-04    CP:  9.82D-01
 E= -4069.33841935837     Delta-E=       -0.388877130645 Rises=F Damp=T
 DIIS: error= 1.27D-02 at cycle   2 NSaved=   2.
 NSaved= 2 IEnMin= 2 EnMin= -4069.33841935837     IErMin= 2 ErrMin= 1.27D-02
 ErrMax= 1.27D-02  0.00D+00 EMaxC= 1.00D-01 BMatC= 3.07D-01 BMatP= 1.69D+00
 IDIUse=3 WtCom= 8.73D-01 WtEn= 1.27D-01
 Coeff-Com: -0.213D+00 0.121D+01
 Coeff-En:   0.000D+00 0.100D+01
 Coeff:     -0.186D+00 0.119D+01
 Gap=     0.135 Goal=   None    Shift=    0.000
 RMSDP=7.65D-04 MaxDP=9.45D-02 DE=-3.89D-01 OVMax= 1.87D-01

 Cycle   3  Pass 1  IDiag  1:
 RMSU=  7.32D-04    CP:  9.68D-01  1.24D+00
 E= -4069.62805025105     Delta-E=       -0.289630892683 Rises=F Damp=F
 DIIS: error= 1.56D-02 at cycle   3 NSaved=   3.
 NSaved= 3 IEnMin= 3 EnMin= -4069.62805025105     IErMin= 2 ErrMin= 1.27D-02
 ErrMax= 1.56D-02  0.00D+00 EMaxC= 1.00D-01 BMatC= 2.01D-01 BMatP= 3.07D-01
 IDIUse=3 WtCom= 8.44D-01 WtEn= 1.56D-01
 Coeff-Com: -0.267D+00 0.651D+00 0.616D+00
 Coeff-En:   0.000D+00 0.000D+00 0.100D+01
 Coeff:     -0.225D+00 0.550D+00 0.676D+00
 Gap=     0.122 Goal=   None    Shift=    0.000
 RMSDP=5.08D-04 MaxDP=4.76D-02 DE=-2.90D-01 OVMax= 1.42D-01

 Cycle   4  Pass 1  IDiag  1:
 RMSU=  2.65D-04    CP:  9.65D-01  1.55D+00  5.06D-01
 E= -4069.76532942419     Delta-E=       -0.137279173134 Rises=F Damp=F
 DIIS: error= 7.17D-03 at cycle   4 NSaved=   4.
 NSaved= 4 IEnMin= 4 EnMin= -4069.76532942419     IErMin= 4 ErrMin= 7.17D-03
 ErrMax= 7.17D-03  0.00D+00 EMaxC= 1.00D-01 BMatC= 5.00D-02 BMatP= 2.01D-01
 IDIUse=3 WtCom= 9.28D-01 WtEn= 7.17D-02
 Coeff-Com: -0.109D+00 0.226D+00 0.408D+00 0.474D+00
 Coeff-En:   0.000D+00 0.000D+00 0.220D+00 0.780D+00
 Coeff:     -0.101D+00 0.210D+00 0.395D+00 0.496D+00
 Gap=     0.121 Goal=   None    Shift=    0.000
 RMSDP=2.00D-04 MaxDP=2.00D-02 DE=-1.37D-01 OVMax= 6.17D-02

 Cycle   5  Pass 1  IDiag  1:
 RMSU=  7.61D-05    CP:  9.64D-01  1.49D+00  6.89D-01  5.49D-01
 E= -4069.81063257827     Delta-E=       -0.045303154082 Rises=F Damp=F
 DIIS: error= 7.58D-04 at cycle   5 NSaved=   5.
 NSaved= 5 IEnMin= 5 EnMin= -4069.81063257827     IErMin= 5 ErrMin= 7.58D-04
 ErrMax= 7.58D-04  0.00D+00 EMaxC= 1.00D-01 BMatC= 1.17D-03 BMatP= 5.00D-02
 IDIUse=3 WtCom= 9.92D-01 WtEn= 7.58D-03
 Coeff-Com: -0.362D-01 0.711D-01 0.166D+00 0.250D+00 0.549D+00
 Coeff-En:   0.000D+00 0.000D+00 0.000D+00 0.000D+00 0.100D+01
 Coeff:     -0.360D-01 0.706D-01 0.165D+00 0.248D+00 0.552D+00
 Gap=     0.121 Goal=   None    Shift=    0.000
 RMSDP=4.16D-05 MaxDP=4.12D-03 DE=-4.53D-02 OVMax= 1.63D-02

 Cycle   6  Pass 1  IDiag  1:
 RMSU=  3.08D-05    CP:  9.64D-01  1.49D+00  6.81D-01  6.22D-01  7.51D-01
 E= -4069.81165964625     Delta-E=       -0.001027067978 Rises=F Damp=F
 DIIS: error= 2.07D-04 at cycle   6 NSaved=   6.
 NSaved= 6 IEnMin= 6 EnMin= -4069.81165964625     IErMin= 6 ErrMin= 2.07D-04
 ErrMax= 2.07D-04  0.00D+00 EMaxC= 1.00D-01 BMatC= 1.83D-04 BMatP= 1.17D-03
 IDIUse=3 WtCom= 9.98D-01 WtEn= 2.07D-03
 Coeff-Com:  0.212D-02-0.641D-02 0.116D-01 0.408D-01 0.308D+00 0.643D+00
 Coeff-En:   0.000D+00 0.000D+00 0.000D+00 0.000D+00 0.113D+00 0.887D+00
 Coeff:      0.211D-02-0.639D-02 0.116D-01 0.407D-01 0.308D+00 0.644D+00
 Gap=     0.121 Goal=   None    Shift=    0.000
 RMSDP=1.64D-05 MaxDP=1.14D-03 DE=-1.03D-03 OVMax= 7.16D-03

 Cycle   7  Pass 1  IDiag  1:
 RMSU=  1.09D-05    CP:  9.64D-01  1.50D+00  6.87D-01  6.21D-01  8.56D-01
                    CP:  7.41D-01
 E= -4069.81185835560     Delta-E=       -0.000198709356 Rises=F Damp=F
 DIIS: error= 8.50D-05 at cycle   7 NSaved=   7.
 NSaved= 7 IEnMin= 7 EnMin= -4069.81185835560     IErMin= 7 ErrMin= 8.50D-05
 ErrMax= 8.50D-05  0.00D+00 EMaxC= 1.00D-01 BMatC= 2.23D-05 BMatP= 1.83D-04
 IDIUse=1 WtCom= 1.00D+00 WtEn= 0.00D+00
 Coeff-Com:  0.448D-02-0.982D-02-0.885D-02-0.344D-02 0.106D+00 0.333D+00
 Coeff-Com:  0.579D+00
 Coeff:      0.448D-02-0.982D-02-0.885D-02-0.344D-02 0.106D+00 0.333D+00
 Coeff:      0.579D+00
 Gap=     0.122 Goal=   None    Shift=    0.000
 RMSDP=6.62D-06 MaxDP=1.11D-03 DE=-1.99D-04 OVMax= 3.23D-03

 Cycle   8  Pass 1  IDiag  1:
 RMSU=  4.72D-06    CP:  9.64D-01  1.50D+00  6.87D-01  6.26D-01  8.59D-01
                    CP:  8.67D-01  8.15D-01
 E= -4069.81188599462     Delta-E=       -0.000027639013 Rises=F Damp=F
 DIIS: error= 5.14D-05 at cycle   8 NSaved=   8.
 NSaved= 8 IEnMin= 8 EnMin= -4069.81188599462     IErMin= 8 ErrMin= 5.14D-05
 ErrMax= 5.14D-05  0.00D+00 EMaxC= 1.00D-01 BMatC= 4.89D-06 BMatP= 2.23D-05
 IDIUse=1 WtCom= 1.00D+00 WtEn= 0.00D+00
 Coeff-Com:  0.218D-02-0.433D-02-0.780D-02-0.122D-01-0.109D-01 0.338D-01
 Coeff-Com:  0.336D+00 0.663D+00
 Coeff:      0.218D-02-0.433D-02-0.780D-02-0.122D-01-0.109D-01 0.338D-01
 Coeff:      0.336D+00 0.663D+00
 Gap=     0.122 Goal=   None    Shift=    0.000
 RMSDP=3.31D-06 MaxDP=3.47D-04 DE=-2.76D-05 OVMax= 1.10D-03

 Cycle   9  Pass 1  IDiag  1:
 RMSU=  1.92D-06    CP:  9.64D-01  1.50D+00  6.88D-01  6.27D-01  8.76D-01
                    CP:  8.93D-01  1.01D+00  9.49D-01
 E= -4069.81189381653     Delta-E=       -0.000007821913 Rises=F Damp=F
 DIIS: error= 2.05D-05 at cycle   9 NSaved=   9.
 NSaved= 9 IEnMin= 9 EnMin= -4069.81189381653     IErMin= 9 ErrMin= 2.05D-05
 ErrMax= 2.05D-05  0.00D+00 EMaxC= 1.00D-01 BMatC= 7.10D-07 BMatP= 4.89D-06
 IDIUse=1 WtCom= 1.00D+00 WtEn= 0.00D+00
 Coeff-Com:  0.479D-03-0.800D-03-0.272D-02-0.607D-02-0.212D-01-0.389D-01
 Coeff-Com:  0.102D+00 0.330D+00 0.638D+00
 Coeff:      0.479D-03-0.800D-03-0.272D-02-0.607D-02-0.212D-01-0.389D-01
 Coeff:      0.102D+00 0.330D+00 0.638D+00
 Gap=     0.122 Goal=   None    Shift=    0.000
 RMSDP=1.42D-06 MaxDP=1.47D-04 DE=-7.82D-06 OVMax= 7.62D-04

 Cycle  10  Pass 1  IDiag  1:
 RMSU=  9.44D-07    CP:  9.64D-01  1.50D+00  6.88D-01  6.28D-01  8.79D-01
                    CP:  9.06D-01  1.06D+00  1.11D+00  1.05D+00
 E= -4069.81189543162     Delta-E=       -0.000001615088 Rises=F Damp=F
 DIIS: error= 1.05D-05 at cycle  10 NSaved=  10.
 NSaved=10 IEnMin=10 EnMin= -4069.81189543162     IErMin=10 ErrMin= 1.05D-05
 ErrMax= 1.05D-05  0.00D+00 EMaxC= 1.00D-01 BMatC= 1.72D-07 BMatP= 7.10D-07
 IDIUse=1 WtCom= 1.00D+00 WtEn= 0.00D+00
 Coeff-Com: -0.425D-03 0.892D-03 0.122D-02 0.109D-02-0.377D-02-0.310D-01
 Coeff-Com: -0.448D-01-0.750D-01 0.247D+00 0.905D+00
 Coeff:     -0.425D-03 0.892D-03 0.122D-02 0.109D-02-0.377D-02-0.310D-01
 Coeff:     -0.448D-01-0.750D-01 0.247D+00 0.905D+00
 Gap=     0.122 Goal=   None    Shift=    0.000
 RMSDP=1.23D-06 MaxDP=1.20D-04 DE=-1.62D-06 OVMax= 6.24D-04

 Cycle  11  Pass 1  IDiag  1:
 RMSU=  5.22D-07    CP:  9.64D-01  1.50D+00  6.88D-01  6.28D-01  8.82D-01
                    CP:  9.16D-01  1.10D+00  1.22D+00  1.39D+00  1.37D+00
 E= -4069.81189622376     Delta-E=       -0.000000792148 Rises=F Damp=F
 DIIS: error= 4.12D-06 at cycle  11 NSaved=  11.
 NSaved=11 IEnMin=11 EnMin= -4069.81189622376     IErMin=11 ErrMin= 4.12D-06
 ErrMax= 4.12D-06  0.00D+00 EMaxC= 1.00D-01 BMatC= 6.42D-08 BMatP= 1.72D-07
 IDIUse=1 WtCom= 1.00D+00 WtEn= 0.00D+00
 Coeff-Com: -0.333D-03 0.648D-03 0.134D-02 0.213D-02 0.441D-02-0.862D-02
 Coeff-Com: -0.424D-01-0.132D+00-0.281D-01 0.475D+00 0.728D+00
 Coeff:     -0.333D-03 0.648D-03 0.134D-02 0.213D-02 0.441D-02-0.862D-02
 Coeff:     -0.424D-01-0.132D+00-0.281D-01 0.475D+00 0.728D+00
 Gap=     0.122 Goal=   None    Shift=    0.000
 RMSDP=6.90D-07 MaxDP=6.18D-05 DE=-7.92D-07 OVMax= 3.79D-04

 Cycle  12  Pass 1  IDiag  1:
 RMSU=  2.66D-07    CP:  9.64D-01  1.50D+00  6.88D-01  6.28D-01  8.83D-01
                    CP:  9.19D-01  1.13D+00  1.29D+00  1.56D+00  1.76D+00
                    CP:  1.19D+00
 E= -4069.81189649036     Delta-E=       -0.000000266595 Rises=F Damp=F
 DIIS: error= 2.55D-06 at cycle  12 NSaved=  12.
 NSaved=12 IEnMin=12 EnMin= -4069.81189649036     IErMin=12 ErrMin= 2.55D-06
 ErrMax= 2.55D-06  0.00D+00 EMaxC= 1.00D-01 BMatC= 1.56D-08 BMatP= 6.42D-08
 IDIUse=1 WtCom= 1.00D+00 WtEn= 0.00D+00
 Coeff-Com: -0.765D-05-0.155D-05 0.207D-03 0.550D-03 0.341D-02 0.373D-02
 Coeff-Com:  0.213D-02-0.366D-01-0.694D-01-0.616D-01 0.255D+00 0.902D+00
 Coeff:     -0.765D-05-0.155D-05 0.207D-03 0.550D-03 0.341D-02 0.373D-02
 Coeff:      0.213D-02-0.366D-01-0.694D-01-0.616D-01 0.255D+00 0.902D+00
 Gap=     0.122 Goal=   None    Shift=    0.000
 RMSDP=4.34D-07 MaxDP=3.09D-05 DE=-2.67D-07 OVMax= 2.52D-04

 Cycle  13  Pass 1  IDiag  1:
 RMSU=  1.67D-07    CP:  9.64D-01  1.50D+00  6.88D-01  6.28D-01  8.83D-01
                    CP:  9.19D-01  1.13D+00  1.32D+00  1.67D+00  1.98D+00
                    CP:  1.60D+00  1.25D+00
 E= -4069.81189658292     Delta-E=       -0.000000092565 Rises=F Damp=F
 DIIS: error= 1.29D-06 at cycle  13 NSaved=  13.
 NSaved=13 IEnMin=13 EnMin= -4069.81189658292     IErMin=13 ErrMin= 1.29D-06
 ErrMax= 1.29D-06  0.00D+00 EMaxC= 1.00D-01 BMatC= 8.56D-09 BMatP= 1.56D-08
 IDIUse=1 WtCom= 1.00D+00 WtEn= 0.00D+00
 Coeff-Com:  0.120D-03-0.245D-03-0.366D-03-0.450D-03 0.642D-03 0.498D-02
 Coeff-Com:  0.193D-01 0.227D-01-0.335D-01-0.240D+00-0.158D+00 0.593D+00
 Coeff-Com:  0.791D+00
 Coeff:      0.120D-03-0.245D-03-0.366D-03-0.450D-03 0.642D-03 0.498D-02
 Coeff:      0.193D-01 0.227D-01-0.335D-01-0.240D+00-0.158D+00 0.593D+00
 Coeff:      0.791D+00
 Gap=     0.122 Goal=   None    Shift=    0.000
 RMSDP=3.45D-07 MaxDP=2.30D-05 DE=-9.26D-08 OVMax= 2.04D-04

 Cycle  14  Pass 1  IDiag  1:
 RMSU=  7.69D-08    CP:  9.64D-01  1.50D+00  6.88D-01  6.28D-01  8.83D-01
                    CP:  9.20D-01  1.14D+00  1.34D+00  1.74D+00  2.17D+00
                    CP:  1.86D+00  1.77D+00  1.10D+00
 E= -4069.81189662053     Delta-E=       -0.000000037609 Rises=F Damp=F
 DIIS: error= 7.06D-07 at cycle  14 NSaved=  14.
 NSaved=14 IEnMin=14 EnMin= -4069.81189662053     IErMin=14 ErrMin= 7.06D-07
 ErrMax= 7.06D-07  0.00D+00 EMaxC= 1.00D-01 BMatC= 1.30D-09 BMatP= 8.56D-09
 IDIUse=1 WtCom= 1.00D+00 WtEn= 0.00D+00
 Coeff-Com:  0.676D-04-0.133D-03-0.250D-03-0.392D-03-0.469D-03 0.127D-02
 Coeff-Com:  0.106D-01 0.195D-01 0.412D-02-0.101D+00-0.144D+00 0.902D-01
 Coeff-Com:  0.406D+00 0.715D+00
 Coeff:      0.676D-04-0.133D-03-0.250D-03-0.392D-03-0.469D-03 0.127D-02
 Coeff:      0.106D-01 0.195D-01 0.412D-02-0.101D+00-0.144D+00 0.902D-01
 Coeff:      0.406D+00 0.715D+00
 Gap=     0.122 Goal=   None    Shift=    0.000
 RMSDP=1.05D-07 MaxDP=6.87D-06 DE=-3.76D-08 OVMax= 5.74D-05

 Cycle  15  Pass 1  IDiag  1:
 RMSU=  3.84D-08    CP:  9.64D-01  1.50D+00  6.88D-01  6.28D-01  8.83D-01
                    CP:  9.19D-01  1.14D+00  1.34D+00  1.76D+00  2.22D+00
                    CP:  1.97D+00  1.91D+00  1.34D+00  1.03D+00
 E= -4069.81189662475     Delta-E=       -0.000000004220 Rises=F Damp=F
 DIIS: error= 3.33D-07 at cycle  15 NSaved=  15.
 NSaved=15 IEnMin=15 EnMin= -4069.81189662475     IErMin=15 ErrMin= 3.33D-07
 ErrMax= 3.33D-07  0.00D+00 EMaxC= 1.00D-01 BMatC= 2.28D-10 BMatP= 1.30D-09
 IDIUse=1 WtCom= 1.00D+00 WtEn= 0.00D+00
 Coeff-Com:  0.595D-05-0.101D-04-0.346D-04-0.846D-04-0.298D-03-0.510D-03
 Coeff-Com:  0.119D-02 0.269D-02 0.873D-02 0.848D-03-0.310D-01-0.723D-01
 Coeff-Com:  0.312D-01 0.296D+00 0.764D+00
 Coeff:      0.595D-05-0.101D-04-0.346D-04-0.846D-04-0.298D-03-0.510D-03
 Coeff:      0.119D-02 0.269D-02 0.873D-02 0.848D-03-0.310D-01-0.723D-01
 Coeff:      0.312D-01 0.296D+00 0.764D+00
 Gap=     0.122 Goal=   None    Shift=    0.000
 RMSDP=3.99D-08 MaxDP=2.63D-06 DE=-4.22D-09 OVMax= 2.74D-05

 Cycle  16  Pass 1  IDiag  1:
 RMSU=  1.86D-08    CP:  9.64D-01  1.50D+00  6.88D-01  6.28D-01  8.83D-01
                    CP:  9.19D-01  1.14D+00  1.35D+00  1.76D+00  2.23D+00
                    CP:  2.00D+00  1.97D+00  1.41D+00  1.24D+00  1.15D+00
 E= -4069.81189662556     Delta-E=       -0.000000000811 Rises=F Damp=F
 DIIS: error= 1.78D-07 at cycle  16 NSaved=  16.
 NSaved=16 IEnMin=16 EnMin= -4069.81189662556     IErMin=16 ErrMin= 1.78D-07
 ErrMax= 1.78D-07  0.00D+00 EMaxC= 1.00D-01 BMatC= 8.40D-11 BMatP= 2.28D-10
 IDIUse=1 WtCom= 1.00D+00 WtEn= 0.00D+00
 Coeff-Com: -0.141D-04 0.285D-04 0.463D-04 0.526D-04-0.288D-04-0.627D-03
 Coeff-Com: -0.189D-02-0.422D-02 0.434D-02 0.252D-01 0.209D-01-0.637D-01
 Coeff-Com: -0.811D-01-0.397D-01 0.396D+00 0.744D+00
 Coeff:     -0.141D-04 0.285D-04 0.463D-04 0.526D-04-0.288D-04-0.627D-03
 Coeff:     -0.189D-02-0.422D-02 0.434D-02 0.252D-01 0.209D-01-0.637D-01
 Coeff:     -0.811D-01-0.397D-01 0.396D+00 0.744D+00
 Gap=     0.122 Goal=   None    Shift=    0.000
 RMSDP=2.31D-08 MaxDP=1.64D-06 DE=-8.11D-10 OVMax= 1.28D-05

 Cycle  17  Pass 1  IDiag  1:
 RMSU=  1.04D-08    CP:  9.64D-01  1.50D+00  6.88D-01  6.28D-01  8.83D-01
                    CP:  9.19D-01  1.14D+00  1.35D+00  1.77D+00  2.24D+00
                    CP:  2.01D+00  2.00D+00  1.46D+00  1.34D+00  1.44D+00
                    CP:  1.25D+00
 E= -4069.81189662579     Delta-E=       -0.000000000222 Rises=F Damp=F
 DIIS: error= 9.48D-08 at cycle  17 NSaved=  17.
 NSaved=17 IEnMin=17 EnMin= -4069.81189662579     IErMin=17 ErrMin= 9.48D-08
 ErrMax= 9.48D-08  0.00D+00 EMaxC= 1.00D-01 BMatC= 1.81D-11 BMatP= 8.40D-11
 IDIUse=1 WtCom= 1.00D+00 WtEn= 0.00D+00
 Coeff-Com: -0.728D-05 0.142D-04 0.287D-04 0.425D-04 0.832D-04-0.126D-03
 Coeff-Com: -0.926D-03-0.281D-02 0.694D-04 0.928D-02 0.175D-01-0.735D-02
 Coeff-Com: -0.356D-01-0.101D+00-0.301D-01 0.291D+00 0.860D+00
 Coeff:     -0.728D-05 0.142D-04 0.287D-04 0.425D-04 0.832D-04-0.126D-03
 Coeff:     -0.926D-03-0.281D-02 0.694D-04 0.928D-02 0.175D-01-0.735D-02
 Coeff:     -0.356D-01-0.101D+00-0.301D-01 0.291D+00 0.860D+00
 Gap=     0.122 Goal=   None    Shift=    0.000
 RMSDP=1.36D-08 MaxDP=1.03D-06 DE=-2.22D-10 OVMax= 9.00D-06

 Cycle  18  Pass 1  IDiag  1:
 RMSU=  4.84D-09    CP:  9.64D-01  1.50D+00  6.88D-01  6.28D-01  8.83D-01
                    CP:  9.19D-01  1.14D+00  1.35D+00  1.77D+00  2.24D+00
                    CP:  2.01D+00  2.00D+00  1.48D+00  1.41D+00  1.61D+00
                    CP:  1.66D+00  1.39D+00
 E= -4069.81189662594     Delta-E=       -0.000000000149 Rises=F Damp=F
 DIIS: error= 5.56D-08 at cycle  18 NSaved=  18.
 NSaved=18 IEnMin=18 EnMin= -4069.81189662594     IErMin=18 ErrMin= 5.56D-08
 ErrMax= 5.56D-08  0.00D+00 EMaxC= 1.00D-01 BMatC= 7.08D-12 BMatP= 1.81D-11
 IDIUse=1 WtCom= 1.00D+00 WtEn= 0.00D+00
 Coeff-Com:  0.193D-05-0.417D-05-0.415D-05-0.123D-05 0.598D-04 0.176D-03
 Coeff-Com:  0.384D-03 0.195D-03-0.123D-02-0.594D-02-0.856D-04 0.194D-01
 Coeff-Com:  0.182D-01-0.319D-01-0.160D+00-0.190D+00 0.350D+00 0.100D+01
 Coeff:      0.193D-05-0.417D-05-0.415D-05-0.123D-05 0.598D-04 0.176D-03
 Coeff:      0.384D-03 0.195D-03-0.123D-02-0.594D-02-0.856D-04 0.194D-01
 Coeff:      0.182D-01-0.319D-01-0.160D+00-0.190D+00 0.350D+00 0.100D+01
 Gap=     0.122 Goal=   None    Shift=    0.000
 RMSDP=1.16D-08 MaxDP=7.73D-07 DE=-1.49D-10 OVMax= 6.62D-06

 Cycle  19  Pass 1  IDiag  1:
 RMSU=  2.79D-09    CP:  9.64D-01  1.50D+00  6.88D-01  6.28D-01  8.83D-01
                    CP:  9.19D-01  1.14D+00  1.35D+00  1.77D+00  2.24D+00
                    CP:  2.02D+00  2.01D+00  1.49D+00  1.45D+00  1.76D+00
                    CP:  1.98D+00  1.94D+00  1.38D+00
 E= -4069.81189662590     Delta-E=        0.000000000033 Rises=F Damp=F
 DIIS: error= 3.25D-08 at cycle  19 NSaved=  19.
 NSaved=19 IEnMin=18 EnMin= -4069.81189662594     IErMin=19 ErrMin= 3.25D-08
 ErrMax= 3.25D-08  0.00D+00 EMaxC= 1.00D-01 BMatC= 1.46D-12 BMatP= 7.08D-12
 IDIUse=1 WtCom= 1.00D+00 WtEn= 0.00D+00
 Coeff-Com:  0.288D-05-0.580D-05-0.980D-05-0.123D-04 0.117D-04 0.116D-03
 Coeff-Com:  0.462D-03 0.793D-03-0.559D-03-0.589D-02-0.488D-02 0.117D-01
 Coeff-Com:  0.200D-01 0.118D-01-0.680D-01-0.178D+00-0.367D-01 0.491D+00
 Coeff-Com:  0.759D+00
 Coeff:      0.288D-05-0.580D-05-0.980D-05-0.123D-04 0.117D-04 0.116D-03
 Coeff:      0.462D-03 0.793D-03-0.559D-03-0.589D-02-0.488D-02 0.117D-01
 Coeff:      0.200D-01 0.118D-01-0.680D-01-0.178D+00-0.367D-01 0.491D+00
 Coeff:      0.759D+00
 Gap=     0.122 Goal=   None    Shift=    0.000
 RMSDP=4.61D-09 MaxDP=3.28D-07 DE= 3.27D-11 OVMax= 3.08D-06

 SCF Done:  E(RCAM-B3LYP) =  -4069.81189663     A.U. after   19 cycles
            NFock= 19  Conv=0.46D-08     -V/T= 2.0102
 KE= 4.028802072633D+03 PE=-3.797986521294D+04 EE= 1.563180873973D+04
 Leave Link  502 at Sat Sep 11 15:58:28 2021, MaxMem= 23488102400 cpu:           12191.8 elap:             531.3
 (Enter /sw/apps/gaussian-16.0/g16/l801.exe)
 DoSCS=F DFT=T ScalE2(SS,OS)=  1.000000  1.000000
 ExpMin= 3.36D-02 ExpMax= 4.95D+03 ExpMxC= 7.45D+02 IAcc=3 IRadAn=         5 AccDes= 0.00D+00
 HarFok:  IExCor=  205 AccDes= 0.00D+00 IRadAn=         5 IDoV=-2 UseB2=F ITyADJ=14
 ICtDFT= 12500011 ScaDFX=  1.000000  1.000000  1.000000  1.000000
 GSVD:  LWork=       -9588 too small for GESVD, short by       45590 words or       45590 for optimal perf.
 Largest valence mixing into a core orbital is  2.03D-04
 Largest core mixing into a valence orbital is  5.24D-05
 Range of M.O.s used for correlation:    95  1572
 NBasis=  1572 NAE=   312 NBE=   312 NFC=    94 NFV=     0
 NROrb=   1478 NOA=   218 NOB=   218 NVA=  1260 NVB=  1260
 Leave Link  801 at Sat Sep 11 15:58:28 2021, MaxMem= 23488102400 cpu:               9.5 elap:               0.4
 (Enter /sw/apps/gaussian-16.0/g16/l914.exe)
 RHF ground state
 Two-electron integrals replicated using symmetry.
 MDV= 23488102400 DFT=T DoStab=F Mixed=T DoRPA=T DoScal=F NonHer=T
 Making orbital integer symmetry assigments:
 Orbital symmetries:
       Occupied  (A) (A) (A) (A) (A) (A) (A) (A) (A) (A) (A) (A)
                 (A) (A) (A) (A) (A) (A) (A) (A) (A) (A) (A) (A)
                 (A) (A) (A) (A) (A) (A) (A) (A) (A) (A) (A) (A)
                 (A) (A) (A) (A) (A) (A) (A) (A) (A) (A) (A) (A)
                 (A) (A) (A) (A) (A) (A) (A) (A) (A) (A) (A) (A)
                 (A) (A) (A) (A) (A) (A) (A) (A) (A) (A) (A) (A)
                 (A) (A) (A) (A) (A) (A) (A) (A) (A) (A) (A) (A)
                 (A) (A) (A) (A) (A) (A) (A) (A) (A) (A) (A) (A)
                 (A) (A) (A) (A) (A) (A) (A) (A) (A) (A) (A) (A)
                 (A) (A) (A) (A) (A) (A) (A) (A) (A) (A) (A) (A)
                 (A) (A) (A) (A) (A) (A) (A) (A) (A) (A) (A) (A)
                 (A) (A) (A) (A) (A) (A) (A) (A) (A) (A) (A) (A)
                 (A) (A) (A) (A) (A) (A) (A) (A) (A) (A) (A) (A)
                 (A) (A) (A) (A) (A) (A) (A) (A) (A) (A) (A) (A)
                 (A) (A) (A) (A) (A) (A) (A) (A) (A) (A) (A) (A)
                 (A) (A) (A) (A) (A) (A) (A) (A) (A) (A) (A) (A)
                 (A) (A) (A) (A) (A) (A) (A) (A) (A) (A) (A) (A)
                 (A) (A) (A) (A) (A) (A) (A) (A) (A) (A) (A) (A)
                 (A) (A) (A) (A) (A) (A) (A) (A) (A) (A) (A) (A)
                 (A) (A) (A) (A) (A) (A) (A) (A) (A) (A) (A) (A)
                 (A) (A) (A) (A) (A) (A) (A) (A) (A) (A) (A) (A)
                 (A) (A) (A) (A) (A) (A) (A) (A) (A) (A) (A) (A)
                 (A) (A) (A) (A) (A) (A) (A) (A) (A) (A) (A) (A)
                 (A) (A) (A) (A) (A) (A) (A) (A) (A) (A) (A) (A)
                 (A) (A) (A) (A) (A) (A) (A) (A) (A) (A) (A) (A)
                 (A) (A) (A) (A) (A) (A) (A) (A) (A) (A) (A) (A)
       Virtual   (A) (A) (A) (A) (A) (A) (A) (A) (A) (A) (A) (A)
                 (A) (A) (A) (A) (A) (A) (A) (A) (A) (A) (A) (A)
                 (A) (A) (A) (A) (A) (A) (A) (A) (A) (A) (A) (A)
                 (A) (A) (A) (A) (A) (A) (A) (A) (A) (A) (A) (A)
                 (A) (A) (A) (A) (A) (A) (A) (A) (A) (A) (A) (A)
                 (A) (A) (A) (A) (A) (A) (A) (A) (A) (A) (A) (A)
                 (A) (A) (A) (A) (A) (A) (A) (A) (A) (A) (A) (A)
                 (A) (A) (A) (A) (A) (A) (A) (A) (A) (A) (A) (A)
                 (A) (A) (A) (A) (A) (A) (A) (A) (A) (A) (A) (A)
                 (A) (A) (A) (A) (A) (A) (A) (A) (A) (A) (A) (A)
                 (A) (A) (A) (A) (A) (A) (A) (A) (A) (A) (A) (A)
                 (A) (A) (A) (A) (A) (A) (A) (A) (A) (A) (A) (A)
                 (A) (A) (A) (A) (A) (A) (A) (A) (A) (A) (A) (A)
                 (A) (A) (A) (A) (A) (A) (A) (A) (A) (A) (A) (A)
                 (A) (A) (A) (A) (A) (A) (A) (A) (A) (A) (A) (A)
                 (A) (A) (A) (A) (A) (A) (A) (A) (A) (A) (A) (A)
                 (A) (A) (A) (A) (A) (A) (A) (A) (A) (A) (A) (A)
                 (A) (A) (A) (A) (A) (A) (A) (A) (A) (A) (A) (A)
                 (A) (A) (A) (A) (A) (A) (A) (A) (A) (A) (A) (A)
                 (A) (A) (A) (A) (A) (A) (A) (A) (A) (A) (A) (A)
                 (A) (A) (A) (A) (A) (A) (A) (A) (A) (A) (A) (A)
                 (A) (A) (A) (A) (A) (A) (A) (A) (A) (A) (A) (A)
                 (A) (A) (A) (A) (A) (A) (A) (A) (A) (A) (A) (A)
                 (A) (A) (A) (A) (A) (A) (A) (A) (A) (A) (A) (A)
                 (A) (A) (A) (A) (A) (A) (A) (A) (A) (A) (A) (A)
                 (A) (A) (A) (A) (A) (A) (A) (A) (A) (A) (A) (A)
                 (A) (A) (A) (A) (A) (A) (A) (A) (A) (A) (A) (A)
                 (A) (A) (A) (A) (A) (A) (A) (A) (A) (A) (A) (A)
                 (A) (A) (A) (A) (A) (A) (A) (A) (A) (A) (A) (A)
                 (A) (A) (A) (A) (A) (A) (A) (A) (A) (A) (A) (A)
                 (A) (A) (A) (A) (A) (A) (A) (A) (A) (A) (A) (A)
                 (A) (A) (A) (A) (A) (A) (A) (A) (A) (A) (A) (A)
                 (A) (A) (A) (A) (A) (A) (A) (A) (A) (A) (A) (A)
                 (A) (A) (A) (A) (A) (A) (A) (A) (A) (A) (A) (A)
                 (A) (A) (A) (A) (A) (A) (A) (A) (A) (A) (A) (A)
                 (A) (A) (A) (A) (A) (A) (A) (A) (A) (A) (A) (A)
                 (A) (A) (A) (A) (A) (A) (A) (A) (A) (A) (A) (A)
                 (A) (A) (A) (A) (A) (A) (A) (A) (A) (A) (A) (A)
                 (A) (A) (A) (A) (A) (A) (A) (A) (A) (A) (A) (A)
                 (A) (A) (A) (A) (A) (A) (A) (A) (A) (A) (A) (A)
                 (A) (A) (A) (A) (A) (A) (A) (A) (A) (A) (A) (A)
                 (A) (A) (A) (A) (A) (A) (A) (A) (A) (A) (A) (A)
                 (A) (A) (A) (A) (A) (A) (A) (A) (A) (A) (A) (A)
                 (A) (A) (A) (A) (A) (A) (A) (A) (A) (A) (A) (A)
                 (A) (A) (A) (A) (A) (A) (A) (A) (A) (A) (A) (A)
                 (A) (A) (A) (A) (A) (A) (A) (A) (A) (A) (A) (A)
                 (A) (A) (A) (A) (A) (A) (A) (A) (A) (A) (A) (A)
                 (A) (A) (A) (A) (A) (A) (A) (A) (A) (A) (A) (A)
                 (A) (A) (A) (A) (A) (A) (A) (A) (A) (A) (A) (A)
                 (A) (A) (A) (A) (A) (A) (A) (A) (A) (A) (A) (A)
                 (A) (A) (A) (A) (A) (A) (A) (A) (A) (A) (A) (A)
                 (A) (A) (A) (A) (A) (A) (A) (A) (A) (A) (A) (A)
                 (A) (A) (A) (A) (A) (A) (A) (A) (A) (A) (A) (A)
                 (A) (A) (A) (A) (A) (A) (A) (A) (A) (A) (A) (A)
                 (A) (A) (A) (A) (A) (A) (A) (A) (A) (A) (A) (A)
                 (A) (A) (A) (A) (A) (A) (A) (A) (A) (A) (A) (A)
                 (A) (A) (A) (A) (A) (A) (A) (A) (A) (A) (A) (A)
                 (A) (A) (A) (A) (A) (A) (A) (A) (A) (A) (A) (A)
                 (A) (A) (A) (A) (A) (A) (A) (A) (A) (A) (A) (A)
                 (A) (A) (A) (A) (A) (A) (A) (A) (A) (A) (A) (A)
                 (A) (A) (A) (A) (A) (A) (A) (A) (A) (A) (A) (A)
                 (A) (A) (A) (A) (A) (A) (A) (A) (A) (A) (A) (A)
                 (A) (A) (A) (A) (A) (A) (A) (A) (A) (A) (A) (A)
                 (A) (A) (A) (A) (A) (A) (A) (A) (A) (A) (A) (A)
                 (A) (A) (A) (A) (A) (A) (A) (A) (A) (A) (A) (A)
                 (A) (A) (A) (A) (A) (A) (A) (A) (A) (A) (A) (A)
                 (A) (A) (A) (A) (A) (A) (A) (A) (A) (A) (A) (A)
                 (A) (A) (A) (A) (A) (A) (A) (A) (A) (A) (A) (A)
                 (A) (A) (A) (A) (A) (A) (A) (A) (A) (A) (A) (A)
                 (A) (A) (A) (A) (A) (A) (A) (A) (A) (A) (A) (A)
                 (A) (A) (A) (A) (A) (A) (A) (A) (A) (A) (A) (A)
                 (A) (A) (A) (A) (A) (A) (A) (A) (A) (A) (A) (A)
                 (A) (A) (A) (A) (A) (A) (A) (A) (A) (A) (A) (A)
                 (A) (A) (A) (A) (A) (A) (A) (A) (A) (A) (A) (A)
                 (A) (A) (A) (A) (A) (A) (A) (A) (A) (A) (A) (A)
                 (A) (A) (A) (A) (A) (A) (A) (A) (A) (A) (A) (A)
                 (A) (A) (A) (A) (A) (A) (A) (A) (A) (A) (A) (A)
                 (A) (A) (A) (A) (A) (A) (A) (A) (A) (A) (A) (A)
                 (A) (A) (A) (A) (A) (A) (A) (A) (A) (A) (A) (A)
                 (A) (A) (A) (A) (A) (A) (A) (A) (A) (A) (A) (A)
                 (A) (A) (A) (A) (A) (A) (A) (A) (A) (A) (A) (A)
                 (A) (A) (A) (A) (A) (A) (A) (A) (A) (A) (A) (A)
                 (A) (A) (A) (A) (A) (A) (A) (A) (A) (A) (A) (A)
                 (A) (A) (A) (A) (A) (A) (A) (A) (A) (A) (A) (A)
                 (A) (A) (A) (A) (A) (A) (A) (A) (A) (A) (A) (A)
                 (A) (A) (A) (A) (A) (A) (A) (A) (A) (A) (A) (A)
                 (A) (A) (A) (A) (A) (A) (A) (A) (A) (A) (A) (A)
                 (A) (A) (A) (A) (A) (A) (A) (A) (A) (A) (A) (A)
                 (A) (A) (A) (A) (A) (A) (A) (A) (A) (A) (A) (A)
                 (A) (A) (A) (A) (A) (A) (A) (A) (A) (A) (A) (A)
                 (A) (A) (A) (A) (A) (A) (A) (A) (A) (A) (A) (A)
                 (A) (A) (A) (A) (A) (A) (A) (A) (A) (A) (A) (A)
                 (A) (A) (A) (A) (A) (A) (A) (A) (A) (A) (A) (A)
                 (A) (A) (A) (A) (A) (A) (A) (A) (A) (A) (A) (A)
                 (A) (A) (A) (A) (A) (A) (A) (A) (A) (A) (A) (A)
                 (A) (A) (A) (A) (A) (A) (A) (A) (A) (A) (A) (A)
                 (A) (A) (A) (A) (A) (A) (A) (A) (A) (A) (A) (A)
                 (A) (A) (A) (A) (A) (A) (A) (A) (A) (A) (A) (A)
                 (A) (A) (A) (A) (A) (A) (A) (A) (A) (A) (A) (A)
                 (A) (A) (A) (A) (A) (A) (A) (A) (A) (A) (A) (A)
                 (A) (A) (A) (A) (A) (A) (A) (A) (A) (A) (A) (A)
                 (A) (A) (A) (A) (A) (A) (A) (A) (A) (A) (A) (A)
                 (A) (A) (A) (A) (A) (A) (A) (A) (A) (A) (A) (A)
                 (A) (A) (A) (A) (A) (A) (A) (A) (A) (A) (A) (A)
                 (A) (A) (A) (A) (A) (A) (A) (A) (A) (A) (A) (A)
    20 initial guesses have been made.
 Convergence on wavefunction:    0.001000000000000
 Davidson Disk Diagonalization:  ConvIn= 1.00D-03 SkipCon=T Conv= 1.00D-03.
 Max sub-space:  2000 roots to seek:    20 dimension of matrix:       549360
 Iteration     1 Dimension    20 NMult     0 NNew     20
 CISAX will form    20 AO SS matrices at one time.
 NMat=    20 NSing=    20 JSym2X= 0.
 FoFJK:  IHMeth= 1 ICntrl=       0 DoSepK=T KAlg= 0 I1Cent=           0 FoldK=F
 IRaf=         1 NMat=      40 IRICut=       1 DoRegI=T DoRafI=F ISym2E= 0 IDoP0=3 IntGTp=3.
 FoFCou: FMM=T IPFlag=           0 FMFlag=      100000 FMFlg1=        2001
         NFxFlg=           0 DoJE=F BraDBF=F KetDBF=F FulRan=T
         wScrn=  0.000000 ICntrl=       500 IOpCl=  0 I1Cent=           0 NGrid=           0
         NMat0=   20 NMatS0=     20 NMatT0=    0 NMatD0=   20 NMtDS0=    0 NMtDT0=    0
 Symmetry not used in FoFCou.
 FMM levels:  10  Number of levels for PrismC:   9
 New state      1 was old state      7
 New state      2 was old state      6
 New state      3 was old state      1
 New state      4 was old state      2
 New state      5 was old state      3
 Excitation Energies [eV] at current iteration:
 Root      1 :     2.612928230989635
 Root      2 :     2.620508214678086
 Root      3 :     2.646725239925947
 Root      4 :     2.667157663922308
 Root      5 :     2.703164824936093
 Root      6 :     2.741560453542129
 Root      7 :     3.435589786624186
 Root      8 :     3.542784217405792
 Root      9 :     3.627373206262173
 Root     10 :     3.669818642048488
 Root     11 :     3.738550233612138
 Root     12 :     3.758905978747196
 Root     13 :     4.289090984053204
 Root     14 :     4.318585793094733
 Root     15 :     4.553854558414488
 Root     16 :     4.675326165560717
 Root     17 :     4.865338821156437
 Root     18 :     4.901105407351510
 Root     19 :     4.967347440342150
 Root     20 :     5.001206719823077
 Iteration     2 Dimension    30 NMult    20 NNew     10
 CISAX will form    10 AO SS matrices at one time.
 NMat=    10 NSing=    10 JSym2X= 0.
 New state      1 was old state      4
 Root      1 not converged, maximum delta is    0.154945307558012
 New state      2 was old state      5
 Root      2 not converged, maximum delta is    0.159464659979146
 New state      3 was old state      2
 Root      3 not converged, maximum delta is    0.452970165818486
 New state      4 was old state      1
 Root      4 not converged, maximum delta is    0.440827459389069
 New state      5 was old state      3
 Root      5 not converged, maximum delta is    0.001198028096094
 Excitation Energies [eV] at current iteration:
 Root      1 :     1.794999575435235   Change is   -0.872158088487073
 Root      2 :     1.812116502786004   Change is   -0.891048322150089
 Root      3 :     2.234660254951371   Change is   -0.385847959726716
 Root      4 :     2.240187694432672   Change is   -0.372740536556963
 Root      5 :     2.646553388020255   Change is   -0.000171851905692
 Iteration     3 Dimension    40 NMult    30 NNew     10
 CISAX will form    10 AO SS matrices at one time.
 NMat=    10 NSing=    10 JSym2X= 0.
 Root      1 not converged, maximum delta is    0.056742891146891
 Root      2 not converged, maximum delta is    0.057795281032952
 Root      3 not converged, maximum delta is    0.114202502879533
 Root      4 not converged, maximum delta is    0.113723033906146
 Root      5 has converged.
 Excitation Energies [eV] at current iteration:
 Root      1 :     1.688159558174359   Change is   -0.106840017260876
 Root      2 :     1.703558802686633   Change is   -0.108557700099371
 Root      3 :     2.192883088030631   Change is   -0.041777166920739
 Root      4 :     2.201105054862969   Change is   -0.039082639569703
 Root      5 :     2.646552596922031   Change is   -0.000000791098225
 Iteration     4 Dimension    48 NMult    40 NNew      8
 CISAX will form     8 AO SS matrices at one time.
 NMat=     8 NSing=     8 JSym2X= 0.
 Root      1 not converged, maximum delta is    0.010999173660045
 Root      2 not converged, maximum delta is    0.010977708325091
 Root      3 not converged, maximum delta is    0.012276871482825
 Root      4 not converged, maximum delta is    0.012166529366020
 Root      5 has converged.
 Excitation Energies [eV] at current iteration:
 Root      1 :     1.671433962828928   Change is   -0.016725595345431
 Root      2 :     1.686694063456224   Change is   -0.016864739230409
 Root      3 :     2.185526827209997   Change is   -0.007356260820635
 Root      4 :     2.194325485621991   Change is   -0.006779569240978
 Root      5 :     2.646552596919173   Change is   -0.000000000002858
 Iteration     5 Dimension    56 NMult    48 NNew      8
 CISAX will form     8 AO SS matrices at one time.
 NMat=     8 NSing=     8 JSym2X= 0.
 Root      1 not converged, maximum delta is    0.001764845520102
 Root      2 not converged, maximum delta is    0.001815625471230
 Root      3 not converged, maximum delta is    0.002508614564203
 Root      4 not converged, maximum delta is    0.002314893436342
 Root      5 has converged.
 Excitation Energies [eV] at current iteration:
 Root      1 :     1.669671373596655   Change is   -0.001762589232273
 Root      2 :     1.684908566032477   Change is   -0.001785497423748
 Root      3 :     2.184667153653558   Change is   -0.000859673556438
 Root      4 :     2.193552924426542   Change is   -0.000772561195449
 Root      5 :     2.646552596918272   Change is   -0.000000000000901
 Iteration     6 Dimension    64 NMult    56 NNew      8
 CISAX will form     8 AO SS matrices at one time.
 NMat=     8 NSing=     8 JSym2X= 0.
 Root      1 not converged, maximum delta is    0.001110644261188
 Root      2 not converged, maximum delta is    0.001121523805411
 Root      3 not converged, maximum delta is    0.001072325594099
 Root      4 has converged.
 Root      5 has converged.
 Excitation Energies [eV] at current iteration:
 Root      1 :     1.669420246438864   Change is   -0.000251127157791
 Root      2 :     1.684652337181646   Change is   -0.000256228850831
 Root      3 :     2.184536859234190   Change is   -0.000130294419369
 Root      4 :     2.193435114747248   Change is   -0.000117809679294
 Root      5 :     2.646552596917806   Change is   -0.000000000000466
 Iteration     7 Dimension    70 NMult    64 NNew      6
 CISAX will form     6 AO SS matrices at one time.
 NMat=     6 NSing=     6 JSym2X= 0.
 Root      1 has converged.
 Root      2 has converged.
 Root      3 has converged.
 Root      4 has converged.
 Root      5 has converged.
 Excitation Energies [eV] at current iteration:
 Root      1 :     1.669395841737494   Change is   -0.000024404701370
[...]
 Alpha virt. eigenvalues --    1.83614   1.83734   1.83957   1.84002   1.84307
 Alpha virt. eigenvalues --    1.84425   1.84579   1.84787   1.84869   1.85074
 Alpha virt. eigenvalues --    1.85184   1.85249   1.85384   1.85478   1.85554
 Alpha virt. eigenvalues --    1.85844   1.85971   1.86342   1.86441   1.86535
 Alpha virt. eigenvalues --    1.86715   1.86759   1.86874   1.87004   1.87107
 Alpha virt. eigenvalues --    1.87415   1.87556   1.87643   1.87844   1.87845
 Alpha virt. eigenvalues --    1.88015   1.88073   1.88248   1.88510   1.88652
 Alpha virt. eigenvalues --    1.88787   1.89032   1.89109   1.89159   1.89608
 Alpha virt. eigenvalues --    1.89723   1.89728   1.89925   1.90092   1.90263
 Alpha virt. eigenvalues --    1.90717   1.90975   1.91315   1.91416   1.91482
 Alpha virt. eigenvalues --    1.91706   1.92127   1.92273   1.92571   1.92744
 Alpha virt. eigenvalues --    1.92960   1.93220   1.93323   1.93555   1.94260
 Alpha virt. eigenvalues --    1.94364   1.94671   1.94870   1.95464   1.95641
 Alpha virt. eigenvalues --    1.95688   1.95899   1.95951   1.96121   1.96135
 Alpha virt. eigenvalues --    1.96255   1.96551   1.96568   1.96873   1.97011
 Alpha virt. eigenvalues --    1.97424   1.97607   1.97813   1.97879   1.98134
 Alpha virt. eigenvalues --    1.98256   1.98435   1.98610   1.99098   1.99144
 Alpha virt. eigenvalues --    1.99776   2.00022   2.00639   2.00793   2.00958
 Alpha virt. eigenvalues --    2.01169   2.01421   2.01555   2.01653   2.01675
 Alpha virt. eigenvalues --    2.01685   2.01911   2.02751   2.02781   2.03200
 Alpha virt. eigenvalues --    2.03211   2.03364   2.03438   2.03454   2.03594
 Alpha virt. eigenvalues --    2.04001   2.04095   2.04937   2.05031   2.05493
 Alpha virt. eigenvalues --    2.05681   2.06054   2.06343   2.06849   2.07118
 Alpha virt. eigenvalues --    2.07158   2.07413   2.08575   2.08581   2.08951
 Alpha virt. eigenvalues --    2.09078   2.09548   2.09680   2.10770   2.11078
 Alpha virt. eigenvalues --    2.11155   2.11470   2.11485   2.11618   2.11699
 Alpha virt. eigenvalues --    2.11941   2.12426   2.12551   2.12781   2.12808
 Alpha virt. eigenvalues --    2.12862   2.12951   2.13708   2.13743   2.14125
 Alpha virt. eigenvalues --    2.14303   2.15309   2.15462   2.15889   2.16169
 Alpha virt. eigenvalues --    2.16505   2.16660   2.16729   2.17236   2.17387
 Alpha virt. eigenvalues --    2.17680   2.17695   2.18027   2.18053   2.18057
 Alpha virt. eigenvalues --    2.18277   2.18754   2.18818   2.19327   2.19601
 Alpha virt. eigenvalues --    2.19899   2.20000   2.20180   2.20312   2.20515
 Alpha virt. eigenvalues --    2.21144   2.21211   2.21644   2.21705   2.21828
 Alpha virt. eigenvalues --    2.21938   2.22654   2.22776   2.23292   2.23397
 Alpha virt. eigenvalues --    2.24375   2.24465   2.24953   2.25042   2.26253
 Alpha virt. eigenvalues --    2.26517   2.26754   2.27060   2.27073   2.27276
 Alpha virt. eigenvalues --    2.28102   2.28414   2.29243   2.29509   2.29696
 Alpha virt. eigenvalues --    2.29957   2.30408   2.30712   2.30917   2.31038
 Alpha virt. eigenvalues --    2.31127   2.31261   2.32101   2.32288   2.33094
 Alpha virt. eigenvalues --    2.33313   2.33428   2.33545   2.34114   2.34207
 Alpha virt. eigenvalues --    2.35312   2.35377   2.35759   2.35995   2.36341
 Alpha virt. eigenvalues --    2.36391   2.36487   2.36595   2.37646   2.37724
 Alpha virt. eigenvalues --    2.38242   2.38418   2.38803   2.38875   2.39578
 Alpha virt. eigenvalues --    2.39732   2.40157   2.40314   2.40441   2.40916
 Alpha virt. eigenvalues --    2.41213   2.41297   2.41666   2.41740   2.41987
 Alpha virt. eigenvalues --    2.42199   2.42857   2.42931   2.43152   2.43443
 Alpha virt. eigenvalues --    2.44032   2.44123   2.44698   2.44864   2.44868
 Alpha virt. eigenvalues --    2.45062   2.45524   2.45625   2.46283   2.46337
 Alpha virt. eigenvalues --    2.46446   2.46543   2.46761   2.46862   2.47226
 Alpha virt. eigenvalues --    2.47425   2.47685   2.47935   2.49294   2.49423
 Alpha virt. eigenvalues --    2.49930   2.50055   2.50495   2.50535   2.51071
 Alpha virt. eigenvalues --    2.51341   2.51656   2.51842   2.52383   2.52474
 Alpha virt. eigenvalues --    2.52770   2.53245   2.53893   2.54016   2.54136
 Alpha virt. eigenvalues --    2.54304   2.54761   2.54855   2.55496   2.55713
 Alpha virt. eigenvalues --    2.57838   2.58126   2.58619   2.58962   2.60155
 Alpha virt. eigenvalues --    2.60376   2.60563   2.61002   2.61686   2.61869
 Alpha virt. eigenvalues --    2.62486   2.62489   2.62921   2.63181   2.63898
 Alpha virt. eigenvalues --    2.64231   2.64295   2.64456   2.65047   2.65152
 Alpha virt. eigenvalues --    2.65736   2.65934   2.66757   2.66856   2.66880
 Alpha virt. eigenvalues --    2.67127   2.67881   2.68038   2.68819   2.68858
 Alpha virt. eigenvalues --    2.68975   2.69099   2.69366   2.69652   2.69965
 Alpha virt. eigenvalues --    2.70182   2.70941   2.71134   2.71942   2.72005
 Alpha virt. eigenvalues --    2.72545   2.72607   2.72751   2.72807   2.73260
 Alpha virt. eigenvalues --    2.73313   2.73450   2.73529   2.74476   2.74551
 Alpha virt. eigenvalues --    2.74935   2.75104   2.76561   2.76566   2.77111
 Alpha virt. eigenvalues --    2.77192   2.77424   2.77643   2.78168   2.78313
 Alpha virt. eigenvalues --    2.78682   2.78728   2.79098   2.79208   2.80280
 Alpha virt. eigenvalues --    2.80310   2.80530   2.80742   2.81078   2.81187
 Alpha virt. eigenvalues --    2.81894   2.82040   2.82314   2.82376   2.83704
 Alpha virt. eigenvalues --    2.83743   2.83864   2.83954   2.84520   2.84552
 Alpha virt. eigenvalues --    2.84862   2.84911   2.85643   2.85713   2.86694
 Alpha virt. eigenvalues --    2.86954   2.87231   2.87535   2.88131   2.88253
 Alpha virt. eigenvalues --    2.88480   2.88655   2.88899   2.88904   2.90453
 Alpha virt. eigenvalues --    2.90713   2.91106   2.91169   2.93111   2.93374
 Alpha virt. eigenvalues --    2.93812   2.94167   2.94540   2.94585   2.95307
 Alpha virt. eigenvalues --    2.95549   2.95907   2.96124   2.96403   2.96409
 Alpha virt. eigenvalues --    2.96930   2.97105   2.97750   2.98043   2.98174
 Alpha virt. eigenvalues --    2.98340   2.98426   2.98572   2.98624   2.98821
 Alpha virt. eigenvalues --    2.98858   2.98950   2.99571   2.99807   2.99970
 Alpha virt. eigenvalues --    3.00073   3.00178   3.00354   3.00414   3.01060
 Alpha virt. eigenvalues --    3.01943   3.01968   3.01997   3.02178   3.02660
 Alpha virt. eigenvalues --    3.02858   3.02923   3.03303   3.03360   3.03793
 Alpha virt. eigenvalues --    3.04113   3.04150   3.04427   3.04467   3.04522
 Alpha virt. eigenvalues --    3.04753   3.05283   3.05370   3.06079   3.06199
 Alpha virt. eigenvalues --    3.06748   3.06995   3.07936   3.08128   3.09347
 Alpha virt. eigenvalues --    3.09365   3.09646   3.10398   3.10508   3.10801
 Alpha virt. eigenvalues --    3.11317   3.11492   3.11882   3.11907   3.12172
 Alpha virt. eigenvalues --    3.12373   3.13233   3.13624   3.13696   3.13709
 Alpha virt. eigenvalues --    3.14014   3.14536   3.15916   3.15990   3.17233
 Alpha virt. eigenvalues --    3.17550   3.17877   3.18062   3.19046   3.19106
 Alpha virt. eigenvalues --    3.22226   3.22648   3.23915   3.24472   3.24628
 Alpha virt. eigenvalues --    3.25230   3.26475   3.26688   3.27431   3.27587
 Alpha virt. eigenvalues --    3.29017   3.29275   3.31411   3.31492   3.33216
 Alpha virt. eigenvalues --    3.33390   3.40320   3.40535   3.42796   3.42827
 Alpha virt. eigenvalues --    3.48624   3.48730   3.49992   3.50315   3.50872
 Alpha virt. eigenvalues --    3.51446   3.56525   3.57029   3.59077   3.59364
 Alpha virt. eigenvalues --    3.62545   3.62804   3.66109   3.66169   3.67100
 Alpha virt. eigenvalues --    3.67598   3.73197   3.74069   3.75995   3.76724
          Condensed to atoms (all electrons):
 Mulliken charges:
               1
     1  Mg   0.838581
     2  C   -0.003264
     3  C   -0.094281
     4  C   -0.045762
     5  C   -0.063725
     6  N   -0.256768
     7  C   -0.052612
     8  C   -0.013996
     9  C   -0.086971
    10  C    0.046203
    11  C    0.104776
    12  C    0.053544
    13  C   -0.071437
    14  H    0.034870
    15  N   -0.433167
    16  C    0.168425
    17  C   -0.177138
    18  C   -0.003880
    19  C    0.148675
    20  C    0.110146
    21  C    0.012334
    22  O   -0.249532
    23  C    0.062443
    24  N   -0.341113
    25  C    0.041259
    26  C   -0.028199
    27  C   -0.024019
    28  C    0.074788
    29  C    0.076125
    30  C    0.035066
    31  C   -0.004574
    32  N   -0.310467
    33  C    0.080324
    34  C   -0.169516
    35  C    0.008306
    36  C    0.082913
    37  C    0.127294
    38  C    0.046035
    39  O   -0.188528
    40  C   -0.005354
    41  C    0.212960
    42  O   -0.257799
    43  O   -0.304539
    44  C    0.157938
    45  H   -0.017572
    46  H   -0.016691
    47  H   -0.041136
    48  H    0.000934
    49  H   -0.004192
    50  H    0.025527
    51  H    0.016654
    52  H    0.016699
    53  H    0.011078
    54  H    0.043557
    55  H    0.018212
    56  H    0.018000
    57  H    0.005771
    58  H    0.026985
    59  H    0.039663
    60  H    0.037397
    61  H    0.035831
    62  H    0.031621
    63  H    0.016593
    64  H    0.009633
    65  H    0.023323
    66  H    0.012536
    67  H    0.004917
    68  H    0.006515
    69  H    0.005090
    70  H    0.008594
    71  H    0.018631
    72  H    0.028746
    73  H    0.047695
    74  H    0.009485
    75  H    0.046086
    76  H    0.035266
    77  H    0.043094
    78  H    0.046259
    79  H    0.052832
    80  Mg   0.837967
    81  C   -0.016777
    82  C   -0.087626
    83  C   -0.045814
    84  C   -0.064998
    85  N   -0.254677
    86  C   -0.049273
    87  C   -0.015209
    88  C   -0.090625
    89  C    0.045921
    90  C    0.114371
    91  C    0.062488
    92  C   -0.077833
    93  H    0.034372
    94  N   -0.423477
    95  C    0.162889
    96  C   -0.174768
    97  C   -0.008178
    98  C    0.152203
    99  C    0.099499
   100  C    0.015282
   101  O   -0.253598
   102  C    0.061307
   103  N   -0.350061
   104  C    0.037632
   105  C   -0.019836
   106  C   -0.034803
   107  C    0.089024
   108  C    0.073690
   109  C    0.034789
   110  C   -0.007612
   111  N   -0.324159
   112  C    0.078620
   113  C   -0.163223
   114  C    0.002429
   115  C    0.096207
   116  C    0.131457
   117  C    0.042402
   118  O   -0.187844
   119  C    0.000943
   120  C    0.211172
   121  O   -0.251367
   122  O   -0.305205
   123  C    0.152147
   124  H   -0.019457
   125  H   -0.016024
   126  H   -0.040696
   127  H    0.000318
   128  H   -0.004687
   129  H    0.023951
   130  H    0.014478
   131  H    0.017541
   132  H    0.013535
   133  H    0.037386
   134  H    0.021625
   135  H    0.019359
   136  H    0.008879
   137  H    0.025529
   138  H    0.039440
   139  H    0.037882
   140  H    0.035935
   141  H    0.033905
   142  H    0.014102
   143  H    0.012488
   144  H    0.024706
   145  H    0.011583
   146  H    0.005944
   147  H    0.006056
   148  H    0.003550
   149  H    0.010764
   150  H    0.017716
   151  H    0.030232
   152  H    0.045842
   153  H    0.008271
   154  H    0.047022
   155  H    0.036134
   156  H    0.044007
   157  H    0.049627
   158  H    0.053208
 Sum of Mulliken charges =  -0.00000
 Mulliken charges with hydrogens summed into heavy atoms:
               1
     1  Mg   0.838581
     2  C   -0.003264
     3  C   -0.111852
     4  C   -0.062453
     5  C   -0.104861
     6  N   -0.256768
     7  C   -0.052612
     8  C   -0.013062
     9  C   -0.091162
    10  C    0.046203
    11  C    0.163656
    12  C    0.108179
    13  C   -0.000355
    15  N   -0.433167
    16  C    0.168425
    17  C   -0.177138
    18  C   -0.003880
    19  C    0.148675
    20  C    0.182565
    21  C    0.012334
    22  O   -0.249532
    23  C    0.167292
    24  N   -0.341113
    25  C    0.041259
    26  C   -0.011606
    27  C   -0.014386
    28  C    0.074788
    29  C    0.116901
    30  C    0.046672
    31  C    0.051398
    32  N   -0.310467
    33  C    0.080324
    34  C   -0.169516
    35  C    0.008306
    36  C    0.082913
    37  C    0.230562
    38  C    0.046035
    39  O   -0.188528
    40  C    0.029912
    41  C    0.212960
    42  O   -0.257799
    43  O   -0.304539
    44  C    0.300123
    80  Mg   0.837967
    81  C   -0.016777
    82  C   -0.107083
    83  C   -0.061838
    84  C   -0.105694
    85  N   -0.254677
    86  C   -0.049273
    87  C   -0.014891
    88  C   -0.095311
    89  C    0.045921
    90  C    0.170341
    91  C    0.113408
    92  C   -0.002477
    94  N   -0.423477
    95  C    0.162889
    96  C   -0.174768
    97  C   -0.008178
    98  C    0.152203
    99  C    0.173348
   100  C    0.015282
   101  O   -0.253598
   102  C    0.169029
   103  N   -0.350061
   104  C    0.037632
   105  C   -0.005733
   106  C   -0.022315
   107  C    0.089024
   108  C    0.115923
   109  C    0.044395
   110  C    0.051100
   111  N   -0.324159
   112  C    0.078620
   113  C   -0.163223
   114  C    0.002429
   115  C    0.096207
   116  C    0.232592
   117  C    0.042402
   118  O   -0.187844
   119  C    0.037077
   120  C    0.211172
   121  O   -0.251367
   122  O   -0.305205
   123  C    0.298988
 Electronic spatial extent (au):  <R**2>=         150003.9318
 Charge=             -0.0000 electrons
 Dipole moment (field-independent basis, Debye):
    X=             -4.6029    Y=              2.0626    Z=              6.5348  Tot=              8.2550
 Quadrupole moment (field-independent basis, Debye-Ang):
   XX=           -518.0076   YY=           -532.4129   ZZ=           -467.1241
   XY=            -16.3775   XZ=              3.5281   YZ=            -31.1793
 Traceless Quadrupole moment (field-independent basis, Debye-Ang):
   XX=            -12.1594   YY=            -26.5647   ZZ=             38.7241
   XY=            -16.3775   XZ=              3.5281   YZ=            -31.1793
 Octapole moment (field-independent basis, Debye-Ang**2):
  XXX=           -625.4821  YYY=           -188.5146  ZZZ=            146.6405  XYY=            256.7286
  XXY=            110.7826  XXZ=            373.5530  XZZ=           -258.6917  YZZ=              8.0340
  YYZ=             97.4596  XYZ=           -271.7779
 Hexadecapole moment (field-independent basis, Debye-Ang**3):
 XXXX=        -140108.2631 YYYY=         -39221.2598 ZZZZ=         -26868.5142 XXXY=           -183.0988
 XXXZ=            -68.9401 YYYX=          -2120.6119 YYYZ=           -381.3092 ZZZX=           1357.3510
 ZZZY=           -616.7027 XXYY=         -30002.4242 XXZZ=         -26056.1616 YYZZ=         -11100.0210
 XXYZ=          -1226.1787 YYXZ=          -1899.8187 ZZXY=            547.9740
 N-N= 1.424944250394D+04 E-N=-3.797986520501D+04  KE= 4.028802072633D+03
 Leave Link  601 at Sat Sep 11 16:19:51 2021, MaxMem= 23488102400 cpu:              16.6 elap:               0.8
 (Enter /sw/apps/gaussian-16.0/g16/l9999.exe)
 1\1\GINC-BP1-COMPUTE00114\SP\RCAM-B3LYP TD-FC\def2SVP\C68H72Mg2N8O8\OF
 15641\11-Sep-2021\0\\#p cam-b3lyp/Def2SVP td=(nstates=5)\\TDDFT excite
 d states in gaussian\\0,1\Mg,0,0.,0.,0.\C,0,-0.217,-2.218,2.801\C,0,-1
 .255,2.442,2.026\C,0,-0.245,1.85,-2.564\C,0,0.146,-2.824,-2.037\N,0,-0
 .617,-0.009,2.126\C,0,-0.594,-0.908,3.105\C,0,-0.936,-0.309,4.502\C,0,
 -1.773,0.964,4.032\C,0,-1.155,1.168,2.66\C,0,-3.263,0.685,3.863\C,0,0.
 345,0.11,5.299\C,0,0.124,0.397,6.787\H,0,1.168,0.033,7.733\N,0,-0.185,
 1.961,-0.152\C,0,-0.703,2.8,0.777\C,0,-0.62,4.156,0.193\C,0,-0.187,4.0
 15,-1.225\C,0,-0.214,2.583,-1.38\C,0,-0.887,5.406,0.974\C,0,0.181,5.01
 3,-2.277\O,0,0.303,4.69,-3.508\C,0,0.31,6.414,-1.837\N,0,-0.265,-0.413
 ,-2.029\C,0,-0.279,0.569,-2.937\C,0,-0.196,0.024,-4.332\C,0,0.124,-1.5
 33,-4.18\C,0,0.086,-1.632,-2.635\C,0,-1.451,0.205,-5.197\C,0,1.373,-2.
 07,-4.923\C,0,2.626,-1.49,-4.306\N,0,0.15,-2.144,0.303\C,0,0.173,-3.13
 6,-0.688\C,0,0.173,-4.438,0.004\C,0,0.133,-4.111,1.358\C,0,0.083,-2.69
 5,1.502\C,0,0.149,-5.715,-0.623\C,0,0.096,-4.629,2.716\O,0,0.208,-5.74
 7,3.221\C,0,-0.255,-3.428,3.701\C,0,0.717,-3.482,4.848\O,0,1.931,-3.25
 5,4.669\O,0,0.038,-3.556,6.003\C,0,0.943,-3.583,7.183\H,0,-1.859,3.22,
 2.497\H,0,-0.218,2.453,-3.474\H,0,0.276,-3.747,-2.605\H,0,-1.554,-0.94
 9,5.132\H,0,-1.585,1.831,4.665\H,0,-3.484,-0.377,3.969\H,0,-3.511,1.02
 7,2.858\H,0,-3.852,1.301,4.543\H,0,0.669,1.096,4.966\H,0,1.13,-0.639,5
 .189\H,0,-0.844,0.026,7.125\H,0,0.062,1.477,6.921\H,0,-1.344,5.186,1.9
 38\H,0,-1.651,5.963,0.432\H,0,0.007,6.02,1.084\H,0,-0.635,6.744,-1.405
 \H,0,0.665,6.97,-2.704\H,0,1.048,6.466,-1.036\H,0,0.608,0.501,-4.891\H
 ,0,-0.692,-2.156,-4.547\H,0,-1.267,0.74,-6.129\H,0,-2.204,0.714,-4.596
 \H,0,-1.967,-0.72,-5.453\H,0,1.356,-1.759,-5.967\H,0,1.452,-3.157,-4.9
 02\H,0,2.714,-0.522,-4.798\H,0,3.487,-2.121,-4.529\H,0,2.495,-1.303,-3
 .24\H,0,0.867,-6.333,-0.084\H,0,0.404,-5.642,-1.68\H,0,-0.891,-5.999,-
 0.463\H,0,-1.283,-3.581,4.028\H,0,0.698,-4.478,7.755\H,0,0.833,-2.619,
 7.68\H,0,2.,-3.754,6.976\Mg,0,13.14541,1.18119,1.00598\C,0,13.25559,-2
 .40522,1.07339\C,0,12.02863,1.05852,4.22659\C,0,12.60841,4.3036,0.8339
 2\C,0,13.1589,0.97775,-2.47312\N,0,12.73571,-0.51397,2.36642\C,0,12.87
 296,-1.82983,2.30301\C,0,12.66171,-2.5644,3.65406\C,0,11.74261,-1.4676
 4,4.38293\C,0,12.21777,-0.21933,3.64226\C,0,10.25864,-1.6489,4.11035\C
 ,0,14.00775,-2.79161,4.42774\C,0,13.918,-3.77031,5.6007\H,0,15.0637,-4
 .63259,5.87695\N,0,12.89887,2.52323,2.44706\C,0,12.45851,2.29745,3.702
 6\C,0,12.43567,3.61163,4.36335\C,0,12.74117,4.65367,3.34574\C,0,12.740
 83,3.85158,2.13879\C,0,12.22233,3.7763,5.8401\C,0,12.97983,6.13019,3.4
 4134\O,0,12.99234,6.87898,2.40115\C,0,13.10545,6.68763,4.79595\N,0,12.
 70324,2.45052,-0.5801\C,0,12.56979,3.7748,-0.38927\C,0,12.52833,4.5141
 1,-1.70535\C,0,12.90624,3.43037,-2.81902\C,0,13.01849,2.17655,-1.92419
 \C,0,11.19157,5.16433,-2.06127\C,0,14.09181,3.77412,-3.76185\C,0,15.38
 494,3.79347,-2.97901\N,0,13.3825,-0.38874,-0.45934\C,0,13.3289,-0.2592
 ,-1.86449\C,0,13.42979,-1.61971,-2.43129\C,0,13.51259,-2.455,-1.30704\
 C,0,13.44622,-1.67217,-0.12287\C,0,13.38828,-1.94947,-3.81536\C,0,13.6
 3035,-3.82188,-0.85265\O,0,13.81209,-4.90746,-1.40241\C,0,13.34192,-3.
 86161,0.70992\C,0,14.42071,-4.68338,1.36063\O,0,15.60122,-4.29224,1.35
 848\O,0,13.85209,-5.68055,2.06255\C,0,14.88138,-6.517,2.73541\H,0,11.4
 6018,1.12564,5.15462\H,0,12.53191,5.38695,0.71569\H,0,13.26898,0.83838
 ,-3.55068\H,0,12.13028,-3.50569,3.5811\H,0,11.97799,-1.39561,5.4416\H,
 0,10.07519,-2.4168,3.37359\H,0,9.90585,-0.69014,3.75344\H,0,9.72387,-1
 .83767,5.04561\H,0,14.2691,-1.87317,4.96895\H,0,14.7851,-3.10191,3.756
 87\H,0,12.99185,-4.3574,5.57773\H,0,13.84817,-3.19572,6.52751\H,0,11.8
 5998,2.84866,6.30009\H,0,11.39537,4.48336,5.96683\H,0,13.1039,4.16813,
 6.35193\H,0,12.20099,6.47291,5.36013\H,0,13.36148,7.7397,4.65643\H,0,1
 3.92626,6.17545,5.3103\H,0,13.26318,5.30954,-1.7254\H,0,12.07074,3.248
 82,-3.51098\H,0,11.27073,6.25244,-2.2452\H,0,10.49085,4.96382,-1.2617\
 H,0,10.6853,4.73642,-2.92486\H,0,13.96611,4.77656,-4.17835\H,0,14.1924
 1,3.08876,-4.59681\H,0,15.39381,4.79644,-2.54192\H,0,16.23564,3.64377,
 -3.64078\H,0,15.35546,3.07396,-2.15252\H,0,14.16329,-2.68541,-3.98346\
 H,0,13.53293,-1.06925,-4.4383\H,0,12.37137,-2.34363,-3.89153\H,0,12.35
 301,-4.29996,0.84947\H,0,14.71295,-7.54987,2.41526\H,0,14.78148,-6.301
 92,3.81593\H,0,15.91485,-6.37103,2.44373\\Version=ES64L-G16RevA.03\Sta
 te=1-A\HF=-4069.8118966\RMSD=4.608e-09\PG=C01 [X(C68H72Mg2N8O8)]\\@


 MOM AND DAD WENT TO ALPHA CENTAURI AND ALL
 I GOT WAS THIS DUMB T-SHIRT.
 Job cpu time:       0 days 11 hours 56 minutes 51.3 seconds.
 Elapsed time:       0 days  0 hours 30 minutes 26.9 seconds.
 File lengths (MBytes):  RWF=  13225 Int=      0 D2E=      0 Chk=    574 Scr=      1
 Normal termination of Gaussian 16 at Sat Sep 11 16:19:52 2021.
