 Entering Gaussian System, Link 0=g16
 Initial command:
 /sw/apps/gaussian-16.0/g16/l1.exe "/tmp/Gau-267357.inp" -scrdir="/tmp/"
 Entering Link 1 = /sw/apps/gaussian-16.0/g16/l1.exe PID=    267358.
  
 Copyright (c) 1988,1990,1992,1993,1995,1998,2003,2009,2016,
            Gaussian, Inc.  All Rights Reserved.
  
 This is part of the Gaussian(R) 16 program.  It is based on
 the Gaussian(R) 09 system (copyright 2009, Gaussian, Inc.),
 the Gaussian(R) 03 system (copyright 2003, Gaussian, Inc.),
 the Gaussian(R) 98 system (copyright 1998, Gaussian, Inc.),
 the Gaussian(R) 94 system (copyright 1995, Gaussian, Inc.),
 the Gaussian 92(TM) system (copyright 1992, Gaussian, Inc.),
 the Gaussian 90(TM) system (copyright 1990, Gaussian, Inc.),
 the Gaussian 88(TM) system (copyright 1988, Gaussian, Inc.),
 the Gaussian 86(TM) system (copyright 1986, Carnegie Mellon
 University), and the Gaussian 82(TM) system (copyright 1983,
 Carnegie Mellon University). Gaussian is a federally registered
 trademark of Gaussian, Inc.
  
 This software contains proprietary and confidential information,
 including trade secrets, belonging to Gaussian, Inc.
  
 This software is provided under written license and may be
 used, copied, transmitted, or stored only in accord with that
 written license.
  
 The following legend is applicable only to US Government
 contracts under FAR:
  
                    RESTRICTED RIGHTS LEGEND
  
 Use, reproduction and disclosure by the US Government is
 subject to restrictions as set forth in subparagraphs (a)
 and (c) of the Commercial Computer Software - Restricted
 Rights clause in FAR 52.227-19.
  
 Gaussian, Inc.
 340 Quinnipiac St., Bldg. 40, Wallingford CT 06492
  
  
 ---------------------------------------------------------------
 Warning -- This program may not be used in any manner that
 competes with the business of Gaussian, Inc. or will provide
 assistance to any competitor of Gaussian, Inc.  The licensee
 of this program is prohibited from giving any competitor of
 Gaussian, Inc. access to this program.  By using this program,
 the user acknowledges that Gaussian, Inc. is engaged in the
 business of creating and licensing software in the field of
 computational chemistry and represents and warrants to the
 licensee that it is not a competitor of Gaussian, Inc. and that
 it will not use this program in any manner prohibited above.
 ---------------------------------------------------------------
  

 Cite this work as:
 Gaussian 16, Revision A.03,
 M. J. Frisch, G. W. Trucks, H. B. Schlegel, G. E. Scuseria, 
 M. A. Robb, J. R. Cheeseman, G. Scalmani, V. Barone, 
 G. A. Petersson, H. Nakatsuji, X. Li, M. Caricato, A. V. Marenich, 
 J. Bloino, B. G. Janesko, R. Gomperts, B. Mennucci, H. P. Hratchian, 
 J. V. Ortiz, A. F. Izmaylov, J. L. Sonnenberg, D. Williams-Young, 
 F. Ding, F. Lipparini, F. Egidi, J. Goings, B. Peng, A. Petrone, 
 T. Henderson, D. Ranasinghe, V. G. Zakrzewski, J. Gao, N. Rega, 
 G. Zheng, W. Liang, M. Hada, M. Ehara, K. Toyota, R. Fukuda, 
 J. Hasegawa, M. Ishida, T. Nakajima, Y. Honda, O. Kitao, H. Nakai, 
 T. Vreven, K. Throssell, J. A. Montgomery, Jr., J. E. Peralta, 
 F. Ogliaro, M. J. Bearpark, J. J. Heyd, E. N. Brothers, K. N. Kudin, 
 V. N. Staroverov, T. A. Keith, R. Kobayashi, J. Normand, 
 K. Raghavachari, A. P. Rendell, J. C. Burant, S. S. Iyengar, 
 J. Tomasi, M. Cossi, J. M. Millam, M. Klene, C. Adamo, R. Cammi, 
 J. W. Ochterski, R. L. Martin, K. Morokuma, O. Farkas, 
 J. B. Foresman, and D. J. Fox, Gaussian, Inc., Wallingford CT, 2016.
 
 ******************************************
 Gaussian 16:  ES64L-G16RevA.03 25-Dec-2016
                10-Sep-2021 
 ******************************************
 %nproc=24
 Will use up to   24 processors via shared memory.
 %mem=175gb
 -----------------------------------
 #p cam-b3lyp/Def2SVP td=(nstates=5)
 -----------------------------------
 1/38=1,172=1/1;
 2/12=2,17=6,18=5,40=1/2;
 3/5=43,7=101,11=9,25=1,30=1,74=-40/1,2,3,8;
 4//1;
 5/5=2,38=5/2;
 8/6=1,10=1,108=5/1;
 9/41=5,42=1,70=2/14;
 6/7=2,8=2,9=2,10=2/1;
 99/5=1,9=1/99;
 Leave Link    1 at Fri Sep 10 14:56:19 2021, MaxMem= 23488102400 cpu:               0.9 elap:               0.0
 (Enter /sw/apps/gaussian-16.0/g16/l101.exe)
 --------------------------------
 TDDFT excited states in gaussian
 --------------------------------
 Symbolic Z-matrix:
 Charge =  0 Multiplicity = 1
 Mg                    0.        0.        0. 
 C                    -0.217    -2.218     2.801 
 C                    -1.255     2.442     2.026 
 C                    -0.245     1.85     -2.564 
 C                     0.146    -2.824    -2.037 
 N                    -0.617    -0.009     2.126 
 C                    -0.594    -0.908     3.105 
 C                    -0.936    -0.309     4.502 
 C                    -1.773     0.964     4.032 
 C                    -1.155     1.168     2.66 
 C                    -3.263     0.685     3.863 
 C                     0.345     0.11      5.299 
 C                     0.124     0.397     6.787 
 H                     1.168     0.033     7.733 
 N                    -0.185     1.961    -0.152 
 C                    -0.703     2.8       0.777 
 C                    -0.62      4.156     0.193 
 C                    -0.187     4.015    -1.225 
 C                    -0.214     2.583    -1.38 
 C                    -0.887     5.406     0.974 
 C                     0.181     5.013    -2.277 
 O                     0.303     4.69     -3.508 
 C                     0.31      6.414    -1.837 
 N                    -0.265    -0.413    -2.029 
 C                    -0.279     0.569    -2.937 
 C                    -0.196     0.024    -4.332 
 C                     0.124    -1.533    -4.18 
 C                     0.086    -1.632    -2.635 
 C                    -1.451     0.205    -5.197 
 C                     1.373    -2.07     -4.923 
 C                     2.626    -1.49     -4.306 
 N                     0.15     -2.144     0.303 
 C                     0.173    -3.136    -0.688 
 C                     0.173    -4.438     0.004 
 C                     0.133    -4.111     1.358 
 C                     0.083    -2.695     1.502 
 C                     0.149    -5.715    -0.623 
 C                     0.096    -4.629     2.716 
 O                     0.208    -5.747     3.221 
 C                    -0.255    -3.428     3.701 
 C                     0.717    -3.482     4.848 
 O                     1.931    -3.255     4.669 
 O                     0.038    -3.556     6.003 
 C                     0.943    -3.583     7.183 
 H                    -1.859     3.22      2.497 
 H                    -0.218     2.453    -3.474 
 H                     0.276    -3.747    -2.605 
 H                    -1.554    -0.949     5.132 
 H                    -1.585     1.831     4.665 
 H                    -3.484    -0.377     3.969 
 H                    -3.511     1.027     2.858 
 H                    -3.852     1.301     4.543 
 H                     0.669     1.096     4.966 
 H                     1.13     -0.639     5.189 
 H                    -0.844     0.026     7.125 
 H                     0.062     1.477     6.921 
 H                    -1.344     5.186     1.938 
 H                    -1.651     5.963     0.432 
 H                     0.007     6.02      1.084 
 H                    -0.635     6.744    -1.405 
 H                     0.665     6.97     -2.704 
 H                     1.048     6.466    -1.036 
 H                     0.608     0.501    -4.891 
 H                    -0.692    -2.156    -4.547 
 H                    -1.267     0.74     -6.129 
 H                    -2.204     0.714    -4.596 
 H                    -1.967    -0.72     -5.453 
 H                     1.356    -1.759    -5.967 
 H                     1.452    -3.157    -4.902 
 H                     2.714    -0.522    -4.798 
 H                     3.487    -2.121    -4.529 
 H                     2.495    -1.303    -3.24 
 H                     0.867    -6.333    -0.084 
 H                     0.404    -5.642    -1.68 
 H                    -0.891    -5.999    -0.463 
 H                    -1.283    -3.581     4.028 
 H                     0.698    -4.478     7.755 
 H                     0.833    -2.619     7.68 
 H                     2.       -3.754     6.976 
 Mg                    10.51858   0.94753   0.7913 
 C                     10.06761   4.3965   -0.09205 
 C                     9.95262   0.18905  -2.48574 
 C                     10.46304  -2.11662   1.61307 
 C                     9.91594   1.86021   4.10031 
 N                     10.07894   2.21606  -0.96648 
 C                     9.9929    3.5182   -1.19316 
 C                     9.8973    3.90495  -2.69345 
 C                     9.29943   2.5262   -3.25956 
 C                     9.83575   1.5717   -2.19468 
 C                     7.78108   2.47118  -3.22922 
 C                     11.30062   4.2225   -3.31945 
 C                     11.2546   4.90345  -4.6891 
 H                     12.27874   5.89417  -5.0086 
 N                     10.73348  -0.68379  -0.31829 
 C                     10.47974  -0.80967  -1.63777 
 C                     10.777   -2.21095  -1.97275 
 C                     11.06905  -2.94318  -0.7105 
 C                     10.73895  -1.92553   0.267 
 C                     10.84323  -2.71338  -3.38576 
 C                     11.55174  -4.33391  -0.42931 
 O                     11.50837  -4.83635   0.74903 
 C                     11.98966  -5.12307  -1.5899 
 N                     10.02392  -0.02958   2.55847 
 C                     10.13637  -1.36524   2.66475 
 C                     9.99271  -1.81226   4.1 
 C                     10.00155  -0.47086   4.97071 
 C                     10.06174   0.57005   3.83128 
 C                     8.73564  -2.6198    4.42258 
 C                     11.05153  -0.37934   6.11168 
 C                     12.44406  -0.31045   5.52729 
 N                     10.25423   2.80071   1.87015 
 C                     9.987     2.95483   3.24816 
 C                     9.77408   4.39626   3.4918 
 C                     9.91054   4.98273   2.22455 
 C                     10.16887   3.97543   1.25598 
 C                     9.4492    4.98913   4.74443 
 C                     9.88427   6.22369   1.48426 
 O                     9.79653   7.41331   1.78566 
 C                     9.85939   5.88536  -0.06857 
 C                     10.88765   6.74742  -0.74832 
 O                     12.098    6.5992   -0.50399 
 O                     10.29378   7.45093  -1.72953 
 C                     11.27527   8.31301  -2.44038 
 H                     9.56584  -0.17521  -3.4379 
 H                     10.54081  -3.14664   1.96873 
 H                     9.8202    2.2365    5.12105 
 H                     9.21853   4.72118  -2.90978 
 H                     9.71743   2.28474  -4.23339 
 H                     7.3571    3.32425  -2.72063 
 H                     7.53022   1.55671  -2.70781 
 H                     7.38765   2.35747  -4.24343 
 H                     11.7915   3.28011  -3.59455 
 H                     11.89518   4.8074   -2.64489 
 H                     10.25642   5.29372  -4.92206 
 H                     11.43333   4.1482   -5.4583 
 H                     10.42053  -1.98728  -4.09109 
 H                     10.17216  -3.57674  -3.44992 
 H                     11.84903  -3.02527  -3.67519 
 H                     11.17017  -5.20662  -2.29977 
 H                     12.38242  -6.05485  -1.17831 
 H                     12.79321  -4.57963  -2.0994 
 H                     10.83063  -2.43035   4.39825 
 H                     9.04376  -0.3149    5.48854 
 H                     8.95459  -3.611     4.86266 
 H                     8.15612  -2.72624   3.51519 
 H                     8.03028  -2.12893   5.09095 
 H                     11.01856  -1.27988   6.72982 
 H                     10.90056   0.46923   6.77056 
 H                     12.68526  -1.36104   5.33981 
 H                     13.13701   0.13255   6.23976 
 H                     12.43973   0.20454   4.5596 
 H                     10.05821   5.87872   4.83513 
 H                     9.62525   4.3002    5.56794 
 H                     8.38442   5.18775   4.5959 
 H                     8.85101   6.08745  -0.43177 
 H                     10.89369   9.33763  -2.39306 
 H                     11.39343   7.86541  -3.44509 
 H                     12.25506   8.43133  -1.99266 
 
 ITRead=  0  0  0  0  0  0  0  0  0  0  0  0  0  0  0  0  0  0  0  0
 ITRead=  0  0  0  0  0  0  0  0  0  0  0  0  0  0  0  0  0  0  0  0
 ITRead=  0  0  0  0  0  0  0  0  0  0  0  0  0  0  0  0  0  0  0  0
 ITRead=  0  0  0  0  0  0  0  0  0  0  0  0  0  0  0  0  0  0  0  0
 ITRead=  0  0  0  0  0  0  0  0  0  0  0  0  0  0  0  0  0  0  0  0
 ITRead=  0  0  0  0  0  0  0  0  0  0  0  0  0  0  0  0  0  0  0  0
 ITRead=  0  0  0  0  0  0  0  0  0  0  0  0  0  0  0  0  0  0  0  0
 ITRead=  0  0  0  0  0  0  0  0  0  0  0  0  0  0  0  0  0  0
 MicOpt= -1 -1 -1 -1 -1 -1 -1 -1 -1 -1 -1 -1 -1 -1 -1 -1 -1 -1 -1 -1
 MicOpt= -1 -1 -1 -1 -1 -1 -1 -1 -1 -1 -1 -1 -1 -1 -1 -1 -1 -1 -1 -1
 MicOpt= -1 -1 -1 -1 -1 -1 -1 -1 -1 -1 -1 -1 -1 -1 -1 -1 -1 -1 -1 -1
 MicOpt= -1 -1 -1 -1 -1 -1 -1 -1 -1 -1 -1 -1 -1 -1 -1 -1 -1 -1 -1 -1
 MicOpt= -1 -1 -1 -1 -1 -1 -1 -1 -1 -1 -1 -1 -1 -1 -1 -1 -1 -1 -1 -1
 MicOpt= -1 -1 -1 -1 -1 -1 -1 -1 -1 -1 -1 -1 -1 -1 -1 -1 -1 -1 -1 -1
 MicOpt= -1 -1 -1 -1 -1 -1 -1 -1 -1 -1 -1 -1 -1 -1 -1 -1 -1 -1 -1 -1
 MicOpt= -1 -1 -1 -1 -1 -1 -1 -1 -1 -1 -1 -1 -1 -1 -1 -1 -1 -1
 NAtoms=    158 NQM=      158 NQMF=       0 NMMI=      0 NMMIF=      0
                NMic=       0 NMicF=      0.
                    Isotopes and Nuclear Properties:
 (Nuclear quadrupole moments (NQMom) in fm**2, nuclear magnetic moments (NMagM)
  in nuclear magnetons)

  Atom         1           2           3           4           5           6           7           8           9          10
 IAtWgt=          24          12          12          12          12          14          12          12          12          12
 AtmWgt=  23.9850450  12.0000000  12.0000000  12.0000000  12.0000000  14.0030740  12.0000000  12.0000000  12.0000000  12.0000000
 NucSpn=           0           0           0           0           0           2           0           0           0           0
 AtZEff=  -0.0000000  -0.0000000  -0.0000000  -0.0000000  -0.0000000  -0.0000000  -0.0000000  -0.0000000  -0.0000000  -0.0000000
 NQMom=    0.0000000   0.0000000   0.0000000   0.0000000   0.0000000   2.0440000   0.0000000   0.0000000   0.0000000   0.0000000
 NMagM=    0.0000000   0.0000000   0.0000000   0.0000000   0.0000000   0.4037610   0.0000000   0.0000000   0.0000000   0.0000000
 AtZNuc=  12.0000000   6.0000000   6.0000000   6.0000000   6.0000000   7.0000000   6.0000000   6.0000000   6.0000000   6.0000000

  Atom        11          12          13          14          15          16          17          18          19          20
 IAtWgt=          12          12          12           1          14          12          12          12          12          12
 AtmWgt=  12.0000000  12.0000000  12.0000000   1.0078250  14.0030740  12.0000000  12.0000000  12.0000000  12.0000000  12.0000000
 NucSpn=           0           0           0           1           2           0           0           0           0           0
 AtZEff=  -0.0000000  -0.0000000  -0.0000000  -0.0000000  -0.0000000  -0.0000000  -0.0000000  -0.0000000  -0.0000000  -0.0000000
 NQMom=    0.0000000   0.0000000   0.0000000   0.0000000   2.0440000   0.0000000   0.0000000   0.0000000   0.0000000   0.0000000
 NMagM=    0.0000000   0.0000000   0.0000000   2.7928460   0.4037610   0.0000000   0.0000000   0.0000000   0.0000000   0.0000000
 AtZNuc=   6.0000000   6.0000000   6.0000000   1.0000000   7.0000000   6.0000000   6.0000000   6.0000000   6.0000000   6.0000000

  Atom        21          22          23          24          25          26          27          28          29          30
 IAtWgt=          12          16          12          14          12          12          12          12          12          12
 AtmWgt=  12.0000000  15.9949146  12.0000000  14.0030740  12.0000000  12.0000000  12.0000000  12.0000000  12.0000000  12.0000000
 NucSpn=           0           0           0           2           0           0           0           0           0           0
 AtZEff=  -0.0000000  -0.0000000  -0.0000000  -0.0000000  -0.0000000  -0.0000000  -0.0000000  -0.0000000  -0.0000000  -0.0000000
 NQMom=    0.0000000   0.0000000   0.0000000   2.0440000   0.0000000   0.0000000   0.0000000   0.0000000   0.0000000   0.0000000
 NMagM=    0.0000000   0.0000000   0.0000000   0.4037610   0.0000000   0.0000000   0.0000000   0.0000000   0.0000000   0.0000000
 AtZNuc=   6.0000000   8.0000000   6.0000000   7.0000000   6.0000000   6.0000000   6.0000000   6.0000000   6.0000000   6.0000000

  Atom        31          32          33          34          35          36          37          38          39          40
 IAtWgt=          12          14          12          12          12          12          12          12          16          12
 AtmWgt=  12.0000000  14.0030740  12.0000000  12.0000000  12.0000000  12.0000000  12.0000000  12.0000000  15.9949146  12.0000000
 NucSpn=           0           2           0           0           0           0           0           0           0           0
 AtZEff=  -0.0000000  -0.0000000  -0.0000000  -0.0000000  -0.0000000  -0.0000000  -0.0000000  -0.0000000  -0.0000000  -0.0000000
 NQMom=    0.0000000   2.0440000   0.0000000   0.0000000   0.0000000   0.0000000   0.0000000   0.0000000   0.0000000   0.0000000
 NMagM=    0.0000000   0.4037610   0.0000000   0.0000000   0.0000000   0.0000000   0.0000000   0.0000000   0.0000000   0.0000000
 AtZNuc=   6.0000000   7.0000000   6.0000000   6.0000000   6.0000000   6.0000000   6.0000000   6.0000000   8.0000000   6.0000000

  Atom        41          42          43          44          45          46          47          48          49          50
 IAtWgt=          12          16          16          12           1           1           1           1           1           1
 AtmWgt=  12.0000000  15.9949146  15.9949146  12.0000000   1.0078250   1.0078250   1.0078250   1.0078250   1.0078250   1.0078250
 NucSpn=           0           0           0           0           1           1           1           1           1           1
 AtZEff=  -0.0000000  -0.0000000  -0.0000000  -0.0000000  -0.0000000  -0.0000000  -0.0000000  -0.0000000  -0.0000000  -0.0000000
 NQMom=    0.0000000   0.0000000   0.0000000   0.0000000   0.0000000   0.0000000   0.0000000   0.0000000   0.0000000   0.0000000
 NMagM=    0.0000000   0.0000000   0.0000000   0.0000000   2.7928460   2.7928460   2.7928460   2.7928460   2.7928460   2.7928460
 AtZNuc=   6.0000000   8.0000000   8.0000000   6.0000000   1.0000000   1.0000000   1.0000000   1.0000000   1.0000000   1.0000000

  Atom        51          52          53          54          55          56          57          58          59          60
 IAtWgt=           1           1           1           1           1           1           1           1           1           1
 AtmWgt=   1.0078250   1.0078250   1.0078250   1.0078250   1.0078250   1.0078250   1.0078250   1.0078250   1.0078250   1.0078250
 NucSpn=           1           1           1           1           1           1           1           1           1           1
 AtZEff=  -0.0000000  -0.0000000  -0.0000000  -0.0000000  -0.0000000  -0.0000000  -0.0000000  -0.0000000  -0.0000000  -0.0000000
 NQMom=    0.0000000   0.0000000   0.0000000   0.0000000   0.0000000   0.0000000   0.0000000   0.0000000   0.0000000   0.0000000
 NMagM=    2.7928460   2.7928460   2.7928460   2.7928460   2.7928460   2.7928460   2.7928460   2.7928460   2.7928460   2.7928460
 AtZNuc=   1.0000000   1.0000000   1.0000000   1.0000000   1.0000000   1.0000000   1.0000000   1.0000000   1.0000000   1.0000000

  Atom        61          62          63          64          65          66          67          68          69          70
 IAtWgt=           1           1           1           1           1           1           1           1           1           1
 AtmWgt=   1.0078250   1.0078250   1.0078250   1.0078250   1.0078250   1.0078250   1.0078250   1.0078250   1.0078250   1.0078250
 NucSpn=           1           1           1           1           1           1           1           1           1           1
 AtZEff=  -0.0000000  -0.0000000  -0.0000000  -0.0000000  -0.0000000  -0.0000000  -0.0000000  -0.0000000  -0.0000000  -0.0000000
 NQMom=    0.0000000   0.0000000   0.0000000   0.0000000   0.0000000   0.0000000   0.0000000   0.0000000   0.0000000   0.0000000
 NMagM=    2.7928460   2.7928460   2.7928460   2.7928460   2.7928460   2.7928460   2.7928460   2.7928460   2.7928460   2.7928460
 AtZNuc=   1.0000000   1.0000000   1.0000000   1.0000000   1.0000000   1.0000000   1.0000000   1.0000000   1.0000000   1.0000000

  Atom        71          72          73          74          75          76          77          78          79          80
 IAtWgt=           1           1           1           1           1           1           1           1           1          24
 AtmWgt=   1.0078250   1.0078250   1.0078250   1.0078250   1.0078250   1.0078250   1.0078250   1.0078250   1.0078250  23.9850450
 NucSpn=           1           1           1           1           1           1           1           1           1           0
 AtZEff=  -0.0000000  -0.0000000  -0.0000000  -0.0000000  -0.0000000  -0.0000000  -0.0000000  -0.0000000  -0.0000000  -0.0000000
 NQMom=    0.0000000   0.0000000   0.0000000   0.0000000   0.0000000   0.0000000   0.0000000   0.0000000   0.0000000   0.0000000
 NMagM=    2.7928460   2.7928460   2.7928460   2.7928460   2.7928460   2.7928460   2.7928460   2.7928460   2.7928460   0.0000000
 AtZNuc=   1.0000000   1.0000000   1.0000000   1.0000000   1.0000000   1.0000000   1.0000000   1.0000000   1.0000000  12.0000000

  Atom        81          82          83          84          85          86          87          88          89          90
 IAtWgt=          12          12          12          12          14          12          12          12          12          12
 AtmWgt=  12.0000000  12.0000000  12.0000000  12.0000000  14.0030740  12.0000000  12.0000000  12.0000000  12.0000000  12.0000000
 NucSpn=           0           0           0           0           2           0           0           0           0           0
 AtZEff=  -0.0000000  -0.0000000  -0.0000000  -0.0000000  -0.0000000  -0.0000000  -0.0000000  -0.0000000  -0.0000000  -0.0000000
 NQMom=    0.0000000   0.0000000   0.0000000   0.0000000   2.0440000   0.0000000   0.0000000   0.0000000   0.0000000   0.0000000
 NMagM=    0.0000000   0.0000000   0.0000000   0.0000000   0.4037610   0.0000000   0.0000000   0.0000000   0.0000000   0.0000000
 AtZNuc=   6.0000000   6.0000000   6.0000000   6.0000000   7.0000000   6.0000000   6.0000000   6.0000000   6.0000000   6.0000000

  Atom        91          92          93          94          95          96          97          98          99         100
 IAtWgt=          12          12           1          14          12          12          12          12          12          12
 AtmWgt=  12.0000000  12.0000000   1.0078250  14.0030740  12.0000000  12.0000000  12.0000000  12.0000000  12.0000000  12.0000000
 NucSpn=           0           0           1           2           0           0           0           0           0           0
 AtZEff=  -0.0000000  -0.0000000  -0.0000000  -0.0000000  -0.0000000  -0.0000000  -0.0000000  -0.0000000  -0.0000000  -0.0000000
 NQMom=    0.0000000   0.0000000   0.0000000   2.0440000   0.0000000   0.0000000   0.0000000   0.0000000   0.0000000   0.0000000
 NMagM=    0.0000000   0.0000000   2.7928460   0.4037610   0.0000000   0.0000000   0.0000000   0.0000000   0.0000000   0.0000000
 AtZNuc=   6.0000000   6.0000000   1.0000000   7.0000000   6.0000000   6.0000000   6.0000000   6.0000000   6.0000000   6.0000000

  Atom       101         102         103         104         105         106         107         108         109         110
 IAtWgt=          16          12          14          12          12          12          12          12          12          12
 AtmWgt=  15.9949146  12.0000000  14.0030740  12.0000000  12.0000000  12.0000000  12.0000000  12.0000000  12.0000000  12.0000000
 NucSpn=           0           0           2           0           0           0           0           0           0           0
 AtZEff=  -0.0000000  -0.0000000  -0.0000000  -0.0000000  -0.0000000  -0.0000000  -0.0000000  -0.0000000  -0.0000000  -0.0000000
 NQMom=    0.0000000   0.0000000   2.0440000   0.0000000   0.0000000   0.0000000   0.0000000   0.0000000   0.0000000   0.0000000
 NMagM=    0.0000000   0.0000000   0.4037610   0.0000000   0.0000000   0.0000000   0.0000000   0.0000000   0.0000000   0.0000000
 AtZNuc=   8.0000000   6.0000000   7.0000000   6.0000000   6.0000000   6.0000000   6.0000000   6.0000000   6.0000000   6.0000000

  Atom       111         112         113         114         115         116         117         118         119         120
 IAtWgt=          14          12          12          12          12          12          12          16          12          12
 AtmWgt=  14.0030740  12.0000000  12.0000000  12.0000000  12.0000000  12.0000000  12.0000000  15.9949146  12.0000000  12.0000000
 NucSpn=           2           0           0           0           0           0           0           0           0           0
 AtZEff=  -0.0000000  -0.0000000  -0.0000000  -0.0000000  -0.0000000  -0.0000000  -0.0000000  -0.0000000  -0.0000000  -0.0000000
 NQMom=    2.0440000   0.0000000   0.0000000   0.0000000   0.0000000   0.0000000   0.0000000   0.0000000   0.0000000   0.0000000
 NMagM=    0.4037610   0.0000000   0.0000000   0.0000000   0.0000000   0.0000000   0.0000000   0.0000000   0.0000000   0.0000000
 AtZNuc=   7.0000000   6.0000000   6.0000000   6.0000000   6.0000000   6.0000000   6.0000000   8.0000000   6.0000000   6.0000000

  Atom       121         122         123         124         125         126         127         128         129         130
 IAtWgt=          16          16          12           1           1           1           1           1           1           1
 AtmWgt=  15.9949146  15.9949146  12.0000000   1.0078250   1.0078250   1.0078250   1.0078250   1.0078250   1.0078250   1.0078250
 NucSpn=           0           0           0           1           1           1           1           1           1           1
 AtZEff=  -0.0000000  -0.0000000  -0.0000000  -0.0000000  -0.0000000  -0.0000000  -0.0000000  -0.0000000  -0.0000000  -0.0000000
 NQMom=    0.0000000   0.0000000   0.0000000   0.0000000   0.0000000   0.0000000   0.0000000   0.0000000   0.0000000   0.0000000
 NMagM=    0.0000000   0.0000000   0.0000000   2.7928460   2.7928460   2.7928460   2.7928460   2.7928460   2.7928460   2.7928460
 AtZNuc=   8.0000000   8.0000000   6.0000000   1.0000000   1.0000000   1.0000000   1.0000000   1.0000000   1.0000000   1.0000000

  Atom       131         132         133         134         135         136         137         138         139         140
 IAtWgt=           1           1           1           1           1           1           1           1           1           1
 AtmWgt=   1.0078250   1.0078250   1.0078250   1.0078250   1.0078250   1.0078250   1.0078250   1.0078250   1.0078250   1.0078250
 NucSpn=           1           1           1           1           1           1           1           1           1           1
 AtZEff=  -0.0000000  -0.0000000  -0.0000000  -0.0000000  -0.0000000  -0.0000000  -0.0000000  -0.0000000  -0.0000000  -0.0000000
 NQMom=    0.0000000   0.0000000   0.0000000   0.0000000   0.0000000   0.0000000   0.0000000   0.0000000   0.0000000   0.0000000
 NMagM=    2.7928460   2.7928460   2.7928460   2.7928460   2.7928460   2.7928460   2.7928460   2.7928460   2.7928460   2.7928460
 AtZNuc=   1.0000000   1.0000000   1.0000000   1.0000000   1.0000000   1.0000000   1.0000000   1.0000000   1.0000000   1.0000000

  Atom       141         142         143         144         145         146         147         148         149         150
 IAtWgt=           1           1           1           1           1           1           1           1           1           1
 AtmWgt=   1.0078250   1.0078250   1.0078250   1.0078250   1.0078250   1.0078250   1.0078250   1.0078250   1.0078250   1.0078250
 NucSpn=           1           1           1           1           1           1           1           1           1           1
 AtZEff=  -0.0000000  -0.0000000  -0.0000000  -0.0000000  -0.0000000  -0.0000000  -0.0000000  -0.0000000  -0.0000000  -0.0000000
 NQMom=    0.0000000   0.0000000   0.0000000   0.0000000   0.0000000   0.0000000   0.0000000   0.0000000   0.0000000   0.0000000
 NMagM=    2.7928460   2.7928460   2.7928460   2.7928460   2.7928460   2.7928460   2.7928460   2.7928460   2.7928460   2.7928460
 AtZNuc=   1.0000000   1.0000000   1.0000000   1.0000000   1.0000000   1.0000000   1.0000000   1.0000000   1.0000000   1.0000000

  Atom       151         152         153         154         155         156         157         158
 IAtWgt=           1           1           1           1           1           1           1           1
 AtmWgt=   1.0078250   1.0078250   1.0078250   1.0078250   1.0078250   1.0078250   1.0078250   1.0078250
 NucSpn=           1           1           1           1           1           1           1           1
 AtZEff=  -0.0000000  -0.0000000  -0.0000000  -0.0000000  -0.0000000  -0.0000000  -0.0000000  -0.0000000
 NQMom=    0.0000000   0.0000000   0.0000000   0.0000000   0.0000000   0.0000000   0.0000000   0.0000000
 NMagM=    2.7928460   2.7928460   2.7928460   2.7928460   2.7928460   2.7928460   2.7928460   2.7928460
 AtZNuc=   1.0000000   1.0000000   1.0000000   1.0000000   1.0000000   1.0000000   1.0000000   1.0000000
 Leave Link  101 at Fri Sep 10 14:56:19 2021, MaxMem= 23488102400 cpu:               6.4 elap:               0.3
 (Enter /sw/apps/gaussian-16.0/g16/l202.exe)
 Stoichiometry    C68H72Mg2N8O8
 Framework group  C1[X(C68H72Mg2N8O8)]
 Deg. of freedom   468
 Full point group                 C1      NOp   1
 Largest Abelian subgroup         C1      NOp   1
 Largest concise Abelian subgroup C1      NOp   1
                         Standard orientation:                         
 ---------------------------------------------------------------------
 Center     Atomic      Atomic             Coordinates (Angstroms)
 Number     Number       Type             X           Y           Z
 ---------------------------------------------------------------------
      1         12           0        5.070203    1.180927    0.325096
      2          6           0        6.078354   -2.116231   -0.636463
      3          6           0        5.781992    2.167308   -2.862924
      4          6           0        4.621616    4.175507    1.267370
      5          6           0        5.524895    0.194586    3.636598
      6          7           0        5.826166    0.072930   -1.436014
      7          6           0        6.116337   -1.199386   -1.689362
      8          6           0        6.391711   -1.481974   -3.196574
      9          6           0        6.823249   -0.016466   -3.652709
     10          6           0        6.071537    0.793352   -2.611052
     11          6           0        8.316727    0.253789   -3.501086
     12          6           0        5.109419   -1.963739   -3.955099
     13          6           0        5.358080   -2.569540   -5.339485
     14          1           0        4.522469   -3.676399   -5.779900
     15          7           0        4.716587    2.815581   -0.726432
     16          6           0        5.062174    3.038774   -2.017184
     17          6           0        4.578752    4.398650   -2.339247
     18          6           0        4.092878    5.019919   -1.075900
     19          6           0        4.486835    4.025524   -0.110834
     20          6           0        4.562915    4.958761   -3.728410
     21          6           0        3.395099    6.310535   -0.783416
     22          8           0        3.270547    6.762022    0.406214
     23          6           0        2.932828    7.086162   -1.948642
     24          7           0        5.281277    2.136068    2.169218
     25          6           0        4.965807    3.427360    2.317634
     26          6           0        4.925228    3.816579    3.765667
     27          6           0        5.041953    2.455627    4.592672
     28          6           0        5.221360    1.474328    3.408132
     29          6           0        6.018301    4.789991    4.227915
     30          6           0        3.927659    2.164813    5.629105
     31          6           0        2.616003    1.919813    4.917324
     32          7           0        5.517386   -0.673905    1.359828
     33          6           0        5.683504   -0.849889    2.741171
     34          6           0        6.080976   -2.253877    2.953071
     35          6           0        6.134931   -2.796277    1.670599
     36          6           0        5.818401   -1.787780    0.716117
     37          6           0        6.395320   -2.851032    4.205679
     38          6           0        6.410361   -3.986889    0.882920
     39          8           0        6.637269   -5.168402    1.147559
     40          6           0        6.503661   -3.563467   -0.649345
     41          6           0        5.670234   -4.534264   -1.440712
     42          8           0        4.429578   -4.567044   -1.310076
     43          8           0        6.429730   -5.100572   -2.390976
     44          6           0        5.656038   -6.053085   -3.231378
     45          1           0        6.191848    2.637435   -3.758994
     46          1           0        4.367078    5.168115    1.644699
     47          1           0        5.601795   -0.206884    4.648706
     48          1           0        7.203019   -2.184958   -3.386354
     49          1           0        6.460428    0.221975   -4.652323
     50          1           0        8.818760   -0.562926   -2.982569
     51          1           0        8.388566    1.174150   -2.921200
     52          1           0        8.770896    0.472546   -4.467860
     53          1           0        4.511393   -1.097016   -4.236553
     54          1           0        4.545140   -2.672177   -3.347620
     55          1           0        6.412455   -2.804156   -5.488347
     56          1           0        5.141424   -1.808533   -6.089238
     57          1           0        5.133310    4.337095   -4.417414
     58          1           0        5.108700    5.901572   -3.697816
     59          1           0        3.549059    5.132445   -4.089327
     60          1           0        3.786314    7.325074   -2.583489
     61          1           0        2.378710    7.933078   -1.545482
     62          1           0        2.270107    6.461474   -2.548236
     63          1           0        3.983709    4.305236    4.013018
     64          1           0        5.963818    2.407304    5.172761
     65          1           0        5.629217    5.703358    4.678560
     66          1           0        6.652522    5.016043    3.371204
     67          1           0        6.740249    4.368214    4.926709
     68          1           0        3.782726    3.025225    6.281510
     69          1           0        4.141531    1.302246    6.260364
     70          1           0        2.237601    2.927690    4.750507
     71          1           0        1.938851    1.348873    5.553487
     72          1           0        2.772813    1.464589    3.939230
     73          1           0        5.909701   -3.826805    4.208844
     74          1           0        6.051055   -2.234541    5.035753
     75          1           0        7.482399   -2.895246    4.141165
     76          1           0        7.557075   -3.609717   -0.923756
     77          1           0        6.172038   -7.012271   -3.187337
     78          1           0        5.543682   -5.583387   -4.208703
     79          1           0        4.669717   -6.332737   -2.859485
     80         12           0       -5.232247   -1.269103    0.178904
     81          6           0       -5.779955    2.003210   -1.188963
     82          6           0       -4.734482    0.239211    3.197482
     83          6           0       -4.304345   -4.080925    1.319106
     84          6           0       -4.645174   -2.378180   -3.072403
     85          7           0       -5.278696    0.853903    0.797719
     86          6           0       -5.558374    2.004393    0.203996
     87          6           0       -5.682283    3.213217    1.169903
     88          6           0       -4.784732    2.649856    2.376513
     89          6           0       -4.966789    1.152301    2.138051
     90          6           0       -3.308346    2.980266    2.233524
     91          6           0       -7.162674    3.465757    1.624530
     92          6           0       -7.402389    4.809013    2.317315
     93          1           0       -8.673654    5.491324    2.091912
     94          7           0       -5.090024   -1.912210    2.051005
     95          6           0       -4.912345   -1.161205    3.158109
     96          6           0       -4.851813   -2.108874    4.281684
     97          6           0       -4.843103   -3.490895    3.729714
     98          6           0       -4.721843   -3.208371    2.313536
     99          6           0       -4.888919   -1.672173    5.717419
    100          6           0       -4.917099   -4.843299    4.371364
    101          8           0       -4.653233   -5.913937    3.717972
    102          6           0       -5.216407   -4.870626    5.810525
    103          7           0       -4.364269   -2.934981   -0.712042
    104          6           0       -4.110179   -4.046508    0.000611
    105          6           0       -3.745211   -5.201285   -0.901441
    106          6           0       -4.043662   -4.695479   -2.388941
    107          6           0       -4.463537   -3.241157   -2.082237
    108          6           0       -2.298382   -5.685692   -0.809575
    109          6           0       -4.991088   -5.571663   -3.253424
    110          6           0       -6.392032   -5.530831   -2.686782
    111          7           0       -5.388085   -0.425699   -1.804139
    112          6           0       -5.068053   -1.055879   -3.026648
    113          6           0       -5.227198   -0.045121   -4.092227
    114          6           0       -5.609539    1.118414   -3.407762
    115          6           0       -5.663881    0.856953   -2.011982
    116          6           0       -4.977553   -0.251244   -5.478342
    117          6           0       -5.969219    2.511173   -3.547595
    118          8           0       -6.177564    3.263288   -4.498726
    119          6           0       -5.972814    3.179423   -2.105445
    120          6           0       -7.241119    3.975923   -1.965742
    121          8           0       -8.346817    3.406795   -1.953970
    122          8           0       -6.930874    5.247091   -1.652275
    123          6           0       -8.156574    6.074059   -1.492295
    124          1           0       -4.337983    0.624788    4.137169
    125          1           0       -4.079136   -5.097981    1.648288
    126          1           0       -4.575866   -2.671148   -4.122183
    127          1           0       -5.262577    4.139033    0.795107
    128          1           0       -5.196021    2.935098    3.341319
    129          1           0       -3.088601    3.439142    1.281003
    130          1           0       -2.785369    2.037701    2.329022
    131          1           0       -2.976573    3.595590    3.074739
    132          1           0       -7.405416    2.783139    2.449060
    133          1           0       -7.838361    3.359685    0.798191
    134          1           0       -6.563961    5.501632    2.174967
    135          1           0       -7.431998    4.642296    3.396826
    136          1           0       -4.728375   -0.591244    5.813359
    137          1           0       -4.019773   -2.120698    6.210626
    138          1           0       -5.794888   -1.997372    6.233310
    139          1           0       -4.460109   -4.303070    6.347510
    140          1           0       -5.315808   -5.926817    6.068328
    141          1           0       -6.171374   -4.360466    5.978999
    142          1           0       -4.364253   -6.065303   -0.693213
    143          1           0       -3.125254   -4.636999   -2.991386
    144          1           0       -2.212802   -6.759436   -0.556915
    145          1           0       -1.781595   -5.080268   -0.076824
    146          1           0       -1.700061   -5.525649   -1.704898
    147          1           0       -4.673949   -6.616935   -3.222029
    148          1           0       -5.021235   -5.275472   -4.296663
    149          1           0       -6.359466   -6.283772   -1.893633
    150          1           0       -7.121809   -5.792990   -3.450156
    151          1           0       -6.597473   -4.563170   -2.214465
    152          1           0       -5.791996    0.217536   -6.014457
    153          1           0       -4.901941   -1.310408   -5.715493
    154          1           0       -4.017916    0.262164   -5.582147
    155          1           0       -5.084516    3.808182   -2.033520
    156          1           0       -8.057895    6.926321   -2.171708
    157          1           0       -8.227315    6.297326   -0.411140
    158          1           0       -9.095969    5.647168   -1.823570
 ---------------------------------------------------------------------
 Rotational constants (GHZ):           0.0206178           0.0112978           0.0101264
 Leave Link  202 at Fri Sep 10 14:56:20 2021, MaxMem= 23488102400 cpu:               0.2 elap:               0.0
 (Enter /sw/apps/gaussian-16.0/g16/l301.exe)
 Standard basis: def2SVP (5D, 7F)
 Ernie: Thresh=  0.10000D-02 Tol=  0.10000D-05 Strict=F.
 There are  1658 symmetry adapted cartesian basis functions of A   symmetry.
 There are  1572 symmetry adapted basis functions of A   symmetry.
  1572 basis functions,  2678 primitive gaussians,  1658 cartesian basis functions
   312 alpha electrons      312 beta electrons
       nuclear repulsion energy     14928.2493509750 Hartrees.
 IExCor=20419 DFT=T Ex+Corr=CAM-B3LYP ExCW=0 ScaHFX=  1.000000
 ScaDFX=  1.000000  1.000000  1.000000  0.810000 ScalE2=  1.000000  1.000000
 IRadAn=      5 IRanWt=     -1 IRanGd=            0 ICorTp=0 IEmpDi=  4
 HFx  wShort=  0.000000 wLong=  0.330000 cFull=  0.190000 cShort=  0.000000 cLong=  0.460000
 DFx  wShort=  0.000000 wLong=  0.330000 cFull=  0.190000 cShort=  0.000000 cLong=  0.460000
 NAtoms=  158 NActive=  158 NUniq=  158 SFac= 1.00D+00 NAtFMM=   60 NAOKFM=T Big=T
 Integral buffers will be    131072 words long.
 Raffenetti 1 integral format.
 Two-electron integral symmetry is turned on.
 Leave Link  301 at Fri Sep 10 14:56:20 2021, MaxMem= 23488102400 cpu:               1.3 elap:               0.1
 (Enter /sw/apps/gaussian-16.0/g16/l302.exe)
 NPDir=0 NMtPBC=     1 NCelOv=     1 NCel=       1 NClECP=     1 NCelD=      1
         NCelK=      1 NCelE2=     1 NClLst=     1 CellRange=     0.0.
 One-electron integrals computed using PRISM.
 One-electron integral symmetry used in STVInt
   1 Symmetry operations used in ECPInt.
 ECPInt:  NShTT=  271216 NPrTT=  987664 LenC2=  137382 LenP2D=  286461.
 LDataN:  DoStor=T MaxTD1= 4 Len=   56
 NBasis=  1572 RedAO= T EigKep=  3.36D-04  NBF=  1572
 NBsUse=  1572 1.00D-06 EigRej= -1.00D+00 NBFU=  1572
 Precomputing XC quadrature grid using
 IXCGrd= 4 IRadAn=           5 IRanWt=          -1 IRanGd=           0 AccXCQ= 0.00D+00.
 Generated NRdTot=       0 NPtTot=           0 NUsed=           0 NTot=          32
 NSgBfM=  1121  1100  1104  1110  1121 MxSgAt=   158 MxSgA2=   155.
 Leave Link  302 at Fri Sep 10 14:56:25 2021, MaxMem= 23488102400 cpu:             120.3 elap:               5.0
 (Enter /sw/apps/gaussian-16.0/g16/l303.exe)
 DipDrv:  MaxL=1.
 Leave Link  303 at Fri Sep 10 14:56:25 2021, MaxMem= 23488102400 cpu:              10.6 elap:               0.5
 (Enter /sw/apps/gaussian-16.0/g16/l308.exe)
 Leave Link  308 at Fri Sep 10 14:56:26 2021, MaxMem= 23488102400 cpu:              14.3 elap:               0.7
 (Enter /sw/apps/gaussian-16.0/g16/l401.exe)
 ExpMin= 3.36D-02 ExpMax= 4.95D+03 ExpMxC= 7.45D+02 IAcc=3 IRadAn=         5 AccDes= 0.00D+00
 Harris functional with IExCor=20419 and IRadAn=       5 diagonalized for initial guess.
 HarFok:  IExCor=20419 AccDes= 0.00D+00 IRadAn=         5 IDoV= 1 UseB2=F ITyADJ=14
 ICtDFT=  3500011 ScaDFX=  1.000000  1.000000  1.000000  1.000000
 FoFCou: FMM=F IPFlag=           0 FMFlag=      100000 FMFlg1=        2001
         NFxFlg=           0 DoJE=T BraDBF=F KetDBF=T FulRan=T
         wScrn=  0.000000 ICntrl=       500 IOpCl=  0 I1Cent=   200000004 NGrid=           0
         NMat0=    1 NMatS0=      1 NMatT0=    0 NMatD0=    1 NMtDS0=    0 NMtDT0=    0
 Petite list used in FoFCou.
 Harris En= -3918.65801380074    
 JPrj=0 DoOrth=F DoCkMO=F.
 Leave Link  401 at Fri Sep 10 14:56:34 2021, MaxMem= 23488102400 cpu:             183.0 elap:               7.6
 (Enter /sw/apps/gaussian-16.0/g16/l502.exe)
 Integral symmetry usage will be decided dynamically.
 Closed shell SCF:
 Using DIIS extrapolation, IDIIS=  1040.
 NGot= 23488102400 LenX= 23482547354 LenY= 23479796732
 Requested convergence on RMS density matrix=1.00D-08 within 128 cycles.
 Requested convergence on MAX density matrix=1.00D-06.
 Requested convergence on             energy=1.00D-06.
 No special actions if energy rises.
 Fock matrices will be formed incrementally for  20 cycles.

 Cycle   1  Pass 1  IDiag  1:
 FoFJK:  IHMeth= 1 ICntrl=       0 DoSepK=T KAlg= 0 I1Cent=           0 FoldK=F
 IRaf=         1 NMat=       1 IRICut=       1 DoRegI=T DoRafI=F ISym2E= 0 IDoP0=0 IntGTp=1.
 FoFCou: FMM=T IPFlag=           0 FMFlag=      100000 FMFlg1=        2001
         NFxFlg=           0 DoJE=T BraDBF=F KetDBF=F FulRan=T
         wScrn=  0.000000 ICntrl=       500 IOpCl=  0 I1Cent=           0 NGrid=           0
         NMat0=    1 NMatS0=      1 NMatT0=    0 NMatD0=    1 NMtDS0=    0 NMtDT0=    0
 Symmetry not used in FoFCou.
 FMM levels:  10  Number of levels for PrismC:   9
 E= -4068.94969283904    
 DIIS: error= 2.04D-02 at cycle   1 NSaved=   1.
 NSaved= 1 IEnMin= 1 EnMin= -4068.94969283904     IErMin= 1 ErrMin= 2.04D-02
 ErrMax= 2.04D-02  0.00D+00 EMaxC= 1.00D-01 BMatC= 1.69D+00 BMatP= 1.69D+00
 IDIUse=3 WtCom= 7.96D-01 WtEn= 2.04D-01
 Coeff-Com:  0.100D+01
 Coeff-En:   0.100D+01
 Coeff:      0.100D+01
 Gap=     0.120 Goal=   None    Shift=    0.000
 GapD=    0.120 DampG=1.000 DampE=0.500 DampFc=0.5000 IDamp=-1.
 Damping current iteration by 5.00D-01
 RMSDP=1.57D-03 MaxDP=1.35D-01              OVMax= 2.02D-01

 Cycle   2  Pass 1  IDiag  1:
 RMSU=  7.69D-04    CP:  9.82D-01
 E= -4069.33864087673     Delta-E=       -0.388948037689 Rises=F Damp=T
 DIIS: error= 1.27D-02 at cycle   2 NSaved=   2.
 NSaved= 2 IEnMin= 2 EnMin= -4069.33864087673     IErMin= 2 ErrMin= 1.27D-02
 ErrMax= 1.27D-02  0.00D+00 EMaxC= 1.00D-01 BMatC= 3.07D-01 BMatP= 1.69D+00
 IDIUse=3 WtCom= 8.73D-01 WtEn= 1.27D-01
 Coeff-Com: -0.213D+00 0.121D+01
 Coeff-En:   0.000D+00 0.100D+01
 Coeff:     -0.186D+00 0.119D+01
 Gap=     0.135 Goal=   None    Shift=    0.000
 RMSDP=7.64D-04 MaxDP=9.42D-02 DE=-3.89D-01 OVMax= 1.89D-01

 Cycle   3  Pass 1  IDiag  1:
 RMSU=  7.31D-04    CP:  9.68D-01  1.24D+00
 E= -4069.62909864711     Delta-E=       -0.290457770381 Rises=F Damp=F
 DIIS: error= 1.57D-02 at cycle   3 NSaved=   3.
 NSaved= 3 IEnMin= 3 EnMin= -4069.62909864711     IErMin= 2 ErrMin= 1.27D-02
 ErrMax= 1.57D-02  0.00D+00 EMaxC= 1.00D-01 BMatC= 2.01D-01 BMatP= 3.07D-01
 IDIUse=3 WtCom= 8.43D-01 WtEn= 1.57D-01
 Coeff-Com: -0.267D+00 0.651D+00 0.616D+00
 Coeff-En:   0.000D+00 0.000D+00 0.100D+01
 Coeff:     -0.225D+00 0.549D+00 0.676D+00
 Gap=     0.122 Goal=   None    Shift=    0.000
 RMSDP=5.05D-04 MaxDP=4.90D-02 DE=-2.90D-01 OVMax= 1.42D-01

 Cycle   4  Pass 1  IDiag  1:
 RMSU=  2.64D-04    CP:  9.65D-01  1.55D+00  5.08D-01
 E= -4069.76609273380     Delta-E=       -0.136994086693 Rises=F Damp=F
 DIIS: error= 7.28D-03 at cycle   4 NSaved=   4.
 NSaved= 4 IEnMin= 4 EnMin= -4069.76609273380     IErMin= 4 ErrMin= 7.28D-03
 ErrMax= 7.28D-03  0.00D+00 EMaxC= 1.00D-01 BMatC= 4.98D-02 BMatP= 2.01D-01
 IDIUse=3 WtCom= 9.27D-01 WtEn= 7.28D-02
 Coeff-Com: -0.108D+00 0.225D+00 0.408D+00 0.476D+00
 Coeff-En:   0.000D+00 0.000D+00 0.218D+00 0.782D+00
 Coeff:     -0.100D+00 0.208D+00 0.394D+00 0.498D+00
 Gap=     0.121 Goal=   None    Shift=    0.000
 RMSDP=1.97D-04 MaxDP=2.08D-02 DE=-1.37D-01 OVMax= 6.07D-02

 Cycle   5  Pass 1  IDiag  1:
 RMSU=  7.47D-05    CP:  9.64D-01  1.49D+00  6.89D-01  5.55D-01
 E= -4069.81074847374     Delta-E=       -0.044655739934 Rises=F Damp=F
 DIIS: error= 8.22D-04 at cycle   5 NSaved=   5.
 NSaved= 5 IEnMin= 5 EnMin= -4069.81074847374     IErMin= 5 ErrMin= 8.22D-04
 ErrMax= 8.22D-04  0.00D+00 EMaxC= 1.00D-01 BMatC= 1.11D-03 BMatP= 4.98D-02
 IDIUse=3 WtCom= 9.92D-01 WtEn= 8.22D-03
 Coeff-Com: -0.350D-01 0.685D-01 0.162D+00 0.247D+00 0.558D+00
 Coeff-En:   0.000D+00 0.000D+00 0.000D+00 0.000D+00 0.100D+01
 Coeff:     -0.347D-01 0.680D-01 0.161D+00 0.245D+00 0.561D+00
 Gap=     0.120 Goal=   None    Shift=    0.000
 RMSDP=3.91D-05 MaxDP=4.25D-03 DE=-4.47D-02 OVMax= 1.64D-02

 Cycle   6  Pass 1  IDiag  1:
 RMSU=  2.94D-05    CP:  9.64D-01  1.49D+00  6.82D-01  6.23D-01  7.70D-01
 E= -4069.81168333916     Delta-E=       -0.000934865420 Rises=F Damp=F
 DIIS: error= 2.43D-04 at cycle   6 NSaved=   6.
 NSaved= 6 IEnMin= 6 EnMin= -4069.81168333916     IErMin= 6 ErrMin= 2.43D-04
 ErrMax= 2.43D-04  0.00D+00 EMaxC= 1.00D-01 BMatC= 1.68D-04 BMatP= 1.11D-03
 IDIUse=3 WtCom= 9.98D-01 WtEn= 2.43D-03
 Coeff-Com:  0.245D-02-0.702D-02 0.100D-01 0.386D-01 0.307D+00 0.648D+00
 Coeff-En:   0.000D+00 0.000D+00 0.000D+00 0.000D+00 0.980D-01 0.902D+00
 Coeff:      0.244D-02-0.701D-02 0.100D-01 0.385D-01 0.307D+00 0.649D+00
 Gap=     0.121 Goal=   None    Shift=    0.000
 RMSDP=1.52D-05 MaxDP=1.33D-03 DE=-9.35D-04 OVMax= 7.45D-03

 Cycle   7  Pass 1  IDiag  1:
 RMSU=  1.03D-05    CP:  9.64D-01  1.50D+00  6.88D-01  6.24D-01  8.67D-01
                    CP:  7.54D-01
 E= -4069.81186044315     Delta-E=       -0.000177103997 Rises=F Damp=F
 DIIS: error= 9.29D-05 at cycle   7 NSaved=   7.
 NSaved= 7 IEnMin= 7 EnMin= -4069.81186044315     IErMin= 7 ErrMin= 9.29D-05
 ErrMax= 9.29D-05  0.00D+00 EMaxC= 1.00D-01 BMatC= 1.89D-05 BMatP= 1.68D-04
 IDIUse=1 WtCom= 1.00D+00 WtEn= 0.00D+00
 Coeff-Com:  0.439D-02-0.958D-02-0.905D-02-0.428D-02 0.990D-01 0.324D+00
 Coeff-Com:  0.596D+00
 Coeff:      0.439D-02-0.958D-02-0.905D-02-0.428D-02 0.990D-01 0.324D+00
 Coeff:      0.596D+00
 Gap=     0.121 Goal=   None    Shift=    0.000
 RMSDP=6.30D-06 MaxDP=1.23D-03 DE=-1.77D-04 OVMax= 3.72D-03

 Cycle   8  Pass 1  IDiag  1:
 RMSU=  4.57D-06    CP:  9.64D-01  1.50D+00  6.88D-01  6.28D-01  8.73D-01
                    CP:  8.80D-01  8.35D-01
 E= -4069.81188378790     Delta-E=       -0.000023344743 Rises=F Damp=F
 DIIS: error= 5.00D-05 at cycle   8 NSaved=   8.
 NSaved= 8 IEnMin= 8 EnMin= -4069.81188378790     IErMin= 8 ErrMin= 5.00D-05
 ErrMax= 5.00D-05  0.00D+00 EMaxC= 1.00D-01 BMatC= 4.51D-06 BMatP= 1.89D-05
 IDIUse=1 WtCom= 1.00D+00 WtEn= 0.00D+00
 Coeff-Com:  0.210D-02-0.415D-02-0.765D-02-0.121D-01-0.134D-01 0.335D-01
 Coeff-Com:  0.349D+00 0.653D+00
 Coeff:      0.210D-02-0.415D-02-0.765D-02-0.121D-01-0.134D-01 0.335D-01
 Coeff:      0.349D+00 0.653D+00
 Gap=     0.121 Goal=   None    Shift=    0.000
 RMSDP=3.24D-06 MaxDP=4.52D-04 DE=-2.33D-05 OVMax= 1.26D-03

 Cycle   9  Pass 1  IDiag  1:
 RMSU=  1.91D-06    CP:  9.64D-01  1.50D+00  6.89D-01  6.30D-01  8.89D-01
                    CP:  9.05D-01  1.04D+00  9.20D-01
 E= -4069.81189102841     Delta-E=       -0.000007240513 Rises=F Damp=F
 DIIS: error= 2.15D-05 at cycle   9 NSaved=   9.
 NSaved= 9 IEnMin= 9 EnMin= -4069.81189102841     IErMin= 9 ErrMin= 2.15D-05
 ErrMax= 2.15D-05  0.00D+00 EMaxC= 1.00D-01 BMatC= 6.75D-07 BMatP= 4.51D-06
 IDIUse=1 WtCom= 1.00D+00 WtEn= 0.00D+00
 Coeff-Com:  0.465D-03-0.773D-03-0.266D-02-0.599D-02-0.220D-01-0.365D-01
 Coeff-Com:  0.107D+00 0.334D+00 0.627D+00
 Coeff:      0.465D-03-0.773D-03-0.266D-02-0.599D-02-0.220D-01-0.365D-01
 Coeff:      0.107D+00 0.334D+00 0.627D+00
 Gap=     0.121 Goal=   None    Shift=    0.000
 RMSDP=1.38D-06 MaxDP=1.71D-04 DE=-7.24D-06 OVMax= 8.02D-04

 Cycle  10  Pass 1  IDiag  1:
 RMSU=  9.28D-07    CP:  9.64D-01  1.50D+00  6.89D-01  6.30D-01  8.92D-01
                    CP:  9.19D-01  1.08D+00  1.09D+00  1.03D+00
 E= -4069.81189254908     Delta-E=       -0.000001520672 Rises=F Damp=F
 DIIS: error= 1.09D-05 at cycle  10 NSaved=  10.
 NSaved=10 IEnMin=10 EnMin= -4069.81189254908     IErMin=10 ErrMin= 1.09D-05
 ErrMax= 1.09D-05  0.00D+00 EMaxC= 1.00D-01 BMatC= 1.58D-07 BMatP= 6.75D-07
 IDIUse=1 WtCom= 1.00D+00 WtEn= 0.00D+00
 Coeff-Com: -0.417D-03 0.875D-03 0.120D-02 0.109D-02-0.413D-02-0.303D-01
 Coeff-Com: -0.492D-01-0.676D-01 0.257D+00 0.892D+00
 Coeff:     -0.417D-03 0.875D-03 0.120D-02 0.109D-02-0.413D-02-0.303D-01
 Coeff:     -0.492D-01-0.676D-01 0.257D+00 0.892D+00
 Gap=     0.121 Goal=   None    Shift=    0.000
 RMSDP=1.20D-06 MaxDP=1.53D-04 DE=-1.52D-06 OVMax= 6.21D-04

 Cycle  11  Pass 1  IDiag  1:
 RMSU=  5.20D-07    CP:  9.64D-01  1.50D+00  6.89D-01  6.31D-01  8.95D-01
                    CP:  9.30D-01  1.13D+00  1.20D+00  1.37D+00  1.34D+00
 E= -4069.81189329402     Delta-E=       -0.000000744942 Rises=F Damp=F
 DIIS: error= 4.18D-06 at cycle  11 NSaved=  11.
 NSaved=11 IEnMin=11 EnMin= -4069.81189329402     IErMin=11 ErrMin= 4.18D-06
 ErrMax= 4.18D-06  0.00D+00 EMaxC= 1.00D-01 BMatC= 5.86D-08 BMatP= 1.58D-07
 IDIUse=1 WtCom= 1.00D+00 WtEn= 0.00D+00
 Coeff-Com: -0.330D-03 0.644D-03 0.133D-02 0.212D-02 0.414D-02-0.879D-02
 Coeff-Com: -0.475D-01-0.128D+00-0.186D-01 0.480D+00 0.715D+00
 Coeff:     -0.330D-03 0.644D-03 0.133D-02 0.212D-02 0.414D-02-0.879D-02
 Coeff:     -0.475D-01-0.128D+00-0.186D-01 0.480D+00 0.715D+00
 Gap=     0.121 Goal=   None    Shift=    0.000
 RMSDP=6.57D-07 MaxDP=5.57D-05 DE=-7.45D-07 OVMax= 3.37D-04

 Cycle  12  Pass 1  IDiag  1:
 RMSU=  2.64D-07    CP:  9.64D-01  1.50D+00  6.89D-01  6.31D-01  8.96D-01
                    CP:  9.32D-01  1.15D+00  1.26D+00  1.52D+00  1.72D+00
                    CP:  1.17D+00
 E= -4069.81189354119     Delta-E=       -0.000000247172 Rises=F Damp=F
 DIIS: error= 3.37D-06 at cycle  12 NSaved=  12.
 NSaved=12 IEnMin=12 EnMin= -4069.81189354119     IErMin=12 ErrMin= 3.37D-06
 ErrMax= 3.37D-06  0.00D+00 EMaxC= 1.00D-01 BMatC= 1.28D-08 BMatP= 5.86D-08
 IDIUse=1 WtCom= 1.00D+00 WtEn= 0.00D+00
 Coeff-Com: -0.113D-04 0.588D-05 0.218D-03 0.577D-03 0.331D-02 0.388D-02
 Coeff-Com:  0.402D-04-0.375D-01-0.711D-01-0.479D-01 0.250D+00 0.899D+00
 Coeff:     -0.113D-04 0.588D-05 0.218D-03 0.577D-03 0.331D-02 0.388D-02
 Coeff:      0.402D-04-0.375D-01-0.711D-01-0.479D-01 0.250D+00 0.899D+00
 Gap=     0.121 Goal=   None    Shift=    0.000
 RMSDP=4.30D-07 MaxDP=2.84D-05 DE=-2.47D-07 OVMax= 2.94D-04

 Cycle  13  Pass 1  IDiag  1:
 RMSU=  1.72D-07    CP:  9.64D-01  1.50D+00  6.89D-01  6.31D-01  8.96D-01
                    CP:  9.32D-01  1.16D+00  1.29D+00  1.63D+00  1.94D+00
                    CP:  1.58D+00  1.22D+00
 E= -4069.81189362734     Delta-E=       -0.000000086147 Rises=F Damp=F
 DIIS: error= 2.33D-06 at cycle  13 NSaved=  13.
 NSaved=13 IEnMin=13 EnMin= -4069.81189362734     IErMin=13 ErrMin= 2.33D-06
 ErrMax= 2.33D-06  0.00D+00 EMaxC= 1.00D-01 BMatC= 9.17D-09 BMatP= 1.28D-08
 IDIUse=1 WtCom= 1.00D+00 WtEn= 0.00D+00
 Coeff-Com:  0.116D-03-0.238D-03-0.348D-03-0.413D-03 0.695D-03 0.533D-02
 Coeff-Com:  0.196D-01 0.206D-01-0.410D-01-0.230D+00-0.156D+00 0.647D+00
 Coeff-Com:  0.735D+00
 Coeff:      0.116D-03-0.238D-03-0.348D-03-0.413D-03 0.695D-03 0.533D-02
 Coeff:      0.196D-01 0.206D-01-0.410D-01-0.230D+00-0.156D+00 0.647D+00
 Coeff:      0.735D+00
 Gap=     0.121 Goal=   None    Shift=    0.000
 RMSDP=3.21D-07 MaxDP=2.03D-05 DE=-8.61D-08 OVMax= 1.67D-04

 Cycle  14  Pass 1  IDiag  1:
 RMSU=  8.17D-08    CP:  9.64D-01  1.50D+00  6.89D-01  6.31D-01  8.96D-01
                    CP:  9.33D-01  1.17D+00  1.31D+00  1.70D+00  2.12D+00
                    CP:  1.81D+00  1.74D+00  1.04D+00
 E= -4069.81189366426     Delta-E=       -0.000000036922 Rises=F Damp=F
 DIIS: error= 1.25D-06 at cycle  14 NSaved=  14.
 NSaved=14 IEnMin=14 EnMin= -4069.81189366426     IErMin=14 ErrMin= 1.25D-06
 ErrMax= 1.25D-06  0.00D+00 EMaxC= 1.00D-01 BMatC= 1.20D-09 BMatP= 9.17D-09
 IDIUse=1 WtCom= 1.00D+00 WtEn= 0.00D+00
 Coeff-Com:  0.707D-04-0.140D-03-0.259D-03-0.401D-03-0.472D-03 0.165D-02
 Coeff-Com:  0.118D-01 0.202D-01-0.745D-03-0.107D+00-0.160D+00 0.141D+00
 Coeff-Com:  0.366D+00 0.728D+00
 Coeff:      0.707D-04-0.140D-03-0.259D-03-0.401D-03-0.472D-03 0.165D-02
 Coeff:      0.118D-01 0.202D-01-0.745D-03-0.107D+00-0.160D+00 0.141D+00
 Coeff:      0.366D+00 0.728D+00
 Gap=     0.121 Goal=   None    Shift=    0.000
 RMSDP=1.17D-07 MaxDP=7.94D-06 DE=-3.69D-08 OVMax= 8.26D-05

 Cycle  15  Pass 1  IDiag  1:
 RMSU=  4.01D-08    CP:  9.64D-01  1.50D+00  6.89D-01  6.31D-01  8.96D-01
                    CP:  9.33D-01  1.17D+00  1.31D+00  1.72D+00  2.17D+00
                    CP:  1.93D+00  1.90D+00  1.28D+00  1.00D+00
 E= -4069.81189366906     Delta-E=       -0.000000004791 Rises=F Damp=F
 DIIS: error= 5.53D-07 at cycle  15 NSaved=  15.
 NSaved=15 IEnMin=15 EnMin= -4069.81189366906     IErMin=15 ErrMin= 5.53D-07
 ErrMax= 5.53D-07  0.00D+00 EMaxC= 1.00D-01 BMatC= 3.29D-10 BMatP= 1.20D-09
 IDIUse=1 WtCom= 1.00D+00 WtEn= 0.00D+00
 Coeff-Com:  0.123D-04-0.226D-04-0.584D-04-0.122D-03-0.367D-03-0.345D-03
 Coeff-Com:  0.227D-02 0.499D-02 0.863D-02-0.554D-02-0.500D-01-0.459D-01
 Coeff-Com:  0.196D-01 0.381D+00 0.686D+00
 Coeff:      0.123D-04-0.226D-04-0.584D-04-0.122D-03-0.367D-03-0.345D-03
 Coeff:      0.227D-02 0.499D-02 0.863D-02-0.554D-02-0.500D-01-0.459D-01
 Coeff:      0.196D-01 0.381D+00 0.686D+00
 Gap=     0.121 Goal=   None    Shift=    0.000
 RMSDP=3.92D-08 MaxDP=3.25D-06 DE=-4.79D-09 OVMax= 2.04D-05

 Cycle  16  Pass 1  IDiag  1:
 RMSU=  1.95D-08    CP:  9.64D-01  1.50D+00  6.89D-01  6.31D-01  8.96D-01
                    CP:  9.33D-01  1.17D+00  1.32D+00  1.72D+00  2.19D+00
                    CP:  1.95D+00  1.96D+00  1.34D+00  1.23D+00  1.12D+00
 E= -4069.81189367004     Delta-E=       -0.000000000990 Rises=F Damp=F
 DIIS: error= 1.85D-07 at cycle  16 NSaved=  16.
 NSaved=16 IEnMin=16 EnMin= -4069.81189367004     IErMin=16 ErrMin= 1.85D-07
 ErrMax= 1.85D-07  0.00D+00 EMaxC= 1.00D-01 BMatC= 8.01D-11 BMatP= 3.29D-10
 IDIUse=1 WtCom= 1.00D+00 WtEn= 0.00D+00
 Coeff-Com: -0.132D-04 0.270D-04 0.427D-04 0.459D-04-0.521D-04-0.642D-03
 Coeff-Com: -0.195D-02-0.370D-02 0.486D-02 0.251D-01 0.152D-01-0.570D-01
 Coeff-Com: -0.101D+00 0.178D-01 0.325D+00 0.776D+00
 Coeff:     -0.132D-04 0.270D-04 0.427D-04 0.459D-04-0.521D-04-0.642D-03
 Coeff:     -0.195D-02-0.370D-02 0.486D-02 0.251D-01 0.152D-01-0.570D-01
 Coeff:     -0.101D+00 0.178D-01 0.325D+00 0.776D+00
 Gap=     0.121 Goal=   None    Shift=    0.000
 RMSDP=2.68D-08 MaxDP=2.18D-06 DE=-9.90D-10 OVMax= 1.84D-05

 Cycle  17  Pass 1  IDiag  1:
 RMSU=  1.25D-08    CP:  9.64D-01  1.50D+00  6.89D-01  6.31D-01  8.96D-01
                    CP:  9.33D-01  1.17D+00  1.32D+00  1.73D+00  2.20D+00
                    CP:  1.96D+00  2.00D+00  1.39D+00  1.32D+00  1.42D+00
                    CP:  1.18D+00
 E= -4069.81189367010     Delta-E=       -0.000000000058 Rises=F Damp=F
 DIIS: error= 1.04D-07 at cycle  17 NSaved=  17.
 NSaved=17 IEnMin=17 EnMin= -4069.81189367010     IErMin=17 ErrMin= 1.04D-07
 ErrMax= 1.04D-07  0.00D+00 EMaxC= 1.00D-01 BMatC= 2.69D-11 BMatP= 8.01D-11
 IDIUse=1 WtCom= 1.00D+00 WtEn= 0.00D+00
 Coeff-Com: -0.946D-05 0.186D-04 0.360D-04 0.517D-04 0.773D-04-0.227D-03
 Coeff-Com: -0.140D-02-0.333D-02 0.815D-03 0.141D-01 0.199D-01-0.125D-01
 Coeff-Com: -0.589D-01-0.808D-01-0.553D-01 0.399D+00 0.778D+00
 Coeff:     -0.946D-05 0.186D-04 0.360D-04 0.517D-04 0.773D-04-0.227D-03
 Coeff:     -0.140D-02-0.333D-02 0.815D-03 0.141D-01 0.199D-01-0.125D-01
 Coeff:     -0.589D-01-0.808D-01-0.553D-01 0.399D+00 0.778D+00
 Gap=     0.121 Goal=   None    Shift=    0.000
 RMSDP=1.47D-08 MaxDP=9.60D-07 DE=-5.82D-11 OVMax= 8.16D-06

 Cycle  18  Pass 1  IDiag  1:
 RMSU=  5.71D-09    CP:  9.64D-01  1.50D+00  6.89D-01  6.31D-01  8.96D-01
                    CP:  9.33D-01  1.17D+00  1.32D+00  1.73D+00  2.20D+00
                    CP:  1.97D+00  2.01D+00  1.41D+00  1.39D+00  1.59D+00
                    CP:  1.58D+00  1.30D+00
 E= -4069.81189367032     Delta-E=       -0.000000000218 Rises=F Damp=F
 DIIS: error= 8.19D-08 at cycle  18 NSaved=  18.
 NSaved=18 IEnMin=18 EnMin= -4069.81189367032     IErMin=18 ErrMin= 8.19D-08
 ErrMax= 8.19D-08  0.00D+00 EMaxC= 1.00D-01 BMatC= 7.49D-12 BMatP= 2.69D-11
 IDIUse=1 WtCom= 1.00D+00 WtEn= 0.00D+00
 Coeff-Com:  0.385D-07-0.447D-06 0.295D-05 0.888D-05 0.704D-04 0.133D-03
 Coeff-Com:  0.904D-04-0.471D-03-0.122D-02-0.290D-02 0.340D-02 0.173D-01
 Coeff-Com:  0.534D-02-0.379D-01-0.160D+00-0.607D-01 0.341D+00 0.896D+00
 Coeff:      0.385D-07-0.447D-06 0.295D-05 0.888D-05 0.704D-04 0.133D-03
 Coeff:      0.904D-04-0.471D-03-0.122D-02-0.290D-02 0.340D-02 0.173D-01
 Coeff:      0.534D-02-0.379D-01-0.160D+00-0.607D-01 0.341D+00 0.896D+00
 Gap=     0.121 Goal=   None    Shift=    0.000
 RMSDP=1.10D-08 MaxDP=8.33D-07 DE=-2.18D-10 OVMax= 6.87D-06

 Cycle  19  Pass 1  IDiag  1:
 RMSU=  3.28D-09    CP:  9.64D-01  1.50D+00  6.89D-01  6.31D-01  8.96D-01
                    CP:  9.33D-01  1.17D+00  1.32D+00  1.73D+00  2.20D+00
                    CP:  1.97D+00  2.01D+00  1.42D+00  1.43D+00  1.73D+00
                    CP:  1.83D+00  1.79D+00  1.22D+00
 E= -4069.81189367064     Delta-E=       -0.000000000317 Rises=F Damp=F
 DIIS: error= 3.12D-08 at cycle  19 NSaved=  19.
 NSaved=19 IEnMin=19 EnMin= -4069.81189367064     IErMin=19 ErrMin= 3.12D-08
 ErrMax= 3.12D-08  0.00D+00 EMaxC= 1.00D-01 BMatC= 3.15D-12 BMatP= 7.49D-12
 IDIUse=1 WtCom= 1.00D+00 WtEn= 0.00D+00
 Coeff-Com:  0.344D-05-0.698D-05-0.113D-04-0.136D-04 0.200D-04 0.162D-03
 Coeff-Com:  0.590D-03 0.902D-03-0.942D-03-0.711D-02-0.550D-02 0.160D-01
 Coeff-Com:  0.242D-01 0.872D-02-0.879D-01-0.191D+00-0.111D+00 0.560D+00
 Coeff-Com:  0.793D+00
 Coeff:      0.344D-05-0.698D-05-0.113D-04-0.136D-04 0.200D-04 0.162D-03
 Coeff:      0.590D-03 0.902D-03-0.942D-03-0.711D-02-0.550D-02 0.160D-01
 Coeff:      0.242D-01 0.872D-02-0.879D-01-0.191D+00-0.111D+00 0.560D+00
 Coeff:      0.793D+00
 Gap=     0.121 Goal=   None    Shift=    0.000
 RMSDP=7.55D-09 MaxDP=5.04D-07 DE=-3.17D-10 OVMax= 4.34D-06

 SCF Done:  E(RCAM-B3LYP) =  -4069.81189367     A.U. after   19 cycles
            NFock= 19  Conv=0.76D-08     -V/T= 2.0102
 KE= 4.028801726069D+03 PE=-3.933754077821D+04 EE= 1.631067780750D+04
 Leave Link  502 at Fri Sep 10 15:06:24 2021, MaxMem= 23488102400 cpu:           13577.3 elap:             589.8
 (Enter /sw/apps/gaussian-16.0/g16/l801.exe)
 DoSCS=F DFT=T ScalE2(SS,OS)=  1.000000  1.000000
 ExpMin= 3.36D-02 ExpMax= 4.95D+03 ExpMxC= 7.45D+02 IAcc=3 IRadAn=         5 AccDes= 0.00D+00
 HarFok:  IExCor=  205 AccDes= 0.00D+00 IRadAn=         5 IDoV=-2 UseB2=F ITyADJ=14
 ICtDFT= 12500011 ScaDFX=  1.000000  1.000000  1.000000  1.000000
 GSVD:  LWork=       -9588 too small for GESVD, short by       45590 words or       45590 for optimal perf.
 Largest valence mixing into a core orbital is  2.03D-04
 Largest core mixing into a valence orbital is  5.26D-05
 Range of M.O.s used for correlation:    95  1572
 NBasis=  1572 NAE=   312 NBE=   312 NFC=    94 NFV=     0
 NROrb=   1478 NOA=   218 NOB=   218 NVA=  1260 NVB=  1260
 Leave Link  801 at Fri Sep 10 15:06:24 2021, MaxMem= 23488102400 cpu:               9.9 elap:               0.4
 (Enter /sw/apps/gaussian-16.0/g16/l914.exe)
 RHF ground state
 Two-electron integrals replicated using symmetry.
 MDV= 23488102400 DFT=T DoStab=F Mixed=T DoRPA=T DoScal=F NonHer=T
 Making orbital integer symmetry assigments:
 Orbital symmetries:
       Occupied  (A) (A) (A) (A) (A) (A) (A) (A) (A) (A) (A) (A)
                 (A) (A) (A) (A) (A) (A) (A) (A) (A) (A) (A) (A)
                 (A) (A) (A) (A) (A) (A) (A) (A) (A) (A) (A) (A)
                 (A) (A) (A) (A) (A) (A) (A) (A) (A) (A) (A) (A)
                 (A) (A) (A) (A) (A) (A) (A) (A) (A) (A) (A) (A)
                 (A) (A) (A) (A) (A) (A) (A) (A) (A) (A) (A) (A)
                 (A) (A) (A) (A) (A) (A) (A) (A) (A) (A) (A) (A)
                 (A) (A) (A) (A) (A) (A) (A) (A) (A) (A) (A) (A)
                 (A) (A) (A) (A) (A) (A) (A) (A) (A) (A) (A) (A)
                 (A) (A) (A) (A) (A) (A) (A) (A) (A) (A) (A) (A)
                 (A) (A) (A) (A) (A) (A) (A) (A) (A) (A) (A) (A)
                 (A) (A) (A) (A) (A) (A) (A) (A) (A) (A) (A) (A)
                 (A) (A) (A) (A) (A) (A) (A) (A) (A) (A) (A) (A)
                 (A) (A) (A) (A) (A) (A) (A) (A) (A) (A) (A) (A)
                 (A) (A) (A) (A) (A) (A) (A) (A) (A) (A) (A) (A)
                 (A) (A) (A) (A) (A) (A) (A) (A) (A) (A) (A) (A)
                 (A) (A) (A) (A) (A) (A) (A) (A) (A) (A) (A) (A)
                 (A) (A) (A) (A) (A) (A) (A) (A) (A) (A) (A) (A)
                 (A) (A) (A) (A) (A) (A) (A) (A) (A) (A) (A) (A)
                 (A) (A) (A) (A) (A) (A) (A) (A) (A) (A) (A) (A)
                 (A) (A) (A) (A) (A) (A) (A) (A) (A) (A) (A) (A)
                 (A) (A) (A) (A) (A) (A) (A) (A) (A) (A) (A) (A)
                 (A) (A) (A) (A) (A) (A) (A) (A) (A) (A) (A) (A)
                 (A) (A) (A) (A) (A) (A) (A) (A) (A) (A) (A) (A)
                 (A) (A) (A) (A) (A) (A) (A) (A) (A) (A) (A) (A)
                 (A) (A) (A) (A) (A) (A) (A) (A) (A) (A) (A) (A)
       Virtual   (A) (A) (A) (A) (A) (A) (A) (A) (A) (A) (A) (A)
                 (A) (A) (A) (A) (A) (A) (A) (A) (A) (A) (A) (A)
                 (A) (A) (A) (A) (A) (A) (A) (A) (A) (A) (A) (A)
                 (A) (A) (A) (A) (A) (A) (A) (A) (A) (A) (A) (A)
                 (A) (A) (A) (A) (A) (A) (A) (A) (A) (A) (A) (A)
                 (A) (A) (A) (A) (A) (A) (A) (A) (A) (A) (A) (A)
                 (A) (A) (A) (A) (A) (A) (A) (A) (A) (A) (A) (A)
                 (A) (A) (A) (A) (A) (A) (A) (A) (A) (A) (A) (A)
                 (A) (A) (A) (A) (A) (A) (A) (A) (A) (A) (A) (A)
                 (A) (A) (A) (A) (A) (A) (A) (A) (A) (A) (A) (A)
                 (A) (A) (A) (A) (A) (A) (A) (A) (A) (A) (A) (A)
                 (A) (A) (A) (A) (A) (A) (A) (A) (A) (A) (A) (A)
                 (A) (A) (A) (A) (A) (A) (A) (A) (A) (A) (A) (A)
                 (A) (A) (A) (A) (A) (A) (A) (A) (A) (A) (A) (A)
                 (A) (A) (A) (A) (A) (A) (A) (A) (A) (A) (A) (A)
                 (A) (A) (A) (A) (A) (A) (A) (A) (A) (A) (A) (A)
                 (A) (A) (A) (A) (A) (A) (A) (A) (A) (A) (A) (A)
                 (A) (A) (A) (A) (A) (A) (A) (A) (A) (A) (A) (A)
                 (A) (A) (A) (A) (A) (A) (A) (A) (A) (A) (A) (A)
                 (A) (A) (A) (A) (A) (A) (A) (A) (A) (A) (A) (A)
                 (A) (A) (A) (A) (A) (A) (A) (A) (A) (A) (A) (A)
                 (A) (A) (A) (A) (A) (A) (A) (A) (A) (A) (A) (A)
                 (A) (A) (A) (A) (A) (A) (A) (A) (A) (A) (A) (A)
                 (A) (A) (A) (A) (A) (A) (A) (A) (A) (A) (A) (A)
                 (A) (A) (A) (A) (A) (A) (A) (A) (A) (A) (A) (A)
                 (A) (A) (A) (A) (A) (A) (A) (A) (A) (A) (A) (A)
                 (A) (A) (A) (A) (A) (A) (A) (A) (A) (A) (A) (A)
                 (A) (A) (A) (A) (A) (A) (A) (A) (A) (A) (A) (A)
                 (A) (A) (A) (A) (A) (A) (A) (A) (A) (A) (A) (A)
                 (A) (A) (A) (A) (A) (A) (A) (A) (A) (A) (A) (A)
                 (A) (A) (A) (A) (A) (A) (A) (A) (A) (A) (A) (A)
                 (A) (A) (A) (A) (A) (A) (A) (A) (A) (A) (A) (A)
                 (A) (A) (A) (A) (A) (A) (A) (A) (A) (A) (A) (A)
                 (A) (A) (A) (A) (A) (A) (A) (A) (A) (A) (A) (A)
                 (A) (A) (A) (A) (A) (A) (A) (A) (A) (A) (A) (A)
                 (A) (A) (A) (A) (A) (A) (A) (A) (A) (A) (A) (A)
                 (A) (A) (A) (A) (A) (A) (A) (A) (A) (A) (A) (A)
                 (A) (A) (A) (A) (A) (A) (A) (A) (A) (A) (A) (A)
                 (A) (A) (A) (A) (A) (A) (A) (A) (A) (A) (A) (A)
                 (A) (A) (A) (A) (A) (A) (A) (A) (A) (A) (A) (A)
                 (A) (A) (A) (A) (A) (A) (A) (A) (A) (A) (A) (A)
                 (A) (A) (A) (A) (A) (A) (A) (A) (A) (A) (A) (A)
                 (A) (A) (A) (A) (A) (A) (A) (A) (A) (A) (A) (A)
                 (A) (A) (A) (A) (A) (A) (A) (A) (A) (A) (A) (A)
                 (A) (A) (A) (A) (A) (A) (A) (A) (A) (A) (A) (A)
                 (A) (A) (A) (A) (A) (A) (A) (A) (A) (A) (A) (A)
                 (A) (A) (A) (A) (A) (A) (A) (A) (A) (A) (A) (A)
                 (A) (A) (A) (A) (A) (A) (A) (A) (A) (A) (A) (A)
                 (A) (A) (A) (A) (A) (A) (A) (A) (A) (A) (A) (A)
                 (A) (A) (A) (A) (A) (A) (A) (A) (A) (A) (A) (A)
                 (A) (A) (A) (A) (A) (A) (A) (A) (A) (A) (A) (A)
                 (A) (A) (A) (A) (A) (A) (A) (A) (A) (A) (A) (A)
                 (A) (A) (A) (A) (A) (A) (A) (A) (A) (A) (A) (A)
                 (A) (A) (A) (A) (A) (A) (A) (A) (A) (A) (A) (A)
                 (A) (A) (A) (A) (A) (A) (A) (A) (A) (A) (A) (A)
                 (A) (A) (A) (A) (A) (A) (A) (A) (A) (A) (A) (A)
                 (A) (A) (A) (A) (A) (A) (A) (A) (A) (A) (A) (A)
                 (A) (A) (A) (A) (A) (A) (A) (A) (A) (A) (A) (A)
                 (A) (A) (A) (A) (A) (A) (A) (A) (A) (A) (A) (A)
                 (A) (A) (A) (A) (A) (A) (A) (A) (A) (A) (A) (A)
                 (A) (A) (A) (A) (A) (A) (A) (A) (A) (A) (A) (A)
                 (A) (A) (A) (A) (A) (A) (A) (A) (A) (A) (A) (A)
                 (A) (A) (A) (A) (A) (A) (A) (A) (A) (A) (A) (A)
                 (A) (A) (A) (A) (A) (A) (A) (A) (A) (A) (A) (A)
                 (A) (A) (A) (A) (A) (A) (A) (A) (A) (A) (A) (A)
                 (A) (A) (A) (A) (A) (A) (A) (A) (A) (A) (A) (A)
                 (A) (A) (A) (A) (A) (A) (A) (A) (A) (A) (A) (A)
                 (A) (A) (A) (A) (A) (A) (A) (A) (A) (A) (A) (A)
                 (A) (A) (A) (A) (A) (A) (A) (A) (A) (A) (A) (A)
                 (A) (A) (A) (A) (A) (A) (A) (A) (A) (A) (A) (A)
                 (A) (A) (A) (A) (A) (A) (A) (A) (A) (A) (A) (A)
                 (A) (A) (A) (A) (A) (A) (A) (A) (A) (A) (A) (A)
                 (A) (A) (A) (A) (A) (A) (A) (A) (A) (A) (A) (A)
                 (A) (A) (A) (A) (A) (A) (A) (A) (A) (A) (A) (A)
                 (A) (A) (A) (A) (A) (A) (A) (A) (A) (A) (A) (A)
                 (A) (A) (A) (A) (A) (A) (A) (A) (A) (A) (A) (A)
                 (A) (A) (A) (A) (A) (A) (A) (A) (A) (A) (A) (A)
                 (A) (A) (A) (A) (A) (A) (A) (A) (A) (A) (A) (A)
                 (A) (A) (A) (A) (A) (A) (A) (A) (A) (A) (A) (A)
                 (A) (A) (A) (A) (A) (A) (A) (A) (A) (A) (A) (A)
                 (A) (A) (A) (A) (A) (A) (A) (A) (A) (A) (A) (A)
                 (A) (A) (A) (A) (A) (A) (A) (A) (A) (A) (A) (A)
                 (A) (A) (A) (A) (A) (A) (A) (A) (A) (A) (A) (A)
                 (A) (A) (A) (A) (A) (A) (A) (A) (A) (A) (A) (A)
                 (A) (A) (A) (A) (A) (A) (A) (A) (A) (A) (A) (A)
                 (A) (A) (A) (A) (A) (A) (A) (A) (A) (A) (A) (A)
                 (A) (A) (A) (A) (A) (A) (A) (A) (A) (A) (A) (A)
                 (A) (A) (A) (A) (A) (A) (A) (A) (A) (A) (A) (A)
                 (A) (A) (A) (A) (A) (A) (A) (A) (A) (A) (A) (A)
                 (A) (A) (A) (A) (A) (A) (A) (A) (A) (A) (A) (A)
                 (A) (A) (A) (A) (A) (A) (A) (A) (A) (A) (A) (A)
                 (A) (A) (A) (A) (A) (A) (A) (A) (A) (A) (A) (A)
                 (A) (A) (A) (A) (A) (A) (A) (A) (A) (A) (A) (A)
                 (A) (A) (A) (A) (A) (A) (A) (A) (A) (A) (A) (A)
                 (A) (A) (A) (A) (A) (A) (A) (A) (A) (A) (A) (A)
                 (A) (A) (A) (A) (A) (A) (A) (A) (A) (A) (A) (A)
                 (A) (A) (A) (A) (A) (A) (A) (A) (A) (A) (A) (A)
                 (A) (A) (A) (A) (A) (A) (A) (A) (A) (A) (A) (A)
                 (A) (A) (A) (A) (A) (A) (A) (A) (A) (A) (A) (A)
                 (A) (A) (A) (A) (A) (A) (A) (A) (A) (A) (A) (A)
                 (A) (A) (A) (A) (A) (A) (A) (A) (A) (A) (A) (A)
                 (A) (A) (A) (A) (A) (A) (A) (A) (A) (A) (A) (A)
                 (A) (A) (A) (A) (A) (A) (A) (A) (A) (A) (A) (A)
                 (A) (A) (A) (A) (A) (A) (A) (A) (A) (A) (A) (A)
                 (A) (A) (A) (A) (A) (A) (A) (A) (A) (A) (A) (A)
    20 initial guesses have been made.
 Convergence on wavefunction:    0.001000000000000
 Davidson Disk Diagonalization:  ConvIn= 1.00D-03 SkipCon=T Conv= 1.00D-03.
 Max sub-space:  2000 roots to seek:    20 dimension of matrix:       549360
 Iteration     1 Dimension    20 NMult     0 NNew     20
 CISAX will form    20 AO SS matrices at one time.
 NMat=    20 NSing=    20 JSym2X= 0.
 FoFJK:  IHMeth= 1 ICntrl=       0 DoSepK=T KAlg= 0 I1Cent=           0 FoldK=F
 IRaf=         1 NMat=      40 IRICut=       1 DoRegI=T DoRafI=F ISym2E= 0 IDoP0=3 IntGTp=3.
 FoFCou: FMM=T IPFlag=           0 FMFlag=      100000 FMFlg1=        2001
         NFxFlg=           0 DoJE=F BraDBF=F KetDBF=F FulRan=T
         wScrn=  0.000000 ICntrl=       500 IOpCl=  0 I1Cent=           0 NGrid=           0
         NMat0=   20 NMatS0=     20 NMatT0=    0 NMatD0=   20 NMtDS0=    0 NMtDT0=    0
 Symmetry not used in FoFCou.
 FMM levels:  10  Number of levels for PrismC:   9
 New state      2 was old state      6
 New state      3 was old state      7
 New state      5 was old state      2
 Excitation Energies [eV] at current iteration:
 Root      1 :     2.486510528548962
 Root      2 :     2.610349048435488
 Root      3 :     2.619795579269168
 Root      4 :     2.620946829916883
 Root      5 :     2.647902805811042
 Root      6 :     2.723417645647842
 Root      7 :     3.272679642007084
 Root      8 :     3.420014190346115
 Root      9 :     3.635532421047072
 Root     10 :     3.669021070309178
 Root     11 :     3.735618800995744
 Root     12 :     3.756681091978523
 Root     13 :     4.274652213027942
 Root     14 :     4.337978293646920
 Root     15 :     4.386474343327838
 Root     16 :     4.557106520861956
 Root     17 :     4.715175382721844
 Root     18 :     4.750158456882568
 Root     19 :     4.846436931204036
 Root     20 :     4.867405853912954
 Iteration     2 Dimension    30 NMult    20 NNew     10
 CISAX will form    10 AO SS matrices at one time.
 NMat=    10 NSing=    10 JSym2X= 0.
 New state      1 was old state      5
 Root      1 not converged, maximum delta is    0.176165955946610
 Root      2 not converged, maximum delta is    0.173837452349931
 Root      3 not converged, maximum delta is    0.167581837710551
 New state      4 was old state      1
 Root      4 not converged, maximum delta is    0.002483098002249
 New state      5 was old state      4
 Root      5 not converged, maximum delta is    0.004462857440686
 Excitation Energies [eV] at current iteration:
 Root      1 :     1.785131392339098   Change is   -0.862771413471944
 Root      2 :     2.221736831350591   Change is   -0.388612217084897
 Root      3 :     2.238722144482489   Change is   -0.381073434786679
 Root      4 :     2.486091853644044   Change is   -0.000418674904918
 Root      5 :     2.620399948508741   Change is   -0.000546881408143
 Iteration     3 Dimension    40 NMult    30 NNew     10
 CISAX will form    10 AO SS matrices at one time.
 NMat=    10 NSing=    10 JSym2X= 0.
 Root      1 not converged, maximum delta is    0.055656720206021
 Root      2 not converged, maximum delta is    0.185258645551368
 Root      3 not converged, maximum delta is    0.177218465417101
 No map to state      4
 New state      5 was old state      4
 Root      5 has converged.
 Excitation Energies [eV] at current iteration:
 Root      1 :     1.679371191965100   Change is   -0.105760200373998
 Root      2 :     2.123186384461137   Change is   -0.098550446889455
 Root      3 :     2.195543238556041   Change is   -0.043178905926448
 Root      4 :     2.475903487273934
 Root      5 :     2.486089371961454   Change is   -0.000002481682590
 Iteration     4 Dimension    48 NMult    40 NNew      8
 CISAX will form     8 AO SS matrices at one time.
 NMat=     8 NSing=     8 JSym2X= 0.
 Root      1 not converged, maximum delta is    0.011395585883244
 New state      2 was old state      4
 Root      2 not converged, maximum delta is    0.357350144834146
 Root      3 not converged, maximum delta is    0.267192770962497
 New state      4 was old state      2
 Root      4 not converged, maximum delta is    0.276643445420810
 Root      5 has converged.
 Excitation Energies [eV] at current iteration:
 Root      1 :     1.662704388252154   Change is   -0.016666803712946
 Root      2 :     1.776483287991898   Change is   -0.699420199282036
 Root      3 :     2.185641709378375   Change is   -0.009901529177667
 Root      4 :     2.201209558743956   Change is    0.078023174282819
 Root      5 :     2.486089325998026   Change is   -0.000000045963428
 Iteration     5 Dimension    56 NMult    48 NNew      8
 CISAX will form     8 AO SS matrices at one time.
 NMat=     8 NSing=     8 JSym2X= 0.
 Root      1 not converged, maximum delta is    0.003564347595950
 Root      2 not converged, maximum delta is    0.035844143062013
 Root      3 not converged, maximum delta is    0.104441548025996
 Root      4 not converged, maximum delta is    0.102096952585908
 Root      5 has converged.
 Excitation Energies [eV] at current iteration:
 Root      1 :     1.660953244193891   Change is   -0.001751144058263
 Root      2 :     1.703454490365742   Change is   -0.073028797626156
 Root      3 :     2.183728408151107   Change is   -0.001913301227268
 Root      4 :     2.195432973833116   Change is   -0.005776584910839
 Root      5 :     2.486089325875050   Change is   -0.000000000122976
 Iteration     6 Dimension    64 NMult    56 NNew      8
 CISAX will form     8 AO SS matrices at one time.
 NMat=     8 NSing=     8 JSym2X= 0.
 Root      1 not converged, maximum delta is    0.002483219389588
 Root      2 not converged, maximum delta is    0.005768734547847
 Root      3 not converged, maximum delta is    0.014751755932459
 Root      4 not converged, maximum delta is    0.014503713913091
 Root      5 has converged.
 Excitation Energies [eV] at current iteration:
 Root      1 :     1.660701480803319   Change is   -0.000251763390572
 Root      2 :     1.693350281962920   Change is   -0.010104208402822
 Root      3 :     2.183410582714727   Change is   -0.000317825436379
 Root      4 :     2.194860252981602   Change is   -0.000572720851514
 Root      5 :     2.486089325862485   Change is   -0.000000000012565
 Iteration     7 Dimension    72 NMult    64 NNew      8
 CISAX will form     8 AO SS matrices at one time.
 NMat=     8 NSing=     8 JSym2X= 0.
 Root      1 has converged.
 Root      2 not converged, maximum delta is    0.002069468451923
 Root      3 not converged, maximum delta is    0.001632100597278
 Root      4 not converged, maximum delta is    0.001672364990175
 Root      5 has converged.
 Excitation Energies [eV] at current iteration:
 Root      1 :     1.660676365214577   Change is   -0.000025115588742
[...]
 Alpha virt. eigenvalues --    1.83610   1.83693   1.83966   1.84034   1.84312
 Alpha virt. eigenvalues --    1.84377   1.84647   1.84774   1.84899   1.84997
 Alpha virt. eigenvalues --    1.85222   1.85235   1.85452   1.85464   1.85603
 Alpha virt. eigenvalues --    1.85810   1.86011   1.86287   1.86503   1.86523
 Alpha virt. eigenvalues --    1.86715   1.86770   1.86948   1.86986   1.87140
 Alpha virt. eigenvalues --    1.87381   1.87584   1.87626   1.87806   1.87883
 Alpha virt. eigenvalues --    1.87981   1.88170   1.88292   1.88492   1.88700
 Alpha virt. eigenvalues --    1.88789   1.89035   1.89064   1.89239   1.89588
 Alpha virt. eigenvalues --    1.89708   1.89783   1.89983   1.90074   1.90302
 Alpha virt. eigenvalues --    1.90692   1.91021   1.91287   1.91380   1.91630
 Alpha virt. eigenvalues --    1.91699   1.92100   1.92280   1.92576   1.92768
 Alpha virt. eigenvalues --    1.92924   1.93259   1.93277   1.93653   1.94187
 Alpha virt. eigenvalues --    1.94440   1.94634   1.94972   1.95373   1.95675
 Alpha virt. eigenvalues --    1.95777   1.95915   1.95941   1.96061   1.96181
 Alpha virt. eigenvalues --    1.96270   1.96523   1.96604   1.96850   1.97060
 Alpha virt. eigenvalues --    1.97376   1.97653   1.97756   1.97901   1.98124
 Alpha virt. eigenvalues --    1.98277   1.98432   1.98626   1.99086   1.99211
 Alpha virt. eigenvalues --    1.99785   2.00032   2.00596   2.00842   2.00954
 Alpha virt. eigenvalues --    2.01202   2.01436   2.01591   2.01657   2.01674
 Alpha virt. eigenvalues --    2.01692   2.01917   2.02730   2.02826   2.03156
 Alpha virt. eigenvalues --    2.03331   2.03359   2.03440   2.03477   2.03615
 Alpha virt. eigenvalues --    2.03978   2.04142   2.04910   2.05095   2.05464
 Alpha virt. eigenvalues --    2.05750   2.06034   2.06392   2.06863   2.07106
 Alpha virt. eigenvalues --    2.07130   2.07450   2.08538   2.08688   2.08939
 Alpha virt. eigenvalues --    2.09097   2.09550   2.09706   2.10675   2.11134
 Alpha virt. eigenvalues --    2.11191   2.11491   2.11508   2.11624   2.11689
 Alpha virt. eigenvalues --    2.11969   2.12414   2.12567   2.12760   2.12780
 Alpha virt. eigenvalues --    2.12925   2.12981   2.13725   2.13734   2.14054
 Alpha virt. eigenvalues --    2.14460   2.15283   2.15521   2.15880   2.16201
 Alpha virt. eigenvalues --    2.16457   2.16716   2.16718   2.17255   2.17353
 Alpha virt. eigenvalues --    2.17646   2.17831   2.17985   2.18050   2.18147
 Alpha virt. eigenvalues --    2.18286   2.18758   2.18824   2.19319   2.19594
 Alpha virt. eigenvalues --    2.19904   2.20000   2.20158   2.20338   2.20536
 Alpha virt. eigenvalues --    2.21051   2.21342   2.21622   2.21701   2.21849
 Alpha virt. eigenvalues --    2.21959   2.22624   2.22814   2.23239   2.23469
 Alpha virt. eigenvalues --    2.24338   2.24536   2.24854   2.25144   2.26256
 Alpha virt. eigenvalues --    2.26535   2.26715   2.27059   2.27120   2.27294
 Alpha virt. eigenvalues --    2.28090   2.28422   2.29216   2.29558   2.29693
 Alpha virt. eigenvalues --    2.29978   2.30408   2.30703   2.30897   2.31018
 Alpha virt. eigenvalues --    2.31135   2.31327   2.32054   2.32383   2.33091
 Alpha virt. eigenvalues --    2.33330   2.33393   2.33599   2.34054   2.34292
 Alpha virt. eigenvalues --    2.35320   2.35375   2.35762   2.36007   2.36258
 Alpha virt. eigenvalues --    2.36431   2.36586   2.36589   2.37568   2.37797
 Alpha virt. eigenvalues --    2.38206   2.38501   2.38822   2.38868   2.39565
 Alpha virt. eigenvalues --    2.39768   2.40090   2.40417   2.40443   2.40914
 Alpha virt. eigenvalues --    2.41216   2.41301   2.41598   2.41800   2.41994
 Alpha virt. eigenvalues --    2.42200   2.42851   2.42976   2.43099   2.43481
 Alpha virt. eigenvalues --    2.44083   2.44124   2.44689   2.44850   2.44907
 Alpha virt. eigenvalues --    2.45097   2.45493   2.45667   2.46268   2.46377
 Alpha virt. eigenvalues --    2.46434   2.46581   2.46760   2.46872   2.47184
 Alpha virt. eigenvalues --    2.47487   2.47652   2.48018   2.49245   2.49544
 Alpha virt. eigenvalues --    2.49964   2.50006   2.50472   2.50553   2.51073
 Alpha virt. eigenvalues --    2.51352   2.51703   2.51840   2.52387   2.52473
 Alpha virt. eigenvalues --    2.52761   2.53259   2.53857   2.54089   2.54109
 Alpha virt. eigenvalues --    2.54418   2.54722   2.54913   2.55469   2.55777
 Alpha virt. eigenvalues --    2.57819   2.58190   2.58578   2.59049   2.60164
 Alpha virt. eigenvalues --    2.60367   2.60567   2.61024   2.61658   2.61943
 Alpha virt. eigenvalues --    2.62481   2.62534   2.62899   2.63228   2.63894
 Alpha virt. eigenvalues --    2.64134   2.64310   2.64616   2.65011   2.65227
 Alpha virt. eigenvalues --    2.65745   2.65948   2.66684   2.66855   2.66927
 Alpha virt. eigenvalues --    2.67170   2.67838   2.68100   2.68798   2.68913
 Alpha virt. eigenvalues --    2.68972   2.69096   2.69297   2.69687   2.69921
 Alpha virt. eigenvalues --    2.70240   2.70909   2.71152   2.71969   2.71994
 Alpha virt. eigenvalues --    2.72548   2.72607   2.72775   2.72798   2.73173
 Alpha virt. eigenvalues --    2.73416   2.73478   2.73504   2.74450   2.74589
 Alpha virt. eigenvalues --    2.74921   2.75135   2.76513   2.76623   2.77133
 Alpha virt. eigenvalues --    2.77186   2.77406   2.77695   2.78141   2.78395
 Alpha virt. eigenvalues --    2.78669   2.78798   2.79076   2.79234   2.80299
 Alpha virt. eigenvalues --    2.80345   2.80546   2.80744   2.81074   2.81215
 Alpha virt. eigenvalues --    2.81890   2.82042   2.82273   2.82434   2.83707
 Alpha virt. eigenvalues --    2.83731   2.83927   2.83951   2.84487   2.84613
 Alpha virt. eigenvalues --    2.84802   2.85015   2.85611   2.85783   2.86731
 Alpha virt. eigenvalues --    2.86920   2.87213   2.87550   2.88117   2.88318
 Alpha virt. eigenvalues --    2.88440   2.88684   2.88873   2.88949   2.90427
 Alpha virt. eigenvalues --    2.90742   2.91098   2.91202   2.93110   2.93403
 Alpha virt. eigenvalues --    2.93864   2.94138   2.94482   2.94688   2.95316
 Alpha virt. eigenvalues --    2.95547   2.95856   2.96134   2.96346   2.96452
 Alpha virt. eigenvalues --    2.96911   2.97117   2.97768   2.98129   2.98177
 Alpha virt. eigenvalues --    2.98298   2.98407   2.98557   2.98646   2.98808
 Alpha virt. eigenvalues --    2.98830   2.99007   2.99490   2.99882   2.99992
 Alpha virt. eigenvalues --    3.00057   3.00173   3.00411   3.00413   3.01076
 Alpha virt. eigenvalues --    3.01875   3.02000   3.02019   3.02190   3.02693
 Alpha virt. eigenvalues --    3.02871   3.02922   3.03280   3.03404   3.03785
 Alpha virt. eigenvalues --    3.04056   3.04146   3.04398   3.04455   3.04521
 Alpha virt. eigenvalues --    3.04758   3.05225   3.05478   3.06053   3.06339
 Alpha virt. eigenvalues --    3.06754   3.07065   3.08027   3.08087   3.09350
 Alpha virt. eigenvalues --    3.09509   3.09635   3.10391   3.10485   3.10820
 Alpha virt. eigenvalues --    3.11238   3.11688   3.11899   3.12018   3.12025
 Alpha virt. eigenvalues --    3.12383   3.13239   3.13557   3.13709   3.13791
 Alpha virt. eigenvalues --    3.14046   3.14493   3.15787   3.16088   3.17213
 Alpha virt. eigenvalues --    3.17576   3.17973   3.18018   3.19072   3.19110
 Alpha virt. eigenvalues --    3.22258   3.22622   3.23902   3.24489   3.24634
 Alpha virt. eigenvalues --    3.25228   3.26453   3.26725   3.27468   3.27568
 Alpha virt. eigenvalues --    3.29053   3.29236   3.31447   3.31476   3.33264
 Alpha virt. eigenvalues --    3.33367   3.40262   3.40584   3.42772   3.42902
 Alpha virt. eigenvalues --    3.48617   3.48747   3.49972   3.50360   3.50913
 Alpha virt. eigenvalues --    3.51425   3.56498   3.57086   3.59035   3.59440
 Alpha virt. eigenvalues --    3.62576   3.62791   3.66138   3.66209   3.67139
 Alpha virt. eigenvalues --    3.67553   3.73228   3.74032   3.76016   3.76692
          Condensed to atoms (all electrons):
 Mulliken charges:
               1
     1  Mg   0.838636
     2  C   -0.002906
     3  C   -0.093617
     4  C   -0.046320
     5  C   -0.064147
     6  N   -0.256721
     7  C   -0.052478
     8  C   -0.014010
     9  C   -0.087066
    10  C    0.046252
    11  C    0.104733
    12  C    0.053389
    13  C   -0.071738
    14  H    0.035544
    15  N   -0.433190
    16  C    0.168424
    17  C   -0.176641
    18  C   -0.003938
    19  C    0.148638
    20  C    0.109954
    21  C    0.011991
    22  O   -0.250390
    23  C    0.062392
    24  N   -0.341014
    25  C    0.041205
    26  C   -0.028134
    27  C   -0.023781
    28  C    0.074419
    29  C    0.076160
    30  C    0.035335
    31  C   -0.004319
    32  N   -0.310481
    33  C    0.080251
    34  C   -0.169670
    35  C    0.008547
    36  C    0.082937
    37  C    0.127303
    38  C    0.046236
    39  O   -0.188130
    40  C   -0.005404
    41  C    0.213052
    42  O   -0.257389
    43  O   -0.304647
    44  C    0.157757
    45  H   -0.017153
    46  H   -0.017229
    47  H   -0.041818
    48  H    0.001064
    49  H   -0.003676
    50  H    0.025519
    51  H    0.016468
    52  H    0.016978
    53  H    0.011464
    54  H    0.043724
    55  H    0.018098
    56  H    0.018364
    57  H    0.006166
    58  H    0.027034
    59  H    0.040725
    60  H    0.037702
    61  H    0.035624
    62  H    0.032470
    63  H    0.015572
    64  H    0.009684
    65  H    0.022927
    66  H    0.013020
    67  H    0.004878
    68  H    0.005863
    69  H    0.004878
    70  H    0.007533
    71  H    0.016251
    72  H    0.029927
    73  H    0.047898
    74  H    0.008699
    75  H    0.046115
    76  H    0.035344
    77  H    0.043221
    78  H    0.046402
    79  H    0.053238
    80  Mg   0.838031
    81  C   -0.017189
    82  C   -0.087976
    83  C   -0.044650
    84  C   -0.064540
    85  N   -0.254693
    86  C   -0.049956
    87  C   -0.015100
    88  C   -0.090534
    89  C    0.046040
    90  C    0.114484
    91  C    0.062544
    92  C   -0.077734
    93  H    0.034252
    94  N   -0.423686
    95  C    0.163417
    96  C   -0.174505
    97  C   -0.007198
    98  C    0.152283
    99  C    0.099370
   100  C    0.015827
   101  O   -0.252246
   102  C    0.061209
   103  N   -0.350023
   104  C    0.038500
   105  C   -0.020548
   106  C   -0.034267
   107  C    0.088963
   108  C    0.072523
   109  C    0.034697
   110  C   -0.007535
   111  N   -0.323893
   112  C    0.078263
   113  C   -0.163704
   114  C    0.001676
   115  C    0.096146
   116  C    0.131666
   117  C    0.041625
   118  O   -0.189305
   119  C    0.001189
   120  C    0.211141
   121  O   -0.251118
   122  O   -0.305683
   123  C    0.152186
   124  H   -0.019928
   125  H   -0.014466
   126  H   -0.041075
   127  H   -0.000709
   128  H   -0.004700
   129  H    0.022714
   130  H    0.014694
   131  H    0.016728
   132  H    0.013772
   133  H    0.037411
   134  H    0.021051
   135  H    0.019467
   136  H    0.008408
   137  H    0.026164
   138  H    0.039550
   139  H    0.038225
   140  H    0.036482
   141  H    0.033428
   142  H    0.013842
   143  H    0.012843
   144  H    0.025311
   145  H    0.015436
   146  H    0.008085
   147  H    0.006385
   148  H    0.002738
   149  H    0.011046
   150  H    0.017185
   151  H    0.029862
   152  H    0.045405
   153  H    0.008334
   154  H    0.045617
   155  H    0.034321
   156  H    0.043380
   157  H    0.049674
   158  H    0.053370
 Sum of Mulliken charges =  -0.00000
 Mulliken charges with hydrogens summed into heavy atoms:
               1
     1  Mg   0.838636
     2  C   -0.002906
     3  C   -0.110770
     4  C   -0.063549
     5  C   -0.105966
     6  N   -0.256721
     7  C   -0.052478
     8  C   -0.012946
     9  C   -0.090741
    10  C    0.046252
    11  C    0.163698
    12  C    0.108577
    13  C    0.000268
    15  N   -0.433190
    16  C    0.168424
    17  C   -0.176641
    18  C   -0.003938
    19  C    0.148638
    20  C    0.183880
    21  C    0.011991
    22  O   -0.250390
    23  C    0.168189
    24  N   -0.341014
    25  C    0.041205
    26  C   -0.012562
    27  C   -0.014096
    28  C    0.074419
    29  C    0.116986
    30  C    0.046075
    31  C    0.049392
    32  N   -0.310481
    33  C    0.080251
    34  C   -0.169670
    35  C    0.008547
    36  C    0.082937
    37  C    0.230015
    38  C    0.046236
    39  O   -0.188130
    40  C    0.029940
    41  C    0.213052
    42  O   -0.257389
    43  O   -0.304647
    44  C    0.300617
    80  Mg   0.838031
    81  C   -0.017189
    82  C   -0.107904
    83  C   -0.059116
    84  C   -0.105615
    85  N   -0.254693
    86  C   -0.049956
    87  C   -0.015810
    88  C   -0.095235
    89  C    0.046040
    90  C    0.168620
    91  C    0.113727
    92  C   -0.002963
    94  N   -0.423686
    95  C    0.163417
    96  C   -0.174505
    97  C   -0.007198
    98  C    0.152283
    99  C    0.173492
   100  C    0.015827
   101  O   -0.252246
   102  C    0.169344
   103  N   -0.350023
   104  C    0.038500
   105  C   -0.006706
   106  C   -0.021424
   107  C    0.088963
   108  C    0.121357
   109  C    0.043820
   110  C    0.050558
   111  N   -0.323893
   112  C    0.078263
   113  C   -0.163704
   114  C    0.001676
   115  C    0.096146
   116  C    0.231022
   117  C    0.041625
   118  O   -0.189305
   119  C    0.035510
   120  C    0.211141
   121  O   -0.251118
   122  O   -0.305683
   123  C    0.298611
 Electronic spatial extent (au):  <R**2>=         115861.8358
 Charge=             -0.0000 electrons
 Dipole moment (field-independent basis, Debye):
    X=              3.4814    Y=              3.3046    Z=              0.7774  Tot=              4.8626
 Quadrupole moment (field-independent basis, Debye-Ang):
   XX=           -523.8746   YY=           -536.7701   ZZ=           -459.1842
   XY=             17.3113   XZ=            -51.9227   YZ=             32.3668
 Traceless Quadrupole moment (field-independent basis, Debye-Ang):
   XX=            -17.2649   YY=            -30.1605   ZZ=             47.4254
   XY=             17.3113   XZ=            -51.9227   YZ=             32.3668
 Octapole moment (field-independent basis, Debye-Ang**2):
  XXX=            301.8823  YYY=            123.6961  ZZZ=            178.7072  XYY=           -182.9766
  XXY=            156.5092  XXZ=             91.4147  XZZ=            193.0606  YZZ=            -73.9196
  YYZ=           -269.0153  XYZ=           -115.5066
 Hexadecapole moment (field-independent basis, Debye-Ang**3):
 XXXX=         -93562.9013 YYYY=         -40303.1709 ZZZZ=         -25740.2577 XXXY=            174.6189
 XXXZ=          -2380.2317 YYYX=          -1627.5750 YYYZ=            695.9942 ZZZX=           -877.8018
 ZZZY=            238.7064 XXYY=         -21833.2955 XXZZ=         -18686.1189 YYZZ=         -10649.4721
 XXYZ=            965.9742 YYXZ=           -522.4383 ZZXY=            721.6598
 N-N= 1.492824935097D+04 E-N=-3.933754077651D+04  KE= 4.028801726069D+03
 Leave Link  601 at Fri Sep 10 15:32:37 2021, MaxMem= 23488102400 cpu:              16.2 elap:               0.8
 (Enter /sw/apps/gaussian-16.0/g16/l9999.exe)
 1\1\GINC-BP1-COMPUTE00099\SP\RCAM-B3LYP TD-FC\def2SVP\C68H72Mg2N8O8\OF
 15641\10-Sep-2021\0\\#p cam-b3lyp/Def2SVP td=(nstates=5)\\TDDFT excite
 d states in gaussian\\0,1\Mg,0,0.,0.,0.\C,0,-0.217,-2.218,2.801\C,0,-1
 .255,2.442,2.026\C,0,-0.245,1.85,-2.564\C,0,0.146,-2.824,-2.037\N,0,-0
 .617,-0.009,2.126\C,0,-0.594,-0.908,3.105\C,0,-0.936,-0.309,4.502\C,0,
 -1.773,0.964,4.032\C,0,-1.155,1.168,2.66\C,0,-3.263,0.685,3.863\C,0,0.
 345,0.11,5.299\C,0,0.124,0.397,6.787\H,0,1.168,0.033,7.733\N,0,-0.185,
 1.961,-0.152\C,0,-0.703,2.8,0.777\C,0,-0.62,4.156,0.193\C,0,-0.187,4.0
 15,-1.225\C,0,-0.214,2.583,-1.38\C,0,-0.887,5.406,0.974\C,0,0.181,5.01
 3,-2.277\O,0,0.303,4.69,-3.508\C,0,0.31,6.414,-1.837\N,0,-0.265,-0.413
 ,-2.029\C,0,-0.279,0.569,-2.937\C,0,-0.196,0.024,-4.332\C,0,0.124,-1.5
 33,-4.18\C,0,0.086,-1.632,-2.635\C,0,-1.451,0.205,-5.197\C,0,1.373,-2.
 07,-4.923\C,0,2.626,-1.49,-4.306\N,0,0.15,-2.144,0.303\C,0,0.173,-3.13
 6,-0.688\C,0,0.173,-4.438,0.004\C,0,0.133,-4.111,1.358\C,0,0.083,-2.69
 5,1.502\C,0,0.149,-5.715,-0.623\C,0,0.096,-4.629,2.716\O,0,0.208,-5.74
 7,3.221\C,0,-0.255,-3.428,3.701\C,0,0.717,-3.482,4.848\O,0,1.931,-3.25
 5,4.669\O,0,0.038,-3.556,6.003\C,0,0.943,-3.583,7.183\H,0,-1.859,3.22,
 2.497\H,0,-0.218,2.453,-3.474\H,0,0.276,-3.747,-2.605\H,0,-1.554,-0.94
 9,5.132\H,0,-1.585,1.831,4.665\H,0,-3.484,-0.377,3.969\H,0,-3.511,1.02
 7,2.858\H,0,-3.852,1.301,4.543\H,0,0.669,1.096,4.966\H,0,1.13,-0.639,5
 .189\H,0,-0.844,0.026,7.125\H,0,0.062,1.477,6.921\H,0,-1.344,5.186,1.9
 38\H,0,-1.651,5.963,0.432\H,0,0.007,6.02,1.084\H,0,-0.635,6.744,-1.405
 \H,0,0.665,6.97,-2.704\H,0,1.048,6.466,-1.036\H,0,0.608,0.501,-4.891\H
 ,0,-0.692,-2.156,-4.547\H,0,-1.267,0.74,-6.129\H,0,-2.204,0.714,-4.596
 \H,0,-1.967,-0.72,-5.453\H,0,1.356,-1.759,-5.967\H,0,1.452,-3.157,-4.9
 02\H,0,2.714,-0.522,-4.798\H,0,3.487,-2.121,-4.529\H,0,2.495,-1.303,-3
 .24\H,0,0.867,-6.333,-0.084\H,0,0.404,-5.642,-1.68\H,0,-0.891,-5.999,-
 0.463\H,0,-1.283,-3.581,4.028\H,0,0.698,-4.478,7.755\H,0,0.833,-2.619,
 7.68\H,0,2.,-3.754,6.976\Mg,0,10.51858,0.94753,0.7913\C,0,10.06761,4.3
 965,-0.09205\C,0,9.95262,0.18905,-2.48574\C,0,10.46304,-2.11662,1.6130
 7\C,0,9.91594,1.86021,4.10031\N,0,10.07894,2.21606,-0.96648\C,0,9.9929
 ,3.5182,-1.19316\C,0,9.8973,3.90495,-2.69345\C,0,9.29943,2.5262,-3.259
 56\C,0,9.83575,1.5717,-2.19468\C,0,7.78108,2.47118,-3.22922\C,0,11.300
 62,4.2225,-3.31945\C,0,11.2546,4.90345,-4.6891\H,0,12.27874,5.89417,-5
 .0086\N,0,10.73348,-0.68379,-0.31829\C,0,10.47974,-0.80967,-1.63777\C,
 0,10.777,-2.21095,-1.97275\C,0,11.06905,-2.94318,-0.7105\C,0,10.73895,
 -1.92553,0.267\C,0,10.84323,-2.71338,-3.38576\C,0,11.55174,-4.33391,-0
 .42931\O,0,11.50837,-4.83635,0.74903\C,0,11.98966,-5.12307,-1.5899\N,0
 ,10.02392,-0.02958,2.55847\C,0,10.13637,-1.36524,2.66475\C,0,9.99271,-
 1.81226,4.1\C,0,10.00155,-0.47086,4.97071\C,0,10.06174,0.57005,3.83128
 \C,0,8.73564,-2.6198,4.42258\C,0,11.05153,-0.37934,6.11168\C,0,12.4440
 6,-0.31045,5.52729\N,0,10.25423,2.80071,1.87015\C,0,9.987,2.95483,3.24
 816\C,0,9.77408,4.39626,3.4918\C,0,9.91054,4.98273,2.22455\C,0,10.1688
 7,3.97543,1.25598\C,0,9.4492,4.98913,4.74443\C,0,9.88427,6.22369,1.484
 26\O,0,9.79653,7.41331,1.78566\C,0,9.85939,5.88536,-0.06857\C,0,10.887
 65,6.74742,-0.74832\O,0,12.098,6.5992,-0.50399\O,0,10.29378,7.45093,-1
 .72953\C,0,11.27527,8.31301,-2.44038\H,0,9.56584,-0.17521,-3.4379\H,0,
 10.54081,-3.14664,1.96873\H,0,9.8202,2.2365,5.12105\H,0,9.21853,4.7211
 8,-2.90978\H,0,9.71743,2.28474,-4.23339\H,0,7.3571,3.32425,-2.72063\H,
 0,7.53022,1.55671,-2.70781\H,0,7.38765,2.35747,-4.24343\H,0,11.7915,3.
 28011,-3.59455\H,0,11.89518,4.8074,-2.64489\H,0,10.25642,5.29372,-4.92
 206\H,0,11.43333,4.1482,-5.4583\H,0,10.42053,-1.98728,-4.09109\H,0,10.
 17216,-3.57674,-3.44992\H,0,11.84903,-3.02527,-3.67519\H,0,11.17017,-5
 .20662,-2.29977\H,0,12.38242,-6.05485,-1.17831\H,0,12.79321,-4.57963,-
 2.0994\H,0,10.83063,-2.43035,4.39825\H,0,9.04376,-0.3149,5.48854\H,0,8
 .95459,-3.611,4.86266\H,0,8.15612,-2.72624,3.51519\H,0,8.03028,-2.1289
 3,5.09095\H,0,11.01856,-1.27988,6.72982\H,0,10.90056,0.46923,6.77056\H
 ,0,12.68526,-1.36104,5.33981\H,0,13.13701,0.13255,6.23976\H,0,12.43973
 ,0.20454,4.5596\H,0,10.05821,5.87872,4.83513\H,0,9.62525,4.3002,5.5679
 4\H,0,8.38442,5.18775,4.5959\H,0,8.85101,6.08745,-0.43177\H,0,10.89369
 ,9.33763,-2.39306\H,0,11.39343,7.86541,-3.44509\H,0,12.25506,8.43133,-
 1.99266\\Version=ES64L-G16RevA.03\State=1-A\HF=-4069.8118937\RMSD=7.55
 5e-09\PG=C01 [X(C68H72Mg2N8O8)]\\@


 THE FIRST AND LAST THING REQUIRED OF GENIUS IS THE LOVE OF TRUTH.

                          -- GOETHE
 Job cpu time:       0 days 14 hours 15 minutes  8.6 seconds.
 Elapsed time:       0 days  0 hours 36 minutes 15.5 seconds.
 File lengths (MBytes):  RWF=  13225 Int=      0 D2E=      0 Chk=    574 Scr=      1
 Normal termination of Gaussian 16 at Fri Sep 10 15:32:38 2021.
