 Entering Gaussian System, Link 0=g16
 Initial command:
 /sw/apps/gaussian-16.0/g16/l1.exe "/tmp/Gau-2846.inp" -scrdir="/tmp/"
 Entering Link 1 = /sw/apps/gaussian-16.0/g16/l1.exe PID=      2847.
  
 Copyright (c) 1988,1990,1992,1993,1995,1998,2003,2009,2016,
            Gaussian, Inc.  All Rights Reserved.
  
 This is part of the Gaussian(R) 16 program.  It is based on
 the Gaussian(R) 09 system (copyright 2009, Gaussian, Inc.),
 the Gaussian(R) 03 system (copyright 2003, Gaussian, Inc.),
 the Gaussian(R) 98 system (copyright 1998, Gaussian, Inc.),
 the Gaussian(R) 94 system (copyright 1995, Gaussian, Inc.),
 the Gaussian 92(TM) system (copyright 1992, Gaussian, Inc.),
 the Gaussian 90(TM) system (copyright 1990, Gaussian, Inc.),
 the Gaussian 88(TM) system (copyright 1988, Gaussian, Inc.),
 the Gaussian 86(TM) system (copyright 1986, Carnegie Mellon
 University), and the Gaussian 82(TM) system (copyright 1983,
 Carnegie Mellon University). Gaussian is a federally registered
 trademark of Gaussian, Inc.
  
 This software contains proprietary and confidential information,
 including trade secrets, belonging to Gaussian, Inc.
  
 This software is provided under written license and may be
 used, copied, transmitted, or stored only in accord with that
 written license.
  
 The following legend is applicable only to US Government
 contracts under FAR:
  
                    RESTRICTED RIGHTS LEGEND
  
 Use, reproduction and disclosure by the US Government is
 subject to restrictions as set forth in subparagraphs (a)
 and (c) of the Commercial Computer Software - Restricted
 Rights clause in FAR 52.227-19.
  
 Gaussian, Inc.
 340 Quinnipiac St., Bldg. 40, Wallingford CT 06492
  
  
 ---------------------------------------------------------------
 Warning -- This program may not be used in any manner that
 competes with the business of Gaussian, Inc. or will provide
 assistance to any competitor of Gaussian, Inc.  The licensee
 of this program is prohibited from giving any competitor of
 Gaussian, Inc. access to this program.  By using this program,
 the user acknowledges that Gaussian, Inc. is engaged in the
 business of creating and licensing software in the field of
 computational chemistry and represents and warrants to the
 licensee that it is not a competitor of Gaussian, Inc. and that
 it will not use this program in any manner prohibited above.
 ---------------------------------------------------------------
  

 Cite this work as:
 Gaussian 16, Revision A.03,
 M. J. Frisch, G. W. Trucks, H. B. Schlegel, G. E. Scuseria, 
 M. A. Robb, J. R. Cheeseman, G. Scalmani, V. Barone, 
 G. A. Petersson, H. Nakatsuji, X. Li, M. Caricato, A. V. Marenich, 
 J. Bloino, B. G. Janesko, R. Gomperts, B. Mennucci, H. P. Hratchian, 
 J. V. Ortiz, A. F. Izmaylov, J. L. Sonnenberg, D. Williams-Young, 
 F. Ding, F. Lipparini, F. Egidi, J. Goings, B. Peng, A. Petrone, 
 T. Henderson, D. Ranasinghe, V. G. Zakrzewski, J. Gao, N. Rega, 
 G. Zheng, W. Liang, M. Hada, M. Ehara, K. Toyota, R. Fukuda, 
 J. Hasegawa, M. Ishida, T. Nakajima, Y. Honda, O. Kitao, H. Nakai, 
 T. Vreven, K. Throssell, J. A. Montgomery, Jr., J. E. Peralta, 
 F. Ogliaro, M. J. Bearpark, J. J. Heyd, E. N. Brothers, K. N. Kudin, 
 V. N. Staroverov, T. A. Keith, R. Kobayashi, J. Normand, 
 K. Raghavachari, A. P. Rendell, J. C. Burant, S. S. Iyengar, 
 J. Tomasi, M. Cossi, J. M. Millam, M. Klene, C. Adamo, R. Cammi, 
 J. W. Ochterski, R. L. Martin, K. Morokuma, O. Farkas, 
 J. B. Foresman, and D. J. Fox, Gaussian, Inc., Wallingford CT, 2016.
 
 ******************************************
 Gaussian 16:  ES64L-G16RevA.03 25-Dec-2016
                 4-Sep-2021 
 ******************************************
 %nproc=24
 Will use up to   24 processors via shared memory.
 %mem=175gb
 -----------------------------------
 #p cam-b3lyp/Def2SVP td=(nstates=5)
 -----------------------------------
 1/38=1,172=1/1;
 2/12=2,17=6,18=5,40=1/2;
 3/5=43,7=101,11=9,25=1,30=1,74=-40/1,2,3,8;
 4//1;
 5/5=2,38=5/2;
 8/6=1,10=1,108=5/1;
 9/41=5,42=1,70=2/14;
 6/7=2,8=2,9=2,10=2/1;
 99/5=1,9=1/99;
 Leave Link    1 at Sat Sep  4 19:08:22 2021, MaxMem= 23488102400 cpu:               0.5 elap:               0.0
 (Enter /sw/apps/gaussian-16.0/g16/l101.exe)
 --------------------------------
 TDDFT excited states in gaussian
 --------------------------------
 Symbolic Z-matrix:
 Charge =  0 Multiplicity = 1
 Mg                    0.        0.        0. 
 C                    -0.217    -2.218     2.801 
 C                    -1.255     2.442     2.026 
 C                    -0.245     1.85     -2.564 
 C                     0.146    -2.824    -2.037 
 N                    -0.617    -0.009     2.126 
 C                    -0.594    -0.908     3.105 
 C                    -0.936    -0.309     4.502 
 C                    -1.773     0.964     4.032 
 C                    -1.155     1.168     2.66 
 C                    -3.263     0.685     3.863 
 C                     0.345     0.11      5.299 
 C                     0.124     0.397     6.787 
 H                     1.168     0.033     7.733 
 N                    -0.185     1.961    -0.152 
 C                    -0.703     2.8       0.777 
 C                    -0.62      4.156     0.193 
 C                    -0.187     4.015    -1.225 
 C                    -0.214     2.583    -1.38 
 C                    -0.887     5.406     0.974 
 C                     0.181     5.013    -2.277 
 O                     0.303     4.69     -3.508 
 C                     0.31      6.414    -1.837 
 N                    -0.265    -0.413    -2.029 
 C                    -0.279     0.569    -2.937 
 C                    -0.196     0.024    -4.332 
 C                     0.124    -1.533    -4.18 
 C                     0.086    -1.632    -2.635 
 C                    -1.451     0.205    -5.197 
 C                     1.373    -2.07     -4.923 
 C                     2.626    -1.49     -4.306 
 N                     0.15     -2.144     0.303 
 C                     0.173    -3.136    -0.688 
 C                     0.173    -4.438     0.004 
 C                     0.133    -4.111     1.358 
 C                     0.083    -2.695     1.502 
 C                     0.149    -5.715    -0.623 
 C                     0.096    -4.629     2.716 
 O                     0.208    -5.747     3.221 
 C                    -0.255    -3.428     3.701 
 C                     0.717    -3.482     4.848 
 O                     1.931    -3.255     4.669 
 O                     0.038    -3.556     6.003 
 C                     0.943    -3.583     7.183 
 H                    -1.859     3.22      2.497 
 H                    -0.218     2.453    -3.474 
 H                     0.276    -3.747    -2.605 
 H                    -1.554    -0.949     5.132 
 H                    -1.585     1.831     4.665 
 H                    -3.484    -0.377     3.969 
 H                    -3.511     1.027     2.858 
 H                    -3.852     1.301     4.543 
 H                     0.669     1.096     4.966 
 H                     1.13     -0.639     5.189 
 H                    -0.844     0.026     7.125 
 H                     0.062     1.477     6.921 
 H                    -1.344     5.186     1.938 
 H                    -1.651     5.963     0.432 
 H                     0.007     6.02      1.084 
 H                    -0.635     6.744    -1.405 
 H                     0.665     6.97     -2.704 
 H                     1.048     6.466    -1.036 
 H                     0.608     0.501    -4.891 
 H                    -0.692    -2.156    -4.547 
 H                    -1.267     0.74     -6.129 
 H                    -2.204     0.714    -4.596 
 H                    -1.967    -0.72     -5.453 
 H                     1.356    -1.759    -5.967 
 H                     1.452    -3.157    -4.902 
 H                     2.714    -0.522    -4.798 
 H                     3.487    -2.121    -4.529 
 H                     2.495    -1.303    -3.24 
 H                     0.867    -6.333    -0.084 
 H                     0.404    -5.642    -1.68 
 H                    -0.891    -5.999    -0.463 
 H                    -1.283    -3.581     4.028 
 H                     0.698    -4.478     7.755 
 H                     0.833    -2.619     7.68 
 H                     2.       -3.754     6.976 
 Mg                    31.53898   2.84705   2.39705 
 C                     31.01565   3.39444   5.90497 
 C                     30.40867   6.02427   1.88487 
 C                     31.56075   2.24637  -0.71842 
 C                     31.52656  -0.57234   3.07032 
 N                     30.83319   4.4097    3.79428 
 C                     30.73676   4.52579   5.11017 
 C                     30.39551   5.9565    5.60634 
 C                     29.6818   6.50795   4.27766 
 C                     30.37153   5.6206    3.24347 
 C                     28.1899   6.22232   4.23312 
 C                     31.67824   6.78928   5.9572 
 C                     31.41412   8.07931   6.73682 
 H                     32.38925   8.4985    7.73975 
 N                     31.52844   4.08944   0.84949 
 C                     31.05155   5.35163   0.82252 
 C                     31.25857   5.83062  -0.55294 
 C                     31.74577   4.69184  -1.37788 
 C                     31.60771   3.60289  -0.43172 
 C                     31.07327   7.26604  -0.95125 
 C                     32.24044   4.59628  -2.78939 
 O                     32.38766   3.46635  -3.37625 
 C                     32.45833   5.86746  -3.49518 
 N                     31.33188   1.0948    1.29748 
 C                     31.43317   1.10392  -0.04326 
 C                     31.52639  -0.29954  -0.59281 
 C                     31.71079  -1.24844   0.68123 
 C                     31.59787  -0.19191   1.80212 
 C                     30.32607  -0.77453  -1.41135 
 C                     32.94111  -2.19659   0.6804 
 C                     34.21514  -1.38898   0.78033 
 N                     31.50016   1.61075   4.16851 
 C                     31.4743   0.19994   4.22368 
 C                     31.33567  -0.1777    5.64516 
 C                     31.2668   1.04958   6.32155 
 C                     31.33589   2.11674   5.38566 
 C                     31.24076  -1.50614   6.14752 
 C                     31.14068   1.68495   7.61349 
 O                     31.13001   1.28974   8.77858 
 C                     30.84521   3.23061   7.38981 
 C                     31.76052   4.01361   8.29072 
 O                     32.99147   3.99098   8.11504 
 O                     31.02314   4.82661   9.06896 
 C                     31.88708   5.63218   9.97257 
 H                     29.85823   6.91955   1.59441 
 H                     31.67658   1.9829   -1.77229 
 H                     31.61352  -1.6184    3.37176 
 H                     29.70683   5.99536   6.44179 
 H                     29.9231   7.55351   4.1046 
 H                     27.87623   5.58976   5.0502 
 H                     28.01251   5.73159   3.28509 
 H                     27.62753   7.15975   4.19712 
 H                     32.09567   7.21014   5.03342 
 H                     32.39075   6.18676   6.48628 
 H                     30.39913   8.10997   7.15131 
 H                     31.44387   8.91914   6.03838 
 H                     30.55188   7.83562  -0.17206 
 H                     30.38338   7.2753   -1.80204 
 H                     32.00857   7.74453  -1.24945 
 H                     31.52855   6.43081  -3.51983 
 H                     32.89604   5.59596  -4.45777 
 H                     33.17461   6.46722  -2.9226 
 H                     32.38989  -0.40568  -1.23795 
 H                     30.85839  -1.93216   0.80683 
 H                     30.59615  -1.09956  -2.43385 
 H                     29.59867   0.02559  -1.44637 
 H                     29.75488  -1.58667  -0.96485 
 H                     32.99512  -2.74609  -0.26261 
 H                     32.92187  -2.92984   1.47976 
 H                     34.39924  -1.08928  -0.25571 
 H                     35.02811  -2.00191   1.1643 
 H                     34.05701  -0.47511   1.3647 
 H                     31.87454  -1.55393   7.02304 
 H                     31.53999  -2.23666   5.39881 
 H                     30.17056  -1.55631   6.36527 
 H                     29.79416   3.40079   7.62623 
 H                     31.54031   5.44805   10.99411 
 H                     31.82347   6.67136   9.59866 
 H                     32.93095   5.35141   10.04973 
 
 ITRead=  0  0  0  0  0  0  0  0  0  0  0  0  0  0  0  0  0  0  0  0
 ITRead=  0  0  0  0  0  0  0  0  0  0  0  0  0  0  0  0  0  0  0  0
 ITRead=  0  0  0  0  0  0  0  0  0  0  0  0  0  0  0  0  0  0  0  0
 ITRead=  0  0  0  0  0  0  0  0  0  0  0  0  0  0  0  0  0  0  0  0
 ITRead=  0  0  0  0  0  0  0  0  0  0  0  0  0  0  0  0  0  0  0  0
 ITRead=  0  0  0  0  0  0  0  0  0  0  0  0  0  0  0  0  0  0  0  0
 ITRead=  0  0  0  0  0  0  0  0  0  0  0  0  0  0  0  0  0  0  0  0
 ITRead=  0  0  0  0  0  0  0  0  0  0  0  0  0  0  0  0  0  0
 MicOpt= -1 -1 -1 -1 -1 -1 -1 -1 -1 -1 -1 -1 -1 -1 -1 -1 -1 -1 -1 -1
 MicOpt= -1 -1 -1 -1 -1 -1 -1 -1 -1 -1 -1 -1 -1 -1 -1 -1 -1 -1 -1 -1
 MicOpt= -1 -1 -1 -1 -1 -1 -1 -1 -1 -1 -1 -1 -1 -1 -1 -1 -1 -1 -1 -1
 MicOpt= -1 -1 -1 -1 -1 -1 -1 -1 -1 -1 -1 -1 -1 -1 -1 -1 -1 -1 -1 -1
 MicOpt= -1 -1 -1 -1 -1 -1 -1 -1 -1 -1 -1 -1 -1 -1 -1 -1 -1 -1 -1 -1
 MicOpt= -1 -1 -1 -1 -1 -1 -1 -1 -1 -1 -1 -1 -1 -1 -1 -1 -1 -1 -1 -1
 MicOpt= -1 -1 -1 -1 -1 -1 -1 -1 -1 -1 -1 -1 -1 -1 -1 -1 -1 -1 -1 -1
 MicOpt= -1 -1 -1 -1 -1 -1 -1 -1 -1 -1 -1 -1 -1 -1 -1 -1 -1 -1
 NAtoms=    158 NQM=      158 NQMF=       0 NMMI=      0 NMMIF=      0
                NMic=       0 NMicF=      0.
                    Isotopes and Nuclear Properties:
 (Nuclear quadrupole moments (NQMom) in fm**2, nuclear magnetic moments (NMagM)
  in nuclear magnetons)

  Atom         1           2           3           4           5           6           7           8           9          10
 IAtWgt=          24          12          12          12          12          14          12          12          12          12
 AtmWgt=  23.9850450  12.0000000  12.0000000  12.0000000  12.0000000  14.0030740  12.0000000  12.0000000  12.0000000  12.0000000
 NucSpn=           0           0           0           0           0           2           0           0           0           0
 AtZEff=  -0.0000000  -0.0000000  -0.0000000  -0.0000000  -0.0000000  -0.0000000  -0.0000000  -0.0000000  -0.0000000  -0.0000000
 NQMom=    0.0000000   0.0000000   0.0000000   0.0000000   0.0000000   2.0440000   0.0000000   0.0000000   0.0000000   0.0000000
 NMagM=    0.0000000   0.0000000   0.0000000   0.0000000   0.0000000   0.4037610   0.0000000   0.0000000   0.0000000   0.0000000
 AtZNuc=  12.0000000   6.0000000   6.0000000   6.0000000   6.0000000   7.0000000   6.0000000   6.0000000   6.0000000   6.0000000

  Atom        11          12          13          14          15          16          17          18          19          20
 IAtWgt=          12          12          12           1          14          12          12          12          12          12
 AtmWgt=  12.0000000  12.0000000  12.0000000   1.0078250  14.0030740  12.0000000  12.0000000  12.0000000  12.0000000  12.0000000
 NucSpn=           0           0           0           1           2           0           0           0           0           0
 AtZEff=  -0.0000000  -0.0000000  -0.0000000  -0.0000000  -0.0000000  -0.0000000  -0.0000000  -0.0000000  -0.0000000  -0.0000000
 NQMom=    0.0000000   0.0000000   0.0000000   0.0000000   2.0440000   0.0000000   0.0000000   0.0000000   0.0000000   0.0000000
 NMagM=    0.0000000   0.0000000   0.0000000   2.7928460   0.4037610   0.0000000   0.0000000   0.0000000   0.0000000   0.0000000
 AtZNuc=   6.0000000   6.0000000   6.0000000   1.0000000   7.0000000   6.0000000   6.0000000   6.0000000   6.0000000   6.0000000

  Atom        21          22          23          24          25          26          27          28          29          30
 IAtWgt=          12          16          12          14          12          12          12          12          12          12
 AtmWgt=  12.0000000  15.9949146  12.0000000  14.0030740  12.0000000  12.0000000  12.0000000  12.0000000  12.0000000  12.0000000
 NucSpn=           0           0           0           2           0           0           0           0           0           0
 AtZEff=  -0.0000000  -0.0000000  -0.0000000  -0.0000000  -0.0000000  -0.0000000  -0.0000000  -0.0000000  -0.0000000  -0.0000000
 NQMom=    0.0000000   0.0000000   0.0000000   2.0440000   0.0000000   0.0000000   0.0000000   0.0000000   0.0000000   0.0000000
 NMagM=    0.0000000   0.0000000   0.0000000   0.4037610   0.0000000   0.0000000   0.0000000   0.0000000   0.0000000   0.0000000
 AtZNuc=   6.0000000   8.0000000   6.0000000   7.0000000   6.0000000   6.0000000   6.0000000   6.0000000   6.0000000   6.0000000

  Atom        31          32          33          34          35          36          37          38          39          40
 IAtWgt=          12          14          12          12          12          12          12          12          16          12
 AtmWgt=  12.0000000  14.0030740  12.0000000  12.0000000  12.0000000  12.0000000  12.0000000  12.0000000  15.9949146  12.0000000
 NucSpn=           0           2           0           0           0           0           0           0           0           0
 AtZEff=  -0.0000000  -0.0000000  -0.0000000  -0.0000000  -0.0000000  -0.0000000  -0.0000000  -0.0000000  -0.0000000  -0.0000000
 NQMom=    0.0000000   2.0440000   0.0000000   0.0000000   0.0000000   0.0000000   0.0000000   0.0000000   0.0000000   0.0000000
 NMagM=    0.0000000   0.4037610   0.0000000   0.0000000   0.0000000   0.0000000   0.0000000   0.0000000   0.0000000   0.0000000
 AtZNuc=   6.0000000   7.0000000   6.0000000   6.0000000   6.0000000   6.0000000   6.0000000   6.0000000   8.0000000   6.0000000

  Atom        41          42          43          44          45          46          47          48          49          50
 IAtWgt=          12          16          16          12           1           1           1           1           1           1
 AtmWgt=  12.0000000  15.9949146  15.9949146  12.0000000   1.0078250   1.0078250   1.0078250   1.0078250   1.0078250   1.0078250
 NucSpn=           0           0           0           0           1           1           1           1           1           1
 AtZEff=  -0.0000000  -0.0000000  -0.0000000  -0.0000000  -0.0000000  -0.0000000  -0.0000000  -0.0000000  -0.0000000  -0.0000000
 NQMom=    0.0000000   0.0000000   0.0000000   0.0000000   0.0000000   0.0000000   0.0000000   0.0000000   0.0000000   0.0000000
 NMagM=    0.0000000   0.0000000   0.0000000   0.0000000   2.7928460   2.7928460   2.7928460   2.7928460   2.7928460   2.7928460
 AtZNuc=   6.0000000   8.0000000   8.0000000   6.0000000   1.0000000   1.0000000   1.0000000   1.0000000   1.0000000   1.0000000

  Atom        51          52          53          54          55          56          57          58          59          60
 IAtWgt=           1           1           1           1           1           1           1           1           1           1
 AtmWgt=   1.0078250   1.0078250   1.0078250   1.0078250   1.0078250   1.0078250   1.0078250   1.0078250   1.0078250   1.0078250
 NucSpn=           1           1           1           1           1           1           1           1           1           1
 AtZEff=  -0.0000000  -0.0000000  -0.0000000  -0.0000000  -0.0000000  -0.0000000  -0.0000000  -0.0000000  -0.0000000  -0.0000000
 NQMom=    0.0000000   0.0000000   0.0000000   0.0000000   0.0000000   0.0000000   0.0000000   0.0000000   0.0000000   0.0000000
 NMagM=    2.7928460   2.7928460   2.7928460   2.7928460   2.7928460   2.7928460   2.7928460   2.7928460   2.7928460   2.7928460
 AtZNuc=   1.0000000   1.0000000   1.0000000   1.0000000   1.0000000   1.0000000   1.0000000   1.0000000   1.0000000   1.0000000

  Atom        61          62          63          64          65          66          67          68          69          70
 IAtWgt=           1           1           1           1           1           1           1           1           1           1
 AtmWgt=   1.0078250   1.0078250   1.0078250   1.0078250   1.0078250   1.0078250   1.0078250   1.0078250   1.0078250   1.0078250
 NucSpn=           1           1           1           1           1           1           1           1           1           1
 AtZEff=  -0.0000000  -0.0000000  -0.0000000  -0.0000000  -0.0000000  -0.0000000  -0.0000000  -0.0000000  -0.0000000  -0.0000000
 NQMom=    0.0000000   0.0000000   0.0000000   0.0000000   0.0000000   0.0000000   0.0000000   0.0000000   0.0000000   0.0000000
 NMagM=    2.7928460   2.7928460   2.7928460   2.7928460   2.7928460   2.7928460   2.7928460   2.7928460   2.7928460   2.7928460
 AtZNuc=   1.0000000   1.0000000   1.0000000   1.0000000   1.0000000   1.0000000   1.0000000   1.0000000   1.0000000   1.0000000

  Atom        71          72          73          74          75          76          77          78          79          80
 IAtWgt=           1           1           1           1           1           1           1           1           1          24
 AtmWgt=   1.0078250   1.0078250   1.0078250   1.0078250   1.0078250   1.0078250   1.0078250   1.0078250   1.0078250  23.9850450
 NucSpn=           1           1           1           1           1           1           1           1           1           0
 AtZEff=  -0.0000000  -0.0000000  -0.0000000  -0.0000000  -0.0000000  -0.0000000  -0.0000000  -0.0000000  -0.0000000  -0.0000000
 NQMom=    0.0000000   0.0000000   0.0000000   0.0000000   0.0000000   0.0000000   0.0000000   0.0000000   0.0000000   0.0000000
 NMagM=    2.7928460   2.7928460   2.7928460   2.7928460   2.7928460   2.7928460   2.7928460   2.7928460   2.7928460   0.0000000
 AtZNuc=   1.0000000   1.0000000   1.0000000   1.0000000   1.0000000   1.0000000   1.0000000   1.0000000   1.0000000  12.0000000

  Atom        81          82          83          84          85          86          87          88          89          90
 IAtWgt=          12          12          12          12          14          12          12          12          12          12
 AtmWgt=  12.0000000  12.0000000  12.0000000  12.0000000  14.0030740  12.0000000  12.0000000  12.0000000  12.0000000  12.0000000
 NucSpn=           0           0           0           0           2           0           0           0           0           0
 AtZEff=  -0.0000000  -0.0000000  -0.0000000  -0.0000000  -0.0000000  -0.0000000  -0.0000000  -0.0000000  -0.0000000  -0.0000000
 NQMom=    0.0000000   0.0000000   0.0000000   0.0000000   2.0440000   0.0000000   0.0000000   0.0000000   0.0000000   0.0000000
 NMagM=    0.0000000   0.0000000   0.0000000   0.0000000   0.4037610   0.0000000   0.0000000   0.0000000   0.0000000   0.0000000
 AtZNuc=   6.0000000   6.0000000   6.0000000   6.0000000   7.0000000   6.0000000   6.0000000   6.0000000   6.0000000   6.0000000

  Atom        91          92          93          94          95          96          97          98          99         100
 IAtWgt=          12          12           1          14          12          12          12          12          12          12
 AtmWgt=  12.0000000  12.0000000   1.0078250  14.0030740  12.0000000  12.0000000  12.0000000  12.0000000  12.0000000  12.0000000
 NucSpn=           0           0           1           2           0           0           0           0           0           0
 AtZEff=  -0.0000000  -0.0000000  -0.0000000  -0.0000000  -0.0000000  -0.0000000  -0.0000000  -0.0000000  -0.0000000  -0.0000000
 NQMom=    0.0000000   0.0000000   0.0000000   2.0440000   0.0000000   0.0000000   0.0000000   0.0000000   0.0000000   0.0000000
 NMagM=    0.0000000   0.0000000   2.7928460   0.4037610   0.0000000   0.0000000   0.0000000   0.0000000   0.0000000   0.0000000
 AtZNuc=   6.0000000   6.0000000   1.0000000   7.0000000   6.0000000   6.0000000   6.0000000   6.0000000   6.0000000   6.0000000

  Atom       101         102         103         104         105         106         107         108         109         110
 IAtWgt=          16          12          14          12          12          12          12          12          12          12
 AtmWgt=  15.9949146  12.0000000  14.0030740  12.0000000  12.0000000  12.0000000  12.0000000  12.0000000  12.0000000  12.0000000
 NucSpn=           0           0           2           0           0           0           0           0           0           0
 AtZEff=  -0.0000000  -0.0000000  -0.0000000  -0.0000000  -0.0000000  -0.0000000  -0.0000000  -0.0000000  -0.0000000  -0.0000000
 NQMom=    0.0000000   0.0000000   2.0440000   0.0000000   0.0000000   0.0000000   0.0000000   0.0000000   0.0000000   0.0000000
 NMagM=    0.0000000   0.0000000   0.4037610   0.0000000   0.0000000   0.0000000   0.0000000   0.0000000   0.0000000   0.0000000
 AtZNuc=   8.0000000   6.0000000   7.0000000   6.0000000   6.0000000   6.0000000   6.0000000   6.0000000   6.0000000   6.0000000

  Atom       111         112         113         114         115         116         117         118         119         120
 IAtWgt=          14          12          12          12          12          12          12          16          12          12
 AtmWgt=  14.0030740  12.0000000  12.0000000  12.0000000  12.0000000  12.0000000  12.0000000  15.9949146  12.0000000  12.0000000
 NucSpn=           2           0           0           0           0           0           0           0           0           0
 AtZEff=  -0.0000000  -0.0000000  -0.0000000  -0.0000000  -0.0000000  -0.0000000  -0.0000000  -0.0000000  -0.0000000  -0.0000000
 NQMom=    2.0440000   0.0000000   0.0000000   0.0000000   0.0000000   0.0000000   0.0000000   0.0000000   0.0000000   0.0000000
 NMagM=    0.4037610   0.0000000   0.0000000   0.0000000   0.0000000   0.0000000   0.0000000   0.0000000   0.0000000   0.0000000
 AtZNuc=   7.0000000   6.0000000   6.0000000   6.0000000   6.0000000   6.0000000   6.0000000   8.0000000   6.0000000   6.0000000

  Atom       121         122         123         124         125         126         127         128         129         130
 IAtWgt=          16          16          12           1           1           1           1           1           1           1
 AtmWgt=  15.9949146  15.9949146  12.0000000   1.0078250   1.0078250   1.0078250   1.0078250   1.0078250   1.0078250   1.0078250
 NucSpn=           0           0           0           1           1           1           1           1           1           1
 AtZEff=  -0.0000000  -0.0000000  -0.0000000  -0.0000000  -0.0000000  -0.0000000  -0.0000000  -0.0000000  -0.0000000  -0.0000000
 NQMom=    0.0000000   0.0000000   0.0000000   0.0000000   0.0000000   0.0000000   0.0000000   0.0000000   0.0000000   0.0000000
 NMagM=    0.0000000   0.0000000   0.0000000   2.7928460   2.7928460   2.7928460   2.7928460   2.7928460   2.7928460   2.7928460
 AtZNuc=   8.0000000   8.0000000   6.0000000   1.0000000   1.0000000   1.0000000   1.0000000   1.0000000   1.0000000   1.0000000

  Atom       131         132         133         134         135         136         137         138         139         140
 IAtWgt=           1           1           1           1           1           1           1           1           1           1
 AtmWgt=   1.0078250   1.0078250   1.0078250   1.0078250   1.0078250   1.0078250   1.0078250   1.0078250   1.0078250   1.0078250
 NucSpn=           1           1           1           1           1           1           1           1           1           1
 AtZEff=  -0.0000000  -0.0000000  -0.0000000  -0.0000000  -0.0000000  -0.0000000  -0.0000000  -0.0000000  -0.0000000  -0.0000000
 NQMom=    0.0000000   0.0000000   0.0000000   0.0000000   0.0000000   0.0000000   0.0000000   0.0000000   0.0000000   0.0000000
 NMagM=    2.7928460   2.7928460   2.7928460   2.7928460   2.7928460   2.7928460   2.7928460   2.7928460   2.7928460   2.7928460
 AtZNuc=   1.0000000   1.0000000   1.0000000   1.0000000   1.0000000   1.0000000   1.0000000   1.0000000   1.0000000   1.0000000

  Atom       141         142         143         144         145         146         147         148         149         150
 IAtWgt=           1           1           1           1           1           1           1           1           1           1
 AtmWgt=   1.0078250   1.0078250   1.0078250   1.0078250   1.0078250   1.0078250   1.0078250   1.0078250   1.0078250   1.0078250
 NucSpn=           1           1           1           1           1           1           1           1           1           1
 AtZEff=  -0.0000000  -0.0000000  -0.0000000  -0.0000000  -0.0000000  -0.0000000  -0.0000000  -0.0000000  -0.0000000  -0.0000000
 NQMom=    0.0000000   0.0000000   0.0000000   0.0000000   0.0000000   0.0000000   0.0000000   0.0000000   0.0000000   0.0000000
 NMagM=    2.7928460   2.7928460   2.7928460   2.7928460   2.7928460   2.7928460   2.7928460   2.7928460   2.7928460   2.7928460
 AtZNuc=   1.0000000   1.0000000   1.0000000   1.0000000   1.0000000   1.0000000   1.0000000   1.0000000   1.0000000   1.0000000

  Atom       151         152         153         154         155         156         157         158
 IAtWgt=           1           1           1           1           1           1           1           1
 AtmWgt=   1.0078250   1.0078250   1.0078250   1.0078250   1.0078250   1.0078250   1.0078250   1.0078250
 NucSpn=           1           1           1           1           1           1           1           1
 AtZEff=  -0.0000000  -0.0000000  -0.0000000  -0.0000000  -0.0000000  -0.0000000  -0.0000000  -0.0000000
 NQMom=    0.0000000   0.0000000   0.0000000   0.0000000   0.0000000   0.0000000   0.0000000   0.0000000
 NMagM=    2.7928460   2.7928460   2.7928460   2.7928460   2.7928460   2.7928460   2.7928460   2.7928460
 AtZNuc=   1.0000000   1.0000000   1.0000000   1.0000000   1.0000000   1.0000000   1.0000000   1.0000000
 Leave Link  101 at Sat Sep  4 19:08:22 2021, MaxMem= 23488102400 cpu:               3.2 elap:               0.2
 (Enter /sw/apps/gaussian-16.0/g16/l202.exe)
 Stoichiometry    C68H72Mg2N8O8
 Framework group  C1[X(C68H72Mg2N8O8)]
 Deg. of freedom   468
 Full point group                 C1      NOp   1
 Largest Abelian subgroup         C1      NOp   1
 Largest concise Abelian subgroup C1      NOp   1
                         Standard orientation:                         
 ---------------------------------------------------------------------
 Center     Atomic      Atomic             Coordinates (Angstroms)
 Number     Number       Type             X           Y           Z
 ---------------------------------------------------------------------
      1         12           0       15.791266   -0.726499    0.236281
      2          6           0       16.028317    2.456991   -1.382797
      3          6           0       16.611088    0.858389    3.144732
      4          6           0       16.033517   -3.580960    1.596423
      5          6           0       16.112837   -2.186262   -2.911948
      6          7           0       16.237411    1.392661    0.695372
      7          6           0       16.235762    2.523636   -0.003243
      8          6           0       16.400316    3.796048    0.880649
      9          6           0       17.128175    3.137410    2.136999
     10          6           0       16.600873    1.719294    2.007292
     11          6           0       18.648298    3.109315    2.014781
     12          6           0       15.022977    4.424145    1.280853
     13          6           0       15.094414    5.839009    1.862582
     14          1           0       14.025392    6.777227    1.555520
     15          7           0       15.773347   -1.242774    2.143107
     16          6           0       16.122834   -0.465187    3.195962
     17          6           0       15.938873   -1.303188    4.400368
     18          6           0       15.636001   -2.689514    3.948192
     19          6           0       15.830524   -2.563987    2.526298
     20          6           0       16.006523   -0.763868    5.796186
     21          6           0       15.245121   -3.933045    4.682340
     22          8           0       15.255604   -5.083640    4.125028
     23          6           0       14.930595   -3.779128    6.114270
     24          7           0       16.257459   -2.619780   -0.509230
     25          6           0       16.235615   -3.697694    0.282355
     26          6           0       16.321703   -4.963996   -0.517024
     27          6           0       16.161927   -4.533132   -2.046266
     28          6           0       16.089509   -2.998351   -1.852687
     29          6           0       17.613380   -5.775753   -0.347816
     30          6           0       15.040652   -5.227753   -2.859079
     31          6           0       13.687640   -4.805436   -2.331722
     32          7           0       15.851950   -0.025076   -1.816856
     33          6           0       16.014485   -0.806115   -2.970213
     34          6           0       16.101877    0.122624   -4.112087
     35          6           0       16.000077    1.388338   -3.538112
     36          6           0       15.884460    1.259444   -2.124495
     37          6           0       16.313496   -0.244277   -5.470408
     38          6           0       15.986834    2.820582   -3.787833
     39          8           0       15.957862    3.524385   -4.798433
     40          6           0       16.127099    3.573912   -2.391893
     41          6           0       15.080014    4.653369   -2.350738
     42          8           0       13.866274    4.366068   -2.309995
     43          8           0       15.670608    5.837283   -2.126937
     44          6           0       14.684404    6.947633   -2.045208
     45          1           0       17.088250    1.203875    4.063914
     46          1           0       16.012392   -4.590128    2.013043
     47          1           0       16.128752   -2.572209   -3.932852
     48          1           0       17.033039    4.571246    0.448036
     49          1           0       16.798126    3.579955    3.076650
     50          1           0       18.974446    3.430157    1.025535
     51          1           0       18.935495    2.072809    2.192735
     52          1           0       19.111858    3.689914    2.812775
     53          1           0       14.620771    3.889772    2.141514
     54          1           0       14.335058    4.416559    0.434664
     55          1           0       16.067585    6.295993    1.680887
     56          1           0       15.027991    5.765719    2.948131
     57          1           0       16.407924    0.248583    5.815324
     58          1           0       16.745493   -1.359214    6.332092
     59          1           0       15.045236   -0.824617    6.306644
     60          1           0       15.797430   -3.366387    6.630789
     61          1           0       14.586170   -4.755547    6.453133
     62          1           0       14.130943   -3.045905    6.223303
     63          1           0       15.516818   -5.648690   -0.252862
     64          1           0       17.066995   -4.726804   -2.622474
     65          1           0       17.445781   -6.802196   -0.020660
     66          1           0       18.257271   -5.242719    0.351163
     67          1           0       18.245293   -5.819363   -1.234495
     68          1           0       15.105349   -6.309473   -2.746642
     69          1           0       15.078867   -5.002222   -3.924877
     70          1           0       13.533701   -5.478847   -1.489313
     71          1           0       12.920418   -4.950725   -3.092953
     72          1           0       13.713762   -3.789781   -1.936439
     73          1           0       15.626976    0.362466   -6.060766
     74          1           0       16.135527   -1.308168   -5.625539
     75          1           0       17.362484    0.025614   -5.591399
     76          1           0       17.136896    3.981496   -2.355727
     77          1           0       14.979738    7.694175   -2.782559
     78          1           0       14.649765    7.255002   -0.999871
     79          1           0       13.671699    6.718393   -2.378699
     80         12           0      -15.960602   -0.698783   -0.377640
     81          6           0      -15.775839    2.661743    0.868048
     82          6           0      -15.145745   -1.749086    2.763622
     83          6           0      -15.673224   -3.636394   -1.541813
     84          6           0      -15.629298    0.620192   -3.586412
     85          7           0      -15.540291    0.408660    1.490293
     86          6           0      -15.560265    1.680840    1.858399
     87          6           0      -15.416397    1.910484    3.386840
     88          6           0      -14.665134    0.542702    3.765846
     89          6           0      -15.171322   -0.338271    2.625527
     90          6           0      -13.152142    0.637918    3.660394
     91          6           0      -16.805531    2.021708    4.107921
     92          6           0      -16.744978    2.551803    5.542172
     93          1           0      -17.835328    3.398791    6.017794
     94          7           0      -15.964156   -2.453604    0.549278
     95          6           0      -15.626638   -2.696375    1.833186
     96          6           0      -15.776279   -4.147761    2.020971
     97          6           0      -16.070798   -4.763926    0.698734
     98          6           0      -15.889624   -3.619481   -0.171618
     99          6           0      -15.717511   -4.804073    3.369755
    100          6           0      -16.440231   -6.156112    0.284576
    101          8           0      -16.417415   -6.521641   -0.943711
    102          6           0      -16.739123   -7.104666    1.367361
    103          7           0      -15.478917   -1.426803   -2.264514
    104          6           0      -15.475425   -2.747720   -2.515693
    105          6           0      -15.372283   -3.020972   -3.997277
    106          6           0      -15.551531   -1.600413   -4.709651
    107          6           0      -15.642128   -0.699504   -3.458429
    108          6           0      -14.067127   -3.663917   -4.465871
    109          6           0      -16.667652   -1.487707   -5.784010
    110          6           0      -18.025803   -1.616972   -5.132789
    111          7           0      -15.926306    1.276984   -1.251244
    112          6           0      -15.751653    1.604259   -2.613772
    113          6           0      -15.684402    3.077364   -2.702526
    114          6           0      -15.802446    3.507446   -1.372279
    115          6           0      -15.913706    2.381135   -0.512896
    116          6           0      -15.485249    3.830745   -3.893694
    117          6           0      -15.847564    4.657798   -0.498572
    118          8           0      -15.885158    5.875922   -0.667393
    119          6           0      -15.705258    4.157518    1.003383
    120          6           0      -16.767890    4.837839    1.822222
    121          8           0      -17.971555    4.600926    1.618071
    122          8           0      -16.186383    5.485067    2.848526
    123          6           0      -17.200772    6.166572    3.696118
    124          1           0      -14.674852   -2.175174    3.649956
    125          1           0      -15.676950   -4.624583   -2.007586
    126          1           0      -15.625355    1.112125   -4.561428
    127          1           0      -14.803485    2.760151    3.662831
    128          1           0      -15.004368    0.158190    4.724200
    129          1           0      -12.836448    1.577858    3.232619
    130          1           0      -12.848865   -0.186328    3.028187
    131          1           0      -12.693910    0.453665    4.636306
    132          1           0      -17.192695    1.012190    4.296910
    133          1           0      -17.487517    2.616060    3.531494
    134          1           0      -15.774879    3.008987    5.772036
    135          1           0      -16.811115    1.704115    6.228517
    136          1           0      -15.323665   -4.121158    4.132591
    137          1           0      -14.968299   -5.600578    3.305417
    138          1           0      -16.673072   -5.240936    3.667606
    139          1           0      -15.877019   -7.185094    2.025213
    140          1           0      -17.068096   -8.019970    0.871502
    141          1           0      -17.558922   -6.699515    1.971016
    142          1           0      -16.166013   -3.681062   -4.324961
    143          1           0      -14.642317   -1.297763   -5.249621
    144          1           0      -14.219477   -4.618182   -5.004631
    145          1           0      -13.430504   -3.811486   -3.603628
    146          1           0      -13.447731   -3.037956   -5.105960
    147          1           0      -16.587696   -2.308717   -6.500729
    148          1           0      -16.631407   -0.562274   -6.349043
    149          1           0      -18.159789   -2.700016   -5.054344
    150          1           0      -18.794863   -1.168418   -5.758395
    151          1           0      -18.014129   -1.211648   -4.114345
    152          1           0      -16.176602    4.662052   -3.855541
    153          1           0      -15.643826    3.221176   -4.780848
    154          1           0      -14.436264    4.113864   -3.772304
    155          1           0      -14.700661    4.415403    1.340788
    156          1           0      -16.917008    7.222288    3.747473
    157          1           0      -17.221439    5.603656    4.648195
    158          1           0      -18.210759    6.237595    3.309684
 ---------------------------------------------------------------------
 Rotational constants (GHZ):           0.0202524           0.0016419           0.0016165
 Leave Link  202 at Sat Sep  4 19:08:22 2021, MaxMem= 23488102400 cpu:               0.2 elap:               0.0
 (Enter /sw/apps/gaussian-16.0/g16/l301.exe)
 Standard basis: def2SVP (5D, 7F)
 Ernie: Thresh=  0.10000D-02 Tol=  0.10000D-05 Strict=F.
 There are  1658 symmetry adapted cartesian basis functions of A   symmetry.
 There are  1572 symmetry adapted basis functions of A   symmetry.
  1572 basis functions,  2678 primitive gaussians,  1658 cartesian basis functions
   312 alpha electrons      312 beta electrons
       nuclear repulsion energy     12306.4864718065 Hartrees.
 IExCor=20419 DFT=T Ex+Corr=CAM-B3LYP ExCW=0 ScaHFX=  1.000000
 ScaDFX=  1.000000  1.000000  1.000000  0.810000 ScalE2=  1.000000  1.000000
 IRadAn=      5 IRanWt=     -1 IRanGd=            0 ICorTp=0 IEmpDi=  4
 HFx  wShort=  0.000000 wLong=  0.330000 cFull=  0.190000 cShort=  0.000000 cLong=  0.460000
 DFx  wShort=  0.000000 wLong=  0.330000 cFull=  0.190000 cShort=  0.000000 cLong=  0.460000
 NAtoms=  158 NActive=  158 NUniq=  158 SFac= 1.00D+00 NAtFMM=   60 NAOKFM=T Big=T
 Integral buffers will be    131072 words long.
 Raffenetti 1 integral format.
 Two-electron integral symmetry is turned on.
 Leave Link  301 at Sat Sep  4 19:08:23 2021, MaxMem= 23488102400 cpu:               1.3 elap:               0.1
 (Enter /sw/apps/gaussian-16.0/g16/l302.exe)
 NPDir=0 NMtPBC=     1 NCelOv=     1 NCel=       1 NClECP=     1 NCelD=      1
         NCelK=      1 NCelE2=     1 NClLst=     1 CellRange=     0.0.
 One-electron integrals computed using PRISM.
 One-electron integral symmetry used in STVInt
   1 Symmetry operations used in ECPInt.
 ECPInt:  NShTT=  271216 NPrTT=  987664 LenC2=  103957 LenP2D=  239866.
 LDataN:  DoStor=T MaxTD1= 4 Len=   56
 NBasis=  1572 RedAO= T EigKep=  3.36D-04  NBF=  1572
 NBsUse=  1572 1.00D-06 EigRej= -1.00D+00 NBFU=  1572
 Precomputing XC quadrature grid using
 IXCGrd= 4 IRadAn=           5 IRanWt=          -1 IRanGd=           0 AccXCQ= 0.00D+00.
 Generated NRdTot=       0 NPtTot=           0 NUsed=           0 NTot=          32
 NSgBfM=   812   812   812   812   812 MxSgAt=   158 MxSgA2=    79.
 Leave Link  302 at Sat Sep  4 19:08:27 2021, MaxMem= 23488102400 cpu:             101.2 elap:               4.2
 (Enter /sw/apps/gaussian-16.0/g16/l303.exe)
 DipDrv:  MaxL=1.
 Leave Link  303 at Sat Sep  4 19:08:27 2021, MaxMem= 23488102400 cpu:               8.3 elap:               0.4
 (Enter /sw/apps/gaussian-16.0/g16/l308.exe)
 Leave Link  308 at Sat Sep  4 19:08:28 2021, MaxMem= 23488102400 cpu:              11.8 elap:               0.6
 (Enter /sw/apps/gaussian-16.0/g16/l401.exe)
 ExpMin= 3.36D-02 ExpMax= 4.95D+03 ExpMxC= 7.45D+02 IAcc=3 IRadAn=         5 AccDes= 0.00D+00
 Harris functional with IExCor=20419 and IRadAn=       5 diagonalized for initial guess.
 HarFok:  IExCor=20419 AccDes= 0.00D+00 IRadAn=         5 IDoV= 1 UseB2=F ITyADJ=14
 ICtDFT=  3500011 ScaDFX=  1.000000  1.000000  1.000000  1.000000
 FoFCou: FMM=F IPFlag=           0 FMFlag=      100000 FMFlg1=        2001
         NFxFlg=           0 DoJE=T BraDBF=F KetDBF=T FulRan=T
         wScrn=  0.000000 ICntrl=       500 IOpCl=  0 I1Cent=   200000004 NGrid=           0
         NMat0=    1 NMatS0=      1 NMatT0=    0 NMatD0=    1 NMtDS0=    0 NMtDT0=    0
 Petite list used in FoFCou.
 Harris En= -3918.65800618149    
 JPrj=0 DoOrth=F DoCkMO=F.
 Leave Link  401 at Sat Sep  4 19:08:34 2021, MaxMem= 23488102400 cpu:             155.4 elap:               6.5
 (Enter /sw/apps/gaussian-16.0/g16/l502.exe)
 Integral symmetry usage will be decided dynamically.
 Closed shell SCF:
 Using DIIS extrapolation, IDIIS=  1040.
 NGot= 23488102400 LenX= 23482547354 LenY= 23479796732
 Requested convergence on RMS density matrix=1.00D-08 within 128 cycles.
 Requested convergence on MAX density matrix=1.00D-06.
 Requested convergence on             energy=1.00D-06.
 No special actions if energy rises.
 Fock matrices will be formed incrementally for  20 cycles.

 Cycle   1  Pass 1  IDiag  1:
 FoFJK:  IHMeth= 1 ICntrl=       0 DoSepK=T KAlg= 0 I1Cent=           0 FoldK=F
 IRaf=         1 NMat=       1 IRICut=       1 DoRegI=T DoRafI=F ISym2E= 0 IDoP0=0 IntGTp=1.
 FoFCou: FMM=T IPFlag=           0 FMFlag=      100000 FMFlg1=        2001
         NFxFlg=           0 DoJE=T BraDBF=F KetDBF=F FulRan=T
         wScrn=  0.000000 ICntrl=       500 IOpCl=  0 I1Cent=           0 NGrid=           0
         NMat0=    1 NMatS0=      1 NMatT0=    0 NMatD0=    1 NMtDS0=    0 NMtDT0=    0
 Symmetry not used in FoFCou.
 FMM levels:  10  Number of levels for PrismC:   9
 E= -4068.94926543650    
 DIIS: error= 2.04D-02 at cycle   1 NSaved=   1.
 NSaved= 1 IEnMin= 1 EnMin= -4068.94926543650     IErMin= 1 ErrMin= 2.04D-02
 ErrMax= 2.04D-02  0.00D+00 EMaxC= 1.00D-01 BMatC= 1.69D+00 BMatP= 1.69D+00
 IDIUse=3 WtCom= 7.96D-01 WtEn= 2.04D-01
 Coeff-Com:  0.100D+01
 Coeff-En:   0.100D+01
 Coeff:      0.100D+01
 Gap=     0.120 Goal=   None    Shift=    0.000
 GapD=    0.120 DampG=1.000 DampE=0.500 DampFc=0.5000 IDamp=-1.
 Damping current iteration by 5.00D-01
 RMSDP=1.57D-03 MaxDP=1.35D-01              OVMax= 2.03D-01

 Cycle   2  Pass 1  IDiag  1:
 RMSU=  7.69D-04    CP:  9.82D-01
 E= -4069.33817248728     Delta-E=       -0.388907050779 Rises=F Damp=T
 DIIS: error= 1.27D-02 at cycle   2 NSaved=   2.
 NSaved= 2 IEnMin= 2 EnMin= -4069.33817248728     IErMin= 2 ErrMin= 1.27D-02
 ErrMax= 1.27D-02  0.00D+00 EMaxC= 1.00D-01 BMatC= 3.07D-01 BMatP= 1.69D+00
 IDIUse=3 WtCom= 8.73D-01 WtEn= 1.27D-01
 Coeff-Com: -0.213D+00 0.121D+01
 Coeff-En:   0.000D+00 0.100D+01
 Coeff:     -0.186D+00 0.119D+01
 Gap=     0.138 Goal=   None    Shift=    0.000
 RMSDP=7.65D-04 MaxDP=9.43D-02 DE=-3.89D-01 OVMax= 1.88D-01

 Cycle   3  Pass 1  IDiag  1:
 RMSU=  7.32D-04    CP:  9.68D-01  1.24D+00
 E= -4069.62791215453     Delta-E=       -0.289739667249 Rises=F Damp=F
 DIIS: error= 1.58D-02 at cycle   3 NSaved=   3.
 NSaved= 3 IEnMin= 3 EnMin= -4069.62791215453     IErMin= 2 ErrMin= 1.27D-02
 ErrMax= 1.58D-02  0.00D+00 EMaxC= 1.00D-01 BMatC= 2.02D-01 BMatP= 3.07D-01
 IDIUse=3 WtCom= 8.42D-01 WtEn= 1.58D-01
 Coeff-Com: -0.267D+00 0.652D+00 0.616D+00
 Coeff-En:   0.000D+00 0.000D+00 0.100D+01
 Coeff:     -0.225D+00 0.549D+00 0.676D+00
 Gap=     0.125 Goal=   None    Shift=    0.000
 RMSDP=5.08D-04 MaxDP=4.88D-02 DE=-2.90D-01 OVMax= 1.43D-01

 Cycle   4  Pass 1  IDiag  1:
 RMSU=  2.65D-04    CP:  9.65D-01  1.55D+00  5.06D-01
 E= -4069.76504633977     Delta-E=       -0.137134185234 Rises=F Damp=F
 DIIS: error= 7.31D-03 at cycle   4 NSaved=   4.
 NSaved= 4 IEnMin= 4 EnMin= -4069.76504633977     IErMin= 4 ErrMin= 7.31D-03
 ErrMax= 7.31D-03  0.00D+00 EMaxC= 1.00D-01 BMatC= 5.04D-02 BMatP= 2.02D-01
 IDIUse=3 WtCom= 9.27D-01 WtEn= 7.31D-02
 Coeff-Com: -0.109D+00 0.226D+00 0.409D+00 0.474D+00
 Coeff-En:   0.000D+00 0.000D+00 0.221D+00 0.779D+00
 Coeff:     -0.101D+00 0.209D+00 0.395D+00 0.497D+00
 Gap=     0.123 Goal=   None    Shift=    0.000
 RMSDP=2.00D-04 MaxDP=2.08D-02 DE=-1.37D-01 OVMax= 6.19D-02

 Cycle   5  Pass 1  IDiag  1:
 RMSU=  7.58D-05    CP:  9.64D-01  1.49D+00  6.89D-01  5.49D-01
 E= -4069.81052598809     Delta-E=       -0.045479648328 Rises=F Damp=F
 DIIS: error= 7.87D-04 at cycle   5 NSaved=   5.
 NSaved= 5 IEnMin= 5 EnMin= -4069.81052598809     IErMin= 5 ErrMin= 7.87D-04
 ErrMax= 7.87D-04  0.00D+00 EMaxC= 1.00D-01 BMatC= 1.17D-03 BMatP= 5.04D-02
 IDIUse=3 WtCom= 9.92D-01 WtEn= 7.87D-03
 Coeff-Com: -0.358D-01 0.702D-01 0.165D+00 0.249D+00 0.551D+00
 Coeff-En:   0.000D+00 0.000D+00 0.000D+00 0.000D+00 0.100D+01
 Coeff:     -0.355D-01 0.696D-01 0.164D+00 0.247D+00 0.555D+00
 Gap=     0.123 Goal=   None    Shift=    0.000
 RMSDP=4.07D-05 MaxDP=4.17D-03 DE=-4.55D-02 OVMax= 1.65D-02

 Cycle   6  Pass 1  IDiag  1:
 RMSU=  3.02D-05    CP:  9.64D-01  1.49D+00  6.81D-01  6.21D-01  7.59D-01
 E= -4069.81153408639     Delta-E=       -0.001008098292 Rises=F Damp=F
 DIIS: error= 2.18D-04 at cycle   6 NSaved=   6.
 NSaved= 6 IEnMin= 6 EnMin= -4069.81153408639     IErMin= 6 ErrMin= 2.18D-04
 ErrMax= 2.18D-04  0.00D+00 EMaxC= 1.00D-01 BMatC= 1.76D-04 BMatP= 1.17D-03
 IDIUse=3 WtCom= 9.98D-01 WtEn= 2.18D-03
 Coeff-Com:  0.231D-02-0.677D-02 0.109D-01 0.398D-01 0.306D+00 0.648D+00
 Coeff-En:   0.000D+00 0.000D+00 0.000D+00 0.000D+00 0.103D+00 0.897D+00
 Coeff:      0.230D-02-0.676D-02 0.108D-01 0.397D-01 0.306D+00 0.648D+00
 Gap=     0.123 Goal=   None    Shift=    0.000
 RMSDP=1.58D-05 MaxDP=1.24D-03 DE=-1.01D-03 OVMax= 7.27D-03

 Cycle   7  Pass 1  IDiag  1:
 RMSU=  1.07D-05    CP:  9.64D-01  1.50D+00  6.87D-01  6.21D-01  8.60D-01
                    CP:  7.49D-01
 E= -4069.81172291958     Delta-E=       -0.000188833192 Rises=F Damp=F
 DIIS: error= 8.40D-05 at cycle   7 NSaved=   7.
 NSaved= 7 IEnMin= 7 EnMin= -4069.81172291958     IErMin= 7 ErrMin= 8.40D-05
 ErrMax= 8.40D-05  0.00D+00 EMaxC= 1.00D-01 BMatC= 2.07D-05 BMatP= 1.76D-04
 IDIUse=1 WtCom= 1.00D+00 WtEn= 0.00D+00
 Coeff-Com:  0.446D-02-0.974D-02-0.898D-02-0.382D-02 0.102D+00 0.329D+00
 Coeff-Com:  0.587D+00
 Coeff:      0.446D-02-0.974D-02-0.898D-02-0.382D-02 0.102D+00 0.329D+00
 Coeff:      0.587D+00
 Gap=     0.123 Goal=   None    Shift=    0.000
 RMSDP=6.50D-06 MaxDP=1.11D-03 DE=-1.89D-04 OVMax= 3.42D-03

 Cycle   8  Pass 1  IDiag  1:
 RMSU=  4.67D-06    CP:  9.64D-01  1.50D+00  6.88D-01  6.26D-01  8.64D-01
                    CP:  8.75D-01  8.23D-01
 E= -4069.81174864557     Delta-E=       -0.000025725994 Rises=F Damp=F
 DIIS: error= 5.03D-05 at cycle   8 NSaved=   8.
 NSaved= 8 IEnMin= 8 EnMin= -4069.81174864557     IErMin= 8 ErrMin= 5.03D-05
 ErrMax= 5.03D-05  0.00D+00 EMaxC= 1.00D-01 BMatC= 4.81D-06 BMatP= 2.07D-05
 IDIUse=1 WtCom= 1.00D+00 WtEn= 0.00D+00
 Coeff-Com:  0.215D-02-0.426D-02-0.774D-02-0.121D-01-0.117D-01 0.334D-01
 Coeff-Com:  0.344D+00 0.656D+00
 Coeff:      0.215D-02-0.426D-02-0.774D-02-0.121D-01-0.117D-01 0.334D-01
 Coeff:      0.344D+00 0.656D+00
 Gap=     0.123 Goal=   None    Shift=    0.000
 RMSDP=3.27D-06 MaxDP=3.56D-04 DE=-2.57D-05 OVMax= 1.11D-03

 Cycle   9  Pass 1  IDiag  1:
 RMSU=  1.91D-06    CP:  9.64D-01  1.50D+00  6.88D-01  6.27D-01  8.81D-01
                    CP:  9.01D-01  1.02D+00  9.40D-01
 E= -4069.81175633511     Delta-E=       -0.000007689536 Rises=F Damp=F
 DIIS: error= 1.94D-05 at cycle   9 NSaved=   9.
 NSaved= 9 IEnMin= 9 EnMin= -4069.81175633511     IErMin= 9 ErrMin= 1.94D-05
 ErrMax= 1.94D-05  0.00D+00 EMaxC= 1.00D-01 BMatC= 6.86D-07 BMatP= 4.81D-06
 IDIUse=1 WtCom= 1.00D+00 WtEn= 0.00D+00
 Coeff-Com:  0.462D-03-0.767D-03-0.266D-02-0.598D-02-0.212D-01-0.386D-01
 Coeff-Com:  0.104D+00 0.326D+00 0.639D+00
 Coeff:      0.462D-03-0.767D-03-0.266D-02-0.598D-02-0.212D-01-0.386D-01
 Coeff:      0.104D+00 0.326D+00 0.639D+00
 Gap=     0.123 Goal=   None    Shift=    0.000
 RMSDP=1.41D-06 MaxDP=1.50D-04 DE=-7.69D-06 OVMax= 7.46D-04

 Cycle  10  Pass 1  IDiag  1:
 RMSU=  9.37D-07    CP:  9.64D-01  1.50D+00  6.88D-01  6.28D-01  8.84D-01
                    CP:  9.15D-01  1.07D+00  1.11D+00  1.05D+00
 E= -4069.81175791813     Delta-E=       -0.000001583017 Rises=F Damp=F
 DIIS: error= 1.02D-05 at cycle  10 NSaved=  10.
 NSaved=10 IEnMin=10 EnMin= -4069.81175791813     IErMin=10 ErrMin= 1.02D-05
 ErrMax= 1.02D-05  0.00D+00 EMaxC= 1.00D-01 BMatC= 1.71D-07 BMatP= 6.86D-07
 IDIUse=1 WtCom= 1.00D+00 WtEn= 0.00D+00
 Coeff-Com: -0.427D-03 0.894D-03 0.123D-02 0.112D-02-0.376D-02-0.309D-01
 Coeff-Com: -0.465D-01-0.764D-01 0.255D+00 0.900D+00
 Coeff:     -0.427D-03 0.894D-03 0.123D-02 0.112D-02-0.376D-02-0.309D-01
 Coeff:     -0.465D-01-0.764D-01 0.255D+00 0.900D+00
 Gap=     0.123 Goal=   None    Shift=    0.000
 RMSDP=1.22D-06 MaxDP=1.25D-04 DE=-1.58D-06 OVMax= 6.07D-04

 Cycle  11  Pass 1  IDiag  1:
 RMSU=  5.15D-07    CP:  9.64D-01  1.50D+00  6.88D-01  6.28D-01  8.86D-01
                    CP:  9.25D-01  1.11D+00  1.22D+00  1.39D+00  1.37D+00
 E= -4069.81175870380     Delta-E=       -0.000000785672 Rises=F Damp=F
 DIIS: error= 3.96D-06 at cycle  11 NSaved=  11.
 NSaved=11 IEnMin=11 EnMin= -4069.81175870380     IErMin=11 ErrMin= 3.96D-06
 ErrMax= 3.96D-06  0.00D+00 EMaxC= 1.00D-01 BMatC= 6.10D-08 BMatP= 1.71D-07
 IDIUse=1 WtCom= 1.00D+00 WtEn= 0.00D+00
 Coeff-Com: -0.326D-03 0.635D-03 0.132D-02 0.212D-02 0.441D-02-0.834D-02
 Coeff-Com: -0.435D-01-0.132D+00-0.235D-01 0.465D+00 0.734D+00
 Coeff:     -0.326D-03 0.635D-03 0.132D-02 0.212D-02 0.441D-02-0.834D-02
 Coeff:     -0.435D-01-0.132D+00-0.235D-01 0.465D+00 0.734D+00
 Gap=     0.123 Goal=   None    Shift=    0.000
 RMSDP=6.86D-07 MaxDP=5.80D-05 DE=-7.86D-07 OVMax= 3.71D-04

 Cycle  12  Pass 1  IDiag  1:
 RMSU=  2.62D-07    CP:  9.64D-01  1.50D+00  6.88D-01  6.28D-01  8.87D-01
                    CP:  9.27D-01  1.14D+00  1.28D+00  1.56D+00  1.76D+00
                    CP:  1.20D+00
 E= -4069.81175896584     Delta-E=       -0.000000262044 Rises=F Damp=F
 DIIS: error= 2.36D-06 at cycle  12 NSaved=  12.
 NSaved=12 IEnMin=12 EnMin= -4069.81175896584     IErMin=12 ErrMin= 2.36D-06
 ErrMax= 2.36D-06  0.00D+00 EMaxC= 1.00D-01 BMatC= 1.48D-08 BMatP= 6.10D-08
 IDIUse=1 WtCom= 1.00D+00 WtEn= 0.00D+00
 Coeff-Com:  0.380D-06-0.173D-04 0.178D-03 0.508D-03 0.330D-02 0.406D-02
 Coeff-Com:  0.284D-02-0.347D-01-0.680D-01-0.758D-01 0.250D+00 0.918D+00
 Coeff:      0.380D-06-0.173D-04 0.178D-03 0.508D-03 0.330D-02 0.406D-02
 Coeff:      0.284D-02-0.347D-01-0.680D-01-0.758D-01 0.250D+00 0.918D+00
 Gap=     0.123 Goal=   None    Shift=    0.000
 RMSDP=4.37D-07 MaxDP=3.11D-05 DE=-2.62D-07 OVMax= 2.48D-04

 Cycle  13  Pass 1  IDiag  1:
 RMSU=  1.65D-07    CP:  9.64D-01  1.50D+00  6.88D-01  6.28D-01  8.87D-01
                    CP:  9.28D-01  1.14D+00  1.31D+00  1.67D+00  1.99D+00
                    CP:  1.61D+00  1.27D+00
 E= -4069.81175905778     Delta-E=       -0.000000091937 Rises=F Damp=F
 DIIS: error= 1.23D-06 at cycle  13 NSaved=  13.
 NSaved=13 IEnMin=13 EnMin= -4069.81175905778     IErMin=13 ErrMin= 1.23D-06
 ErrMax= 1.23D-06  0.00D+00 EMaxC= 1.00D-01 BMatC= 8.11D-09 BMatP= 1.48D-08
 IDIUse=1 WtCom= 1.00D+00 WtEn= 0.00D+00
 Coeff-Com:  0.120D-03-0.245D-03-0.370D-03-0.457D-03 0.570D-03 0.508D-02
 Coeff-Com:  0.197D-01 0.228D-01-0.340D-01-0.241D+00-0.156D+00 0.599D+00
 Coeff-Com:  0.785D+00
 Coeff:      0.120D-03-0.245D-03-0.370D-03-0.457D-03 0.570D-03 0.508D-02
 Coeff:      0.197D-01 0.228D-01-0.340D-01-0.241D+00-0.156D+00 0.599D+00
 Coeff:      0.785D+00
 Gap=     0.123 Goal=   None    Shift=    0.000
 RMSDP=3.39D-07 MaxDP=2.29D-05 DE=-9.19D-08 OVMax= 1.96D-04

 Cycle  14  Pass 1  IDiag  1:
 RMSU=  7.60D-08    CP:  9.64D-01  1.50D+00  6.88D-01  6.28D-01  8.88D-01
                    CP:  9.28D-01  1.15D+00  1.33D+00  1.74D+00  2.18D+00
                    CP:  1.88D+00  1.79D+00  1.09D+00
 E= -4069.81175909361     Delta-E=       -0.000000035836 Rises=F Damp=F
 DIIS: error= 6.29D-07 at cycle  14 NSaved=  14.
 NSaved=14 IEnMin=14 EnMin= -4069.81175909361     IErMin=14 ErrMin= 6.29D-07
 ErrMax= 6.29D-07  0.00D+00 EMaxC= 1.00D-01 BMatC= 1.25D-09 BMatP= 8.11D-09
 IDIUse=1 WtCom= 1.00D+00 WtEn= 0.00D+00
 Coeff-Com:  0.662D-04-0.130D-03-0.246D-03-0.386D-03-0.483D-03 0.129D-02
 Coeff-Com:  0.107D-01 0.192D-01 0.368D-02-0.995D-01-0.142D+00 0.936D-01
 Coeff-Com:  0.404D+00 0.710D+00
 Coeff:      0.662D-04-0.130D-03-0.246D-03-0.386D-03-0.483D-03 0.129D-02
 Coeff:      0.107D-01 0.192D-01 0.368D-02-0.995D-01-0.142D+00 0.936D-01
 Coeff:      0.404D+00 0.710D+00
 Gap=     0.123 Goal=   None    Shift=    0.000
 RMSDP=1.01D-07 MaxDP=6.68D-06 DE=-3.58D-08 OVMax= 5.44D-05

 Cycle  15  Pass 1  IDiag  1:
 RMSU=  3.82D-08    CP:  9.64D-01  1.50D+00  6.88D-01  6.28D-01  8.88D-01
                    CP:  9.28D-01  1.15D+00  1.34D+00  1.76D+00  2.22D+00
                    CP:  1.98D+00  1.92D+00  1.33D+00  1.03D+00
 E= -4069.81175909764     Delta-E=       -0.000000004029 Rises=F Damp=F
 DIIS: error= 3.41D-07 at cycle  15 NSaved=  15.
 NSaved=15 IEnMin=15 EnMin= -4069.81175909764     IErMin=15 ErrMin= 3.41D-07
 ErrMax= 3.41D-07  0.00D+00 EMaxC= 1.00D-01 BMatC= 2.25D-10 BMatP= 1.25D-09
 IDIUse=1 WtCom= 1.00D+00 WtEn= 0.00D+00
 Coeff-Com:  0.515D-05-0.852D-05-0.319D-04-0.807D-04-0.299D-03-0.516D-03
 Coeff-Com:  0.111D-02 0.250D-02 0.875D-02 0.191D-02-0.306D-01-0.731D-01
 Coeff-Com:  0.286D-01 0.297D+00 0.765D+00
 Coeff:      0.515D-05-0.852D-05-0.319D-04-0.807D-04-0.299D-03-0.516D-03
 Coeff:      0.111D-02 0.250D-02 0.875D-02 0.191D-02-0.306D-01-0.731D-01
 Coeff:      0.286D-01 0.297D+00 0.765D+00
 Gap=     0.123 Goal=   None    Shift=    0.000
 RMSDP=4.06D-08 MaxDP=2.72D-06 DE=-4.03D-09 OVMax= 2.68D-05

 Cycle  16  Pass 1  IDiag  1:
 RMSU=  1.87D-08    CP:  9.64D-01  1.50D+00  6.88D-01  6.28D-01  8.88D-01
                    CP:  9.28D-01  1.15D+00  1.34D+00  1.76D+00  2.24D+00
                    CP:  2.01D+00  1.99D+00  1.40D+00  1.24D+00  1.14D+00
 E= -4069.81175909822     Delta-E=       -0.000000000577 Rises=F Damp=F
 DIIS: error= 1.68D-07 at cycle  16 NSaved=  16.
 NSaved=16 IEnMin=16 EnMin= -4069.81175909822     IErMin=16 ErrMin= 1.68D-07
 ErrMax= 1.68D-07  0.00D+00 EMaxC= 1.00D-01 BMatC= 8.13D-11 BMatP= 2.25D-10
 IDIUse=1 WtCom= 1.00D+00 WtEn= 0.00D+00
 Coeff-Com: -0.142D-04 0.288D-04 0.470D-04 0.538D-04-0.266D-04-0.633D-03
 Coeff-Com: -0.198D-02-0.426D-02 0.453D-02 0.256D-01 0.207D-01-0.646D-01
 Coeff-Com: -0.833D-01-0.373D-01 0.398D+00 0.744D+00
 Coeff:     -0.142D-04 0.288D-04 0.470D-04 0.538D-04-0.266D-04-0.633D-03
 Coeff:     -0.198D-02-0.426D-02 0.453D-02 0.256D-01 0.207D-01-0.646D-01
 Coeff:     -0.833D-01-0.373D-01 0.398D+00 0.744D+00
 Gap=     0.123 Goal=   None    Shift=    0.000
 RMSDP=2.29D-08 MaxDP=1.59D-06 DE=-5.77D-10 OVMax= 1.31D-05

 Cycle  17  Pass 1  IDiag  1:
 RMSU=  1.04D-08    CP:  9.64D-01  1.50D+00  6.88D-01  6.28D-01  8.88D-01
                    CP:  9.28D-01  1.15D+00  1.34D+00  1.77D+00  2.24D+00
                    CP:  2.02D+00  2.01D+00  1.45D+00  1.34D+00  1.44D+00
                    CP:  1.25D+00
 E= -4069.81175909877     Delta-E=       -0.000000000555 Rises=F Damp=F
 DIIS: error= 9.52D-08 at cycle  17 NSaved=  17.
 NSaved=17 IEnMin=17 EnMin= -4069.81175909877     IErMin=17 ErrMin= 9.52D-08
 ErrMax= 9.52D-08  0.00D+00 EMaxC= 1.00D-01 BMatC= 1.77D-11 BMatP= 8.13D-11
 IDIUse=1 WtCom= 1.00D+00 WtEn= 0.00D+00
 Coeff-Com: -0.718D-05 0.140D-04 0.285D-04 0.425D-04 0.840D-04-0.122D-03
 Coeff-Com: -0.960D-03-0.280D-02 0.134D-03 0.920D-02 0.174D-01-0.721D-02
 Coeff-Com: -0.368D-01-0.102D+00-0.318D-01 0.294D+00 0.860D+00
 Coeff:     -0.718D-05 0.140D-04 0.285D-04 0.425D-04 0.840D-04-0.122D-03
 Coeff:     -0.960D-03-0.280D-02 0.134D-03 0.920D-02 0.174D-01-0.721D-02
 Coeff:     -0.368D-01-0.102D+00-0.318D-01 0.294D+00 0.860D+00
 Gap=     0.123 Goal=   None    Shift=    0.000
 RMSDP=1.37D-08 MaxDP=1.07D-06 DE=-5.55D-10 OVMax= 8.86D-06

 Cycle  18  Pass 1  IDiag  1:
 RMSU=  4.86D-09    CP:  9.64D-01  1.50D+00  6.88D-01  6.28D-01  8.88D-01
                    CP:  9.28D-01  1.15D+00  1.34D+00  1.77D+00  2.24D+00
                    CP:  2.02D+00  2.02D+00  1.47D+00  1.41D+00  1.61D+00
                    CP:  1.66D+00  1.39D+00
 E= -4069.81175909873     Delta-E=        0.000000000049 Rises=F Damp=F
 DIIS: error= 5.02D-08 at cycle  18 NSaved=  18.
 NSaved=18 IEnMin=17 EnMin= -4069.81175909877     IErMin=18 ErrMin= 5.02D-08
 ErrMax= 5.02D-08  0.00D+00 EMaxC= 1.00D-01 BMatC= 6.87D-12 BMatP= 1.77D-11
 IDIUse=1 WtCom= 1.00D+00 WtEn= 0.00D+00
 Coeff-Com:  0.207D-05-0.446D-05-0.466D-05-0.184D-05 0.590D-04 0.184D-03
 Coeff-Com:  0.407D-03 0.234D-03-0.129D-02-0.622D-02-0.168D-03 0.203D-01
 Coeff-Com:  0.186D-01-0.324D-01-0.163D+00-0.193D+00 0.348D+00 0.101D+01
 Coeff:      0.207D-05-0.446D-05-0.466D-05-0.184D-05 0.590D-04 0.184D-03
 Coeff:      0.407D-03 0.234D-03-0.129D-02-0.622D-02-0.168D-03 0.203D-01
 Coeff:      0.186D-01-0.324D-01-0.163D+00-0.193D+00 0.348D+00 0.101D+01
 Gap=     0.123 Goal=   None    Shift=    0.000
 RMSDP=1.18D-08 MaxDP=8.10D-07 DE= 4.91D-11 OVMax= 6.86D-06

 Cycle  19  Pass 1  IDiag  1:
 RMSU=  2.78D-09    CP:  9.64D-01  1.50D+00  6.88D-01  6.28D-01  8.88D-01
                    CP:  9.28D-01  1.15D+00  1.34D+00  1.77D+00  2.24D+00
                    CP:  2.03D+00  2.02D+00  1.48D+00  1.46D+00  1.77D+00
                    CP:  1.99D+00  1.94D+00  1.38D+00
 E= -4069.81175909864     Delta-E=        0.000000000089 Rises=F Damp=F
 DIIS: error= 3.53D-08 at cycle  19 NSaved=  19.
 NSaved=19 IEnMin=17 EnMin= -4069.81175909877     IErMin=19 ErrMin= 3.53D-08
 ErrMax= 3.53D-08  0.00D+00 EMaxC= 1.00D-01 BMatC= 1.40D-12 BMatP= 6.87D-12
 IDIUse=1 WtCom= 1.00D+00 WtEn= 0.00D+00
 Coeff-Com:  0.287D-05-0.578D-05-0.982D-05-0.123D-04 0.107D-04 0.118D-03
 Coeff-Com:  0.472D-03 0.791D-03-0.590D-03-0.591D-02-0.480D-02 0.119D-01
 Coeff-Com:  0.200D-01 0.114D-01-0.681D-01-0.176D+00-0.343D-01 0.488D+00
 Coeff-Com:  0.757D+00
 Coeff:      0.287D-05-0.578D-05-0.982D-05-0.123D-04 0.107D-04 0.118D-03
 Coeff:      0.472D-03 0.791D-03-0.590D-03-0.591D-02-0.480D-02 0.119D-01
 Coeff:      0.200D-01 0.114D-01-0.681D-01-0.176D+00-0.343D-01 0.488D+00
 Coeff:      0.757D+00
 Gap=     0.123 Goal=   None    Shift=    0.000
 RMSDP=4.51D-09 MaxDP=3.26D-07 DE= 8.91D-11 OVMax= 2.88D-06

 SCF Done:  E(RCAM-B3LYP) =  -4069.81175910     A.U. after   19 cycles
            NFock= 19  Conv=0.45D-08     -V/T= 2.0102
 KE= 4.028802087990D+03 PE=-3.409380115213D+04 EE= 1.368870083324D+04
 Leave Link  502 at Sat Sep  4 19:16:54 2021, MaxMem= 23488102400 cpu:           11408.5 elap:             500.0
 (Enter /sw/apps/gaussian-16.0/g16/l801.exe)
 DoSCS=F DFT=T ScalE2(SS,OS)=  1.000000  1.000000
 ExpMin= 3.36D-02 ExpMax= 4.95D+03 ExpMxC= 7.45D+02 IAcc=3 IRadAn=         5 AccDes= 0.00D+00
 HarFok:  IExCor=  205 AccDes= 0.00D+00 IRadAn=         5 IDoV=-2 UseB2=F ITyADJ=14
 ICtDFT= 12500011 ScaDFX=  1.000000  1.000000  1.000000  1.000000
 GSVD:  LWork=       -9588 too small for GESVD, short by       45590 words or       45590 for optimal perf.
 Largest valence mixing into a core orbital is  2.03D-04
 Largest core mixing into a valence orbital is  5.24D-05
 Range of M.O.s used for correlation:    95  1572
 NBasis=  1572 NAE=   312 NBE=   312 NFC=    94 NFV=     0
 NROrb=   1478 NOA=   218 NOB=   218 NVA=  1260 NVB=  1260
 Leave Link  801 at Sat Sep  4 19:16:55 2021, MaxMem= 23488102400 cpu:               8.5 elap:               0.4
 (Enter /sw/apps/gaussian-16.0/g16/l914.exe)
 RHF ground state
 Two-electron integrals replicated using symmetry.
 MDV= 23488102400 DFT=T DoStab=F Mixed=T DoRPA=T DoScal=F NonHer=T
 Making orbital integer symmetry assigments:
 Orbital symmetries:
       Occupied  (A) (A) (A) (A) (A) (A) (A) (A) (A) (A) (A) (A)
                 (A) (A) (A) (A) (A) (A) (A) (A) (A) (A) (A) (A)
                 (A) (A) (A) (A) (A) (A) (A) (A) (A) (A) (A) (A)
                 (A) (A) (A) (A) (A) (A) (A) (A) (A) (A) (A) (A)
                 (A) (A) (A) (A) (A) (A) (A) (A) (A) (A) (A) (A)
                 (A) (A) (A) (A) (A) (A) (A) (A) (A) (A) (A) (A)
                 (A) (A) (A) (A) (A) (A) (A) (A) (A) (A) (A) (A)
                 (A) (A) (A) (A) (A) (A) (A) (A) (A) (A) (A) (A)
                 (A) (A) (A) (A) (A) (A) (A) (A) (A) (A) (A) (A)
                 (A) (A) (A) (A) (A) (A) (A) (A) (A) (A) (A) (A)
                 (A) (A) (A) (A) (A) (A) (A) (A) (A) (A) (A) (A)
                 (A) (A) (A) (A) (A) (A) (A) (A) (A) (A) (A) (A)
                 (A) (A) (A) (A) (A) (A) (A) (A) (A) (A) (A) (A)
                 (A) (A) (A) (A) (A) (A) (A) (A) (A) (A) (A) (A)
                 (A) (A) (A) (A) (A) (A) (A) (A) (A) (A) (A) (A)
                 (A) (A) (A) (A) (A) (A) (A) (A) (A) (A) (A) (A)
                 (A) (A) (A) (A) (A) (A) (A) (A) (A) (A) (A) (A)
                 (A) (A) (A) (A) (A) (A) (A) (A) (A) (A) (A) (A)
                 (A) (A) (A) (A) (A) (A) (A) (A) (A) (A) (A) (A)
                 (A) (A) (A) (A) (A) (A) (A) (A) (A) (A) (A) (A)
                 (A) (A) (A) (A) (A) (A) (A) (A) (A) (A) (A) (A)
                 (A) (A) (A) (A) (A) (A) (A) (A) (A) (A) (A) (A)
                 (A) (A) (A) (A) (A) (A) (A) (A) (A) (A) (A) (A)
                 (A) (A) (A) (A) (A) (A) (A) (A) (A) (A) (A) (A)
                 (A) (A) (A) (A) (A) (A) (A) (A) (A) (A) (A) (A)
                 (A) (A) (A) (A) (A) (A) (A) (A) (A) (A) (A) (A)
       Virtual   (A) (A) (A) (A) (A) (A) (A) (A) (A) (A) (A) (A)
                 (A) (A) (A) (A) (A) (A) (A) (A) (A) (A) (A) (A)
                 (A) (A) (A) (A) (A) (A) (A) (A) (A) (A) (A) (A)
                 (A) (A) (A) (A) (A) (A) (A) (A) (A) (A) (A) (A)
                 (A) (A) (A) (A) (A) (A) (A) (A) (A) (A) (A) (A)
                 (A) (A) (A) (A) (A) (A) (A) (A) (A) (A) (A) (A)
                 (A) (A) (A) (A) (A) (A) (A) (A) (A) (A) (A) (A)
                 (A) (A) (A) (A) (A) (A) (A) (A) (A) (A) (A) (A)
                 (A) (A) (A) (A) (A) (A) (A) (A) (A) (A) (A) (A)
                 (A) (A) (A) (A) (A) (A) (A) (A) (A) (A) (A) (A)
                 (A) (A) (A) (A) (A) (A) (A) (A) (A) (A) (A) (A)
                 (A) (A) (A) (A) (A) (A) (A) (A) (A) (A) (A) (A)
                 (A) (A) (A) (A) (A) (A) (A) (A) (A) (A) (A) (A)
                 (A) (A) (A) (A) (A) (A) (A) (A) (A) (A) (A) (A)
                 (A) (A) (A) (A) (A) (A) (A) (A) (A) (A) (A) (A)
                 (A) (A) (A) (A) (A) (A) (A) (A) (A) (A) (A) (A)
                 (A) (A) (A) (A) (A) (A) (A) (A) (A) (A) (A) (A)
                 (A) (A) (A) (A) (A) (A) (A) (A) (A) (A) (A) (A)
                 (A) (A) (A) (A) (A) (A) (A) (A) (A) (A) (A) (A)
                 (A) (A) (A) (A) (A) (A) (A) (A) (A) (A) (A) (A)
                 (A) (A) (A) (A) (A) (A) (A) (A) (A) (A) (A) (A)
                 (A) (A) (A) (A) (A) (A) (A) (A) (A) (A) (A) (A)
                 (A) (A) (A) (A) (A) (A) (A) (A) (A) (A) (A) (A)
                 (A) (A) (A) (A) (A) (A) (A) (A) (A) (A) (A) (A)
                 (A) (A) (A) (A) (A) (A) (A) (A) (A) (A) (A) (A)
                 (A) (A) (A) (A) (A) (A) (A) (A) (A) (A) (A) (A)
                 (A) (A) (A) (A) (A) (A) (A) (A) (A) (A) (A) (A)
                 (A) (A) (A) (A) (A) (A) (A) (A) (A) (A) (A) (A)
                 (A) (A) (A) (A) (A) (A) (A) (A) (A) (A) (A) (A)
                 (A) (A) (A) (A) (A) (A) (A) (A) (A) (A) (A) (A)
                 (A) (A) (A) (A) (A) (A) (A) (A) (A) (A) (A) (A)
                 (A) (A) (A) (A) (A) (A) (A) (A) (A) (A) (A) (A)
                 (A) (A) (A) (A) (A) (A) (A) (A) (A) (A) (A) (A)
                 (A) (A) (A) (A) (A) (A) (A) (A) (A) (A) (A) (A)
                 (A) (A) (A) (A) (A) (A) (A) (A) (A) (A) (A) (A)
                 (A) (A) (A) (A) (A) (A) (A) (A) (A) (A) (A) (A)
                 (A) (A) (A) (A) (A) (A) (A) (A) (A) (A) (A) (A)
                 (A) (A) (A) (A) (A) (A) (A) (A) (A) (A) (A) (A)
                 (A) (A) (A) (A) (A) (A) (A) (A) (A) (A) (A) (A)
                 (A) (A) (A) (A) (A) (A) (A) (A) (A) (A) (A) (A)
                 (A) (A) (A) (A) (A) (A) (A) (A) (A) (A) (A) (A)
                 (A) (A) (A) (A) (A) (A) (A) (A) (A) (A) (A) (A)
                 (A) (A) (A) (A) (A) (A) (A) (A) (A) (A) (A) (A)
                 (A) (A) (A) (A) (A) (A) (A) (A) (A) (A) (A) (A)
                 (A) (A) (A) (A) (A) (A) (A) (A) (A) (A) (A) (A)
                 (A) (A) (A) (A) (A) (A) (A) (A) (A) (A) (A) (A)
                 (A) (A) (A) (A) (A) (A) (A) (A) (A) (A) (A) (A)
                 (A) (A) (A) (A) (A) (A) (A) (A) (A) (A) (A) (A)
                 (A) (A) (A) (A) (A) (A) (A) (A) (A) (A) (A) (A)
                 (A) (A) (A) (A) (A) (A) (A) (A) (A) (A) (A) (A)
                 (A) (A) (A) (A) (A) (A) (A) (A) (A) (A) (A) (A)
                 (A) (A) (A) (A) (A) (A) (A) (A) (A) (A) (A) (A)
                 (A) (A) (A) (A) (A) (A) (A) (A) (A) (A) (A) (A)
                 (A) (A) (A) (A) (A) (A) (A) (A) (A) (A) (A) (A)
                 (A) (A) (A) (A) (A) (A) (A) (A) (A) (A) (A) (A)
                 (A) (A) (A) (A) (A) (A) (A) (A) (A) (A) (A) (A)
                 (A) (A) (A) (A) (A) (A) (A) (A) (A) (A) (A) (A)
                 (A) (A) (A) (A) (A) (A) (A) (A) (A) (A) (A) (A)
                 (A) (A) (A) (A) (A) (A) (A) (A) (A) (A) (A) (A)
                 (A) (A) (A) (A) (A) (A) (A) (A) (A) (A) (A) (A)
                 (A) (A) (A) (A) (A) (A) (A) (A) (A) (A) (A) (A)
                 (A) (A) (A) (A) (A) (A) (A) (A) (A) (A) (A) (A)
                 (A) (A) (A) (A) (A) (A) (A) (A) (A) (A) (A) (A)
                 (A) (A) (A) (A) (A) (A) (A) (A) (A) (A) (A) (A)
                 (A) (A) (A) (A) (A) (A) (A) (A) (A) (A) (A) (A)
                 (A) (A) (A) (A) (A) (A) (A) (A) (A) (A) (A) (A)
                 (A) (A) (A) (A) (A) (A) (A) (A) (A) (A) (A) (A)
                 (A) (A) (A) (A) (A) (A) (A) (A) (A) (A) (A) (A)
                 (A) (A) (A) (A) (A) (A) (A) (A) (A) (A) (A) (A)
                 (A) (A) (A) (A) (A) (A) (A) (A) (A) (A) (A) (A)
                 (A) (A) (A) (A) (A) (A) (A) (A) (A) (A) (A) (A)
                 (A) (A) (A) (A) (A) (A) (A) (A) (A) (A) (A) (A)
                 (A) (A) (A) (A) (A) (A) (A) (A) (A) (A) (A) (A)
                 (A) (A) (A) (A) (A) (A) (A) (A) (A) (A) (A) (A)
                 (A) (A) (A) (A) (A) (A) (A) (A) (A) (A) (A) (A)
                 (A) (A) (A) (A) (A) (A) (A) (A) (A) (A) (A) (A)
                 (A) (A) (A) (A) (A) (A) (A) (A) (A) (A) (A) (A)
                 (A) (A) (A) (A) (A) (A) (A) (A) (A) (A) (A) (A)
                 (A) (A) (A) (A) (A) (A) (A) (A) (A) (A) (A) (A)
                 (A) (A) (A) (A) (A) (A) (A) (A) (A) (A) (A) (A)
                 (A) (A) (A) (A) (A) (A) (A) (A) (A) (A) (A) (A)
                 (A) (A) (A) (A) (A) (A) (A) (A) (A) (A) (A) (A)
                 (A) (A) (A) (A) (A) (A) (A) (A) (A) (A) (A) (A)
                 (A) (A) (A) (A) (A) (A) (A) (A) (A) (A) (A) (A)
                 (A) (A) (A) (A) (A) (A) (A) (A) (A) (A) (A) (A)
                 (A) (A) (A) (A) (A) (A) (A) (A) (A) (A) (A) (A)
                 (A) (A) (A) (A) (A) (A) (A) (A) (A) (A) (A) (A)
                 (A) (A) (A) (A) (A) (A) (A) (A) (A) (A) (A) (A)
                 (A) (A) (A) (A) (A) (A) (A) (A) (A) (A) (A) (A)
                 (A) (A) (A) (A) (A) (A) (A) (A) (A) (A) (A) (A)
                 (A) (A) (A) (A) (A) (A) (A) (A) (A) (A) (A) (A)
                 (A) (A) (A) (A) (A) (A) (A) (A) (A) (A) (A) (A)
                 (A) (A) (A) (A) (A) (A) (A) (A) (A) (A) (A) (A)
                 (A) (A) (A) (A) (A) (A) (A) (A) (A) (A) (A) (A)
                 (A) (A) (A) (A) (A) (A) (A) (A) (A) (A) (A) (A)
                 (A) (A) (A) (A) (A) (A) (A) (A) (A) (A) (A) (A)
                 (A) (A) (A) (A) (A) (A) (A) (A) (A) (A) (A) (A)
                 (A) (A) (A) (A) (A) (A) (A) (A) (A) (A) (A) (A)
                 (A) (A) (A) (A) (A) (A) (A) (A) (A) (A) (A) (A)
                 (A) (A) (A) (A) (A) (A) (A) (A) (A) (A) (A) (A)
                 (A) (A) (A) (A) (A) (A) (A) (A) (A) (A) (A) (A)
                 (A) (A) (A) (A) (A) (A) (A) (A) (A) (A) (A) (A)
                 (A) (A) (A) (A) (A) (A) (A) (A) (A) (A) (A) (A)
                 (A) (A) (A) (A) (A) (A) (A) (A) (A) (A) (A) (A)
                 (A) (A) (A) (A) (A) (A) (A) (A) (A) (A) (A) (A)
    20 initial guesses have been made.
 Convergence on wavefunction:    0.001000000000000
 Davidson Disk Diagonalization:  ConvIn= 1.00D-03 SkipCon=T Conv= 1.00D-03.
 Max sub-space:  2000 roots to seek:    20 dimension of matrix:       549360
 Iteration     1 Dimension    20 NMult     0 NNew     20
 CISAX will form    20 AO SS matrices at one time.
 NMat=    20 NSing=    20 JSym2X= 0.
 FoFJK:  IHMeth= 1 ICntrl=       0 DoSepK=T KAlg= 0 I1Cent=           0 FoldK=F
 IRaf=         1 NMat=      40 IRICut=       1 DoRegI=T DoRafI=F ISym2E= 0 IDoP0=3 IntGTp=3.
 FoFCou: FMM=T IPFlag=           0 FMFlag=      100000 FMFlg1=        2001
         NFxFlg=           0 DoJE=F BraDBF=F KetDBF=F FulRan=T
         wScrn=  0.000000 ICntrl=       500 IOpCl=  0 I1Cent=           0 NGrid=           0
         NMat0=   20 NMatS0=     20 NMatT0=    0 NMatD0=   20 NMtDS0=    0 NMtDT0=    0
 Symmetry not used in FoFCou.
 FMM levels:  10  Number of levels for PrismC:   9
 New state      1 was old state      8
 New state      2 was old state      5
 New state      3 was old state      1
 New state      5 was old state      2
 Excitation Energies [eV] at current iteration:
 Root      1 :     2.614431952682883
 Root      2 :     2.619232116056248
 Root      3 :     2.680668620997954
 Root      4 :     2.689949728428179
 Root      5 :     3.065723849039152
 Root      6 :     3.067375844004048
 Root      7 :     3.628797954736852
 Root      8 :     3.669044502664153
 Root      9 :     3.735851385205780
 Root     10 :     3.759342006624569
 Root     11 :     3.861257507872863
 Root     12 :     3.868986237683390
 Root     13 :     4.303811836515101
 Root     14 :     4.306133121717060
 Root     15 :     4.978212058750184
 Root     16 :     5.000015434364135
 Root     17 :     5.272251878237016
 Root     18 :     5.294277485376665
 Root     19 :     5.304460375131254
 Root     20 :     5.328440605311997
 Iteration     2 Dimension    30 NMult    20 NNew     10
 CISAX will form    10 AO SS matrices at one time.
 NMat=    10 NSing=    10 JSym2X= 0.
 New state      1 was old state      3
 Root      1 not converged, maximum delta is    0.189289217159530
 New state      2 was old state      4
 Root      2 not converged, maximum delta is    0.190555253758997
 New state      3 was old state      2
 Root      3 not converged, maximum delta is    0.066775431512233
 New state      4 was old state      1
 Root      4 not converged, maximum delta is    0.089773936644551
 Root      5 has converged.
 Excitation Energies [eV] at current iteration:
 Root      1 :     1.801456401935861   Change is   -0.879212219062092
 Root      2 :     1.807290485756301   Change is   -0.882659242671878
 Root      3 :     2.235854753262708   Change is   -0.383377362793539
 Root      4 :     2.239080268755494   Change is   -0.375351683927389
 Root      5 :     3.065717690860434   Change is   -0.000006158178717
 Iteration     3 Dimension    38 NMult    30 NNew      8
 CISAX will form     8 AO SS matrices at one time.
 NMat=     8 NSing=     8 JSym2X= 0.
 Root      1 not converged, maximum delta is    0.070858225875488
 Root      2 not converged, maximum delta is    0.072021015907377
 Root      3 not converged, maximum delta is    0.043960779120441
 Root      4 not converged, maximum delta is    0.042583193210798
 Root      5 has converged.
 Excitation Energies [eV] at current iteration:
 Root      1 :     1.694214603318589   Change is   -0.107241798617272
 Root      2 :     1.698896926207815   Change is   -0.108393559548486
 Root      3 :     2.194408300673866   Change is   -0.041446452588842
 Root      4 :     2.200178860897283   Change is   -0.038901407858210
 Root      5 :     3.065717690860434   Change is    0.000000000000000
 Iteration     4 Dimension    46 NMult    38 NNew      8
 CISAX will form     8 AO SS matrices at one time.
 NMat=     8 NSing=     8 JSym2X= 0.
 Root      1 not converged, maximum delta is    0.013235164982285
 Root      2 not converged, maximum delta is    0.013501937020646
 Root      3 not converged, maximum delta is    0.009728717121991
 Root      4 not converged, maximum delta is    0.008906917442394
 Root      5 has converged.
 Excitation Energies [eV] at current iteration:
 Root      1 :     1.677505024429179   Change is   -0.016709578889410
 Root      2 :     1.682013530645604   Change is   -0.016883395562211
 Root      3 :     2.187107403502429   Change is   -0.007300897171437
 Root      4 :     2.193401305753012   Change is   -0.006777555144271
 Root      5 :     3.065717690860381   Change is   -0.000000000000054
 Iteration     5 Dimension    54 NMult    46 NNew      8
 CISAX will form     8 AO SS matrices at one time.
 NMat=     8 NSing=     8 JSym2X= 0.
 Root      1 not converged, maximum delta is    0.002201457261912
 Root      2 not converged, maximum delta is    0.002200296057631
 Root      3 not converged, maximum delta is    0.002500177746579
 Root      4 not converged, maximum delta is    0.002388480516326
 Root      5 has converged.
 Excitation Energies [eV] at current iteration:
 Root      1 :     1.675726181405081   Change is   -0.001778843024098
 Root      2 :     1.680241012993786   Change is   -0.001772517651818
 Root      3 :     2.186261815534529   Change is   -0.000845587967900
 Root      4 :     2.192624634319127   Change is   -0.000776671433885
 Root      5 :     3.065717690860434   Change is    0.000000000000054
 Iteration     6 Dimension    62 NMult    54 NNew      8
 CISAX will form     8 AO SS matrices at one time.
 NMat=     8 NSing=     8 JSym2X= 0.
 Root      1 not converged, maximum delta is    0.001380714499754
 Root      2 not converged, maximum delta is    0.001402897991504
 Root      3 not converged, maximum delta is    0.001069190735007
 Root      4 not converged, maximum delta is    0.001015683626278
 Root      5 has converged.
 Excitation Energies [eV] at current iteration:
 Root      1 :     1.675472434673648   Change is   -0.000253746731433
 Root      2 :     1.679985986132458   Change is   -0.000255026861328
 Root      3 :     2.186133631122273   Change is   -0.000128184412256
 Root      4 :     2.192506830585454   Change is   -0.000117803733673
 Root      5 :     3.065717690860407   Change is   -0.000000000000027
 Iteration     7 Dimension    70 NMult    62 NNew      8
 CISAX will form     8 AO SS matrices at one time.
 NMat=     8 NSing=     8 JSym2X= 0.
 Root      1 has converged.
 Root      2 has converged.
 Root      3 has converged.
 Root      4 has converged.
 Root      5 has converged.
 Excitation Energies [eV] at current iteration:
 Root      1 :     1.675448260022628   Change is   -0.000024174651020
 Root      2 :     1.679962263084923   Change is   -0.000023723047535
[...]
 Alpha virt. eigenvalues --    1.83472   1.83797   1.83847   1.84061   1.84156
 Alpha virt. eigenvalues --    1.84481   1.84488   1.84741   1.84848   1.85079
 Alpha virt. eigenvalues --    1.85140   1.85301   1.85312   1.85442   1.85518
 Alpha virt. eigenvalues --    1.85854   1.85905   1.86337   1.86398   1.86593
 Alpha virt. eigenvalues --    1.86606   1.86780   1.86821   1.86996   1.87077
 Alpha virt. eigenvalues --    1.87436   1.87483   1.87719   1.87724   1.87906
 Alpha virt. eigenvalues --    1.87968   1.88078   1.88132   1.88527   1.88574
 Alpha virt. eigenvalues --    1.88861   1.88891   1.89027   1.89163   1.89613
 Alpha virt. eigenvalues --    1.89663   1.89783   1.89831   1.90142   1.90156
 Alpha virt. eigenvalues --    1.90790   1.90847   1.91381   1.91387   1.91478
 Alpha virt. eigenvalues --    1.91542   1.92135   1.92192   1.92613   1.92665
 Alpha virt. eigenvalues --    1.93020   1.93103   1.93375   1.93456   1.94263
 Alpha virt. eigenvalues --    1.94320   1.94725   1.94769   1.95511   1.95547
 Alpha virt. eigenvalues --    1.95764   1.95766   1.96001   1.96033   1.96124
 Alpha virt. eigenvalues --    1.96189   1.96435   1.96632   1.96888   1.96936
 Alpha virt. eigenvalues --    1.97487   1.97494   1.97753   1.97873   1.98118
 Alpha virt. eigenvalues --    1.98208   1.98300   1.98715   1.99024   1.99174
 Alpha virt. eigenvalues --    1.99860   1.99882   2.00677   2.00697   2.01034
 Alpha virt. eigenvalues --    2.01047   2.01460   2.01519   2.01557   2.01710
 Alpha virt. eigenvalues --    2.01757   2.01774   2.02661   2.02823   2.03093
 Alpha virt. eigenvalues --    2.03272   2.03329   2.03442   2.03471   2.03523
 Alpha virt. eigenvalues --    2.03976   2.04073   2.04928   2.04995   2.05551
 Alpha virt. eigenvalues --    2.05581   2.06116   2.06237   2.06942   2.06982
 Alpha virt. eigenvalues --    2.07221   2.07298   2.08505   2.08621   2.08954
 Alpha virt. eigenvalues --    2.09019   2.09562   2.09627   2.10814   2.10986
 Alpha virt. eigenvalues --    2.11220   2.11357   2.11480   2.11577   2.11764
 Alpha virt. eigenvalues --    2.11814   2.12414   2.12503   2.12751   2.12819
 Alpha virt. eigenvalues --    2.12841   2.12872   2.13578   2.13805   2.14173
 Alpha virt. eigenvalues --    2.14204   2.15357   2.15373   2.15963   2.16030
 Alpha virt. eigenvalues --    2.16542   2.16558   2.16791   2.17122   2.17453
 Alpha virt. eigenvalues --    2.17600   2.17741   2.17881   2.17954   2.18106
 Alpha virt. eigenvalues --    2.18362   2.18619   2.18906   2.19182   2.19678
 Alpha virt. eigenvalues --    2.19766   2.20075   2.20191   2.20248   2.20385
 Alpha virt. eigenvalues --    2.21124   2.21186   2.21706   2.21712   2.21781
 Alpha virt. eigenvalues --    2.21822   2.22649   2.22716   2.23290   2.23350
 Alpha virt. eigenvalues --    2.24367   2.24430   2.24954   2.24994   2.26335
 Alpha virt. eigenvalues --    2.26386   2.26815   2.26956   2.27139   2.27149
 Alpha virt. eigenvalues --    2.28173   2.28260   2.29304   2.29384   2.29771
 Alpha virt. eigenvalues --    2.29825   2.30491   2.30566   2.30770   2.31119
 Alpha virt. eigenvalues --    2.31148   2.31219   2.32155   2.32187   2.33170
 Alpha virt. eigenvalues --    2.33180   2.33429   2.33497   2.34087   2.34175
 Alpha virt. eigenvalues --    2.35243   2.35407   2.35832   2.35854   2.36278
 Alpha virt. eigenvalues --    2.36386   2.36396   2.36658   2.37624   2.37693
 Alpha virt. eigenvalues --    2.38291   2.38328   2.38725   2.38893   2.39612
 Alpha virt. eigenvalues --    2.39645   2.40213   2.40216   2.40521   2.40771
 Alpha virt. eigenvalues --    2.41155   2.41304   2.41639   2.41721   2.42071
 Alpha virt. eigenvalues --    2.42075   2.42768   2.42976   2.43009   2.43571
 Alpha virt. eigenvalues --    2.43919   2.44204   2.44748   2.44765   2.44931
 Alpha virt. eigenvalues --    2.44938   2.45513   2.45581   2.46227   2.46334
 Alpha virt. eigenvalues --    2.46438   2.46512   2.46740   2.46833   2.47287
 Alpha virt. eigenvalues --    2.47319   2.47747   2.47828   2.49336   2.49343
 Alpha virt. eigenvalues --    2.49835   2.50101   2.50397   2.50582   2.51155
 Alpha virt. eigenvalues --    2.51205   2.51550   2.51920   2.52333   2.52474
 Alpha virt. eigenvalues --    2.52843   2.53100   2.53909   2.53951   2.54181
 Alpha virt. eigenvalues --    2.54223   2.54745   2.54821   2.55551   2.55604
 Alpha virt. eigenvalues --    2.57897   2.58015   2.58676   2.58840   2.60234
 Alpha virt. eigenvalues --    2.60240   2.60646   2.60857   2.61743   2.61756
 Alpha virt. eigenvalues --    2.62364   2.62566   2.62988   2.63059   2.63969
 Alpha virt. eigenvalues --    2.64151   2.64276   2.64362   2.65032   2.65112
 Alpha virt. eigenvalues --    2.65792   2.65820   2.66754   2.66809   2.66942
 Alpha virt. eigenvalues --    2.66988   2.67912   2.67940   2.68751   2.68889
 Alpha virt. eigenvalues --    2.68961   2.69056   2.69422   2.69524   2.70030
 Alpha virt. eigenvalues --    2.70068   2.70996   2.71012   2.71822   2.72086
 Alpha virt. eigenvalues --    2.72420   2.72662   2.72686   2.72862   2.73217
 Alpha virt. eigenvalues --    2.73306   2.73395   2.73566   2.74435   2.74543
 Alpha virt. eigenvalues --    2.74982   2.75007   2.76448   2.76622   2.76992
 Alpha virt. eigenvalues --    2.77264   2.77487   2.77531   2.78220   2.78223
 Alpha virt. eigenvalues --    2.78616   2.78762   2.79081   2.79166   2.80190
 Alpha virt. eigenvalues --    2.80376   2.80613   2.80622   2.81075   2.81147
 Alpha virt. eigenvalues --    2.81912   2.81966   2.82259   2.82372   2.83772
 Alpha virt. eigenvalues --    2.83784   2.83798   2.83827   2.84451   2.84576
 Alpha virt. eigenvalues --    2.84809   2.84913   2.85616   2.85698   2.86581
 Alpha virt. eigenvalues --    2.87028   2.87095   2.87641   2.88161   2.88185
 Alpha virt. eigenvalues --    2.88539   2.88539   2.88794   2.88965   2.90529
 Alpha virt. eigenvalues --    2.90580   2.90990   2.91218   2.93187   2.93241
 Alpha virt. eigenvalues --    2.93691   2.94231   2.94495   2.94587   2.95391
 Alpha virt. eigenvalues --    2.95400   2.95757   2.96236   2.96295   2.96472
 Alpha virt. eigenvalues --    2.96790   2.97210   2.97849   2.97953   2.98239
 Alpha virt. eigenvalues --    2.98275   2.98396   2.98492   2.98633   2.98699
 Alpha virt. eigenvalues --    2.98843   2.98913   2.99615   2.99722   2.99935
 Alpha virt. eigenvalues --    3.00064   3.00252   3.00257   3.00493   3.00911
 Alpha virt. eigenvalues --    3.01823   3.02020   3.02034   3.02064   3.02740
 Alpha virt. eigenvalues --    3.02767   3.03011   3.03236   3.03358   3.03627
 Alpha virt. eigenvalues --    3.03972   3.04201   3.04350   3.04481   3.04578
 Alpha virt. eigenvalues --    3.04647   3.05272   3.05326   3.06084   3.06144
 Alpha virt. eigenvalues --    3.06836   3.06855   3.07842   3.08175   3.09278
 Alpha virt. eigenvalues --    3.09434   3.09725   3.10348   3.10474   3.10656
 Alpha virt. eigenvalues --    3.11360   3.11401   3.11820   3.11977   3.12206
 Alpha virt. eigenvalues --    3.12220   3.13315   3.13565   3.13608   3.13671
 Alpha virt. eigenvalues --    3.14127   3.14390   3.15909   3.15951   3.17296
 Alpha virt. eigenvalues --    3.17436   3.17798   3.18109   3.18950   3.19159
 Alpha virt. eigenvalues --    3.22341   3.22513   3.23980   3.24355   3.24708
 Alpha virt. eigenvalues --    3.25108   3.26538   3.26573   3.27311   3.27654
 Alpha virt. eigenvalues --    3.29136   3.29137   3.31295   3.31558   3.33102
 Alpha virt. eigenvalues --    3.33452   3.40175   3.40668   3.42736   3.42849
 Alpha virt. eigenvalues --    3.48613   3.48694   3.50056   3.50198   3.50753
 Alpha virt. eigenvalues --    3.51509   3.56584   3.56922   3.59133   3.59257
 Alpha virt. eigenvalues --    3.62431   3.62872   3.66034   3.66218   3.67223
 Alpha virt. eigenvalues --    3.67458   3.73308   3.73936   3.76093   3.76595
          Condensed to atoms (all electrons):
 Mulliken charges:
               1
     1  Mg   0.838796
     2  C   -0.002950
     3  C   -0.094130
     4  C   -0.045903
     5  C   -0.063960
     6  N   -0.256786
     7  C   -0.052468
     8  C   -0.014014
     9  C   -0.087016
    10  C    0.046343
    11  C    0.104814
    12  C    0.053475
    13  C   -0.071831
    14  H    0.036186
    15  N   -0.433161
    16  C    0.168414
    17  C   -0.177149
    18  C   -0.004027
    19  C    0.148709
    20  C    0.110178
    21  C    0.012263
    22  O   -0.249652
    23  C    0.062485
    24  N   -0.341158
    25  C    0.041269
    26  C   -0.028184
    27  C   -0.023962
    28  C    0.074837
    29  C    0.076171
    30  C    0.035128
    31  C   -0.004498
    32  N   -0.310482
    33  C    0.080428
    34  C   -0.169716
    35  C    0.008371
    36  C    0.082991
    37  C    0.127312
    38  C    0.046126
    39  O   -0.188399
    40  C   -0.005332
    41  C    0.212890
    42  O   -0.257101
    43  O   -0.304800
    44  C    0.157678
    45  H   -0.017603
    46  H   -0.016860
    47  H   -0.041489
    48  H    0.000958
    49  H   -0.004027
    50  H    0.025481
    51  H    0.016435
    52  H    0.016666
    53  H    0.011194
    54  H    0.044134
    55  H    0.017881
    56  H    0.017945
    57  H    0.005885
    58  H    0.026810
    59  H    0.039525
    60  H    0.037349
    61  H    0.035605
    62  H    0.031486
    63  H    0.016531
    64  H    0.009463
    65  H    0.023191
    66  H    0.012548
    67  H    0.004755
    68  H    0.006350
    69  H    0.004740
    70  H    0.008756
    71  H    0.018142
    72  H    0.028992
    73  H    0.047591
    74  H    0.009106
    75  H    0.046018
    76  H    0.035161
    77  H    0.042975
    78  H    0.046408
    79  H    0.053714
    80  Mg   0.837908
    81  C   -0.016849
    82  C   -0.087797
    83  C   -0.045508
    84  C   -0.064832
    85  N   -0.254570
    86  C   -0.049839
    87  C   -0.015090
    88  C   -0.090509
    89  C    0.045746
    90  C    0.114376
    91  C    0.062529
    92  C   -0.077883
    93  H    0.034879
    94  N   -0.423507
    95  C    0.162938
    96  C   -0.174625
    97  C   -0.007793
    98  C    0.152125
    99  C    0.099362
   100  C    0.015580
   101  O   -0.253151
   102  C    0.061189
   103  N   -0.350072
   104  C    0.037547
   105  C   -0.019859
   106  C   -0.034825
   107  C    0.088909
   108  C    0.073633
   109  C    0.034728
   110  C   -0.007676
   111  N   -0.324120
   112  C    0.078441
   113  C   -0.163116
   114  C    0.002244
   115  C    0.096191
   116  C    0.131492
   117  C    0.042398
   118  O   -0.187872
   119  C    0.000929
   120  C    0.211243
   121  O   -0.251021
   122  O   -0.305623
   123  C    0.152023
   124  H   -0.019661
   125  H   -0.015542
   126  H   -0.040418
   127  H   -0.000658
   128  H   -0.004340
   129  H    0.022476
   130  H    0.014459
   131  H    0.016267
   132  H    0.013918
   133  H    0.037676
   134  H    0.020775
   135  H    0.019583
   136  H    0.008752
   137  H    0.026168
   138  H    0.039791
   139  H    0.038262
   140  H    0.036415
   141  H    0.033886
   142  H    0.014404
   143  H    0.012480
   144  H    0.025169
   145  H    0.011661
   146  H    0.005742
   147  H    0.006298
   148  H    0.003674
   149  H    0.010933
   150  H    0.017935
   151  H    0.030079
   152  H    0.046000
   153  H    0.008538
   154  H    0.046995
   155  H    0.035036
   156  H    0.043907
   157  H    0.049482
   158  H    0.053583
 Sum of Mulliken charges =  -0.00000
 Mulliken charges with hydrogens summed into heavy atoms:
               1
     1  Mg   0.838796
     2  C   -0.002950
     3  C   -0.111733
     4  C   -0.062763
     5  C   -0.105449
     6  N   -0.256786
     7  C   -0.052468
     8  C   -0.013056
     9  C   -0.091043
    10  C    0.046343
    11  C    0.163396
    12  C    0.108804
    13  C    0.000182
    15  N   -0.433161
    16  C    0.168414
    17  C   -0.177149
    18  C   -0.004027
    19  C    0.148709
    20  C    0.182397
    21  C    0.012263
    22  O   -0.249652
    23  C    0.166925
    24  N   -0.341158
    25  C    0.041269
    26  C   -0.011653
    27  C   -0.014498
    28  C    0.074837
    29  C    0.116666
    30  C    0.046218
    31  C    0.051390
    32  N   -0.310482
    33  C    0.080428
    34  C   -0.169716
    35  C    0.008371
    36  C    0.082991
    37  C    0.230026
    38  C    0.046126
    39  O   -0.188399
    40  C    0.029830
    41  C    0.212890
    42  O   -0.257101
    43  O   -0.304800
    44  C    0.300774
    80  Mg   0.837908
    81  C   -0.016849
    82  C   -0.107458
    83  C   -0.061050
    84  C   -0.105251
    85  N   -0.254570
    86  C   -0.049839
    87  C   -0.015748
    88  C   -0.094850
    89  C    0.045746
    90  C    0.167578
    91  C    0.114123
    92  C   -0.002646
    94  N   -0.423507
    95  C    0.162938
    96  C   -0.174625
    97  C   -0.007793
    98  C    0.152125
    99  C    0.174073
   100  C    0.015580
   101  O   -0.253151
   102  C    0.169753
   103  N   -0.350072
   104  C    0.037547
   105  C   -0.005455
   106  C   -0.022345
   107  C    0.088909
   108  C    0.116206
   109  C    0.044701
   110  C    0.051271
   111  N   -0.324120
   112  C    0.078441
   113  C   -0.163116
   114  C    0.002244
   115  C    0.096191
   116  C    0.233026
   117  C    0.042398
   118  O   -0.187872
   119  C    0.035965
   120  C    0.211243
   121  O   -0.251021
   122  O   -0.305623
   123  C    0.298995
 Electronic spatial extent (au):  <R**2>=         614265.5155
 Charge=             -0.0000 electrons
 Dipole moment (field-independent basis, Debye):
    X=              3.8572    Y=             -2.2138    Z=              7.2433  Tot=              8.4996
 Quadrupole moment (field-independent basis, Debye-Ang):
   XX=           -516.7446   YY=           -534.9376   ZZ=           -463.9305
   XY=             52.3678   XZ=             15.8051   YZ=             32.8728
 Traceless Quadrupole moment (field-independent basis, Debye-Ang):
   XX=            -11.5404   YY=            -29.7333   ZZ=             41.2737
   XY=             52.3678   XZ=             15.8051   YZ=             32.8728
 Octapole moment (field-independent basis, Debye-Ang**2):
  XXX=           2925.7478  YYY=            223.7819  ZZZ=            161.5142  XYY=            556.9188
  XXY=           -576.3115  XXZ=           1789.3725  XZZ=           -562.3570  YZZ=            -45.4972
  YYZ=            114.0894  XYZ=            606.9973
 Hexadecapole moment (field-independent basis, Debye-Ang**3):
 XXXX=        -786815.4581 YYYY=         -39580.9898 ZZZZ=         -26703.9818 XXXY=          15960.8889
 XXXZ=           3157.8202 YYYX=           2874.3122 YYYZ=            361.6445 ZZZX=           3226.3530
 ZZZY=            541.8129 XXYY=        -142121.5897 XXZZ=        -122013.3217 YYZZ=         -11079.6281
 XXYZ=           8652.4470 YYXZ=          -4451.8634 ZZXY=          -1731.0502
 N-N= 1.230648647181D+04 E-N=-3.409380114365D+04  KE= 4.028802087990D+03
 Leave Link  601 at Sat Sep  4 19:34:28 2021, MaxMem= 23488102400 cpu:              12.8 elap:               0.6
 (Enter /sw/apps/gaussian-16.0/g16/l9999.exe)
 1\1\GINC-BP1-COMPUTE00089\SP\RCAM-B3LYP TD-FC\def2SVP\C68H72Mg2N8O8\OF
 15641\04-Sep-2021\0\\#p cam-b3lyp/Def2SVP td=(nstates=5)\\TDDFT excite
 d states in gaussian\\0,1\Mg,0,0.,0.,0.\C,0,-0.217,-2.218,2.801\C,0,-1
 .255,2.442,2.026\C,0,-0.245,1.85,-2.564\C,0,0.146,-2.824,-2.037\N,0,-0
 .617,-0.009,2.126\C,0,-0.594,-0.908,3.105\C,0,-0.936,-0.309,4.502\C,0,
 -1.773,0.964,4.032\C,0,-1.155,1.168,2.66\C,0,-3.263,0.685,3.863\C,0,0.
 345,0.11,5.299\C,0,0.124,0.397,6.787\H,0,1.168,0.033,7.733\N,0,-0.185,
 1.961,-0.152\C,0,-0.703,2.8,0.777\C,0,-0.62,4.156,0.193\C,0,-0.187,4.0
 15,-1.225\C,0,-0.214,2.583,-1.38\C,0,-0.887,5.406,0.974\C,0,0.181,5.01
 3,-2.277\O,0,0.303,4.69,-3.508\C,0,0.31,6.414,-1.837\N,0,-0.265,-0.413
 ,-2.029\C,0,-0.279,0.569,-2.937\C,0,-0.196,0.024,-4.332\C,0,0.124,-1.5
 33,-4.18\C,0,0.086,-1.632,-2.635\C,0,-1.451,0.205,-5.197\C,0,1.373,-2.
 07,-4.923\C,0,2.626,-1.49,-4.306\N,0,0.15,-2.144,0.303\C,0,0.173,-3.13
 6,-0.688\C,0,0.173,-4.438,0.004\C,0,0.133,-4.111,1.358\C,0,0.083,-2.69
 5,1.502\C,0,0.149,-5.715,-0.623\C,0,0.096,-4.629,2.716\O,0,0.208,-5.74
 7,3.221\C,0,-0.255,-3.428,3.701\C,0,0.717,-3.482,4.848\O,0,1.931,-3.25
 5,4.669\O,0,0.038,-3.556,6.003\C,0,0.943,-3.583,7.183\H,0,-1.859,3.22,
 2.497\H,0,-0.218,2.453,-3.474\H,0,0.276,-3.747,-2.605\H,0,-1.554,-0.94
 9,5.132\H,0,-1.585,1.831,4.665\H,0,-3.484,-0.377,3.969\H,0,-3.511,1.02
 7,2.858\H,0,-3.852,1.301,4.543\H,0,0.669,1.096,4.966\H,0,1.13,-0.639,5
 .189\H,0,-0.844,0.026,7.125\H,0,0.062,1.477,6.921\H,0,-1.344,5.186,1.9
 38\H,0,-1.651,5.963,0.432\H,0,0.007,6.02,1.084\H,0,-0.635,6.744,-1.405
 \H,0,0.665,6.97,-2.704\H,0,1.048,6.466,-1.036\H,0,0.608,0.501,-4.891\H
 ,0,-0.692,-2.156,-4.547\H,0,-1.267,0.74,-6.129\H,0,-2.204,0.714,-4.596
 \H,0,-1.967,-0.72,-5.453\H,0,1.356,-1.759,-5.967\H,0,1.452,-3.157,-4.9
 02\H,0,2.714,-0.522,-4.798\H,0,3.487,-2.121,-4.529\H,0,2.495,-1.303,-3
 .24\H,0,0.867,-6.333,-0.084\H,0,0.404,-5.642,-1.68\H,0,-0.891,-5.999,-
 0.463\H,0,-1.283,-3.581,4.028\H,0,0.698,-4.478,7.755\H,0,0.833,-2.619,
 7.68\H,0,2.,-3.754,6.976\Mg,0,31.53898,2.84705,2.39705\C,0,31.01565,3.
 39444,5.90497\C,0,30.40867,6.02427,1.88487\C,0,31.56075,2.24637,-0.718
 42\C,0,31.52656,-0.57234,3.07032\N,0,30.83319,4.4097,3.79428\C,0,30.73
 676,4.52579,5.11017\C,0,30.39551,5.9565,5.60634\C,0,29.6818,6.50795,4.
 27766\C,0,30.37153,5.6206,3.24347\C,0,28.1899,6.22232,4.23312\C,0,31.6
 7824,6.78928,5.9572\C,0,31.41412,8.07931,6.73682\H,0,32.38925,8.4985,7
 .73975\N,0,31.52844,4.08944,0.84949\C,0,31.05155,5.35163,0.82252\C,0,3
 1.25857,5.83062,-0.55294\C,0,31.74577,4.69184,-1.37788\C,0,31.60771,3.
 60289,-0.43172\C,0,31.07327,7.26604,-0.95125\C,0,32.24044,4.59628,-2.7
 8939\O,0,32.38766,3.46635,-3.37625\C,0,32.45833,5.86746,-3.49518\N,0,3
 1.33188,1.0948,1.29748\C,0,31.43317,1.10392,-0.04326\C,0,31.52639,-0.2
 9954,-0.59281\C,0,31.71079,-1.24844,0.68123\C,0,31.59787,-0.19191,1.80
 212\C,0,30.32607,-0.77453,-1.41135\C,0,32.94111,-2.19659,0.6804\C,0,34
 .21514,-1.38898,0.78033\N,0,31.50016,1.61075,4.16851\C,0,31.4743,0.199
 94,4.22368\C,0,31.33567,-0.1777,5.64516\C,0,31.2668,1.04958,6.32155\C,
 0,31.33589,2.11674,5.38566\C,0,31.24076,-1.50614,6.14752\C,0,31.14068,
 1.68495,7.61349\O,0,31.13001,1.28974,8.77858\C,0,30.84521,3.23061,7.38
 981\C,0,31.76052,4.01361,8.29072\O,0,32.99147,3.99098,8.11504\O,0,31.0
 2314,4.82661,9.06896\C,0,31.88708,5.63218,9.97257\H,0,29.85823,6.91955
 ,1.59441\H,0,31.67658,1.9829,-1.77229\H,0,31.61352,-1.6184,3.37176\H,0
 ,29.70683,5.99536,6.44179\H,0,29.9231,7.55351,4.1046\H,0,27.87623,5.58
 976,5.0502\H,0,28.01251,5.73159,3.28509\H,0,27.62753,7.15975,4.19712\H
 ,0,32.09567,7.21014,5.03342\H,0,32.39075,6.18676,6.48628\H,0,30.39913,
 8.10997,7.15131\H,0,31.44387,8.91914,6.03838\H,0,30.55188,7.83562,-0.1
 7206\H,0,30.38338,7.2753,-1.80204\H,0,32.00857,7.74453,-1.24945\H,0,31
 .52855,6.43081,-3.51983\H,0,32.89604,5.59596,-4.45777\H,0,33.17461,6.4
 6722,-2.9226\H,0,32.38989,-0.40568,-1.23795\H,0,30.85839,-1.93216,0.80
 683\H,0,30.59615,-1.09956,-2.43385\H,0,29.59867,0.02559,-1.44637\H,0,2
 9.75488,-1.58667,-0.96485\H,0,32.99512,-2.74609,-0.26261\H,0,32.92187,
 -2.92984,1.47976\H,0,34.39924,-1.08928,-0.25571\H,0,35.02811,-2.00191,
 1.1643\H,0,34.05701,-0.47511,1.3647\H,0,31.87454,-1.55393,7.02304\H,0,
 31.53999,-2.23666,5.39881\H,0,30.17056,-1.55631,6.36527\H,0,29.79416,3
 .40079,7.62623\H,0,31.54031,5.44805,10.99411\H,0,31.82347,6.67136,9.59
 866\H,0,32.93095,5.35141,10.04973\\Version=ES64L-G16RevA.03\State=1-A\
 HF=-4069.8117591\RMSD=4.514e-09\PG=C01 [X(C68H72Mg2N8O8)]\\@


 THE MEEK SHALL INHERIT THE EARTH.
 (THE REST OF US WILL ESCAPE TO THE STARS)
 Job cpu time:       0 days 10 hours 12 minutes 25.8 seconds.
 Elapsed time:       0 days  0 hours 26 minutes  6.5 seconds.
 File lengths (MBytes):  RWF=  13225 Int=      0 D2E=      0 Chk=    574 Scr=      1
 Normal termination of Gaussian 16 at Sat Sep  4 19:34:29 2021.
