 Entering Gaussian System, Link 0=g16
 Initial command:
 /sw/apps/gaussian-16.0/g16/l1.exe "/tmp/Gau-228498.inp" -scrdir="/tmp/"
 Entering Link 1 = /sw/apps/gaussian-16.0/g16/l1.exe PID=    228499.
  
 Copyright (c) 1988,1990,1992,1993,1995,1998,2003,2009,2016,
            Gaussian, Inc.  All Rights Reserved.
  
 This is part of the Gaussian(R) 16 program.  It is based on
 the Gaussian(R) 09 system (copyright 2009, Gaussian, Inc.),
 the Gaussian(R) 03 system (copyright 2003, Gaussian, Inc.),
 the Gaussian(R) 98 system (copyright 1998, Gaussian, Inc.),
 the Gaussian(R) 94 system (copyright 1995, Gaussian, Inc.),
 the Gaussian 92(TM) system (copyright 1992, Gaussian, Inc.),
 the Gaussian 90(TM) system (copyright 1990, Gaussian, Inc.),
 the Gaussian 88(TM) system (copyright 1988, Gaussian, Inc.),
 the Gaussian 86(TM) system (copyright 1986, Carnegie Mellon
 University), and the Gaussian 82(TM) system (copyright 1983,
 Carnegie Mellon University). Gaussian is a federally registered
 trademark of Gaussian, Inc.
  
 This software contains proprietary and confidential information,
 including trade secrets, belonging to Gaussian, Inc.
  
 This software is provided under written license and may be
 used, copied, transmitted, or stored only in accord with that
 written license.
  
 The following legend is applicable only to US Government
 contracts under FAR:
  
                    RESTRICTED RIGHTS LEGEND
  
 Use, reproduction and disclosure by the US Government is
 subject to restrictions as set forth in subparagraphs (a)
 and (c) of the Commercial Computer Software - Restricted
 Rights clause in FAR 52.227-19.
  
 Gaussian, Inc.
 340 Quinnipiac St., Bldg. 40, Wallingford CT 06492
  
  
 ---------------------------------------------------------------
 Warning -- This program may not be used in any manner that
 competes with the business of Gaussian, Inc. or will provide
 assistance to any competitor of Gaussian, Inc.  The licensee
 of this program is prohibited from giving any competitor of
 Gaussian, Inc. access to this program.  By using this program,
 the user acknowledges that Gaussian, Inc. is engaged in the
 business of creating and licensing software in the field of
 computational chemistry and represents and warrants to the
 licensee that it is not a competitor of Gaussian, Inc. and that
 it will not use this program in any manner prohibited above.
 ---------------------------------------------------------------
  

 Cite this work as:
 Gaussian 16, Revision A.03,
 M. J. Frisch, G. W. Trucks, H. B. Schlegel, G. E. Scuseria, 
 M. A. Robb, J. R. Cheeseman, G. Scalmani, V. Barone, 
 G. A. Petersson, H. Nakatsuji, X. Li, M. Caricato, A. V. Marenich, 
 J. Bloino, B. G. Janesko, R. Gomperts, B. Mennucci, H. P. Hratchian, 
 J. V. Ortiz, A. F. Izmaylov, J. L. Sonnenberg, D. Williams-Young, 
 F. Ding, F. Lipparini, F. Egidi, J. Goings, B. Peng, A. Petrone, 
 T. Henderson, D. Ranasinghe, V. G. Zakrzewski, J. Gao, N. Rega, 
 G. Zheng, W. Liang, M. Hada, M. Ehara, K. Toyota, R. Fukuda, 
 J. Hasegawa, M. Ishida, T. Nakajima, Y. Honda, O. Kitao, H. Nakai, 
 T. Vreven, K. Throssell, J. A. Montgomery, Jr., J. E. Peralta, 
 F. Ogliaro, M. J. Bearpark, J. J. Heyd, E. N. Brothers, K. N. Kudin, 
 V. N. Staroverov, T. A. Keith, R. Kobayashi, J. Normand, 
 K. Raghavachari, A. P. Rendell, J. C. Burant, S. S. Iyengar, 
 J. Tomasi, M. Cossi, J. M. Millam, M. Klene, C. Adamo, R. Cammi, 
 J. W. Ochterski, R. L. Martin, K. Morokuma, O. Farkas, 
 J. B. Foresman, and D. J. Fox, Gaussian, Inc., Wallingford CT, 2016.
 
 ******************************************
 Gaussian 16:  ES64L-G16RevA.03 25-Dec-2016
                11-Sep-2021 
 ******************************************
 %nproc=24
 Will use up to   24 processors via shared memory.
 %mem=175gb
 -----------------------------------
 #p cam-b3lyp/Def2SVP td=(nstates=5)
 -----------------------------------
 1/38=1,172=1/1;
 2/12=2,17=6,18=5,40=1/2;
 3/5=43,7=101,11=9,25=1,30=1,74=-40/1,2,3,8;
 4//1;
 5/5=2,38=5/2;
 8/6=1,10=1,108=5/1;
 9/41=5,42=1,70=2/14;
 6/7=2,8=2,9=2,10=2/1;
 99/5=1,9=1/99;
 Leave Link    1 at Sat Sep 11 18:02:00 2021, MaxMem= 23488102400 cpu:               0.5 elap:               0.0
 (Enter /sw/apps/gaussian-16.0/g16/l101.exe)
 --------------------------------
 TDDFT excited states in gaussian
 --------------------------------
 Symbolic Z-matrix:
 Charge =  0 Multiplicity = 1
 Mg                    0.        0.        0. 
 C                    -0.217    -2.218     2.801 
 C                    -1.255     2.442     2.026 
 C                    -0.245     1.85     -2.564 
 C                     0.146    -2.824    -2.037 
 N                    -0.617    -0.009     2.126 
 C                    -0.594    -0.908     3.105 
 C                    -0.936    -0.309     4.502 
 C                    -1.773     0.964     4.032 
 C                    -1.155     1.168     2.66 
 C                    -3.263     0.685     3.863 
 C                     0.345     0.11      5.299 
 C                     0.124     0.397     6.787 
 H                     1.168     0.033     7.733 
 N                    -0.185     1.961    -0.152 
 C                    -0.703     2.8       0.777 
 C                    -0.62      4.156     0.193 
 C                    -0.187     4.015    -1.225 
 C                    -0.214     2.583    -1.38 
 C                    -0.887     5.406     0.974 
 C                     0.181     5.013    -2.277 
 O                     0.303     4.69     -3.508 
 C                     0.31      6.414    -1.837 
 N                    -0.265    -0.413    -2.029 
 C                    -0.279     0.569    -2.937 
 C                    -0.196     0.024    -4.332 
 C                     0.124    -1.533    -4.18 
 C                     0.086    -1.632    -2.635 
 C                    -1.451     0.205    -5.197 
 C                     1.373    -2.07     -4.923 
 C                     2.626    -1.49     -4.306 
 N                     0.15     -2.144     0.303 
 C                     0.173    -3.136    -0.688 
 C                     0.173    -4.438     0.004 
 C                     0.133    -4.111     1.358 
 C                     0.083    -2.695     1.502 
 C                     0.149    -5.715    -0.623 
 C                     0.096    -4.629     2.716 
 O                     0.208    -5.747     3.221 
 C                    -0.255    -3.428     3.701 
 C                     0.717    -3.482     4.848 
 O                     1.931    -3.255     4.669 
 O                     0.038    -3.556     6.003 
 C                     0.943    -3.583     7.183 
 H                    -1.859     3.22      2.497 
 H                    -0.218     2.453    -3.474 
 H                     0.276    -3.747    -2.605 
 H                    -1.554    -0.949     5.132 
 H                    -1.585     1.831     4.665 
 H                    -3.484    -0.377     3.969 
 H                    -3.511     1.027     2.858 
 H                    -3.852     1.301     4.543 
 H                     0.669     1.096     4.966 
 H                     1.13     -0.639     5.189 
 H                    -0.844     0.026     7.125 
 H                     0.062     1.477     6.921 
 H                    -1.344     5.186     1.938 
 H                    -1.651     5.963     0.432 
 H                     0.007     6.02      1.084 
 H                    -0.635     6.744    -1.405 
 H                     0.665     6.97     -2.704 
 H                     1.048     6.466    -1.036 
 H                     0.608     0.501    -4.891 
 H                    -0.692    -2.156    -4.547 
 H                    -1.267     0.74     -6.129 
 H                    -2.204     0.714    -4.596 
 H                    -1.967    -0.72     -5.453 
 H                     1.356    -1.759    -5.967 
 H                     1.452    -3.157    -4.902 
 H                     2.714    -0.522    -4.798 
 H                     3.487    -2.121    -4.529 
 H                     2.495    -1.303    -3.24 
 H                     0.867    -6.333    -0.084 
 H                     0.404    -5.642    -1.68 
 H                    -0.891    -5.999    -0.463 
 H                    -1.283    -3.581     4.028 
 H                     0.698    -4.478     7.755 
 H                     0.833    -2.619     7.68 
 H                     2.       -3.754     6.976 
 Mg                    13.14614   1.17653   1.00196 
 C                     13.35826  -1.30589  -1.581 
 C                     12.32667  -1.3434    3.14975 
 C                     12.51214   3.3832    3.19195 
 C                     12.85272   3.56972  -1.51444 
 N                     12.90591  -1.00198   0.70418 
 C                     13.07223  -1.84053  -0.30751 
 C                     13.00293  -3.34129   0.08296 
 C                     12.12383  -3.20166   1.41958 
 C                     12.49686  -1.7728    1.80932 
 C                     10.62678  -3.25143   1.16323 
 C                     14.4186  -3.94578   0.38708 
 C                     14.46084  -5.47308   0.4727 
 H                     15.64947  -6.16509  -0.01795 
 N                     12.99398   1.02165   2.97463 
 C                     12.67433  -0.08235   3.68193 
 C                     12.67559   0.33017   5.09402 
 C                     12.86039   1.80572   5.15148 
 C                     12.77327   2.13732   3.74345 
 C                     12.59132  -0.64975   6.22808 
 C                     13.0669   2.76185   6.28698 
 O                     12.96587   4.0295    6.12668 
 C                     13.2986   2.16675   7.61123 
 N                     12.52942   3.15759   0.87007 
 C                     12.3781   3.90952   1.97444 
 C                     12.19882   5.36686   1.62175 
 C                     12.50422   5.47053   0.05537 
 C                     12.73     3.97512  -0.25795 
 C                     10.81852   5.95636   1.91098 
 C                     13.5907   6.49     -0.38386 
 C                     14.94789   6.04234   0.10911 
 N                     13.29283   1.19303  -1.15356 
 C                     13.10985   2.29883  -2.01253 
 C                     13.19598   1.79296  -3.39784 
 C                     13.40178   0.41326  -3.24761 
 C                     13.42097   0.07952  -1.8664 
 C                     13.03926   2.57163  -4.57904 
 C                     13.59654  -0.83832  -3.94354 
 O                     13.75731  -1.16254  -5.11946 
 C                     13.45072  -2.02617  -2.89754 
 C                     14.60525  -2.9686   -3.101 
 O                     15.76987  -2.60152  -2.86536 
 O                     14.12894  -4.20606  -3.32945 
 C                     15.23658  -5.17875  -3.52653 
 H                     11.84223  -2.02045   3.85389 
 H                     12.39626   4.20062   3.9074 
 H                     12.86933   4.26784  -2.3541 
 H                     12.49258  -3.97394  -0.63333 
 H                     12.45127  -3.90288   2.18275 
 H                     10.39864  -3.25394   0.10772 
 H                     10.21775  -2.36846   1.63662 
 H                     10.1834  -4.1052    1.68364 
 H                     14.7027  -3.69197   1.41646 
 H                     15.14065  -3.60387  -0.32872 
 H                     13.55248  -5.93399   0.06601 
 H                     14.45907  -5.76174   1.52659 
 H                     12.29679  -1.64656   5.87733 
 H                     11.76038  -0.3298    6.86606 
 H                     13.50443  -0.68116   6.82634 
 H                     12.45453   1.53418   7.87557 
 H                     13.5127   3.00628   8.27548 
 H                     14.17573   1.5127    7.55226 
 H                     12.90726   5.98489   2.15957 
 H                     11.61516   5.78005  -0.51349 
 H                     10.85158   6.83788   2.57874 
 H                     10.19804   5.17936   2.33739 
 H                     10.24845   6.25056   1.03139 
 H                     13.40123   7.46514   0.07151 
 H                     13.63433   6.639    -1.45759 
 H                     14.96901   6.40825   1.14001 
 H                     15.73947   6.49316  -0.48603 
 H                     15.01207   4.94864   0.14616 
 H                     13.81555   2.25775  -5.26414 
 H                     13.10371   3.63639  -4.3648 
 H                     12.03058   2.27319  -4.87698 
 H                     12.49046  -2.50927  -3.08221 
 H                     15.0679  -5.66348  -4.49311 
 H                     15.22833  -5.82659  -2.62988 
 H                     16.2354  -4.78039  -3.66115 
 
 ITRead=  0  0  0  0  0  0  0  0  0  0  0  0  0  0  0  0  0  0  0  0
 ITRead=  0  0  0  0  0  0  0  0  0  0  0  0  0  0  0  0  0  0  0  0
 ITRead=  0  0  0  0  0  0  0  0  0  0  0  0  0  0  0  0  0  0  0  0
 ITRead=  0  0  0  0  0  0  0  0  0  0  0  0  0  0  0  0  0  0  0  0
 ITRead=  0  0  0  0  0  0  0  0  0  0  0  0  0  0  0  0  0  0  0  0
 ITRead=  0  0  0  0  0  0  0  0  0  0  0  0  0  0  0  0  0  0  0  0
 ITRead=  0  0  0  0  0  0  0  0  0  0  0  0  0  0  0  0  0  0  0  0
 ITRead=  0  0  0  0  0  0  0  0  0  0  0  0  0  0  0  0  0  0
 MicOpt= -1 -1 -1 -1 -1 -1 -1 -1 -1 -1 -1 -1 -1 -1 -1 -1 -1 -1 -1 -1
 MicOpt= -1 -1 -1 -1 -1 -1 -1 -1 -1 -1 -1 -1 -1 -1 -1 -1 -1 -1 -1 -1
 MicOpt= -1 -1 -1 -1 -1 -1 -1 -1 -1 -1 -1 -1 -1 -1 -1 -1 -1 -1 -1 -1
 MicOpt= -1 -1 -1 -1 -1 -1 -1 -1 -1 -1 -1 -1 -1 -1 -1 -1 -1 -1 -1 -1
 MicOpt= -1 -1 -1 -1 -1 -1 -1 -1 -1 -1 -1 -1 -1 -1 -1 -1 -1 -1 -1 -1
 MicOpt= -1 -1 -1 -1 -1 -1 -1 -1 -1 -1 -1 -1 -1 -1 -1 -1 -1 -1 -1 -1
 MicOpt= -1 -1 -1 -1 -1 -1 -1 -1 -1 -1 -1 -1 -1 -1 -1 -1 -1 -1 -1 -1
 MicOpt= -1 -1 -1 -1 -1 -1 -1 -1 -1 -1 -1 -1 -1 -1 -1 -1 -1 -1
 NAtoms=    158 NQM=      158 NQMF=       0 NMMI=      0 NMMIF=      0
                NMic=       0 NMicF=      0.
                    Isotopes and Nuclear Properties:
 (Nuclear quadrupole moments (NQMom) in fm**2, nuclear magnetic moments (NMagM)
  in nuclear magnetons)

  Atom         1           2           3           4           5           6           7           8           9          10
 IAtWgt=          24          12          12          12          12          14          12          12          12          12
 AtmWgt=  23.9850450  12.0000000  12.0000000  12.0000000  12.0000000  14.0030740  12.0000000  12.0000000  12.0000000  12.0000000
 NucSpn=           0           0           0           0           0           2           0           0           0           0
 AtZEff=  -0.0000000  -0.0000000  -0.0000000  -0.0000000  -0.0000000  -0.0000000  -0.0000000  -0.0000000  -0.0000000  -0.0000000
 NQMom=    0.0000000   0.0000000   0.0000000   0.0000000   0.0000000   2.0440000   0.0000000   0.0000000   0.0000000   0.0000000
 NMagM=    0.0000000   0.0000000   0.0000000   0.0000000   0.0000000   0.4037610   0.0000000   0.0000000   0.0000000   0.0000000
 AtZNuc=  12.0000000   6.0000000   6.0000000   6.0000000   6.0000000   7.0000000   6.0000000   6.0000000   6.0000000   6.0000000

  Atom        11          12          13          14          15          16          17          18          19          20
 IAtWgt=          12          12          12           1          14          12          12          12          12          12
 AtmWgt=  12.0000000  12.0000000  12.0000000   1.0078250  14.0030740  12.0000000  12.0000000  12.0000000  12.0000000  12.0000000
 NucSpn=           0           0           0           1           2           0           0           0           0           0
 AtZEff=  -0.0000000  -0.0000000  -0.0000000  -0.0000000  -0.0000000  -0.0000000  -0.0000000  -0.0000000  -0.0000000  -0.0000000
 NQMom=    0.0000000   0.0000000   0.0000000   0.0000000   2.0440000   0.0000000   0.0000000   0.0000000   0.0000000   0.0000000
 NMagM=    0.0000000   0.0000000   0.0000000   2.7928460   0.4037610   0.0000000   0.0000000   0.0000000   0.0000000   0.0000000
 AtZNuc=   6.0000000   6.0000000   6.0000000   1.0000000   7.0000000   6.0000000   6.0000000   6.0000000   6.0000000   6.0000000

  Atom        21          22          23          24          25          26          27          28          29          30
 IAtWgt=          12          16          12          14          12          12          12          12          12          12
 AtmWgt=  12.0000000  15.9949146  12.0000000  14.0030740  12.0000000  12.0000000  12.0000000  12.0000000  12.0000000  12.0000000
 NucSpn=           0           0           0           2           0           0           0           0           0           0
 AtZEff=  -0.0000000  -0.0000000  -0.0000000  -0.0000000  -0.0000000  -0.0000000  -0.0000000  -0.0000000  -0.0000000  -0.0000000
 NQMom=    0.0000000   0.0000000   0.0000000   2.0440000   0.0000000   0.0000000   0.0000000   0.0000000   0.0000000   0.0000000
 NMagM=    0.0000000   0.0000000   0.0000000   0.4037610   0.0000000   0.0000000   0.0000000   0.0000000   0.0000000   0.0000000
 AtZNuc=   6.0000000   8.0000000   6.0000000   7.0000000   6.0000000   6.0000000   6.0000000   6.0000000   6.0000000   6.0000000

  Atom        31          32          33          34          35          36          37          38          39          40
 IAtWgt=          12          14          12          12          12          12          12          12          16          12
 AtmWgt=  12.0000000  14.0030740  12.0000000  12.0000000  12.0000000  12.0000000  12.0000000  12.0000000  15.9949146  12.0000000
 NucSpn=           0           2           0           0           0           0           0           0           0           0
 AtZEff=  -0.0000000  -0.0000000  -0.0000000  -0.0000000  -0.0000000  -0.0000000  -0.0000000  -0.0000000  -0.0000000  -0.0000000
 NQMom=    0.0000000   2.0440000   0.0000000   0.0000000   0.0000000   0.0000000   0.0000000   0.0000000   0.0000000   0.0000000
 NMagM=    0.0000000   0.4037610   0.0000000   0.0000000   0.0000000   0.0000000   0.0000000   0.0000000   0.0000000   0.0000000
 AtZNuc=   6.0000000   7.0000000   6.0000000   6.0000000   6.0000000   6.0000000   6.0000000   6.0000000   8.0000000   6.0000000

  Atom        41          42          43          44          45          46          47          48          49          50
 IAtWgt=          12          16          16          12           1           1           1           1           1           1
 AtmWgt=  12.0000000  15.9949146  15.9949146  12.0000000   1.0078250   1.0078250   1.0078250   1.0078250   1.0078250   1.0078250
 NucSpn=           0           0           0           0           1           1           1           1           1           1
 AtZEff=  -0.0000000  -0.0000000  -0.0000000  -0.0000000  -0.0000000  -0.0000000  -0.0000000  -0.0000000  -0.0000000  -0.0000000
 NQMom=    0.0000000   0.0000000   0.0000000   0.0000000   0.0000000   0.0000000   0.0000000   0.0000000   0.0000000   0.0000000
 NMagM=    0.0000000   0.0000000   0.0000000   0.0000000   2.7928460   2.7928460   2.7928460   2.7928460   2.7928460   2.7928460
 AtZNuc=   6.0000000   8.0000000   8.0000000   6.0000000   1.0000000   1.0000000   1.0000000   1.0000000   1.0000000   1.0000000

  Atom        51          52          53          54          55          56          57          58          59          60
 IAtWgt=           1           1           1           1           1           1           1           1           1           1
 AtmWgt=   1.0078250   1.0078250   1.0078250   1.0078250   1.0078250   1.0078250   1.0078250   1.0078250   1.0078250   1.0078250
 NucSpn=           1           1           1           1           1           1           1           1           1           1
 AtZEff=  -0.0000000  -0.0000000  -0.0000000  -0.0000000  -0.0000000  -0.0000000  -0.0000000  -0.0000000  -0.0000000  -0.0000000
 NQMom=    0.0000000   0.0000000   0.0000000   0.0000000   0.0000000   0.0000000   0.0000000   0.0000000   0.0000000   0.0000000
 NMagM=    2.7928460   2.7928460   2.7928460   2.7928460   2.7928460   2.7928460   2.7928460   2.7928460   2.7928460   2.7928460
 AtZNuc=   1.0000000   1.0000000   1.0000000   1.0000000   1.0000000   1.0000000   1.0000000   1.0000000   1.0000000   1.0000000

  Atom        61          62          63          64          65          66          67          68          69          70
 IAtWgt=           1           1           1           1           1           1           1           1           1           1
 AtmWgt=   1.0078250   1.0078250   1.0078250   1.0078250   1.0078250   1.0078250   1.0078250   1.0078250   1.0078250   1.0078250
 NucSpn=           1           1           1           1           1           1           1           1           1           1
 AtZEff=  -0.0000000  -0.0000000  -0.0000000  -0.0000000  -0.0000000  -0.0000000  -0.0000000  -0.0000000  -0.0000000  -0.0000000
 NQMom=    0.0000000   0.0000000   0.0000000   0.0000000   0.0000000   0.0000000   0.0000000   0.0000000   0.0000000   0.0000000
 NMagM=    2.7928460   2.7928460   2.7928460   2.7928460   2.7928460   2.7928460   2.7928460   2.7928460   2.7928460   2.7928460
 AtZNuc=   1.0000000   1.0000000   1.0000000   1.0000000   1.0000000   1.0000000   1.0000000   1.0000000   1.0000000   1.0000000

  Atom        71          72          73          74          75          76          77          78          79          80
 IAtWgt=           1           1           1           1           1           1           1           1           1          24
 AtmWgt=   1.0078250   1.0078250   1.0078250   1.0078250   1.0078250   1.0078250   1.0078250   1.0078250   1.0078250  23.9850450
 NucSpn=           1           1           1           1           1           1           1           1           1           0
 AtZEff=  -0.0000000  -0.0000000  -0.0000000  -0.0000000  -0.0000000  -0.0000000  -0.0000000  -0.0000000  -0.0000000  -0.0000000
 NQMom=    0.0000000   0.0000000   0.0000000   0.0000000   0.0000000   0.0000000   0.0000000   0.0000000   0.0000000   0.0000000
 NMagM=    2.7928460   2.7928460   2.7928460   2.7928460   2.7928460   2.7928460   2.7928460   2.7928460   2.7928460   0.0000000
 AtZNuc=   1.0000000   1.0000000   1.0000000   1.0000000   1.0000000   1.0000000   1.0000000   1.0000000   1.0000000  12.0000000

  Atom        81          82          83          84          85          86          87          88          89          90
 IAtWgt=          12          12          12          12          14          12          12          12          12          12
 AtmWgt=  12.0000000  12.0000000  12.0000000  12.0000000  14.0030740  12.0000000  12.0000000  12.0000000  12.0000000  12.0000000
 NucSpn=           0           0           0           0           2           0           0           0           0           0
 AtZEff=  -0.0000000  -0.0000000  -0.0000000  -0.0000000  -0.0000000  -0.0000000  -0.0000000  -0.0000000  -0.0000000  -0.0000000
 NQMom=    0.0000000   0.0000000   0.0000000   0.0000000   2.0440000   0.0000000   0.0000000   0.0000000   0.0000000   0.0000000
 NMagM=    0.0000000   0.0000000   0.0000000   0.0000000   0.4037610   0.0000000   0.0000000   0.0000000   0.0000000   0.0000000
 AtZNuc=   6.0000000   6.0000000   6.0000000   6.0000000   7.0000000   6.0000000   6.0000000   6.0000000   6.0000000   6.0000000

  Atom        91          92          93          94          95          96          97          98          99         100
 IAtWgt=          12          12           1          14          12          12          12          12          12          12
 AtmWgt=  12.0000000  12.0000000   1.0078250  14.0030740  12.0000000  12.0000000  12.0000000  12.0000000  12.0000000  12.0000000
 NucSpn=           0           0           1           2           0           0           0           0           0           0
 AtZEff=  -0.0000000  -0.0000000  -0.0000000  -0.0000000  -0.0000000  -0.0000000  -0.0000000  -0.0000000  -0.0000000  -0.0000000
 NQMom=    0.0000000   0.0000000   0.0000000   2.0440000   0.0000000   0.0000000   0.0000000   0.0000000   0.0000000   0.0000000
 NMagM=    0.0000000   0.0000000   2.7928460   0.4037610   0.0000000   0.0000000   0.0000000   0.0000000   0.0000000   0.0000000
 AtZNuc=   6.0000000   6.0000000   1.0000000   7.0000000   6.0000000   6.0000000   6.0000000   6.0000000   6.0000000   6.0000000

  Atom       101         102         103         104         105         106         107         108         109         110
 IAtWgt=          16          12          14          12          12          12          12          12          12          12
 AtmWgt=  15.9949146  12.0000000  14.0030740  12.0000000  12.0000000  12.0000000  12.0000000  12.0000000  12.0000000  12.0000000
 NucSpn=           0           0           2           0           0           0           0           0           0           0
 AtZEff=  -0.0000000  -0.0000000  -0.0000000  -0.0000000  -0.0000000  -0.0000000  -0.0000000  -0.0000000  -0.0000000  -0.0000000
 NQMom=    0.0000000   0.0000000   2.0440000   0.0000000   0.0000000   0.0000000   0.0000000   0.0000000   0.0000000   0.0000000
 NMagM=    0.0000000   0.0000000   0.4037610   0.0000000   0.0000000   0.0000000   0.0000000   0.0000000   0.0000000   0.0000000
 AtZNuc=   8.0000000   6.0000000   7.0000000   6.0000000   6.0000000   6.0000000   6.0000000   6.0000000   6.0000000   6.0000000

  Atom       111         112         113         114         115         116         117         118         119         120
 IAtWgt=          14          12          12          12          12          12          12          16          12          12
 AtmWgt=  14.0030740  12.0000000  12.0000000  12.0000000  12.0000000  12.0000000  12.0000000  15.9949146  12.0000000  12.0000000
 NucSpn=           2           0           0           0           0           0           0           0           0           0
 AtZEff=  -0.0000000  -0.0000000  -0.0000000  -0.0000000  -0.0000000  -0.0000000  -0.0000000  -0.0000000  -0.0000000  -0.0000000
 NQMom=    2.0440000   0.0000000   0.0000000   0.0000000   0.0000000   0.0000000   0.0000000   0.0000000   0.0000000   0.0000000
 NMagM=    0.4037610   0.0000000   0.0000000   0.0000000   0.0000000   0.0000000   0.0000000   0.0000000   0.0000000   0.0000000
 AtZNuc=   7.0000000   6.0000000   6.0000000   6.0000000   6.0000000   6.0000000   6.0000000   8.0000000   6.0000000   6.0000000

  Atom       121         122         123         124         125         126         127         128         129         130
 IAtWgt=          16          16          12           1           1           1           1           1           1           1
 AtmWgt=  15.9949146  15.9949146  12.0000000   1.0078250   1.0078250   1.0078250   1.0078250   1.0078250   1.0078250   1.0078250
 NucSpn=           0           0           0           1           1           1           1           1           1           1
 AtZEff=  -0.0000000  -0.0000000  -0.0000000  -0.0000000  -0.0000000  -0.0000000  -0.0000000  -0.0000000  -0.0000000  -0.0000000
 NQMom=    0.0000000   0.0000000   0.0000000   0.0000000   0.0000000   0.0000000   0.0000000   0.0000000   0.0000000   0.0000000
 NMagM=    0.0000000   0.0000000   0.0000000   2.7928460   2.7928460   2.7928460   2.7928460   2.7928460   2.7928460   2.7928460
 AtZNuc=   8.0000000   8.0000000   6.0000000   1.0000000   1.0000000   1.0000000   1.0000000   1.0000000   1.0000000   1.0000000

  Atom       131         132         133         134         135         136         137         138         139         140
 IAtWgt=           1           1           1           1           1           1           1           1           1           1
 AtmWgt=   1.0078250   1.0078250   1.0078250   1.0078250   1.0078250   1.0078250   1.0078250   1.0078250   1.0078250   1.0078250
 NucSpn=           1           1           1           1           1           1           1           1           1           1
 AtZEff=  -0.0000000  -0.0000000  -0.0000000  -0.0000000  -0.0000000  -0.0000000  -0.0000000  -0.0000000  -0.0000000  -0.0000000
 NQMom=    0.0000000   0.0000000   0.0000000   0.0000000   0.0000000   0.0000000   0.0000000   0.0000000   0.0000000   0.0000000
 NMagM=    2.7928460   2.7928460   2.7928460   2.7928460   2.7928460   2.7928460   2.7928460   2.7928460   2.7928460   2.7928460
 AtZNuc=   1.0000000   1.0000000   1.0000000   1.0000000   1.0000000   1.0000000   1.0000000   1.0000000   1.0000000   1.0000000

  Atom       141         142         143         144         145         146         147         148         149         150
 IAtWgt=           1           1           1           1           1           1           1           1           1           1
 AtmWgt=   1.0078250   1.0078250   1.0078250   1.0078250   1.0078250   1.0078250   1.0078250   1.0078250   1.0078250   1.0078250
 NucSpn=           1           1           1           1           1           1           1           1           1           1
 AtZEff=  -0.0000000  -0.0000000  -0.0000000  -0.0000000  -0.0000000  -0.0000000  -0.0000000  -0.0000000  -0.0000000  -0.0000000
 NQMom=    0.0000000   0.0000000   0.0000000   0.0000000   0.0000000   0.0000000   0.0000000   0.0000000   0.0000000   0.0000000
 NMagM=    2.7928460   2.7928460   2.7928460   2.7928460   2.7928460   2.7928460   2.7928460   2.7928460   2.7928460   2.7928460
 AtZNuc=   1.0000000   1.0000000   1.0000000   1.0000000   1.0000000   1.0000000   1.0000000   1.0000000   1.0000000   1.0000000

  Atom       151         152         153         154         155         156         157         158
 IAtWgt=           1           1           1           1           1           1           1           1
 AtmWgt=   1.0078250   1.0078250   1.0078250   1.0078250   1.0078250   1.0078250   1.0078250   1.0078250
 NucSpn=           1           1           1           1           1           1           1           1
 AtZEff=  -0.0000000  -0.0000000  -0.0000000  -0.0000000  -0.0000000  -0.0000000  -0.0000000  -0.0000000
 NQMom=    0.0000000   0.0000000   0.0000000   0.0000000   0.0000000   0.0000000   0.0000000   0.0000000
 NMagM=    2.7928460   2.7928460   2.7928460   2.7928460   2.7928460   2.7928460   2.7928460   2.7928460
 AtZNuc=   1.0000000   1.0000000   1.0000000   1.0000000   1.0000000   1.0000000   1.0000000   1.0000000
 Leave Link  101 at Sat Sep 11 18:02:00 2021, MaxMem= 23488102400 cpu:               3.9 elap:               0.2
 (Enter /sw/apps/gaussian-16.0/g16/l202.exe)
 Stoichiometry    C68H72Mg2N8O8
 Framework group  C1[X(C68H72Mg2N8O8)]
 Deg. of freedom   468
 Full point group                 C1      NOp   1
 Largest Abelian subgroup         C1      NOp   1
 Largest concise Abelian subgroup C1      NOp   1
                         Standard orientation:                         
 ---------------------------------------------------------------------
 Center     Atomic      Atomic             Coordinates (Angstroms)
 Number     Number       Type             X           Y           Z
 ---------------------------------------------------------------------
      1         12           0        6.487042   -0.856990    0.361106
      2          6           0        6.953326    1.778356   -2.015813
      3          6           0        7.681220    1.278383    2.739591
      4          6           0        6.513295   -3.298582    2.384608
      5          6           0        6.420955   -3.071780   -2.328875
      6          7           0        7.193469    1.238205    0.252639
      7          6           0        7.265147    2.154815   -0.707497
      8          6           0        7.630463    3.574622   -0.180177
      9          6           0        8.370288    3.159163    1.169656
     10          6           0        7.683489    1.828831    1.423523
     11          6           0        9.865580    2.914424    0.994419
     12          6           0        6.362117    4.446804    0.106754
     13          6           0        6.628997    5.941068    0.309986
     14          1           0        5.649470    6.900100   -0.178002
     15          7           0        6.549625   -0.884056    2.335492
     16          6           0        7.056417    0.078470    3.142952
     17          6           0        6.868933   -0.409560    4.526193
     18          6           0        6.384998   -1.816052    4.450801
     19          6           0        6.489637   -2.067742    3.036205
     20          6           0        7.094889    0.442685    5.737131
     21          6           0        5.914417   -2.783703    5.490193
     22          8           0        5.759338   -4.027977    5.240579
     23          6           0        5.722009   -2.246012    6.849203
     24          7           0        6.689259   -2.917848    0.097279
     25          6           0        6.606742   -3.757753    1.134938
     26          6           0        6.496647   -5.181940    0.677217
     27          6           0        6.275635   -5.122546   -0.903093
     28          6           0        6.385152   -3.590296   -1.099270
     29          6           0        7.700840   -6.080643    0.990686
     30          6           0        5.029915   -5.851142   -1.466785
     31          6           0        3.772352   -5.148694   -1.006133
     32          7           0        6.476571   -0.693010   -1.803160
     33          6           0        6.469838   -1.746728   -2.728528
     34          6           0        6.575961   -1.144194   -4.070079
     35          6           0        6.654258    0.226145   -3.829483
     36          6           0        6.626890    0.462822   -2.425372
     37          6           0        6.648383   -1.855948   -5.299955
     38          6           0        6.779484    1.543873   -4.430955
     39          8           0        6.755107    1.976642   -5.584042
     40          6           0        7.100789    2.592975   -3.276843
     41          6           0        6.183379    3.770430   -3.464635
     42          8           0        4.951601    3.654069   -3.301696
     43          8           0        6.914123    4.890784   -3.571233
     44          6           0        6.063351    6.100366   -3.730143
     45          1           0        8.257874    1.776870    3.521206
     46          1           0        6.412115   -4.164335    3.042385
     47          1           0        6.321455   -3.695006   -3.219460
     48          1           0        8.311336    4.135918   -0.820320
     49          1           0        8.158694    3.855712    1.980686
     50          1           0       10.153035    2.940295   -0.056590
     51          1           0       10.049994    1.925822    1.415311
     52          1           0       10.445711    3.610989    1.600242
     53          1           0        5.966743    4.193490    1.090406
     54          1           0        5.618607    4.317167   -0.680464
     55          1           0        7.630674    6.215784   -0.021802
     56          1           0        6.632953    6.144760    1.380824
     57          1           0        7.604682    1.371383    5.483802
     58          1           0        7.800996   -0.089796    6.373987
     59          1           0        6.171786    0.628078    6.286534
     60          1           0        6.663477   -1.829640    7.208120
     61          1           0        5.298294   -3.059387    7.437197
     62          1           0        5.017006   -1.415436    6.803767
     63          1           0        5.642886   -5.676209    1.138969
     64          1           0        7.110531   -5.561760   -1.449641
     65          1           0        7.446142   -6.966834    1.572493
     66          1           0        8.447474   -5.476353    1.505140
     67          1           0        8.259036   -6.417879    0.117698
     68          1           0        4.984105   -6.871790   -1.088467
     69          1           0        5.016016   -5.900112   -2.555665
     70          1           0        3.606643   -5.570850   -0.015599
     71          1           0        2.941283   -5.380138   -1.673193
     72          1           0        3.937388   -4.078400   -0.880752
     73          1           0        5.991618   -1.332327   -5.994541
     74          1           0        6.344751   -2.895031   -5.174589
     75          1           0        7.709168   -1.755638   -5.529148
     76          1           0        8.149004    2.869039   -3.387097
     77          1           0        6.384754    6.601120   -4.643477
     78          1           0        6.137467    6.656329   -2.795362
     79          1           0        5.010398    5.923315   -3.952140
     80         12           0       -6.650953    0.728425    0.658903
     81          6           0       -6.826344   -2.005208   -1.659626
     82          6           0       -5.593830    2.668999   -1.939412
     83          6           0       -6.055296    3.035473    2.754166
     84          6           0       -6.606363   -1.631121    3.223328
     85          7           0       -6.295777    0.276047   -1.476862
     86          6           0       -6.455366   -0.782467   -2.256877
     87          6           0       -6.281264   -0.496573   -3.772629
     88          6           0       -5.355793    0.811470   -3.665878
     89          6           0       -5.795366    1.310343   -2.290891
     90          6           0       -3.870685    0.494756   -3.606717
     91          6           0       -7.644652   -0.179287   -4.481516
     92          6           0       -7.593213   -0.194803   -6.010854
     93          1           0       -8.758851   -0.684540   -6.741540
     94          7           0       -6.406077    2.678903    0.386440
     95          6           0       -5.992155    3.297642   -0.739214
     96          6           0       -5.957570    4.733229   -0.419736
     97          6           0       -6.226310    4.896687    1.034830
     98          6           0       -6.218899    3.511777    1.461523
     99          6           0       -5.767539    5.794861   -1.463892
    100          6           0       -6.440215    6.100924    1.900999
    101          8           0       -6.420912    6.022287    3.180172
    102          6           0       -6.579877    7.390201    1.208376
    103          7           0       -6.158116    0.706088    2.678544
    104          6           0       -6.004441    1.851769    3.365369
    105          6           0       -5.926455    1.591031    4.850733
    106          6           0       -6.303851    0.048101    5.036484
    107          6           0       -6.454332   -0.355931    3.553409
    108          6           0       -4.572195    1.865674    5.504142
    109          6           0       -7.466184   -0.279443    6.013406
    110          6           0       -8.772439    0.234395    5.452109
    111          7           0       -6.890013   -1.413854    0.805701
    112          6           0       -6.809198   -2.203090    1.973896
    113          6           0       -6.924305   -3.614869    1.554330
    114          6           0       -7.041933   -3.549748    0.157756
    115          6           0       -6.982609   -2.194344   -0.265152
    116          6           0       -6.864142   -4.746310    2.415923
    117          6           0       -7.192124   -4.320074   -1.055810
    118          8           0       -7.383453   -5.508019   -1.312588
    119          6           0       -6.932213   -3.362570   -2.297583
    120          6           0       -8.036869   -3.584104   -3.294162
    121          8           0       -9.209989   -3.279574   -3.015477
    122          8           0       -7.498689   -3.913311   -4.482586
    123          6           0       -8.554525   -4.132325   -5.506830
    124          1           0       -5.040825    3.306881   -2.629472
    125          1           0       -5.957383    3.799165    3.529188
    126          1           0       -6.699785   -2.420763    3.971937
    127          1           0       -5.765515   -1.272876   -4.325016
    128          1           0       -5.608585    1.537924   -4.433807
    129          1           0       -3.687946   -0.566561   -3.526916
    130          1           0       -3.494564    1.010198   -2.732708
    131          1           0       -3.356051    0.939184   -4.463438
    132          1           0       -7.899111    0.875005   -4.312776
    133          1           0       -8.415403   -0.842116   -4.139130
    134          1           0       -6.677435   -0.666274   -6.387707
    135          1           0       -7.529576    0.836480   -6.366405
    136          1           0       -5.430035    5.366890   -2.415909
    137          1           0       -4.930467    6.420322   -1.135327
    138          1           0       -6.650912    6.424466   -1.590074
    139          1           0       -5.689539    7.578706    0.613197
    140          1           0       -6.814554    8.117069    1.988418
    141          1           0       -7.418692    7.321370    0.506758
    142          1           0       -6.646509    2.196066    5.387905
    143          1           0       -5.459587   -0.532598    5.436283
    144          1           0       -4.628634    2.591871    6.336924
    145          1           0       -3.889452    2.214699    4.740865
    146          1           0       -4.058408    0.986463    5.889140
    147          1           0       -7.315237    0.232696    6.966867
    148          1           0       -7.564193   -1.338264    6.228561
    149          1           0       -8.771149    1.287574    5.748592
    150          1           0       -9.613811   -0.298142    5.890888
    151          1           0       -8.770479    0.200404    4.356431
    152          1           0       -7.649072   -5.420452    2.099814
    153          1           0       -6.981987   -4.458760    3.458609
    154          1           0       -5.853244   -5.102326    2.200033
    155          1           0       -5.953912   -3.616180   -2.707700
    156          1           0       -8.398911   -5.135050   -5.916734
    157          1           0       -8.469974   -3.282168   -6.209559
    158          1           0       -9.579891   -4.201245   -5.162840
 ---------------------------------------------------------------------
 Rotational constants (GHZ):           0.0204069           0.0077679           0.0076667
 Leave Link  202 at Sat Sep 11 18:02:00 2021, MaxMem= 23488102400 cpu:               0.2 elap:               0.0
 (Enter /sw/apps/gaussian-16.0/g16/l301.exe)
 Standard basis: def2SVP (5D, 7F)
 Ernie: Thresh=  0.10000D-02 Tol=  0.10000D-05 Strict=F.
 There are  1658 symmetry adapted cartesian basis functions of A   symmetry.
 There are  1572 symmetry adapted basis functions of A   symmetry.
  1572 basis functions,  2678 primitive gaussians,  1658 cartesian basis functions
   312 alpha electrons      312 beta electrons
       nuclear repulsion energy     14242.1457999094 Hartrees.
 IExCor=20419 DFT=T Ex+Corr=CAM-B3LYP ExCW=0 ScaHFX=  1.000000
 ScaDFX=  1.000000  1.000000  1.000000  0.810000 ScalE2=  1.000000  1.000000
 IRadAn=      5 IRanWt=     -1 IRanGd=            0 ICorTp=0 IEmpDi=  4
 HFx  wShort=  0.000000 wLong=  0.330000 cFull=  0.190000 cShort=  0.000000 cLong=  0.460000
 DFx  wShort=  0.000000 wLong=  0.330000 cFull=  0.190000 cShort=  0.000000 cLong=  0.460000
 NAtoms=  158 NActive=  158 NUniq=  158 SFac= 1.00D+00 NAtFMM=   60 NAOKFM=T Big=T
 Integral buffers will be    131072 words long.
 Raffenetti 1 integral format.
 Two-electron integral symmetry is turned on.
 Leave Link  301 at Sat Sep 11 18:02:00 2021, MaxMem= 23488102400 cpu:               1.3 elap:               0.1
 (Enter /sw/apps/gaussian-16.0/g16/l302.exe)
 NPDir=0 NMtPBC=     1 NCelOv=     1 NCel=       1 NClECP=     1 NCelD=      1
         NCelK=      1 NCelE2=     1 NClLst=     1 CellRange=     0.0.
 One-electron integrals computed using PRISM.
 One-electron integral symmetry used in STVInt
   1 Symmetry operations used in ECPInt.
 ECPInt:  NShTT=  271216 NPrTT=  987664 LenC2=  116642 LenP2D=  255250.
 LDataN:  DoStor=T MaxTD1= 4 Len=   56
 NBasis=  1572 RedAO= T EigKep=  3.36D-04  NBF=  1572
 NBsUse=  1572 1.00D-06 EigRej= -1.00D+00 NBFU=  1572
 Precomputing XC quadrature grid using
 IXCGrd= 4 IRadAn=           5 IRanWt=          -1 IRanGd=           0 AccXCQ= 0.00D+00.
 Generated NRdTot=       0 NPtTot=           0 NUsed=           0 NTot=          32
 NSgBfM=   989   973   983   988   989 MxSgAt=   158 MxSgA2=   157.
 Leave Link  302 at Sat Sep 11 18:02:05 2021, MaxMem= 23488102400 cpu:             116.2 elap:               4.9
 (Enter /sw/apps/gaussian-16.0/g16/l303.exe)
 DipDrv:  MaxL=1.
 Leave Link  303 at Sat Sep 11 18:02:05 2021, MaxMem= 23488102400 cpu:               8.8 elap:               0.4
 (Enter /sw/apps/gaussian-16.0/g16/l308.exe)
 Leave Link  308 at Sat Sep 11 18:02:06 2021, MaxMem= 23488102400 cpu:              17.0 elap:               0.8
 (Enter /sw/apps/gaussian-16.0/g16/l401.exe)
 ExpMin= 3.36D-02 ExpMax= 4.95D+03 ExpMxC= 7.45D+02 IAcc=3 IRadAn=         5 AccDes= 0.00D+00
 Harris functional with IExCor=20419 and IRadAn=       5 diagonalized for initial guess.
 HarFok:  IExCor=20419 AccDes= 0.00D+00 IRadAn=         5 IDoV= 1 UseB2=F ITyADJ=14
 ICtDFT=  3500011 ScaDFX=  1.000000  1.000000  1.000000  1.000000
 FoFCou: FMM=F IPFlag=           0 FMFlag=      100000 FMFlg1=        2001
         NFxFlg=           0 DoJE=T BraDBF=F KetDBF=T FulRan=T
         wScrn=  0.000000 ICntrl=       500 IOpCl=  0 I1Cent=   200000004 NGrid=           0
         NMat0=    1 NMatS0=      1 NMatT0=    0 NMatD0=    1 NMtDS0=    0 NMtDT0=    0
 Petite list used in FoFCou.
 Harris En= -3918.65801532227    
 JPrj=0 DoOrth=F DoCkMO=F.
 Leave Link  401 at Sat Sep 11 18:02:13 2021, MaxMem= 23488102400 cpu:             162.2 elap:               6.8
 (Enter /sw/apps/gaussian-16.0/g16/l502.exe)
 Integral symmetry usage will be decided dynamically.
 Closed shell SCF:
 Using DIIS extrapolation, IDIIS=  1040.
 NGot= 23488102400 LenX= 23482547354 LenY= 23479796732
 Requested convergence on RMS density matrix=1.00D-08 within 128 cycles.
 Requested convergence on MAX density matrix=1.00D-06.
 Requested convergence on             energy=1.00D-06.
 No special actions if energy rises.
 Fock matrices will be formed incrementally for  20 cycles.

 Cycle   1  Pass 1  IDiag  1:
 FoFJK:  IHMeth= 1 ICntrl=       0 DoSepK=T KAlg= 0 I1Cent=           0 FoldK=F
 IRaf=         1 NMat=       1 IRICut=       1 DoRegI=T DoRafI=F ISym2E= 0 IDoP0=0 IntGTp=1.
 FoFCou: FMM=T IPFlag=           0 FMFlag=      100000 FMFlg1=        2001
         NFxFlg=           0 DoJE=T BraDBF=F KetDBF=F FulRan=T
         wScrn=  0.000000 ICntrl=       500 IOpCl=  0 I1Cent=           0 NGrid=           0
         NMat0=    1 NMatS0=      1 NMatT0=    0 NMatD0=    1 NMtDS0=    0 NMtDT0=    0
 Symmetry not used in FoFCou.
 FMM levels:  10  Number of levels for PrismC:   9
 E= -4068.95002926779    
 DIIS: error= 2.04D-02 at cycle   1 NSaved=   1.
 NSaved= 1 IEnMin= 1 EnMin= -4068.95002926779     IErMin= 1 ErrMin= 2.04D-02
 ErrMax= 2.04D-02  0.00D+00 EMaxC= 1.00D-01 BMatC= 1.69D+00 BMatP= 1.69D+00
 IDIUse=3 WtCom= 7.96D-01 WtEn= 2.04D-01
 Coeff-Com:  0.100D+01
 Coeff-En:   0.100D+01
 Coeff:      0.100D+01
 Gap=     0.120 Goal=   None    Shift=    0.000
 GapD=    0.120 DampG=1.000 DampE=0.500 DampFc=0.5000 IDamp=-1.
 Damping current iteration by 5.00D-01
 RMSDP=1.57D-03 MaxDP=1.35D-01              OVMax= 2.00D-01

 Cycle   2  Pass 1  IDiag  1:
 RMSU=  7.69D-04    CP:  9.82D-01
 E= -4069.33898749778     Delta-E=       -0.388958229982 Rises=F Damp=T
 DIIS: error= 1.27D-02 at cycle   2 NSaved=   2.
 NSaved= 2 IEnMin= 2 EnMin= -4069.33898749778     IErMin= 2 ErrMin= 1.27D-02
 ErrMax= 1.27D-02  0.00D+00 EMaxC= 1.00D-01 BMatC= 3.06D-01 BMatP= 1.69D+00
 IDIUse=3 WtCom= 8.73D-01 WtEn= 1.27D-01
 Coeff-Com: -0.214D+00 0.121D+01
 Coeff-En:   0.000D+00 0.100D+01
 Coeff:     -0.187D+00 0.119D+01
 Gap=     0.135 Goal=   None    Shift=    0.000
 RMSDP=7.64D-04 MaxDP=9.45D-02 DE=-3.89D-01 OVMax= 1.85D-01

 Cycle   3  Pass 1  IDiag  1:
 RMSU=  7.31D-04    CP:  9.68D-01  1.24D+00
 E= -4069.62955129330     Delta-E=       -0.290563795526 Rises=F Damp=F
 DIIS: error= 1.56D-02 at cycle   3 NSaved=   3.
 NSaved= 3 IEnMin= 3 EnMin= -4069.62955129330     IErMin= 2 ErrMin= 1.27D-02
 ErrMax= 1.56D-02  0.00D+00 EMaxC= 1.00D-01 BMatC= 2.01D-01 BMatP= 3.06D-01
 IDIUse=3 WtCom= 8.44D-01 WtEn= 1.56D-01
 Coeff-Com: -0.267D+00 0.651D+00 0.616D+00
 Coeff-En:   0.000D+00 0.000D+00 0.100D+01
 Coeff:     -0.225D+00 0.549D+00 0.676D+00
 Gap=     0.122 Goal=   None    Shift=    0.000
 RMSDP=5.05D-04 MaxDP=4.72D-02 DE=-2.91D-01 OVMax= 1.37D-01

 Cycle   4  Pass 1  IDiag  1:
 RMSU=  2.64D-04    CP:  9.65D-01  1.55D+00  5.08D-01
 E= -4069.76635253198     Delta-E=       -0.136801238681 Rises=F Damp=F
 DIIS: error= 7.20D-03 at cycle   4 NSaved=   4.
 NSaved= 4 IEnMin= 4 EnMin= -4069.76635253198     IErMin= 4 ErrMin= 7.20D-03
 ErrMax= 7.20D-03  0.00D+00 EMaxC= 1.00D-01 BMatC= 4.95D-02 BMatP= 2.01D-01
 IDIUse=3 WtCom= 9.28D-01 WtEn= 7.20D-02
 Coeff-Com: -0.109D+00 0.225D+00 0.408D+00 0.475D+00
 Coeff-En:   0.000D+00 0.000D+00 0.218D+00 0.782D+00
 Coeff:     -0.101D+00 0.209D+00 0.394D+00 0.498D+00
 Gap=     0.122 Goal=   None    Shift=    0.000
 RMSDP=1.97D-04 MaxDP=2.05D-02 DE=-1.37D-01 OVMax= 5.83D-02

 Cycle   5  Pass 1  IDiag  1:
 RMSU=  7.47D-05    CP:  9.64D-01  1.49D+00  6.90D-01  5.53D-01
 E= -4069.81087241825     Delta-E=       -0.044519886262 Rises=F Damp=F
 DIIS: error= 7.84D-04 at cycle   5 NSaved=   5.
 NSaved= 5 IEnMin= 5 EnMin= -4069.81087241825     IErMin= 5 ErrMin= 7.84D-04
 ErrMax= 7.84D-04  0.00D+00 EMaxC= 1.00D-01 BMatC= 1.11D-03 BMatP= 4.95D-02
 IDIUse=3 WtCom= 9.92D-01 WtEn= 7.84D-03
 Coeff-Com: -0.353D-01 0.692D-01 0.163D+00 0.247D+00 0.556D+00
 Coeff-En:   0.000D+00 0.000D+00 0.000D+00 0.000D+00 0.100D+01
 Coeff:     -0.350D-01 0.687D-01 0.162D+00 0.245D+00 0.559D+00
 Gap=     0.121 Goal=   None    Shift=    0.000
 RMSDP=3.98D-05 MaxDP=4.08D-03 DE=-4.45D-02 OVMax= 1.47D-02

 Cycle   6  Pass 1  IDiag  1:
 RMSU=  2.98D-05    CP:  9.64D-01  1.49D+00  6.82D-01  6.23D-01  7.67D-01
 E= -4069.81182242473     Delta-E=       -0.000950006488 Rises=F Damp=F
 DIIS: error= 2.25D-04 at cycle   6 NSaved=   6.
 NSaved= 6 IEnMin= 6 EnMin= -4069.81182242473     IErMin= 6 ErrMin= 2.25D-04
 ErrMax= 2.25D-04  0.00D+00 EMaxC= 1.00D-01 BMatC= 1.71D-04 BMatP= 1.11D-03
 IDIUse=3 WtCom= 9.98D-01 WtEn= 2.25D-03
 Coeff-Com:  0.233D-02-0.680D-02 0.105D-01 0.392D-01 0.308D+00 0.646D+00
 Coeff-En:   0.000D+00 0.000D+00 0.000D+00 0.000D+00 0.103D+00 0.897D+00
 Coeff:      0.233D-02-0.679D-02 0.105D-01 0.391D-01 0.308D+00 0.647D+00
 Gap=     0.121 Goal=   None    Shift=    0.000
 RMSDP=1.55D-05 MaxDP=1.20D-03 DE=-9.50D-04 OVMax= 6.68D-03

 Cycle   7  Pass 1  IDiag  1:
 RMSU=  1.05D-05    CP:  9.64D-01  1.50D+00  6.88D-01  6.23D-01  8.65D-01
                    CP:  7.49D-01
 E= -4069.81200480953     Delta-E=       -0.000182384800 Rises=F Damp=F
 DIIS: error= 7.40D-05 at cycle   7 NSaved=   7.
 NSaved= 7 IEnMin= 7 EnMin= -4069.81200480953     IErMin= 7 ErrMin= 7.40D-05
 ErrMax= 7.40D-05  0.00D+00 EMaxC= 1.00D-01 BMatC= 1.98D-05 BMatP= 1.71D-04
 IDIUse=1 WtCom= 1.00D+00 WtEn= 0.00D+00
 Coeff-Com:  0.441D-02-0.964D-02-0.898D-02-0.403D-02 0.101D+00 0.326D+00
 Coeff-Com:  0.590D+00
 Coeff:      0.441D-02-0.964D-02-0.898D-02-0.403D-02 0.101D+00 0.326D+00
 Coeff:      0.590D+00
 Gap=     0.122 Goal=   None    Shift=    0.000
 RMSDP=6.44D-06 MaxDP=1.10D-03 DE=-1.82D-04 OVMax= 3.08D-03

 Cycle   8  Pass 1  IDiag  1:
 RMSU=  4.63D-06    CP:  9.64D-01  1.50D+00  6.88D-01  6.28D-01  8.70D-01
                    CP:  8.77D-01  8.26D-01
 E= -4069.81202935577     Delta-E=       -0.000024546236 Rises=F Damp=F
 DIIS: error= 4.67D-05 at cycle   8 NSaved=   8.
 NSaved= 8 IEnMin= 8 EnMin= -4069.81202935577     IErMin= 8 ErrMin= 4.67D-05
 ErrMax= 4.67D-05  0.00D+00 EMaxC= 1.00D-01 BMatC= 4.73D-06 BMatP= 1.98D-05
 IDIUse=1 WtCom= 1.00D+00 WtEn= 0.00D+00
 Coeff-Com:  0.214D-02-0.423D-02-0.772D-02-0.122D-01-0.125D-01 0.336D-01
 Coeff-Com:  0.349D+00 0.652D+00
 Coeff:      0.214D-02-0.423D-02-0.772D-02-0.122D-01-0.125D-01 0.336D-01
 Coeff:      0.349D+00 0.652D+00
 Gap=     0.122 Goal=   None    Shift=    0.000
 RMSDP=3.23D-06 MaxDP=3.10D-04 DE=-2.45D-05 OVMax= 1.11D-03

 Cycle   9  Pass 1  IDiag  1:
 RMSU=  1.89D-06    CP:  9.64D-01  1.50D+00  6.89D-01  6.29D-01  8.87D-01
                    CP:  9.02D-01  1.03D+00  9.31D-01
 E= -4069.81203689826     Delta-E=       -0.000007542490 Rises=F Damp=F
 DIIS: error= 2.03D-05 at cycle   9 NSaved=   9.
 NSaved= 9 IEnMin= 9 EnMin= -4069.81203689826     IErMin= 9 ErrMin= 2.03D-05
 ErrMax= 2.03D-05  0.00D+00 EMaxC= 1.00D-01 BMatC= 6.72D-07 BMatP= 4.73D-06
 IDIUse=1 WtCom= 1.00D+00 WtEn= 0.00D+00
 Coeff-Com:  0.467D-03-0.778D-03-0.267D-02-0.600D-02-0.217D-01-0.377D-01
 Coeff-Com:  0.107D+00 0.326D+00 0.636D+00
 Coeff:      0.467D-03-0.778D-03-0.267D-02-0.600D-02-0.217D-01-0.377D-01
 Coeff:      0.107D+00 0.326D+00 0.636D+00
 Gap=     0.122 Goal=   None    Shift=    0.000
 RMSDP=1.40D-06 MaxDP=1.48D-04 DE=-7.54D-06 OVMax= 7.50D-04

 Cycle  10  Pass 1  IDiag  1:
 RMSU=  9.29D-07    CP:  9.64D-01  1.50D+00  6.89D-01  6.30D-01  8.90D-01
                    CP:  9.16D-01  1.07D+00  1.10D+00  1.05D+00
 E= -4069.81203843613     Delta-E=       -0.000001537868 Rises=F Damp=F
 DIIS: error= 1.04D-05 at cycle  10 NSaved=  10.
 NSaved=10 IEnMin=10 EnMin= -4069.81203843613     IErMin=10 ErrMin= 1.04D-05
 ErrMax= 1.04D-05  0.00D+00 EMaxC= 1.00D-01 BMatC= 1.68D-07 BMatP= 6.72D-07
 IDIUse=1 WtCom= 1.00D+00 WtEn= 0.00D+00
 Coeff-Com: -0.424D-03 0.887D-03 0.122D-02 0.113D-02-0.386D-02-0.307D-01
 Coeff-Com: -0.469D-01-0.760D-01 0.258D+00 0.896D+00
 Coeff:     -0.424D-03 0.887D-03 0.122D-02 0.113D-02-0.386D-02-0.307D-01
 Coeff:     -0.469D-01-0.760D-01 0.258D+00 0.896D+00
 Gap=     0.122 Goal=   None    Shift=    0.000
 RMSDP=1.20D-06 MaxDP=1.19D-04 DE=-1.54D-06 OVMax= 6.06D-04

 Cycle  11  Pass 1  IDiag  1:
 RMSU=  5.05D-07    CP:  9.64D-01  1.50D+00  6.89D-01  6.30D-01  8.93D-01
                    CP:  9.26D-01  1.12D+00  1.21D+00  1.38D+00  1.36D+00
 E= -4069.81203919858     Delta-E=       -0.000000762448 Rises=F Damp=F
 DIIS: error= 3.90D-06 at cycle  11 NSaved=  11.
 NSaved=11 IEnMin=11 EnMin= -4069.81203919858     IErMin=11 ErrMin= 3.90D-06
 ErrMax= 3.90D-06  0.00D+00 EMaxC= 1.00D-01 BMatC= 5.82D-08 BMatP= 1.68D-07
 IDIUse=1 WtCom= 1.00D+00 WtEn= 0.00D+00
 Coeff-Com: -0.324D-03 0.629D-03 0.131D-02 0.211D-02 0.443D-02-0.829D-02
 Coeff-Com: -0.439D-01-0.132D+00-0.193D-01 0.457D+00 0.738D+00
 Coeff:     -0.324D-03 0.629D-03 0.131D-02 0.211D-02 0.443D-02-0.829D-02
 Coeff:     -0.439D-01-0.132D+00-0.193D-01 0.457D+00 0.738D+00
 Gap=     0.122 Goal=   None    Shift=    0.000
 RMSDP=6.72D-07 MaxDP=5.83D-05 DE=-7.62D-07 OVMax= 3.65D-04

 Cycle  12  Pass 1  IDiag  1:
 RMSU=  2.58D-07    CP:  9.64D-01  1.50D+00  6.89D-01  6.30D-01  8.94D-01
                    CP:  9.29D-01  1.14D+00  1.27D+00  1.55D+00  1.75D+00
                    CP:  1.21D+00
 E= -4069.81203945060     Delta-E=       -0.000000252028 Rises=F Damp=F
 DIIS: error= 2.36D-06 at cycle  12 NSaved=  12.
 NSaved=12 IEnMin=12 EnMin= -4069.81203945060     IErMin=12 ErrMin= 2.36D-06
 ErrMax= 2.36D-06  0.00D+00 EMaxC= 1.00D-01 BMatC= 1.42D-08 BMatP= 5.82D-08
 IDIUse=1 WtCom= 1.00D+00 WtEn= 0.00D+00
 Coeff-Com:  0.220D-05-0.205D-04 0.166D-03 0.490D-03 0.325D-02 0.402D-02
 Coeff-Com:  0.317D-02-0.342D-01-0.655D-01-0.819D-01 0.248D+00 0.923D+00
 Coeff:      0.220D-05-0.205D-04 0.166D-03 0.490D-03 0.325D-02 0.402D-02
 Coeff:      0.317D-02-0.342D-01-0.655D-01-0.819D-01 0.248D+00 0.923D+00
 Gap=     0.122 Goal=   None    Shift=    0.000
 RMSDP=4.30D-07 MaxDP=3.02D-05 DE=-2.52D-07 OVMax= 2.48D-04

 Cycle  13  Pass 1  IDiag  1:
 RMSU=  1.62D-07    CP:  9.64D-01  1.50D+00  6.89D-01  6.30D-01  8.94D-01
                    CP:  9.29D-01  1.15D+00  1.30D+00  1.66D+00  1.97D+00
                    CP:  1.62D+00  1.28D+00
 E= -4069.81203953883     Delta-E=       -0.000000088225 Rises=F Damp=F
 DIIS: error= 1.28D-06 at cycle  13 NSaved=  13.
 NSaved=13 IEnMin=13 EnMin= -4069.81203953883     IErMin=13 ErrMin= 1.28D-06
 ErrMax= 1.28D-06  0.00D+00 EMaxC= 1.00D-01 BMatC= 7.80D-09 BMatP= 1.42D-08
 IDIUse=1 WtCom= 1.00D+00 WtEn= 0.00D+00
 Coeff-Com:  0.119D-03-0.243D-03-0.369D-03-0.460D-03 0.539D-03 0.502D-02
 Coeff-Com:  0.200D-01 0.224D-01-0.335D-01-0.241D+00-0.155D+00 0.601D+00
 Coeff-Com:  0.782D+00
 Coeff:      0.119D-03-0.243D-03-0.369D-03-0.460D-03 0.539D-03 0.502D-02
 Coeff:      0.200D-01 0.224D-01-0.335D-01-0.241D+00-0.155D+00 0.601D+00
 Coeff:      0.782D+00
 Gap=     0.122 Goal=   None    Shift=    0.000
 RMSDP=3.30D-07 MaxDP=2.12D-05 DE=-8.82D-08 OVMax= 1.91D-04

 Cycle  14  Pass 1  IDiag  1:
 RMSU=  7.45D-08    CP:  9.64D-01  1.50D+00  6.89D-01  6.30D-01  8.94D-01
                    CP:  9.30D-01  1.16D+00  1.32D+00  1.73D+00  2.16D+00
                    CP:  1.88D+00  1.79D+00  1.08D+00
 E= -4069.81203957305     Delta-E=       -0.000000034219 Rises=F Damp=F
 DIIS: error= 6.53D-07 at cycle  14 NSaved=  14.
 NSaved=14 IEnMin=14 EnMin= -4069.81203957305     IErMin=14 ErrMin= 6.53D-07
 ErrMax= 6.53D-07  0.00D+00 EMaxC= 1.00D-01 BMatC= 1.22D-09 BMatP= 7.80D-09
 IDIUse=1 WtCom= 1.00D+00 WtEn= 0.00D+00
 Coeff-Com:  0.658D-04-0.130D-03-0.244D-03-0.385D-03-0.495D-03 0.128D-02
 Coeff-Com:  0.109D-01 0.188D-01 0.354D-02-0.989D-01-0.141D+00 0.948D-01
 Coeff-Com:  0.404D+00 0.708D+00
 Coeff:      0.658D-04-0.130D-03-0.244D-03-0.385D-03-0.495D-03 0.128D-02
 Coeff:      0.109D-01 0.188D-01 0.354D-02-0.989D-01-0.141D+00 0.948D-01
 Coeff:      0.404D+00 0.708D+00
 Gap=     0.122 Goal=   None    Shift=    0.000
 RMSDP=9.87D-08 MaxDP=6.81D-06 DE=-3.42D-08 OVMax= 5.36D-05

 Cycle  15  Pass 1  IDiag  1:
 RMSU=  3.78D-08    CP:  9.64D-01  1.50D+00  6.89D-01  6.30D-01  8.94D-01
                    CP:  9.29D-01  1.16D+00  1.32D+00  1.75D+00  2.20D+00
                    CP:  1.99D+00  1.93D+00  1.32D+00  1.02D+00
 E= -4069.81203957677     Delta-E=       -0.000000003725 Rises=F Damp=F
 DIIS: error= 3.10D-07 at cycle  15 NSaved=  15.
 NSaved=15 IEnMin=15 EnMin= -4069.81203957677     IErMin=15 ErrMin= 3.10D-07
 ErrMax= 3.10D-07  0.00D+00 EMaxC= 1.00D-01 BMatC= 2.24D-10 BMatP= 1.22D-09
 IDIUse=1 WtCom= 1.00D+00 WtEn= 0.00D+00
 Coeff-Com:  0.504D-05-0.833D-05-0.311D-04-0.793D-04-0.299D-03-0.509D-03
 Coeff-Com:  0.114D-02 0.239D-02 0.873D-02 0.198D-02-0.305D-01-0.733D-01
 Coeff-Com:  0.274D-01 0.298D+00 0.765D+00
 Coeff:      0.504D-05-0.833D-05-0.311D-04-0.793D-04-0.299D-03-0.509D-03
 Coeff:      0.114D-02 0.239D-02 0.873D-02 0.198D-02-0.305D-01-0.733D-01
 Coeff:      0.274D-01 0.298D+00 0.765D+00
 Gap=     0.122 Goal=   None    Shift=    0.000
 RMSDP=4.06D-08 MaxDP=2.59D-06 DE=-3.73D-09 OVMax= 2.70D-05

 Cycle  16  Pass 1  IDiag  1:
 RMSU=  1.83D-08    CP:  9.64D-01  1.50D+00  6.89D-01  6.30D-01  8.94D-01
                    CP:  9.29D-01  1.16D+00  1.33D+00  1.75D+00  2.22D+00
                    CP:  2.01D+00  1.99D+00  1.40D+00  1.24D+00  1.15D+00
 E= -4069.81203957756     Delta-E=       -0.000000000789 Rises=F Damp=F
 DIIS: error= 1.70D-07 at cycle  16 NSaved=  16.
 NSaved=16 IEnMin=16 EnMin= -4069.81203957756     IErMin=16 ErrMin= 1.70D-07
 ErrMax= 1.70D-07  0.00D+00 EMaxC= 1.00D-01 BMatC= 7.98D-11 BMatP= 2.24D-10
 IDIUse=1 WtCom= 1.00D+00 WtEn= 0.00D+00
 Coeff-Com: -0.141D-04 0.286D-04 0.470D-04 0.542D-04-0.234D-04-0.629D-03
 Coeff-Com: -0.200D-02-0.426D-02 0.464D-02 0.255D-01 0.205D-01-0.648D-01
 Coeff-Com: -0.841D-01-0.354D-01 0.398D+00 0.743D+00
 Coeff:     -0.141D-04 0.286D-04 0.470D-04 0.542D-04-0.234D-04-0.629D-03
 Coeff:     -0.200D-02-0.426D-02 0.464D-02 0.255D-01 0.205D-01-0.648D-01
 Coeff:     -0.841D-01-0.354D-01 0.398D+00 0.743D+00
 Gap=     0.122 Goal=   None    Shift=    0.000
 RMSDP=2.25D-08 MaxDP=1.55D-06 DE=-7.89D-10 OVMax= 1.27D-05

 Cycle  17  Pass 1  IDiag  1:
 RMSU=  1.03D-08    CP:  9.64D-01  1.50D+00  6.89D-01  6.30D-01  8.94D-01
                    CP:  9.29D-01  1.16D+00  1.33D+00  1.75D+00  2.22D+00
                    CP:  2.03D+00  2.02D+00  1.45D+00  1.34D+00  1.44D+00
                    CP:  1.25D+00
 E= -4069.81203957817     Delta-E=       -0.000000000608 Rises=F Damp=F
 DIIS: error= 9.87D-08 at cycle  17 NSaved=  17.
 NSaved=17 IEnMin=17 EnMin= -4069.81203957817     IErMin=17 ErrMin= 9.87D-08
 ErrMax= 9.87D-08  0.00D+00 EMaxC= 1.00D-01 BMatC= 1.78D-11 BMatP= 7.98D-11
 IDIUse=1 WtCom= 1.00D+00 WtEn= 0.00D+00
 Coeff-Com: -0.714D-05 0.139D-04 0.283D-04 0.424D-04 0.853D-04-0.123D-03
 Coeff-Com: -0.975D-03-0.280D-02 0.229D-03 0.909D-02 0.174D-01-0.721D-02
 Coeff-Com: -0.373D-01-0.101D+00-0.325D-01 0.297D+00 0.858D+00
 Coeff:     -0.714D-05 0.139D-04 0.283D-04 0.424D-04 0.853D-04-0.123D-03
 Coeff:     -0.975D-03-0.280D-02 0.229D-03 0.909D-02 0.174D-01-0.721D-02
 Coeff:     -0.373D-01-0.101D+00-0.325D-01 0.297D+00 0.858D+00
 Gap=     0.122 Goal=   None    Shift=    0.000
 RMSDP=1.37D-08 MaxDP=1.01D-06 DE=-6.08D-10 OVMax= 8.75D-06

 Cycle  18  Pass 1  IDiag  1:
 RMSU=  4.78D-09    CP:  9.64D-01  1.50D+00  6.89D-01  6.30D-01  8.94D-01
                    CP:  9.29D-01  1.16D+00  1.33D+00  1.75D+00  2.22D+00
                    CP:  2.03D+00  2.03D+00  1.47D+00  1.41D+00  1.61D+00
                    CP:  1.67D+00  1.39D+00
 E= -4069.81203957811     Delta-E=        0.000000000062 Rises=F Damp=F
 DIIS: error= 5.28D-08 at cycle  18 NSaved=  18.
 NSaved=18 IEnMin=17 EnMin= -4069.81203957817     IErMin=18 ErrMin= 5.28D-08
 ErrMax= 5.28D-08  0.00D+00 EMaxC= 1.00D-01 BMatC= 6.79D-12 BMatP= 1.78D-11
 IDIUse=1 WtCom= 1.00D+00 WtEn= 0.00D+00
 Coeff-Com:  0.211D-05-0.452D-05-0.483D-05-0.220D-05 0.585D-04 0.183D-03
 Coeff-Com:  0.418D-03 0.230D-03-0.127D-02-0.631D-02-0.154D-03 0.207D-01
 Coeff-Com:  0.189D-01-0.326D-01-0.164D+00-0.192D+00 0.344D+00 0.101D+01
 Coeff:      0.211D-05-0.452D-05-0.483D-05-0.220D-05 0.585D-04 0.183D-03
 Coeff:      0.418D-03 0.230D-03-0.127D-02-0.631D-02-0.154D-03 0.207D-01
 Coeff:      0.189D-01-0.326D-01-0.164D+00-0.192D+00 0.344D+00 0.101D+01
 Gap=     0.122 Goal=   None    Shift=    0.000
 RMSDP=1.17D-08 MaxDP=7.54D-07 DE= 6.18D-11 OVMax= 6.80D-06

 Cycle  19  Pass 1  IDiag  1:
 RMSU=  2.75D-09    CP:  9.64D-01  1.50D+00  6.89D-01  6.30D-01  8.94D-01
                    CP:  9.29D-01  1.16D+00  1.33D+00  1.75D+00  2.22D+00
                    CP:  2.03D+00  2.03D+00  1.48D+00  1.46D+00  1.77D+00
                    CP:  2.00D+00  1.94D+00  1.39D+00
 E= -4069.81203957819     Delta-E=       -0.000000000080 Rises=F Damp=F
 DIIS: error= 3.72D-08 at cycle  19 NSaved=  19.
 NSaved=19 IEnMin=19 EnMin= -4069.81203957819     IErMin=19 ErrMin= 3.72D-08
 ErrMax= 3.72D-08  0.00D+00 EMaxC= 1.00D-01 BMatC= 1.41D-12 BMatP= 6.79D-12
 IDIUse=1 WtCom= 1.00D+00 WtEn= 0.00D+00
 Coeff-Com:  0.289D-05-0.583D-05-0.994D-05-0.126D-04 0.989D-05 0.118D-03
 Coeff-Com:  0.484D-03 0.792D-03-0.597D-03-0.596D-02-0.483D-02 0.121D-01
 Coeff-Com:  0.202D-01 0.113D-01-0.688D-01-0.177D+00-0.380D-01 0.492D+00
 Coeff-Com:  0.758D+00
 Coeff:      0.289D-05-0.583D-05-0.994D-05-0.126D-04 0.989D-05 0.118D-03
 Coeff:      0.484D-03 0.792D-03-0.597D-03-0.596D-02-0.483D-02 0.121D-01
 Coeff:      0.202D-01 0.113D-01-0.688D-01-0.177D+00-0.380D-01 0.492D+00
 Coeff:      0.758D+00
 Gap=     0.122 Goal=   None    Shift=    0.000
 RMSDP=4.56D-09 MaxDP=3.10D-07 DE=-8.00D-11 OVMax= 2.83D-06

 SCF Done:  E(RCAM-B3LYP) =  -4069.81203958     A.U. after   19 cycles
            NFock= 19  Conv=0.46D-08     -V/T= 2.0102
 KE= 4.028801835438D+03 PE=-3.796524648747D+04 EE= 1.562448681254D+04
 Leave Link  502 at Sat Sep 11 18:11:05 2021, MaxMem= 23488102400 cpu:           12186.4 elap:             532.5
 (Enter /sw/apps/gaussian-16.0/g16/l801.exe)
 DoSCS=F DFT=T ScalE2(SS,OS)=  1.000000  1.000000
 ExpMin= 3.36D-02 ExpMax= 4.95D+03 ExpMxC= 7.45D+02 IAcc=3 IRadAn=         5 AccDes= 0.00D+00
 HarFok:  IExCor=  205 AccDes= 0.00D+00 IRadAn=         5 IDoV=-2 UseB2=F ITyADJ=14
 ICtDFT= 12500011 ScaDFX=  1.000000  1.000000  1.000000  1.000000
 GSVD:  LWork=       -9588 too small for GESVD, short by       45590 words or       45590 for optimal perf.
 Largest valence mixing into a core orbital is  2.03D-04
 Largest core mixing into a valence orbital is  5.23D-05
 Range of M.O.s used for correlation:    95  1572
 NBasis=  1572 NAE=   312 NBE=   312 NFC=    94 NFV=     0
 NROrb=   1478 NOA=   218 NOB=   218 NVA=  1260 NVB=  1260
 Leave Link  801 at Sat Sep 11 18:11:06 2021, MaxMem= 23488102400 cpu:               8.5 elap:               0.4
 (Enter /sw/apps/gaussian-16.0/g16/l914.exe)
 RHF ground state
 Two-electron integrals replicated using symmetry.
 MDV= 23488102400 DFT=T DoStab=F Mixed=T DoRPA=T DoScal=F NonHer=T
 Making orbital integer symmetry assigments:
 Orbital symmetries:
       Occupied  (A) (A) (A) (A) (A) (A) (A) (A) (A) (A) (A) (A)
                 (A) (A) (A) (A) (A) (A) (A) (A) (A) (A) (A) (A)
                 (A) (A) (A) (A) (A) (A) (A) (A) (A) (A) (A) (A)
                 (A) (A) (A) (A) (A) (A) (A) (A) (A) (A) (A) (A)
                 (A) (A) (A) (A) (A) (A) (A) (A) (A) (A) (A) (A)
                 (A) (A) (A) (A) (A) (A) (A) (A) (A) (A) (A) (A)
                 (A) (A) (A) (A) (A) (A) (A) (A) (A) (A) (A) (A)
                 (A) (A) (A) (A) (A) (A) (A) (A) (A) (A) (A) (A)
                 (A) (A) (A) (A) (A) (A) (A) (A) (A) (A) (A) (A)
                 (A) (A) (A) (A) (A) (A) (A) (A) (A) (A) (A) (A)
                 (A) (A) (A) (A) (A) (A) (A) (A) (A) (A) (A) (A)
                 (A) (A) (A) (A) (A) (A) (A) (A) (A) (A) (A) (A)
                 (A) (A) (A) (A) (A) (A) (A) (A) (A) (A) (A) (A)
                 (A) (A) (A) (A) (A) (A) (A) (A) (A) (A) (A) (A)
                 (A) (A) (A) (A) (A) (A) (A) (A) (A) (A) (A) (A)
                 (A) (A) (A) (A) (A) (A) (A) (A) (A) (A) (A) (A)
                 (A) (A) (A) (A) (A) (A) (A) (A) (A) (A) (A) (A)
                 (A) (A) (A) (A) (A) (A) (A) (A) (A) (A) (A) (A)
                 (A) (A) (A) (A) (A) (A) (A) (A) (A) (A) (A) (A)
                 (A) (A) (A) (A) (A) (A) (A) (A) (A) (A) (A) (A)
                 (A) (A) (A) (A) (A) (A) (A) (A) (A) (A) (A) (A)
                 (A) (A) (A) (A) (A) (A) (A) (A) (A) (A) (A) (A)
                 (A) (A) (A) (A) (A) (A) (A) (A) (A) (A) (A) (A)
                 (A) (A) (A) (A) (A) (A) (A) (A) (A) (A) (A) (A)
                 (A) (A) (A) (A) (A) (A) (A) (A) (A) (A) (A) (A)
                 (A) (A) (A) (A) (A) (A) (A) (A) (A) (A) (A) (A)
       Virtual   (A) (A) (A) (A) (A) (A) (A) (A) (A) (A) (A) (A)
                 (A) (A) (A) (A) (A) (A) (A) (A) (A) (A) (A) (A)
                 (A) (A) (A) (A) (A) (A) (A) (A) (A) (A) (A) (A)
                 (A) (A) (A) (A) (A) (A) (A) (A) (A) (A) (A) (A)
                 (A) (A) (A) (A) (A) (A) (A) (A) (A) (A) (A) (A)
                 (A) (A) (A) (A) (A) (A) (A) (A) (A) (A) (A) (A)
                 (A) (A) (A) (A) (A) (A) (A) (A) (A) (A) (A) (A)
                 (A) (A) (A) (A) (A) (A) (A) (A) (A) (A) (A) (A)
                 (A) (A) (A) (A) (A) (A) (A) (A) (A) (A) (A) (A)
                 (A) (A) (A) (A) (A) (A) (A) (A) (A) (A) (A) (A)
                 (A) (A) (A) (A) (A) (A) (A) (A) (A) (A) (A) (A)
                 (A) (A) (A) (A) (A) (A) (A) (A) (A) (A) (A) (A)
                 (A) (A) (A) (A) (A) (A) (A) (A) (A) (A) (A) (A)
                 (A) (A) (A) (A) (A) (A) (A) (A) (A) (A) (A) (A)
                 (A) (A) (A) (A) (A) (A) (A) (A) (A) (A) (A) (A)
                 (A) (A) (A) (A) (A) (A) (A) (A) (A) (A) (A) (A)
                 (A) (A) (A) (A) (A) (A) (A) (A) (A) (A) (A) (A)
                 (A) (A) (A) (A) (A) (A) (A) (A) (A) (A) (A) (A)
                 (A) (A) (A) (A) (A) (A) (A) (A) (A) (A) (A) (A)
                 (A) (A) (A) (A) (A) (A) (A) (A) (A) (A) (A) (A)
                 (A) (A) (A) (A) (A) (A) (A) (A) (A) (A) (A) (A)
                 (A) (A) (A) (A) (A) (A) (A) (A) (A) (A) (A) (A)
                 (A) (A) (A) (A) (A) (A) (A) (A) (A) (A) (A) (A)
                 (A) (A) (A) (A) (A) (A) (A) (A) (A) (A) (A) (A)
                 (A) (A) (A) (A) (A) (A) (A) (A) (A) (A) (A) (A)
                 (A) (A) (A) (A) (A) (A) (A) (A) (A) (A) (A) (A)
                 (A) (A) (A) (A) (A) (A) (A) (A) (A) (A) (A) (A)
                 (A) (A) (A) (A) (A) (A) (A) (A) (A) (A) (A) (A)
                 (A) (A) (A) (A) (A) (A) (A) (A) (A) (A) (A) (A)
                 (A) (A) (A) (A) (A) (A) (A) (A) (A) (A) (A) (A)
                 (A) (A) (A) (A) (A) (A) (A) (A) (A) (A) (A) (A)
                 (A) (A) (A) (A) (A) (A) (A) (A) (A) (A) (A) (A)
                 (A) (A) (A) (A) (A) (A) (A) (A) (A) (A) (A) (A)
                 (A) (A) (A) (A) (A) (A) (A) (A) (A) (A) (A) (A)
                 (A) (A) (A) (A) (A) (A) (A) (A) (A) (A) (A) (A)
                 (A) (A) (A) (A) (A) (A) (A) (A) (A) (A) (A) (A)
                 (A) (A) (A) (A) (A) (A) (A) (A) (A) (A) (A) (A)
                 (A) (A) (A) (A) (A) (A) (A) (A) (A) (A) (A) (A)
                 (A) (A) (A) (A) (A) (A) (A) (A) (A) (A) (A) (A)
                 (A) (A) (A) (A) (A) (A) (A) (A) (A) (A) (A) (A)
                 (A) (A) (A) (A) (A) (A) (A) (A) (A) (A) (A) (A)
                 (A) (A) (A) (A) (A) (A) (A) (A) (A) (A) (A) (A)
                 (A) (A) (A) (A) (A) (A) (A) (A) (A) (A) (A) (A)
                 (A) (A) (A) (A) (A) (A) (A) (A) (A) (A) (A) (A)
                 (A) (A) (A) (A) (A) (A) (A) (A) (A) (A) (A) (A)
                 (A) (A) (A) (A) (A) (A) (A) (A) (A) (A) (A) (A)
                 (A) (A) (A) (A) (A) (A) (A) (A) (A) (A) (A) (A)
                 (A) (A) (A) (A) (A) (A) (A) (A) (A) (A) (A) (A)
                 (A) (A) (A) (A) (A) (A) (A) (A) (A) (A) (A) (A)
                 (A) (A) (A) (A) (A) (A) (A) (A) (A) (A) (A) (A)
                 (A) (A) (A) (A) (A) (A) (A) (A) (A) (A) (A) (A)
                 (A) (A) (A) (A) (A) (A) (A) (A) (A) (A) (A) (A)
                 (A) (A) (A) (A) (A) (A) (A) (A) (A) (A) (A) (A)
                 (A) (A) (A) (A) (A) (A) (A) (A) (A) (A) (A) (A)
                 (A) (A) (A) (A) (A) (A) (A) (A) (A) (A) (A) (A)
                 (A) (A) (A) (A) (A) (A) (A) (A) (A) (A) (A) (A)
                 (A) (A) (A) (A) (A) (A) (A) (A) (A) (A) (A) (A)
                 (A) (A) (A) (A) (A) (A) (A) (A) (A) (A) (A) (A)
                 (A) (A) (A) (A) (A) (A) (A) (A) (A) (A) (A) (A)
                 (A) (A) (A) (A) (A) (A) (A) (A) (A) (A) (A) (A)
                 (A) (A) (A) (A) (A) (A) (A) (A) (A) (A) (A) (A)
                 (A) (A) (A) (A) (A) (A) (A) (A) (A) (A) (A) (A)
                 (A) (A) (A) (A) (A) (A) (A) (A) (A) (A) (A) (A)
                 (A) (A) (A) (A) (A) (A) (A) (A) (A) (A) (A) (A)
                 (A) (A) (A) (A) (A) (A) (A) (A) (A) (A) (A) (A)
                 (A) (A) (A) (A) (A) (A) (A) (A) (A) (A) (A) (A)
                 (A) (A) (A) (A) (A) (A) (A) (A) (A) (A) (A) (A)
                 (A) (A) (A) (A) (A) (A) (A) (A) (A) (A) (A) (A)
                 (A) (A) (A) (A) (A) (A) (A) (A) (A) (A) (A) (A)
                 (A) (A) (A) (A) (A) (A) (A) (A) (A) (A) (A) (A)
                 (A) (A) (A) (A) (A) (A) (A) (A) (A) (A) (A) (A)
                 (A) (A) (A) (A) (A) (A) (A) (A) (A) (A) (A) (A)
                 (A) (A) (A) (A) (A) (A) (A) (A) (A) (A) (A) (A)
                 (A) (A) (A) (A) (A) (A) (A) (A) (A) (A) (A) (A)
                 (A) (A) (A) (A) (A) (A) (A) (A) (A) (A) (A) (A)
                 (A) (A) (A) (A) (A) (A) (A) (A) (A) (A) (A) (A)
                 (A) (A) (A) (A) (A) (A) (A) (A) (A) (A) (A) (A)
                 (A) (A) (A) (A) (A) (A) (A) (A) (A) (A) (A) (A)
                 (A) (A) (A) (A) (A) (A) (A) (A) (A) (A) (A) (A)
                 (A) (A) (A) (A) (A) (A) (A) (A) (A) (A) (A) (A)
                 (A) (A) (A) (A) (A) (A) (A) (A) (A) (A) (A) (A)
                 (A) (A) (A) (A) (A) (A) (A) (A) (A) (A) (A) (A)
                 (A) (A) (A) (A) (A) (A) (A) (A) (A) (A) (A) (A)
                 (A) (A) (A) (A) (A) (A) (A) (A) (A) (A) (A) (A)
                 (A) (A) (A) (A) (A) (A) (A) (A) (A) (A) (A) (A)
                 (A) (A) (A) (A) (A) (A) (A) (A) (A) (A) (A) (A)
                 (A) (A) (A) (A) (A) (A) (A) (A) (A) (A) (A) (A)
                 (A) (A) (A) (A) (A) (A) (A) (A) (A) (A) (A) (A)
                 (A) (A) (A) (A) (A) (A) (A) (A) (A) (A) (A) (A)
                 (A) (A) (A) (A) (A) (A) (A) (A) (A) (A) (A) (A)
                 (A) (A) (A) (A) (A) (A) (A) (A) (A) (A) (A) (A)
                 (A) (A) (A) (A) (A) (A) (A) (A) (A) (A) (A) (A)
                 (A) (A) (A) (A) (A) (A) (A) (A) (A) (A) (A) (A)
                 (A) (A) (A) (A) (A) (A) (A) (A) (A) (A) (A) (A)
                 (A) (A) (A) (A) (A) (A) (A) (A) (A) (A) (A) (A)
                 (A) (A) (A) (A) (A) (A) (A) (A) (A) (A) (A) (A)
                 (A) (A) (A) (A) (A) (A) (A) (A) (A) (A) (A) (A)
                 (A) (A) (A) (A) (A) (A) (A) (A) (A) (A) (A) (A)
                 (A) (A) (A) (A) (A) (A) (A) (A) (A) (A) (A) (A)
                 (A) (A) (A) (A) (A) (A) (A) (A) (A) (A) (A) (A)
                 (A) (A) (A) (A) (A) (A) (A) (A) (A) (A) (A) (A)
                 (A) (A) (A) (A) (A) (A) (A) (A) (A) (A) (A) (A)
                 (A) (A) (A) (A) (A) (A) (A) (A) (A) (A) (A) (A)
                 (A) (A) (A) (A) (A) (A) (A) (A) (A) (A) (A) (A)
                 (A) (A) (A) (A) (A) (A) (A) (A) (A) (A) (A) (A)
    20 initial guesses have been made.
 Convergence on wavefunction:    0.001000000000000
 Davidson Disk Diagonalization:  ConvIn= 1.00D-03 SkipCon=T Conv= 1.00D-03.
 Max sub-space:  2000 roots to seek:    20 dimension of matrix:       549360
 Iteration     1 Dimension    20 NMult     0 NNew     20
 CISAX will form    20 AO SS matrices at one time.
 NMat=    20 NSing=    20 JSym2X= 0.
 FoFJK:  IHMeth= 1 ICntrl=       0 DoSepK=T KAlg= 0 I1Cent=           0 FoldK=F
 IRaf=         1 NMat=      40 IRICut=       1 DoRegI=T DoRafI=F ISym2E= 0 IDoP0=3 IntGTp=3.
 FoFCou: FMM=T IPFlag=           0 FMFlag=      100000 FMFlg1=        2001
         NFxFlg=           0 DoJE=F BraDBF=F KetDBF=F FulRan=T
         wScrn=  0.000000 ICntrl=       500 IOpCl=  0 I1Cent=           0 NGrid=           0
         NMat0=   20 NMatS0=     20 NMatT0=    0 NMatD0=   20 NMtDS0=    0 NMtDT0=    0
 Symmetry not used in FoFCou.
 FMM levels:  10  Number of levels for PrismC:   9
 New state      1 was old state      7
 New state      2 was old state      6
 New state      3 was old state      1
 New state      4 was old state      2
 New state      5 was old state      3
 Excitation Energies [eV] at current iteration:
 Root      1 :     2.613087516935528
 Root      2 :     2.620292280099606
 Root      3 :     2.646126635970467
 Root      4 :     2.679827114587994
 Root      5 :     2.690822040891109
 Root      6 :     2.742496544103094
 Root      7 :     3.435681857225615
 Root      8 :     3.543140836694421
 Root      9 :     3.629951552449107
 Root     10 :     3.671733454215173
 Root     11 :     3.735746738874222
 Root     12 :     3.758845485536889
 Root     13 :     4.301336097749508
 Root     14 :     4.307101633356115
 Root     15 :     4.553882315700186
 Root     16 :     4.675004747127930
 Root     17 :     4.865381622833946
 Root     18 :     4.899328489721395
 Root     19 :     4.970553507597907
 Root     20 :     5.003736705137270
 Iteration     2 Dimension    30 NMult    20 NNew     10
 CISAX will form    10 AO SS matrices at one time.
 NMat=    10 NSing=    10 JSym2X= 0.
 New state      1 was old state      4
 Root      1 not converged, maximum delta is    0.180478430289598
 New state      2 was old state      5
 Root      2 not converged, maximum delta is    0.182708107329007
 New state      3 was old state      2
 Root      3 not converged, maximum delta is    0.071768660360049
 New state      4 was old state      1
 Root      4 not converged, maximum delta is    0.094267273189812
 New state      5 was old state      3
 Root      5 not converged, maximum delta is    0.001435629557098
 Excitation Energies [eV] at current iteration:
 Root      1 :     1.800039623938528   Change is   -0.879787490649466
 Root      2 :     1.807039584472647   Change is   -0.883782456418461
 Root      3 :     2.236228703792270   Change is   -0.384063576307336
 Root      4 :     2.239113944488057   Change is   -0.373973572447471
 Root      5 :     2.645951292483907   Change is   -0.000175343486560
 Iteration     3 Dimension    40 NMult    30 NNew     10
 CISAX will form    10 AO SS matrices at one time.
 NMat=    10 NSing=    10 JSym2X= 0.
 Root      1 not converged, maximum delta is    0.066223773596884
 Root      2 not converged, maximum delta is    0.067513612234323
 Root      3 not converged, maximum delta is    0.044907102382576
 Root      4 not converged, maximum delta is    0.042157577419833
 Root      5 has converged.
 Excitation Energies [eV] at current iteration:
 Root      1 :     1.692937430441408   Change is   -0.107102193497120
 Root      2 :     1.698775820817278   Change is   -0.108263763655369
 Root      3 :     2.194005621137082   Change is   -0.042223082655187
 Root      4 :     2.200386012690173   Change is   -0.038727931797884
 Root      5 :     2.645950514226853   Change is   -0.000000778257055
 Iteration     4 Dimension    48 NMult    40 NNew      8
 CISAX will form     8 AO SS matrices at one time.
 NMat=     8 NSing=     8 JSym2X= 0.
 Root      1 not converged, maximum delta is    0.012589219206752
 Root      2 not converged, maximum delta is    0.012793854723711
 Root      3 not converged, maximum delta is    0.009868421477343
 Root      4 not converged, maximum delta is    0.008771367274698
 Root      5 has converged.
 Excitation Energies [eV] at current iteration:
 Root      1 :     1.676214640042040   Change is   -0.016722790399368
 Root      2 :     1.681898299704978   Change is   -0.016877521112300
 Root      3 :     2.186630415161026   Change is   -0.007375205976057
 Root      4 :     2.193636183472022   Change is   -0.006749829218151
 Root      5 :     2.645950514224740   Change is   -0.000000000002113
 Iteration     5 Dimension    56 NMult    48 NNew      8
 CISAX will form     8 AO SS matrices at one time.
 NMat=     8 NSing=     8 JSym2X= 0.
 Root      1 not converged, maximum delta is    0.002052378249422
 Root      2 not converged, maximum delta is    0.002105304242634
 Root      3 not converged, maximum delta is    0.002558021902916
 Root      4 not converged, maximum delta is    0.002390131336213
 Root      5 has converged.
 Excitation Energies [eV] at current iteration:
 Root      1 :     1.674443462381696   Change is   -0.001771177660343
 Root      2 :     1.680120644200091   Change is   -0.001777655504887
 Root      3 :     2.185767821436563   Change is   -0.000862593724463
 Root      4 :     2.192863896287172   Change is   -0.000772287184849
 Root      5 :     2.645950514223777   Change is   -0.000000000000963
 Iteration     6 Dimension    64 NMult    56 NNew      8
 CISAX will form     8 AO SS matrices at one time.
 NMat=     8 NSing=     8 JSym2X= 0.
 Root      1 not converged, maximum delta is    0.001299256995261
 Root      2 not converged, maximum delta is    0.001328360364977
 Root      3 not converged, maximum delta is    0.001101840315513
 Root      4 not converged, maximum delta is    0.001010289968941
 Root      5 has converged.
 Excitation Energies [eV] at current iteration:
 Root      1 :     1.674190736742916   Change is   -0.000252725638780
 Root      2 :     1.679865184845748   Change is   -0.000255459354343
 Root      3 :     2.185637058854217   Change is   -0.000130762582345
 Root      4 :     2.192746661856285   Change is   -0.000117234430888
 Root      5 :     2.645950514223403   Change is   -0.000000000000373
 Iteration     7 Dimension    72 NMult    64 NNew      8
 CISAX will form     8 AO SS matrices at one time.
 NMat=     8 NSing=     8 JSym2X= 0.
 Root      1 has converged.
 Root      2 has converged.
 Root      3 has converged.
 Root      4 has converged.
 Root      5 has converged.
 Excitation Energies [eV] at current iteration:
[...]
 Alpha virt. eigenvalues --    1.84424   1.84572   1.84787   1.84869   1.85082
 Alpha virt. eigenvalues --    1.85174   1.85249   1.85398   1.85471   1.85549
 Alpha virt. eigenvalues --    1.85844   1.85969   1.86345   1.86439   1.86537
 Alpha virt. eigenvalues --    1.86710   1.86762   1.86864   1.87006   1.87090
 Alpha virt. eigenvalues --    1.87421   1.87552   1.87644   1.87829   1.87848
 Alpha virt. eigenvalues --    1.88019   1.88063   1.88244   1.88515   1.88651
 Alpha virt. eigenvalues --    1.88796   1.89023   1.89115   1.89140   1.89608
 Alpha virt. eigenvalues --    1.89725   1.89725   1.89930   1.90093   1.90259
 Alpha virt. eigenvalues --    1.90720   1.90960   1.91321   1.91422   1.91460
 Alpha virt. eigenvalues --    1.91697   1.92127   1.92264   1.92592   1.92734
 Alpha virt. eigenvalues --    1.92960   1.93213   1.93324   1.93545   1.94267
 Alpha virt. eigenvalues --    1.94351   1.94673   1.94862   1.95469   1.95621
 Alpha virt. eigenvalues --    1.95694   1.95884   1.95959   1.96111   1.96140
 Alpha virt. eigenvalues --    1.96240   1.96539   1.96571   1.96878   1.97011
 Alpha virt. eigenvalues --    1.97427   1.97589   1.97816   1.97863   1.98138
 Alpha virt. eigenvalues --    1.98244   1.98414   1.98617   1.99103   1.99135
 Alpha virt. eigenvalues --    1.99786   2.00020   2.00639   2.00784   2.00959
 Alpha virt. eigenvalues --    2.01160   2.01436   2.01544   2.01655   2.01677
 Alpha virt. eigenvalues --    2.01678   2.01900   2.02759   2.02771   2.03180
 Alpha virt. eigenvalues --    2.03221   2.03366   2.03442   2.03446   2.03585
 Alpha virt. eigenvalues --    2.04005   2.04085   2.04938   2.05031   2.05493
 Alpha virt. eigenvalues --    2.05680   2.06052   2.06338   2.06851   2.07099
 Alpha virt. eigenvalues --    2.07151   2.07404   2.08572   2.08586   2.08952
 Alpha virt. eigenvalues --    2.09075   2.09553   2.09676   2.10773   2.11065
 Alpha virt. eigenvalues --    2.11153   2.11466   2.11503   2.11608   2.11702
 Alpha virt. eigenvalues --    2.11945   2.12434   2.12540   2.12782   2.12809
 Alpha virt. eigenvalues --    2.12860   2.12940   2.13729   2.13735   2.14127
 Alpha virt. eigenvalues --    2.14282   2.15310   2.15458   2.15892   2.16155
 Alpha virt. eigenvalues --    2.16504   2.16655   2.16717   2.17229   2.17391
 Alpha virt. eigenvalues --    2.17681   2.17682   2.18013   2.18048   2.18050
 Alpha virt. eigenvalues --    2.18279   2.18738   2.18826   2.19311   2.19606
 Alpha virt. eigenvalues --    2.19897   2.20007   2.20173   2.20299   2.20513
 Alpha virt. eigenvalues --    2.21146   2.21199   2.21641   2.21698   2.21824
 Alpha virt. eigenvalues --    2.21927   2.22657   2.22774   2.23290   2.23384
 Alpha virt. eigenvalues --    2.24371   2.24457   2.24955   2.25040   2.26256
 Alpha virt. eigenvalues --    2.26507   2.26756   2.27060   2.27063   2.27266
 Alpha virt. eigenvalues --    2.28109   2.28406   2.29245   2.29506   2.29699
 Alpha virt. eigenvalues --    2.29950   2.30419   2.30696   2.30897   2.31047
 Alpha virt. eigenvalues --    2.31128   2.31251   2.32102   2.32282   2.33098
 Alpha virt. eigenvalues --    2.33308   2.33432   2.33528   2.34122   2.34189
 Alpha virt. eigenvalues --    2.35316   2.35354   2.35764   2.35995   2.36341
 Alpha virt. eigenvalues --    2.36393   2.36477   2.36593   2.37642   2.37713
 Alpha virt. eigenvalues --    2.38240   2.38422   2.38819   2.38872   2.39580
 Alpha virt. eigenvalues --    2.39726   2.40163   2.40297   2.40449   2.40908
 Alpha virt. eigenvalues --    2.41231   2.41289   2.41670   2.41732   2.41987
 Alpha virt. eigenvalues --    2.42184   2.42847   2.42934   2.43114   2.43450
 Alpha virt. eigenvalues --    2.44031   2.44128   2.44699   2.44861   2.44873
 Alpha virt. eigenvalues --    2.45051   2.45516   2.45623   2.46275   2.46340
 Alpha virt. eigenvalues --    2.46441   2.46543   2.46759   2.46855   2.47221
 Alpha virt. eigenvalues --    2.47411   2.47686   2.47926   2.49295   2.49421
 Alpha virt. eigenvalues --    2.49920   2.50057   2.50501   2.50536   2.51078
 Alpha virt. eigenvalues --    2.51327   2.51661   2.51849   2.52398   2.52461
 Alpha virt. eigenvalues --    2.52776   2.53239   2.53894   2.54014   2.54130
 Alpha virt. eigenvalues --    2.54306   2.54758   2.54840   2.55491   2.55704
 Alpha virt. eigenvalues --    2.57837   2.58124   2.58622   2.58952   2.60157
 Alpha virt. eigenvalues --    2.60362   2.60578   2.60997   2.61686   2.61866
 Alpha virt. eigenvalues --    2.62481   2.62500   2.62921   2.63170   2.63904
 Alpha virt. eigenvalues --    2.64236   2.64294   2.64434   2.65051   2.65140
 Alpha virt. eigenvalues --    2.65749   2.65927   2.66759   2.66849   2.66885
 Alpha virt. eigenvalues --    2.67122   2.67883   2.68027   2.68824   2.68855
 Alpha virt. eigenvalues --    2.68978   2.69082   2.69371   2.69643   2.69969
 Alpha virt. eigenvalues --    2.70174   2.70945   2.71121   2.71929   2.72006
 Alpha virt. eigenvalues --    2.72527   2.72604   2.72756   2.72790   2.73263
 Alpha virt. eigenvalues --    2.73303   2.73448   2.73501   2.74472   2.74540
 Alpha virt. eigenvalues --    2.74934   2.75096   2.76550   2.76565   2.77101
 Alpha virt. eigenvalues --    2.77185   2.77426   2.77645   2.78166   2.78319
 Alpha virt. eigenvalues --    2.78685   2.78716   2.79100   2.79200   2.80292
 Alpha virt. eigenvalues --    2.80307   2.80533   2.80728   2.81065   2.81181
 Alpha virt. eigenvalues --    2.81893   2.82028   2.82313   2.82365   2.83697
 Alpha virt. eigenvalues --    2.83739   2.83873   2.83935   2.84512   2.84548
 Alpha virt. eigenvalues --    2.84860   2.84896   2.85642   2.85712   2.86676
 Alpha virt. eigenvalues --    2.86954   2.87204   2.87538   2.88127   2.88260
 Alpha virt. eigenvalues --    2.88474   2.88644   2.88893   2.88900   2.90465
 Alpha virt. eigenvalues --    2.90701   2.91091   2.91170   2.93117   2.93368
 Alpha virt. eigenvalues --    2.93805   2.94169   2.94539   2.94581   2.95328
 Alpha virt. eigenvalues --    2.95540   2.95871   2.96129   2.96391   2.96414
 Alpha virt. eigenvalues --    2.96899   2.97112   2.97764   2.98050   2.98175
 Alpha virt. eigenvalues --    2.98331   2.98410   2.98556   2.98618   2.98817
 Alpha virt. eigenvalues --    2.98854   2.98947   2.99572   2.99809   2.99974
 Alpha virt. eigenvalues --    3.00049   3.00181   3.00363   3.00419   3.01048
 Alpha virt. eigenvalues --    3.01927   3.01974   3.01999   3.02170   3.02663
 Alpha virt. eigenvalues --    3.02846   3.02936   3.03304   3.03365   3.03779
 Alpha virt. eigenvalues --    3.04095   3.04152   3.04406   3.04456   3.04527
 Alpha virt. eigenvalues --    3.04746   3.05286   3.05372   3.06087   3.06178
 Alpha virt. eigenvalues --    3.06766   3.06984   3.07942   3.08130   3.09356
 Alpha virt. eigenvalues --    3.09366   3.09663   3.10410   3.10500   3.10795
 Alpha virt. eigenvalues --    3.11322   3.11469   3.11888   3.11897   3.12177
 Alpha virt. eigenvalues --    3.12359   3.13242   3.13623   3.13690   3.13704
 Alpha virt. eigenvalues --    3.14016   3.14502   3.15918   3.15977   3.17223
 Alpha virt. eigenvalues --    3.17542   3.17882   3.18060   3.19048   3.19101
 Alpha virt. eigenvalues --    3.22223   3.22620   3.23908   3.24464   3.24614
 Alpha virt. eigenvalues --    3.25213   3.26468   3.26683   3.27423   3.27584
 Alpha virt. eigenvalues --    3.29013   3.29243   3.31405   3.31487   3.33213
 Alpha virt. eigenvalues --    3.33387   3.40281   3.40534   3.42793   3.42833
 Alpha virt. eigenvalues --    3.48612   3.48719   3.49991   3.50313   3.50869
 Alpha virt. eigenvalues --    3.51444   3.56521   3.57025   3.59075   3.59357
 Alpha virt. eigenvalues --    3.62537   3.62796   3.66116   3.66166   3.67098
 Alpha virt. eigenvalues --    3.67563   3.73189   3.74040   3.75981   3.76697
          Condensed to atoms (all electrons):
 Mulliken charges:
               1
     1  Mg   0.838665
     2  C   -0.003195
     3  C   -0.094082
     4  C   -0.045774
     5  C   -0.063876
     6  N   -0.256825
     7  C   -0.052521
     8  C   -0.014030
     9  C   -0.087013
    10  C    0.046346
    11  C    0.104766
    12  C    0.053431
    13  C   -0.071725
    14  H    0.035590
    15  N   -0.433206
    16  C    0.168505
    17  C   -0.177039
    18  C   -0.003877
    19  C    0.148759
    20  C    0.110131
    21  C    0.012337
    22  O   -0.249346
    23  C    0.062444
    24  N   -0.341176
    25  C    0.041360
    26  C   -0.028281
    27  C   -0.024005
    28  C    0.074834
    29  C    0.076104
    30  C    0.035078
    31  C   -0.004588
    32  N   -0.310361
    33  C    0.080212
    34  C   -0.169976
    35  C    0.008143
    36  C    0.082768
    37  C    0.127410
    38  C    0.045730
    39  O   -0.188986
    40  C   -0.005196
    41  C    0.212859
    42  O   -0.257875
    43  O   -0.304524
    44  C    0.157958
    45  H   -0.017443
    46  H   -0.016565
    47  H   -0.041393
    48  H    0.000874
    49  H   -0.003909
    50  H    0.025467
    51  H    0.016569
    52  H    0.016809
    53  H    0.011409
    54  H    0.043617
    55  H    0.017980
    56  H    0.018297
    57  H    0.005989
    58  H    0.027011
    59  H    0.039712
    60  H    0.037471
    61  H    0.035780
    62  H    0.031440
    63  H    0.016845
    64  H    0.009559
    65  H    0.023511
    66  H    0.012493
    67  H    0.004891
    68  H    0.006857
    69  H    0.004714
    70  H    0.009127
    71  H    0.018530
    72  H    0.028450
    73  H    0.046984
    74  H    0.009264
    75  H    0.046126
    76  H    0.035275
    77  H    0.042896
    78  H    0.046637
    79  H    0.052775
    80  Mg   0.837929
    81  C   -0.016819
    82  C   -0.087337
    83  C   -0.045696
    84  C   -0.064974
    85  N   -0.254655
    86  C   -0.049532
    87  C   -0.015183
    88  C   -0.090474
    89  C    0.045642
    90  C    0.114043
    91  C    0.062473
    92  C   -0.077840
    93  H    0.034346
    94  N   -0.423567
    95  C    0.162825
    96  C   -0.174117
    97  C   -0.008114
    98  C    0.152382
    99  C    0.099198
   100  C    0.015450
   101  O   -0.253725
   102  C    0.061245
   103  N   -0.350022
   104  C    0.037613
   105  C   -0.019774
   106  C   -0.034781
   107  C    0.088875
   108  C    0.073805
   109  C    0.034824
   110  C   -0.007602
   111  N   -0.324063
   112  C    0.078394
   113  C   -0.163284
   114  C    0.002206
   115  C    0.096171
   116  C    0.131512
   117  C    0.042234
   118  O   -0.188255
   119  C    0.000987
   120  C    0.211262
   121  O   -0.251183
   122  O   -0.305528
   123  C    0.152105
   124  H   -0.018314
   125  H   -0.016084
   126  H   -0.040745
   127  H   -0.000464
   128  H   -0.004138
   129  H    0.022269
   130  H    0.015375
   131  H    0.018341
   132  H    0.013774
   133  H    0.037318
   134  H    0.021223
   135  H    0.019814
   136  H    0.009522
   137  H    0.026414
   138  H    0.039484
   139  H    0.038357
   140  H    0.035902
   141  H    0.033916
   142  H    0.014104
   143  H    0.012272
   144  H    0.024448
   145  H    0.011741
   146  H    0.005315
   147  H    0.005796
   148  H    0.003584
   149  H    0.010728
   150  H    0.017721
   151  H    0.030352
   152  H    0.045739
   153  H    0.008289
   154  H    0.046984
   155  H    0.035196
   156  H    0.043673
   157  H    0.049721
   158  H    0.053377
 Sum of Mulliken charges =  -0.00000
 Mulliken charges with hydrogens summed into heavy atoms:
               1
     1  Mg   0.838665
     2  C   -0.003195
     3  C   -0.111525
     4  C   -0.062340
     5  C   -0.105269
     6  N   -0.256825
     7  C   -0.052521
     8  C   -0.013156
     9  C   -0.090922
    10  C    0.046346
    11  C    0.163612
    12  C    0.108457
    13  C    0.000142
    15  N   -0.433206
    16  C    0.168505
    17  C   -0.177039
    18  C   -0.003877
    19  C    0.148759
    20  C    0.182843
    21  C    0.012337
    22  O   -0.249346
    23  C    0.167135
    24  N   -0.341176
    25  C    0.041360
    26  C   -0.011436
    27  C   -0.014446
    28  C    0.074834
    29  C    0.116999
    30  C    0.046648
    31  C    0.051519
    32  N   -0.310361
    33  C    0.080212
    34  C   -0.169976
    35  C    0.008143
    36  C    0.082768
    37  C    0.229783
    38  C    0.045730
    39  O   -0.188986
    40  C    0.030079
    41  C    0.212859
    42  O   -0.257875
    43  O   -0.304524
    44  C    0.300265
    80  Mg   0.837929
    81  C   -0.016819
    82  C   -0.105651
    83  C   -0.061779
    84  C   -0.105719
    85  N   -0.254655
    86  C   -0.049532
    87  C   -0.015647
    88  C   -0.094613
    89  C    0.045642
    90  C    0.170028
    91  C    0.113565
    92  C   -0.002457
    94  N   -0.423567
    95  C    0.162825
    96  C   -0.174117
    97  C   -0.008114
    98  C    0.152382
    99  C    0.174617
   100  C    0.015450
   101  O   -0.253725
   102  C    0.169420
   103  N   -0.350022
   104  C    0.037613
   105  C   -0.005670
   106  C   -0.022509
   107  C    0.088875
   108  C    0.115308
   109  C    0.044204
   110  C    0.051199
   111  N   -0.324063
   112  C    0.078394
   113  C   -0.163284
   114  C    0.002206
   115  C    0.096171
   116  C    0.232524
   117  C    0.042234
   118  O   -0.188255
   119  C    0.036183
   120  C    0.211262
   121  O   -0.251183
   122  O   -0.305528
   123  C    0.298875
 Electronic spatial extent (au):  <R**2>=         150532.1278
 Charge=             -0.0000 electrons
 Dipole moment (field-independent basis, Debye):
    X=              4.6954    Y=              4.3275    Z=              1.7899  Tot=              6.6316
 Quadrupole moment (field-independent basis, Debye-Ang):
   XX=           -519.3119   YY=           -506.9057   ZZ=           -492.2595
   XY=            -12.9029   XZ=             37.8269   YZ=              4.9872
 Traceless Quadrupole moment (field-independent basis, Debye-Ang):
   XX=            -13.1528   YY=             -0.7467   ZZ=             13.8995
   XY=            -12.9029   XZ=             37.8269   YZ=              4.9872
 Octapole moment (field-independent basis, Debye-Ang**2):
  XXX=            669.0287  YYY=            266.4406  ZZZ=            133.7308  XYY=            284.8816
  XXY=            333.2919  XXZ=            145.3000  XZZ=           -291.6831  YZZ=            -97.4381
  YYZ=           -260.3877  XYZ=            333.6984
 Hexadecapole moment (field-independent basis, Debye-Ang**3):
 XXXX=        -141201.6440 YYYY=         -33613.1580 ZZZZ=         -31538.4712 XXXY=           -416.4344
 XXXZ=           1757.1227 YYYX=           -348.2048 YYYZ=           -848.1254 ZZZX=           2103.1206
 ZZZY=            811.9592 XXYY=         -28998.7705 XXZZ=         -27162.5683 YYZZ=         -11428.8969
 XXYZ=            428.0968 YYXZ=            -64.0577 ZZXY=           1232.5291
 N-N= 1.424214579991D+04 E-N=-3.796524647899D+04  KE= 4.028801835438D+03
 Leave Link  601 at Sat Sep 11 18:31:34 2021, MaxMem= 23488102400 cpu:              16.3 elap:               0.8
 (Enter /sw/apps/gaussian-16.0/g16/l9999.exe)
 1\1\GINC-BP1-COMPUTE00084\SP\RCAM-B3LYP TD-FC\def2SVP\C68H72Mg2N8O8\OF
 15641\11-Sep-2021\0\\#p cam-b3lyp/Def2SVP td=(nstates=5)\\TDDFT excite
 d states in gaussian\\0,1\Mg,0,0.,0.,0.\C,0,-0.217,-2.218,2.801\C,0,-1
 .255,2.442,2.026\C,0,-0.245,1.85,-2.564\C,0,0.146,-2.824,-2.037\N,0,-0
 .617,-0.009,2.126\C,0,-0.594,-0.908,3.105\C,0,-0.936,-0.309,4.502\C,0,
 -1.773,0.964,4.032\C,0,-1.155,1.168,2.66\C,0,-3.263,0.685,3.863\C,0,0.
 345,0.11,5.299\C,0,0.124,0.397,6.787\H,0,1.168,0.033,7.733\N,0,-0.185,
 1.961,-0.152\C,0,-0.703,2.8,0.777\C,0,-0.62,4.156,0.193\C,0,-0.187,4.0
 15,-1.225\C,0,-0.214,2.583,-1.38\C,0,-0.887,5.406,0.974\C,0,0.181,5.01
 3,-2.277\O,0,0.303,4.69,-3.508\C,0,0.31,6.414,-1.837\N,0,-0.265,-0.413
 ,-2.029\C,0,-0.279,0.569,-2.937\C,0,-0.196,0.024,-4.332\C,0,0.124,-1.5
 33,-4.18\C,0,0.086,-1.632,-2.635\C,0,-1.451,0.205,-5.197\C,0,1.373,-2.
 07,-4.923\C,0,2.626,-1.49,-4.306\N,0,0.15,-2.144,0.303\C,0,0.173,-3.13
 6,-0.688\C,0,0.173,-4.438,0.004\C,0,0.133,-4.111,1.358\C,0,0.083,-2.69
 5,1.502\C,0,0.149,-5.715,-0.623\C,0,0.096,-4.629,2.716\O,0,0.208,-5.74
 7,3.221\C,0,-0.255,-3.428,3.701\C,0,0.717,-3.482,4.848\O,0,1.931,-3.25
 5,4.669\O,0,0.038,-3.556,6.003\C,0,0.943,-3.583,7.183\H,0,-1.859,3.22,
 2.497\H,0,-0.218,2.453,-3.474\H,0,0.276,-3.747,-2.605\H,0,-1.554,-0.94
 9,5.132\H,0,-1.585,1.831,4.665\H,0,-3.484,-0.377,3.969\H,0,-3.511,1.02
 7,2.858\H,0,-3.852,1.301,4.543\H,0,0.669,1.096,4.966\H,0,1.13,-0.639,5
 .189\H,0,-0.844,0.026,7.125\H,0,0.062,1.477,6.921\H,0,-1.344,5.186,1.9
 38\H,0,-1.651,5.963,0.432\H,0,0.007,6.02,1.084\H,0,-0.635,6.744,-1.405
 \H,0,0.665,6.97,-2.704\H,0,1.048,6.466,-1.036\H,0,0.608,0.501,-4.891\H
 ,0,-0.692,-2.156,-4.547\H,0,-1.267,0.74,-6.129\H,0,-2.204,0.714,-4.596
 \H,0,-1.967,-0.72,-5.453\H,0,1.356,-1.759,-5.967\H,0,1.452,-3.157,-4.9
 02\H,0,2.714,-0.522,-4.798\H,0,3.487,-2.121,-4.529\H,0,2.495,-1.303,-3
 .24\H,0,0.867,-6.333,-0.084\H,0,0.404,-5.642,-1.68\H,0,-0.891,-5.999,-
 0.463\H,0,-1.283,-3.581,4.028\H,0,0.698,-4.478,7.755\H,0,0.833,-2.619,
 7.68\H,0,2.,-3.754,6.976\Mg,0,13.14614,1.17653,1.00196\C,0,13.35826,-1
 .30589,-1.581\C,0,12.32667,-1.3434,3.14975\C,0,12.51214,3.3832,3.19195
 \C,0,12.85272,3.56972,-1.51444\N,0,12.90591,-1.00198,0.70418\C,0,13.07
 223,-1.84053,-0.30751\C,0,13.00293,-3.34129,0.08296\C,0,12.12383,-3.20
 166,1.41958\C,0,12.49686,-1.7728,1.80932\C,0,10.62678,-3.25143,1.16323
 \C,0,14.4186,-3.94578,0.38708\C,0,14.46084,-5.47308,0.4727\H,0,15.6494
 7,-6.16509,-0.01795\N,0,12.99398,1.02165,2.97463\C,0,12.67433,-0.08235
 ,3.68193\C,0,12.67559,0.33017,5.09402\C,0,12.86039,1.80572,5.15148\C,0
 ,12.77327,2.13732,3.74345\C,0,12.59132,-0.64975,6.22808\C,0,13.0669,2.
 76185,6.28698\O,0,12.96587,4.0295,6.12668\C,0,13.2986,2.16675,7.61123\
 N,0,12.52942,3.15759,0.87007\C,0,12.3781,3.90952,1.97444\C,0,12.19882,
 5.36686,1.62175\C,0,12.50422,5.47053,0.05537\C,0,12.73,3.97512,-0.2579
 5\C,0,10.81852,5.95636,1.91098\C,0,13.5907,6.49,-0.38386\C,0,14.94789,
 6.04234,0.10911\N,0,13.29283,1.19303,-1.15356\C,0,13.10985,2.29883,-2.
 01253\C,0,13.19598,1.79296,-3.39784\C,0,13.40178,0.41326,-3.24761\C,0,
 13.42097,0.07952,-1.8664\C,0,13.03926,2.57163,-4.57904\C,0,13.59654,-0
 .83832,-3.94354\O,0,13.75731,-1.16254,-5.11946\C,0,13.45072,-2.02617,-
 2.89754\C,0,14.60525,-2.9686,-3.101\O,0,15.76987,-2.60152,-2.86536\O,0
 ,14.12894,-4.20606,-3.32945\C,0,15.23658,-5.17875,-3.52653\H,0,11.8422
 3,-2.02045,3.85389\H,0,12.39626,4.20062,3.9074\H,0,12.86933,4.26784,-2
 .3541\H,0,12.49258,-3.97394,-0.63333\H,0,12.45127,-3.90288,2.18275\H,0
 ,10.39864,-3.25394,0.10772\H,0,10.21775,-2.36846,1.63662\H,0,10.1834,-
 4.1052,1.68364\H,0,14.7027,-3.69197,1.41646\H,0,15.14065,-3.60387,-0.3
 2872\H,0,13.55248,-5.93399,0.06601\H,0,14.45907,-5.76174,1.52659\H,0,1
 2.29679,-1.64656,5.87733\H,0,11.76038,-0.3298,6.86606\H,0,13.50443,-0.
 68116,6.82634\H,0,12.45453,1.53418,7.87557\H,0,13.5127,3.00628,8.27548
 \H,0,14.17573,1.5127,7.55226\H,0,12.90726,5.98489,2.15957\H,0,11.61516
 ,5.78005,-0.51349\H,0,10.85158,6.83788,2.57874\H,0,10.19804,5.17936,2.
 33739\H,0,10.24845,6.25056,1.03139\H,0,13.40123,7.46514,0.07151\H,0,13
 .63433,6.639,-1.45759\H,0,14.96901,6.40825,1.14001\H,0,15.73947,6.4931
 6,-0.48603\H,0,15.01207,4.94864,0.14616\H,0,13.81555,2.25775,-5.26414\
 H,0,13.10371,3.63639,-4.3648\H,0,12.03058,2.27319,-4.87698\H,0,12.4904
 6,-2.50927,-3.08221\H,0,15.0679,-5.66348,-4.49311\H,0,15.22833,-5.8265
 9,-2.62988\H,0,16.2354,-4.78039,-3.66115\\Version=ES64L-G16RevA.03\Sta
 te=1-A\HF=-4069.8120396\RMSD=4.561e-09\PG=C01 [X(C68H72Mg2N8O8)]\\@


 YOU WILL NEVER "FIND" TIME FOR ANYTHING.
 IF YOU WANT TIME, YOU MUST MAKE IT.

                        -- CHARLES BIXTON
 Job cpu time:       0 days 11 hours 35 minutes 27.5 seconds.
 Elapsed time:       0 days  0 hours 29 minutes 34.9 seconds.
 File lengths (MBytes):  RWF=  13225 Int=      0 D2E=      0 Chk=    574 Scr=      1
 Normal termination of Gaussian 16 at Sat Sep 11 18:31:35 2021.
