 Entering Gaussian System, Link 0=g16
 Initial command:
 /sw/apps/gaussian-16.0/g16/l1.exe "/tmp/Gau-75401.inp" -scrdir="/tmp/"
 Entering Link 1 = /sw/apps/gaussian-16.0/g16/l1.exe PID=     75402.
  
 Copyright (c) 1988,1990,1992,1993,1995,1998,2003,2009,2016,
            Gaussian, Inc.  All Rights Reserved.
  
 This is part of the Gaussian(R) 16 program.  It is based on
 the Gaussian(R) 09 system (copyright 2009, Gaussian, Inc.),
 the Gaussian(R) 03 system (copyright 2003, Gaussian, Inc.),
 the Gaussian(R) 98 system (copyright 1998, Gaussian, Inc.),
 the Gaussian(R) 94 system (copyright 1995, Gaussian, Inc.),
 the Gaussian 92(TM) system (copyright 1992, Gaussian, Inc.),
 the Gaussian 90(TM) system (copyright 1990, Gaussian, Inc.),
 the Gaussian 88(TM) system (copyright 1988, Gaussian, Inc.),
 the Gaussian 86(TM) system (copyright 1986, Carnegie Mellon
 University), and the Gaussian 82(TM) system (copyright 1983,
 Carnegie Mellon University). Gaussian is a federally registered
 trademark of Gaussian, Inc.
  
 This software contains proprietary and confidential information,
 including trade secrets, belonging to Gaussian, Inc.
  
 This software is provided under written license and may be
 used, copied, transmitted, or stored only in accord with that
 written license.
  
 The following legend is applicable only to US Government
 contracts under FAR:
  
                    RESTRICTED RIGHTS LEGEND
  
 Use, reproduction and disclosure by the US Government is
 subject to restrictions as set forth in subparagraphs (a)
 and (c) of the Commercial Computer Software - Restricted
 Rights clause in FAR 52.227-19.
  
 Gaussian, Inc.
 340 Quinnipiac St., Bldg. 40, Wallingford CT 06492
  
  
 ---------------------------------------------------------------
 Warning -- This program may not be used in any manner that
 competes with the business of Gaussian, Inc. or will provide
 assistance to any competitor of Gaussian, Inc.  The licensee
 of this program is prohibited from giving any competitor of
 Gaussian, Inc. access to this program.  By using this program,
 the user acknowledges that Gaussian, Inc. is engaged in the
 business of creating and licensing software in the field of
 computational chemistry and represents and warrants to the
 licensee that it is not a competitor of Gaussian, Inc. and that
 it will not use this program in any manner prohibited above.
 ---------------------------------------------------------------
  

 Cite this work as:
 Gaussian 16, Revision A.03,
 M. J. Frisch, G. W. Trucks, H. B. Schlegel, G. E. Scuseria, 
 M. A. Robb, J. R. Cheeseman, G. Scalmani, V. Barone, 
 G. A. Petersson, H. Nakatsuji, X. Li, M. Caricato, A. V. Marenich, 
 J. Bloino, B. G. Janesko, R. Gomperts, B. Mennucci, H. P. Hratchian, 
 J. V. Ortiz, A. F. Izmaylov, J. L. Sonnenberg, D. Williams-Young, 
 F. Ding, F. Lipparini, F. Egidi, J. Goings, B. Peng, A. Petrone, 
 T. Henderson, D. Ranasinghe, V. G. Zakrzewski, J. Gao, N. Rega, 
 G. Zheng, W. Liang, M. Hada, M. Ehara, K. Toyota, R. Fukuda, 
 J. Hasegawa, M. Ishida, T. Nakajima, Y. Honda, O. Kitao, H. Nakai, 
 T. Vreven, K. Throssell, J. A. Montgomery, Jr., J. E. Peralta, 
 F. Ogliaro, M. J. Bearpark, J. J. Heyd, E. N. Brothers, K. N. Kudin, 
 V. N. Staroverov, T. A. Keith, R. Kobayashi, J. Normand, 
 K. Raghavachari, A. P. Rendell, J. C. Burant, S. S. Iyengar, 
 J. Tomasi, M. Cossi, J. M. Millam, M. Klene, C. Adamo, R. Cammi, 
 J. W. Ochterski, R. L. Martin, K. Morokuma, O. Farkas, 
 J. B. Foresman, and D. J. Fox, Gaussian, Inc., Wallingford CT, 2016.
 
 ******************************************
 Gaussian 16:  ES64L-G16RevA.03 25-Dec-2016
                10-Sep-2021 
 ******************************************
 %nproc=24
 Will use up to   24 processors via shared memory.
 %mem=175gb
 -----------------------------------
 #p cam-b3lyp/Def2SVP td=(nstates=5)
 -----------------------------------
 1/38=1,172=1/1;
 2/12=2,17=6,18=5,40=1/2;
 3/5=43,7=101,11=9,25=1,30=1,74=-40/1,2,3,8;
 4//1;
 5/5=2,38=5/2;
 8/6=1,10=1,108=5/1;
 9/41=5,42=1,70=2/14;
 6/7=2,8=2,9=2,10=2/1;
 99/5=1,9=1/99;
 Leave Link    1 at Fri Sep 10 21:55:24 2021, MaxMem= 23488102400 cpu:               0.9 elap:               0.0
 (Enter /sw/apps/gaussian-16.0/g16/l101.exe)
 --------------------------------
 TDDFT excited states in gaussian
 --------------------------------
 Symbolic Z-matrix:
 Charge =  0 Multiplicity = 1
 Mg                    0.        0.        0. 
 C                    -0.217    -2.218     2.801 
 C                    -1.255     2.442     2.026 
 C                    -0.245     1.85     -2.564 
 C                     0.146    -2.824    -2.037 
 N                    -0.617    -0.009     2.126 
 C                    -0.594    -0.908     3.105 
 C                    -0.936    -0.309     4.502 
 C                    -1.773     0.964     4.032 
 C                    -1.155     1.168     2.66 
 C                    -3.263     0.685     3.863 
 C                     0.345     0.11      5.299 
 C                     0.124     0.397     6.787 
 H                     1.168     0.033     7.733 
 N                    -0.185     1.961    -0.152 
 C                    -0.703     2.8       0.777 
 C                    -0.62      4.156     0.193 
 C                    -0.187     4.015    -1.225 
 C                    -0.214     2.583    -1.38 
 C                    -0.887     5.406     0.974 
 C                     0.181     5.013    -2.277 
 O                     0.303     4.69     -3.508 
 C                     0.31      6.414    -1.837 
 N                    -0.265    -0.413    -2.029 
 C                    -0.279     0.569    -2.937 
 C                    -0.196     0.024    -4.332 
 C                     0.124    -1.533    -4.18 
 C                     0.086    -1.632    -2.635 
 C                    -1.451     0.205    -5.197 
 C                     1.373    -2.07     -4.923 
 C                     2.626    -1.49     -4.306 
 N                     0.15     -2.144     0.303 
 C                     0.173    -3.136    -0.688 
 C                     0.173    -4.438     0.004 
 C                     0.133    -4.111     1.358 
 C                     0.083    -2.695     1.502 
 C                     0.149    -5.715    -0.623 
 C                     0.096    -4.629     2.716 
 O                     0.208    -5.747     3.221 
 C                    -0.255    -3.428     3.701 
 C                     0.717    -3.482     4.848 
 O                     1.931    -3.255     4.669 
 O                     0.038    -3.556     6.003 
 C                     0.943    -3.583     7.183 
 H                    -1.859     3.22      2.497 
 H                    -0.218     2.453    -3.474 
 H                     0.276    -3.747    -2.605 
 H                    -1.554    -0.949     5.132 
 H                    -1.585     1.831     4.665 
 H                    -3.484    -0.377     3.969 
 H                    -3.511     1.027     2.858 
 H                    -3.852     1.301     4.543 
 H                     0.669     1.096     4.966 
 H                     1.13     -0.639     5.189 
 H                    -0.844     0.026     7.125 
 H                     0.062     1.477     6.921 
 H                    -1.344     5.186     1.938 
 H                    -1.651     5.963     0.432 
 H                     0.007     6.02      1.084 
 H                    -0.635     6.744    -1.405 
 H                     0.665     6.97     -2.704 
 H                     1.048     6.466    -1.036 
 H                     0.608     0.501    -4.891 
 H                    -0.692    -2.156    -4.547 
 H                    -1.267     0.74     -6.129 
 H                    -2.204     0.714    -4.596 
 H                    -1.967    -0.72     -5.453 
 H                     1.356    -1.759    -5.967 
 H                     1.452    -3.157    -4.902 
 H                     2.714    -0.522    -4.798 
 H                     3.487    -2.121    -4.529 
 H                     2.495    -1.303    -3.24 
 H                     0.867    -6.333    -0.084 
 H                     0.404    -5.642    -1.68 
 H                    -0.891    -5.999    -0.463 
 H                    -1.283    -3.581     4.028 
 H                     0.698    -4.478     7.755 
 H                     0.833    -2.619     7.68 
 H                     2.       -3.754     6.976 
 Mg                    10.51802   0.94932   0.80563 
 C                     9.6756   -1.19842   3.55457 
 C                     9.85444   3.59021   2.85988 
 C                     10.81523   2.85561  -1.71332 
 C                     10.00687  -1.77884  -1.30187 
 N                     9.85856   1.05449   2.91426 
 C                     9.62998   0.17396   3.87695 
 C                     9.41487   0.79822   5.28179 
 C                     8.92877   2.25873   4.82406 
 C                     9.61518   2.3289    3.46149 
 C                     7.42752   2.35308   4.60803 
 C                     10.7432   0.86955   6.11394 
 C                     10.55486   1.17969   7.60058 
 H                     11.45546   0.55024   8.56245 
 N                     10.83531   2.90584   0.70605 
 C                     10.52439   3.82918   1.63989 
 C                     10.94236   5.12391   1.08028 
 C                     11.37444   4.90894  -0.32748 
 C                     10.99721   3.5217   -0.51009 
 C                     10.98209   6.3863    1.89159 
 C                     12.00895   5.80735  -1.34555 
 O                     12.08018   5.47875  -2.58239 
 C                     12.46042   7.12269  -0.86854 
 N                     10.2205   0.6521   -1.23041 
 C                     10.47217   1.63194  -2.11614 
 C                     10.45211   1.10614  -3.53159 
 C                     10.37329  -0.48553  -3.39756 
 C                     10.26678  -0.60516  -1.86142 
 C                     9.30188   1.60033  -4.40859 
 C                     11.46903  -1.3085   -4.12883 
 C                     12.81387  -1.06674  -3.48204 
 N                     10.12765  -1.16048   1.05941 
 C                     9.92133  -2.11815   0.04235 
 C                     9.57817  -3.39207   0.70702 
 C                     9.58616  -3.07908   2.07466 
 C                     9.89154  -1.70219   2.24906 
 C                     9.26371  -4.61493   0.04985 
 C                     9.39528  -3.59791   3.40998 
 O                     9.20491  -4.71512   3.88888 
 C                     9.32043  -2.37426   4.42166 
 C                     10.21853  -2.68084   5.58868 
 O                     11.44909  -2.77039   5.4328 
 O                     9.5047   -2.60251   6.72653 
 C                     10.35465  -2.8878    7.91313 
 H                     9.4552    4.48091   3.34583 
 H                     11.01525   3.44307  -2.61241 
 H                     9.92925  -2.69907  -1.88482 
 H                     8.64681   0.32071   5.87831 
 H                     9.31554   3.02921   5.48598 
 H                     6.94815   1.38841   4.68386 
 H                     7.29842   2.76268   3.61475 
 H                     6.99314   3.08525   5.29475 
 H                     11.31066   1.75759   5.80717 
 H                     11.31165  -0.03325   6.00234 
 H                     9.51137   1.06211   7.91721 
 H                     10.76664   2.23922   7.76357 
 H                     10.45098   6.26909   2.84426 
 H                     10.39867   7.13568   1.34577 
 H                     11.99696   6.76364   2.0341 
 H                     11.61622   7.66328  -0.44716 
 H                     12.96653   7.58396  -1.7188 
 H                     13.17651   6.97217  -0.05296 
 H                     11.36282   1.37004  -4.05511 
 H                     9.43414  -0.88312  -3.80959 
 H                     9.64283   2.09877  -5.33562 
 H                     8.68768   2.26954  -3.82084 
 H                     8.58802   0.83503  -4.70847 
 H                     11.56023  -0.97945  -5.16689 
 H                     11.26948  -2.37475  -4.14534 
 H                     13.14889  -0.13608  -3.94971 
 H                     13.49638  -1.88581  -3.69965 
 H                     12.70541  -0.87556  -2.40811 
 H                     9.78427  -5.39842   0.58432 
 H                     9.55244  -4.5884   -0.99882 
 H                     8.17789  -4.63072   0.17637 
 H                     8.27866  -2.26317   4.7249 
 H                     9.87518  -3.70525   8.46046 
 H                     10.46258  -1.92239   8.44236 
 H                     11.3404  -3.30164   7.73572 
 
 ITRead=  0  0  0  0  0  0  0  0  0  0  0  0  0  0  0  0  0  0  0  0
 ITRead=  0  0  0  0  0  0  0  0  0  0  0  0  0  0  0  0  0  0  0  0
 ITRead=  0  0  0  0  0  0  0  0  0  0  0  0  0  0  0  0  0  0  0  0
 ITRead=  0  0  0  0  0  0  0  0  0  0  0  0  0  0  0  0  0  0  0  0
 ITRead=  0  0  0  0  0  0  0  0  0  0  0  0  0  0  0  0  0  0  0  0
 ITRead=  0  0  0  0  0  0  0  0  0  0  0  0  0  0  0  0  0  0  0  0
 ITRead=  0  0  0  0  0  0  0  0  0  0  0  0  0  0  0  0  0  0  0  0
 ITRead=  0  0  0  0  0  0  0  0  0  0  0  0  0  0  0  0  0  0
 MicOpt= -1 -1 -1 -1 -1 -1 -1 -1 -1 -1 -1 -1 -1 -1 -1 -1 -1 -1 -1 -1
 MicOpt= -1 -1 -1 -1 -1 -1 -1 -1 -1 -1 -1 -1 -1 -1 -1 -1 -1 -1 -1 -1
 MicOpt= -1 -1 -1 -1 -1 -1 -1 -1 -1 -1 -1 -1 -1 -1 -1 -1 -1 -1 -1 -1
 MicOpt= -1 -1 -1 -1 -1 -1 -1 -1 -1 -1 -1 -1 -1 -1 -1 -1 -1 -1 -1 -1
 MicOpt= -1 -1 -1 -1 -1 -1 -1 -1 -1 -1 -1 -1 -1 -1 -1 -1 -1 -1 -1 -1
 MicOpt= -1 -1 -1 -1 -1 -1 -1 -1 -1 -1 -1 -1 -1 -1 -1 -1 -1 -1 -1 -1
 MicOpt= -1 -1 -1 -1 -1 -1 -1 -1 -1 -1 -1 -1 -1 -1 -1 -1 -1 -1 -1 -1
 MicOpt= -1 -1 -1 -1 -1 -1 -1 -1 -1 -1 -1 -1 -1 -1 -1 -1 -1 -1
 NAtoms=    158 NQM=      158 NQMF=       0 NMMI=      0 NMMIF=      0
                NMic=       0 NMicF=      0.
                    Isotopes and Nuclear Properties:
 (Nuclear quadrupole moments (NQMom) in fm**2, nuclear magnetic moments (NMagM)
  in nuclear magnetons)

  Atom         1           2           3           4           5           6           7           8           9          10
 IAtWgt=          24          12          12          12          12          14          12          12          12          12
 AtmWgt=  23.9850450  12.0000000  12.0000000  12.0000000  12.0000000  14.0030740  12.0000000  12.0000000  12.0000000  12.0000000
 NucSpn=           0           0           0           0           0           2           0           0           0           0
 AtZEff=  -0.0000000  -0.0000000  -0.0000000  -0.0000000  -0.0000000  -0.0000000  -0.0000000  -0.0000000  -0.0000000  -0.0000000
 NQMom=    0.0000000   0.0000000   0.0000000   0.0000000   0.0000000   2.0440000   0.0000000   0.0000000   0.0000000   0.0000000
 NMagM=    0.0000000   0.0000000   0.0000000   0.0000000   0.0000000   0.4037610   0.0000000   0.0000000   0.0000000   0.0000000
 AtZNuc=  12.0000000   6.0000000   6.0000000   6.0000000   6.0000000   7.0000000   6.0000000   6.0000000   6.0000000   6.0000000

  Atom        11          12          13          14          15          16          17          18          19          20
 IAtWgt=          12          12          12           1          14          12          12          12          12          12
 AtmWgt=  12.0000000  12.0000000  12.0000000   1.0078250  14.0030740  12.0000000  12.0000000  12.0000000  12.0000000  12.0000000
 NucSpn=           0           0           0           1           2           0           0           0           0           0
 AtZEff=  -0.0000000  -0.0000000  -0.0000000  -0.0000000  -0.0000000  -0.0000000  -0.0000000  -0.0000000  -0.0000000  -0.0000000
 NQMom=    0.0000000   0.0000000   0.0000000   0.0000000   2.0440000   0.0000000   0.0000000   0.0000000   0.0000000   0.0000000
 NMagM=    0.0000000   0.0000000   0.0000000   2.7928460   0.4037610   0.0000000   0.0000000   0.0000000   0.0000000   0.0000000
 AtZNuc=   6.0000000   6.0000000   6.0000000   1.0000000   7.0000000   6.0000000   6.0000000   6.0000000   6.0000000   6.0000000

  Atom        21          22          23          24          25          26          27          28          29          30
 IAtWgt=          12          16          12          14          12          12          12          12          12          12
 AtmWgt=  12.0000000  15.9949146  12.0000000  14.0030740  12.0000000  12.0000000  12.0000000  12.0000000  12.0000000  12.0000000
 NucSpn=           0           0           0           2           0           0           0           0           0           0
 AtZEff=  -0.0000000  -0.0000000  -0.0000000  -0.0000000  -0.0000000  -0.0000000  -0.0000000  -0.0000000  -0.0000000  -0.0000000
 NQMom=    0.0000000   0.0000000   0.0000000   2.0440000   0.0000000   0.0000000   0.0000000   0.0000000   0.0000000   0.0000000
 NMagM=    0.0000000   0.0000000   0.0000000   0.4037610   0.0000000   0.0000000   0.0000000   0.0000000   0.0000000   0.0000000
 AtZNuc=   6.0000000   8.0000000   6.0000000   7.0000000   6.0000000   6.0000000   6.0000000   6.0000000   6.0000000   6.0000000

  Atom        31          32          33          34          35          36          37          38          39          40
 IAtWgt=          12          14          12          12          12          12          12          12          16          12
 AtmWgt=  12.0000000  14.0030740  12.0000000  12.0000000  12.0000000  12.0000000  12.0000000  12.0000000  15.9949146  12.0000000
 NucSpn=           0           2           0           0           0           0           0           0           0           0
 AtZEff=  -0.0000000  -0.0000000  -0.0000000  -0.0000000  -0.0000000  -0.0000000  -0.0000000  -0.0000000  -0.0000000  -0.0000000
 NQMom=    0.0000000   2.0440000   0.0000000   0.0000000   0.0000000   0.0000000   0.0000000   0.0000000   0.0000000   0.0000000
 NMagM=    0.0000000   0.4037610   0.0000000   0.0000000   0.0000000   0.0000000   0.0000000   0.0000000   0.0000000   0.0000000
 AtZNuc=   6.0000000   7.0000000   6.0000000   6.0000000   6.0000000   6.0000000   6.0000000   6.0000000   8.0000000   6.0000000

  Atom        41          42          43          44          45          46          47          48          49          50
 IAtWgt=          12          16          16          12           1           1           1           1           1           1
 AtmWgt=  12.0000000  15.9949146  15.9949146  12.0000000   1.0078250   1.0078250   1.0078250   1.0078250   1.0078250   1.0078250
 NucSpn=           0           0           0           0           1           1           1           1           1           1
 AtZEff=  -0.0000000  -0.0000000  -0.0000000  -0.0000000  -0.0000000  -0.0000000  -0.0000000  -0.0000000  -0.0000000  -0.0000000
 NQMom=    0.0000000   0.0000000   0.0000000   0.0000000   0.0000000   0.0000000   0.0000000   0.0000000   0.0000000   0.0000000
 NMagM=    0.0000000   0.0000000   0.0000000   0.0000000   2.7928460   2.7928460   2.7928460   2.7928460   2.7928460   2.7928460
 AtZNuc=   6.0000000   8.0000000   8.0000000   6.0000000   1.0000000   1.0000000   1.0000000   1.0000000   1.0000000   1.0000000

  Atom        51          52          53          54          55          56          57          58          59          60
 IAtWgt=           1           1           1           1           1           1           1           1           1           1
 AtmWgt=   1.0078250   1.0078250   1.0078250   1.0078250   1.0078250   1.0078250   1.0078250   1.0078250   1.0078250   1.0078250
 NucSpn=           1           1           1           1           1           1           1           1           1           1
 AtZEff=  -0.0000000  -0.0000000  -0.0000000  -0.0000000  -0.0000000  -0.0000000  -0.0000000  -0.0000000  -0.0000000  -0.0000000
 NQMom=    0.0000000   0.0000000   0.0000000   0.0000000   0.0000000   0.0000000   0.0000000   0.0000000   0.0000000   0.0000000
 NMagM=    2.7928460   2.7928460   2.7928460   2.7928460   2.7928460   2.7928460   2.7928460   2.7928460   2.7928460   2.7928460
 AtZNuc=   1.0000000   1.0000000   1.0000000   1.0000000   1.0000000   1.0000000   1.0000000   1.0000000   1.0000000   1.0000000

  Atom        61          62          63          64          65          66          67          68          69          70
 IAtWgt=           1           1           1           1           1           1           1           1           1           1
 AtmWgt=   1.0078250   1.0078250   1.0078250   1.0078250   1.0078250   1.0078250   1.0078250   1.0078250   1.0078250   1.0078250
 NucSpn=           1           1           1           1           1           1           1           1           1           1
 AtZEff=  -0.0000000  -0.0000000  -0.0000000  -0.0000000  -0.0000000  -0.0000000  -0.0000000  -0.0000000  -0.0000000  -0.0000000
 NQMom=    0.0000000   0.0000000   0.0000000   0.0000000   0.0000000   0.0000000   0.0000000   0.0000000   0.0000000   0.0000000
 NMagM=    2.7928460   2.7928460   2.7928460   2.7928460   2.7928460   2.7928460   2.7928460   2.7928460   2.7928460   2.7928460
 AtZNuc=   1.0000000   1.0000000   1.0000000   1.0000000   1.0000000   1.0000000   1.0000000   1.0000000   1.0000000   1.0000000

  Atom        71          72          73          74          75          76          77          78          79          80
 IAtWgt=           1           1           1           1           1           1           1           1           1          24
 AtmWgt=   1.0078250   1.0078250   1.0078250   1.0078250   1.0078250   1.0078250   1.0078250   1.0078250   1.0078250  23.9850450
 NucSpn=           1           1           1           1           1           1           1           1           1           0
 AtZEff=  -0.0000000  -0.0000000  -0.0000000  -0.0000000  -0.0000000  -0.0000000  -0.0000000  -0.0000000  -0.0000000  -0.0000000
 NQMom=    0.0000000   0.0000000   0.0000000   0.0000000   0.0000000   0.0000000   0.0000000   0.0000000   0.0000000   0.0000000
 NMagM=    2.7928460   2.7928460   2.7928460   2.7928460   2.7928460   2.7928460   2.7928460   2.7928460   2.7928460   0.0000000
 AtZNuc=   1.0000000   1.0000000   1.0000000   1.0000000   1.0000000   1.0000000   1.0000000   1.0000000   1.0000000  12.0000000

  Atom        81          82          83          84          85          86          87          88          89          90
 IAtWgt=          12          12          12          12          14          12          12          12          12          12
 AtmWgt=  12.0000000  12.0000000  12.0000000  12.0000000  14.0030740  12.0000000  12.0000000  12.0000000  12.0000000  12.0000000
 NucSpn=           0           0           0           0           2           0           0           0           0           0
 AtZEff=  -0.0000000  -0.0000000  -0.0000000  -0.0000000  -0.0000000  -0.0000000  -0.0000000  -0.0000000  -0.0000000  -0.0000000
 NQMom=    0.0000000   0.0000000   0.0000000   0.0000000   2.0440000   0.0000000   0.0000000   0.0000000   0.0000000   0.0000000
 NMagM=    0.0000000   0.0000000   0.0000000   0.0000000   0.4037610   0.0000000   0.0000000   0.0000000   0.0000000   0.0000000
 AtZNuc=   6.0000000   6.0000000   6.0000000   6.0000000   7.0000000   6.0000000   6.0000000   6.0000000   6.0000000   6.0000000

  Atom        91          92          93          94          95          96          97          98          99         100
 IAtWgt=          12          12           1          14          12          12          12          12          12          12
 AtmWgt=  12.0000000  12.0000000   1.0078250  14.0030740  12.0000000  12.0000000  12.0000000  12.0000000  12.0000000  12.0000000
 NucSpn=           0           0           1           2           0           0           0           0           0           0
 AtZEff=  -0.0000000  -0.0000000  -0.0000000  -0.0000000  -0.0000000  -0.0000000  -0.0000000  -0.0000000  -0.0000000  -0.0000000
 NQMom=    0.0000000   0.0000000   0.0000000   2.0440000   0.0000000   0.0000000   0.0000000   0.0000000   0.0000000   0.0000000
 NMagM=    0.0000000   0.0000000   2.7928460   0.4037610   0.0000000   0.0000000   0.0000000   0.0000000   0.0000000   0.0000000
 AtZNuc=   6.0000000   6.0000000   1.0000000   7.0000000   6.0000000   6.0000000   6.0000000   6.0000000   6.0000000   6.0000000

  Atom       101         102         103         104         105         106         107         108         109         110
 IAtWgt=          16          12          14          12          12          12          12          12          12          12
 AtmWgt=  15.9949146  12.0000000  14.0030740  12.0000000  12.0000000  12.0000000  12.0000000  12.0000000  12.0000000  12.0000000
 NucSpn=           0           0           2           0           0           0           0           0           0           0
 AtZEff=  -0.0000000  -0.0000000  -0.0000000  -0.0000000  -0.0000000  -0.0000000  -0.0000000  -0.0000000  -0.0000000  -0.0000000
 NQMom=    0.0000000   0.0000000   2.0440000   0.0000000   0.0000000   0.0000000   0.0000000   0.0000000   0.0000000   0.0000000
 NMagM=    0.0000000   0.0000000   0.4037610   0.0000000   0.0000000   0.0000000   0.0000000   0.0000000   0.0000000   0.0000000
 AtZNuc=   8.0000000   6.0000000   7.0000000   6.0000000   6.0000000   6.0000000   6.0000000   6.0000000   6.0000000   6.0000000

  Atom       111         112         113         114         115         116         117         118         119         120
 IAtWgt=          14          12          12          12          12          12          12          16          12          12
 AtmWgt=  14.0030740  12.0000000  12.0000000  12.0000000  12.0000000  12.0000000  12.0000000  15.9949146  12.0000000  12.0000000
 NucSpn=           2           0           0           0           0           0           0           0           0           0
 AtZEff=  -0.0000000  -0.0000000  -0.0000000  -0.0000000  -0.0000000  -0.0000000  -0.0000000  -0.0000000  -0.0000000  -0.0000000
 NQMom=    2.0440000   0.0000000   0.0000000   0.0000000   0.0000000   0.0000000   0.0000000   0.0000000   0.0000000   0.0000000
 NMagM=    0.4037610   0.0000000   0.0000000   0.0000000   0.0000000   0.0000000   0.0000000   0.0000000   0.0000000   0.0000000
 AtZNuc=   7.0000000   6.0000000   6.0000000   6.0000000   6.0000000   6.0000000   6.0000000   8.0000000   6.0000000   6.0000000

  Atom       121         122         123         124         125         126         127         128         129         130
 IAtWgt=          16          16          12           1           1           1           1           1           1           1
 AtmWgt=  15.9949146  15.9949146  12.0000000   1.0078250   1.0078250   1.0078250   1.0078250   1.0078250   1.0078250   1.0078250
 NucSpn=           0           0           0           1           1           1           1           1           1           1
 AtZEff=  -0.0000000  -0.0000000  -0.0000000  -0.0000000  -0.0000000  -0.0000000  -0.0000000  -0.0000000  -0.0000000  -0.0000000
 NQMom=    0.0000000   0.0000000   0.0000000   0.0000000   0.0000000   0.0000000   0.0000000   0.0000000   0.0000000   0.0000000
 NMagM=    0.0000000   0.0000000   0.0000000   2.7928460   2.7928460   2.7928460   2.7928460   2.7928460   2.7928460   2.7928460
 AtZNuc=   8.0000000   8.0000000   6.0000000   1.0000000   1.0000000   1.0000000   1.0000000   1.0000000   1.0000000   1.0000000

  Atom       131         132         133         134         135         136         137         138         139         140
 IAtWgt=           1           1           1           1           1           1           1           1           1           1
 AtmWgt=   1.0078250   1.0078250   1.0078250   1.0078250   1.0078250   1.0078250   1.0078250   1.0078250   1.0078250   1.0078250
 NucSpn=           1           1           1           1           1           1           1           1           1           1
 AtZEff=  -0.0000000  -0.0000000  -0.0000000  -0.0000000  -0.0000000  -0.0000000  -0.0000000  -0.0000000  -0.0000000  -0.0000000
 NQMom=    0.0000000   0.0000000   0.0000000   0.0000000   0.0000000   0.0000000   0.0000000   0.0000000   0.0000000   0.0000000
 NMagM=    2.7928460   2.7928460   2.7928460   2.7928460   2.7928460   2.7928460   2.7928460   2.7928460   2.7928460   2.7928460
 AtZNuc=   1.0000000   1.0000000   1.0000000   1.0000000   1.0000000   1.0000000   1.0000000   1.0000000   1.0000000   1.0000000

  Atom       141         142         143         144         145         146         147         148         149         150
 IAtWgt=           1           1           1           1           1           1           1           1           1           1
 AtmWgt=   1.0078250   1.0078250   1.0078250   1.0078250   1.0078250   1.0078250   1.0078250   1.0078250   1.0078250   1.0078250
 NucSpn=           1           1           1           1           1           1           1           1           1           1
 AtZEff=  -0.0000000  -0.0000000  -0.0000000  -0.0000000  -0.0000000  -0.0000000  -0.0000000  -0.0000000  -0.0000000  -0.0000000
 NQMom=    0.0000000   0.0000000   0.0000000   0.0000000   0.0000000   0.0000000   0.0000000   0.0000000   0.0000000   0.0000000
 NMagM=    2.7928460   2.7928460   2.7928460   2.7928460   2.7928460   2.7928460   2.7928460   2.7928460   2.7928460   2.7928460
 AtZNuc=   1.0000000   1.0000000   1.0000000   1.0000000   1.0000000   1.0000000   1.0000000   1.0000000   1.0000000   1.0000000

  Atom       151         152         153         154         155         156         157         158
 IAtWgt=           1           1           1           1           1           1           1           1
 AtmWgt=   1.0078250   1.0078250   1.0078250   1.0078250   1.0078250   1.0078250   1.0078250   1.0078250
 NucSpn=           1           1           1           1           1           1           1           1
 AtZEff=  -0.0000000  -0.0000000  -0.0000000  -0.0000000  -0.0000000  -0.0000000  -0.0000000  -0.0000000
 NQMom=    0.0000000   0.0000000   0.0000000   0.0000000   0.0000000   0.0000000   0.0000000   0.0000000
 NMagM=    2.7928460   2.7928460   2.7928460   2.7928460   2.7928460   2.7928460   2.7928460   2.7928460
 AtZNuc=   1.0000000   1.0000000   1.0000000   1.0000000   1.0000000   1.0000000   1.0000000   1.0000000
 Leave Link  101 at Fri Sep 10 21:55:24 2021, MaxMem= 23488102400 cpu:               3.2 elap:               0.2
 (Enter /sw/apps/gaussian-16.0/g16/l202.exe)
 Stoichiometry    C68H72Mg2N8O8
 Framework group  C1[X(C68H72Mg2N8O8)]
 Deg. of freedom   468
 Full point group                 C1      NOp   1
 Largest Abelian subgroup         C1      NOp   1
 Largest concise Abelian subgroup C1      NOp   1
                         Standard orientation:                         
 ---------------------------------------------------------------------
 Center     Atomic      Atomic             Coordinates (Angstroms)
 Number     Number       Type             X           Y           Z
 ---------------------------------------------------------------------
      1         12           0       -5.107778   -1.044162   -0.049222
      2          6           0       -5.506312    2.501490    0.236677
      3          6           0       -5.922416   -0.720121   -3.346862
      4          6           0       -5.206858   -4.209026   -0.223693
      5          6           0       -5.443737   -1.212859    3.415505
      6          7           0       -5.626013    0.719898   -1.282174
      7          6           0       -5.684640    2.030230   -1.065919
      8          6           0       -5.878691    2.863250   -2.368146
      9          6           0       -6.551293    1.745128   -3.284338
     10          6           0       -5.971930    0.507552   -2.622017
     11          6           0       -8.071543    1.697252   -3.170104
     12          6           0       -4.518239    3.353680   -2.968461
     13          6           0       -4.631754    4.437193   -4.044783
     14          1           0       -3.607609    5.468757   -4.110747
     15          7           0       -5.026088   -2.244071   -1.616511
     16          6           0       -5.381631   -1.940749   -2.888073
     17          6           0       -5.137510   -3.163945   -3.682350
     18          6           0       -4.790958   -4.259852   -2.735257
     19          6           0       -5.022682   -3.612996   -1.469058
     20          6           0       -5.194337   -3.198296   -5.178793
     21          6           0       -4.334982   -5.670046   -2.939142
     22          8           0       -4.313101   -6.522292   -1.986372
     23          6           0       -3.994100   -6.057084   -4.320099
     24          7           0       -5.516335   -2.531780    1.357087
     25          6           0       -5.434193   -3.827303    1.034819
     26          6           0       -5.488835   -4.698009    2.254993
     27          6           0       -5.381041   -3.712335    3.506624
     28          6           0       -5.364414   -2.364246    2.744621
     29          6           0       -6.743510   -5.570399    2.398999
     30          6           0       -4.252270   -3.995409    4.529446
     31          6           0       -2.905152   -3.744487    3.889597
     32          7           0       -5.242786    0.380446    1.582744
     33          6           0       -5.400897    0.089070    2.945379
     34          6           0       -5.550676    1.376725    3.647930
     35          6           0       -5.485464    2.333133    2.636557
     36          6           0       -5.332622    1.682762    1.378801
     37          6           0       -5.778730    1.543634    5.042408
     38          6           0       -5.534061    3.752037    2.323176
     39          8           0       -5.555783    4.787240    2.990541
     40          6           0       -5.671811    3.912145    0.744817
     41          6           0       -4.667160    4.941099    0.302956
     42          8           0       -3.442481    4.714669    0.382057
     43          8           0       -5.298425    5.923696   -0.357762
     44          6           0       -4.354876    6.963065   -0.849273
     45          1           0       -6.391627   -0.771113   -4.331332
     46          1           0       -5.136695   -5.298756   -0.225287
     47          1           0       -5.467835   -1.182806    4.506362
     48          1           0       -6.551021    3.715361   -2.266639
     49          1           0       -6.217459    1.812324   -4.319598
     50          1           0       -8.432526    2.354501   -2.379133
     51          1           0       -8.313765    0.658979   -2.942485
     52          1           0       -8.539146    1.910130   -4.131774
     53          1           0       -4.075847    2.551321   -3.558860
     54          1           0       -3.850062    3.698696   -2.178633
     55          1           0       -5.625980    4.884725   -4.056516
     56          1           0       -4.537728    3.960494   -5.020548
     57          1           0       -5.634559   -2.287982   -5.583857
     58          1           0       -5.896976   -3.985028   -5.452764
     59          1           0       -4.219997   -3.404962   -5.621831
     60          1           0       -4.864416   -5.910625   -4.960138
     61          1           0       -3.604028   -7.072519   -4.260207
     62          1           0       -3.221510   -5.384962   -4.694672
     63          1           0       -4.651916   -5.394825    2.275958
     64          1           0       -6.290752   -3.713304    4.107539
     65          1           0       -6.528390   -6.635562    2.487632
     66          1           0       -7.391657   -5.372004    1.545866
     67          1           0       -7.393320   -5.302602    3.231735
     68          1           0       -4.271946   -5.040606    4.836238
     69          1           0       -4.323630   -3.384251    5.429249
     70          1           0       -2.705740   -4.679558    3.367383
     71          1           0       -2.150416   -3.555400    4.653686
     72          1           0       -2.962014   -2.957095    3.137755
     73          1           0       -5.130178    2.359205    5.362083
     74          1           0       -5.562801    0.627353    5.591414
     75          1           0       -6.839978    1.791830    5.045175
     76          1           0       -6.695713    4.229705    0.550131
     77          1           0       -4.696003    7.919498   -0.452910
     78          1           0       -4.308437    6.851968   -1.932742
     79          1           0       -3.341849    6.923277   -0.447363
     80         12           0        5.465555   -0.476900    0.199453
     81          6           0        4.455666    2.962705    0.367895
     82          6           0        5.264837   -0.214306   -3.195446
     83          6           0        5.912708   -3.613563    0.029803
     84          6           0        4.489577   -0.782234    3.531108
     85          7           0        4.920348    1.208928   -1.124557
     86          6           0        4.614647    2.485805   -0.949955
     87          6           0        4.549981    3.316592   -2.259596
     88          6           0        4.251052    2.120488   -3.288613
     89          6           0        4.879992    0.966171   -2.511011
     90          6           0        2.769276    1.829921   -3.459596
     91          6           0        5.910688    4.027199   -2.584462
     92          6           0        5.832630    5.098265   -3.674636
     93          1           0        6.678853    6.281786   -3.549466
     94          7           0        6.045895   -1.610962   -1.322279
     95          6           0        5.907122   -1.341377   -2.637327
     96          6           0        6.475255   -2.497864   -3.347223
     97          6           0        6.811109   -3.545035   -2.344563
     98          6           0        6.237849   -2.959212   -1.149461
     99          6           0        6.724954   -2.501647   -4.827448
    100          6           0        7.518478   -4.862353   -2.447094
    101          8           0        7.489095   -5.718421   -1.493622
    102          6           0        8.168183   -5.159332   -3.732073
    103          7           0        5.040538   -2.034577    1.509155
    104          6           0        5.386213   -3.299961    1.213770
    105          6           0        5.231362   -4.202239    2.414721
    106          6           0        4.938976   -3.228246    3.648997
    107          6           0        4.884574   -1.879033    2.899299
    108          6           0        4.123166   -5.250769    2.320552
    109          6           0        5.877047   -3.352070    4.880813
    110          6           0        7.269528   -2.888866    4.517744
    111          7           0        4.798475    0.866925    1.754184
    112          6           0        4.417081    0.526164    3.070441
    113          6           0        3.930464    1.762356    3.716545
    114          6           0        4.041817    2.739673    2.716086
    115          6           0        4.542196    2.149804    1.523955
    116          6           0        3.421195    1.863304    5.041913
    117          6           0        3.839860    4.134047    2.394167
    118          8           0        3.517935    5.135223    3.032725
    119          6           0        3.979641    4.314921    0.821219
    120          6           0        4.877096    5.495011    0.567309
    121          8           0        6.075364    5.460571    0.898313
    122          8           0        4.231700    6.379127   -0.215120
    123          6           0        5.085324    7.562209   -0.504027
    124          1           0        5.014471   -0.306053   -4.252700
    125          1           0        6.152386   -4.679002    0.059371
    126          1           0        4.259786   -0.774264    4.598727
    127          1           0        3.750200    4.046544   -2.295476
    128          1           0        4.769461    2.272069   -4.231823
    129          1           0        2.164807    2.398990   -2.769008
    130          1           0        2.654566    0.769359   -3.277677
    131          1           0        2.471029    1.991315   -4.499473
    132          1           0        6.581555    3.309480   -3.073902
    133          1           0        6.343254    4.446036   -1.696712
    134          1           0        4.797849    5.387287   -3.895192
    135          1           0        6.195975    4.667601   -4.610867
    136          1           0        6.225136   -1.659543   -5.321856
    137          1           0        6.227439   -3.389096   -5.233382
    138          1           0        7.787557   -2.547807   -5.075239
    139          1           0        7.426278   -5.132274   -4.526628
    140          1           0        8.695388   -6.103415   -3.581671
    141          1           0        8.891706   -4.365815   -3.949920
    142          1           0        6.145926   -4.749405    2.607830
    143          1           0        3.936638   -3.394198    4.070457
    144          1           0        4.488731   -6.285826    2.458729
    145          1           0        3.633939   -5.145142    1.361368
    146          1           0        3.297768   -5.114189    3.017166
    147          1           0        5.967184   -4.397901    5.184577
    148          1           0        5.531312   -2.794430    5.744808
    149          1           0        7.709243   -3.773684    4.047818
    150          1           0        7.821872   -2.600007    5.409666
    151          1           0        7.235893   -2.096222    3.761290
    152          1           0        3.851297    2.757329    5.473455
    153          1           0        3.664432    0.980559    5.629600
    154          1           0        2.350263    1.935948    4.834336
    155          1           0        2.977621    4.468560    0.418810
    156          1           0        4.521861    8.446745   -0.191309
    157          1           0        5.348995    7.485816   -1.575658
    158          1           0        5.995547    7.676395    0.072944
 ---------------------------------------------------------------------
 Rotational constants (GHZ):           0.0205078           0.0119333           0.0102343
 Leave Link  202 at Fri Sep 10 21:55:25 2021, MaxMem= 23488102400 cpu:               0.2 elap:               0.0
 (Enter /sw/apps/gaussian-16.0/g16/l301.exe)
 Standard basis: def2SVP (5D, 7F)
 Ernie: Thresh=  0.10000D-02 Tol=  0.10000D-05 Strict=F.
 There are  1658 symmetry adapted cartesian basis functions of A   symmetry.
 There are  1572 symmetry adapted basis functions of A   symmetry.
  1572 basis functions,  2678 primitive gaussians,  1658 cartesian basis functions
   312 alpha electrons      312 beta electrons
       nuclear repulsion energy     15001.6546300527 Hartrees.
 IExCor=20419 DFT=T Ex+Corr=CAM-B3LYP ExCW=0 ScaHFX=  1.000000
 ScaDFX=  1.000000  1.000000  1.000000  0.810000 ScalE2=  1.000000  1.000000
 IRadAn=      5 IRanWt=     -1 IRanGd=            0 ICorTp=0 IEmpDi=  4
 HFx  wShort=  0.000000 wLong=  0.330000 cFull=  0.190000 cShort=  0.000000 cLong=  0.460000
 DFx  wShort=  0.000000 wLong=  0.330000 cFull=  0.190000 cShort=  0.000000 cLong=  0.460000
 NAtoms=  158 NActive=  158 NUniq=  158 SFac= 1.00D+00 NAtFMM=   60 NAOKFM=T Big=T
 Integral buffers will be    131072 words long.
 Raffenetti 1 integral format.
 Two-electron integral symmetry is turned on.
 Leave Link  301 at Fri Sep 10 21:55:25 2021, MaxMem= 23488102400 cpu:               1.4 elap:               0.1
 (Enter /sw/apps/gaussian-16.0/g16/l302.exe)
 NPDir=0 NMtPBC=     1 NCelOv=     1 NCel=       1 NClECP=     1 NCelD=      1
         NCelK=      1 NCelE2=     1 NClLst=     1 CellRange=     0.0.
 One-electron integrals computed using PRISM.
 One-electron integral symmetry used in STVInt
   1 Symmetry operations used in ECPInt.
 ECPInt:  NShTT=  271216 NPrTT=  987664 LenC2=  139007 LenP2D=  290452.
 LDataN:  DoStor=T MaxTD1= 4 Len=   56
 NBasis=  1572 RedAO= T EigKep=  3.36D-04  NBF=  1572
 NBsUse=  1572 1.00D-06 EigRej= -1.00D+00 NBFU=  1572
 Precomputing XC quadrature grid using
 IXCGrd= 4 IRadAn=           5 IRanWt=          -1 IRanGd=           0 AccXCQ= 0.00D+00.
 Generated NRdTot=       0 NPtTot=           0 NUsed=           0 NTot=          32
 NSgBfM=  1106  1090  1098  1099  1106 MxSgAt=   158 MxSgA2=   158.
 Leave Link  302 at Fri Sep 10 21:55:30 2021, MaxMem= 23488102400 cpu:             123.5 elap:               5.2
 (Enter /sw/apps/gaussian-16.0/g16/l303.exe)
 DipDrv:  MaxL=1.
 Leave Link  303 at Fri Sep 10 21:55:30 2021, MaxMem= 23488102400 cpu:               9.2 elap:               0.4
 (Enter /sw/apps/gaussian-16.0/g16/l308.exe)
 Leave Link  308 at Fri Sep 10 21:55:31 2021, MaxMem= 23488102400 cpu:              14.6 elap:               0.7
 (Enter /sw/apps/gaussian-16.0/g16/l401.exe)
 ExpMin= 3.36D-02 ExpMax= 4.95D+03 ExpMxC= 7.45D+02 IAcc=3 IRadAn=         5 AccDes= 0.00D+00
 Harris functional with IExCor=20419 and IRadAn=       5 diagonalized for initial guess.
 HarFok:  IExCor=20419 AccDes= 0.00D+00 IRadAn=         5 IDoV= 1 UseB2=F ITyADJ=14
 ICtDFT=  3500011 ScaDFX=  1.000000  1.000000  1.000000  1.000000
 FoFCou: FMM=F IPFlag=           0 FMFlag=      100000 FMFlg1=        2001
         NFxFlg=           0 DoJE=T BraDBF=F KetDBF=T FulRan=T
         wScrn=  0.000000 ICntrl=       500 IOpCl=  0 I1Cent=   200000004 NGrid=           0
         NMat0=    1 NMatS0=      1 NMatT0=    0 NMatD0=    1 NMtDS0=    0 NMtDT0=    0
 Petite list used in FoFCou.
 Harris En= -3918.65800832754    
 JPrj=0 DoOrth=F DoCkMO=F.
 Leave Link  401 at Fri Sep 10 21:55:39 2021, MaxMem= 23488102400 cpu:             181.3 elap:               7.6
 (Enter /sw/apps/gaussian-16.0/g16/l502.exe)
 Integral symmetry usage will be decided dynamically.
 Closed shell SCF:
 Using DIIS extrapolation, IDIIS=  1040.
 NGot= 23488102400 LenX= 23482547354 LenY= 23479796732
 Requested convergence on RMS density matrix=1.00D-08 within 128 cycles.
 Requested convergence on MAX density matrix=1.00D-06.
 Requested convergence on             energy=1.00D-06.
 No special actions if energy rises.
 Fock matrices will be formed incrementally for  20 cycles.

 Cycle   1  Pass 1  IDiag  1:
 FoFJK:  IHMeth= 1 ICntrl=       0 DoSepK=T KAlg= 0 I1Cent=           0 FoldK=F
 IRaf=         1 NMat=       1 IRICut=       1 DoRegI=T DoRafI=F ISym2E= 0 IDoP0=0 IntGTp=1.
 FoFCou: FMM=T IPFlag=           0 FMFlag=      100000 FMFlg1=        2001
         NFxFlg=           0 DoJE=T BraDBF=F KetDBF=F FulRan=T
         wScrn=  0.000000 ICntrl=       500 IOpCl=  0 I1Cent=           0 NGrid=           0
         NMat0=    1 NMatS0=      1 NMatT0=    0 NMatD0=    1 NMtDS0=    0 NMtDT0=    0
 Symmetry not used in FoFCou.
 FMM levels:  10  Number of levels for PrismC:   9
 E= -4068.94769679866    
 DIIS: error= 2.04D-02 at cycle   1 NSaved=   1.
 NSaved= 1 IEnMin= 1 EnMin= -4068.94769679866     IErMin= 1 ErrMin= 2.04D-02
 ErrMax= 2.04D-02  0.00D+00 EMaxC= 1.00D-01 BMatC= 1.69D+00 BMatP= 1.69D+00
 IDIUse=3 WtCom= 7.96D-01 WtEn= 2.04D-01
 Coeff-Com:  0.100D+01
 Coeff-En:   0.100D+01
 Coeff:      0.100D+01
 Gap=     0.120 Goal=   None    Shift=    0.000
 GapD=    0.120 DampG=1.000 DampE=0.500 DampFc=0.5000 IDamp=-1.
 Damping current iteration by 5.00D-01
 RMSDP=1.57D-03 MaxDP=1.35D-01              OVMax= 2.09D-01

 Cycle   2  Pass 1  IDiag  1:
 RMSU=  7.71D-04    CP:  9.82D-01
 E= -4069.33627510452     Delta-E=       -0.388578305858 Rises=F Damp=T
 DIIS: error= 1.27D-02 at cycle   2 NSaved=   2.
 NSaved= 2 IEnMin= 2 EnMin= -4069.33627510452     IErMin= 2 ErrMin= 1.27D-02
 ErrMax= 1.27D-02  0.00D+00 EMaxC= 1.00D-01 BMatC= 3.07D-01 BMatP= 1.69D+00
 IDIUse=3 WtCom= 8.73D-01 WtEn= 1.27D-01
 Coeff-Com: -0.212D+00 0.121D+01
 Coeff-En:   0.000D+00 0.100D+01
 Coeff:     -0.185D+00 0.119D+01
 Gap=     0.135 Goal=   None    Shift=    0.000
 RMSDP=7.69D-04 MaxDP=9.54D-02 DE=-3.89D-01 OVMax= 1.92D-01

 Cycle   3  Pass 1  IDiag  1:
 RMSU=  7.37D-04    CP:  9.68D-01  1.23D+00
 E= -4069.62308620327     Delta-E=       -0.286811098747 Rises=F Damp=F
 DIIS: error= 1.57D-02 at cycle   3 NSaved=   3.
 NSaved= 3 IEnMin= 3 EnMin= -4069.62308620327     IErMin= 2 ErrMin= 1.27D-02
 ErrMax= 1.57D-02  0.00D+00 EMaxC= 1.00D-01 BMatC= 2.04D-01 BMatP= 3.07D-01
 IDIUse=3 WtCom= 8.43D-01 WtEn= 1.57D-01
 Coeff-Com: -0.267D+00 0.653D+00 0.614D+00
 Coeff-En:   0.000D+00 0.000D+00 0.100D+01
 Coeff:     -0.225D+00 0.551D+00 0.675D+00
 Gap=     0.122 Goal=   None    Shift=    0.000
 RMSDP=5.19D-04 MaxDP=4.90D-02 DE=-2.87D-01 OVMax= 1.55D-01

 Cycle   4  Pass 1  IDiag  1:
 RMSU=  2.70D-04    CP:  9.65D-01  1.55D+00  4.98D-01
 E= -4069.76196078098     Delta-E=       -0.138874577711 Rises=F Damp=F
 DIIS: error= 7.17D-03 at cycle   4 NSaved=   4.
 NSaved= 4 IEnMin= 4 EnMin= -4069.76196078098     IErMin= 4 ErrMin= 7.17D-03
 ErrMax= 7.17D-03  0.00D+00 EMaxC= 1.00D-01 BMatC= 5.17D-02 BMatP= 2.04D-01
 IDIUse=3 WtCom= 9.28D-01 WtEn= 7.17D-02
 Coeff-Com: -0.110D+00 0.228D+00 0.410D+00 0.472D+00
 Coeff-En:   0.000D+00 0.000D+00 0.227D+00 0.773D+00
 Coeff:     -0.102D+00 0.212D+00 0.397D+00 0.493D+00
 Gap=     0.121 Goal=   None    Shift=    0.000
 RMSDP=2.08D-04 MaxDP=1.95D-02 DE=-1.39D-01 OVMax= 7.14D-02

 Cycle   5  Pass 1  IDiag  1:
 RMSU=  7.98D-05    CP:  9.64D-01  1.49D+00  6.87D-01  5.40D-01
 E= -4069.80967125787     Delta-E=       -0.047710476894 Rises=F Damp=F
 DIIS: error= 6.96D-04 at cycle   5 NSaved=   5.
 NSaved= 5 IEnMin= 5 EnMin= -4069.80967125787     IErMin= 5 ErrMin= 6.96D-04
 ErrMax= 6.96D-04  0.00D+00 EMaxC= 1.00D-01 BMatC= 1.34D-03 BMatP= 5.17D-02
 IDIUse=3 WtCom= 9.93D-01 WtEn= 6.96D-03
 Coeff-Com: -0.382D-01 0.752D-01 0.174D+00 0.256D+00 0.533D+00
 Coeff-En:   0.000D+00 0.000D+00 0.000D+00 0.000D+00 0.100D+01
 Coeff:     -0.379D-01 0.747D-01 0.172D+00 0.255D+00 0.536D+00
 Gap=     0.120 Goal=   None    Shift=    0.000
 RMSDP=4.58D-05 MaxDP=4.32D-03 DE=-4.77D-02 OVMax= 2.05D-02

 Cycle   6  Pass 1  IDiag  1:
 RMSU=  3.29D-05    CP:  9.64D-01  1.49D+00  6.77D-01  6.18D-01  7.20D-01
 E= -4069.81090715891     Delta-E=       -0.001235901032 Rises=F Damp=F
 DIIS: error= 1.92D-04 at cycle   6 NSaved=   6.
 NSaved= 6 IEnMin= 6 EnMin= -4069.81090715891     IErMin= 6 ErrMin= 1.92D-04
 ErrMax= 1.92D-04  0.00D+00 EMaxC= 1.00D-01 BMatC= 2.08D-04 BMatP= 1.34D-03
 IDIUse=3 WtCom= 9.98D-01 WtEn= 1.92D-03
 Coeff-Com:  0.182D-02-0.588D-02 0.135D-01 0.433D-01 0.306D+00 0.641D+00
 Coeff-En:   0.000D+00 0.000D+00 0.000D+00 0.000D+00 0.122D+00 0.878D+00
 Coeff:      0.182D-02-0.587D-02 0.135D-01 0.432D-01 0.306D+00 0.642D+00
 Gap=     0.121 Goal=   None    Shift=    0.000
 RMSDP=1.79D-05 MaxDP=1.27D-03 DE=-1.24D-03 OVMax= 8.37D-03

 Cycle   7  Pass 1  IDiag  1:
 RMSU=  1.15D-05    CP:  9.64D-01  1.49D+00  6.84D-01  6.16D-01  8.36D-01
                    CP:  7.33D-01
 E= -4069.81114201135     Delta-E=       -0.000234852443 Rises=F Damp=F
 DIIS: error= 1.08D-04 at cycle   7 NSaved=   7.
 NSaved= 7 IEnMin= 7 EnMin= -4069.81114201135     IErMin= 7 ErrMin= 1.08D-04
 ErrMax= 1.08D-04  0.00D+00 EMaxC= 1.00D-01 BMatC= 2.68D-05 BMatP= 2.08D-04
 IDIUse=3 WtCom= 9.99D-01 WtEn= 1.08D-03
 Coeff-Com:  0.463D-02-0.102D-01-0.884D-02-0.292D-02 0.109D+00 0.341D+00
 Coeff-Com:  0.567D+00
 Coeff-En:   0.000D+00 0.000D+00 0.000D+00 0.000D+00 0.000D+00 0.000D+00
 Coeff-En:   0.100D+01
 Coeff:      0.463D-02-0.102D-01-0.883D-02-0.292D-02 0.109D+00 0.340D+00
 Coeff:      0.568D+00
 Gap=     0.121 Goal=   None    Shift=    0.000
 RMSDP=6.87D-06 MaxDP=1.08D-03 DE=-2.35D-04 OVMax= 3.40D-03

 Cycle   8  Pass 1  IDiag  1:
 RMSU=  4.90D-06    CP:  9.64D-01  1.49D+00  6.84D-01  6.21D-01  8.36D-01
                    CP:  8.54D-01  8.12D-01
 E= -4069.81117489354     Delta-E=       -0.000032882188 Rises=F Damp=F
 DIIS: error= 5.72D-05 at cycle   8 NSaved=   8.
 NSaved= 8 IEnMin= 8 EnMin= -4069.81117489354     IErMin= 8 ErrMin= 5.72D-05
 ErrMax= 5.72D-05  0.00D+00 EMaxC= 1.00D-01 BMatC= 5.05D-06 BMatP= 2.68D-05
 IDIUse=1 WtCom= 1.00D+00 WtEn= 0.00D+00
 Coeff-Com:  0.223D-02-0.444D-02-0.789D-02-0.121D-01-0.823D-02 0.324D-01
 Coeff-Com:  0.315D+00 0.683D+00
 Coeff:      0.223D-02-0.444D-02-0.789D-02-0.121D-01-0.823D-02 0.324D-01
 Coeff:      0.315D+00 0.683D+00
 Gap=     0.121 Goal=   None    Shift=    0.000
 RMSDP=3.44D-06 MaxDP=3.94D-04 DE=-3.29D-05 OVMax= 1.15D-03

 Cycle   9  Pass 1  IDiag  1:
 RMSU=  2.00D-06    CP:  9.64D-01  1.49D+00  6.85D-01  6.22D-01  8.53D-01
                    CP:  8.82D-01  1.00D+00  9.76D-01
 E= -4069.81118307924     Delta-E=       -0.000008185700 Rises=F Damp=F
 DIIS: error= 2.09D-05 at cycle   9 NSaved=   9.
 NSaved= 9 IEnMin= 9 EnMin= -4069.81118307924     IErMin= 9 ErrMin= 2.09D-05
 ErrMax= 2.09D-05  0.00D+00 EMaxC= 1.00D-01 BMatC= 8.02D-07 BMatP= 5.05D-06
 IDIUse=1 WtCom= 1.00D+00 WtEn= 0.00D+00
 Coeff-Com:  0.490D-03-0.816D-03-0.277D-02-0.613D-02-0.198D-01-0.412D-01
 Coeff-Com:  0.919D-01 0.342D+00 0.636D+00
 Coeff:      0.490D-03-0.816D-03-0.277D-02-0.613D-02-0.198D-01-0.412D-01
 Coeff:      0.919D-01 0.342D+00 0.636D+00
 Gap=     0.121 Goal=   None    Shift=    0.000
 RMSDP=1.49D-06 MaxDP=1.44D-04 DE=-8.19D-06 OVMax= 7.96D-04

 Cycle  10  Pass 1  IDiag  1:
 RMSU=  9.88D-07    CP:  9.64D-01  1.49D+00  6.85D-01  6.23D-01  8.56D-01
                    CP:  8.93D-01  1.05D+00  1.14D+00  1.06D+00
 E= -4069.81118488429     Delta-E=       -0.000001805049 Rises=F Damp=F
 DIIS: error= 1.06D-05 at cycle  10 NSaved=  10.
 NSaved=10 IEnMin=10 EnMin= -4069.81118488429     IErMin=10 ErrMin= 1.06D-05
 ErrMax= 1.06D-05  0.00D+00 EMaxC= 1.00D-01 BMatC= 1.87D-07 BMatP= 8.02D-07
 IDIUse=1 WtCom= 1.00D+00 WtEn= 0.00D+00
 Coeff-Com: -0.432D-03 0.910D-03 0.122D-02 0.103D-02-0.364D-02-0.319D-01
 Coeff-Com: -0.432D-01-0.705D-01 0.236D+00 0.911D+00
 Coeff:     -0.432D-03 0.910D-03 0.122D-02 0.103D-02-0.364D-02-0.319D-01
 Coeff:     -0.432D-01-0.705D-01 0.236D+00 0.911D+00
 Gap=     0.121 Goal=   None    Shift=    0.000
 RMSDP=1.29D-06 MaxDP=1.25D-04 DE=-1.81D-06 OVMax= 6.67D-04

 Cycle  11  Pass 1  IDiag  1:
 RMSU=  5.65D-07    CP:  9.64D-01  1.49D+00  6.85D-01  6.23D-01  8.59D-01
                    CP:  9.03D-01  1.09D+00  1.26D+00  1.40D+00  1.36D+00
 E= -4069.81118575954     Delta-E=       -0.000000875258 Rises=F Damp=F
 DIIS: error= 4.51D-06 at cycle  11 NSaved=  11.
 NSaved=11 IEnMin=11 EnMin= -4069.81118575954     IErMin=11 ErrMin= 4.51D-06
 ErrMax= 4.51D-06  0.00D+00 EMaxC= 1.00D-01 BMatC= 7.87D-08 BMatP= 1.87D-07
 IDIUse=1 WtCom= 1.00D+00 WtEn= 0.00D+00
 Coeff-Com: -0.353D-03 0.688D-03 0.140D-02 0.215D-02 0.433D-02-0.931D-02
 Coeff-Com: -0.412D-01-0.134D+00-0.374D-01 0.506D+00 0.708D+00
 Coeff:     -0.353D-03 0.688D-03 0.140D-02 0.215D-02 0.433D-02-0.931D-02
 Coeff:     -0.412D-01-0.134D+00-0.374D-01 0.506D+00 0.708D+00
 Gap=     0.121 Goal=   None    Shift=    0.000
 RMSDP=7.37D-07 MaxDP=6.87D-05 DE=-8.75D-07 OVMax= 4.19D-04

 Cycle  12  Pass 1  IDiag  1:
 RMSU=  2.85D-07    CP:  9.64D-01  1.49D+00  6.85D-01  6.23D-01  8.60D-01
                    CP:  9.06D-01  1.11D+00  1.33D+00  1.57D+00  1.76D+00
                    CP:  1.17D+00
 E= -4069.81118606586     Delta-E=       -0.000000306321 Rises=F Damp=F
 DIIS: error= 2.95D-06 at cycle  12 NSaved=  12.
 NSaved=12 IEnMin=12 EnMin= -4069.81118606586     IErMin=12 ErrMin= 2.95D-06
 ErrMax= 2.95D-06  0.00D+00 EMaxC= 1.00D-01 BMatC= 1.92D-08 BMatP= 7.87D-08
 IDIUse=1 WtCom= 1.00D+00 WtEn= 0.00D+00
 Coeff-Com: -0.249D-04 0.310D-04 0.283D-03 0.658D-03 0.373D-02 0.343D-02
 Coeff-Com:  0.283D-03-0.418D-01-0.778D-01-0.290D-01 0.268D+00 0.872D+00
 Coeff:     -0.249D-04 0.310D-04 0.283D-03 0.658D-03 0.373D-02 0.343D-02
 Coeff:      0.283D-03-0.418D-01-0.778D-01-0.290D-01 0.268D+00 0.872D+00
 Gap=     0.121 Goal=   None    Shift=    0.000
 RMSDP=4.59D-07 MaxDP=3.28D-05 DE=-3.06D-07 OVMax= 2.66D-04

 Cycle  13  Pass 1  IDiag  1:
 RMSU=  1.76D-07    CP:  9.64D-01  1.49D+00  6.85D-01  6.23D-01  8.60D-01
                    CP:  9.06D-01  1.12D+00  1.35D+00  1.68D+00  1.98D+00
                    CP:  1.57D+00  1.22D+00
 E= -4069.81118617233     Delta-E=       -0.000000106469 Rises=F Damp=F
 DIIS: error= 1.46D-06 at cycle  13 NSaved=  13.
 NSaved=13 IEnMin=13 EnMin= -4069.81118617233     IErMin=13 ErrMin= 1.46D-06
 ErrMax= 1.46D-06  0.00D+00 EMaxC= 1.00D-01 BMatC= 1.01D-08 BMatP= 1.92D-08
 IDIUse=1 WtCom= 1.00D+00 WtEn= 0.00D+00
 Coeff-Com:  0.122D-03-0.250D-03-0.364D-03-0.437D-03 0.834D-03 0.501D-02
 Coeff-Com:  0.184D-01 0.232D-01-0.347D-01-0.236D+00-0.164D+00 0.570D+00
 Coeff-Com:  0.818D+00
 Coeff:      0.122D-03-0.250D-03-0.364D-03-0.437D-03 0.834D-03 0.501D-02
 Coeff:      0.184D-01 0.232D-01-0.347D-01-0.236D+00-0.164D+00 0.570D+00
 Coeff:      0.818D+00
 Gap=     0.121 Goal=   None    Shift=    0.000
 RMSDP=3.82D-07 MaxDP=2.67D-05 DE=-1.06D-07 OVMax= 2.38D-04

 Cycle  14  Pass 1  IDiag  1:
 RMSU=  8.22D-08    CP:  9.64D-01  1.49D+00  6.85D-01  6.23D-01  8.60D-01
                    CP:  9.06D-01  1.13D+00  1.38D+00  1.76D+00  2.19D+00
                    CP:  1.83D+00  1.75D+00  1.14D+00
 E= -4069.81118621813     Delta-E=       -0.000000045795 Rises=F Damp=F
 DIIS: error= 8.04D-07 at cycle  14 NSaved=  14.
 NSaved=14 IEnMin=14 EnMin= -4069.81118621813     IErMin=14 ErrMin= 8.04D-07
 ErrMax= 8.04D-07  0.00D+00 EMaxC= 1.00D-01 BMatC= 1.52D-09 BMatP= 1.01D-08
 IDIUse=1 WtCom= 1.00D+00 WtEn= 0.00D+00
 Coeff-Com:  0.711D-04-0.140D-03-0.261D-03-0.404D-03-0.418D-03 0.127D-02
 Coeff-Com:  0.103D-01 0.207D-01 0.482D-02-0.104D+00-0.149D+00 0.753D-01
 Coeff-Com:  0.413D+00 0.729D+00
 Coeff:      0.711D-04-0.140D-03-0.261D-03-0.404D-03-0.418D-03 0.127D-02
 Coeff:      0.103D-01 0.207D-01 0.482D-02-0.104D+00-0.149D+00 0.753D-01
 Coeff:      0.413D+00 0.729D+00
 Gap=     0.121 Goal=   None    Shift=    0.000
 RMSDP=1.20D-07 MaxDP=8.58D-06 DE=-4.58D-08 OVMax= 6.68D-05

 Cycle  15  Pass 1  IDiag  1:
 RMSU=  4.05D-08    CP:  9.64D-01  1.49D+00  6.85D-01  6.23D-01  8.60D-01
                    CP:  9.06D-01  1.13D+00  1.38D+00  1.78D+00  2.24D+00
                    CP:  1.95D+00  1.90D+00  1.38D+00  1.05D+00
 E= -4069.81118622302     Delta-E=       -0.000000004889 Rises=F Damp=F
 DIIS: error= 3.76D-07 at cycle  15 NSaved=  15.
 NSaved=15 IEnMin=15 EnMin= -4069.81118622302     IErMin=15 ErrMin= 3.76D-07
 ErrMax= 3.76D-07  0.00D+00 EMaxC= 1.00D-01 BMatC= 2.45D-10 BMatP= 1.52D-09
 IDIUse=1 WtCom= 1.00D+00 WtEn= 0.00D+00
 Coeff-Com:  0.763D-05-0.134D-04-0.413D-04-0.948D-04-0.299D-03-0.513D-03
 Coeff-Com:  0.126D-02 0.332D-02 0.895D-02-0.149D-02-0.314D-01-0.713D-01
 Coeff-Com:  0.397D-01 0.298D+00 0.754D+00
 Coeff:      0.763D-05-0.134D-04-0.413D-04-0.948D-04-0.299D-03-0.513D-03
 Coeff:      0.126D-02 0.332D-02 0.895D-02-0.149D-02-0.314D-01-0.713D-01
 Coeff:      0.397D-01 0.298D+00 0.754D+00
 Gap=     0.121 Goal=   None    Shift=    0.000
 RMSDP=3.88D-08 MaxDP=2.74D-06 DE=-4.89D-09 OVMax= 2.92D-05

 Cycle  16  Pass 1  IDiag  1:
 RMSU=  1.96D-08    CP:  9.64D-01  1.49D+00  6.85D-01  6.23D-01  8.60D-01
                    CP:  9.06D-01  1.13D+00  1.39D+00  1.78D+00  2.25D+00
                    CP:  1.97D+00  1.95D+00  1.45D+00  1.24D+00  1.14D+00
 E= -4069.81118622399     Delta-E=       -0.000000000968 Rises=F Damp=F
 DIIS: error= 2.03D-07 at cycle  16 NSaved=  16.
 NSaved=16 IEnMin=16 EnMin= -4069.81118622399     IErMin=16 ErrMin= 2.03D-07
 ErrMax= 2.03D-07  0.00D+00 EMaxC= 1.00D-01 BMatC= 9.67D-11 BMatP= 2.45D-10
 IDIUse=1 WtCom= 1.00D+00 WtEn= 0.00D+00
 Coeff-Com: -0.139D-04 0.283D-04 0.449D-04 0.488D-04-0.449D-04-0.631D-03
 Coeff-Com: -0.177D-02-0.409D-02 0.419D-02 0.245D-01 0.215D-01-0.618D-01
 Coeff-Com: -0.773D-01-0.423D-01 0.397D+00 0.741D+00
 Coeff:     -0.139D-04 0.283D-04 0.449D-04 0.488D-04-0.449D-04-0.631D-03
 Coeff:     -0.177D-02-0.409D-02 0.419D-02 0.245D-01 0.215D-01-0.618D-01
 Coeff:     -0.773D-01-0.423D-01 0.397D+00 0.741D+00
 Gap=     0.121 Goal=   None    Shift=    0.000
 RMSDP=2.47D-08 MaxDP=1.77D-06 DE=-9.68D-10 OVMax= 1.38D-05

 Cycle  17  Pass 1  IDiag  1:
 RMSU=  1.10D-08    CP:  9.64D-01  1.49D+00  6.85D-01  6.23D-01  8.60D-01
                    CP:  9.06D-01  1.13D+00  1.39D+00  1.79D+00  2.26D+00
                    CP:  1.98D+00  1.97D+00  1.50D+00  1.34D+00  1.43D+00
                    CP:  1.23D+00
 E= -4069.81118622425     Delta-E=       -0.000000000262 Rises=F Damp=F
 DIIS: error= 9.39D-08 at cycle  17 NSaved=  17.
 NSaved=17 IEnMin=17 EnMin= -4069.81118622425     IErMin=17 ErrMin= 9.39D-08
 ErrMax= 9.39D-08  0.00D+00 EMaxC= 1.00D-01 BMatC= 1.98D-11 BMatP= 9.67D-11
 IDIUse=1 WtCom= 1.00D+00 WtEn= 0.00D+00
 Coeff-Com: -0.783D-05 0.153D-04 0.303D-04 0.438D-04 0.767D-04-0.142D-03
 Coeff-Com: -0.916D-03-0.291D-02-0.288D-04 0.100D-01 0.183D-01-0.846D-02
 Coeff-Com: -0.354D-01-0.101D+00-0.170D-01 0.292D+00 0.845D+00
 Coeff:     -0.783D-05 0.153D-04 0.303D-04 0.438D-04 0.767D-04-0.142D-03
 Coeff:     -0.916D-03-0.291D-02-0.288D-04 0.100D-01 0.183D-01-0.846D-02
 Coeff:     -0.354D-01-0.101D+00-0.170D-01 0.292D+00 0.845D+00
 Gap=     0.121 Goal=   None    Shift=    0.000
 RMSDP=1.37D-08 MaxDP=1.08D-06 DE=-2.62D-10 OVMax= 9.81D-06

 Cycle  18  Pass 1  IDiag  1:
 RMSU=  5.41D-09    CP:  9.64D-01  1.49D+00  6.85D-01  6.23D-01  8.60D-01
                    CP:  9.06D-01  1.13D+00  1.39D+00  1.79D+00  2.26D+00
                    CP:  1.99D+00  1.98D+00  1.52D+00  1.40D+00  1.59D+00
                    CP:  1.62D+00  1.36D+00
 E= -4069.81118622444     Delta-E=       -0.000000000196 Rises=F Damp=F
 DIIS: error= 6.94D-08 at cycle  18 NSaved=  18.
 NSaved=18 IEnMin=18 EnMin= -4069.81118622444     IErMin=18 ErrMin= 6.94D-08
 ErrMax= 6.94D-08  0.00D+00 EMaxC= 1.00D-01 BMatC= 8.57D-12 BMatP= 1.98D-11
 IDIUse=1 WtCom= 1.00D+00 WtEn= 0.00D+00
 Coeff-Com:  0.958D-06-0.226D-05-0.485D-06 0.400D-05 0.657D-04 0.153D-03
 Coeff-Com:  0.246D-03-0.984D-04-0.121D-02-0.434D-02 0.154D-02 0.159D-01
 Coeff-Com:  0.134D-01-0.383D-01-0.148D+00-0.153D+00 0.409D+00 0.905D+00
 Coeff:      0.958D-06-0.226D-05-0.485D-06 0.400D-05 0.657D-04 0.153D-03
 Coeff:      0.246D-03-0.984D-04-0.121D-02-0.434D-02 0.154D-02 0.159D-01
 Coeff:      0.134D-01-0.383D-01-0.148D+00-0.153D+00 0.409D+00 0.905D+00
 Gap=     0.121 Goal=   None    Shift=    0.000
 RMSDP=1.12D-08 MaxDP=7.88D-07 DE=-1.96D-10 OVMax= 6.05D-06

 Cycle  19  Pass 1  IDiag  1:
 RMSU=  3.16D-09    CP:  9.64D-01  1.49D+00  6.85D-01  6.23D-01  8.60D-01
                    CP:  9.06D-01  1.13D+00  1.39D+00  1.79D+00  2.26D+00
                    CP:  1.99D+00  1.99D+00  1.53D+00  1.44D+00  1.73D+00
                    CP:  1.90D+00  1.87D+00  1.23D+00
 E= -4069.81118622420     Delta-E=        0.000000000240 Rises=F Damp=F
 DIIS: error= 2.83D-08 at cycle  19 NSaved=  19.
 NSaved=19 IEnMin=18 EnMin= -4069.81118622444     IErMin=19 ErrMin= 2.83D-08
 ErrMax= 2.83D-08  0.00D+00 EMaxC= 1.00D-01 BMatC= 2.21D-12 BMatP= 8.57D-12
 IDIUse=1 WtCom= 1.00D+00 WtEn= 0.00D+00
 Coeff-Com:  0.306D-05-0.621D-05-0.100D-04-0.119D-04 0.200D-04 0.134D-03
 Coeff-Com:  0.467D-03 0.833D-03-0.656D-03-0.623D-02-0.502D-02 0.123D-01
 Coeff-Com:  0.214D-01 0.999D-02-0.810D-01-0.196D+00-0.105D-01 0.522D+00
 Coeff-Com:  0.732D+00
 Coeff:      0.306D-05-0.621D-05-0.100D-04-0.119D-04 0.200D-04 0.134D-03
 Coeff:      0.467D-03 0.833D-03-0.656D-03-0.623D-02-0.502D-02 0.123D-01
 Coeff:      0.214D-01 0.999D-02-0.810D-01-0.196D+00-0.105D-01 0.522D+00
 Coeff:      0.732D+00
 Gap=     0.121 Goal=   None    Shift=    0.000
 RMSDP=5.57D-09 MaxDP=4.41D-07 DE= 2.40D-10 OVMax= 3.95D-06

 SCF Done:  E(RCAM-B3LYP) =  -4069.81118622     A.U. after   19 cycles
            NFock= 19  Conv=0.56D-08     -V/T= 2.0102
 KE= 4.028801950992D+03 PE=-3.948462947002D+04 EE= 1.638436170275D+04
 Leave Link  502 at Fri Sep 10 22:05:32 2021, MaxMem= 23488102400 cpu:           13659.2 elap:             593.8
 (Enter /sw/apps/gaussian-16.0/g16/l801.exe)
 DoSCS=F DFT=T ScalE2(SS,OS)=  1.000000  1.000000
 ExpMin= 3.36D-02 ExpMax= 4.95D+03 ExpMxC= 7.45D+02 IAcc=3 IRadAn=         5 AccDes= 0.00D+00
 HarFok:  IExCor=  205 AccDes= 0.00D+00 IRadAn=         5 IDoV=-2 UseB2=F ITyADJ=14
 ICtDFT= 12500011 ScaDFX=  1.000000  1.000000  1.000000  1.000000
 GSVD:  LWork=       -9588 too small for GESVD, short by       45590 words or       45590 for optimal perf.
 Largest valence mixing into a core orbital is  2.03D-04
 Largest core mixing into a valence orbital is  5.23D-05
 Range of M.O.s used for correlation:    95  1572
 NBasis=  1572 NAE=   312 NBE=   312 NFC=    94 NFV=     0
 NROrb=   1478 NOA=   218 NOB=   218 NVA=  1260 NVB=  1260
 Leave Link  801 at Fri Sep 10 22:05:33 2021, MaxMem= 23488102400 cpu:               8.8 elap:               0.4
 (Enter /sw/apps/gaussian-16.0/g16/l914.exe)
 RHF ground state
 Two-electron integrals replicated using symmetry.
 MDV= 23488102400 DFT=T DoStab=F Mixed=T DoRPA=T DoScal=F NonHer=T
 Making orbital integer symmetry assigments:
 Orbital symmetries:
       Occupied  (A) (A) (A) (A) (A) (A) (A) (A) (A) (A) (A) (A)
                 (A) (A) (A) (A) (A) (A) (A) (A) (A) (A) (A) (A)
                 (A) (A) (A) (A) (A) (A) (A) (A) (A) (A) (A) (A)
                 (A) (A) (A) (A) (A) (A) (A) (A) (A) (A) (A) (A)
                 (A) (A) (A) (A) (A) (A) (A) (A) (A) (A) (A) (A)
                 (A) (A) (A) (A) (A) (A) (A) (A) (A) (A) (A) (A)
                 (A) (A) (A) (A) (A) (A) (A) (A) (A) (A) (A) (A)
                 (A) (A) (A) (A) (A) (A) (A) (A) (A) (A) (A) (A)
                 (A) (A) (A) (A) (A) (A) (A) (A) (A) (A) (A) (A)
                 (A) (A) (A) (A) (A) (A) (A) (A) (A) (A) (A) (A)
                 (A) (A) (A) (A) (A) (A) (A) (A) (A) (A) (A) (A)
                 (A) (A) (A) (A) (A) (A) (A) (A) (A) (A) (A) (A)
                 (A) (A) (A) (A) (A) (A) (A) (A) (A) (A) (A) (A)
                 (A) (A) (A) (A) (A) (A) (A) (A) (A) (A) (A) (A)
                 (A) (A) (A) (A) (A) (A) (A) (A) (A) (A) (A) (A)
                 (A) (A) (A) (A) (A) (A) (A) (A) (A) (A) (A) (A)
                 (A) (A) (A) (A) (A) (A) (A) (A) (A) (A) (A) (A)
                 (A) (A) (A) (A) (A) (A) (A) (A) (A) (A) (A) (A)
                 (A) (A) (A) (A) (A) (A) (A) (A) (A) (A) (A) (A)
                 (A) (A) (A) (A) (A) (A) (A) (A) (A) (A) (A) (A)
                 (A) (A) (A) (A) (A) (A) (A) (A) (A) (A) (A) (A)
                 (A) (A) (A) (A) (A) (A) (A) (A) (A) (A) (A) (A)
                 (A) (A) (A) (A) (A) (A) (A) (A) (A) (A) (A) (A)
                 (A) (A) (A) (A) (A) (A) (A) (A) (A) (A) (A) (A)
                 (A) (A) (A) (A) (A) (A) (A) (A) (A) (A) (A) (A)
                 (A) (A) (A) (A) (A) (A) (A) (A) (A) (A) (A) (A)
       Virtual   (A) (A) (A) (A) (A) (A) (A) (A) (A) (A) (A) (A)
                 (A) (A) (A) (A) (A) (A) (A) (A) (A) (A) (A) (A)
                 (A) (A) (A) (A) (A) (A) (A) (A) (A) (A) (A) (A)
                 (A) (A) (A) (A) (A) (A) (A) (A) (A) (A) (A) (A)
                 (A) (A) (A) (A) (A) (A) (A) (A) (A) (A) (A) (A)
                 (A) (A) (A) (A) (A) (A) (A) (A) (A) (A) (A) (A)
                 (A) (A) (A) (A) (A) (A) (A) (A) (A) (A) (A) (A)
                 (A) (A) (A) (A) (A) (A) (A) (A) (A) (A) (A) (A)
                 (A) (A) (A) (A) (A) (A) (A) (A) (A) (A) (A) (A)
                 (A) (A) (A) (A) (A) (A) (A) (A) (A) (A) (A) (A)
                 (A) (A) (A) (A) (A) (A) (A) (A) (A) (A) (A) (A)
                 (A) (A) (A) (A) (A) (A) (A) (A) (A) (A) (A) (A)
                 (A) (A) (A) (A) (A) (A) (A) (A) (A) (A) (A) (A)
                 (A) (A) (A) (A) (A) (A) (A) (A) (A) (A) (A) (A)
                 (A) (A) (A) (A) (A) (A) (A) (A) (A) (A) (A) (A)
                 (A) (A) (A) (A) (A) (A) (A) (A) (A) (A) (A) (A)
                 (A) (A) (A) (A) (A) (A) (A) (A) (A) (A) (A) (A)
                 (A) (A) (A) (A) (A) (A) (A) (A) (A) (A) (A) (A)
                 (A) (A) (A) (A) (A) (A) (A) (A) (A) (A) (A) (A)
                 (A) (A) (A) (A) (A) (A) (A) (A) (A) (A) (A) (A)
                 (A) (A) (A) (A) (A) (A) (A) (A) (A) (A) (A) (A)
                 (A) (A) (A) (A) (A) (A) (A) (A) (A) (A) (A) (A)
                 (A) (A) (A) (A) (A) (A) (A) (A) (A) (A) (A) (A)
                 (A) (A) (A) (A) (A) (A) (A) (A) (A) (A) (A) (A)
                 (A) (A) (A) (A) (A) (A) (A) (A) (A) (A) (A) (A)
                 (A) (A) (A) (A) (A) (A) (A) (A) (A) (A) (A) (A)
                 (A) (A) (A) (A) (A) (A) (A) (A) (A) (A) (A) (A)
                 (A) (A) (A) (A) (A) (A) (A) (A) (A) (A) (A) (A)
                 (A) (A) (A) (A) (A) (A) (A) (A) (A) (A) (A) (A)
                 (A) (A) (A) (A) (A) (A) (A) (A) (A) (A) (A) (A)
                 (A) (A) (A) (A) (A) (A) (A) (A) (A) (A) (A) (A)
                 (A) (A) (A) (A) (A) (A) (A) (A) (A) (A) (A) (A)
                 (A) (A) (A) (A) (A) (A) (A) (A) (A) (A) (A) (A)
                 (A) (A) (A) (A) (A) (A) (A) (A) (A) (A) (A) (A)
                 (A) (A) (A) (A) (A) (A) (A) (A) (A) (A) (A) (A)
                 (A) (A) (A) (A) (A) (A) (A) (A) (A) (A) (A) (A)
                 (A) (A) (A) (A) (A) (A) (A) (A) (A) (A) (A) (A)
                 (A) (A) (A) (A) (A) (A) (A) (A) (A) (A) (A) (A)
                 (A) (A) (A) (A) (A) (A) (A) (A) (A) (A) (A) (A)
                 (A) (A) (A) (A) (A) (A) (A) (A) (A) (A) (A) (A)
                 (A) (A) (A) (A) (A) (A) (A) (A) (A) (A) (A) (A)
                 (A) (A) (A) (A) (A) (A) (A) (A) (A) (A) (A) (A)
                 (A) (A) (A) (A) (A) (A) (A) (A) (A) (A) (A) (A)
                 (A) (A) (A) (A) (A) (A) (A) (A) (A) (A) (A) (A)
                 (A) (A) (A) (A) (A) (A) (A) (A) (A) (A) (A) (A)
                 (A) (A) (A) (A) (A) (A) (A) (A) (A) (A) (A) (A)
                 (A) (A) (A) (A) (A) (A) (A) (A) (A) (A) (A) (A)
                 (A) (A) (A) (A) (A) (A) (A) (A) (A) (A) (A) (A)
                 (A) (A) (A) (A) (A) (A) (A) (A) (A) (A) (A) (A)
                 (A) (A) (A) (A) (A) (A) (A) (A) (A) (A) (A) (A)
                 (A) (A) (A) (A) (A) (A) (A) (A) (A) (A) (A) (A)
                 (A) (A) (A) (A) (A) (A) (A) (A) (A) (A) (A) (A)
                 (A) (A) (A) (A) (A) (A) (A) (A) (A) (A) (A) (A)
                 (A) (A) (A) (A) (A) (A) (A) (A) (A) (A) (A) (A)
                 (A) (A) (A) (A) (A) (A) (A) (A) (A) (A) (A) (A)
                 (A) (A) (A) (A) (A) (A) (A) (A) (A) (A) (A) (A)
                 (A) (A) (A) (A) (A) (A) (A) (A) (A) (A) (A) (A)
                 (A) (A) (A) (A) (A) (A) (A) (A) (A) (A) (A) (A)
                 (A) (A) (A) (A) (A) (A) (A) (A) (A) (A) (A) (A)
                 (A) (A) (A) (A) (A) (A) (A) (A) (A) (A) (A) (A)
                 (A) (A) (A) (A) (A) (A) (A) (A) (A) (A) (A) (A)
                 (A) (A) (A) (A) (A) (A) (A) (A) (A) (A) (A) (A)
                 (A) (A) (A) (A) (A) (A) (A) (A) (A) (A) (A) (A)
                 (A) (A) (A) (A) (A) (A) (A) (A) (A) (A) (A) (A)
                 (A) (A) (A) (A) (A) (A) (A) (A) (A) (A) (A) (A)
                 (A) (A) (A) (A) (A) (A) (A) (A) (A) (A) (A) (A)
                 (A) (A) (A) (A) (A) (A) (A) (A) (A) (A) (A) (A)
                 (A) (A) (A) (A) (A) (A) (A) (A) (A) (A) (A) (A)
                 (A) (A) (A) (A) (A) (A) (A) (A) (A) (A) (A) (A)
                 (A) (A) (A) (A) (A) (A) (A) (A) (A) (A) (A) (A)
                 (A) (A) (A) (A) (A) (A) (A) (A) (A) (A) (A) (A)
                 (A) (A) (A) (A) (A) (A) (A) (A) (A) (A) (A) (A)
                 (A) (A) (A) (A) (A) (A) (A) (A) (A) (A) (A) (A)
                 (A) (A) (A) (A) (A) (A) (A) (A) (A) (A) (A) (A)
                 (A) (A) (A) (A) (A) (A) (A) (A) (A) (A) (A) (A)
                 (A) (A) (A) (A) (A) (A) (A) (A) (A) (A) (A) (A)
                 (A) (A) (A) (A) (A) (A) (A) (A) (A) (A) (A) (A)
                 (A) (A) (A) (A) (A) (A) (A) (A) (A) (A) (A) (A)
                 (A) (A) (A) (A) (A) (A) (A) (A) (A) (A) (A) (A)
                 (A) (A) (A) (A) (A) (A) (A) (A) (A) (A) (A) (A)
                 (A) (A) (A) (A) (A) (A) (A) (A) (A) (A) (A) (A)
                 (A) (A) (A) (A) (A) (A) (A) (A) (A) (A) (A) (A)
                 (A) (A) (A) (A) (A) (A) (A) (A) (A) (A) (A) (A)
                 (A) (A) (A) (A) (A) (A) (A) (A) (A) (A) (A) (A)
                 (A) (A) (A) (A) (A) (A) (A) (A) (A) (A) (A) (A)
                 (A) (A) (A) (A) (A) (A) (A) (A) (A) (A) (A) (A)
                 (A) (A) (A) (A) (A) (A) (A) (A) (A) (A) (A) (A)
                 (A) (A) (A) (A) (A) (A) (A) (A) (A) (A) (A) (A)
                 (A) (A) (A) (A) (A) (A) (A) (A) (A) (A) (A) (A)
                 (A) (A) (A) (A) (A) (A) (A) (A) (A) (A) (A) (A)
                 (A) (A) (A) (A) (A) (A) (A) (A) (A) (A) (A) (A)
                 (A) (A) (A) (A) (A) (A) (A) (A) (A) (A) (A) (A)
                 (A) (A) (A) (A) (A) (A) (A) (A) (A) (A) (A) (A)
                 (A) (A) (A) (A) (A) (A) (A) (A) (A) (A) (A) (A)
                 (A) (A) (A) (A) (A) (A) (A) (A) (A) (A) (A) (A)
                 (A) (A) (A) (A) (A) (A) (A) (A) (A) (A) (A) (A)
                 (A) (A) (A) (A) (A) (A) (A) (A) (A) (A) (A) (A)
                 (A) (A) (A) (A) (A) (A) (A) (A) (A) (A) (A) (A)
                 (A) (A) (A) (A) (A) (A) (A) (A) (A) (A) (A) (A)
                 (A) (A) (A) (A) (A) (A) (A) (A) (A) (A) (A) (A)
                 (A) (A) (A) (A) (A) (A) (A) (A) (A) (A) (A) (A)
                 (A) (A) (A) (A) (A) (A) (A) (A) (A) (A) (A) (A)
                 (A) (A) (A) (A) (A) (A) (A) (A) (A) (A) (A) (A)
                 (A) (A) (A) (A) (A) (A) (A) (A) (A) (A) (A) (A)
                 (A) (A) (A) (A) (A) (A) (A) (A) (A) (A) (A) (A)
    20 initial guesses have been made.
 Convergence on wavefunction:    0.001000000000000
 Davidson Disk Diagonalization:  ConvIn= 1.00D-03 SkipCon=T Conv= 1.00D-03.
 Max sub-space:  2000 roots to seek:    20 dimension of matrix:       549360
 Iteration     1 Dimension    20 NMult     0 NNew     20
 CISAX will form    20 AO SS matrices at one time.
 NMat=    20 NSing=    20 JSym2X= 0.
 FoFJK:  IHMeth= 1 ICntrl=       0 DoSepK=T KAlg= 0 I1Cent=           0 FoldK=F
 IRaf=         1 NMat=      40 IRICut=       1 DoRegI=T DoRafI=F ISym2E= 0 IDoP0=3 IntGTp=3.
 FoFCou: FMM=T IPFlag=           0 FMFlag=      100000 FMFlg1=        2001
         NFxFlg=           0 DoJE=F BraDBF=F KetDBF=F FulRan=T
         wScrn=  0.000000 ICntrl=       500 IOpCl=  0 I1Cent=           0 NGrid=           0
         NMat0=   20 NMatS0=     20 NMatT0=    0 NMatD0=   20 NMtDS0=    0 NMtDT0=    0
 Symmetry not used in FoFCou.
 FMM levels:  10  Number of levels for PrismC:   9
 New state      2 was old state      7
 New state      3 was old state      4
 New state      4 was old state      6
 New state      5 was old state      2
 Excitation Energies [eV] at current iteration:
 Root      1 :     2.489279473070683
 Root      2 :     2.608303866561438
 Root      3 :     2.613558748421094
 Root      4 :     2.621970117665303
 Root      5 :     2.639440435420526
 Root      6 :     2.735266370875670
 Root      7 :     3.271279702583621
 Root      8 :     3.410804395406066
 Root      9 :     3.617306394779940
 Root     10 :     3.664728246382203
 Root     11 :     3.741641577686016
 Root     12 :     3.760258999011770
 Root     13 :     4.265494244132506
 Root     14 :     4.342100081145837
 Root     15 :     4.392853619548635
 Root     16 :     4.551843761190416
 Root     17 :     4.647083920327929
 Root     18 :     4.793066197615414
 Root     19 :     4.829023720510997
 Root     20 :     4.872125240152620
 Iteration     2 Dimension    30 NMult    20 NNew     10
 CISAX will form    10 AO SS matrices at one time.
 NMat=    10 NSing=    10 JSym2X= 0.
 New state      1 was old state      5
 Root      1 not converged, maximum delta is    0.213731428306618
 Root      2 not converged, maximum delta is    0.271781093699648
 New state      3 was old state      4
 Root      3 not converged, maximum delta is    0.248294765862152
 New state      4 was old state      1
 Root      4 not converged, maximum delta is    0.004124776024781
 New state      5 was old state      3
 Root      5 not converged, maximum delta is    0.010104040510061
 Excitation Energies [eV] at current iteration:
 Root      1 :     1.780499238411688   Change is   -0.858941197008838
 Root      2 :     2.231350998028178   Change is   -0.376952868533260
 Root      3 :     2.238575958207807   Change is   -0.383394159457495
 Root      4 :     2.488731467727202   Change is   -0.000548005343480
 Root      5 :     2.612563481733999   Change is   -0.000995266687095
 Iteration     3 Dimension    40 NMult    30 NNew     10
 CISAX will form    10 AO SS matrices at one time.
 NMat=    10 NSing=    10 JSym2X= 0.
 Root      1 not converged, maximum delta is    0.053583215101276
 New state      2 was old state      3
 Root      2 not converged, maximum delta is    0.071639245966068
 New state      3 was old state      2
 Root      3 not converged, maximum delta is    0.052833319693038
 Root      4 has converged.
 No map to state      5
 Excitation Energies [eV] at current iteration:
 Root      1 :     1.675129766273860   Change is   -0.105369472137828
 Root      2 :     2.177363778759779   Change is   -0.061212179448028
 Root      3 :     2.191495961270290   Change is   -0.039855036757889
 Root      4 :     2.488727904470976   Change is   -0.000003563256226
 Root      5 :     2.578285117165874
 Iteration     4 Dimension    48 NMult    40 NNew      8
 CISAX will form     8 AO SS matrices at one time.
 NMat=     8 NSing=     8 JSym2X= 0.
 Root      1 not converged, maximum delta is    0.010266468290843
 New state      2 was old state      5
 Root      2 not converged, maximum delta is    0.162117089508346
 Root      3 not converged, maximum delta is    0.117504150897886
 New state      4 was old state      2
 Root      4 not converged, maximum delta is    0.158016260299296
 New state      5 was old state      4
 Root      5 has converged.
 Excitation Energies [eV] at current iteration:
 Root      1 :     1.658532555165916   Change is   -0.016597211107944
 Root      2 :     1.791212838483589   Change is   -0.787072278682286
 Root      3 :     2.184024616498125   Change is   -0.007471344772165
 Root      4 :     2.198495586039349   Change is    0.021131807279570
 Root      5 :     2.488727913959302   Change is    0.000000009488326
 Iteration     5 Dimension    56 NMult    48 NNew      8
 CISAX will form     8 AO SS matrices at one time.
 NMat=     8 NSing=     8 JSym2X= 0.
 Root      1 not converged, maximum delta is    0.001534623977122
 Root      2 not converged, maximum delta is    0.035780733691254
 Root      3 not converged, maximum delta is    0.018562544538963
 Root      4 not converged, maximum delta is    0.017809326736117
 Root      5 has converged.
 Excitation Energies [eV] at current iteration:
 Root      1 :     1.656813626918687   Change is   -0.001718928247229
 Root      2 :     1.710737615243831   Change is   -0.080475223239758
 Root      3 :     2.183137325132359   Change is   -0.000887291365767
 Root      4 :     2.195215106043647   Change is   -0.003280479995703
 Root      5 :     2.488727913506963   Change is   -0.000000000452340
 Iteration     6 Dimension    64 NMult    56 NNew      8
 CISAX will form     8 AO SS matrices at one time.
 NMat=     8 NSing=     8 JSym2X= 0.
 Root      1 has converged.
 Root      2 not converged, maximum delta is    0.006631713176196
 Root      3 not converged, maximum delta is    0.001987689809104
 Root      4 not converged, maximum delta is    0.002027429976698
 Root      5 has converged.
 Excitation Energies [eV] at current iteration:
 Root      1 :     1.656568900011034   Change is   -0.000244726907653
 Root      2 :     1.698990153095913   Change is   -0.011747462147918
 Root      3 :     2.183007374197543   Change is   -0.000129950934815
 Root      4 :     2.194852410799141   Change is   -0.000362695244506
 Root      5 :     2.488727913374043   Change is   -0.000000000132920
 Iteration     7 Dimension    70 NMult    64 NNew      6
 CISAX will form     6 AO SS matrices at one time.
 NMat=     6 NSing=     6 JSym2X= 0.
 Root      1 has converged.
 Root      2 not converged, maximum delta is    0.001370565986488
 Root      3 has converged.
 Root      4 has converged.
[...]
 Alpha virt. eigenvalues --    1.83658   1.83753   1.84010   1.84015   1.84319
 Alpha virt. eigenvalues --    1.84453   1.84646   1.84808   1.84915   1.85093
 Alpha virt. eigenvalues --    1.85237   1.85276   1.85446   1.85476   1.85614
 Alpha virt. eigenvalues --    1.85866   1.86033   1.86350   1.86500   1.86553
 Alpha virt. eigenvalues --    1.86772   1.86783   1.86934   1.87051   1.87171
 Alpha virt. eigenvalues --    1.87437   1.87617   1.87697   1.87863   1.87910
 Alpha virt. eigenvalues --    1.88034   1.88138   1.88302   1.88528   1.88692
 Alpha virt. eigenvalues --    1.88815   1.89064   1.89117   1.89197   1.89621
 Alpha virt. eigenvalues --    1.89743   1.89780   1.90002   1.90121   1.90324
 Alpha virt. eigenvalues --    1.90760   1.91030   1.91348   1.91446   1.91546
 Alpha virt. eigenvalues --    1.91727   1.92156   1.92320   1.92601   1.92773
 Alpha virt. eigenvalues --    1.92984   1.93284   1.93333   1.93625   1.94271
 Alpha virt. eigenvalues --    1.94423   1.94687   1.94943   1.95467   1.95706
 Alpha virt. eigenvalues --    1.95727   1.95947   1.95997   1.96140   1.96165
 Alpha virt. eigenvalues --    1.96324   1.96594   1.96615   1.96889   1.97051
 Alpha virt. eigenvalues --    1.97450   1.97664   1.97831   1.97944   1.98170
 Alpha virt. eigenvalues --    1.98307   1.98493   1.98704   1.99142   1.99199
 Alpha virt. eigenvalues --    1.99819   2.00053   2.00658   2.00857   2.01008
 Alpha virt. eigenvalues --    2.01241   2.01474   2.01624   2.01668   2.01734
 Alpha virt. eigenvalues --    2.01741   2.01958   2.02781   2.02841   2.03227
 Alpha virt. eigenvalues --    2.03257   2.03415   2.03493   2.03515   2.03670
 Alpha virt. eigenvalues --    2.04040   2.04158   2.04954   2.05101   2.05513
 Alpha virt. eigenvalues --    2.05752   2.06085   2.06421   2.06928   2.07197
 Alpha virt. eigenvalues --    2.07200   2.07501   2.08584   2.08658   2.08977
 Alpha virt. eigenvalues --    2.09136   2.09588   2.09748   2.10768   2.11149
 Alpha virt. eigenvalues --    2.11189   2.11520   2.11543   2.11662   2.11722
 Alpha virt. eigenvalues --    2.11991   2.12458   2.12590   2.12802   2.12834
 Alpha virt. eigenvalues --    2.12922   2.13011   2.13742   2.13751   2.14139
 Alpha virt. eigenvalues --    2.14381   2.15335   2.15528   2.15933   2.16222
 Alpha virt. eigenvalues --    2.16519   2.16715   2.16774   2.17340   2.17416
 Alpha virt. eigenvalues --    2.17707   2.17770   2.18067   2.18074   2.18132
 Alpha virt. eigenvalues --    2.18343   2.18820   2.18872   2.19382   2.19638
 Alpha virt. eigenvalues --    2.19949   2.20026   2.20229   2.20385   2.20559
 Alpha virt. eigenvalues --    2.21139   2.21281   2.21675   2.21770   2.21910
 Alpha virt. eigenvalues --    2.22026   2.22673   2.22825   2.23319   2.23483
 Alpha virt. eigenvalues --    2.24394   2.24540   2.24944   2.25113   2.26309
 Alpha virt. eigenvalues --    2.26585   2.26778   2.27114   2.27138   2.27349
 Alpha virt. eigenvalues --    2.28129   2.28441   2.29262   2.29560   2.29734
 Alpha virt. eigenvalues --    2.30024   2.30443   2.30761   2.30959   2.31079
 Alpha virt. eigenvalues --    2.31211   2.31328   2.32116   2.32360   2.33135
 Alpha virt. eigenvalues --    2.33364   2.33458   2.33617   2.34127   2.34259
 Alpha virt. eigenvalues --    2.35392   2.35459   2.35789   2.36036   2.36344
 Alpha virt. eigenvalues --    2.36468   2.36559   2.36626   2.37656   2.37801
 Alpha virt. eigenvalues --    2.38252   2.38490   2.38838   2.38892   2.39608
 Alpha virt. eigenvalues --    2.39800   2.40170   2.40380   2.40475   2.40949
 Alpha virt. eigenvalues --    2.41245   2.41322   2.41670   2.41807   2.42058
 Alpha virt. eigenvalues --    2.42284   2.42923   2.42927   2.43203   2.43583
 Alpha virt. eigenvalues --    2.44084   2.44181   2.44728   2.44899   2.44931
 Alpha virt. eigenvalues --    2.45124   2.45554   2.45703   2.46303   2.46403
 Alpha virt. eigenvalues --    2.46486   2.46637   2.46806   2.46948   2.47266
 Alpha virt. eigenvalues --    2.47514   2.47712   2.48007   2.49302   2.49491
 Alpha virt. eigenvalues --    2.49994   2.50049   2.50530   2.50553   2.51116
 Alpha virt. eigenvalues --    2.51408   2.51720   2.51876   2.52423   2.52500
 Alpha virt. eigenvalues --    2.52800   2.53279   2.53912   2.54073   2.54146
 Alpha virt. eigenvalues --    2.54383   2.54795   2.54952   2.55522   2.55800
 Alpha virt. eigenvalues --    2.57859   2.58191   2.58636   2.59014   2.60215
 Alpha virt. eigenvalues --    2.60446   2.60591   2.61027   2.61702   2.61929
 Alpha virt. eigenvalues --    2.62516   2.62539   2.62956   2.63254   2.63922
 Alpha virt. eigenvalues --    2.64228   2.64327   2.64519   2.65070   2.65211
 Alpha virt. eigenvalues --    2.65765   2.65961   2.66762   2.66894   2.66917
 Alpha virt. eigenvalues --    2.67159   2.67901   2.68090   2.68848   2.68919
 Alpha virt. eigenvalues --    2.69029   2.69160   2.69372   2.69697   2.69984
 Alpha virt. eigenvalues --    2.70244   2.70977   2.71175   2.72006   2.72067
 Alpha virt. eigenvalues --    2.72621   2.72665   2.72855   2.72871   2.73258
 Alpha virt. eigenvalues --    2.73380   2.73587   2.73611   2.74520   2.74638
 Alpha virt. eigenvalues --    2.74980   2.75177   2.76585   2.76629   2.77215
 Alpha virt. eigenvalues --    2.77250   2.77450   2.77704   2.78186   2.78386
 Alpha virt. eigenvalues --    2.78737   2.78800   2.79132   2.79265   2.80348
 Alpha virt. eigenvalues --    2.80349   2.80608   2.80815   2.81147   2.81293
 Alpha virt. eigenvalues --    2.81938   2.82140   2.82341   2.82454   2.83752
 Alpha virt. eigenvalues --    2.83789   2.83941   2.84070   2.84551   2.84642
 Alpha virt. eigenvalues --    2.84879   2.84998   2.85659   2.85782   2.86769
 Alpha virt. eigenvalues --    2.87005   2.87295   2.87641   2.88150   2.88331
 Alpha virt. eigenvalues --    2.88510   2.88737   2.88938   2.88992   2.90475
 Alpha virt. eigenvalues --    2.90747   2.91169   2.91181   2.93146   2.93429
 Alpha virt. eigenvalues --    2.93868   2.94191   2.94546   2.94656   2.95336
 Alpha virt. eigenvalues --    2.95551   2.95969   2.96231   2.96433   2.96457
 Alpha virt. eigenvalues --    2.96995   2.97198   2.97811   2.98105   2.98199
 Alpha virt. eigenvalues --    2.98375   2.98464   2.98622   2.98672   2.98884
 Alpha virt. eigenvalues --    2.98922   2.99048   2.99560   2.99866   3.00039
 Alpha virt. eigenvalues --    3.00144   3.00225   3.00417   3.00462   3.01085
 Alpha virt. eigenvalues --    3.01970   3.01984   3.02028   3.02204   3.02766
 Alpha virt. eigenvalues --    3.02922   3.02970   3.03313   3.03390   3.03801
 Alpha virt. eigenvalues --    3.04148   3.04156   3.04473   3.04513   3.04530
 Alpha virt. eigenvalues --    3.04872   3.05286   3.05434   3.06098   3.06253
 Alpha virt. eigenvalues --    3.06777   3.07023   3.07991   3.08127   3.09374
 Alpha virt. eigenvalues --    3.09436   3.09663   3.10422   3.10500   3.10831
 Alpha virt. eigenvalues --    3.11323   3.11558   3.11931   3.11964   3.12147
 Alpha virt. eigenvalues --    3.12396   3.13268   3.13629   3.13746   3.13779
 Alpha virt. eigenvalues --    3.14137   3.14621   3.15895   3.16050   3.17282
 Alpha virt. eigenvalues --    3.17658   3.17959   3.18073   3.19127   3.19134
 Alpha virt. eigenvalues --    3.22361   3.22740   3.23960   3.24584   3.24723
 Alpha virt. eigenvalues --    3.25361   3.26514   3.26779   3.27516   3.27628
 Alpha virt. eigenvalues --    3.29164   3.29372   3.31501   3.31536   3.33295
 Alpha virt. eigenvalues --    3.33420   3.40403   3.40702   3.42817   3.42908
 Alpha virt. eigenvalues --    3.48691   3.48852   3.50021   3.50391   3.50947
 Alpha virt. eigenvalues --    3.51477   3.56558   3.57120   3.59100   3.59445
 Alpha virt. eigenvalues --    3.62651   3.62859   3.66189   3.66196   3.67251
 Alpha virt. eigenvalues --    3.67690   3.73339   3.74191   3.76122   3.76859
          Condensed to atoms (all electrons):
 Mulliken charges:
               1
     1  Mg   0.838534
     2  C   -0.002926
     3  C   -0.094626
     4  C   -0.045814
     5  C   -0.064063
     6  N   -0.256670
     7  C   -0.052677
     8  C   -0.013831
     9  C   -0.086896
    10  C    0.046035
    11  C    0.104814
    12  C    0.053672
    13  C   -0.071415
    14  H    0.035313
    15  N   -0.433102
    16  C    0.168165
    17  C   -0.177538
    18  C   -0.004085
    19  C    0.148615
    20  C    0.110284
    21  C    0.012308
    22  O   -0.249478
    23  C    0.062571
    24  N   -0.341102
    25  C    0.041112
    26  C   -0.028206
    27  C   -0.023953
    28  C    0.074842
    29  C    0.076132
    30  C    0.035146
    31  C   -0.004426
    32  N   -0.310616
    33  C    0.080558
    34  C   -0.169383
    35  C    0.008888
    36  C    0.083140
    37  C    0.127100
    38  C    0.046877
    39  O   -0.187013
    40  C   -0.005645
    41  C    0.213268
    42  O   -0.256430
    43  O   -0.305074
    44  C    0.157135
    45  H   -0.017815
    46  H   -0.016825
    47  H   -0.041400
    48  H    0.001261
    49  H   -0.004578
    50  H    0.025679
    51  H    0.016556
    52  H    0.016534
    53  H    0.010171
    54  H    0.044131
    55  H    0.018424
    56  H    0.017261
    57  H    0.005544
    58  H    0.026888
    59  H    0.038684
    60  H    0.037259
    61  H    0.035858
    62  H    0.030927
    63  H    0.016443
    64  H    0.009651
    65  H    0.023248
    66  H    0.012637
    67  H    0.004815
    68  H    0.006343
    69  H    0.004800
    70  H    0.008734
    71  H    0.016914
    72  H    0.029429
    73  H    0.048648
    74  H    0.008909
    75  H    0.046149
    76  H    0.035157
    77  H    0.043484
    78  H    0.045421
    79  H    0.055120
    80  Mg   0.837674
    81  C   -0.016221
    82  C   -0.088087
    83  C   -0.045629
    84  C   -0.065024
    85  N   -0.254425
    86  C   -0.049278
    87  C   -0.015107
    88  C   -0.090671
    89  C    0.045710
    90  C    0.114027
    91  C    0.062647
    92  C   -0.077417
    93  H    0.034407
    94  N   -0.423354
    95  C    0.162601
    96  C   -0.175324
    97  C   -0.008180
    98  C    0.151816
    99  C    0.099696
   100  C    0.015216
   101  O   -0.253559
   102  C    0.061375
   103  N   -0.349998
   104  C    0.037323
   105  C   -0.019710
   106  C   -0.034739
   107  C    0.089251
   108  C    0.073753
   109  C    0.034793
   110  C   -0.007570
   111  N   -0.324479
   112  C    0.078965
   113  C   -0.162553
   114  C    0.003788
   115  C    0.095896
   116  C    0.131047
   117  C    0.044608
   118  O   -0.185783
   119  C   -0.000055
   120  C    0.210953
   121  O   -0.251755
   122  O   -0.304942
   123  C    0.152272
   124  H   -0.020886
   125  H   -0.015953
   126  H   -0.040695
   127  H    0.000217
   128  H   -0.005285
   129  H    0.025324
   130  H    0.013887
   131  H    0.014169
   132  H    0.013592
   133  H    0.037785
   134  H    0.020480
   135  H    0.018942
   136  H    0.007993
   137  H    0.025149
   138  H    0.039210
   139  H    0.037770
   140  H    0.035929
   141  H    0.033642
   142  H    0.014000
   143  H    0.012039
   144  H    0.024743
   145  H    0.012233
   146  H    0.005297
   147  H    0.005825
   148  H    0.003404
   149  H    0.010781
   150  H    0.017626
   151  H    0.030346
   152  H    0.045997
   153  H    0.007407
   154  H    0.049908
   155  H    0.039404
   156  H    0.043911
   157  H    0.048645
   158  H    0.053206
 Sum of Mulliken charges =  -0.00000
 Mulliken charges with hydrogens summed into heavy atoms:
               1
     1  Mg   0.838534
     2  C   -0.002926
     3  C   -0.112442
     4  C   -0.062640
     5  C   -0.105464
     6  N   -0.256670
     7  C   -0.052677
     8  C   -0.012571
     9  C   -0.091473
    10  C    0.046035
    11  C    0.163583
    12  C    0.107974
    13  C   -0.000417
    15  N   -0.433102
    16  C    0.168165
    17  C   -0.177538
    18  C   -0.004085
    19  C    0.148615
    20  C    0.181399
    21  C    0.012308
    22  O   -0.249478
    23  C    0.166615
    24  N   -0.341102
    25  C    0.041112
    26  C   -0.011763
    27  C   -0.014302
    28  C    0.074842
    29  C    0.116833
    30  C    0.046290
    31  C    0.050651
    32  N   -0.310616
    33  C    0.080558
    34  C   -0.169383
    35  C    0.008888
    36  C    0.083140
    37  C    0.230807
    38  C    0.046877
    39  O   -0.187013
    40  C    0.029511
    41  C    0.213268
    42  O   -0.256430
    43  O   -0.305074
    44  C    0.301160
    80  Mg   0.837674
    81  C   -0.016221
    82  C   -0.108972
    83  C   -0.061582
    84  C   -0.105719
    85  N   -0.254425
    86  C   -0.049278
    87  C   -0.014890
    88  C   -0.095956
    89  C    0.045710
    90  C    0.167405
    91  C    0.114023
    92  C   -0.003588
    94  N   -0.423354
    95  C    0.162601
    96  C   -0.175324
    97  C   -0.008180
    98  C    0.151816
    99  C    0.172048
   100  C    0.015216
   101  O   -0.253559
   102  C    0.168717
   103  N   -0.349998
   104  C    0.037323
   105  C   -0.005710
   106  C   -0.022700
   107  C    0.089251
   108  C    0.116025
   109  C    0.044022
   110  C    0.051184
   111  N   -0.324479
   112  C    0.078965
   113  C   -0.162553
   114  C    0.003788
   115  C    0.095896
   116  C    0.234359
   117  C    0.044608
   118  O   -0.185783
   119  C    0.039349
   120  C    0.210953
   121  O   -0.251755
   122  O   -0.304942
   123  C    0.298034
 Electronic spatial extent (au):  <R**2>=         113352.5185
 Charge=             -0.0000 electrons
 Dipole moment (field-independent basis, Debye):
    X=             -2.9049    Y=             -2.2779    Z=             -7.7864  Tot=              8.6172
 Quadrupole moment (field-independent basis, Debye-Ang):
   XX=           -508.6366   YY=           -548.8270   ZZ=           -450.9116
   XY=              5.2633   XZ=             -2.3608   YZ=            -50.4310
 Traceless Quadrupole moment (field-independent basis, Debye-Ang):
   XX=             -5.8448   YY=            -46.0353   ZZ=             51.8801
   XY=              5.2633   XZ=             -2.3608   YZ=            -50.4310
 Octapole moment (field-independent basis, Debye-Ang**2):
  XXX=           -240.8559  YYY=            436.1029  ZZZ=            -87.8067  XYY=            -24.0907
  XXY=              5.8987  XXZ=           -271.6127  XZZ=              5.7777  YZZ=           -221.0818
  YYZ=           -183.3402  XYZ=             25.3218
 Hexadecapole moment (field-independent basis, Debye-Ang**3):
 XXXX=         -88811.2174 YYYY=         -41692.5850 ZZZZ=         -23517.2549 XXXY=            235.1418
 XXXZ=           -440.4074 YYYX=            773.4163 YYYZ=          -1564.0063 ZZZX=            117.4575
 ZZZY=            214.7787 XXYY=         -23138.5070 XXZZ=         -16921.3809 YYZZ=         -10901.6051
 XXYZ=           -977.5925 YYXZ=           -103.9371 ZZXY=            -46.6238
 N-N= 1.500165463005D+04 E-N=-3.948462945867D+04  KE= 4.028801950992D+03
 Leave Link  601 at Fri Sep 10 22:30:17 2021, MaxMem= 23488102400 cpu:              17.9 elap:               0.9
 (Enter /sw/apps/gaussian-16.0/g16/l9999.exe)
 1\1\GINC-BP1-COMPUTE00089\SP\RCAM-B3LYP TD-FC\def2SVP\C68H72Mg2N8O8\OF
 15641\10-Sep-2021\0\\#p cam-b3lyp/Def2SVP td=(nstates=5)\\TDDFT excite
 d states in gaussian\\0,1\Mg,0,0.,0.,0.\C,0,-0.217,-2.218,2.801\C,0,-1
 .255,2.442,2.026\C,0,-0.245,1.85,-2.564\C,0,0.146,-2.824,-2.037\N,0,-0
 .617,-0.009,2.126\C,0,-0.594,-0.908,3.105\C,0,-0.936,-0.309,4.502\C,0,
 -1.773,0.964,4.032\C,0,-1.155,1.168,2.66\C,0,-3.263,0.685,3.863\C,0,0.
 345,0.11,5.299\C,0,0.124,0.397,6.787\H,0,1.168,0.033,7.733\N,0,-0.185,
 1.961,-0.152\C,0,-0.703,2.8,0.777\C,0,-0.62,4.156,0.193\C,0,-0.187,4.0
 15,-1.225\C,0,-0.214,2.583,-1.38\C,0,-0.887,5.406,0.974\C,0,0.181,5.01
 3,-2.277\O,0,0.303,4.69,-3.508\C,0,0.31,6.414,-1.837\N,0,-0.265,-0.413
 ,-2.029\C,0,-0.279,0.569,-2.937\C,0,-0.196,0.024,-4.332\C,0,0.124,-1.5
 33,-4.18\C,0,0.086,-1.632,-2.635\C,0,-1.451,0.205,-5.197\C,0,1.373,-2.
 07,-4.923\C,0,2.626,-1.49,-4.306\N,0,0.15,-2.144,0.303\C,0,0.173,-3.13
 6,-0.688\C,0,0.173,-4.438,0.004\C,0,0.133,-4.111,1.358\C,0,0.083,-2.69
 5,1.502\C,0,0.149,-5.715,-0.623\C,0,0.096,-4.629,2.716\O,0,0.208,-5.74
 7,3.221\C,0,-0.255,-3.428,3.701\C,0,0.717,-3.482,4.848\O,0,1.931,-3.25
 5,4.669\O,0,0.038,-3.556,6.003\C,0,0.943,-3.583,7.183\H,0,-1.859,3.22,
 2.497\H,0,-0.218,2.453,-3.474\H,0,0.276,-3.747,-2.605\H,0,-1.554,-0.94
 9,5.132\H,0,-1.585,1.831,4.665\H,0,-3.484,-0.377,3.969\H,0,-3.511,1.02
 7,2.858\H,0,-3.852,1.301,4.543\H,0,0.669,1.096,4.966\H,0,1.13,-0.639,5
 .189\H,0,-0.844,0.026,7.125\H,0,0.062,1.477,6.921\H,0,-1.344,5.186,1.9
 38\H,0,-1.651,5.963,0.432\H,0,0.007,6.02,1.084\H,0,-0.635,6.744,-1.405
 \H,0,0.665,6.97,-2.704\H,0,1.048,6.466,-1.036\H,0,0.608,0.501,-4.891\H
 ,0,-0.692,-2.156,-4.547\H,0,-1.267,0.74,-6.129\H,0,-2.204,0.714,-4.596
 \H,0,-1.967,-0.72,-5.453\H,0,1.356,-1.759,-5.967\H,0,1.452,-3.157,-4.9
 02\H,0,2.714,-0.522,-4.798\H,0,3.487,-2.121,-4.529\H,0,2.495,-1.303,-3
 .24\H,0,0.867,-6.333,-0.084\H,0,0.404,-5.642,-1.68\H,0,-0.891,-5.999,-
 0.463\H,0,-1.283,-3.581,4.028\H,0,0.698,-4.478,7.755\H,0,0.833,-2.619,
 7.68\H,0,2.,-3.754,6.976\Mg,0,10.51802,0.94932,0.80563\C,0,9.6756,-1.1
 9842,3.55457\C,0,9.85444,3.59021,2.85988\C,0,10.81523,2.85561,-1.71332
 \C,0,10.00687,-1.77884,-1.30187\N,0,9.85856,1.05449,2.91426\C,0,9.6299
 8,0.17396,3.87695\C,0,9.41487,0.79822,5.28179\C,0,8.92877,2.25873,4.82
 406\C,0,9.61518,2.3289,3.46149\C,0,7.42752,2.35308,4.60803\C,0,10.7432
 ,0.86955,6.11394\C,0,10.55486,1.17969,7.60058\H,0,11.45546,0.55024,8.5
 6245\N,0,10.83531,2.90584,0.70605\C,0,10.52439,3.82918,1.63989\C,0,10.
 94236,5.12391,1.08028\C,0,11.37444,4.90894,-0.32748\C,0,10.99721,3.521
 7,-0.51009\C,0,10.98209,6.3863,1.89159\C,0,12.00895,5.80735,-1.34555\O
 ,0,12.08018,5.47875,-2.58239\C,0,12.46042,7.12269,-0.86854\N,0,10.2205
 ,0.6521,-1.23041\C,0,10.47217,1.63194,-2.11614\C,0,10.45211,1.10614,-3
 .53159\C,0,10.37329,-0.48553,-3.39756\C,0,10.26678,-0.60516,-1.86142\C
 ,0,9.30188,1.60033,-4.40859\C,0,11.46903,-1.3085,-4.12883\C,0,12.81387
 ,-1.06674,-3.48204\N,0,10.12765,-1.16048,1.05941\C,0,9.92133,-2.11815,
 0.04235\C,0,9.57817,-3.39207,0.70702\C,0,9.58616,-3.07908,2.07466\C,0,
 9.89154,-1.70219,2.24906\C,0,9.26371,-4.61493,0.04985\C,0,9.39528,-3.5
 9791,3.40998\O,0,9.20491,-4.71512,3.88888\C,0,9.32043,-2.37426,4.42166
 \C,0,10.21853,-2.68084,5.58868\O,0,11.44909,-2.77039,5.4328\O,0,9.5047
 ,-2.60251,6.72653\C,0,10.35465,-2.8878,7.91313\H,0,9.4552,4.48091,3.34
 583\H,0,11.01525,3.44307,-2.61241\H,0,9.92925,-2.69907,-1.88482\H,0,8.
 64681,0.32071,5.87831\H,0,9.31554,3.02921,5.48598\H,0,6.94815,1.38841,
 4.68386\H,0,7.29842,2.76268,3.61475\H,0,6.99314,3.08525,5.29475\H,0,11
 .31066,1.75759,5.80717\H,0,11.31165,-0.03325,6.00234\H,0,9.51137,1.062
 11,7.91721\H,0,10.76664,2.23922,7.76357\H,0,10.45098,6.26909,2.84426\H
 ,0,10.39867,7.13568,1.34577\H,0,11.99696,6.76364,2.0341\H,0,11.61622,7
 .66328,-0.44716\H,0,12.96653,7.58396,-1.7188\H,0,13.17651,6.97217,-0.0
 5296\H,0,11.36282,1.37004,-4.05511\H,0,9.43414,-0.88312,-3.80959\H,0,9
 .64283,2.09877,-5.33562\H,0,8.68768,2.26954,-3.82084\H,0,8.58802,0.835
 03,-4.70847\H,0,11.56023,-0.97945,-5.16689\H,0,11.26948,-2.37475,-4.14
 534\H,0,13.14889,-0.13608,-3.94971\H,0,13.49638,-1.88581,-3.69965\H,0,
 12.70541,-0.87556,-2.40811\H,0,9.78427,-5.39842,0.58432\H,0,9.55244,-4
 .5884,-0.99882\H,0,8.17789,-4.63072,0.17637\H,0,8.27866,-2.26317,4.724
 9\H,0,9.87518,-3.70525,8.46046\H,0,10.46258,-1.92239,8.44236\H,0,11.34
 04,-3.30164,7.73572\\Version=ES64L-G16RevA.03\State=1-A\HF=-4069.81118
 62\RMSD=5.570e-09\PG=C01 [X(C68H72Mg2N8O8)]\\@


 WISDOM IS KNOWING WHAT TO DO,
 SKILL IS KNOWING HOW TO DO IT,
 AND VIRTUE IS NOT DOING IT.
 Job cpu time:       0 days 13 hours 41 minutes 42.7 seconds.
 Elapsed time:       0 days  0 hours 34 minutes 52.9 seconds.
 File lengths (MBytes):  RWF=  13225 Int=      0 D2E=      0 Chk=    574 Scr=      1
 Normal termination of Gaussian 16 at Fri Sep 10 22:30:18 2021.
