 Entering Gaussian System, Link 0=g16
 Initial command:
 /sw/apps/gaussian-16.0/g16/l1.exe "/tmp/Gau-141867.inp" -scrdir="/tmp/"
 Entering Link 1 = /sw/apps/gaussian-16.0/g16/l1.exe PID=    141868.
  
 Copyright (c) 1988,1990,1992,1993,1995,1998,2003,2009,2016,
            Gaussian, Inc.  All Rights Reserved.
  
 This is part of the Gaussian(R) 16 program.  It is based on
 the Gaussian(R) 09 system (copyright 2009, Gaussian, Inc.),
 the Gaussian(R) 03 system (copyright 2003, Gaussian, Inc.),
 the Gaussian(R) 98 system (copyright 1998, Gaussian, Inc.),
 the Gaussian(R) 94 system (copyright 1995, Gaussian, Inc.),
 the Gaussian 92(TM) system (copyright 1992, Gaussian, Inc.),
 the Gaussian 90(TM) system (copyright 1990, Gaussian, Inc.),
 the Gaussian 88(TM) system (copyright 1988, Gaussian, Inc.),
 the Gaussian 86(TM) system (copyright 1986, Carnegie Mellon
 University), and the Gaussian 82(TM) system (copyright 1983,
 Carnegie Mellon University). Gaussian is a federally registered
 trademark of Gaussian, Inc.
  
 This software contains proprietary and confidential information,
 including trade secrets, belonging to Gaussian, Inc.
  
 This software is provided under written license and may be
 used, copied, transmitted, or stored only in accord with that
 written license.
  
 The following legend is applicable only to US Government
 contracts under FAR:
  
                    RESTRICTED RIGHTS LEGEND
  
 Use, reproduction and disclosure by the US Government is
 subject to restrictions as set forth in subparagraphs (a)
 and (c) of the Commercial Computer Software - Restricted
 Rights clause in FAR 52.227-19.
  
 Gaussian, Inc.
 340 Quinnipiac St., Bldg. 40, Wallingford CT 06492
  
  
 ---------------------------------------------------------------
 Warning -- This program may not be used in any manner that
 competes with the business of Gaussian, Inc. or will provide
 assistance to any competitor of Gaussian, Inc.  The licensee
 of this program is prohibited from giving any competitor of
 Gaussian, Inc. access to this program.  By using this program,
 the user acknowledges that Gaussian, Inc. is engaged in the
 business of creating and licensing software in the field of
 computational chemistry and represents and warrants to the
 licensee that it is not a competitor of Gaussian, Inc. and that
 it will not use this program in any manner prohibited above.
 ---------------------------------------------------------------
  

 Cite this work as:
 Gaussian 16, Revision A.03,
 M. J. Frisch, G. W. Trucks, H. B. Schlegel, G. E. Scuseria, 
 M. A. Robb, J. R. Cheeseman, G. Scalmani, V. Barone, 
 G. A. Petersson, H. Nakatsuji, X. Li, M. Caricato, A. V. Marenich, 
 J. Bloino, B. G. Janesko, R. Gomperts, B. Mennucci, H. P. Hratchian, 
 J. V. Ortiz, A. F. Izmaylov, J. L. Sonnenberg, D. Williams-Young, 
 F. Ding, F. Lipparini, F. Egidi, J. Goings, B. Peng, A. Petrone, 
 T. Henderson, D. Ranasinghe, V. G. Zakrzewski, J. Gao, N. Rega, 
 G. Zheng, W. Liang, M. Hada, M. Ehara, K. Toyota, R. Fukuda, 
 J. Hasegawa, M. Ishida, T. Nakajima, Y. Honda, O. Kitao, H. Nakai, 
 T. Vreven, K. Throssell, J. A. Montgomery, Jr., J. E. Peralta, 
 F. Ogliaro, M. J. Bearpark, J. J. Heyd, E. N. Brothers, K. N. Kudin, 
 V. N. Staroverov, T. A. Keith, R. Kobayashi, J. Normand, 
 K. Raghavachari, A. P. Rendell, J. C. Burant, S. S. Iyengar, 
 J. Tomasi, M. Cossi, J. M. Millam, M. Klene, C. Adamo, R. Cammi, 
 J. W. Ochterski, R. L. Martin, K. Morokuma, O. Farkas, 
 J. B. Foresman, and D. J. Fox, Gaussian, Inc., Wallingford CT, 2016.
 
 ******************************************
 Gaussian 16:  ES64L-G16RevA.03 25-Dec-2016
                12-Sep-2021 
 ******************************************
 %nproc=24
 Will use up to   24 processors via shared memory.
 %mem=175gb
 -----------------------------------
 #p cam-b3lyp/Def2SVP td=(nstates=5)
 -----------------------------------
 1/38=1,172=1/1;
 2/12=2,17=6,18=5,40=1/2;
 3/5=43,7=101,11=9,25=1,30=1,74=-40/1,2,3,8;
 4//1;
 5/5=2,38=5/2;
 8/6=1,10=1,108=5/1;
 9/41=5,42=1,70=2/14;
 6/7=2,8=2,9=2,10=2/1;
 99/5=1,9=1/99;
 Leave Link    1 at Sun Sep 12 03:16:52 2021, MaxMem= 23488102400 cpu:               0.6 elap:               0.0
 (Enter /sw/apps/gaussian-16.0/g16/l101.exe)
 --------------------------------
 TDDFT excited states in gaussian
 --------------------------------
 Symbolic Z-matrix:
 Charge =  0 Multiplicity = 1
 Mg                    0.        0.        0. 
 C                    -0.217    -2.218     2.801 
 C                    -1.255     2.442     2.026 
 C                    -0.245     1.85     -2.564 
 C                     0.146    -2.824    -2.037 
 N                    -0.617    -0.009     2.126 
 C                    -0.594    -0.908     3.105 
 C                    -0.936    -0.309     4.502 
 C                    -1.773     0.964     4.032 
 C                    -1.155     1.168     2.66 
 C                    -3.263     0.685     3.863 
 C                     0.345     0.11      5.299 
 C                     0.124     0.397     6.787 
 H                     1.168     0.033     7.733 
 N                    -0.185     1.961    -0.152 
 C                    -0.703     2.8       0.777 
 C                    -0.62      4.156     0.193 
 C                    -0.187     4.015    -1.225 
 C                    -0.214     2.583    -1.38 
 C                    -0.887     5.406     0.974 
 C                     0.181     5.013    -2.277 
 O                     0.303     4.69     -3.508 
 C                     0.31      6.414    -1.837 
 N                    -0.265    -0.413    -2.029 
 C                    -0.279     0.569    -2.937 
 C                    -0.196     0.024    -4.332 
 C                     0.124    -1.533    -4.18 
 C                     0.086    -1.632    -2.635 
 C                    -1.451     0.205    -5.197 
 C                     1.373    -2.07     -4.923 
 C                     2.626    -1.49     -4.306 
 N                     0.15     -2.144     0.303 
 C                     0.173    -3.136    -0.688 
 C                     0.173    -4.438     0.004 
 C                     0.133    -4.111     1.358 
 C                     0.083    -2.695     1.502 
 C                     0.149    -5.715    -0.623 
 C                     0.096    -4.629     2.716 
 O                     0.208    -5.747     3.221 
 C                    -0.255    -3.428     3.701 
 C                     0.717    -3.482     4.848 
 O                     1.931    -3.255     4.669 
 O                     0.038    -3.556     6.003 
 C                     0.943    -3.583     7.183 
 H                    -1.859     3.22      2.497 
 H                    -0.218     2.453    -3.474 
 H                     0.276    -3.747    -2.605 
 H                    -1.554    -0.949     5.132 
 H                    -1.585     1.831     4.665 
 H                    -3.484    -0.377     3.969 
 H                    -3.511     1.027     2.858 
 H                    -3.852     1.301     4.543 
 H                     0.669     1.096     4.966 
 H                     1.13     -0.639     5.189 
 H                    -0.844     0.026     7.125 
 H                     0.062     1.477     6.921 
 H                    -1.344     5.186     1.938 
 H                    -1.651     5.963     0.432 
 H                     0.007     6.02      1.084 
 H                    -0.635     6.744    -1.405 
 H                     0.665     6.97     -2.704 
 H                     1.048     6.466    -1.036 
 H                     0.608     0.501    -4.891 
 H                    -0.692    -2.156    -4.547 
 H                    -1.267     0.74     -6.129 
 H                    -2.204     0.714    -4.596 
 H                    -1.967    -0.72     -5.453 
 H                     1.356    -1.759    -5.967 
 H                     1.452    -3.157    -4.902 
 H                     2.714    -0.522    -4.798 
 H                     3.487    -2.121    -4.529 
 H                     2.495    -1.303    -3.24 
 H                     0.867    -6.333    -0.084 
 H                     0.404    -5.642    -1.68 
 H                    -0.891    -5.999    -0.463 
 H                    -1.283    -3.581     4.028 
 H                     0.698    -4.478     7.755 
 H                     0.833    -2.619     7.68 
 H                     2.       -3.754     6.976 
 Mg                    15.77291   1.41647   1.20539 
 C                     13.45024   0.34825   3.72396 
 C                     16.90892   3.72538   3.44437 
 C                     17.51464   2.67643  -1.12835 
 C                     13.72967  -0.14751  -1.1451 
 N                     15.17724   1.87912   3.28467 
 C                     14.32446   1.36617   4.15873 
 C                     14.46838   1.92294   5.60055 
 C                     15.15294   3.33193   5.24701 
 C                     15.82097   2.95458   3.92639 
 C                     14.14722   4.43812   4.97457 
 C                     15.40645   1.03639   6.49278 
 C                     15.34819   1.34405   7.99068 
 H                     15.48619   0.23813   8.93427 
 N                     17.34677   2.62277   1.28521 
 C                     17.66739   3.47742   2.27922 
 C                     18.90404   4.14845   1.84962 
 C                     19.19705   3.74005   0.44888 
 C                     17.99331   2.99729   0.13359 
 C                     19.72138   5.01244   2.76554 
 C                     20.36156   3.98902  -0.46114 
 O                     20.29986   3.74047  -1.71703 
 C                     21.54375   4.6193    0.14439 
 N                     15.53663   1.46915  -0.85949 
 C                     16.46701   2.03596  -1.64756 
 C                     16.22054   1.7125   -3.10187 
 C                     15.06555   0.60636  -3.10621 
 C                     14.76905   0.54413  -1.59175 
 C                     15.80151   2.88892  -3.98325 
 C                     15.3648  -0.72067  -3.85595 
 C                     16.44772  -1.48893  -3.13314 
 N                     14.02765   0.14415   1.26295 
 C                     13.31573  -0.37763   0.16068 
 C                     12.13813  -1.08824   0.69988 
 C                     12.23496  -0.90956   2.08812 
 C                     13.38022  -0.12471   2.39123 
 C                     11.1346  -1.73973  -0.07121 
 C                     11.6229  -1.19746   3.3653 
 O                     10.67973  -1.89329   3.73944 
 C                     12.3127  -0.28925   4.47243 
 C                     12.65077  -1.16543   5.64739 
 O                     13.49665  -2.07051   5.53821 
 O                     12.08428  -0.6543    6.75563 
 C                     12.40017  -1.48257   7.94979 
 H                     17.18328   4.6311    3.98593 
 H                     18.14107   2.99414  -1.96508 
 H                     13.0978  -0.74418  -1.80647 
 H                     13.53184   2.08469   6.12064 
 H                     15.89993   3.60507   5.9878 
 H                     13.13449   4.06424   4.94778 
 H                     14.42192   4.8556    4.01473 
 H                     14.26996   5.24649   5.70108 
 H                     16.45152   1.30141   6.28704 
 H                     15.2131  -0.00612   6.33022 
 H                     14.48238   1.96517   8.25053 
 H                     16.21006   1.96303   8.25158 
 H                     19.17068   5.26193   3.6809 
 H                     19.85809   5.97455   2.26004 
 H                     20.70251   4.58514   2.98343 
 H                     21.26216   5.5783    0.57275 
 H                     22.30185   4.63363  -0.64107 
 H                     21.88767   3.99253   0.97474 
 H                     17.10835   1.29536  -3.5611 
 H                     14.14971   0.97546  -3.59082 
 H                     16.47199   3.04608  -4.84918 
 H                     15.75967   3.77816  -3.3684 
 H                     14.78827   2.83272  -4.37744 
 H                     15.74843  -0.51155  -4.85757 
 H                     14.4941  -1.35756  -3.97106 
 H                     17.3676  -1.02828  -3.50556 
 H                     16.40375  -2.5456   -3.38919 
 H                     16.40324  -1.30949  -2.05264 
 H                     10.93001  -2.6831    0.41736 
 H                     11.45615  -1.88563  -1.10034 
 H                     10.32453  -1.00962   0.00614 
 H                     11.60533   0.4972    4.73833 
 H                     11.44556  -1.76433   8.40478 
 H                     13.08967  -0.8722    8.56281 
 H                     12.84911  -2.45441   7.78115 
 
 ITRead=  0  0  0  0  0  0  0  0  0  0  0  0  0  0  0  0  0  0  0  0
 ITRead=  0  0  0  0  0  0  0  0  0  0  0  0  0  0  0  0  0  0  0  0
 ITRead=  0  0  0  0  0  0  0  0  0  0  0  0  0  0  0  0  0  0  0  0
 ITRead=  0  0  0  0  0  0  0  0  0  0  0  0  0  0  0  0  0  0  0  0
 ITRead=  0  0  0  0  0  0  0  0  0  0  0  0  0  0  0  0  0  0  0  0
 ITRead=  0  0  0  0  0  0  0  0  0  0  0  0  0  0  0  0  0  0  0  0
 ITRead=  0  0  0  0  0  0  0  0  0  0  0  0  0  0  0  0  0  0  0  0
 ITRead=  0  0  0  0  0  0  0  0  0  0  0  0  0  0  0  0  0  0
 MicOpt= -1 -1 -1 -1 -1 -1 -1 -1 -1 -1 -1 -1 -1 -1 -1 -1 -1 -1 -1 -1
 MicOpt= -1 -1 -1 -1 -1 -1 -1 -1 -1 -1 -1 -1 -1 -1 -1 -1 -1 -1 -1 -1
 MicOpt= -1 -1 -1 -1 -1 -1 -1 -1 -1 -1 -1 -1 -1 -1 -1 -1 -1 -1 -1 -1
 MicOpt= -1 -1 -1 -1 -1 -1 -1 -1 -1 -1 -1 -1 -1 -1 -1 -1 -1 -1 -1 -1
 MicOpt= -1 -1 -1 -1 -1 -1 -1 -1 -1 -1 -1 -1 -1 -1 -1 -1 -1 -1 -1 -1
 MicOpt= -1 -1 -1 -1 -1 -1 -1 -1 -1 -1 -1 -1 -1 -1 -1 -1 -1 -1 -1 -1
 MicOpt= -1 -1 -1 -1 -1 -1 -1 -1 -1 -1 -1 -1 -1 -1 -1 -1 -1 -1 -1 -1
 MicOpt= -1 -1 -1 -1 -1 -1 -1 -1 -1 -1 -1 -1 -1 -1 -1 -1 -1 -1
 NAtoms=    158 NQM=      158 NQMF=       0 NMMI=      0 NMMIF=      0
                NMic=       0 NMicF=      0.
                    Isotopes and Nuclear Properties:
 (Nuclear quadrupole moments (NQMom) in fm**2, nuclear magnetic moments (NMagM)
  in nuclear magnetons)

  Atom         1           2           3           4           5           6           7           8           9          10
 IAtWgt=          24          12          12          12          12          14          12          12          12          12
 AtmWgt=  23.9850450  12.0000000  12.0000000  12.0000000  12.0000000  14.0030740  12.0000000  12.0000000  12.0000000  12.0000000
 NucSpn=           0           0           0           0           0           2           0           0           0           0
 AtZEff=  -0.0000000  -0.0000000  -0.0000000  -0.0000000  -0.0000000  -0.0000000  -0.0000000  -0.0000000  -0.0000000  -0.0000000
 NQMom=    0.0000000   0.0000000   0.0000000   0.0000000   0.0000000   2.0440000   0.0000000   0.0000000   0.0000000   0.0000000
 NMagM=    0.0000000   0.0000000   0.0000000   0.0000000   0.0000000   0.4037610   0.0000000   0.0000000   0.0000000   0.0000000
 AtZNuc=  12.0000000   6.0000000   6.0000000   6.0000000   6.0000000   7.0000000   6.0000000   6.0000000   6.0000000   6.0000000

  Atom        11          12          13          14          15          16          17          18          19          20
 IAtWgt=          12          12          12           1          14          12          12          12          12          12
 AtmWgt=  12.0000000  12.0000000  12.0000000   1.0078250  14.0030740  12.0000000  12.0000000  12.0000000  12.0000000  12.0000000
 NucSpn=           0           0           0           1           2           0           0           0           0           0
 AtZEff=  -0.0000000  -0.0000000  -0.0000000  -0.0000000  -0.0000000  -0.0000000  -0.0000000  -0.0000000  -0.0000000  -0.0000000
 NQMom=    0.0000000   0.0000000   0.0000000   0.0000000   2.0440000   0.0000000   0.0000000   0.0000000   0.0000000   0.0000000
 NMagM=    0.0000000   0.0000000   0.0000000   2.7928460   0.4037610   0.0000000   0.0000000   0.0000000   0.0000000   0.0000000
 AtZNuc=   6.0000000   6.0000000   6.0000000   1.0000000   7.0000000   6.0000000   6.0000000   6.0000000   6.0000000   6.0000000

  Atom        21          22          23          24          25          26          27          28          29          30
 IAtWgt=          12          16          12          14          12          12          12          12          12          12
 AtmWgt=  12.0000000  15.9949146  12.0000000  14.0030740  12.0000000  12.0000000  12.0000000  12.0000000  12.0000000  12.0000000
 NucSpn=           0           0           0           2           0           0           0           0           0           0
 AtZEff=  -0.0000000  -0.0000000  -0.0000000  -0.0000000  -0.0000000  -0.0000000  -0.0000000  -0.0000000  -0.0000000  -0.0000000
 NQMom=    0.0000000   0.0000000   0.0000000   2.0440000   0.0000000   0.0000000   0.0000000   0.0000000   0.0000000   0.0000000
 NMagM=    0.0000000   0.0000000   0.0000000   0.4037610   0.0000000   0.0000000   0.0000000   0.0000000   0.0000000   0.0000000
 AtZNuc=   6.0000000   8.0000000   6.0000000   7.0000000   6.0000000   6.0000000   6.0000000   6.0000000   6.0000000   6.0000000

  Atom        31          32          33          34          35          36          37          38          39          40
 IAtWgt=          12          14          12          12          12          12          12          12          16          12
 AtmWgt=  12.0000000  14.0030740  12.0000000  12.0000000  12.0000000  12.0000000  12.0000000  12.0000000  15.9949146  12.0000000
 NucSpn=           0           2           0           0           0           0           0           0           0           0
 AtZEff=  -0.0000000  -0.0000000  -0.0000000  -0.0000000  -0.0000000  -0.0000000  -0.0000000  -0.0000000  -0.0000000  -0.0000000
 NQMom=    0.0000000   2.0440000   0.0000000   0.0000000   0.0000000   0.0000000   0.0000000   0.0000000   0.0000000   0.0000000
 NMagM=    0.0000000   0.4037610   0.0000000   0.0000000   0.0000000   0.0000000   0.0000000   0.0000000   0.0000000   0.0000000
 AtZNuc=   6.0000000   7.0000000   6.0000000   6.0000000   6.0000000   6.0000000   6.0000000   6.0000000   8.0000000   6.0000000

  Atom        41          42          43          44          45          46          47          48          49          50
 IAtWgt=          12          16          16          12           1           1           1           1           1           1
 AtmWgt=  12.0000000  15.9949146  15.9949146  12.0000000   1.0078250   1.0078250   1.0078250   1.0078250   1.0078250   1.0078250
 NucSpn=           0           0           0           0           1           1           1           1           1           1
 AtZEff=  -0.0000000  -0.0000000  -0.0000000  -0.0000000  -0.0000000  -0.0000000  -0.0000000  -0.0000000  -0.0000000  -0.0000000
 NQMom=    0.0000000   0.0000000   0.0000000   0.0000000   0.0000000   0.0000000   0.0000000   0.0000000   0.0000000   0.0000000
 NMagM=    0.0000000   0.0000000   0.0000000   0.0000000   2.7928460   2.7928460   2.7928460   2.7928460   2.7928460   2.7928460
 AtZNuc=   6.0000000   8.0000000   8.0000000   6.0000000   1.0000000   1.0000000   1.0000000   1.0000000   1.0000000   1.0000000

  Atom        51          52          53          54          55          56          57          58          59          60
 IAtWgt=           1           1           1           1           1           1           1           1           1           1
 AtmWgt=   1.0078250   1.0078250   1.0078250   1.0078250   1.0078250   1.0078250   1.0078250   1.0078250   1.0078250   1.0078250
 NucSpn=           1           1           1           1           1           1           1           1           1           1
 AtZEff=  -0.0000000  -0.0000000  -0.0000000  -0.0000000  -0.0000000  -0.0000000  -0.0000000  -0.0000000  -0.0000000  -0.0000000
 NQMom=    0.0000000   0.0000000   0.0000000   0.0000000   0.0000000   0.0000000   0.0000000   0.0000000   0.0000000   0.0000000
 NMagM=    2.7928460   2.7928460   2.7928460   2.7928460   2.7928460   2.7928460   2.7928460   2.7928460   2.7928460   2.7928460
 AtZNuc=   1.0000000   1.0000000   1.0000000   1.0000000   1.0000000   1.0000000   1.0000000   1.0000000   1.0000000   1.0000000

  Atom        61          62          63          64          65          66          67          68          69          70
 IAtWgt=           1           1           1           1           1           1           1           1           1           1
 AtmWgt=   1.0078250   1.0078250   1.0078250   1.0078250   1.0078250   1.0078250   1.0078250   1.0078250   1.0078250   1.0078250
 NucSpn=           1           1           1           1           1           1           1           1           1           1
 AtZEff=  -0.0000000  -0.0000000  -0.0000000  -0.0000000  -0.0000000  -0.0000000  -0.0000000  -0.0000000  -0.0000000  -0.0000000
 NQMom=    0.0000000   0.0000000   0.0000000   0.0000000   0.0000000   0.0000000   0.0000000   0.0000000   0.0000000   0.0000000
 NMagM=    2.7928460   2.7928460   2.7928460   2.7928460   2.7928460   2.7928460   2.7928460   2.7928460   2.7928460   2.7928460
 AtZNuc=   1.0000000   1.0000000   1.0000000   1.0000000   1.0000000   1.0000000   1.0000000   1.0000000   1.0000000   1.0000000

  Atom        71          72          73          74          75          76          77          78          79          80
 IAtWgt=           1           1           1           1           1           1           1           1           1          24
 AtmWgt=   1.0078250   1.0078250   1.0078250   1.0078250   1.0078250   1.0078250   1.0078250   1.0078250   1.0078250  23.9850450
 NucSpn=           1           1           1           1           1           1           1           1           1           0
 AtZEff=  -0.0000000  -0.0000000  -0.0000000  -0.0000000  -0.0000000  -0.0000000  -0.0000000  -0.0000000  -0.0000000  -0.0000000
 NQMom=    0.0000000   0.0000000   0.0000000   0.0000000   0.0000000   0.0000000   0.0000000   0.0000000   0.0000000   0.0000000
 NMagM=    2.7928460   2.7928460   2.7928460   2.7928460   2.7928460   2.7928460   2.7928460   2.7928460   2.7928460   0.0000000
 AtZNuc=   1.0000000   1.0000000   1.0000000   1.0000000   1.0000000   1.0000000   1.0000000   1.0000000   1.0000000  12.0000000

  Atom        81          82          83          84          85          86          87          88          89          90
 IAtWgt=          12          12          12          12          14          12          12          12          12          12
 AtmWgt=  12.0000000  12.0000000  12.0000000  12.0000000  14.0030740  12.0000000  12.0000000  12.0000000  12.0000000  12.0000000
 NucSpn=           0           0           0           0           2           0           0           0           0           0
 AtZEff=  -0.0000000  -0.0000000  -0.0000000  -0.0000000  -0.0000000  -0.0000000  -0.0000000  -0.0000000  -0.0000000  -0.0000000
 NQMom=    0.0000000   0.0000000   0.0000000   0.0000000   2.0440000   0.0000000   0.0000000   0.0000000   0.0000000   0.0000000
 NMagM=    0.0000000   0.0000000   0.0000000   0.0000000   0.4037610   0.0000000   0.0000000   0.0000000   0.0000000   0.0000000
 AtZNuc=   6.0000000   6.0000000   6.0000000   6.0000000   7.0000000   6.0000000   6.0000000   6.0000000   6.0000000   6.0000000

  Atom        91          92          93          94          95          96          97          98          99         100
 IAtWgt=          12          12           1          14          12          12          12          12          12          12
 AtmWgt=  12.0000000  12.0000000   1.0078250  14.0030740  12.0000000  12.0000000  12.0000000  12.0000000  12.0000000  12.0000000
 NucSpn=           0           0           1           2           0           0           0           0           0           0
 AtZEff=  -0.0000000  -0.0000000  -0.0000000  -0.0000000  -0.0000000  -0.0000000  -0.0000000  -0.0000000  -0.0000000  -0.0000000
 NQMom=    0.0000000   0.0000000   0.0000000   2.0440000   0.0000000   0.0000000   0.0000000   0.0000000   0.0000000   0.0000000
 NMagM=    0.0000000   0.0000000   2.7928460   0.4037610   0.0000000   0.0000000   0.0000000   0.0000000   0.0000000   0.0000000
 AtZNuc=   6.0000000   6.0000000   1.0000000   7.0000000   6.0000000   6.0000000   6.0000000   6.0000000   6.0000000   6.0000000

  Atom       101         102         103         104         105         106         107         108         109         110
 IAtWgt=          16          12          14          12          12          12          12          12          12          12
 AtmWgt=  15.9949146  12.0000000  14.0030740  12.0000000  12.0000000  12.0000000  12.0000000  12.0000000  12.0000000  12.0000000
 NucSpn=           0           0           2           0           0           0           0           0           0           0
 AtZEff=  -0.0000000  -0.0000000  -0.0000000  -0.0000000  -0.0000000  -0.0000000  -0.0000000  -0.0000000  -0.0000000  -0.0000000
 NQMom=    0.0000000   0.0000000   2.0440000   0.0000000   0.0000000   0.0000000   0.0000000   0.0000000   0.0000000   0.0000000
 NMagM=    0.0000000   0.0000000   0.4037610   0.0000000   0.0000000   0.0000000   0.0000000   0.0000000   0.0000000   0.0000000
 AtZNuc=   8.0000000   6.0000000   7.0000000   6.0000000   6.0000000   6.0000000   6.0000000   6.0000000   6.0000000   6.0000000

  Atom       111         112         113         114         115         116         117         118         119         120
 IAtWgt=          14          12          12          12          12          12          12          16          12          12
 AtmWgt=  14.0030740  12.0000000  12.0000000  12.0000000  12.0000000  12.0000000  12.0000000  15.9949146  12.0000000  12.0000000
 NucSpn=           2           0           0           0           0           0           0           0           0           0
 AtZEff=  -0.0000000  -0.0000000  -0.0000000  -0.0000000  -0.0000000  -0.0000000  -0.0000000  -0.0000000  -0.0000000  -0.0000000
 NQMom=    2.0440000   0.0000000   0.0000000   0.0000000   0.0000000   0.0000000   0.0000000   0.0000000   0.0000000   0.0000000
 NMagM=    0.4037610   0.0000000   0.0000000   0.0000000   0.0000000   0.0000000   0.0000000   0.0000000   0.0000000   0.0000000
 AtZNuc=   7.0000000   6.0000000   6.0000000   6.0000000   6.0000000   6.0000000   6.0000000   8.0000000   6.0000000   6.0000000

  Atom       121         122         123         124         125         126         127         128         129         130
 IAtWgt=          16          16          12           1           1           1           1           1           1           1
 AtmWgt=  15.9949146  15.9949146  12.0000000   1.0078250   1.0078250   1.0078250   1.0078250   1.0078250   1.0078250   1.0078250
 NucSpn=           0           0           0           1           1           1           1           1           1           1
 AtZEff=  -0.0000000  -0.0000000  -0.0000000  -0.0000000  -0.0000000  -0.0000000  -0.0000000  -0.0000000  -0.0000000  -0.0000000
 NQMom=    0.0000000   0.0000000   0.0000000   0.0000000   0.0000000   0.0000000   0.0000000   0.0000000   0.0000000   0.0000000
 NMagM=    0.0000000   0.0000000   0.0000000   2.7928460   2.7928460   2.7928460   2.7928460   2.7928460   2.7928460   2.7928460
 AtZNuc=   8.0000000   8.0000000   6.0000000   1.0000000   1.0000000   1.0000000   1.0000000   1.0000000   1.0000000   1.0000000

  Atom       131         132         133         134         135         136         137         138         139         140
 IAtWgt=           1           1           1           1           1           1           1           1           1           1
 AtmWgt=   1.0078250   1.0078250   1.0078250   1.0078250   1.0078250   1.0078250   1.0078250   1.0078250   1.0078250   1.0078250
 NucSpn=           1           1           1           1           1           1           1           1           1           1
 AtZEff=  -0.0000000  -0.0000000  -0.0000000  -0.0000000  -0.0000000  -0.0000000  -0.0000000  -0.0000000  -0.0000000  -0.0000000
 NQMom=    0.0000000   0.0000000   0.0000000   0.0000000   0.0000000   0.0000000   0.0000000   0.0000000   0.0000000   0.0000000
 NMagM=    2.7928460   2.7928460   2.7928460   2.7928460   2.7928460   2.7928460   2.7928460   2.7928460   2.7928460   2.7928460
 AtZNuc=   1.0000000   1.0000000   1.0000000   1.0000000   1.0000000   1.0000000   1.0000000   1.0000000   1.0000000   1.0000000

  Atom       141         142         143         144         145         146         147         148         149         150
 IAtWgt=           1           1           1           1           1           1           1           1           1           1
 AtmWgt=   1.0078250   1.0078250   1.0078250   1.0078250   1.0078250   1.0078250   1.0078250   1.0078250   1.0078250   1.0078250
 NucSpn=           1           1           1           1           1           1           1           1           1           1
 AtZEff=  -0.0000000  -0.0000000  -0.0000000  -0.0000000  -0.0000000  -0.0000000  -0.0000000  -0.0000000  -0.0000000  -0.0000000
 NQMom=    0.0000000   0.0000000   0.0000000   0.0000000   0.0000000   0.0000000   0.0000000   0.0000000   0.0000000   0.0000000
 NMagM=    2.7928460   2.7928460   2.7928460   2.7928460   2.7928460   2.7928460   2.7928460   2.7928460   2.7928460   2.7928460
 AtZNuc=   1.0000000   1.0000000   1.0000000   1.0000000   1.0000000   1.0000000   1.0000000   1.0000000   1.0000000   1.0000000

  Atom       151         152         153         154         155         156         157         158
 IAtWgt=           1           1           1           1           1           1           1           1
 AtmWgt=   1.0078250   1.0078250   1.0078250   1.0078250   1.0078250   1.0078250   1.0078250   1.0078250
 NucSpn=           1           1           1           1           1           1           1           1
 AtZEff=  -0.0000000  -0.0000000  -0.0000000  -0.0000000  -0.0000000  -0.0000000  -0.0000000  -0.0000000
 NQMom=    0.0000000   0.0000000   0.0000000   0.0000000   0.0000000   0.0000000   0.0000000   0.0000000
 NMagM=    2.7928460   2.7928460   2.7928460   2.7928460   2.7928460   2.7928460   2.7928460   2.7928460
 AtZNuc=   1.0000000   1.0000000   1.0000000   1.0000000   1.0000000   1.0000000   1.0000000   1.0000000
 Leave Link  101 at Sun Sep 12 03:16:52 2021, MaxMem= 23488102400 cpu:               3.8 elap:               0.2
 (Enter /sw/apps/gaussian-16.0/g16/l202.exe)
 Stoichiometry    C68H72Mg2N8O8
 Framework group  C1[X(C68H72Mg2N8O8)]
 Deg. of freedom   468
 Full point group                 C1      NOp   1
 Largest Abelian subgroup         C1      NOp   1
 Largest concise Abelian subgroup C1      NOp   1
                         Standard orientation:                         
 ---------------------------------------------------------------------
 Center     Atomic      Atomic             Coordinates (Angstroms)
 Number     Number       Type             X           Y           Z
 ---------------------------------------------------------------------
      1         12           0        7.639960   -1.047772    0.357138
      2          6           0        8.040930    2.269069   -0.927385
      3          6           0        8.443172    0.204409    3.427962
      4          6           0        7.737147   -4.031159    1.427922
      5          6           0        7.987986   -2.198052   -2.914160
      6          7           0        8.154587    0.995113    1.037157
      7          6           0        8.214503    2.189267    0.456143
      8          6           0        8.404328    3.359406    1.467140
      9          6           0        9.073263    2.549670    2.666662
     10          6           0        8.495722    1.174189    2.383072
     11          6           0       10.593885    2.472114    2.576122
     12          6           0        7.041980    3.999932    1.897795
     13          6           0        7.152162    5.345625    2.620515
     14          1           0        6.128211    6.352487    2.385779
     15          7           0        7.552294   -1.750538    2.201396
     16          6           0        7.903504   -1.096720    3.334736
     17          6           0        7.656106   -2.042514    4.444217
     18          6           0        7.312430   -3.363347    3.848078
     19          6           0        7.548850   -3.104614    2.450744
     20          6           0        7.707677   -1.648330    5.888415
     21          6           0        6.855172   -4.656984    4.444357
     22          8           0        6.836283   -5.745712    3.774365
     23          6           0        6.509297   -4.634021    5.877146
     24          7           0        8.052838   -2.874621   -0.564702
     25          6           0        7.969043   -4.024342    0.113608
     26          6           0        8.027607   -5.207030   -0.807131
     27          6           0        7.924597   -4.619620   -2.288377
     28          6           0        7.905847   -3.110137   -1.942862
     29          6           0        9.282425   -6.083469   -0.691816
     30          6           0        6.799302   -5.183515   -3.191788
     31          6           0        5.450051   -4.761245   -2.654843
     32          7           0        7.781261   -0.148080   -1.613047
     33          6           0        7.944026   -0.816125   -2.835298
     34          6           0        8.096787    0.217568   -3.875593
     35          6           0        8.028420    1.422797   -3.179465
     36          6           0        7.870910    1.158333   -1.788946
     37          6           0        8.329792   -0.020298   -5.258909
     38          6           0        8.076494    2.872155   -3.283895
     39          8           0        8.100972    3.673858   -4.218863
     40          6           0        8.208778    3.476139   -1.816403
     41          6           0        7.203003    4.587788   -1.690066
     42          8           0        5.978517    4.347452   -1.705509
     43          8           0        7.832347    5.718470   -1.335063
     44          6           0        6.887504    6.854308   -1.163901
     45          1           0        8.908911    0.436783    4.387665
     46          1           0        7.666537   -5.075157    1.740206
     47          1           0        8.015917   -2.480555   -3.968136
     48          1           0        9.077354    4.147520    1.129005
     49          1           0        8.735832    2.909322    3.638522
     50          1           0       10.957902    2.876513    1.631732
     51          1           0       10.836482    1.412209    2.655127
     52          1           0       11.058202    2.950877    3.438661
     53          1           0        6.597197    3.399167    2.691086
     54          1           0        6.376713    4.104781    1.040035
     55          1           0        8.146523    5.778501    2.507492
     56          1           0        7.054526    5.167169    3.691413
     57          1           0        8.146846   -0.660003    6.018364
     58          1           0        8.409033   -2.323723    6.377958
     59          1           0        6.731707   -1.720557    6.368623
     60          1           0        7.377425   -4.310460    6.451786
     61          1           0        6.119026   -5.624556    6.108187
     62          1           0        5.735672   -3.883424    6.041637
     63          1           0        7.190483   -5.881360   -0.631265
     64          1           0        8.836407   -4.791487   -2.860861
     65          1           0        9.067185   -7.129759   -0.473521
     66          1           0        9.927659   -5.649451    0.071461
     67          1           0        9.935256   -6.064067   -1.564085
     68          1           0        6.819628   -6.272788   -3.187460
     69          1           0        6.874061   -4.854528   -4.228335
     70          1           0        5.248433   -5.508514   -1.888181
     71          1           0        4.698074   -4.798549   -3.443735
     72          1           0        5.504599   -3.791996   -2.158792
     73          1           0        7.682695    0.669725   -5.800297
     74          1           0        8.115417   -1.055285   -5.524330
     75          1           0        9.391144    0.217435   -5.328709
     76          1           0        9.232120    3.836680   -1.716888
     77          1           0        7.230404    7.658054   -1.815550
     78          1           0        6.837225    7.057015   -0.093954
     79          1           0        5.875874    6.700853   -1.541256
     80         12           0       -8.213014   -0.349200   -0.305644
     81          6           0       -5.879637    2.377133   -0.266267
     82          6           0       -9.765101    1.136796    2.343405
     83          6           0      -10.007456   -2.950866   -0.024980
     84          6           0       -5.864128   -2.150829   -2.144811
     85          7           0       -7.784102    1.514691    0.805310
     86          6           0       -6.907997    2.501463    0.691055
     87          6           0       -7.194756    3.724910    1.602372
     88          6           0       -8.055020    2.982921    2.737389
     89          6           0       -8.602098    1.821854    1.909547
     90          6           0       -7.204626    2.410605    3.859279
     91          6           0       -8.037553    4.829191    0.872799
     92          6           0       -8.091676    6.177941    1.593701
     93          1           0       -8.114586    7.396597    0.789451
     94          7           0       -9.943739   -0.621139    0.626668
     95          6           0      -10.427004    0.087671    1.668456
     96          6           0      -11.725321   -0.519270    2.000326
     97          6           0      -11.893505   -1.747030    1.176288
     98          6           0      -10.583669   -1.833932    0.562393
     99          6           0      -12.697553    0.110311    2.955221
    100          6           0      -13.038879   -2.694276    0.983808
    101          8           0      -12.885512   -3.827407    0.404725
    102          6           0      -14.324700   -2.297057    1.575733
    103          7           0       -7.892808   -2.342978   -0.800265
    104          6           0       -8.857188   -3.262894   -0.622333
    105          6           0       -8.501469   -4.564312   -1.300688
    106          6           0       -7.202571   -4.249934   -2.179093
    107          6           0       -6.969507   -2.779298   -1.768865
    108          6           0       -8.213462   -5.742411   -0.370356
    109          6           0       -7.276554   -4.592354   -3.692349
    110          6           0       -8.271620   -3.684634   -4.378849
    111          7           0       -6.309704    0.073811   -1.236514
    112          6           0       -5.481668   -0.832106   -1.934907
    113          6           0       -4.241133   -0.109039   -2.282315
    114          6           0       -4.425377    1.170726   -1.737549
    115          6           0       -5.682785    1.234183   -1.078472
    116          6           0       -3.121448   -0.659563   -2.967384
    117          6           0       -3.837519    2.479142   -1.561016
    118          8           0       -2.823387    3.038957   -1.975590
    119          6           0       -4.698592    3.279900   -0.491555
    120          6           0       -4.962396    4.654349   -1.042745
    121          8           0       -5.665814    4.804161   -2.057320
    122          8           0       -4.524993    5.573413   -0.162767
    123          6           0       -4.774518    6.952720   -0.659842
    124          1           0      -10.189249    1.397476    3.313473
    125          1           0      -10.633795   -3.845548   -0.051732
    126          1           0       -5.124726   -2.613031   -2.802336
    127          1           0       -6.315193    4.180742    2.040949
    128          1           0       -8.866091    3.612875    3.093327
    129          1           0       -6.149017    2.494729    3.647762
    130          1           0       -7.491659    1.370734    3.944845
    131          1           0       -7.473482    2.876804    4.811498
    132          1           0       -9.099149    4.552988    0.911008
    133          1           0       -7.691410    4.970483   -0.132616
    134          1           0       -7.335222    6.253399    2.384284
    135          1           0       -9.043447    6.249075    2.125769
    136          1           0      -12.229955    0.918812    3.530615
    137          1           0      -12.945892   -0.648393    3.705269
    138          1           0      -13.617226    0.437348    2.465400
    139          1           0      -14.201463   -2.158144    2.647172
    140          1           0      -15.040644   -3.056762    1.256138
    141          1           0      -14.613898   -1.323936    1.163420
    142          1           0       -9.299471   -4.889002   -1.957099
    143          1           0       -6.327082   -4.816350   -1.829039
    144          1           0       -8.859310   -6.619580   -0.564087
    145          1           0       -8.325929   -5.405694    0.651658
    146          1           0       -7.185582   -6.100857   -0.383714
    147          1           0       -7.639916   -5.613400   -3.832270
    148          1           0       -6.320154   -4.518596   -4.199158
    149          1           0       -9.229516   -4.175838   -4.183330
    150          1           0       -8.066936   -3.629458   -5.446139
    151          1           0       -8.302221   -2.699631   -3.898755
    152          1           0       -2.807864    0.077815   -3.694326
    153          1           0       -3.371923   -1.605807   -3.442434
    154          1           0       -2.427230   -0.790254   -2.132975
    155          1           0       -4.122490    3.313596    0.433945
    156          1           0       -3.811355    7.472331   -0.657395
    157          1           0       -5.570647    7.364475   -0.011466
    158          1           0       -5.073252    7.065878   -1.695416
 ---------------------------------------------------------------------
 Rotational constants (GHZ):           0.0241812           0.0061032           0.0056243
 Leave Link  202 at Sun Sep 12 03:16:52 2021, MaxMem= 23488102400 cpu:               0.2 elap:               0.0
 (Enter /sw/apps/gaussian-16.0/g16/l301.exe)
 Standard basis: def2SVP (5D, 7F)
 Ernie: Thresh=  0.10000D-02 Tol=  0.10000D-05 Strict=F.
 There are  1658 symmetry adapted cartesian basis functions of A   symmetry.
 There are  1572 symmetry adapted basis functions of A   symmetry.
  1572 basis functions,  2678 primitive gaussians,  1658 cartesian basis functions
   312 alpha electrons      312 beta electrons
       nuclear repulsion energy     13890.1378499301 Hartrees.
 IExCor=20419 DFT=T Ex+Corr=CAM-B3LYP ExCW=0 ScaHFX=  1.000000
 ScaDFX=  1.000000  1.000000  1.000000  0.810000 ScalE2=  1.000000  1.000000
 IRadAn=      5 IRanWt=     -1 IRanGd=            0 ICorTp=0 IEmpDi=  4
 HFx  wShort=  0.000000 wLong=  0.330000 cFull=  0.190000 cShort=  0.000000 cLong=  0.460000
 DFx  wShort=  0.000000 wLong=  0.330000 cFull=  0.190000 cShort=  0.000000 cLong=  0.460000
 NAtoms=  158 NActive=  158 NUniq=  158 SFac= 1.00D+00 NAtFMM=   60 NAOKFM=T Big=T
 Integral buffers will be    131072 words long.
 Raffenetti 1 integral format.
 Two-electron integral symmetry is turned on.
 Leave Link  301 at Sun Sep 12 03:16:52 2021, MaxMem= 23488102400 cpu:               1.4 elap:               0.1
 (Enter /sw/apps/gaussian-16.0/g16/l302.exe)
 NPDir=0 NMtPBC=     1 NCelOv=     1 NCel=       1 NClECP=     1 NCelD=      1
         NCelK=      1 NCelE2=     1 NClLst=     1 CellRange=     0.0.
 One-electron integrals computed using PRISM.
 One-electron integral symmetry used in STVInt
   1 Symmetry operations used in ECPInt.
 ECPInt:  NShTT=  271216 NPrTT=  987664 LenC2=  111138 LenP2D=  248785.
 LDataN:  DoStor=T MaxTD1= 4 Len=   56
 NBasis=  1572 RedAO= T EigKep=  3.36D-04  NBF=  1572
 NBsUse=  1572 1.00D-06 EigRej= -1.00D+00 NBFU=  1572
 Precomputing XC quadrature grid using
 IXCGrd= 4 IRadAn=           5 IRanWt=          -1 IRanGd=           0 AccXCQ= 0.00D+00.
 Generated NRdTot=       0 NPtTot=           0 NUsed=           0 NTot=          32
 NSgBfM=  1330  1321  1326  1327  1330 MxSgAt=   158 MxSgA2=   158.
 Leave Link  302 at Sun Sep 12 03:16:57 2021, MaxMem= 23488102400 cpu:             110.8 elap:               4.6
 (Enter /sw/apps/gaussian-16.0/g16/l303.exe)
 DipDrv:  MaxL=1.
 Leave Link  303 at Sun Sep 12 03:16:57 2021, MaxMem= 23488102400 cpu:               8.0 elap:               0.4
 (Enter /sw/apps/gaussian-16.0/g16/l308.exe)
 Leave Link  308 at Sun Sep 12 03:16:58 2021, MaxMem= 23488102400 cpu:              12.0 elap:               0.6
 (Enter /sw/apps/gaussian-16.0/g16/l401.exe)
 ExpMin= 3.36D-02 ExpMax= 4.95D+03 ExpMxC= 7.45D+02 IAcc=3 IRadAn=         5 AccDes= 0.00D+00
 Harris functional with IExCor=20419 and IRadAn=       5 diagonalized for initial guess.
 HarFok:  IExCor=20419 AccDes= 0.00D+00 IRadAn=         5 IDoV= 1 UseB2=F ITyADJ=14
 ICtDFT=  3500011 ScaDFX=  1.000000  1.000000  1.000000  1.000000
 FoFCou: FMM=F IPFlag=           0 FMFlag=      100000 FMFlg1=        2001
         NFxFlg=           0 DoJE=T BraDBF=F KetDBF=T FulRan=T
         wScrn=  0.000000 ICntrl=       500 IOpCl=  0 I1Cent=   200000004 NGrid=           0
         NMat0=    1 NMatS0=      1 NMatT0=    0 NMatD0=    1 NMtDS0=    0 NMtDT0=    0
 Petite list used in FoFCou.
 Harris En= -3918.65801490127    
 JPrj=0 DoOrth=F DoCkMO=F.
 Leave Link  401 at Sun Sep 12 03:17:05 2021, MaxMem= 23488102400 cpu:             159.9 elap:               6.7
 (Enter /sw/apps/gaussian-16.0/g16/l502.exe)
 Integral symmetry usage will be decided dynamically.
 Closed shell SCF:
 Using DIIS extrapolation, IDIIS=  1040.
 NGot= 23488102400 LenX= 23482547354 LenY= 23479796732
 Requested convergence on RMS density matrix=1.00D-08 within 128 cycles.
 Requested convergence on MAX density matrix=1.00D-06.
 Requested convergence on             energy=1.00D-06.
 No special actions if energy rises.
 Fock matrices will be formed incrementally for  20 cycles.

 Cycle   1  Pass 1  IDiag  1:
 FoFJK:  IHMeth= 1 ICntrl=       0 DoSepK=T KAlg= 0 I1Cent=           0 FoldK=F
 IRaf=         1 NMat=       1 IRICut=       1 DoRegI=T DoRafI=F ISym2E= 0 IDoP0=0 IntGTp=1.
 FoFCou: FMM=T IPFlag=           0 FMFlag=      100000 FMFlg1=        2001
         NFxFlg=           0 DoJE=T BraDBF=F KetDBF=F FulRan=T
         wScrn=  0.000000 ICntrl=       500 IOpCl=  0 I1Cent=           0 NGrid=           0
         NMat0=    1 NMatS0=      1 NMatT0=    0 NMatD0=    1 NMtDS0=    0 NMtDT0=    0
 Symmetry not used in FoFCou.
 FMM levels:  10  Number of levels for PrismC:   9
 E= -4068.94811295274    
 DIIS: error= 2.04D-02 at cycle   1 NSaved=   1.
 NSaved= 1 IEnMin= 1 EnMin= -4068.94811295274     IErMin= 1 ErrMin= 2.04D-02
 ErrMax= 2.04D-02  0.00D+00 EMaxC= 1.00D-01 BMatC= 1.69D+00 BMatP= 1.69D+00
 IDIUse=3 WtCom= 7.96D-01 WtEn= 2.04D-01
 Coeff-Com:  0.100D+01
 Coeff-En:   0.100D+01
 Coeff:      0.100D+01
 Gap=     0.120 Goal=   None    Shift=    0.000
 GapD=    0.120 DampG=1.000 DampE=0.500 DampFc=0.5000 IDamp=-1.
 Damping current iteration by 5.00D-01
 RMSDP=1.57D-03 MaxDP=1.34D-01              OVMax= 2.06D-01

 Cycle   2  Pass 1  IDiag  1:
 RMSU=  7.70D-04    CP:  9.82D-01
 E= -4069.33694920311     Delta-E=       -0.388836250371 Rises=F Damp=T
 DIIS: error= 1.27D-02 at cycle   2 NSaved=   2.
 NSaved= 2 IEnMin= 2 EnMin= -4069.33694920311     IErMin= 2 ErrMin= 1.27D-02
 ErrMax= 1.27D-02  0.00D+00 EMaxC= 1.00D-01 BMatC= 3.07D-01 BMatP= 1.69D+00
 IDIUse=3 WtCom= 8.73D-01 WtEn= 1.27D-01
 Coeff-Com: -0.212D+00 0.121D+01
 Coeff-En:   0.000D+00 0.100D+01
 Coeff:     -0.185D+00 0.119D+01
 Gap=     0.138 Goal=   None    Shift=    0.000
 RMSDP=7.66D-04 MaxDP=9.51D-02 DE=-3.89D-01 OVMax= 1.90D-01

 Cycle   3  Pass 1  IDiag  1:
 RMSU=  7.34D-04    CP:  9.68D-01  1.24D+00
 E= -4069.62563790827     Delta-E=       -0.288688705161 Rises=F Damp=F
 DIIS: error= 1.59D-02 at cycle   3 NSaved=   3.
 NSaved= 3 IEnMin= 3 EnMin= -4069.62563790827     IErMin= 2 ErrMin= 1.27D-02
 ErrMax= 1.59D-02  0.00D+00 EMaxC= 1.00D-01 BMatC= 2.03D-01 BMatP= 3.07D-01
 IDIUse=3 WtCom= 8.41D-01 WtEn= 1.59D-01
 Coeff-Com: -0.267D+00 0.653D+00 0.615D+00
 Coeff-En:   0.000D+00 0.000D+00 0.100D+01
 Coeff:     -0.225D+00 0.549D+00 0.676D+00
 Gap=     0.125 Goal=   None    Shift=    0.000
 RMSDP=5.12D-04 MaxDP=4.79D-02 DE=-2.89D-01 OVMax= 1.48D-01

 Cycle   4  Pass 1  IDiag  1:
 RMSU=  2.67D-04    CP:  9.65D-01  1.55D+00  5.03D-01
 E= -4069.76329049819     Delta-E=       -0.137652589925 Rises=F Damp=F
 DIIS: error= 7.41D-03 at cycle   4 NSaved=   4.
 NSaved= 4 IEnMin= 4 EnMin= -4069.76329049819     IErMin= 4 ErrMin= 7.41D-03
 ErrMax= 7.41D-03  0.00D+00 EMaxC= 1.00D-01 BMatC= 5.14D-02 BMatP= 2.03D-01
 IDIUse=3 WtCom= 9.26D-01 WtEn= 7.41D-02
 Coeff-Com: -0.109D+00 0.226D+00 0.410D+00 0.473D+00
 Coeff-En:   0.000D+00 0.000D+00 0.224D+00 0.776D+00
 Coeff:     -0.101D+00 0.210D+00 0.396D+00 0.495D+00
 Gap=     0.123 Goal=   None    Shift=    0.000
 RMSDP=2.03D-04 MaxDP=2.10D-02 DE=-1.38D-01 OVMax= 6.58D-02

 Cycle   5  Pass 1  IDiag  1:
 RMSU=  7.73D-05    CP:  9.64D-01  1.49D+00  6.88D-01  5.45D-01
 E= -4069.80993756494     Delta-E=       -0.046647066745 Rises=F Damp=F
 DIIS: error= 7.71D-04 at cycle   5 NSaved=   5.
 NSaved= 5 IEnMin= 5 EnMin= -4069.80993756494     IErMin= 5 ErrMin= 7.71D-04
 ErrMax= 7.71D-04  0.00D+00 EMaxC= 1.00D-01 BMatC= 1.23D-03 BMatP= 5.14D-02
 IDIUse=3 WtCom= 9.92D-01 WtEn= 7.71D-03
 Coeff-Com: -0.363D-01 0.714D-01 0.168D+00 0.252D+00 0.546D+00
 Coeff-En:   0.000D+00 0.000D+00 0.000D+00 0.000D+00 0.100D+01
 Coeff:     -0.361D-01 0.708D-01 0.167D+00 0.250D+00 0.549D+00
 Gap=     0.122 Goal=   None    Shift=    0.000
 RMSDP=4.23D-05 MaxDP=4.26D-03 DE=-4.66D-02 OVMax= 1.81D-02

 Cycle   6  Pass 1  IDiag  1:
 RMSU=  3.10D-05    CP:  9.64D-01  1.49D+00  6.80D-01  6.19D-01  7.48D-01
 E= -4069.81102278917     Delta-E=       -0.001085224230 Rises=F Damp=F
 DIIS: error= 2.08D-04 at cycle   6 NSaved=   6.
 NSaved= 6 IEnMin= 6 EnMin= -4069.81102278917     IErMin= 6 ErrMin= 2.08D-04
 ErrMax= 2.08D-04  0.00D+00 EMaxC= 1.00D-01 BMatC= 1.85D-04 BMatP= 1.23D-03
 IDIUse=3 WtCom= 9.98D-01 WtEn= 2.08D-03
 Coeff-Com:  0.224D-02-0.666D-02 0.115D-01 0.408D-01 0.305D+00 0.647D+00
 Coeff-En:   0.000D+00 0.000D+00 0.000D+00 0.000D+00 0.107D+00 0.893D+00
 Coeff:      0.223D-02-0.665D-02 0.115D-01 0.407D-01 0.305D+00 0.647D+00
 Gap=     0.123 Goal=   None    Shift=    0.000
 RMSDP=1.64D-05 MaxDP=1.22D-03 DE=-1.09D-03 OVMax= 7.69D-03

 Cycle   7  Pass 1  IDiag  1:
 RMSU=  1.10D-05    CP:  9.64D-01  1.49D+00  6.86D-01  6.19D-01  8.53D-01
                    CP:  7.45D-01
 E= -4069.81122465897     Delta-E=       -0.000201869800 Rises=F Damp=F
 DIIS: error= 8.65D-05 at cycle   7 NSaved=   7.
 NSaved= 7 IEnMin= 7 EnMin= -4069.81122465897     IErMin= 7 ErrMin= 8.65D-05
 ErrMax= 8.65D-05  0.00D+00 EMaxC= 1.00D-01 BMatC= 2.24D-05 BMatP= 1.85D-04
 IDIUse=1 WtCom= 1.00D+00 WtEn= 0.00D+00
 Coeff-Com:  0.452D-02-0.990D-02-0.897D-02-0.350D-02 0.104D+00 0.333D+00
 Coeff-Com:  0.581D+00
 Coeff:      0.452D-02-0.990D-02-0.897D-02-0.350D-02 0.104D+00 0.333D+00
 Coeff:      0.581D+00
 Gap=     0.123 Goal=   None    Shift=    0.000
 RMSDP=6.61D-06 MaxDP=1.11D-03 DE=-2.02D-04 OVMax= 3.48D-03

 Cycle   8  Pass 1  IDiag  1:
 RMSU=  4.74D-06    CP:  9.64D-01  1.50D+00  6.86D-01  6.24D-01  8.55D-01
                    CP:  8.70D-01  8.20D-01
 E= -4069.81125251181     Delta-E=       -0.000027852842 Rises=F Damp=F
 DIIS: error= 5.30D-05 at cycle   8 NSaved=   8.
 NSaved= 8 IEnMin= 8 EnMin= -4069.81125251181     IErMin= 8 ErrMin= 5.30D-05
 ErrMax= 5.30D-05  0.00D+00 EMaxC= 1.00D-01 BMatC= 4.96D-06 BMatP= 2.24D-05
 IDIUse=1 WtCom= 1.00D+00 WtEn= 0.00D+00
 Coeff-Com:  0.217D-02-0.430D-02-0.779D-02-0.121D-01-0.104D-01 0.327D-01
 Coeff-Com:  0.336D+00 0.663D+00
 Coeff:      0.217D-02-0.430D-02-0.779D-02-0.121D-01-0.104D-01 0.327D-01
 Coeff:      0.336D+00 0.663D+00
 Gap=     0.123 Goal=   None    Shift=    0.000
 RMSDP=3.33D-06 MaxDP=3.76D-04 DE=-2.79D-05 OVMax= 1.06D-03

 Cycle   9  Pass 1  IDiag  1:
 RMSU=  1.94D-06    CP:  9.64D-01  1.50D+00  6.87D-01  6.25D-01  8.73D-01
                    CP:  8.96D-01  1.01D+00  9.56D-01
 E= -4069.81126047461     Delta-E=       -0.000007962801 Rises=F Damp=F
 DIIS: error= 1.96D-05 at cycle   9 NSaved=   9.
 NSaved= 9 IEnMin= 9 EnMin= -4069.81126047461     IErMin= 9 ErrMin= 1.96D-05
 ErrMax= 1.96D-05  0.00D+00 EMaxC= 1.00D-01 BMatC= 7.17D-07 BMatP= 4.96D-06
 IDIUse=1 WtCom= 1.00D+00 WtEn= 0.00D+00
 Coeff-Com:  0.456D-03-0.753D-03-0.266D-02-0.599D-02-0.206D-01-0.401D-01
 Coeff-Com:  0.100D+00 0.326D+00 0.643D+00
 Coeff:      0.456D-03-0.753D-03-0.266D-02-0.599D-02-0.206D-01-0.401D-01
 Coeff:      0.100D+00 0.326D+00 0.643D+00
 Gap=     0.123 Goal=   None    Shift=    0.000
 RMSDP=1.45D-06 MaxDP=1.49D-04 DE=-7.96D-06 OVMax= 7.56D-04

 Cycle  10  Pass 1  IDiag  1:
 RMSU=  9.56D-07    CP:  9.64D-01  1.50D+00  6.87D-01  6.25D-01  8.76D-01
                    CP:  9.09D-01  1.06D+00  1.12D+00  1.07D+00
 E= -4069.81126214951     Delta-E=       -0.000001674904 Rises=F Damp=F
 DIIS: error= 1.04D-05 at cycle  10 NSaved=  10.
 NSaved=10 IEnMin=10 EnMin= -4069.81126214951     IErMin=10 ErrMin= 1.04D-05
 ErrMax= 1.04D-05  0.00D+00 EMaxC= 1.00D-01 BMatC= 1.82D-07 BMatP= 7.17D-07
 IDIUse=1 WtCom= 1.00D+00 WtEn= 0.00D+00
 Coeff-Com: -0.435D-03 0.912D-03 0.126D-02 0.113D-02-0.359D-02-0.316D-01
 Coeff-Com: -0.455D-01-0.790D-01 0.252D+00 0.905D+00
 Coeff:     -0.435D-03 0.912D-03 0.126D-02 0.113D-02-0.359D-02-0.316D-01
 Coeff:     -0.455D-01-0.790D-01 0.252D+00 0.905D+00
 Gap=     0.123 Goal=   None    Shift=    0.000
 RMSDP=1.26D-06 MaxDP=1.27D-04 DE=-1.67D-06 OVMax= 6.34D-04

 Cycle  11  Pass 1  IDiag  1:
 RMSU=  5.34D-07    CP:  9.64D-01  1.50D+00  6.87D-01  6.26D-01  8.78D-01
                    CP:  9.19D-01  1.11D+00  1.24D+00  1.41D+00  1.38D+00
 E= -4069.81126299112     Delta-E=       -0.000000841603 Rises=F Damp=F
 DIIS: error= 4.19D-06 at cycle  11 NSaved=  11.
 NSaved=11 IEnMin=11 EnMin= -4069.81126299112     IErMin=11 ErrMin= 4.19D-06
 ErrMax= 4.19D-06  0.00D+00 EMaxC= 1.00D-01 BMatC= 6.77D-08 BMatP= 1.82D-07
 IDIUse=1 WtCom= 1.00D+00 WtEn= 0.00D+00
 Coeff-Com: -0.334D-03 0.650D-03 0.136D-02 0.215D-02 0.448D-02-0.858D-02
 Coeff-Com: -0.425D-01-0.135D+00-0.276D-01 0.476D+00 0.730D+00
 Coeff:     -0.334D-03 0.650D-03 0.136D-02 0.215D-02 0.448D-02-0.858D-02
 Coeff:     -0.425D-01-0.135D+00-0.276D-01 0.476D+00 0.730D+00
 Gap=     0.123 Goal=   None    Shift=    0.000
 RMSDP=7.15D-07 MaxDP=6.24D-05 DE=-8.42D-07 OVMax= 3.95D-04

 Cycle  12  Pass 1  IDiag  1:
 RMSU=  2.72D-07    CP:  9.64D-01  1.50D+00  6.87D-01  6.26D-01  8.79D-01
                    CP:  9.22D-01  1.13D+00  1.30D+00  1.58D+00  1.77D+00
                    CP:  1.19D+00
 E= -4069.81126327637     Delta-E=       -0.000000285254 Rises=F Damp=F
 DIIS: error= 2.52D-06 at cycle  12 NSaved=  12.
 NSaved=12 IEnMin=12 EnMin= -4069.81126327637     IErMin=12 ErrMin= 2.52D-06
 ErrMax= 2.52D-06  0.00D+00 EMaxC= 1.00D-01 BMatC= 1.67D-08 BMatP= 6.77D-08
 IDIUse=1 WtCom= 1.00D+00 WtEn= 0.00D+00
 Coeff-Com: -0.460D-05-0.831D-05 0.205D-03 0.552D-03 0.346D-02 0.404D-02
 Coeff-Com:  0.240D-02-0.371D-01-0.716D-01-0.659D-01 0.259D+00 0.905D+00
 Coeff:     -0.460D-05-0.831D-05 0.205D-03 0.552D-03 0.346D-02 0.404D-02
 Coeff:      0.240D-02-0.371D-01-0.716D-01-0.659D-01 0.259D+00 0.905D+00
 Gap=     0.123 Goal=   None    Shift=    0.000
 RMSDP=4.55D-07 MaxDP=3.14D-05 DE=-2.85D-07 OVMax= 2.58D-04

 Cycle  13  Pass 1  IDiag  1:
 RMSU=  1.71D-07    CP:  9.64D-01  1.50D+00  6.87D-01  6.26D-01  8.79D-01
                    CP:  9.22D-01  1.14D+00  1.33D+00  1.69D+00  2.00D+00
                    CP:  1.61D+00  1.26D+00
 E= -4069.81126337667     Delta-E=       -0.000000100299 Rises=F Damp=F
 DIIS: error= 1.27D-06 at cycle  13 NSaved=  13.
 NSaved=13 IEnMin=13 EnMin= -4069.81126337667     IErMin=13 ErrMin= 1.27D-06
 ErrMax= 1.27D-06  0.00D+00 EMaxC= 1.00D-01 BMatC= 8.93D-09 BMatP= 1.67D-08
 IDIUse=1 WtCom= 1.00D+00 WtEn= 0.00D+00
 Coeff-Com:  0.122D-03-0.249D-03-0.374D-03-0.458D-03 0.645D-03 0.517D-02
 Coeff-Com:  0.195D-01 0.234D-01-0.346D-01-0.242D+00-0.157D+00 0.593D+00
 Coeff-Com:  0.793D+00
 Coeff:      0.122D-03-0.249D-03-0.374D-03-0.458D-03 0.645D-03 0.517D-02
 Coeff:      0.195D-01 0.234D-01-0.346D-01-0.242D+00-0.157D+00 0.593D+00
 Coeff:      0.793D+00
 Gap=     0.123 Goal=   None    Shift=    0.000
 RMSDP=3.59D-07 MaxDP=2.13D-05 DE=-1.00D-07 OVMax= 2.14D-04

 Cycle  14  Pass 1  IDiag  1:
 RMSU=  7.89D-08    CP:  9.64D-01  1.50D+00  6.87D-01  6.26D-01  8.80D-01
                    CP:  9.23D-01  1.15D+00  1.36D+00  1.77D+00  2.21D+00
                    CP:  1.87D+00  1.78D+00  1.09D+00
 E= -4069.81126341660     Delta-E=       -0.000000039927 Rises=F Damp=F
 DIIS: error= 6.90D-07 at cycle  14 NSaved=  14.
 NSaved=14 IEnMin=14 EnMin= -4069.81126341660     IErMin=14 ErrMin= 6.90D-07
 ErrMax= 6.90D-07  0.00D+00 EMaxC= 1.00D-01 BMatC= 1.37D-09 BMatP= 8.93D-09
 IDIUse=1 WtCom= 1.00D+00 WtEn= 0.00D+00
 Coeff-Com:  0.680D-04-0.134D-03-0.253D-03-0.395D-03-0.471D-03 0.131D-02
 Coeff-Com:  0.106D-01 0.199D-01 0.391D-02-0.102D+00-0.144D+00 0.905D-01
 Coeff-Com:  0.409D+00 0.712D+00
 Coeff:      0.680D-04-0.134D-03-0.253D-03-0.395D-03-0.471D-03 0.131D-02
 Coeff:      0.106D-01 0.199D-01 0.391D-02-0.102D+00-0.144D+00 0.905D-01
 Coeff:      0.409D+00 0.712D+00
 Gap=     0.123 Goal=   None    Shift=    0.000
 RMSDP=1.08D-07 MaxDP=6.64D-06 DE=-3.99D-08 OVMax= 5.77D-05

 Cycle  15  Pass 1  IDiag  1:
 RMSU=  3.94D-08    CP:  9.64D-01  1.50D+00  6.87D-01  6.26D-01  8.80D-01
                    CP:  9.23D-01  1.15D+00  1.36D+00  1.79D+00  2.25D+00
                    CP:  1.98D+00  1.92D+00  1.33D+00  1.03D+00
 E= -4069.81126342110     Delta-E=       -0.000000004507 Rises=F Damp=F
 DIIS: error= 3.34D-07 at cycle  15 NSaved=  15.
 NSaved=15 IEnMin=15 EnMin= -4069.81126342110     IErMin=15 ErrMin= 3.34D-07
 ErrMax= 3.34D-07  0.00D+00 EMaxC= 1.00D-01 BMatC= 2.29D-10 BMatP= 1.37D-09
 IDIUse=1 WtCom= 1.00D+00 WtEn= 0.00D+00
 Coeff-Com:  0.538D-05-0.893D-05-0.333D-04-0.833D-04-0.300D-03-0.529D-03
 Coeff-Com:  0.108D-02 0.264D-02 0.888D-02 0.161D-02-0.302D-01-0.730D-01
 Coeff-Com:  0.329D-01 0.290D+00 0.767D+00
 Coeff:      0.538D-05-0.893D-05-0.333D-04-0.833D-04-0.300D-03-0.529D-03
 Coeff:      0.108D-02 0.264D-02 0.888D-02 0.161D-02-0.302D-01-0.730D-01
 Coeff:      0.329D-01 0.290D+00 0.767D+00
 Gap=     0.123 Goal=   None    Shift=    0.000
 RMSDP=4.03D-08 MaxDP=2.26D-06 DE=-4.51D-09 OVMax= 2.81D-05

 Cycle  16  Pass 1  IDiag  1:
 RMSU=  1.93D-08    CP:  9.64D-01  1.50D+00  6.87D-01  6.26D-01  8.80D-01
                    CP:  9.23D-01  1.15D+00  1.36D+00  1.80D+00  2.26D+00
                    CP:  2.00D+00  1.97D+00  1.41D+00  1.24D+00  1.14D+00
 E= -4069.81126342185     Delta-E=       -0.000000000746 Rises=F Damp=F
 DIIS: error= 1.77D-07 at cycle  16 NSaved=  16.
 NSaved=16 IEnMin=16 EnMin= -4069.81126342185     IErMin=16 ErrMin= 1.77D-07
 ErrMax= 1.77D-07  0.00D+00 EMaxC= 1.00D-01 BMatC= 8.84D-11 BMatP= 2.29D-10
 IDIUse=1 WtCom= 1.00D+00 WtEn= 0.00D+00
 Coeff-Com: -0.144D-04 0.292D-04 0.475D-04 0.536D-04-0.327D-04-0.644D-03
 Coeff-Com: -0.196D-02-0.429D-02 0.448D-02 0.257D-01 0.210D-01-0.651D-01
 Coeff-Com: -0.804D-01-0.433D-01 0.403D+00 0.741D+00
 Coeff:     -0.144D-04 0.292D-04 0.475D-04 0.536D-04-0.327D-04-0.644D-03
 Coeff:     -0.196D-02-0.429D-02 0.448D-02 0.257D-01 0.210D-01-0.651D-01
 Coeff:     -0.804D-01-0.433D-01 0.403D+00 0.741D+00
 Gap=     0.123 Goal=   None    Shift=    0.000
 RMSDP=2.39D-08 MaxDP=1.45D-06 DE=-7.46D-10 OVMax= 1.28D-05

 Cycle  17  Pass 1  IDiag  1:
 RMSU=  1.07D-08    CP:  9.64D-01  1.50D+00  6.87D-01  6.26D-01  8.80D-01
                    CP:  9.23D-01  1.15D+00  1.36D+00  1.80D+00  2.27D+00
                    CP:  2.02D+00  2.00D+00  1.45D+00  1.34D+00  1.44D+00
                    CP:  1.25D+00
 E= -4069.81126342226     Delta-E=       -0.000000000411 Rises=F Damp=F
 DIIS: error= 9.33D-08 at cycle  17 NSaved=  17.
 NSaved=17 IEnMin=17 EnMin= -4069.81126342226     IErMin=17 ErrMin= 9.33D-08
 ErrMax= 9.33D-08  0.00D+00 EMaxC= 1.00D-01 BMatC= 1.83D-11 BMatP= 8.84D-11
 IDIUse=1 WtCom= 1.00D+00 WtEn= 0.00D+00
 Coeff-Com: -0.731D-05 0.142D-04 0.290D-04 0.430D-04 0.833D-04-0.123D-03
 Coeff-Com: -0.941D-03-0.283D-02 0.377D-04 0.936D-02 0.176D-01-0.754D-02
 Coeff-Com: -0.351D-01-0.103D+00-0.272D-01 0.287D+00 0.862D+00
 Coeff:     -0.731D-05 0.142D-04 0.290D-04 0.430D-04 0.833D-04-0.123D-03
 Coeff:     -0.941D-03-0.283D-02 0.377D-04 0.936D-02 0.176D-01-0.754D-02
 Coeff:     -0.351D-01-0.103D+00-0.272D-01 0.287D+00 0.862D+00
 Gap=     0.123 Goal=   None    Shift=    0.000
 RMSDP=1.39D-08 MaxDP=8.68D-07 DE=-4.11D-10 OVMax= 9.40D-06

 Cycle  18  Pass 1  IDiag  1:
 RMSU=  5.11D-09    CP:  9.64D-01  1.50D+00  6.87D-01  6.26D-01  8.80D-01
                    CP:  9.23D-01  1.15D+00  1.36D+00  1.80D+00  2.27D+00
                    CP:  2.02D+00  2.01D+00  1.47D+00  1.41D+00  1.61D+00
                    CP:  1.65D+00  1.38D+00
 E= -4069.81126342204     Delta-E=        0.000000000218 Rises=F Damp=F
 DIIS: error= 5.88D-08 at cycle  18 NSaved=  18.
 NSaved=18 IEnMin=17 EnMin= -4069.81126342226     IErMin=18 ErrMin= 5.88D-08
 ErrMax= 5.88D-08  0.00D+00 EMaxC= 1.00D-01 BMatC= 7.56D-12 BMatP= 1.83D-11
 IDIUse=1 WtCom= 1.00D+00 WtEn= 0.00D+00
 Coeff-Com:  0.180D-05-0.392D-05-0.358D-05-0.120D-06 0.617D-04 0.180D-03
 Coeff-Com:  0.360D-03 0.158D-03-0.131D-02-0.578D-02 0.351D-03 0.190D-01
 Coeff-Com:  0.168D-01-0.346D-01-0.159D+00-0.183D+00 0.375D+00 0.972D+00
 Coeff:      0.180D-05-0.392D-05-0.358D-05-0.120D-06 0.617D-04 0.180D-03
 Coeff:      0.360D-03 0.158D-03-0.131D-02-0.578D-02 0.351D-03 0.190D-01
 Coeff:      0.168D-01-0.346D-01-0.159D+00-0.183D+00 0.375D+00 0.972D+00
 Gap=     0.123 Goal=   None    Shift=    0.000
 RMSDP=1.18D-08 MaxDP=6.79D-07 DE= 2.18D-10 OVMax= 6.31D-06

 Cycle  19  Pass 1  IDiag  1:
 RMSU=  2.99D-09    CP:  9.64D-01  1.50D+00  6.87D-01  6.26D-01  8.80D-01
                    CP:  9.23D-01  1.15D+00  1.36D+00  1.80D+00  2.27D+00
                    CP:  2.02D+00  2.01D+00  1.48D+00  1.45D+00  1.76D+00
                    CP:  1.97D+00  1.91D+00  1.32D+00
 E= -4069.81126342233     Delta-E=       -0.000000000291 Rises=F Damp=F
 DIIS: error= 3.03D-08 at cycle  19 NSaved=  19.
 NSaved=19 IEnMin=19 EnMin= -4069.81126342233     IErMin=19 ErrMin= 3.03D-08
 ErrMax= 3.03D-08  0.00D+00 EMaxC= 1.00D-01 BMatC= 1.64D-12 BMatP= 7.56D-12
 IDIUse=1 WtCom= 1.00D+00 WtEn= 0.00D+00
 Coeff-Com:  0.292D-05-0.590D-05-0.984D-05-0.120D-04 0.143D-04 0.125D-03
 Coeff-Com:  0.470D-03 0.800D-03-0.633D-03-0.602D-02-0.470D-02 0.123D-01
 Coeff-Com:  0.202D-01 0.104D-01-0.726D-01-0.181D+00-0.152D-01 0.504D+00
 Coeff-Com:  0.731D+00
 Coeff:      0.292D-05-0.590D-05-0.984D-05-0.120D-04 0.143D-04 0.125D-03
 Coeff:      0.470D-03 0.800D-03-0.633D-03-0.602D-02-0.470D-02 0.123D-01
 Coeff:      0.202D-01 0.104D-01-0.726D-01-0.181D+00-0.152D-01 0.504D+00
 Coeff:      0.731D+00
 Gap=     0.123 Goal=   None    Shift=    0.000
 RMSDP=4.62D-09 MaxDP=3.13D-07 DE=-2.91D-10 OVMax= 3.30D-06

 SCF Done:  E(RCAM-B3LYP) =  -4069.81126342     A.U. after   19 cycles
            NFock= 19  Conv=0.46D-08     -V/T= 2.0102
 KE= 4.028802335538D+03 PE=-3.726185256705D+04 EE= 1.527310111816D+04
 Leave Link  502 at Sun Sep 12 03:25:50 2021, MaxMem= 23488102400 cpu:           12061.2 elap:             526.0
 (Enter /sw/apps/gaussian-16.0/g16/l801.exe)
 DoSCS=F DFT=T ScalE2(SS,OS)=  1.000000  1.000000
 ExpMin= 3.36D-02 ExpMax= 4.95D+03 ExpMxC= 7.45D+02 IAcc=3 IRadAn=         5 AccDes= 0.00D+00
 HarFok:  IExCor=  205 AccDes= 0.00D+00 IRadAn=         5 IDoV=-2 UseB2=F ITyADJ=14
 ICtDFT= 12500011 ScaDFX=  1.000000  1.000000  1.000000  1.000000
 GSVD:  LWork=       -9588 too small for GESVD, short by       45590 words or       45590 for optimal perf.
 Largest valence mixing into a core orbital is  2.03D-04
 Largest core mixing into a valence orbital is  5.23D-05
 Range of M.O.s used for correlation:    95  1572
 NBasis=  1572 NAE=   312 NBE=   312 NFC=    94 NFV=     0
 NROrb=   1478 NOA=   218 NOB=   218 NVA=  1260 NVB=  1260
 Leave Link  801 at Sun Sep 12 03:25:51 2021, MaxMem= 23488102400 cpu:               9.5 elap:               0.4
 (Enter /sw/apps/gaussian-16.0/g16/l914.exe)
 RHF ground state
 Two-electron integrals replicated using symmetry.
 MDV= 23488102400 DFT=T DoStab=F Mixed=T DoRPA=T DoScal=F NonHer=T
 Making orbital integer symmetry assigments:
 Orbital symmetries:
       Occupied  (A) (A) (A) (A) (A) (A) (A) (A) (A) (A) (A) (A)
                 (A) (A) (A) (A) (A) (A) (A) (A) (A) (A) (A) (A)
                 (A) (A) (A) (A) (A) (A) (A) (A) (A) (A) (A) (A)
                 (A) (A) (A) (A) (A) (A) (A) (A) (A) (A) (A) (A)
                 (A) (A) (A) (A) (A) (A) (A) (A) (A) (A) (A) (A)
                 (A) (A) (A) (A) (A) (A) (A) (A) (A) (A) (A) (A)
                 (A) (A) (A) (A) (A) (A) (A) (A) (A) (A) (A) (A)
                 (A) (A) (A) (A) (A) (A) (A) (A) (A) (A) (A) (A)
                 (A) (A) (A) (A) (A) (A) (A) (A) (A) (A) (A) (A)
                 (A) (A) (A) (A) (A) (A) (A) (A) (A) (A) (A) (A)
                 (A) (A) (A) (A) (A) (A) (A) (A) (A) (A) (A) (A)
                 (A) (A) (A) (A) (A) (A) (A) (A) (A) (A) (A) (A)
                 (A) (A) (A) (A) (A) (A) (A) (A) (A) (A) (A) (A)
                 (A) (A) (A) (A) (A) (A) (A) (A) (A) (A) (A) (A)
                 (A) (A) (A) (A) (A) (A) (A) (A) (A) (A) (A) (A)
                 (A) (A) (A) (A) (A) (A) (A) (A) (A) (A) (A) (A)
                 (A) (A) (A) (A) (A) (A) (A) (A) (A) (A) (A) (A)
                 (A) (A) (A) (A) (A) (A) (A) (A) (A) (A) (A) (A)
                 (A) (A) (A) (A) (A) (A) (A) (A) (A) (A) (A) (A)
                 (A) (A) (A) (A) (A) (A) (A) (A) (A) (A) (A) (A)
                 (A) (A) (A) (A) (A) (A) (A) (A) (A) (A) (A) (A)
                 (A) (A) (A) (A) (A) (A) (A) (A) (A) (A) (A) (A)
                 (A) (A) (A) (A) (A) (A) (A) (A) (A) (A) (A) (A)
                 (A) (A) (A) (A) (A) (A) (A) (A) (A) (A) (A) (A)
                 (A) (A) (A) (A) (A) (A) (A) (A) (A) (A) (A) (A)
                 (A) (A) (A) (A) (A) (A) (A) (A) (A) (A) (A) (A)
       Virtual   (A) (A) (A) (A) (A) (A) (A) (A) (A) (A) (A) (A)
                 (A) (A) (A) (A) (A) (A) (A) (A) (A) (A) (A) (A)
                 (A) (A) (A) (A) (A) (A) (A) (A) (A) (A) (A) (A)
                 (A) (A) (A) (A) (A) (A) (A) (A) (A) (A) (A) (A)
                 (A) (A) (A) (A) (A) (A) (A) (A) (A) (A) (A) (A)
                 (A) (A) (A) (A) (A) (A) (A) (A) (A) (A) (A) (A)
                 (A) (A) (A) (A) (A) (A) (A) (A) (A) (A) (A) (A)
                 (A) (A) (A) (A) (A) (A) (A) (A) (A) (A) (A) (A)
                 (A) (A) (A) (A) (A) (A) (A) (A) (A) (A) (A) (A)
                 (A) (A) (A) (A) (A) (A) (A) (A) (A) (A) (A) (A)
                 (A) (A) (A) (A) (A) (A) (A) (A) (A) (A) (A) (A)
                 (A) (A) (A) (A) (A) (A) (A) (A) (A) (A) (A) (A)
                 (A) (A) (A) (A) (A) (A) (A) (A) (A) (A) (A) (A)
                 (A) (A) (A) (A) (A) (A) (A) (A) (A) (A) (A) (A)
                 (A) (A) (A) (A) (A) (A) (A) (A) (A) (A) (A) (A)
                 (A) (A) (A) (A) (A) (A) (A) (A) (A) (A) (A) (A)
                 (A) (A) (A) (A) (A) (A) (A) (A) (A) (A) (A) (A)
                 (A) (A) (A) (A) (A) (A) (A) (A) (A) (A) (A) (A)
                 (A) (A) (A) (A) (A) (A) (A) (A) (A) (A) (A) (A)
                 (A) (A) (A) (A) (A) (A) (A) (A) (A) (A) (A) (A)
                 (A) (A) (A) (A) (A) (A) (A) (A) (A) (A) (A) (A)
                 (A) (A) (A) (A) (A) (A) (A) (A) (A) (A) (A) (A)
                 (A) (A) (A) (A) (A) (A) (A) (A) (A) (A) (A) (A)
                 (A) (A) (A) (A) (A) (A) (A) (A) (A) (A) (A) (A)
                 (A) (A) (A) (A) (A) (A) (A) (A) (A) (A) (A) (A)
                 (A) (A) (A) (A) (A) (A) (A) (A) (A) (A) (A) (A)
                 (A) (A) (A) (A) (A) (A) (A) (A) (A) (A) (A) (A)
                 (A) (A) (A) (A) (A) (A) (A) (A) (A) (A) (A) (A)
                 (A) (A) (A) (A) (A) (A) (A) (A) (A) (A) (A) (A)
                 (A) (A) (A) (A) (A) (A) (A) (A) (A) (A) (A) (A)
                 (A) (A) (A) (A) (A) (A) (A) (A) (A) (A) (A) (A)
                 (A) (A) (A) (A) (A) (A) (A) (A) (A) (A) (A) (A)
                 (A) (A) (A) (A) (A) (A) (A) (A) (A) (A) (A) (A)
                 (A) (A) (A) (A) (A) (A) (A) (A) (A) (A) (A) (A)
                 (A) (A) (A) (A) (A) (A) (A) (A) (A) (A) (A) (A)
                 (A) (A) (A) (A) (A) (A) (A) (A) (A) (A) (A) (A)
                 (A) (A) (A) (A) (A) (A) (A) (A) (A) (A) (A) (A)
                 (A) (A) (A) (A) (A) (A) (A) (A) (A) (A) (A) (A)
                 (A) (A) (A) (A) (A) (A) (A) (A) (A) (A) (A) (A)
                 (A) (A) (A) (A) (A) (A) (A) (A) (A) (A) (A) (A)
                 (A) (A) (A) (A) (A) (A) (A) (A) (A) (A) (A) (A)
                 (A) (A) (A) (A) (A) (A) (A) (A) (A) (A) (A) (A)
                 (A) (A) (A) (A) (A) (A) (A) (A) (A) (A) (A) (A)
                 (A) (A) (A) (A) (A) (A) (A) (A) (A) (A) (A) (A)
                 (A) (A) (A) (A) (A) (A) (A) (A) (A) (A) (A) (A)
                 (A) (A) (A) (A) (A) (A) (A) (A) (A) (A) (A) (A)
                 (A) (A) (A) (A) (A) (A) (A) (A) (A) (A) (A) (A)
                 (A) (A) (A) (A) (A) (A) (A) (A) (A) (A) (A) (A)
                 (A) (A) (A) (A) (A) (A) (A) (A) (A) (A) (A) (A)
                 (A) (A) (A) (A) (A) (A) (A) (A) (A) (A) (A) (A)
                 (A) (A) (A) (A) (A) (A) (A) (A) (A) (A) (A) (A)
                 (A) (A) (A) (A) (A) (A) (A) (A) (A) (A) (A) (A)
                 (A) (A) (A) (A) (A) (A) (A) (A) (A) (A) (A) (A)
                 (A) (A) (A) (A) (A) (A) (A) (A) (A) (A) (A) (A)
                 (A) (A) (A) (A) (A) (A) (A) (A) (A) (A) (A) (A)
                 (A) (A) (A) (A) (A) (A) (A) (A) (A) (A) (A) (A)
                 (A) (A) (A) (A) (A) (A) (A) (A) (A) (A) (A) (A)
                 (A) (A) (A) (A) (A) (A) (A) (A) (A) (A) (A) (A)
                 (A) (A) (A) (A) (A) (A) (A) (A) (A) (A) (A) (A)
                 (A) (A) (A) (A) (A) (A) (A) (A) (A) (A) (A) (A)
                 (A) (A) (A) (A) (A) (A) (A) (A) (A) (A) (A) (A)
                 (A) (A) (A) (A) (A) (A) (A) (A) (A) (A) (A) (A)
                 (A) (A) (A) (A) (A) (A) (A) (A) (A) (A) (A) (A)
                 (A) (A) (A) (A) (A) (A) (A) (A) (A) (A) (A) (A)
                 (A) (A) (A) (A) (A) (A) (A) (A) (A) (A) (A) (A)
                 (A) (A) (A) (A) (A) (A) (A) (A) (A) (A) (A) (A)
                 (A) (A) (A) (A) (A) (A) (A) (A) (A) (A) (A) (A)
                 (A) (A) (A) (A) (A) (A) (A) (A) (A) (A) (A) (A)
                 (A) (A) (A) (A) (A) (A) (A) (A) (A) (A) (A) (A)
                 (A) (A) (A) (A) (A) (A) (A) (A) (A) (A) (A) (A)
                 (A) (A) (A) (A) (A) (A) (A) (A) (A) (A) (A) (A)
                 (A) (A) (A) (A) (A) (A) (A) (A) (A) (A) (A) (A)
                 (A) (A) (A) (A) (A) (A) (A) (A) (A) (A) (A) (A)
                 (A) (A) (A) (A) (A) (A) (A) (A) (A) (A) (A) (A)
                 (A) (A) (A) (A) (A) (A) (A) (A) (A) (A) (A) (A)
                 (A) (A) (A) (A) (A) (A) (A) (A) (A) (A) (A) (A)
                 (A) (A) (A) (A) (A) (A) (A) (A) (A) (A) (A) (A)
                 (A) (A) (A) (A) (A) (A) (A) (A) (A) (A) (A) (A)
                 (A) (A) (A) (A) (A) (A) (A) (A) (A) (A) (A) (A)
                 (A) (A) (A) (A) (A) (A) (A) (A) (A) (A) (A) (A)
                 (A) (A) (A) (A) (A) (A) (A) (A) (A) (A) (A) (A)
                 (A) (A) (A) (A) (A) (A) (A) (A) (A) (A) (A) (A)
                 (A) (A) (A) (A) (A) (A) (A) (A) (A) (A) (A) (A)
                 (A) (A) (A) (A) (A) (A) (A) (A) (A) (A) (A) (A)
                 (A) (A) (A) (A) (A) (A) (A) (A) (A) (A) (A) (A)
                 (A) (A) (A) (A) (A) (A) (A) (A) (A) (A) (A) (A)
                 (A) (A) (A) (A) (A) (A) (A) (A) (A) (A) (A) (A)
                 (A) (A) (A) (A) (A) (A) (A) (A) (A) (A) (A) (A)
                 (A) (A) (A) (A) (A) (A) (A) (A) (A) (A) (A) (A)
                 (A) (A) (A) (A) (A) (A) (A) (A) (A) (A) (A) (A)
                 (A) (A) (A) (A) (A) (A) (A) (A) (A) (A) (A) (A)
                 (A) (A) (A) (A) (A) (A) (A) (A) (A) (A) (A) (A)
                 (A) (A) (A) (A) (A) (A) (A) (A) (A) (A) (A) (A)
                 (A) (A) (A) (A) (A) (A) (A) (A) (A) (A) (A) (A)
                 (A) (A) (A) (A) (A) (A) (A) (A) (A) (A) (A) (A)
                 (A) (A) (A) (A) (A) (A) (A) (A) (A) (A) (A) (A)
                 (A) (A) (A) (A) (A) (A) (A) (A) (A) (A) (A) (A)
                 (A) (A) (A) (A) (A) (A) (A) (A) (A) (A) (A) (A)
                 (A) (A) (A) (A) (A) (A) (A) (A) (A) (A) (A) (A)
                 (A) (A) (A) (A) (A) (A) (A) (A) (A) (A) (A) (A)
                 (A) (A) (A) (A) (A) (A) (A) (A) (A) (A) (A) (A)
                 (A) (A) (A) (A) (A) (A) (A) (A) (A) (A) (A) (A)
                 (A) (A) (A) (A) (A) (A) (A) (A) (A) (A) (A) (A)
                 (A) (A) (A) (A) (A) (A) (A) (A) (A) (A) (A) (A)
                 (A) (A) (A) (A) (A) (A) (A) (A) (A) (A) (A) (A)
    20 initial guesses have been made.
 Convergence on wavefunction:    0.001000000000000
 Davidson Disk Diagonalization:  ConvIn= 1.00D-03 SkipCon=T Conv= 1.00D-03.
 Max sub-space:  2000 roots to seek:    20 dimension of matrix:       549360
 Iteration     1 Dimension    20 NMult     0 NNew     20
 CISAX will form    20 AO SS matrices at one time.
 NMat=    20 NSing=    20 JSym2X= 0.
 FoFJK:  IHMeth= 1 ICntrl=       0 DoSepK=T KAlg= 0 I1Cent=           0 FoldK=F
 IRaf=         1 NMat=      40 IRICut=       1 DoRegI=T DoRafI=F ISym2E= 0 IDoP0=3 IntGTp=3.
 FoFCou: FMM=T IPFlag=           0 FMFlag=      100000 FMFlg1=        2001
         NFxFlg=           0 DoJE=F BraDBF=F KetDBF=F FulRan=T
         wScrn=  0.000000 ICntrl=       500 IOpCl=  0 I1Cent=           0 NGrid=           0
         NMat0=   20 NMatS0=     20 NMatT0=    0 NMatD0=   20 NMtDS0=    0 NMtDT0=    0
 Symmetry not used in FoFCou.
 FMM levels:  10  Number of levels for PrismC:   9
 New state      1 was old state      7
 New state      2 was old state      6
 New state      3 was old state      2
 New state      4 was old state      3
 New state      5 was old state      1
 Excitation Energies [eV] at current iteration:
 Root      1 :     2.614156720363840
 Root      2 :     2.619872536786391
 Root      3 :     2.673321426753470
 Root      4 :     2.698346683946550
 Root      5 :     2.765173825374107
 Root      6 :     2.796380923724315
 Root      7 :     3.564938197916129
 Root      8 :     3.585834275195048
 Root      9 :     3.623025643670323
 Root     10 :     3.665170141169239
 Root     11 :     3.738020647494833
 Root     12 :     3.760744250169544
 Root     13 :     4.290303675801671
 Root     14 :     4.317003571812992
 Root     15 :     4.703588679845847
 Root     16 :     4.718171399264621
 Root     17 :     4.883168108317210
 Root     18 :     4.987071614768799
 Root     19 :     5.028683274724572
 Root     20 :     5.121351556557244
 Iteration     2 Dimension    30 NMult    20 NNew     10
 CISAX will form    10 AO SS matrices at one time.
 NMat=    10 NSing=    10 JSym2X= 0.
 New state      1 was old state      3
 Root      1 not converged, maximum delta is    0.158398748911015
 New state      2 was old state      4
 Root      2 not converged, maximum delta is    0.161055183505711
 New state      3 was old state      1
 Root      3 not converged, maximum delta is    0.381459619564476
 New state      4 was old state      2
 Root      4 not converged, maximum delta is    0.380316805126142
 Root      5 not converged, maximum delta is    0.015832043756943
 Excitation Energies [eV] at current iteration:
 Root      1 :     1.797452715399078   Change is   -0.875868711354392
 Root      2 :     1.811286045006377   Change is   -0.887060638940173
 Root      3 :     2.234983161860367   Change is   -0.379173558503472
 Root      4 :     2.239904377132341   Change is   -0.379968159654050
 Root      5 :     2.763492892297390   Change is   -0.001680933076717
 Iteration     3 Dimension    40 NMult    30 NNew     10
 CISAX will form    10 AO SS matrices at one time.
 NMat=    10 NSing=    10 JSym2X= 0.
 Root      1 not converged, maximum delta is    0.055788665774044
 Root      2 not converged, maximum delta is    0.056735567671296
 Root      3 not converged, maximum delta is    0.093328854419330
 Root      4 not converged, maximum delta is    0.092899287415234
 Root      5 has converged.
 Excitation Energies [eV] at current iteration:
 Root      1 :     1.690393857118644   Change is   -0.107058858280434
 Root      2 :     1.702797475640260   Change is   -0.108488569366117
 Root      3 :     2.194092079451504   Change is   -0.040891082408864
 Root      4 :     2.200088003731905   Change is   -0.039816373400436
 Root      5 :     2.763489735355812   Change is   -0.000003156941578
 Iteration     4 Dimension    48 NMult    40 NNew      8
 CISAX will form     8 AO SS matrices at one time.
 NMat=     8 NSing=     8 JSym2X= 0.
 Root      1 not converged, maximum delta is    0.010956229814394
 Root      2 not converged, maximum delta is    0.011051194203524
 Root      3 not converged, maximum delta is    0.015349081353437
 Root      4 not converged, maximum delta is    0.015211110601618
 Root      5 has converged.
 Excitation Energies [eV] at current iteration:
 Root      1 :     1.673645444696753   Change is   -0.016748412421890
 Root      2 :     1.685955618742134   Change is   -0.016841856898126
 Root      3 :     2.186846295775572   Change is   -0.007245783675931
 Root      4 :     2.193196079058035   Change is   -0.006891924673870
 Root      5 :     2.763489735352301   Change is   -0.000000000003510
 Iteration     5 Dimension    56 NMult    48 NNew      8
 CISAX will form     8 AO SS matrices at one time.
 NMat=     8 NSing=     8 JSym2X= 0.
 Root      1 not converged, maximum delta is    0.001785153265594
 Root      2 not converged, maximum delta is    0.001790063612668
 Root      3 not converged, maximum delta is    0.002352606363803
 Root      4 not converged, maximum delta is    0.002286561056838
 Root      5 has converged.
 Excitation Energies [eV] at current iteration:
 Root      1 :     1.671881453316217   Change is   -0.001763991380537
 Root      2 :     1.684167317105330   Change is   -0.001788301636804
 Root      3 :     2.186007378081329   Change is   -0.000838917694244
 Root      4 :     2.192406182196609   Change is   -0.000789896861426
 Root      5 :     2.763489735348702   Change is   -0.000000000003599
 Iteration     6 Dimension    64 NMult    56 NNew      8
 CISAX will form     8 AO SS matrices at one time.
 NMat=     8 NSing=     8 JSym2X= 0.
 Root      1 not converged, maximum delta is    0.001121574665694
 Root      2 not converged, maximum delta is    0.001144936816163
 Root      3 has converged.
 Root      4 has converged.
 Root      5 has converged.
 Excitation Energies [eV] at current iteration:
 Root      1 :     1.671630289734548   Change is   -0.000251163581669
 Root      2 :     1.683910280123379   Change is   -0.000257036981951
 Root      3 :     2.185880213645765   Change is   -0.000127164435563
 Root      4 :     2.192285823079942   Change is   -0.000120359116667
 Root      5 :     2.763489735348077   Change is   -0.000000000000625
 Iteration     7 Dimension    68 NMult    64 NNew      4
 CISAX will form     4 AO SS matrices at one time.
 NMat=     4 NSing=     4 JSym2X= 0.
 Root      1 has converged.
 Root      2 has converged.
 Root      3 has converged.
 Root      4 has converged.
 Root      5 has converged.
 Excitation Energies [eV] at current iteration:
 Root      1 :     1.671605920890645   Change is   -0.000024368843902
 Root      2 :     1.683885839630234   Change is   -0.000024440493145
[...]
 Alpha virt. eigenvalues --    1.85279   1.85376   1.85452   1.85528   1.85628
 Alpha virt. eigenvalues --    1.85943   1.86043   1.86418   1.86524   1.86689
 Alpha virt. eigenvalues --    1.86719   1.86858   1.86955   1.87091   1.87229
 Alpha virt. eigenvalues --    1.87527   1.87624   1.87817   1.87873   1.88040
 Alpha virt. eigenvalues --    1.88050   1.88214   1.88217   1.88605   1.88705
 Alpha virt. eigenvalues --    1.88968   1.88997   1.89108   1.89291   1.89694
 Alpha virt. eigenvalues --    1.89787   1.89913   1.89919   1.90229   1.90294
 Alpha virt. eigenvalues --    1.90937   1.90939   1.91459   1.91524   1.91616
 Alpha virt. eigenvalues --    1.91627   1.92225   1.92333   1.92693   1.92816
 Alpha virt. eigenvalues --    1.93156   1.93191   1.93503   1.93540   1.94344
 Alpha virt. eigenvalues --    1.94454   1.94852   1.94852   1.95625   1.95632
 Alpha virt. eigenvalues --    1.95854   1.95916   1.96080   1.96187   1.96221
 Alpha virt. eigenvalues --    1.96316   1.96523   1.96772   1.96966   1.97070
 Alpha virt. eigenvalues --    1.97583   1.97628   1.97847   1.98010   1.98206
 Alpha virt. eigenvalues --    1.98356   1.98398   1.98887   1.99107   1.99322
 Alpha virt. eigenvalues --    1.99965   2.00010   2.00767   2.00833   2.01142
 Alpha virt. eigenvalues --    2.01188   2.01541   2.01649   2.01680   2.01846
 Alpha virt. eigenvalues --    2.01863   2.01916   2.02749   2.02964   2.03171
 Alpha virt. eigenvalues --    2.03402   2.03420   2.03568   2.03596   2.03685
 Alpha virt. eigenvalues --    2.04067   2.04220   2.05013   2.05128   2.05665
 Alpha virt. eigenvalues --    2.05683   2.06254   2.06326   2.07086   2.07112
 Alpha virt. eigenvalues --    2.07371   2.07400   2.08582   2.08740   2.09045
 Alpha virt. eigenvalues --    2.09161   2.09654   2.09779   2.10934   2.11067
 Alpha virt. eigenvalues --    2.11364   2.11449   2.11566   2.11731   2.11898
 Alpha virt. eigenvalues --    2.11902   2.12496   2.12649   2.12835   2.12909
 Alpha virt. eigenvalues --    2.12975   2.13013   2.13657   2.13959   2.14286
 Alpha virt. eigenvalues --    2.14297   2.15441   2.15511   2.16111   2.16120
 Alpha virt. eigenvalues --    2.16626   2.16688   2.16941   2.17234   2.17589
 Alpha virt. eigenvalues --    2.17681   2.17876   2.17968   2.18042   2.18240
 Alpha virt. eigenvalues --    2.18523   2.18718   2.19066   2.19278   2.19825
 Alpha virt. eigenvalues --    2.19857   2.20221   2.20290   2.20402   2.20469
 Alpha virt. eigenvalues --    2.21202   2.21303   2.21812   2.21844   2.21924
 Alpha virt. eigenvalues --    2.21944   2.22733   2.22852   2.23386   2.23489
 Alpha virt. eigenvalues --    2.24456   2.24563   2.25034   2.25111   2.26480
 Alpha virt. eigenvalues --    2.26494   2.26951   2.27044   2.27246   2.27295
 Alpha virt. eigenvalues --    2.28314   2.28341   2.29438   2.29467   2.29917
 Alpha virt. eigenvalues --    2.29921   2.30641   2.30658   2.30864   2.31236
 Alpha virt. eigenvalues --    2.31260   2.31397   2.32271   2.32284   2.33266
 Alpha virt. eigenvalues --    2.33320   2.33519   2.33642   2.34168   2.34308
 Alpha virt. eigenvalues --    2.35346   2.35578   2.35938   2.35975   2.36369
 Alpha virt. eigenvalues --    2.36478   2.36509   2.36800   2.37714   2.37824
 Alpha virt. eigenvalues --    2.38408   2.38414   2.38804   2.39042   2.39704
 Alpha virt. eigenvalues --    2.39786   2.40295   2.40348   2.40671   2.40855
 Alpha virt. eigenvalues --    2.41237   2.41455   2.41726   2.41849   2.42175
 Alpha virt. eigenvalues --    2.42241   2.42845   2.43094   2.43124   2.43766
 Alpha virt. eigenvalues --    2.44001   2.44357   2.44835   2.44906   2.45023
 Alpha virt. eigenvalues --    2.45080   2.45609   2.45721   2.46314   2.46463
 Alpha virt. eigenvalues --    2.46538   2.46659   2.46844   2.46984   2.47418
 Alpha virt. eigenvalues --    2.47433   2.47886   2.47914   2.49413   2.49465
 Alpha virt. eigenvalues --    2.49918   2.50223   2.50476   2.50703   2.51302
 Alpha virt. eigenvalues --    2.51311   2.51636   2.52066   2.52417   2.52631
 Alpha virt. eigenvalues --    2.52985   2.53183   2.53988   2.54084   2.54299
 Alpha virt. eigenvalues --    2.54301   2.54843   2.54963   2.55686   2.55695
 Alpha virt. eigenvalues --    2.58029   2.58098   2.58806   2.58919   2.60333
 Alpha virt. eigenvalues --    2.60404   2.60790   2.60936   2.61838   2.61873
 Alpha virt. eigenvalues --    2.62449   2.62710   2.63135   2.63153   2.64107
 Alpha virt. eigenvalues --    2.64232   2.64394   2.64437   2.65116   2.65251
 Alpha virt. eigenvalues --    2.65873   2.65965   2.66835   2.66938   2.67066
 Alpha virt. eigenvalues --    2.67073   2.67996   2.68076   2.68834   2.69029
 Alpha virt. eigenvalues --    2.69058   2.69216   2.69553   2.69608   2.70155
 Alpha virt. eigenvalues --    2.70170   2.71084   2.71158   2.71916   2.72242
 Alpha virt. eigenvalues --    2.72527   2.72760   2.72843   2.73056   2.73299
 Alpha virt. eigenvalues --    2.73428   2.73511   2.73779   2.74537   2.74694
 Alpha virt. eigenvalues --    2.75077   2.75159   2.76537   2.76757   2.77103
 Alpha virt. eigenvalues --    2.77424   2.77614   2.77623   2.78302   2.78343
 Alpha virt. eigenvalues --    2.78706   2.78920   2.79171   2.79311   2.80272
 Alpha virt. eigenvalues --    2.80515   2.80717   2.80801   2.81187   2.81308
 Alpha virt. eigenvalues --    2.82028   2.82116   2.82354   2.82512   2.83857
 Alpha virt. eigenvalues --    2.83917   2.83951   2.83960   2.84547   2.84717
 Alpha virt. eigenvalues --    2.84900   2.85045   2.85699   2.85826   2.86678
 Alpha virt. eigenvalues --    2.87175   2.87201   2.87827   2.88244   2.88313
 Alpha virt. eigenvalues --    2.88642   2.88682   2.88892   2.89109   2.90662
 Alpha virt. eigenvalues --    2.90671   2.91076   2.91346   2.93328   2.93333
 Alpha virt. eigenvalues --    2.93777   2.94370   2.94574   2.94709   2.95466
 Alpha virt. eigenvalues --    2.95547   2.95870   2.96378   2.96417   2.96616
 Alpha virt. eigenvalues --    2.96895   2.97391   2.98012   2.98030   2.98367
 Alpha virt. eigenvalues --    2.98373   2.98540   2.98578   2.98785   2.98819
 Alpha virt. eigenvalues --    2.98949   2.99047   2.99734   2.99798   3.00040
 Alpha virt. eigenvalues --    3.00219   3.00338   3.00409   3.00648   3.00990
 Alpha virt. eigenvalues --    3.01899   3.02115   3.02144   3.02195   3.02835
 Alpha virt. eigenvalues --    3.02946   3.03165   3.03308   3.03482   3.03705
 Alpha virt. eigenvalues --    3.04054   3.04327   3.04432   3.04634   3.04712
 Alpha virt. eigenvalues --    3.04772   3.05351   3.05439   3.06161   3.06277
 Alpha virt. eigenvalues --    3.06931   3.06986   3.07917   3.08293   3.09354
 Alpha virt. eigenvalues --    3.09577   3.09867   3.10422   3.10615   3.10736
 Alpha virt. eigenvalues --    3.11473   3.11473   3.11896   3.12136   3.12301
 Alpha virt. eigenvalues --    3.12317   3.13470   3.13652   3.13693   3.13796
 Alpha virt. eigenvalues --    3.14322   3.14505   3.15985   3.16065   3.17448
 Alpha virt. eigenvalues --    3.17549   3.17877   3.18228   3.19041   3.19290
 Alpha virt. eigenvalues --    3.22550   3.22630   3.24132   3.24471   3.24886
 Alpha virt. eigenvalues --    3.25241   3.26674   3.26687   3.27409   3.27804
 Alpha virt. eigenvalues --    3.29261   3.29356   3.31394   3.31709   3.33194
 Alpha virt. eigenvalues --    3.33595   3.40298   3.40893   3.42818   3.42977
 Alpha virt. eigenvalues --    3.48735   3.48855   3.50200   3.50291   3.50844
 Alpha virt. eigenvalues --    3.51652   3.56726   3.57018   3.59270   3.59347
 Alpha virt. eigenvalues --    3.62542   3.63028   3.66112   3.66337   3.67442
 Alpha virt. eigenvalues --    3.67580   3.73520   3.74075   3.76295   3.76740
          Condensed to atoms (all electrons):
 Mulliken charges:
               1
     1  Mg   0.839275
     2  C   -0.002369
     3  C   -0.094133
     4  C   -0.046076
     5  C   -0.064123
     6  N   -0.256719
     7  C   -0.052282
     8  C   -0.014043
     9  C   -0.086999
    10  C    0.046386
    11  C    0.104900
    12  C    0.053442
    13  C   -0.071760
    14  H    0.036661
    15  N   -0.433031
    16  C    0.168370
    17  C   -0.177364
    18  C   -0.004267
    19  C    0.148672
    20  C    0.110289
    21  C    0.012087
    22  O   -0.250054
    23  C    0.062556
    24  N   -0.341156
    25  C    0.041124
    26  C   -0.028036
    27  C   -0.023976
    28  C    0.074957
    29  C    0.076288
    30  C    0.035189
    31  C   -0.004456
    32  N   -0.310661
    33  C    0.080821
    34  C   -0.169336
    35  C    0.008614
    36  C    0.083528
    37  C    0.127147
    38  C    0.046810
    39  O   -0.187884
    40  C   -0.005604
    41  C    0.212645
    42  O   -0.255275
    43  O   -0.305303
    44  C    0.157401
    45  H   -0.017947
    46  H   -0.017251
    47  H   -0.041605
    48  H    0.000852
    49  H   -0.004238
    50  H    0.025405
    51  H    0.016254
    52  H    0.016315
    53  H    0.011200
    54  H    0.045289
    55  H    0.017468
    56  H    0.017455
    57  H    0.005717
    58  H    0.026439
    59  H    0.039190
    60  H    0.037208
    61  H    0.035197
    62  H    0.031385
    63  H    0.016217
    64  H    0.009304
    65  H    0.022854
    66  H    0.012499
    67  H    0.004561
    68  H    0.005939
    69  H    0.004778
    70  H    0.008342
    71  H    0.017865
    72  H    0.029619
    73  H    0.048288
    74  H    0.008956
    75  H    0.045758
    76  H    0.034800
    77  H    0.042600
    78  H    0.045935
    79  H    0.055101
    80  Mg   0.837704
    81  C   -0.016828
    82  C   -0.087927
    83  C   -0.045587
    84  C   -0.064943
    85  N   -0.254496
    86  C   -0.049883
    87  C   -0.015007
    88  C   -0.090494
    89  C    0.045632
    90  C    0.114463
    91  C    0.062588
    92  C   -0.077748
    93  H    0.034891
    94  N   -0.423444
    95  C    0.162741
    96  C   -0.174859
    97  C   -0.008003
    98  C    0.151958
    99  C    0.099464
   100  C    0.015421
   101  O   -0.253421
   102  C    0.061266
   103  N   -0.350083
   104  C    0.037357
   105  C   -0.019755
   106  C   -0.034843
   107  C    0.089033
   108  C    0.073720
   109  C    0.034750
   110  C   -0.007647
   111  N   -0.324232
   112  C    0.078565
   113  C   -0.163036
   114  C    0.002778
   115  C    0.096170
   116  C    0.131676
   117  C    0.042641
   118  O   -0.185545
   119  C    0.000757
   120  C    0.211644
   121  O   -0.251029
   122  O   -0.305680
   123  C    0.151985
   124  H   -0.020027
   125  H   -0.015787
   126  H   -0.040280
   127  H   -0.000740
   128  H   -0.004543
   129  H    0.022352
   130  H    0.014340
   131  H    0.015832
   132  H    0.013858
   133  H    0.037880
   134  H    0.020552
   135  H    0.019370
   136  H    0.008522
   137  H    0.025822
   138  H    0.039566
   139  H    0.038096
   140  H    0.036176
   141  H    0.033830
   142  H    0.014268
   143  H    0.012437
   144  H    0.024944
   145  H    0.011530
   146  H    0.005625
   147  H    0.006083
   148  H    0.003733
   149  H    0.010808
   150  H    0.017937
   151  H    0.030209
   152  H    0.047102
   153  H    0.008179
   154  H    0.047581
   155  H    0.035081
   156  H    0.044211
   157  H    0.048954
   158  H    0.053784
 Sum of Mulliken charges =  -0.00000
 Mulliken charges with hydrogens summed into heavy atoms:
               1
     1  Mg   0.839275
     2  C   -0.002369
     3  C   -0.112080
     4  C   -0.063327
     5  C   -0.105727
     6  N   -0.256719
     7  C   -0.052282
     8  C   -0.013191
     9  C   -0.091237
    10  C    0.046386
    11  C    0.162874
    12  C    0.109930
    13  C   -0.000175
    15  N   -0.433031
    16  C    0.168370
    17  C   -0.177364
    18  C   -0.004267
    19  C    0.148672
    20  C    0.181635
    21  C    0.012087
    22  O   -0.250054
    23  C    0.166345
    24  N   -0.341156
    25  C    0.041124
    26  C   -0.011820
    27  C   -0.014673
    28  C    0.074957
    29  C    0.116202
    30  C    0.045906
    31  C    0.051370
    32  N   -0.310661
    33  C    0.080821
    34  C   -0.169336
    35  C    0.008614
    36  C    0.083528
    37  C    0.230150
    38  C    0.046810
    39  O   -0.187884
    40  C    0.029196
    41  C    0.212645
    42  O   -0.255275
    43  O   -0.305303
    44  C    0.301038
    80  Mg   0.837704
    81  C   -0.016828
    82  C   -0.107954
    83  C   -0.061375
    84  C   -0.105223
    85  N   -0.254496
    86  C   -0.049883
    87  C   -0.015746
    88  C   -0.095037
    89  C    0.045632
    90  C    0.166987
    91  C    0.114326
    92  C   -0.002935
    94  N   -0.423444
    95  C    0.162741
    96  C   -0.174859
    97  C   -0.008003
    98  C    0.151958
    99  C    0.173375
   100  C    0.015421
   101  O   -0.253421
   102  C    0.169368
   103  N   -0.350083
   104  C    0.037357
   105  C   -0.005487
   106  C   -0.022406
   107  C    0.089033
   108  C    0.115819
   109  C    0.044567
   110  C    0.051307
   111  N   -0.324232
   112  C    0.078565
   113  C   -0.163036
   114  C    0.002778
   115  C    0.096170
   116  C    0.234538
   117  C    0.042641
   118  O   -0.185545
   119  C    0.035838
   120  C    0.211644
   121  O   -0.251029
   122  O   -0.305680
   123  C    0.298934
 Electronic spatial extent (au):  <R**2>=         186753.5691
 Charge=             -0.0000 electrons
 Dipole moment (field-independent basis, Debye):
    X=             -0.2626    Y=              0.2788    Z=              7.8546  Tot=              7.8640
 Quadrupole moment (field-independent basis, Debye-Ang):
   XX=           -465.2203   YY=           -502.4018   ZZ=           -489.6302
   XY=            -26.2278   XZ=             -0.7462   YZ=             58.1682
 Traceless Quadrupole moment (field-independent basis, Debye-Ang):
   XX=             20.5304   YY=            -16.6510   ZZ=             -3.8794
   XY=            -26.2278   XZ=             -0.7462   YZ=             58.1682
 Octapole moment (field-independent basis, Debye-Ang**2):
  XXX=             12.6888  YYY=            418.9286  ZZZ=            179.7599  XYY=             10.9401
  XXY=            439.5674  XXZ=            618.8262  XZZ=             19.2570  YZZ=           -127.1627
  YYZ=            -62.4165  XYZ=            117.6843
 Hexadecapole moment (field-independent basis, Debye-Ang**3):
 XXXX=        -193308.0298 YYYY=         -35629.0937 ZZZZ=         -18511.0603 XXXY=          -5222.4634
 XXXZ=          -2340.9568 YYYX=            397.8683 YYYZ=            725.3860 ZZZX=            979.7241
 ZZZY=            163.0146 XXYY=         -40908.0612 XXZZ=         -34496.3874 YYZZ=          -9796.6201
 XXYZ=           2948.1881 YYXZ=           -333.2637 ZZXY=           -477.1392
 N-N= 1.389013784993D+04 E-N=-3.726185255010D+04  KE= 4.028802335538D+03
 Leave Link  601 at Sun Sep 12 03:46:48 2021, MaxMem= 23488102400 cpu:              17.1 elap:               0.8
 (Enter /sw/apps/gaussian-16.0/g16/l9999.exe)
 1\1\GINC-BP1-COMPUTE00114\SP\RCAM-B3LYP TD-FC\def2SVP\C68H72Mg2N8O8\OF
 15641\12-Sep-2021\0\\#p cam-b3lyp/Def2SVP td=(nstates=5)\\TDDFT excite
 d states in gaussian\\0,1\Mg,0,0.,0.,0.\C,0,-0.217,-2.218,2.801\C,0,-1
 .255,2.442,2.026\C,0,-0.245,1.85,-2.564\C,0,0.146,-2.824,-2.037\N,0,-0
 .617,-0.009,2.126\C,0,-0.594,-0.908,3.105\C,0,-0.936,-0.309,4.502\C,0,
 -1.773,0.964,4.032\C,0,-1.155,1.168,2.66\C,0,-3.263,0.685,3.863\C,0,0.
 345,0.11,5.299\C,0,0.124,0.397,6.787\H,0,1.168,0.033,7.733\N,0,-0.185,
 1.961,-0.152\C,0,-0.703,2.8,0.777\C,0,-0.62,4.156,0.193\C,0,-0.187,4.0
 15,-1.225\C,0,-0.214,2.583,-1.38\C,0,-0.887,5.406,0.974\C,0,0.181,5.01
 3,-2.277\O,0,0.303,4.69,-3.508\C,0,0.31,6.414,-1.837\N,0,-0.265,-0.413
 ,-2.029\C,0,-0.279,0.569,-2.937\C,0,-0.196,0.024,-4.332\C,0,0.124,-1.5
 33,-4.18\C,0,0.086,-1.632,-2.635\C,0,-1.451,0.205,-5.197\C,0,1.373,-2.
 07,-4.923\C,0,2.626,-1.49,-4.306\N,0,0.15,-2.144,0.303\C,0,0.173,-3.13
 6,-0.688\C,0,0.173,-4.438,0.004\C,0,0.133,-4.111,1.358\C,0,0.083,-2.69
 5,1.502\C,0,0.149,-5.715,-0.623\C,0,0.096,-4.629,2.716\O,0,0.208,-5.74
 7,3.221\C,0,-0.255,-3.428,3.701\C,0,0.717,-3.482,4.848\O,0,1.931,-3.25
 5,4.669\O,0,0.038,-3.556,6.003\C,0,0.943,-3.583,7.183\H,0,-1.859,3.22,
 2.497\H,0,-0.218,2.453,-3.474\H,0,0.276,-3.747,-2.605\H,0,-1.554,-0.94
 9,5.132\H,0,-1.585,1.831,4.665\H,0,-3.484,-0.377,3.969\H,0,-3.511,1.02
 7,2.858\H,0,-3.852,1.301,4.543\H,0,0.669,1.096,4.966\H,0,1.13,-0.639,5
 .189\H,0,-0.844,0.026,7.125\H,0,0.062,1.477,6.921\H,0,-1.344,5.186,1.9
 38\H,0,-1.651,5.963,0.432\H,0,0.007,6.02,1.084\H,0,-0.635,6.744,-1.405
 \H,0,0.665,6.97,-2.704\H,0,1.048,6.466,-1.036\H,0,0.608,0.501,-4.891\H
 ,0,-0.692,-2.156,-4.547\H,0,-1.267,0.74,-6.129\H,0,-2.204,0.714,-4.596
 \H,0,-1.967,-0.72,-5.453\H,0,1.356,-1.759,-5.967\H,0,1.452,-3.157,-4.9
 02\H,0,2.714,-0.522,-4.798\H,0,3.487,-2.121,-4.529\H,0,2.495,-1.303,-3
 .24\H,0,0.867,-6.333,-0.084\H,0,0.404,-5.642,-1.68\H,0,-0.891,-5.999,-
 0.463\H,0,-1.283,-3.581,4.028\H,0,0.698,-4.478,7.755\H,0,0.833,-2.619,
 7.68\H,0,2.,-3.754,6.976\Mg,0,15.77291,1.41647,1.20539\C,0,13.45024,0.
 34825,3.72396\C,0,16.90892,3.72538,3.44437\C,0,17.51464,2.67643,-1.128
 35\C,0,13.72967,-0.14751,-1.1451\N,0,15.17724,1.87912,3.28467\C,0,14.3
 2446,1.36617,4.15873\C,0,14.46838,1.92294,5.60055\C,0,15.15294,3.33193
 ,5.24701\C,0,15.82097,2.95458,3.92639\C,0,14.14722,4.43812,4.97457\C,0
 ,15.40645,1.03639,6.49278\C,0,15.34819,1.34405,7.99068\H,0,15.48619,0.
 23813,8.93427\N,0,17.34677,2.62277,1.28521\C,0,17.66739,3.47742,2.2792
 2\C,0,18.90404,4.14845,1.84962\C,0,19.19705,3.74005,0.44888\C,0,17.993
 31,2.99729,0.13359\C,0,19.72138,5.01244,2.76554\C,0,20.36156,3.98902,-
 0.46114\O,0,20.29986,3.74047,-1.71703\C,0,21.54375,4.6193,0.14439\N,0,
 15.53663,1.46915,-0.85949\C,0,16.46701,2.03596,-1.64756\C,0,16.22054,1
 .7125,-3.10187\C,0,15.06555,0.60636,-3.10621\C,0,14.76905,0.54413,-1.5
 9175\C,0,15.80151,2.88892,-3.98325\C,0,15.3648,-0.72067,-3.85595\C,0,1
 6.44772,-1.48893,-3.13314\N,0,14.02765,0.14415,1.26295\C,0,13.31573,-0
 .37763,0.16068\C,0,12.13813,-1.08824,0.69988\C,0,12.23496,-0.90956,2.0
 8812\C,0,13.38022,-0.12471,2.39123\C,0,11.1346,-1.73973,-0.07121\C,0,1
 1.6229,-1.19746,3.3653\O,0,10.67973,-1.89329,3.73944\C,0,12.3127,-0.28
 925,4.47243\C,0,12.65077,-1.16543,5.64739\O,0,13.49665,-2.07051,5.5382
 1\O,0,12.08428,-0.6543,6.75563\C,0,12.40017,-1.48257,7.94979\H,0,17.18
 328,4.6311,3.98593\H,0,18.14107,2.99414,-1.96508\H,0,13.0978,-0.74418,
 -1.80647\H,0,13.53184,2.08469,6.12064\H,0,15.89993,3.60507,5.9878\H,0,
 13.13449,4.06424,4.94778\H,0,14.42192,4.8556,4.01473\H,0,14.26996,5.24
 649,5.70108\H,0,16.45152,1.30141,6.28704\H,0,15.2131,-0.00612,6.33022\
 H,0,14.48238,1.96517,8.25053\H,0,16.21006,1.96303,8.25158\H,0,19.17068
 ,5.26193,3.6809\H,0,19.85809,5.97455,2.26004\H,0,20.70251,4.58514,2.98
 343\H,0,21.26216,5.5783,0.57275\H,0,22.30185,4.63363,-0.64107\H,0,21.8
 8767,3.99253,0.97474\H,0,17.10835,1.29536,-3.5611\H,0,14.14971,0.97546
 ,-3.59082\H,0,16.47199,3.04608,-4.84918\H,0,15.75967,3.77816,-3.3684\H
 ,0,14.78827,2.83272,-4.37744\H,0,15.74843,-0.51155,-4.85757\H,0,14.494
 1,-1.35756,-3.97106\H,0,17.3676,-1.02828,-3.50556\H,0,16.40375,-2.5456
 ,-3.38919\H,0,16.40324,-1.30949,-2.05264\H,0,10.93001,-2.6831,0.41736\
 H,0,11.45615,-1.88563,-1.10034\H,0,10.32453,-1.00962,0.00614\H,0,11.60
 533,0.4972,4.73833\H,0,11.44556,-1.76433,8.40478\H,0,13.08967,-0.8722,
 8.56281\H,0,12.84911,-2.45441,7.78115\\Version=ES64L-G16RevA.03\State=
 1-A\HF=-4069.8112634\RMSD=4.615e-09\PG=C01 [X(C68H72Mg2N8O8)]\\@


 THE MOST SERIOUS THREAT TO THE SURVIVAL OF MANKIND IS NOT NOW
 IGNORANCE IN THE TRADITIONAL SENSE,
 BUT A MORALLY NEUTRAL, AN INSENSITIVE OR INHIBITED HUMAN INTELLIGENCE.

                     -- MARGO JEFFERSON IN NEWSWEEK, SEPTEMBER 2, 1974
 Job cpu time:       0 days 11 hours 44 minutes 30.4 seconds.
 Elapsed time:       0 days  0 hours 29 minutes 55.9 seconds.
 File lengths (MBytes):  RWF=  13225 Int=      0 D2E=      0 Chk=    574 Scr=      1
 Normal termination of Gaussian 16 at Sun Sep 12 03:46:49 2021.
