 Entering Gaussian System, Link 0=g16
 Initial command:
 /sw/apps/gaussian-16.0/g16/l1.exe "/tmp/Gau-157394.inp" -scrdir="/tmp/"
 Entering Link 1 = /sw/apps/gaussian-16.0/g16/l1.exe PID=    157395.
  
 Copyright (c) 1988,1990,1992,1993,1995,1998,2003,2009,2016,
            Gaussian, Inc.  All Rights Reserved.
  
 This is part of the Gaussian(R) 16 program.  It is based on
 the Gaussian(R) 09 system (copyright 2009, Gaussian, Inc.),
 the Gaussian(R) 03 system (copyright 2003, Gaussian, Inc.),
 the Gaussian(R) 98 system (copyright 1998, Gaussian, Inc.),
 the Gaussian(R) 94 system (copyright 1995, Gaussian, Inc.),
 the Gaussian 92(TM) system (copyright 1992, Gaussian, Inc.),
 the Gaussian 90(TM) system (copyright 1990, Gaussian, Inc.),
 the Gaussian 88(TM) system (copyright 1988, Gaussian, Inc.),
 the Gaussian 86(TM) system (copyright 1986, Carnegie Mellon
 University), and the Gaussian 82(TM) system (copyright 1983,
 Carnegie Mellon University). Gaussian is a federally registered
 trademark of Gaussian, Inc.
  
 This software contains proprietary and confidential information,
 including trade secrets, belonging to Gaussian, Inc.
  
 This software is provided under written license and may be
 used, copied, transmitted, or stored only in accord with that
 written license.
  
 The following legend is applicable only to US Government
 contracts under FAR:
  
                    RESTRICTED RIGHTS LEGEND
  
 Use, reproduction and disclosure by the US Government is
 subject to restrictions as set forth in subparagraphs (a)
 and (c) of the Commercial Computer Software - Restricted
 Rights clause in FAR 52.227-19.
  
 Gaussian, Inc.
 340 Quinnipiac St., Bldg. 40, Wallingford CT 06492
  
  
 ---------------------------------------------------------------
 Warning -- This program may not be used in any manner that
 competes with the business of Gaussian, Inc. or will provide
 assistance to any competitor of Gaussian, Inc.  The licensee
 of this program is prohibited from giving any competitor of
 Gaussian, Inc. access to this program.  By using this program,
 the user acknowledges that Gaussian, Inc. is engaged in the
 business of creating and licensing software in the field of
 computational chemistry and represents and warrants to the
 licensee that it is not a competitor of Gaussian, Inc. and that
 it will not use this program in any manner prohibited above.
 ---------------------------------------------------------------
  

 Cite this work as:
 Gaussian 16, Revision A.03,
 M. J. Frisch, G. W. Trucks, H. B. Schlegel, G. E. Scuseria, 
 M. A. Robb, J. R. Cheeseman, G. Scalmani, V. Barone, 
 G. A. Petersson, H. Nakatsuji, X. Li, M. Caricato, A. V. Marenich, 
 J. Bloino, B. G. Janesko, R. Gomperts, B. Mennucci, H. P. Hratchian, 
 J. V. Ortiz, A. F. Izmaylov, J. L. Sonnenberg, D. Williams-Young, 
 F. Ding, F. Lipparini, F. Egidi, J. Goings, B. Peng, A. Petrone, 
 T. Henderson, D. Ranasinghe, V. G. Zakrzewski, J. Gao, N. Rega, 
 G. Zheng, W. Liang, M. Hada, M. Ehara, K. Toyota, R. Fukuda, 
 J. Hasegawa, M. Ishida, T. Nakajima, Y. Honda, O. Kitao, H. Nakai, 
 T. Vreven, K. Throssell, J. A. Montgomery, Jr., J. E. Peralta, 
 F. Ogliaro, M. J. Bearpark, J. J. Heyd, E. N. Brothers, K. N. Kudin, 
 V. N. Staroverov, T. A. Keith, R. Kobayashi, J. Normand, 
 K. Raghavachari, A. P. Rendell, J. C. Burant, S. S. Iyengar, 
 J. Tomasi, M. Cossi, J. M. Millam, M. Klene, C. Adamo, R. Cammi, 
 J. W. Ochterski, R. L. Martin, K. Morokuma, O. Farkas, 
 J. B. Foresman, and D. J. Fox, Gaussian, Inc., Wallingford CT, 2016.
 
 ******************************************
 Gaussian 16:  ES64L-G16RevA.03 25-Dec-2016
                 3-Sep-2021 
 ******************************************
 %nproc=24
 Will use up to   24 processors via shared memory.
 %mem=175gb
 -----------------------------------
 #p cam-b3lyp/Def2SVP td=(nstates=5)
 -----------------------------------
 1/38=1,172=1/1;
 2/12=2,17=6,18=5,40=1/2;
 3/5=43,7=101,11=9,25=1,30=1,74=-40/1,2,3,8;
 4//1;
 5/5=2,38=5/2;
 8/6=1,10=1,108=5/1;
 9/41=5,42=1,70=2/14;
 6/7=2,8=2,9=2,10=2/1;
 99/5=1,9=1/99;
 Leave Link    1 at Fri Sep  3 17:44:49 2021, MaxMem= 23488102400 cpu:               0.5 elap:               0.0
 (Enter /sw/apps/gaussian-16.0/g16/l101.exe)
 --------------------------------
 TDDFT excited states in gaussian
 --------------------------------
 Symbolic Z-matrix:
 Charge =  0 Multiplicity = 1
 Mg                    0.        0.        0. 
 C                    -0.217    -2.218     2.801 
 C                    -1.255     2.442     2.026 
 C                    -0.245     1.85     -2.564 
 C                     0.146    -2.824    -2.037 
 N                    -0.617    -0.009     2.126 
 C                    -0.594    -0.908     3.105 
 C                    -0.936    -0.309     4.502 
 C                    -1.773     0.964     4.032 
 C                    -1.155     1.168     2.66 
 C                    -3.263     0.685     3.863 
 C                     0.345     0.11      5.299 
 C                     0.124     0.397     6.787 
 H                     1.168     0.033     7.733 
 N                    -0.185     1.961    -0.152 
 C                    -0.703     2.8       0.777 
 C                    -0.62      4.156     0.193 
 C                    -0.187     4.015    -1.225 
 C                    -0.214     2.583    -1.38 
 C                    -0.887     5.406     0.974 
 C                     0.181     5.013    -2.277 
 O                     0.303     4.69     -3.508 
 C                     0.31      6.414    -1.837 
 N                    -0.265    -0.413    -2.029 
 C                    -0.279     0.569    -2.937 
 C                    -0.196     0.024    -4.332 
 C                     0.124    -1.533    -4.18 
 C                     0.086    -1.632    -2.635 
 C                    -1.451     0.205    -5.197 
 C                     1.373    -2.07     -4.923 
 C                     2.626    -1.49     -4.306 
 N                     0.15     -2.144     0.303 
 C                     0.173    -3.136    -0.688 
 C                     0.173    -4.438     0.004 
 C                     0.133    -4.111     1.358 
 C                     0.083    -2.695     1.502 
 C                     0.149    -5.715    -0.623 
 C                     0.096    -4.629     2.716 
 O                     0.208    -5.747     3.221 
 C                    -0.255    -3.428     3.701 
 C                     0.717    -3.482     4.848 
 O                     1.931    -3.255     4.669 
 O                     0.038    -3.556     6.003 
 C                     0.943    -3.583     7.183 
 H                    -1.859     3.22      2.497 
 H                    -0.218     2.453    -3.474 
 H                     0.276    -3.747    -2.605 
 H                    -1.554    -0.949     5.132 
 H                    -1.585     1.831     4.665 
 H                    -3.484    -0.377     3.969 
 H                    -3.511     1.027     2.858 
 H                    -3.852     1.301     4.543 
 H                     0.669     1.096     4.966 
 H                     1.13     -0.639     5.189 
 H                    -0.844     0.026     7.125 
 H                     0.062     1.477     6.921 
 H                    -1.344     5.186     1.938 
 H                    -1.651     5.963     0.432 
 H                     0.007     6.02      1.084 
 H                    -0.635     6.744    -1.405 
 H                     0.665     6.97     -2.704 
 H                     1.048     6.466    -1.036 
 H                     0.608     0.501    -4.891 
 H                    -0.692    -2.156    -4.547 
 H                    -1.267     0.74     -6.129 
 H                    -2.204     0.714    -4.596 
 H                    -1.967    -0.72     -5.453 
 H                     1.356    -1.759    -5.967 
 H                     1.452    -3.157    -4.902 
 H                     2.714    -0.522    -4.798 
 H                     3.487    -2.121    -4.529 
 H                     2.495    -1.303    -3.24 
 H                     0.867    -6.333    -0.084 
 H                     0.404    -5.642    -1.68 
 H                    -0.891    -5.999    -0.463 
 H                    -1.283    -3.581     4.028 
 H                     0.698    -4.478     7.755 
 H                     0.833    -2.619     7.68 
 H                     2.       -3.754     6.976 
 Mg                    7.89066   0.70362   0.60317 
 C                     8.10471  -1.93755  -1.81705 
 C                     7.04685  -1.67219   2.90059 
 C                     7.25555   3.04677   2.64613 
 C                     7.62302   2.93485  -2.06061 
 N                     7.64127  -1.48819   0.44179 
 C                     7.80901  -2.38957  -0.5141 
 C                     7.7301   -3.86242  -0.03031 
 C                     6.84434  -3.6348    1.28972 
 C                     7.22231  -2.18597   1.59087 
 C                     5.3485   -3.69374   1.0283 
 C                     9.14105  -4.45306   0.31951 
 C                     9.17524  -5.9721    0.50138 
 H                     10.36311  -6.69913   0.06221 
 N                     7.72684   0.67403   2.58076 
 C                     7.39783  -0.38173   3.35431 
 C                     7.39333   0.11892   4.7376 
 C                     7.58514   1.5943    4.70309 
 C                     7.50744   1.83692   3.2765 
 C                     7.29795  -0.7872    5.93061 
 C                     7.79012   2.61911   5.77731 
 O                     7.69627   3.87459   5.53692 
 C                     8.01154   2.10756   7.13774 
 N                     7.28452   2.67525   0.3432 
 C                     7.13084   3.49595   1.39713 
 C                     6.96074   4.929     0.95232 
 C                     7.2753    4.93237  -0.61568 
 C                     7.49538   3.41917  -0.83288 
 C                     5.58181   5.54189   1.19581 
 C                     8.36923   5.91712  -1.1119 
 C                     9.72144   5.49516  -0.58382 
 N                     8.04933   0.58361  -1.54822 
 C                     7.87659   1.63392  -2.47617 
 C                     7.96785   1.04139  -3.82635 
 C                     8.16596  -0.32703  -3.58834 
 C                     8.17587  -0.57318  -2.18876 
 C                     7.82152   1.74481  -5.05514 
 C                     8.35835  -1.62085  -4.20292 
 O                     8.52399  -2.01925  -5.35513 
 C                     8.20086  -2.73976  -3.08506 
 C                     9.3518   -3.69844  -3.22204 
 O                     10.51691  -3.32262  -3.00321 
 O                     8.87063  -4.94563  -3.37488 
 C                     9.9745   -5.9339   -3.50386 
 H                     6.55517  -2.30129   3.64313 
 H                     7.13978   3.90817   3.30799 
 H                     7.64773   3.57859  -2.94245 
 H                     7.22058  -4.53658  -0.7083 
 H                     7.16408  -4.28805   2.09743 
 H                     5.12619  -3.76169  -0.02626 
 H                     4.94125  -2.78082   1.44276 
 H                     4.89802  -4.51097   1.59885 
 H                     9.42073  -4.13621   1.33249 
 H                     9.86873  -4.16026  -0.41218 
 H                     8.26686  -6.45354   0.11924 
 H                     9.16622  -6.19379   1.57133 
 H                     7.00041  -1.80276   5.64162 
 H                     6.46509  -0.42386   6.54233 
 H                     8.20757  -0.78506   6.53496 
 H                     7.1629    1.4968    7.43648 
 H                     8.22614   2.98627   7.74904 
 H                     8.88573   1.44706   7.12518 
 H                     7.66926   5.57641   1.45427 
 H                     6.39094   5.20952  -1.20807 
 H                     5.61556   6.46357   1.80691 
 H                     4.95514   4.79617   1.66669 
 H                     5.01807   5.78272   0.29614 
 H                     8.18209   6.91987  -0.71995 
 H                     8.41952   5.99797  -2.19261 
 H                     9.73869   5.9252    0.42209 
 H                     10.51852   5.90394  -1.20156 
 H                     9.77999   4.40569  -0.4776 
 H                     8.60001   1.38482  -5.71458 
 H                     7.89007   2.82064  -4.908 
 H                     6.81303   1.43284  -5.33956 
 H                     7.23925  -3.22911  -3.24453 
 H                     9.80875  -6.47778  -4.43896 
 H                     9.95808  -6.52391  -2.56826 
 H                     10.97601  -5.54942  -3.65749 
 
 ITRead=  0  0  0  0  0  0  0  0  0  0  0  0  0  0  0  0  0  0  0  0
 ITRead=  0  0  0  0  0  0  0  0  0  0  0  0  0  0  0  0  0  0  0  0
 ITRead=  0  0  0  0  0  0  0  0  0  0  0  0  0  0  0  0  0  0  0  0
 ITRead=  0  0  0  0  0  0  0  0  0  0  0  0  0  0  0  0  0  0  0  0
 ITRead=  0  0  0  0  0  0  0  0  0  0  0  0  0  0  0  0  0  0  0  0
 ITRead=  0  0  0  0  0  0  0  0  0  0  0  0  0  0  0  0  0  0  0  0
 ITRead=  0  0  0  0  0  0  0  0  0  0  0  0  0  0  0  0  0  0  0  0
 ITRead=  0  0  0  0  0  0  0  0  0  0  0  0  0  0  0  0  0  0
 MicOpt= -1 -1 -1 -1 -1 -1 -1 -1 -1 -1 -1 -1 -1 -1 -1 -1 -1 -1 -1 -1
 MicOpt= -1 -1 -1 -1 -1 -1 -1 -1 -1 -1 -1 -1 -1 -1 -1 -1 -1 -1 -1 -1
 MicOpt= -1 -1 -1 -1 -1 -1 -1 -1 -1 -1 -1 -1 -1 -1 -1 -1 -1 -1 -1 -1
 MicOpt= -1 -1 -1 -1 -1 -1 -1 -1 -1 -1 -1 -1 -1 -1 -1 -1 -1 -1 -1 -1
 MicOpt= -1 -1 -1 -1 -1 -1 -1 -1 -1 -1 -1 -1 -1 -1 -1 -1 -1 -1 -1 -1
 MicOpt= -1 -1 -1 -1 -1 -1 -1 -1 -1 -1 -1 -1 -1 -1 -1 -1 -1 -1 -1 -1
 MicOpt= -1 -1 -1 -1 -1 -1 -1 -1 -1 -1 -1 -1 -1 -1 -1 -1 -1 -1 -1 -1
 MicOpt= -1 -1 -1 -1 -1 -1 -1 -1 -1 -1 -1 -1 -1 -1 -1 -1 -1 -1
 NAtoms=    158 NQM=      158 NQMF=       0 NMMI=      0 NMMIF=      0
                NMic=       0 NMicF=      0.
                    Isotopes and Nuclear Properties:
 (Nuclear quadrupole moments (NQMom) in fm**2, nuclear magnetic moments (NMagM)
  in nuclear magnetons)

  Atom         1           2           3           4           5           6           7           8           9          10
 IAtWgt=          24          12          12          12          12          14          12          12          12          12
 AtmWgt=  23.9850450  12.0000000  12.0000000  12.0000000  12.0000000  14.0030740  12.0000000  12.0000000  12.0000000  12.0000000
 NucSpn=           0           0           0           0           0           2           0           0           0           0
 AtZEff=  -0.0000000  -0.0000000  -0.0000000  -0.0000000  -0.0000000  -0.0000000  -0.0000000  -0.0000000  -0.0000000  -0.0000000
 NQMom=    0.0000000   0.0000000   0.0000000   0.0000000   0.0000000   2.0440000   0.0000000   0.0000000   0.0000000   0.0000000
 NMagM=    0.0000000   0.0000000   0.0000000   0.0000000   0.0000000   0.4037610   0.0000000   0.0000000   0.0000000   0.0000000
 AtZNuc=  12.0000000   6.0000000   6.0000000   6.0000000   6.0000000   7.0000000   6.0000000   6.0000000   6.0000000   6.0000000

  Atom        11          12          13          14          15          16          17          18          19          20
 IAtWgt=          12          12          12           1          14          12          12          12          12          12
 AtmWgt=  12.0000000  12.0000000  12.0000000   1.0078250  14.0030740  12.0000000  12.0000000  12.0000000  12.0000000  12.0000000
 NucSpn=           0           0           0           1           2           0           0           0           0           0
 AtZEff=  -0.0000000  -0.0000000  -0.0000000  -0.0000000  -0.0000000  -0.0000000  -0.0000000  -0.0000000  -0.0000000  -0.0000000
 NQMom=    0.0000000   0.0000000   0.0000000   0.0000000   2.0440000   0.0000000   0.0000000   0.0000000   0.0000000   0.0000000
 NMagM=    0.0000000   0.0000000   0.0000000   2.7928460   0.4037610   0.0000000   0.0000000   0.0000000   0.0000000   0.0000000
 AtZNuc=   6.0000000   6.0000000   6.0000000   1.0000000   7.0000000   6.0000000   6.0000000   6.0000000   6.0000000   6.0000000

  Atom        21          22          23          24          25          26          27          28          29          30
 IAtWgt=          12          16          12          14          12          12          12          12          12          12
 AtmWgt=  12.0000000  15.9949146  12.0000000  14.0030740  12.0000000  12.0000000  12.0000000  12.0000000  12.0000000  12.0000000
 NucSpn=           0           0           0           2           0           0           0           0           0           0
 AtZEff=  -0.0000000  -0.0000000  -0.0000000  -0.0000000  -0.0000000  -0.0000000  -0.0000000  -0.0000000  -0.0000000  -0.0000000
 NQMom=    0.0000000   0.0000000   0.0000000   2.0440000   0.0000000   0.0000000   0.0000000   0.0000000   0.0000000   0.0000000
 NMagM=    0.0000000   0.0000000   0.0000000   0.4037610   0.0000000   0.0000000   0.0000000   0.0000000   0.0000000   0.0000000
 AtZNuc=   6.0000000   8.0000000   6.0000000   7.0000000   6.0000000   6.0000000   6.0000000   6.0000000   6.0000000   6.0000000

  Atom        31          32          33          34          35          36          37          38          39          40
 IAtWgt=          12          14          12          12          12          12          12          12          16          12
 AtmWgt=  12.0000000  14.0030740  12.0000000  12.0000000  12.0000000  12.0000000  12.0000000  12.0000000  15.9949146  12.0000000
 NucSpn=           0           2           0           0           0           0           0           0           0           0
 AtZEff=  -0.0000000  -0.0000000  -0.0000000  -0.0000000  -0.0000000  -0.0000000  -0.0000000  -0.0000000  -0.0000000  -0.0000000
 NQMom=    0.0000000   2.0440000   0.0000000   0.0000000   0.0000000   0.0000000   0.0000000   0.0000000   0.0000000   0.0000000
 NMagM=    0.0000000   0.4037610   0.0000000   0.0000000   0.0000000   0.0000000   0.0000000   0.0000000   0.0000000   0.0000000
 AtZNuc=   6.0000000   7.0000000   6.0000000   6.0000000   6.0000000   6.0000000   6.0000000   6.0000000   8.0000000   6.0000000

  Atom        41          42          43          44          45          46          47          48          49          50
 IAtWgt=          12          16          16          12           1           1           1           1           1           1
 AtmWgt=  12.0000000  15.9949146  15.9949146  12.0000000   1.0078250   1.0078250   1.0078250   1.0078250   1.0078250   1.0078250
 NucSpn=           0           0           0           0           1           1           1           1           1           1
 AtZEff=  -0.0000000  -0.0000000  -0.0000000  -0.0000000  -0.0000000  -0.0000000  -0.0000000  -0.0000000  -0.0000000  -0.0000000
 NQMom=    0.0000000   0.0000000   0.0000000   0.0000000   0.0000000   0.0000000   0.0000000   0.0000000   0.0000000   0.0000000
 NMagM=    0.0000000   0.0000000   0.0000000   0.0000000   2.7928460   2.7928460   2.7928460   2.7928460   2.7928460   2.7928460
 AtZNuc=   6.0000000   8.0000000   8.0000000   6.0000000   1.0000000   1.0000000   1.0000000   1.0000000   1.0000000   1.0000000

  Atom        51          52          53          54          55          56          57          58          59          60
 IAtWgt=           1           1           1           1           1           1           1           1           1           1
 AtmWgt=   1.0078250   1.0078250   1.0078250   1.0078250   1.0078250   1.0078250   1.0078250   1.0078250   1.0078250   1.0078250
 NucSpn=           1           1           1           1           1           1           1           1           1           1
 AtZEff=  -0.0000000  -0.0000000  -0.0000000  -0.0000000  -0.0000000  -0.0000000  -0.0000000  -0.0000000  -0.0000000  -0.0000000
 NQMom=    0.0000000   0.0000000   0.0000000   0.0000000   0.0000000   0.0000000   0.0000000   0.0000000   0.0000000   0.0000000
 NMagM=    2.7928460   2.7928460   2.7928460   2.7928460   2.7928460   2.7928460   2.7928460   2.7928460   2.7928460   2.7928460
 AtZNuc=   1.0000000   1.0000000   1.0000000   1.0000000   1.0000000   1.0000000   1.0000000   1.0000000   1.0000000   1.0000000

  Atom        61          62          63          64          65          66          67          68          69          70
 IAtWgt=           1           1           1           1           1           1           1           1           1           1
 AtmWgt=   1.0078250   1.0078250   1.0078250   1.0078250   1.0078250   1.0078250   1.0078250   1.0078250   1.0078250   1.0078250
 NucSpn=           1           1           1           1           1           1           1           1           1           1
 AtZEff=  -0.0000000  -0.0000000  -0.0000000  -0.0000000  -0.0000000  -0.0000000  -0.0000000  -0.0000000  -0.0000000  -0.0000000
 NQMom=    0.0000000   0.0000000   0.0000000   0.0000000   0.0000000   0.0000000   0.0000000   0.0000000   0.0000000   0.0000000
 NMagM=    2.7928460   2.7928460   2.7928460   2.7928460   2.7928460   2.7928460   2.7928460   2.7928460   2.7928460   2.7928460
 AtZNuc=   1.0000000   1.0000000   1.0000000   1.0000000   1.0000000   1.0000000   1.0000000   1.0000000   1.0000000   1.0000000

  Atom        71          72          73          74          75          76          77          78          79          80
 IAtWgt=           1           1           1           1           1           1           1           1           1          24
 AtmWgt=   1.0078250   1.0078250   1.0078250   1.0078250   1.0078250   1.0078250   1.0078250   1.0078250   1.0078250  23.9850450
 NucSpn=           1           1           1           1           1           1           1           1           1           0
 AtZEff=  -0.0000000  -0.0000000  -0.0000000  -0.0000000  -0.0000000  -0.0000000  -0.0000000  -0.0000000  -0.0000000  -0.0000000
 NQMom=    0.0000000   0.0000000   0.0000000   0.0000000   0.0000000   0.0000000   0.0000000   0.0000000   0.0000000   0.0000000
 NMagM=    2.7928460   2.7928460   2.7928460   2.7928460   2.7928460   2.7928460   2.7928460   2.7928460   2.7928460   0.0000000
 AtZNuc=   1.0000000   1.0000000   1.0000000   1.0000000   1.0000000   1.0000000   1.0000000   1.0000000   1.0000000  12.0000000

  Atom        81          82          83          84          85          86          87          88          89          90
 IAtWgt=          12          12          12          12          14          12          12          12          12          12
 AtmWgt=  12.0000000  12.0000000  12.0000000  12.0000000  14.0030740  12.0000000  12.0000000  12.0000000  12.0000000  12.0000000
 NucSpn=           0           0           0           0           2           0           0           0           0           0
 AtZEff=  -0.0000000  -0.0000000  -0.0000000  -0.0000000  -0.0000000  -0.0000000  -0.0000000  -0.0000000  -0.0000000  -0.0000000
 NQMom=    0.0000000   0.0000000   0.0000000   0.0000000   2.0440000   0.0000000   0.0000000   0.0000000   0.0000000   0.0000000
 NMagM=    0.0000000   0.0000000   0.0000000   0.0000000   0.4037610   0.0000000   0.0000000   0.0000000   0.0000000   0.0000000
 AtZNuc=   6.0000000   6.0000000   6.0000000   6.0000000   7.0000000   6.0000000   6.0000000   6.0000000   6.0000000   6.0000000

  Atom        91          92          93          94          95          96          97          98          99         100
 IAtWgt=          12          12           1          14          12          12          12          12          12          12
 AtmWgt=  12.0000000  12.0000000   1.0078250  14.0030740  12.0000000  12.0000000  12.0000000  12.0000000  12.0000000  12.0000000
 NucSpn=           0           0           1           2           0           0           0           0           0           0
 AtZEff=  -0.0000000  -0.0000000  -0.0000000  -0.0000000  -0.0000000  -0.0000000  -0.0000000  -0.0000000  -0.0000000  -0.0000000
 NQMom=    0.0000000   0.0000000   0.0000000   2.0440000   0.0000000   0.0000000   0.0000000   0.0000000   0.0000000   0.0000000
 NMagM=    0.0000000   0.0000000   2.7928460   0.4037610   0.0000000   0.0000000   0.0000000   0.0000000   0.0000000   0.0000000
 AtZNuc=   6.0000000   6.0000000   1.0000000   7.0000000   6.0000000   6.0000000   6.0000000   6.0000000   6.0000000   6.0000000

  Atom       101         102         103         104         105         106         107         108         109         110
 IAtWgt=          16          12          14          12          12          12          12          12          12          12
 AtmWgt=  15.9949146  12.0000000  14.0030740  12.0000000  12.0000000  12.0000000  12.0000000  12.0000000  12.0000000  12.0000000
 NucSpn=           0           0           2           0           0           0           0           0           0           0
 AtZEff=  -0.0000000  -0.0000000  -0.0000000  -0.0000000  -0.0000000  -0.0000000  -0.0000000  -0.0000000  -0.0000000  -0.0000000
 NQMom=    0.0000000   0.0000000   2.0440000   0.0000000   0.0000000   0.0000000   0.0000000   0.0000000   0.0000000   0.0000000
 NMagM=    0.0000000   0.0000000   0.4037610   0.0000000   0.0000000   0.0000000   0.0000000   0.0000000   0.0000000   0.0000000
 AtZNuc=   8.0000000   6.0000000   7.0000000   6.0000000   6.0000000   6.0000000   6.0000000   6.0000000   6.0000000   6.0000000

  Atom       111         112         113         114         115         116         117         118         119         120
 IAtWgt=          14          12          12          12          12          12          12          16          12          12
 AtmWgt=  14.0030740  12.0000000  12.0000000  12.0000000  12.0000000  12.0000000  12.0000000  15.9949146  12.0000000  12.0000000
 NucSpn=           2           0           0           0           0           0           0           0           0           0
 AtZEff=  -0.0000000  -0.0000000  -0.0000000  -0.0000000  -0.0000000  -0.0000000  -0.0000000  -0.0000000  -0.0000000  -0.0000000
 NQMom=    2.0440000   0.0000000   0.0000000   0.0000000   0.0000000   0.0000000   0.0000000   0.0000000   0.0000000   0.0000000
 NMagM=    0.4037610   0.0000000   0.0000000   0.0000000   0.0000000   0.0000000   0.0000000   0.0000000   0.0000000   0.0000000
 AtZNuc=   7.0000000   6.0000000   6.0000000   6.0000000   6.0000000   6.0000000   6.0000000   8.0000000   6.0000000   6.0000000

  Atom       121         122         123         124         125         126         127         128         129         130
 IAtWgt=          16          16          12           1           1           1           1           1           1           1
 AtmWgt=  15.9949146  15.9949146  12.0000000   1.0078250   1.0078250   1.0078250   1.0078250   1.0078250   1.0078250   1.0078250
 NucSpn=           0           0           0           1           1           1           1           1           1           1
 AtZEff=  -0.0000000  -0.0000000  -0.0000000  -0.0000000  -0.0000000  -0.0000000  -0.0000000  -0.0000000  -0.0000000  -0.0000000
 NQMom=    0.0000000   0.0000000   0.0000000   0.0000000   0.0000000   0.0000000   0.0000000   0.0000000   0.0000000   0.0000000
 NMagM=    0.0000000   0.0000000   0.0000000   2.7928460   2.7928460   2.7928460   2.7928460   2.7928460   2.7928460   2.7928460
 AtZNuc=   8.0000000   8.0000000   6.0000000   1.0000000   1.0000000   1.0000000   1.0000000   1.0000000   1.0000000   1.0000000

  Atom       131         132         133         134         135         136         137         138         139         140
 IAtWgt=           1           1           1           1           1           1           1           1           1           1
 AtmWgt=   1.0078250   1.0078250   1.0078250   1.0078250   1.0078250   1.0078250   1.0078250   1.0078250   1.0078250   1.0078250
 NucSpn=           1           1           1           1           1           1           1           1           1           1
 AtZEff=  -0.0000000  -0.0000000  -0.0000000  -0.0000000  -0.0000000  -0.0000000  -0.0000000  -0.0000000  -0.0000000  -0.0000000
 NQMom=    0.0000000   0.0000000   0.0000000   0.0000000   0.0000000   0.0000000   0.0000000   0.0000000   0.0000000   0.0000000
 NMagM=    2.7928460   2.7928460   2.7928460   2.7928460   2.7928460   2.7928460   2.7928460   2.7928460   2.7928460   2.7928460
 AtZNuc=   1.0000000   1.0000000   1.0000000   1.0000000   1.0000000   1.0000000   1.0000000   1.0000000   1.0000000   1.0000000

  Atom       141         142         143         144         145         146         147         148         149         150
 IAtWgt=           1           1           1           1           1           1           1           1           1           1
 AtmWgt=   1.0078250   1.0078250   1.0078250   1.0078250   1.0078250   1.0078250   1.0078250   1.0078250   1.0078250   1.0078250
 NucSpn=           1           1           1           1           1           1           1           1           1           1
 AtZEff=  -0.0000000  -0.0000000  -0.0000000  -0.0000000  -0.0000000  -0.0000000  -0.0000000  -0.0000000  -0.0000000  -0.0000000
 NQMom=    0.0000000   0.0000000   0.0000000   0.0000000   0.0000000   0.0000000   0.0000000   0.0000000   0.0000000   0.0000000
 NMagM=    2.7928460   2.7928460   2.7928460   2.7928460   2.7928460   2.7928460   2.7928460   2.7928460   2.7928460   2.7928460
 AtZNuc=   1.0000000   1.0000000   1.0000000   1.0000000   1.0000000   1.0000000   1.0000000   1.0000000   1.0000000   1.0000000

  Atom       151         152         153         154         155         156         157         158
 IAtWgt=           1           1           1           1           1           1           1           1
 AtmWgt=   1.0078250   1.0078250   1.0078250   1.0078250   1.0078250   1.0078250   1.0078250   1.0078250
 NucSpn=           1           1           1           1           1           1           1           1
 AtZEff=  -0.0000000  -0.0000000  -0.0000000  -0.0000000  -0.0000000  -0.0000000  -0.0000000  -0.0000000
 NQMom=    0.0000000   0.0000000   0.0000000   0.0000000   0.0000000   0.0000000   0.0000000   0.0000000
 NMagM=    2.7928460   2.7928460   2.7928460   2.7928460   2.7928460   2.7928460   2.7928460   2.7928460
 AtZNuc=   1.0000000   1.0000000   1.0000000   1.0000000   1.0000000   1.0000000   1.0000000   1.0000000
 Leave Link  101 at Fri Sep  3 17:44:49 2021, MaxMem= 23488102400 cpu:               3.5 elap:               0.2
 (Enter /sw/apps/gaussian-16.0/g16/l202.exe)
 Stoichiometry    C68H72Mg2N8O8
 Framework group  C1[X(C68H72Mg2N8O8)]
 Deg. of freedom   468
 Full point group                 C1      NOp   1
 Largest Abelian subgroup         C1      NOp   1
 Largest concise Abelian subgroup C1      NOp   1
                         Standard orientation:                         
 ---------------------------------------------------------------------
 Center     Atomic      Atomic             Coordinates (Angstroms)
 Number     Number       Type             X           Y           Z
 ---------------------------------------------------------------------
      1         12           0       -3.616894    0.992055   -1.153216
      2          6           0       -4.564899   -2.390979   -0.468687
      3          6           0       -5.465197    1.903383    1.566403
      4          6           0       -3.169105    4.015714   -1.997960
      5          6           0       -2.817246   -0.041332   -4.384057
      6          7           0       -4.815542   -0.186263    0.287428
      7          6           0       -5.048817   -1.481559    0.474406
      8          6           0       -5.792262   -1.789138    1.808594
      9          6           0       -6.494468   -0.376083    2.037022
     10          6           0       -5.515798    0.506316    1.282369
     11          6           0       -7.865711   -0.263628    1.378577
     12          6           0       -4.804613   -2.133114    2.973910
     13          6           0       -5.449631   -2.759526    4.213633
     14          1           0       -4.710152   -3.772330    4.951702
     15          7           0       -3.804348    2.656278   -0.105326
     16          6           0       -4.589133    2.844050    0.982857
     17          6           0       -4.379787    4.247481    1.399074
     18          6           0       -3.555717    4.914250    0.352928
     19          6           0       -3.498036    3.882690   -0.651032
     20          6           0       -4.893088    4.808246    2.689738
     21          6           0       -2.929758    6.270290    0.266551
     22          8           0       -2.452067    6.730552   -0.826401
     23          6           0       -2.970380    7.091718    1.489927
     24          7           0       -3.279252    1.917160   -2.993817
     25          6           0       -3.059931    3.234129   -3.074275
     26          6           0       -2.566623    3.623303   -4.436306
     27          6           0       -2.260923    2.256375   -5.202994
     28          6           0       -2.736379    1.263463   -4.113803
     29          6           0       -3.526358    4.476450   -5.277174
     30          6           0       -0.837401    2.082076   -5.789187
     31          6           0        0.170487    1.976567   -4.666632
     32          7           0       -3.501128   -0.900894   -2.208861
     33          6           0       -3.168564   -1.095330   -3.557294
     34          6           0       -3.330768   -2.533485   -3.839195
     35          6           0       -3.765195   -3.076646   -2.631679
     36          6           0       -3.893047   -2.039170   -1.664420
     37          6           0       -3.139498   -3.162088   -5.101220
     38          6           0       -4.174746   -4.288351   -1.940379
     39          8           0       -4.181240   -5.487501   -2.222320
     40          6           0       -4.825496   -3.874720   -0.547087
     41          6           0       -4.220946   -4.751913    0.515156
     42          8           0       -3.013142   -4.655038    0.813805
     43          8           0       -5.199559   -5.393086    1.172238
     44          6           0       -4.669361   -6.258266    2.259669
     45          1           0       -6.199728    2.329431    2.252615
     46          1           0       -2.899559    5.028927   -2.303218
     47          1           0       -2.505032   -0.450146   -5.346786
     48          1           0       -6.546827   -2.572785    1.738211
     49          1           0       -6.519135   -0.099539    3.090889
     50          1           0       -8.078618   -1.129111    0.751258
     51          1           0       -7.825263    0.643320    0.775003
     52          1           0       -8.641197   -0.092099    2.125555
     53          1           0       -4.426058   -1.208216    3.409020
     54          1           0       -4.000726   -2.779598    2.620144
     55          1           0       -6.463322   -3.102835    4.005114
     56          1           0       -5.576916   -1.978928    4.963743
     57          1           0       -5.600444    4.131395    3.167300
     58          1           0       -5.485171    5.688803    2.441210
     59          1           0       -4.085034    5.087481    3.366058
     60          1           0       -4.008118    7.241061    1.788834
     61          1           0       -2.397665    7.991309    1.267254
     62          1           0       -2.493939    6.540609    2.301242
     63          1           0       -1.649733    4.207319   -4.368010
     64          1           0       -2.920532    2.111103   -6.058847
     65          1           0       -3.098275    5.424808   -5.602852
     66          1           0       -4.433413    4.636251   -4.694933
     67          1           0       -3.922077    3.980488   -6.163089
     68          1           0       -0.563687    2.951951   -6.385294
     69          1           0       -0.737961    1.200941   -6.423194
     70          1           0        0.368944    3.018721   -4.418918
     71          1           0        1.076249    1.478583   -5.014220
     72          1           0       -0.264921    1.508903   -3.783345
     73          1           0       -2.588947   -4.081765   -4.903590
     74          1           0       -2.595011   -2.514227   -5.787816
     75          1           0       -4.173640   -3.319582   -5.407163
     76          1           0       -5.899483   -4.030408   -0.644217
     77          1           0       -5.043076   -7.266194    2.078972
     78          1           0       -4.943240   -5.777943    3.199183
     79          1           0       -3.593033   -6.433853    2.254484
     80         12           0        3.749495   -0.039233    1.638589
     81          6           0        4.718893   -0.710760   -1.750863
     82          6           0        2.349409   -3.149057    1.696726
     83          6           0        2.492817    0.687789    4.459865
     84          6           0        4.193686    3.347748    0.948082
     85          7           0        3.616794   -1.631015    0.108592
     86          6           0        4.075477   -1.797477   -1.122769
     87          6           0        3.901902   -3.233873   -1.685091
     88          6           0        2.669794   -3.703658   -0.768537
     89          6           0        2.906041   -2.800482    0.440231
     90          6           0        1.313355   -3.361849   -1.362333
     91          6           0        5.169544   -4.126919   -1.445170
     92          6           0        5.191898   -5.437333   -2.235135
     93          1           0        6.475196   -5.932924   -2.725046
     94          7           0        3.027928   -1.215738    3.064686
     95          6           0        2.520517   -2.457383    2.916007
     96          6           0        2.106963   -2.886715    4.260927
     97          6           0        2.260145   -1.733641    5.189196
     98          6           0        2.586985   -0.680179    4.249274
     99          6           0        1.699299   -4.296776    4.575506
    100          6           0        2.121260   -1.598381    6.675338
    101          8           0        2.065712   -0.451453    7.244807
    102          6           0        1.958366   -2.846609    7.434860
    103          7           0        3.189229    1.763155    2.510263
    104          6           0        2.718191    1.805440    3.768941
    105          6           0        2.643194    3.225943    4.275864
    106          6           0        3.392751    4.114251    3.177385
    107          6           0        3.707109    3.017400    2.136481
    108          6           0        1.235966    3.777928    4.502558
    109          6           0        4.555493    5.015806    3.675258
    110          6           0        5.711279    4.158531    4.138537
    111          7           0        4.519922    1.123802   -0.011214
    112          6           0        4.591026    2.531143   -0.102958
    113          6           0        5.080733    2.854876   -1.458609
    114          6           0        5.239921    1.604191   -2.074170
    115          6           0        4.855967    0.574579   -1.173064
    116          6           0        5.272656    4.164133   -1.983154
    117          6           0        5.635372    0.921310   -3.284949
    118          8           0        6.134400    1.268431   -4.354633
    119          6           0        5.195532   -0.601947   -3.172696
    120          6           0        6.363394   -1.454401   -3.587320
    121          8           0        7.406539   -1.469795   -2.910400
    122          8           0        5.980366   -2.271081   -4.585664
    123          6           0        7.101665   -3.144300   -5.023864
    124          1           0        1.683363   -4.010819    1.748011
    125          1           0        2.169082    0.989922    5.458556
    126          1           0        4.451871    4.376628    0.688469
    127          1           0        3.626181   -3.281722   -2.731733
    128          1           0        2.763000   -4.749372   -0.487185
    129          1           0        1.403810   -2.752315   -2.249137
    130          1           0        0.779754   -2.826385   -0.587995
    131          1           0        0.741104   -4.275717   -1.545906
    132          1           0        5.139113   -4.524501   -0.422553
    133          1           0        6.067753   -3.573234   -1.638230
    134          1           0        4.444253   -5.447706   -3.037562
    135          1           0        4.883394   -6.248273   -1.570888
    136          1           0        1.524747   -4.878366    3.661891
    137          1           0        0.716673   -4.245706    5.056871
    138          1           0        2.397722   -4.796629    5.250046
    139          1           0        1.076799   -3.373950    7.078189
    140          1           0        1.965062   -2.552040    8.486077
    141          1           0        2.817399   -3.495306    7.230211
    142          1           0        3.160597    3.326716    5.222031
    143          1           0        2.707453    4.823076    2.689773
    144          1           0        1.068313    4.134569    5.536374
    145          1           0        0.521490    3.007178    4.245634
    146          1           0        0.946633    4.591459    3.839488
    147          1           0        4.236702    5.601253    4.541155
    148          1           0        4.910462    5.715792    2.926247
    149          1           0        5.428399    3.895112    5.162098
    150          1           0        6.640205    4.724888    4.119109
    151          1           0        5.766831    3.227836    3.562015
    152          1           0        6.216756    4.152592   -2.511400
    153          1           0        5.266777    4.913329   -1.194211
    154          1           0        4.396537    4.244584   -2.632165
    155          1           0        4.333448   -0.742992   -3.825770
    156          1           0        7.225175   -2.989693   -6.100215
    157          1           0        6.834578   -4.164181   -4.688848
    158          1           0        8.094366   -2.905463   -4.660612
 ---------------------------------------------------------------------
 Rotational constants (GHZ):           0.0208984           0.0154961           0.0153360
 Leave Link  202 at Fri Sep  3 17:44:49 2021, MaxMem= 23488102400 cpu:               0.2 elap:               0.0
 (Enter /sw/apps/gaussian-16.0/g16/l301.exe)
 Standard basis: def2SVP (5D, 7F)
 Ernie: Thresh=  0.10000D-02 Tol=  0.10000D-05 Strict=F.
 There are  1658 symmetry adapted cartesian basis functions of A   symmetry.
 There are  1572 symmetry adapted basis functions of A   symmetry.
  1572 basis functions,  2678 primitive gaussians,  1658 cartesian basis functions
   312 alpha electrons      312 beta electrons
       nuclear repulsion energy     15923.6070991322 Hartrees.
 IExCor=20419 DFT=T Ex+Corr=CAM-B3LYP ExCW=0 ScaHFX=  1.000000
 ScaDFX=  1.000000  1.000000  1.000000  0.810000 ScalE2=  1.000000  1.000000
 IRadAn=      5 IRanWt=     -1 IRanGd=            0 ICorTp=0 IEmpDi=  4
 HFx  wShort=  0.000000 wLong=  0.330000 cFull=  0.190000 cShort=  0.000000 cLong=  0.460000
 DFx  wShort=  0.000000 wLong=  0.330000 cFull=  0.190000 cShort=  0.000000 cLong=  0.460000
 NAtoms=  158 NActive=  158 NUniq=  158 SFac= 1.00D+00 NAtFMM=   60 NAOKFM=T Big=T
 Integral buffers will be    131072 words long.
 Raffenetti 1 integral format.
 Two-electron integral symmetry is turned on.
 Leave Link  301 at Fri Sep  3 17:44:49 2021, MaxMem= 23488102400 cpu:               1.4 elap:               0.1
 (Enter /sw/apps/gaussian-16.0/g16/l302.exe)
 NPDir=0 NMtPBC=     1 NCelOv=     1 NCel=       1 NClECP=     1 NCelD=      1
         NCelK=      1 NCelE2=     1 NClLst=     1 CellRange=     0.0.
 One-electron integrals computed using PRISM.
 One-electron integral symmetry used in STVInt
   1 Symmetry operations used in ECPInt.
 ECPInt:  NShTT=  271216 NPrTT=  987664 LenC2=  163914 LenP2D=  343738.
 LDataN:  DoStor=T MaxTD1= 4 Len=   56
 NBasis=  1572 RedAO= T EigKep=  3.35D-04  NBF=  1572
 NBsUse=  1572 1.00D-06 EigRej= -1.00D+00 NBFU=  1572
 Precomputing XC quadrature grid using
 IXCGrd= 4 IRadAn=           5 IRanWt=          -1 IRanGd=           0 AccXCQ= 0.00D+00.
 Generated NRdTot=       0 NPtTot=           0 NUsed=           0 NTot=          32
 NSgBfM=  1330  1318  1323  1324  1330 MxSgAt=   158 MxSgA2=   158.
 Leave Link  302 at Fri Sep  3 17:44:55 2021, MaxMem= 23488102400 cpu:             139.1 elap:               5.8
 (Enter /sw/apps/gaussian-16.0/g16/l303.exe)
 DipDrv:  MaxL=1.
 Leave Link  303 at Fri Sep  3 17:44:56 2021, MaxMem= 23488102400 cpu:               9.7 elap:               0.5
 (Enter /sw/apps/gaussian-16.0/g16/l308.exe)
 Leave Link  308 at Fri Sep  3 17:44:56 2021, MaxMem= 23488102400 cpu:              16.2 elap:               0.8
 (Enter /sw/apps/gaussian-16.0/g16/l401.exe)
 ExpMin= 3.36D-02 ExpMax= 4.95D+03 ExpMxC= 7.45D+02 IAcc=3 IRadAn=         5 AccDes= 0.00D+00
 Harris functional with IExCor=20419 and IRadAn=       5 diagonalized for initial guess.
 HarFok:  IExCor=20419 AccDes= 0.00D+00 IRadAn=         5 IDoV= 1 UseB2=F ITyADJ=14
 ICtDFT=  3500011 ScaDFX=  1.000000  1.000000  1.000000  1.000000
 FoFCou: FMM=F IPFlag=           0 FMFlag=      100000 FMFlg1=        2001
         NFxFlg=           0 DoJE=T BraDBF=F KetDBF=T FulRan=T
         wScrn=  0.000000 ICntrl=       500 IOpCl=  0 I1Cent=   200000004 NGrid=           0
         NMat0=    1 NMatS0=      1 NMatT0=    0 NMatD0=    1 NMtDS0=    0 NMtDT0=    0
 Petite list used in FoFCou.
 Harris En= -3918.65824480707    
 JPrj=0 DoOrth=F DoCkMO=F.
 Leave Link  401 at Fri Sep  3 17:45:05 2021, MaxMem= 23488102400 cpu:             215.3 elap:               9.0
 (Enter /sw/apps/gaussian-16.0/g16/l502.exe)
 Integral symmetry usage will be decided dynamically.
 Closed shell SCF:
 Using DIIS extrapolation, IDIIS=  1040.
 NGot= 23488102400 LenX= 23482547354 LenY= 23479796732
 Requested convergence on RMS density matrix=1.00D-08 within 128 cycles.
 Requested convergence on MAX density matrix=1.00D-06.
 Requested convergence on             energy=1.00D-06.
 No special actions if energy rises.
 Fock matrices will be formed incrementally for  20 cycles.

 Cycle   1  Pass 1  IDiag  1:
 FoFJK:  IHMeth= 1 ICntrl=       0 DoSepK=T KAlg= 0 I1Cent=           0 FoldK=F
 IRaf=         1 NMat=       1 IRICut=       1 DoRegI=T DoRafI=F ISym2E= 0 IDoP0=0 IntGTp=1.
 FoFCou: FMM=T IPFlag=           0 FMFlag=      100000 FMFlg1=        2001
         NFxFlg=           0 DoJE=T BraDBF=F KetDBF=F FulRan=T
         wScrn=  0.000000 ICntrl=       500 IOpCl=  0 I1Cent=           0 NGrid=           0
         NMat0=    1 NMatS0=      1 NMatT0=    0 NMatD0=    1 NMtDS0=    0 NMtDT0=    0
 Symmetry not used in FoFCou.
 FMM levels:  10  Number of levels for PrismC:   9
 E= -4068.95237567465    
 DIIS: error= 2.02D-02 at cycle   1 NSaved=   1.
 NSaved= 1 IEnMin= 1 EnMin= -4068.95237567465     IErMin= 1 ErrMin= 2.02D-02
 ErrMax= 2.02D-02  0.00D+00 EMaxC= 1.00D-01 BMatC= 1.69D+00 BMatP= 1.69D+00
 IDIUse=3 WtCom= 7.98D-01 WtEn= 2.02D-01
 Coeff-Com:  0.100D+01
 Coeff-En:   0.100D+01
 Coeff:      0.100D+01
 Gap=     0.120 Goal=   None    Shift=    0.000
 GapD=    0.120 DampG=1.000 DampE=0.500 DampFc=0.5000 IDamp=-1.
 Damping current iteration by 5.00D-01
 RMSDP=1.57D-03 MaxDP=1.36D-01              OVMax= 1.94D-01

 Cycle   2  Pass 1  IDiag  1:
 RMSU=  7.69D-04    CP:  9.82D-01
 E= -4069.34119505532     Delta-E=       -0.388819380674 Rises=F Damp=T
 DIIS: error= 1.26D-02 at cycle   2 NSaved=   2.
 NSaved= 2 IEnMin= 2 EnMin= -4069.34119505532     IErMin= 2 ErrMin= 1.26D-02
 ErrMax= 1.26D-02  0.00D+00 EMaxC= 1.00D-01 BMatC= 3.06D-01 BMatP= 1.69D+00
 IDIUse=3 WtCom= 8.74D-01 WtEn= 1.26D-01
 Coeff-Com: -0.214D+00 0.121D+01
 Coeff-En:   0.000D+00 0.100D+01
 Coeff:     -0.187D+00 0.119D+01
 Gap=     0.132 Goal=   None    Shift=    0.000
 RMSDP=7.64D-04 MaxDP=9.49D-02 DE=-3.89D-01 OVMax= 1.86D-01

 Cycle   3  Pass 1  IDiag  1:
 RMSU=  7.31D-04    CP:  9.68D-01  1.24D+00
 E= -4069.63240887874     Delta-E=       -0.291213823413 Rises=F Damp=F
 DIIS: error= 1.53D-02 at cycle   3 NSaved=   3.
 NSaved= 3 IEnMin= 3 EnMin= -4069.63240887874     IErMin= 2 ErrMin= 1.26D-02
 ErrMax= 1.53D-02  0.00D+00 EMaxC= 1.00D-01 BMatC= 1.99D-01 BMatP= 3.06D-01
 IDIUse=3 WtCom= 8.47D-01 WtEn= 1.53D-01
 Coeff-Com: -0.267D+00 0.650D+00 0.617D+00
 Coeff-En:   0.000D+00 0.000D+00 0.100D+01
 Coeff:     -0.226D+00 0.551D+00 0.676D+00
 Gap=     0.118 Goal=   None    Shift=    0.000
 RMSDP=5.02D-04 MaxDP=4.33D-02 DE=-2.91D-01 OVMax= 1.29D-01

 Cycle   4  Pass 1  IDiag  1:
 RMSU=  2.62D-04    CP:  9.65D-01  1.55D+00  5.11D-01
 E= -4069.76954952918     Delta-E=       -0.137140650444 Rises=F Damp=F
 DIIS: error= 6.84D-03 at cycle   4 NSaved=   4.
 NSaved= 4 IEnMin= 4 EnMin= -4069.76954952918     IErMin= 4 ErrMin= 6.84D-03
 ErrMax= 6.84D-03  0.00D+00 EMaxC= 1.00D-01 BMatC= 4.77D-02 BMatP= 1.99D-01
 IDIUse=3 WtCom= 9.32D-01 WtEn= 6.84D-02
 Coeff-Com: -0.108D+00 0.224D+00 0.406D+00 0.478D+00
 Coeff-En:   0.000D+00 0.000D+00 0.211D+00 0.789D+00
 Coeff:     -0.101D+00 0.209D+00 0.392D+00 0.500D+00
 Gap=     0.119 Goal=   None    Shift=    0.000
 RMSDP=1.93D-04 MaxDP=1.84D-02 DE=-1.37D-01 OVMax= 5.32D-02

 Cycle   5  Pass 1  IDiag  1:
 RMSU=  7.34D-05    CP:  9.64D-01  1.49D+00  6.89D-01  5.61D-01
 E= -4069.81238617593     Delta-E=       -0.042836646749 Rises=F Damp=F
 DIIS: error= 7.40D-04 at cycle   5 NSaved=   5.
 NSaved= 5 IEnMin= 5 EnMin= -4069.81238617593     IErMin= 5 ErrMin= 7.40D-04
 ErrMax= 7.40D-04  0.00D+00 EMaxC= 1.00D-01 BMatC= 1.03D-03 BMatP= 4.77D-02
 IDIUse=3 WtCom= 9.93D-01 WtEn= 7.40D-03
 Coeff-Com: -0.351D-01 0.688D-01 0.160D+00 0.245D+00 0.561D+00
 Coeff-En:   0.000D+00 0.000D+00 0.000D+00 0.000D+00 0.100D+01
 Coeff:     -0.348D-01 0.683D-01 0.159D+00 0.243D+00 0.564D+00
 Gap=     0.118 Goal=   None    Shift=    0.000
 RMSDP=3.93D-05 MaxDP=4.47D-03 DE=-4.28D-02 OVMax= 1.53D-02

 Cycle   6  Pass 1  IDiag  1:
 RMSU=  3.01D-05    CP:  9.64D-01  1.50D+00  6.82D-01  6.28D-01  7.67D-01
 E= -4069.81325447492     Delta-E=       -0.000868298990 Rises=F Damp=F
 DIIS: error= 2.15D-04 at cycle   6 NSaved=   6.
 NSaved= 6 IEnMin= 6 EnMin= -4069.81325447492     IErMin= 6 ErrMin= 2.15D-04
 ErrMax= 2.15D-04  0.00D+00 EMaxC= 1.00D-01 BMatC= 1.77D-04 BMatP= 1.03D-03
 IDIUse=3 WtCom= 9.98D-01 WtEn= 2.15D-03
 Coeff-Com:  0.197D-02-0.607D-02 0.115D-01 0.406D-01 0.319D+00 0.633D+00
 Coeff-En:   0.000D+00 0.000D+00 0.000D+00 0.000D+00 0.126D+00 0.874D+00
 Coeff:      0.197D-02-0.605D-02 0.115D-01 0.405D-01 0.318D+00 0.634D+00
 Gap=     0.118 Goal=   None    Shift=    0.000
 RMSDP=1.61D-05 MaxDP=1.24D-03 DE=-8.68D-04 OVMax= 6.91D-03

 Cycle   7  Pass 1  IDiag  1:
 RMSU=  1.07D-05    CP:  9.64D-01  1.50D+00  6.88D-01  6.27D-01  8.71D-01
                    CP:  7.24D-01
 E= -4069.81344267430     Delta-E=       -0.000188199378 Rises=F Damp=F
 DIIS: error= 9.53D-05 at cycle   7 NSaved=   7.
 NSaved= 7 IEnMin= 7 EnMin= -4069.81344267430     IErMin= 7 ErrMin= 9.53D-05
 ErrMax= 9.53D-05  0.00D+00 EMaxC= 1.00D-01 BMatC= 2.20D-05 BMatP= 1.77D-04
 IDIUse=1 WtCom= 1.00D+00 WtEn= 0.00D+00
 Coeff-Com:  0.437D-02-0.959D-02-0.858D-02-0.325D-02 0.110D+00 0.333D+00
 Coeff-Com:  0.574D+00
 Coeff:      0.437D-02-0.959D-02-0.858D-02-0.325D-02 0.110D+00 0.333D+00
 Coeff:      0.574D+00
 Gap=     0.119 Goal=   None    Shift=    0.000
 RMSDP=6.62D-06 MaxDP=1.28D-03 DE=-1.88D-04 OVMax= 3.55D-03

 Cycle   8  Pass 1  IDiag  1:
 RMSU=  4.63D-06    CP:  9.64D-01  1.50D+00  6.88D-01  6.32D-01  8.74D-01
                    CP:  8.55D-01  8.02D-01
 E= -4069.81346953647     Delta-E=       -0.000026862170 Rises=F Damp=F
 DIIS: error= 4.42D-05 at cycle   8 NSaved=   8.
 NSaved= 8 IEnMin= 8 EnMin= -4069.81346953647     IErMin= 8 ErrMin= 4.42D-05
 ErrMax= 4.42D-05  0.00D+00 EMaxC= 1.00D-01 BMatC= 4.64D-06 BMatP= 2.20D-05
 IDIUse=1 WtCom= 1.00D+00 WtEn= 0.00D+00
 Coeff-Com:  0.219D-02-0.435D-02-0.780D-02-0.123D-01-0.118D-01 0.378D-01
 Coeff-Com:  0.334D+00 0.662D+00
 Coeff:      0.219D-02-0.435D-02-0.780D-02-0.123D-01-0.118D-01 0.378D-01
 Coeff:      0.334D+00 0.662D+00
 Gap=     0.119 Goal=   None    Shift=    0.000
 RMSDP=3.27D-06 MaxDP=4.18D-04 DE=-2.69D-05 OVMax= 1.20D-03

 Cycle   9  Pass 1  IDiag  1:
 RMSU=  1.89D-06    CP:  9.64D-01  1.50D+00  6.89D-01  6.33D-01  8.92D-01
                    CP:  8.81D-01  1.00D+00  9.33D-01
 E= -4069.81347687198     Delta-E=       -0.000007335515 Rises=F Damp=F
 DIIS: error= 2.20D-05 at cycle   9 NSaved=   9.
 NSaved= 9 IEnMin= 9 EnMin= -4069.81347687198     IErMin= 9 ErrMin= 2.20D-05
 ErrMax= 2.20D-05  0.00D+00 EMaxC= 1.00D-01 BMatC= 6.86D-07 BMatP= 4.64D-06
 IDIUse=1 WtCom= 1.00D+00 WtEn= 0.00D+00
 Coeff-Com:  0.512D-03-0.868D-03-0.279D-02-0.620D-02-0.226D-01-0.352D-01
 Coeff-Com:  0.102D+00 0.338D+00 0.627D+00
 Coeff:      0.512D-03-0.868D-03-0.279D-02-0.620D-02-0.226D-01-0.352D-01
 Coeff:      0.102D+00 0.338D+00 0.627D+00
 Gap=     0.119 Goal=   None    Shift=    0.000
 RMSDP=1.35D-06 MaxDP=1.55D-04 DE=-7.34D-06 OVMax= 7.30D-04

 Cycle  10  Pass 1  IDiag  1:
 RMSU=  9.08D-07    CP:  9.64D-01  1.50D+00  6.89D-01  6.34D-01  8.95D-01
                    CP:  8.94D-01  1.04D+00  1.09D+00  1.03D+00
 E= -4069.81347834301     Delta-E=       -0.000001471028 Rises=F Damp=F
 DIIS: error= 1.03D-05 at cycle  10 NSaved=  10.
 NSaved=10 IEnMin=10 EnMin= -4069.81347834301     IErMin=10 ErrMin= 1.03D-05
 ErrMax= 1.03D-05  0.00D+00 EMaxC= 1.00D-01 BMatC= 1.49D-07 BMatP= 6.86D-07
 IDIUse=1 WtCom= 1.00D+00 WtEn= 0.00D+00
 Coeff-Com: -0.402D-03 0.845D-03 0.113D-02 0.100D-02-0.445D-02-0.295D-01
 Coeff-Com: -0.442D-01-0.653D-01 0.242D+00 0.899D+00
 Coeff:     -0.402D-03 0.845D-03 0.113D-02 0.100D-02-0.445D-02-0.295D-01
 Coeff:     -0.442D-01-0.653D-01 0.242D+00 0.899D+00
 Gap=     0.119 Goal=   None    Shift=    0.000
 RMSDP=1.14D-06 MaxDP=1.26D-04 DE=-1.47D-06 OVMax= 5.51D-04

 Cycle  11  Pass 1  IDiag  1:
 RMSU=  4.83D-07    CP:  9.64D-01  1.50D+00  6.89D-01  6.34D-01  8.97D-01
                    CP:  9.04D-01  1.09D+00  1.20D+00  1.35D+00  1.36D+00
 E= -4069.81347902363     Delta-E=       -0.000000680622 Rises=F Damp=F
 DIIS: error= 4.24D-06 at cycle  11 NSaved=  11.
 NSaved=11 IEnMin=11 EnMin= -4069.81347902363     IErMin=11 ErrMin= 4.24D-06
 ErrMax= 4.24D-06  0.00D+00 EMaxC= 1.00D-01 BMatC= 5.07D-08 BMatP= 1.49D-07
 IDIUse=1 WtCom= 1.00D+00 WtEn= 0.00D+00
 Coeff-Com: -0.314D-03 0.611D-03 0.126D-02 0.205D-02 0.426D-02-0.796D-02
 Coeff-Com: -0.407D-01-0.124D+00-0.296D-01 0.445D+00 0.750D+00
 Coeff:     -0.314D-03 0.611D-03 0.126D-02 0.205D-02 0.426D-02-0.796D-02
 Coeff:     -0.407D-01-0.124D+00-0.296D-01 0.445D+00 0.750D+00
 Gap=     0.119 Goal=   None    Shift=    0.000
 RMSDP=6.30D-07 MaxDP=5.50D-05 DE=-6.81D-07 OVMax= 3.25D-04

 Cycle  12  Pass 1  IDiag  1:
 RMSU=  2.43D-07    CP:  9.64D-01  1.50D+00  6.89D-01  6.34D-01  8.98D-01
                    CP:  9.06D-01  1.11D+00  1.26D+00  1.50D+00  1.73D+00
                    CP:  1.23D+00
 E= -4069.81347924637     Delta-E=       -0.000000222735 Rises=F Damp=F
 DIIS: error= 2.13D-06 at cycle  12 NSaved=  12.
 NSaved=12 IEnMin=12 EnMin= -4069.81347924637     IErMin=12 ErrMin= 2.13D-06
 ErrMax= 2.13D-06  0.00D+00 EMaxC= 1.00D-01 BMatC= 1.21D-08 BMatP= 5.07D-08
 IDIUse=1 WtCom= 1.00D+00 WtEn= 0.00D+00
 Coeff-Com:  0.391D-05-0.228D-04 0.145D-03 0.450D-03 0.310D-02 0.369D-02
 Coeff-Com:  0.376D-02-0.294D-01-0.638D-01-0.898D-01 0.231D+00 0.941D+00
 Coeff:      0.391D-05-0.228D-04 0.145D-03 0.450D-03 0.310D-02 0.369D-02
 Coeff:      0.376D-02-0.294D-01-0.638D-01-0.898D-01 0.231D+00 0.941D+00
 Gap=     0.119 Goal=   None    Shift=    0.000
 RMSDP=4.02D-07 MaxDP=2.37D-05 DE=-2.23D-07 OVMax= 2.23D-04

 Cycle  13  Pass 1  IDiag  1:
 RMSU=  1.51D-07    CP:  9.64D-01  1.50D+00  6.89D-01  6.34D-01  8.98D-01
                    CP:  9.06D-01  1.11D+00  1.28D+00  1.60D+00  1.95D+00
                    CP:  1.63D+00  1.32D+00
 E= -4069.81347932437     Delta-E=       -0.000000078002 Rises=F Damp=F
 DIIS: error= 1.24D-06 at cycle  13 NSaved=  13.
 NSaved=13 IEnMin=13 EnMin= -4069.81347932437     IErMin=13 ErrMin= 1.24D-06
 ErrMax= 1.24D-06  0.00D+00 EMaxC= 1.00D-01 BMatC= 6.55D-09 BMatP= 1.21D-08
 IDIUse=1 WtCom= 1.00D+00 WtEn= 0.00D+00
 Coeff-Com:  0.115D-03-0.235D-03-0.359D-03-0.455D-03 0.481D-03 0.454D-02
 Coeff-Com:  0.188D-01 0.228D-01-0.287D-01-0.234D+00-0.164D+00 0.598D+00
 Coeff-Com:  0.783D+00
 Coeff:      0.115D-03-0.235D-03-0.359D-03-0.455D-03 0.481D-03 0.454D-02
 Coeff:      0.188D-01 0.228D-01-0.287D-01-0.234D+00-0.164D+00 0.598D+00
 Coeff:      0.783D+00
 Gap=     0.119 Goal=   None    Shift=    0.000
 RMSDP=2.98D-07 MaxDP=1.96D-05 DE=-7.80D-08 OVMax= 1.65D-04

 Cycle  14  Pass 1  IDiag  1:
 RMSU=  7.00D-08    CP:  9.64D-01  1.50D+00  6.89D-01  6.34D-01  8.99D-01
                    CP:  9.06D-01  1.12D+00  1.30D+00  1.67D+00  2.12D+00
                    CP:  1.89D+00  1.83D+00  1.09D+00
 E= -4069.81347935282     Delta-E=       -0.000000028449 Rises=F Damp=F
 DIIS: error= 7.57D-07 at cycle  14 NSaved=  14.
 NSaved=14 IEnMin=14 EnMin= -4069.81347935282     IErMin=14 ErrMin= 7.57D-07
 ErrMax= 7.57D-07  0.00D+00 EMaxC= 1.00D-01 BMatC= 1.06D-09 BMatP= 6.55D-09
 IDIUse=1 WtCom= 1.00D+00 WtEn= 0.00D+00
 Coeff-Com:  0.638D-04-0.126D-03-0.235D-03-0.373D-03-0.492D-03 0.115D-02
 Coeff-Com:  0.102D-01 0.184D-01 0.438D-02-0.937D-01-0.143D+00 0.938D-01
 Coeff-Com:  0.402D+00 0.707D+00
 Coeff:      0.638D-04-0.126D-03-0.235D-03-0.373D-03-0.492D-03 0.115D-02
 Coeff:      0.102D-01 0.184D-01 0.438D-02-0.937D-01-0.143D+00 0.938D-01
 Coeff:      0.402D+00 0.707D+00
 Gap=     0.119 Goal=   None    Shift=    0.000
 RMSDP=9.22D-08 MaxDP=6.86D-06 DE=-2.84D-08 OVMax= 4.98D-05

 Cycle  15  Pass 1  IDiag  1:
 RMSU=  3.62D-08    CP:  9.64D-01  1.50D+00  6.89D-01  6.34D-01  8.99D-01
                    CP:  9.06D-01  1.12D+00  1.30D+00  1.68D+00  2.16D+00
                    CP:  1.99D+00  1.97D+00  1.33D+00  1.02D+00
 E= -4069.81347935644     Delta-E=       -0.000000003620 Rises=F Damp=F
 DIIS: error= 3.30D-07 at cycle  15 NSaved=  15.
 NSaved=15 IEnMin=15 EnMin= -4069.81347935644     IErMin=15 ErrMin= 3.30D-07
 ErrMax= 3.30D-07  0.00D+00 EMaxC= 1.00D-01 BMatC= 2.15D-10 BMatP= 1.06D-09
 IDIUse=1 WtCom= 1.00D+00 WtEn= 0.00D+00
 Coeff-Com:  0.504D-05-0.838D-05-0.299D-04-0.760D-04-0.292D-03-0.492D-03
 Coeff-Com:  0.106D-02 0.238D-02 0.792D-02 0.334D-02-0.312D-01-0.737D-01
 Coeff-Com:  0.207D-01 0.311D+00 0.759D+00
 Coeff:      0.504D-05-0.838D-05-0.299D-04-0.760D-04-0.292D-03-0.492D-03
 Coeff:      0.106D-02 0.238D-02 0.792D-02 0.334D-02-0.312D-01-0.737D-01
 Coeff:      0.207D-01 0.311D+00 0.759D+00
 Gap=     0.119 Goal=   None    Shift=    0.000
 RMSDP=3.98D-08 MaxDP=2.38D-06 DE=-3.62D-09 OVMax= 2.71D-05

 Cycle  16  Pass 1  IDiag  1:
 RMSU=  1.73D-08    CP:  9.64D-01  1.50D+00  6.89D-01  6.34D-01  8.99D-01
                    CP:  9.06D-01  1.12D+00  1.31D+00  1.68D+00  2.18D+00
                    CP:  2.02D+00  2.04D+00  1.41D+00  1.25D+00  1.13D+00
 E= -4069.81347935735     Delta-E=       -0.000000000913 Rises=F Damp=F
 DIIS: error= 1.72D-07 at cycle  16 NSaved=  16.
 NSaved=16 IEnMin=16 EnMin= -4069.81347935735     IErMin=16 ErrMin= 1.72D-07
 ErrMax= 1.72D-07  0.00D+00 EMaxC= 1.00D-01 BMatC= 6.87D-11 BMatP= 2.15D-10
 IDIUse=1 WtCom= 1.00D+00 WtEn= 0.00D+00
 Coeff-Com: -0.134D-04 0.271D-04 0.445D-04 0.518D-04-0.217D-04-0.589D-03
 Coeff-Com: -0.181D-02-0.403D-02 0.377D-02 0.249D-01 0.196D-01-0.626D-01
 Coeff-Com: -0.885D-01-0.185D-01 0.391D+00 0.736D+00
 Coeff:     -0.134D-04 0.271D-04 0.445D-04 0.518D-04-0.217D-04-0.589D-03
 Coeff:     -0.181D-02-0.403D-02 0.377D-02 0.249D-01 0.196D-01-0.626D-01
 Coeff:     -0.885D-01-0.185D-01 0.391D+00 0.736D+00
 Gap=     0.119 Goal=   None    Shift=    0.000
 RMSDP=2.09D-08 MaxDP=1.26D-06 DE=-9.13D-10 OVMax= 1.10D-05

 Cycle  17  Pass 1  IDiag  1:
 RMSU=  1.01D-08    CP:  9.64D-01  1.50D+00  6.89D-01  6.34D-01  8.99D-01
                    CP:  9.06D-01  1.12D+00  1.31D+00  1.69D+00  2.18D+00
                    CP:  2.03D+00  2.07D+00  1.46D+00  1.34D+00  1.42D+00
                    CP:  1.23D+00
 E= -4069.81347935748     Delta-E=       -0.000000000131 Rises=F Damp=F
 DIIS: error= 1.05D-07 at cycle  17 NSaved=  17.
 NSaved=17 IEnMin=17 EnMin= -4069.81347935748     IErMin=17 ErrMin= 1.05D-07
 ErrMax= 1.05D-07  0.00D+00 EMaxC= 1.00D-01 BMatC= 1.75D-11 BMatP= 6.87D-11
 IDIUse=1 WtCom= 1.00D+00 WtEn= 0.00D+00
 Coeff-Com: -0.722D-05 0.141D-04 0.282D-04 0.419D-04 0.823D-04-0.137D-03
 Coeff-Com: -0.932D-03-0.276D-02 0.101D-03 0.965D-02 0.174D-01-0.769D-02
 Coeff-Com: -0.423D-01-0.956D-01-0.295D-01 0.330D+00 0.822D+00
 Coeff:     -0.722D-05 0.141D-04 0.282D-04 0.419D-04 0.823D-04-0.137D-03
 Coeff:     -0.932D-03-0.276D-02 0.101D-03 0.965D-02 0.174D-01-0.769D-02
 Coeff:     -0.423D-01-0.956D-01-0.295D-01 0.330D+00 0.822D+00
 Gap=     0.119 Goal=   None    Shift=    0.000
 RMSDP=1.28D-08 MaxDP=7.71D-07 DE=-1.31D-10 OVMax= 8.83D-06

 Cycle  18  Pass 1  IDiag  1:
 RMSU=  4.69D-09    CP:  9.64D-01  1.50D+00  6.89D-01  6.34D-01  8.99D-01
                    CP:  9.06D-01  1.12D+00  1.31D+00  1.69D+00  2.18D+00
                    CP:  2.03D+00  2.08D+00  1.47D+00  1.41D+00  1.58D+00
                    CP:  1.64D+00  1.35D+00
 E= -4069.81347935750     Delta-E=       -0.000000000022 Rises=F Damp=F
 DIIS: error= 5.84D-08 at cycle  18 NSaved=  18.
 NSaved=18 IEnMin=18 EnMin= -4069.81347935750     IErMin=18 ErrMin= 5.84D-08
 ErrMax= 5.84D-08  0.00D+00 EMaxC= 1.00D-01 BMatC= 6.16D-12 BMatP= 1.75D-11
 IDIUse=1 WtCom= 1.00D+00 WtEn= 0.00D+00
 Coeff-Com:  0.151D-05-0.333D-05-0.277D-05 0.173D-06 0.599D-04 0.154D-03
 Coeff-Com:  0.325D-03 0.409D-04-0.108D-02-0.542D-02 0.674D-03 0.200D-01
 Coeff-Com:  0.158D-01-0.383D-01-0.162D+00-0.142D+00 0.347D+00 0.965D+00
 Coeff:      0.151D-05-0.333D-05-0.277D-05 0.173D-06 0.599D-04 0.154D-03
 Coeff:      0.325D-03 0.409D-04-0.108D-02-0.542D-02 0.674D-03 0.200D-01
 Coeff:      0.158D-01-0.383D-01-0.162D+00-0.142D+00 0.347D+00 0.965D+00
 Gap=     0.119 Goal=   None    Shift=    0.000
 RMSDP=1.06D-08 MaxDP=7.08D-07 DE=-2.18D-11 OVMax= 6.10D-06

 Cycle  19  Pass 1  IDiag  1:
 RMSU=  2.97D-09    CP:  9.64D-01  1.50D+00  6.89D-01  6.34D-01  8.99D-01
                    CP:  9.06D-01  1.12D+00  1.31D+00  1.69D+00  2.18D+00
                    CP:  2.04D+00  2.08D+00  1.48D+00  1.45D+00  1.72D+00
                    CP:  1.97D+00  1.87D+00  1.32D+00
 E= -4069.81347935741     Delta-E=        0.000000000098 Rises=F Damp=F
 DIIS: error= 3.08D-08 at cycle  19 NSaved=  19.
 NSaved=19 IEnMin=18 EnMin= -4069.81347935750     IErMin=19 ErrMin= 3.08D-08
 ErrMax= 3.08D-08  0.00D+00 EMaxC= 1.00D-01 BMatC= 2.07D-12 BMatP= 6.16D-12
 IDIUse=1 WtCom= 1.00D+00 WtEn= 0.00D+00
 Coeff-Com:  0.316D-05-0.639D-05-0.106D-04-0.133D-04 0.145D-04 0.131D-03
 Coeff-Com:  0.513D-03 0.845D-03-0.594D-03-0.661D-02-0.515D-02 0.148D-01
 Coeff-Com:  0.236D-01 0.691D-02-0.912D-01-0.197D+00-0.435D-01 0.586D+00
 Coeff-Com:  0.711D+00
 Coeff:      0.316D-05-0.639D-05-0.106D-04-0.133D-04 0.145D-04 0.131D-03
 Coeff:      0.513D-03 0.845D-03-0.594D-03-0.661D-02-0.515D-02 0.148D-01
 Coeff:      0.236D-01 0.691D-02-0.912D-01-0.197D+00-0.435D-01 0.586D+00
 Coeff:      0.711D+00
 Gap=     0.119 Goal=   None    Shift=    0.000
 RMSDP=5.45D-09 MaxDP=2.98D-07 DE= 9.82D-11 OVMax= 3.72D-06

 SCF Done:  E(RCAM-B3LYP) =  -4069.81347936     A.U. after   19 cycles
            NFock= 19  Conv=0.54D-08     -V/T= 2.0102
 KE= 4.028798524518D+03 PE=-4.132832454297D+04 EE= 1.730610543997D+04
 Leave Link  502 at Fri Sep  3 17:58:00 2021, MaxMem= 23488102400 cpu:           17892.3 elap:             774.7
 (Enter /sw/apps/gaussian-16.0/g16/l801.exe)
 DoSCS=F DFT=T ScalE2(SS,OS)=  1.000000  1.000000
 ExpMin= 3.36D-02 ExpMax= 4.95D+03 ExpMxC= 7.45D+02 IAcc=3 IRadAn=         5 AccDes= 0.00D+00
 HarFok:  IExCor=  205 AccDes= 0.00D+00 IRadAn=         5 IDoV=-2 UseB2=F ITyADJ=14
 ICtDFT= 12500011 ScaDFX=  1.000000  1.000000  1.000000  1.000000
 GSVD:  LWork=       -9588 too small for GESVD, short by       45590 words or       45590 for optimal perf.
 Largest valence mixing into a core orbital is  2.03D-04
 Largest core mixing into a valence orbital is  5.22D-05
 Range of M.O.s used for correlation:    95  1572
 NBasis=  1572 NAE=   312 NBE=   312 NFC=    94 NFV=     0
 NROrb=   1478 NOA=   218 NOB=   218 NVA=  1260 NVB=  1260
 Leave Link  801 at Fri Sep  3 17:58:01 2021, MaxMem= 23488102400 cpu:               8.8 elap:               0.4
 (Enter /sw/apps/gaussian-16.0/g16/l914.exe)
 RHF ground state
 Two-electron integrals replicated using symmetry.
 MDV= 23488102400 DFT=T DoStab=F Mixed=T DoRPA=T DoScal=F NonHer=T
 Making orbital integer symmetry assigments:
 Orbital symmetries:
       Occupied  (A) (A) (A) (A) (A) (A) (A) (A) (A) (A) (A) (A)
                 (A) (A) (A) (A) (A) (A) (A) (A) (A) (A) (A) (A)
                 (A) (A) (A) (A) (A) (A) (A) (A) (A) (A) (A) (A)
                 (A) (A) (A) (A) (A) (A) (A) (A) (A) (A) (A) (A)
                 (A) (A) (A) (A) (A) (A) (A) (A) (A) (A) (A) (A)
                 (A) (A) (A) (A) (A) (A) (A) (A) (A) (A) (A) (A)
                 (A) (A) (A) (A) (A) (A) (A) (A) (A) (A) (A) (A)
                 (A) (A) (A) (A) (A) (A) (A) (A) (A) (A) (A) (A)
                 (A) (A) (A) (A) (A) (A) (A) (A) (A) (A) (A) (A)
                 (A) (A) (A) (A) (A) (A) (A) (A) (A) (A) (A) (A)
                 (A) (A) (A) (A) (A) (A) (A) (A) (A) (A) (A) (A)
                 (A) (A) (A) (A) (A) (A) (A) (A) (A) (A) (A) (A)
                 (A) (A) (A) (A) (A) (A) (A) (A) (A) (A) (A) (A)
                 (A) (A) (A) (A) (A) (A) (A) (A) (A) (A) (A) (A)
                 (A) (A) (A) (A) (A) (A) (A) (A) (A) (A) (A) (A)
                 (A) (A) (A) (A) (A) (A) (A) (A) (A) (A) (A) (A)
                 (A) (A) (A) (A) (A) (A) (A) (A) (A) (A) (A) (A)
                 (A) (A) (A) (A) (A) (A) (A) (A) (A) (A) (A) (A)
                 (A) (A) (A) (A) (A) (A) (A) (A) (A) (A) (A) (A)
                 (A) (A) (A) (A) (A) (A) (A) (A) (A) (A) (A) (A)
                 (A) (A) (A) (A) (A) (A) (A) (A) (A) (A) (A) (A)
                 (A) (A) (A) (A) (A) (A) (A) (A) (A) (A) (A) (A)
                 (A) (A) (A) (A) (A) (A) (A) (A) (A) (A) (A) (A)
                 (A) (A) (A) (A) (A) (A) (A) (A) (A) (A) (A) (A)
                 (A) (A) (A) (A) (A) (A) (A) (A) (A) (A) (A) (A)
                 (A) (A) (A) (A) (A) (A) (A) (A) (A) (A) (A) (A)
       Virtual   (A) (A) (A) (A) (A) (A) (A) (A) (A) (A) (A) (A)
                 (A) (A) (A) (A) (A) (A) (A) (A) (A) (A) (A) (A)
                 (A) (A) (A) (A) (A) (A) (A) (A) (A) (A) (A) (A)
                 (A) (A) (A) (A) (A) (A) (A) (A) (A) (A) (A) (A)
                 (A) (A) (A) (A) (A) (A) (A) (A) (A) (A) (A) (A)
                 (A) (A) (A) (A) (A) (A) (A) (A) (A) (A) (A) (A)
                 (A) (A) (A) (A) (A) (A) (A) (A) (A) (A) (A) (A)
                 (A) (A) (A) (A) (A) (A) (A) (A) (A) (A) (A) (A)
                 (A) (A) (A) (A) (A) (A) (A) (A) (A) (A) (A) (A)
                 (A) (A) (A) (A) (A) (A) (A) (A) (A) (A) (A) (A)
                 (A) (A) (A) (A) (A) (A) (A) (A) (A) (A) (A) (A)
                 (A) (A) (A) (A) (A) (A) (A) (A) (A) (A) (A) (A)
                 (A) (A) (A) (A) (A) (A) (A) (A) (A) (A) (A) (A)
                 (A) (A) (A) (A) (A) (A) (A) (A) (A) (A) (A) (A)
                 (A) (A) (A) (A) (A) (A) (A) (A) (A) (A) (A) (A)
                 (A) (A) (A) (A) (A) (A) (A) (A) (A) (A) (A) (A)
                 (A) (A) (A) (A) (A) (A) (A) (A) (A) (A) (A) (A)
                 (A) (A) (A) (A) (A) (A) (A) (A) (A) (A) (A) (A)
                 (A) (A) (A) (A) (A) (A) (A) (A) (A) (A) (A) (A)
                 (A) (A) (A) (A) (A) (A) (A) (A) (A) (A) (A) (A)
                 (A) (A) (A) (A) (A) (A) (A) (A) (A) (A) (A) (A)
                 (A) (A) (A) (A) (A) (A) (A) (A) (A) (A) (A) (A)
                 (A) (A) (A) (A) (A) (A) (A) (A) (A) (A) (A) (A)
                 (A) (A) (A) (A) (A) (A) (A) (A) (A) (A) (A) (A)
                 (A) (A) (A) (A) (A) (A) (A) (A) (A) (A) (A) (A)
                 (A) (A) (A) (A) (A) (A) (A) (A) (A) (A) (A) (A)
                 (A) (A) (A) (A) (A) (A) (A) (A) (A) (A) (A) (A)
                 (A) (A) (A) (A) (A) (A) (A) (A) (A) (A) (A) (A)
                 (A) (A) (A) (A) (A) (A) (A) (A) (A) (A) (A) (A)
                 (A) (A) (A) (A) (A) (A) (A) (A) (A) (A) (A) (A)
                 (A) (A) (A) (A) (A) (A) (A) (A) (A) (A) (A) (A)
                 (A) (A) (A) (A) (A) (A) (A) (A) (A) (A) (A) (A)
                 (A) (A) (A) (A) (A) (A) (A) (A) (A) (A) (A) (A)
                 (A) (A) (A) (A) (A) (A) (A) (A) (A) (A) (A) (A)
                 (A) (A) (A) (A) (A) (A) (A) (A) (A) (A) (A) (A)
                 (A) (A) (A) (A) (A) (A) (A) (A) (A) (A) (A) (A)
                 (A) (A) (A) (A) (A) (A) (A) (A) (A) (A) (A) (A)
                 (A) (A) (A) (A) (A) (A) (A) (A) (A) (A) (A) (A)
                 (A) (A) (A) (A) (A) (A) (A) (A) (A) (A) (A) (A)
                 (A) (A) (A) (A) (A) (A) (A) (A) (A) (A) (A) (A)
                 (A) (A) (A) (A) (A) (A) (A) (A) (A) (A) (A) (A)
                 (A) (A) (A) (A) (A) (A) (A) (A) (A) (A) (A) (A)
                 (A) (A) (A) (A) (A) (A) (A) (A) (A) (A) (A) (A)
                 (A) (A) (A) (A) (A) (A) (A) (A) (A) (A) (A) (A)
                 (A) (A) (A) (A) (A) (A) (A) (A) (A) (A) (A) (A)
                 (A) (A) (A) (A) (A) (A) (A) (A) (A) (A) (A) (A)
                 (A) (A) (A) (A) (A) (A) (A) (A) (A) (A) (A) (A)
                 (A) (A) (A) (A) (A) (A) (A) (A) (A) (A) (A) (A)
                 (A) (A) (A) (A) (A) (A) (A) (A) (A) (A) (A) (A)
                 (A) (A) (A) (A) (A) (A) (A) (A) (A) (A) (A) (A)
                 (A) (A) (A) (A) (A) (A) (A) (A) (A) (A) (A) (A)
                 (A) (A) (A) (A) (A) (A) (A) (A) (A) (A) (A) (A)
                 (A) (A) (A) (A) (A) (A) (A) (A) (A) (A) (A) (A)
                 (A) (A) (A) (A) (A) (A) (A) (A) (A) (A) (A) (A)
                 (A) (A) (A) (A) (A) (A) (A) (A) (A) (A) (A) (A)
                 (A) (A) (A) (A) (A) (A) (A) (A) (A) (A) (A) (A)
                 (A) (A) (A) (A) (A) (A) (A) (A) (A) (A) (A) (A)
                 (A) (A) (A) (A) (A) (A) (A) (A) (A) (A) (A) (A)
                 (A) (A) (A) (A) (A) (A) (A) (A) (A) (A) (A) (A)
                 (A) (A) (A) (A) (A) (A) (A) (A) (A) (A) (A) (A)
                 (A) (A) (A) (A) (A) (A) (A) (A) (A) (A) (A) (A)
                 (A) (A) (A) (A) (A) (A) (A) (A) (A) (A) (A) (A)
                 (A) (A) (A) (A) (A) (A) (A) (A) (A) (A) (A) (A)
                 (A) (A) (A) (A) (A) (A) (A) (A) (A) (A) (A) (A)
                 (A) (A) (A) (A) (A) (A) (A) (A) (A) (A) (A) (A)
                 (A) (A) (A) (A) (A) (A) (A) (A) (A) (A) (A) (A)
                 (A) (A) (A) (A) (A) (A) (A) (A) (A) (A) (A) (A)
                 (A) (A) (A) (A) (A) (A) (A) (A) (A) (A) (A) (A)
                 (A) (A) (A) (A) (A) (A) (A) (A) (A) (A) (A) (A)
                 (A) (A) (A) (A) (A) (A) (A) (A) (A) (A) (A) (A)
                 (A) (A) (A) (A) (A) (A) (A) (A) (A) (A) (A) (A)
                 (A) (A) (A) (A) (A) (A) (A) (A) (A) (A) (A) (A)
                 (A) (A) (A) (A) (A) (A) (A) (A) (A) (A) (A) (A)
                 (A) (A) (A) (A) (A) (A) (A) (A) (A) (A) (A) (A)
                 (A) (A) (A) (A) (A) (A) (A) (A) (A) (A) (A) (A)
                 (A) (A) (A) (A) (A) (A) (A) (A) (A) (A) (A) (A)
                 (A) (A) (A) (A) (A) (A) (A) (A) (A) (A) (A) (A)
                 (A) (A) (A) (A) (A) (A) (A) (A) (A) (A) (A) (A)
                 (A) (A) (A) (A) (A) (A) (A) (A) (A) (A) (A) (A)
                 (A) (A) (A) (A) (A) (A) (A) (A) (A) (A) (A) (A)
                 (A) (A) (A) (A) (A) (A) (A) (A) (A) (A) (A) (A)
                 (A) (A) (A) (A) (A) (A) (A) (A) (A) (A) (A) (A)
                 (A) (A) (A) (A) (A) (A) (A) (A) (A) (A) (A) (A)
                 (A) (A) (A) (A) (A) (A) (A) (A) (A) (A) (A) (A)
                 (A) (A) (A) (A) (A) (A) (A) (A) (A) (A) (A) (A)
                 (A) (A) (A) (A) (A) (A) (A) (A) (A) (A) (A) (A)
                 (A) (A) (A) (A) (A) (A) (A) (A) (A) (A) (A) (A)
                 (A) (A) (A) (A) (A) (A) (A) (A) (A) (A) (A) (A)
                 (A) (A) (A) (A) (A) (A) (A) (A) (A) (A) (A) (A)
                 (A) (A) (A) (A) (A) (A) (A) (A) (A) (A) (A) (A)
                 (A) (A) (A) (A) (A) (A) (A) (A) (A) (A) (A) (A)
                 (A) (A) (A) (A) (A) (A) (A) (A) (A) (A) (A) (A)
                 (A) (A) (A) (A) (A) (A) (A) (A) (A) (A) (A) (A)
                 (A) (A) (A) (A) (A) (A) (A) (A) (A) (A) (A) (A)
                 (A) (A) (A) (A) (A) (A) (A) (A) (A) (A) (A) (A)
                 (A) (A) (A) (A) (A) (A) (A) (A) (A) (A) (A) (A)
                 (A) (A) (A) (A) (A) (A) (A) (A) (A) (A) (A) (A)
                 (A) (A) (A) (A) (A) (A) (A) (A) (A) (A) (A) (A)
                 (A) (A) (A) (A) (A) (A) (A) (A) (A) (A) (A) (A)
                 (A) (A) (A) (A) (A) (A) (A) (A) (A) (A) (A) (A)
                 (A) (A) (A) (A) (A) (A) (A) (A) (A) (A) (A) (A)
                 (A) (A) (A) (A) (A) (A) (A) (A) (A) (A) (A) (A)
                 (A) (A) (A) (A) (A) (A) (A) (A) (A) (A) (A) (A)
                 (A) (A) (A) (A) (A) (A) (A) (A) (A) (A) (A) (A)
                 (A) (A) (A) (A) (A) (A) (A) (A) (A) (A) (A) (A)
    20 initial guesses have been made.
 Convergence on wavefunction:    0.001000000000000
 Davidson Disk Diagonalization:  ConvIn= 1.00D-03 SkipCon=T Conv= 1.00D-03.
 Max sub-space:  2000 roots to seek:    20 dimension of matrix:       549360
 Iteration     1 Dimension    20 NMult     0 NNew     20
 CISAX will form    20 AO SS matrices at one time.
 NMat=    20 NSing=    20 JSym2X= 0.
 FoFJK:  IHMeth= 1 ICntrl=       0 DoSepK=T KAlg= 0 I1Cent=           0 FoldK=F
 IRaf=         1 NMat=      40 IRICut=       1 DoRegI=T DoRafI=F ISym2E= 0 IDoP0=3 IntGTp=3.
 FoFCou: FMM=T IPFlag=           0 FMFlag=      100000 FMFlg1=        2001
         NFxFlg=           0 DoJE=F BraDBF=F KetDBF=F FulRan=T
         wScrn=  0.000000 ICntrl=       500 IOpCl=  0 I1Cent=           0 NGrid=           0
         NMat0=   20 NMatS0=     20 NMatT0=    0 NMatD0=   20 NMtDS0=    0 NMtDT0=    0
 Symmetry not used in FoFCou.
 FMM levels:  10  Number of levels for PrismC:   9
 New state      2 was old state      4
 New state      3 was old state      7
 New state      4 was old state      6
 New state      5 was old state      2
 Excitation Energies [eV] at current iteration:
 Root      1 :     2.214057530366546
 Root      2 :     2.472447073094139
 Root      3 :     2.602234153713670
 Root      4 :     2.616682281983972
 Root      5 :     2.679767743877373
 Root      6 :     2.696619170345915
 Root      7 :     2.994031058694528
 Root      8 :     3.265245708093650
 Root      9 :     3.636637863730057
 Root     10 :     3.678749121122140
 Root     11 :     3.736056683967429
 Root     12 :     3.759361760279787
 Root     13 :     4.117188929831915
 Root     14 :     4.294478795670086
 Root     15 :     4.310500687470050
 Root     16 :     4.401300929262956
 Root     17 :     4.466073719613662
 Root     18 :     4.503155182329722
 Root     19 :     4.607762182152578
 Root     20 :     4.767549508090835
 Iteration     2 Dimension    30 NMult    20 NNew     10
 CISAX will form    10 AO SS matrices at one time.
 NMat=    10 NSing=    10 JSym2X= 0.
 New state      1 was old state      5
 Root      1 not converged, maximum delta is    0.240011069771214
 New state      2 was old state      4
 Root      2 not converged, maximum delta is    0.157742442736331
 New state      3 was old state      1
 Root      3 not converged, maximum delta is    0.004829955577613
 New state      4 was old state      3
 Root      4 not converged, maximum delta is    0.193370179967098
 New state      5 was old state      2
 Root      5 not converged, maximum delta is    0.006406747432251
 Excitation Energies [eV] at current iteration:
 Root      1 :     1.790994323658400   Change is   -0.888773420218973
 Root      2 :     2.113284760109331   Change is   -0.503397521874641
 Root      3 :     2.212684449508976   Change is   -0.001373080857570
 Root      4 :     2.238826675142501   Change is   -0.363407478571169
 Root      5 :     2.470841590802847   Change is   -0.001605482291291
 Iteration     3 Dimension    40 NMult    30 NNew     10
 CISAX will form    10 AO SS matrices at one time.
 NMat=    10 NSing=    10 JSym2X= 0.
 Root      1 not converged, maximum delta is    0.062424356691046
 Root      2 not converged, maximum delta is    0.298765560829015
 New state      3 was old state      4
 Root      3 not converged, maximum delta is    0.041338650313885
 New state      4 was old state      3
 Root      4 not converged, maximum delta is    0.014231747848658
 No map to state      5
 Excitation Energies [eV] at current iteration:
 Root      1 :     1.685376682735675   Change is   -0.105617640922725
 Root      2 :     1.815431503756477   Change is   -0.297853256352855
 Root      3 :     2.199344387662237   Change is   -0.039482287480263
 Root      4 :     2.212678043981255   Change is   -0.000006405527721
 Root      5 :     2.316531238542929
 Iteration     4 Dimension    50 NMult    40 NNew     10
 CISAX will form    10 AO SS matrices at one time.
 NMat=    10 NSing=    10 JSym2X= 0.
 Root      1 not converged, maximum delta is    0.015922442362735
 Root      2 not converged, maximum delta is    0.142418142415581
 Root      3 not converged, maximum delta is    0.104914643287216
 New state      4 was old state      5
 Root      4 not converged, maximum delta is    0.114957403751356
 New state      5 was old state      4
 Root      5 not converged, maximum delta is    0.003303149569416
 Excitation Energies [eV] at current iteration:
 Root      1 :     1.668503074190895   Change is   -0.016873608544780
 Root      2 :     1.697123245493351   Change is   -0.118308258263126
 Root      3 :     2.192391672702640   Change is   -0.006952714959598
 Root      4 :     2.198921879894980   Change is   -0.117609358647949
 Root      5 :     2.212677051720600   Change is   -0.000000992260655
 Iteration     5 Dimension    60 NMult    50 NNew     10
 CISAX will form    10 AO SS matrices at one time.
 NMat=    10 NSing=    10 JSym2X= 0.
 Root      1 not converged, maximum delta is    0.025035818717156
 Root      2 not converged, maximum delta is    0.025979351346225
 New state      3 was old state      4
 Root      3 not converged, maximum delta is    0.255160041871267
 New state      4 was old state      3
 Root      4 not converged, maximum delta is    0.254894687808771
 Root      5 not converged, maximum delta is    0.001112515440326
 Excitation Energies [eV] at current iteration:
 Root      1 :     1.666685503760852   Change is   -0.001817570430044
 Root      2 :     1.677900520866140   Change is   -0.019222724627211
 Root      3 :     2.185858996113724   Change is   -0.013062883781256
 Root      4 :     2.192158803855072   Change is   -0.000232868847568
 Root      5 :     2.212676837252082   Change is   -0.000000214468518
 Iteration     6 Dimension    70 NMult    60 NNew     10
 CISAX will form    10 AO SS matrices at one time.
 NMat=    10 NSing=    10 JSym2X= 0.
 Root      1 not converged, maximum delta is    0.010301537606265
 Root      2 not converged, maximum delta is    0.010420650241191
 Root      3 not converged, maximum delta is    0.029057268963719
 Root      4 not converged, maximum delta is    0.028934648737486
 Root      5 has converged.
 Excitation Energies [eV] at current iteration:
 Root      1 :     1.666420309599600   Change is   -0.000265194161252
 Root      2 :     1.675332850785390   Change is   -0.002567670080751
 Root      3 :     2.184144155666990   Change is   -0.001714840446734
 Root      4 :     2.191984029935934   Change is   -0.000174773919138
 Root      5 :     2.212676787140565   Change is   -0.000000050111518
 Iteration     7 Dimension    78 NMult    70 NNew      8
 CISAX will form     8 AO SS matrices at one time.
 NMat=     8 NSing=     8 JSym2X= 0.
 Root      1 not converged, maximum delta is    0.001973426094239
[...]
 Alpha virt. eigenvalues --    1.82809   1.82934   1.83072   1.83230   1.83466
 Alpha virt. eigenvalues --    1.83658   1.83817   1.83923   1.84170   1.84318
 Alpha virt. eigenvalues --    1.84613   1.84681   1.84732   1.85012   1.85104
 Alpha virt. eigenvalues --    1.85190   1.85332   1.85379   1.85516   1.85750
 Alpha virt. eigenvalues --    1.85796   1.86174   1.86273   1.86464   1.86618
 Alpha virt. eigenvalues --    1.86680   1.86884   1.86924   1.87002   1.87238
 Alpha virt. eigenvalues --    1.87346   1.87529   1.87745   1.87791   1.87937
 Alpha virt. eigenvalues --    1.87992   1.88201   1.88424   1.88445   1.88685
 Alpha virt. eigenvalues --    1.88897   1.89069   1.89168   1.89455   1.89529
 Alpha virt. eigenvalues --    1.89632   1.89908   1.90005   1.90085   1.90482
 Alpha virt. eigenvalues --    1.90615   1.91155   1.91201   1.91359   1.91551
 Alpha virt. eigenvalues --    1.91972   1.92079   1.92484   1.92550   1.92881
 Alpha virt. eigenvalues --    1.92966   1.93269   1.93410   1.93684   1.94224
 Alpha virt. eigenvalues --    1.94483   1.94604   1.94985   1.95428   1.95596
 Alpha virt. eigenvalues --    1.95720   1.95841   1.96066   1.96123   1.96286
 Alpha virt. eigenvalues --    1.96433   1.96525   1.96742   1.96830   1.97240
 Alpha virt. eigenvalues --    1.97351   1.97729   1.97769   1.98026   1.98049
 Alpha virt. eigenvalues --    1.98439   1.98476   1.98617   1.99021   1.99337
 Alpha virt. eigenvalues --    1.99661   2.00318   2.00563   2.00854   2.00989
 Alpha virt. eigenvalues --    2.01283   2.01352   2.01523   2.01597   2.01689
 Alpha virt. eigenvalues --    2.01891   2.02129   2.02655   2.02941   2.03153
 Alpha virt. eigenvalues --    2.03212   2.03319   2.03372   2.03678   2.03774
 Alpha virt. eigenvalues --    2.03913   2.04285   2.04859   2.05195   2.05406
 Alpha virt. eigenvalues --    2.05834   2.05940   2.06489   2.06690   2.07049
 Alpha virt. eigenvalues --    2.07277   2.07586   2.08480   2.08689   2.08840
 Alpha virt. eigenvalues --    2.09294   2.09428   2.09879   2.10755   2.11039
 Alpha virt. eigenvalues --    2.11179   2.11389   2.11594   2.11646   2.11819
 Alpha virt. eigenvalues --    2.12200   2.12326   2.12687   2.12714   2.12786
 Alpha virt. eigenvalues --    2.13098   2.13178   2.13622   2.14064   2.14145
 Alpha virt. eigenvalues --    2.14416   2.15217   2.15615   2.15780   2.16367
 Alpha virt. eigenvalues --    2.16442   2.16610   2.16890   2.17303   2.17425
 Alpha virt. eigenvalues --    2.17594   2.17769   2.17969   2.18075   2.18194
 Alpha virt. eigenvalues --    2.18458   2.18700   2.18933   2.19456   2.19600
 Alpha virt. eigenvalues --    2.19903   2.20036   2.20173   2.20520   2.20826
 Alpha virt. eigenvalues --    2.21099   2.21306   2.21559   2.21623   2.22034
 Alpha virt. eigenvalues --    2.22093   2.22581   2.23043   2.23221   2.23564
 Alpha virt. eigenvalues --    2.24316   2.24606   2.24983   2.25176   2.26110
 Alpha virt. eigenvalues --    2.26656   2.26725   2.26931   2.27239   2.27465
 Alpha virt. eigenvalues --    2.28022   2.28711   2.29162   2.29585   2.29751
 Alpha virt. eigenvalues --    2.30194   2.30310   2.30871   2.30914   2.31005
 Alpha virt. eigenvalues --    2.31155   2.31435   2.32042   2.32424   2.32982
 Alpha virt. eigenvalues --    2.33331   2.33553   2.33676   2.34092   2.34364
 Alpha virt. eigenvalues --    2.35148   2.35509   2.35658   2.36150   2.36440
 Alpha virt. eigenvalues --    2.36480   2.36585   2.36645   2.37611   2.37862
 Alpha virt. eigenvalues --    2.38184   2.38570   2.38700   2.39162   2.39471
 Alpha virt. eigenvalues --    2.39903   2.40133   2.40342   2.40417   2.41121
 Alpha virt. eigenvalues --    2.41175   2.41524   2.41670   2.41825   2.41884
 Alpha virt. eigenvalues --    2.42392   2.42913   2.42956   2.43199   2.43257
 Alpha virt. eigenvalues --    2.44009   2.44226   2.44594   2.44766   2.45045
 Alpha virt. eigenvalues --    2.45278   2.45430   2.45825   2.46169   2.46320
 Alpha virt. eigenvalues --    2.46527   2.46626   2.46722   2.47047   2.47131
 Alpha virt. eigenvalues --    2.47533   2.47625   2.48071   2.49229   2.49535
 Alpha virt. eigenvalues --    2.50031   2.50058   2.50524   2.50686   2.50953
 Alpha virt. eigenvalues --    2.51535   2.51730   2.51847   2.52275   2.52673
 Alpha virt. eigenvalues --    2.52682   2.53517   2.53807   2.54030   2.54198
 Alpha virt. eigenvalues --    2.54401   2.54668   2.54984   2.55382   2.55873
 Alpha virt. eigenvalues --    2.57740   2.58315   2.58544   2.59184   2.60003
 Alpha virt. eigenvalues --    2.60476   2.60569   2.61290   2.61598   2.62057
 Alpha virt. eigenvalues --    2.62393   2.62692   2.62813   2.63356   2.63802
 Alpha virt. eigenvalues --    2.64208   2.64499   2.64596   2.64969   2.65331
 Alpha virt. eigenvalues --    2.65637   2.66187   2.66707   2.66810   2.67018
 Alpha virt. eigenvalues --    2.67387   2.67802   2.68248   2.68698   2.68854
 Alpha virt. eigenvalues --    2.69027   2.69285   2.69326   2.69884   2.69889
 Alpha virt. eigenvalues --    2.70365   2.70842   2.71360   2.71844   2.72089
 Alpha virt. eigenvalues --    2.72436   2.72577   2.72675   2.73034   2.73160
 Alpha virt. eigenvalues --    2.73244   2.73439   2.73642   2.74357   2.74708
 Alpha virt. eigenvalues --    2.74813   2.75293   2.76498   2.76715   2.77041
 Alpha virt. eigenvalues --    2.77272   2.77318   2.77832   2.78053   2.78467
 Alpha virt. eigenvalues --    2.78524   2.78862   2.78996   2.79404   2.80151
 Alpha virt. eigenvalues --    2.80377   2.80448   2.80903   2.80917   2.81339
 Alpha virt. eigenvalues --    2.81763   2.82202   2.82223   2.82544   2.83519
 Alpha virt. eigenvalues --    2.83649   2.84030   2.84082   2.84412   2.84690
 Alpha virt. eigenvalues --    2.84800   2.85015   2.85573   2.85851   2.86793
 Alpha virt. eigenvalues --    2.86824   2.87350   2.87362   2.88032   2.88379
 Alpha virt. eigenvalues --    2.88403   2.88794   2.88838   2.89048   2.90380
 Alpha virt. eigenvalues --    2.90920   2.91128   2.91293   2.93005   2.93600
 Alpha virt. eigenvalues --    2.94020   2.94107   2.94482   2.94713   2.95219
 Alpha virt. eigenvalues --    2.95809   2.95900   2.96026   2.96372   2.96562
 Alpha virt. eigenvalues --    2.96926   2.97079   2.97609   2.98069   2.98190
 Alpha virt. eigenvalues --    2.98233   2.98426   2.98649   2.98745   2.98851
 Alpha virt. eigenvalues --    2.99061   2.99161   2.99558   2.99769   2.99951
 Alpha virt. eigenvalues --    3.00082   3.00265   3.00297   3.00556   3.01310
 Alpha virt. eigenvalues --    3.01887   3.01943   3.02159   3.02401   3.02485
 Alpha virt. eigenvalues --    3.02834   3.02987   3.03230   3.03652   3.04044
 Alpha virt. eigenvalues --    3.04165   3.04296   3.04407   3.04608   3.04720
 Alpha virt. eigenvalues --    3.04952   3.05245   3.05530   3.06019   3.06334
 Alpha virt. eigenvalues --    3.06674   3.07263   3.08056   3.08143   3.09256
 Alpha virt. eigenvalues --    3.09481   3.09588   3.10333   3.10789   3.11101
 Alpha virt. eigenvalues --    3.11279   3.11561   3.11763   3.12031   3.12226
 Alpha virt. eigenvalues --    3.12631   3.13141   3.13564   3.13785   3.13825
 Alpha virt. eigenvalues --    3.13946   3.14640   3.15943   3.16080   3.17089
 Alpha virt. eigenvalues --    3.17702   3.17973   3.17993   3.19004   3.19194
 Alpha virt. eigenvalues --    3.21948   3.22772   3.23777   3.24418   3.24625
 Alpha virt. eigenvalues --    3.25357   3.26348   3.26863   3.27462   3.27616
 Alpha virt. eigenvalues --    3.28717   3.29386   3.31356   3.31586   3.33278
 Alpha virt. eigenvalues --    3.33396   3.40235   3.40392   3.42683   3.42975
 Alpha virt. eigenvalues --    3.48452   3.48869   3.49888   3.50517   3.51069
 Alpha virt. eigenvalues --    3.51341   3.56408   3.57182   3.58996   3.59507
 Alpha virt. eigenvalues --    3.62649   3.62690   3.66043   3.66213   3.66819
 Alpha virt. eigenvalues --    3.67680   3.72913   3.74156   3.75747   3.76817
          Condensed to atoms (all electrons):
 Mulliken charges:
               1
     1  Mg   0.839122
     2  C   -0.004185
     3  C   -0.093482
     4  C   -0.045320
     5  C   -0.063969
     6  N   -0.256987
     7  C   -0.052320
     8  C   -0.014280
     9  C   -0.087253
    10  C    0.046812
    11  C    0.104667
    12  C    0.053335
    13  C   -0.071332
    14  H    0.033411
    15  N   -0.433343
    16  C    0.169169
    17  C   -0.176714
    18  C   -0.003862
    19  C    0.149407
    20  C    0.110016
    21  C    0.012003
    22  O   -0.249038
    23  C    0.062262
    24  N   -0.341282
    25  C    0.041900
    26  C   -0.028378
    27  C   -0.024052
    28  C    0.075289
    29  C    0.076039
    30  C    0.034811
    31  C   -0.005480
    32  N   -0.310068
    33  C    0.079779
    34  C   -0.171293
    35  C    0.007290
    36  C    0.081987
    37  C    0.127727
    38  C    0.043640
    39  O   -0.190133
    40  C   -0.004705
    41  C    0.213690
    42  O   -0.262031
    43  O   -0.303438
    44  C    0.158472
    45  H   -0.017096
    46  H   -0.016262
    47  H   -0.041070
    48  H    0.000660
    49  H   -0.003291
    50  H    0.025423
    51  H    0.016780
    52  H    0.017179
    53  H    0.013333
    54  H    0.041611
    55  H    0.018213
    56  H    0.019722
    57  H    0.006584
    58  H    0.027229
    59  H    0.040287
    60  H    0.038070
    61  H    0.035658
    62  H    0.030935
    63  H    0.017304
    64  H    0.009659
    65  H    0.023877
    66  H    0.012224
    67  H    0.005205
    68  H    0.007981
    69  H    0.004847
    70  H    0.009043
    71  H    0.022153
    72  H    0.027434
    73  H    0.045297
    74  H    0.009887
    75  H    0.046574
    76  H    0.035887
    77  H    0.043717
    78  H    0.047410
    79  H    0.050010
    80  Mg   0.836445
    81  C   -0.016700
    82  C   -0.086165
    83  C   -0.046814
    84  C   -0.064669
    85  N   -0.255026
    86  C   -0.049373
    87  C   -0.015210
    88  C   -0.089882
    89  C    0.043175
    90  C    0.112552
    91  C    0.062425
    92  C   -0.077362
    93  H    0.032711
    94  N   -0.423800
    95  C    0.161695
    96  C   -0.172072
    97  C   -0.009423
    98  C    0.153013
    99  C    0.099330
   100  C    0.014824
   101  O   -0.254951
   102  C    0.061579
   103  N   -0.350389
   104  C    0.037584
   105  C   -0.019483
   106  C   -0.035104
   107  C    0.088605
   108  C    0.074341
   109  C    0.035019
   110  C   -0.007508
   111  N   -0.323999
   112  C    0.077686
   113  C   -0.163488
   114  C    0.001833
   115  C    0.095894
   116  C    0.131690
   117  C    0.041216
   118  O   -0.189792
   119  C    0.001105
   120  C    0.211358
   121  O   -0.251115
   122  O   -0.305783
   123  C    0.152203
   124  H   -0.008495
   125  H   -0.017549
   126  H   -0.040777
   127  H   -0.001519
   128  H   -0.003362
   129  H    0.017716
   130  H    0.021312
   131  H    0.027498
   132  H    0.013584
   133  H    0.036299
   134  H    0.021482
   135  H    0.020472
   136  H    0.012958
   137  H    0.025824
   138  H    0.038163
   139  H    0.037686
   140  H    0.034975
   141  H    0.034177
   142  H    0.013791
   143  H    0.012717
   144  H    0.023035
   145  H    0.011005
   146  H    0.003129
   147  H    0.004786
   148  H    0.003952
   149  H    0.010248
   150  H    0.017512
   151  H    0.030847
   152  H    0.045018
   153  H    0.008417
   154  H    0.046544
   155  H    0.033676
   156  H    0.042901
   157  H    0.050223
   158  H    0.053226
 Sum of Mulliken charges =  -0.00000
 Mulliken charges with hydrogens summed into heavy atoms:
               1
     1  Mg   0.839122
     2  C   -0.004185
     3  C   -0.110578
     4  C   -0.061582
     5  C   -0.105039
     6  N   -0.256987
     7  C   -0.052320
     8  C   -0.013620
     9  C   -0.090544
    10  C    0.046812
    11  C    0.164049
    12  C    0.108279
    13  C    0.000014
    15  N   -0.433343
    16  C    0.169169
    17  C   -0.176714
    18  C   -0.003862
    19  C    0.149407
    20  C    0.184115
    21  C    0.012003
    22  O   -0.249038
    23  C    0.166925
    24  N   -0.341282
    25  C    0.041900
    26  C   -0.011073
    27  C   -0.014393
    28  C    0.075289
    29  C    0.117344
    30  C    0.047639
    31  C    0.053149
    32  N   -0.310068
    33  C    0.079779
    34  C   -0.171293
    35  C    0.007290
    36  C    0.081987
    37  C    0.229485
    38  C    0.043640
    39  O   -0.190133
    40  C    0.031182
    41  C    0.213690
    42  O   -0.262031
    43  O   -0.303438
    44  C    0.299610
    80  Mg   0.836445
    81  C   -0.016700
    82  C   -0.094660
    83  C   -0.064363
    84  C   -0.105446
    85  N   -0.255026
    86  C   -0.049373
    87  C   -0.016729
    88  C   -0.093244
    89  C    0.043175
    90  C    0.179078
    91  C    0.112307
    92  C   -0.002697
    94  N   -0.423800
    95  C    0.161695
    96  C   -0.172072
    97  C   -0.009423
    98  C    0.153013
    99  C    0.176275
   100  C    0.014824
   101  O   -0.254951
   102  C    0.168417
   103  N   -0.350389
   104  C    0.037584
   105  C   -0.005692
   106  C   -0.022387
   107  C    0.088605
   108  C    0.111509
   109  C    0.043757
   110  C    0.051099
   111  N   -0.323999
   112  C    0.077686
   113  C   -0.163488
   114  C    0.001833
   115  C    0.095894
   116  C    0.231670
   117  C    0.041216
   118  O   -0.189792
   119  C    0.034781
   120  C    0.211358
   121  O   -0.251115
   122  O   -0.305783
   123  C    0.298552
 Electronic spatial extent (au):  <R**2>=          88037.6378
 Charge=             -0.0000 electrons
 Dipole moment (field-independent basis, Debye):
    X=             -6.0844    Y=             -0.4755    Z=              3.4381  Tot=              7.0048
 Quadrupole moment (field-independent basis, Debye-Ang):
   XX=           -519.3575   YY=           -497.4035   ZZ=           -503.4082
   XY=            -21.4744   XZ=             -9.6690   YZ=              0.6739
 Traceless Quadrupole moment (field-independent basis, Debye-Ang):
   XX=            -12.6344   YY=              9.3196   ZZ=              3.3149
   XY=            -21.4744   XZ=             -9.6690   YZ=              0.6739
 Octapole moment (field-independent basis, Debye-Ang**2):
  XXX=           -437.7115  YYY=            -85.4483  ZZZ=           -272.1316  XYY=            185.4599
  XXY=            -12.7148  XXZ=            225.3248  XZZ=           -136.1928  YZZ=           -102.0112
  YYZ=            266.6393  XYZ=            114.9614
 Hexadecapole moment (field-independent basis, Debye-Ang**3):
 XXXX=         -55405.3551 YYYY=         -33531.9899 ZZZZ=         -33167.9462 XXXY=           -571.3077
 XXXZ=           -480.0859 YYYX=             -9.8973 YYYZ=           -117.1657 ZZZX=           -308.3449
 ZZZY=           -346.1762 XXYY=         -13910.8501 XXZZ=         -14260.8249 YYZZ=          -9981.5922
 XXYZ=            624.4341 YYXZ=           -868.8932 ZZXY=           -690.2830
 N-N= 1.592360709913D+04 E-N=-4.132832454512D+04  KE= 4.028798524518D+03
 Leave Link  601 at Fri Sep  3 18:30:33 2021, MaxMem= 23488102400 cpu:              20.7 elap:               1.0
 (Enter /sw/apps/gaussian-16.0/g16/l9999.exe)
 1\1\GINC-BP1-COMPUTE00107\SP\RCAM-B3LYP TD-FC\def2SVP\C68H72Mg2N8O8\OF
 15641\03-Sep-2021\0\\#p cam-b3lyp/Def2SVP td=(nstates=5)\\TDDFT excite
 d states in gaussian\\0,1\Mg,0,0.,0.,0.\C,0,-0.217,-2.218,2.801\C,0,-1
 .255,2.442,2.026\C,0,-0.245,1.85,-2.564\C,0,0.146,-2.824,-2.037\N,0,-0
 .617,-0.009,2.126\C,0,-0.594,-0.908,3.105\C,0,-0.936,-0.309,4.502\C,0,
 -1.773,0.964,4.032\C,0,-1.155,1.168,2.66\C,0,-3.263,0.685,3.863\C,0,0.
 345,0.11,5.299\C,0,0.124,0.397,6.787\H,0,1.168,0.033,7.733\N,0,-0.185,
 1.961,-0.152\C,0,-0.703,2.8,0.777\C,0,-0.62,4.156,0.193\C,0,-0.187,4.0
 15,-1.225\C,0,-0.214,2.583,-1.38\C,0,-0.887,5.406,0.974\C,0,0.181,5.01
 3,-2.277\O,0,0.303,4.69,-3.508\C,0,0.31,6.414,-1.837\N,0,-0.265,-0.413
 ,-2.029\C,0,-0.279,0.569,-2.937\C,0,-0.196,0.024,-4.332\C,0,0.124,-1.5
 33,-4.18\C,0,0.086,-1.632,-2.635\C,0,-1.451,0.205,-5.197\C,0,1.373,-2.
 07,-4.923\C,0,2.626,-1.49,-4.306\N,0,0.15,-2.144,0.303\C,0,0.173,-3.13
 6,-0.688\C,0,0.173,-4.438,0.004\C,0,0.133,-4.111,1.358\C,0,0.083,-2.69
 5,1.502\C,0,0.149,-5.715,-0.623\C,0,0.096,-4.629,2.716\O,0,0.208,-5.74
 7,3.221\C,0,-0.255,-3.428,3.701\C,0,0.717,-3.482,4.848\O,0,1.931,-3.25
 5,4.669\O,0,0.038,-3.556,6.003\C,0,0.943,-3.583,7.183\H,0,-1.859,3.22,
 2.497\H,0,-0.218,2.453,-3.474\H,0,0.276,-3.747,-2.605\H,0,-1.554,-0.94
 9,5.132\H,0,-1.585,1.831,4.665\H,0,-3.484,-0.377,3.969\H,0,-3.511,1.02
 7,2.858\H,0,-3.852,1.301,4.543\H,0,0.669,1.096,4.966\H,0,1.13,-0.639,5
 .189\H,0,-0.844,0.026,7.125\H,0,0.062,1.477,6.921\H,0,-1.344,5.186,1.9
 38\H,0,-1.651,5.963,0.432\H,0,0.007,6.02,1.084\H,0,-0.635,6.744,-1.405
 \H,0,0.665,6.97,-2.704\H,0,1.048,6.466,-1.036\H,0,0.608,0.501,-4.891\H
 ,0,-0.692,-2.156,-4.547\H,0,-1.267,0.74,-6.129\H,0,-2.204,0.714,-4.596
 \H,0,-1.967,-0.72,-5.453\H,0,1.356,-1.759,-5.967\H,0,1.452,-3.157,-4.9
 02\H,0,2.714,-0.522,-4.798\H,0,3.487,-2.121,-4.529\H,0,2.495,-1.303,-3
 .24\H,0,0.867,-6.333,-0.084\H,0,0.404,-5.642,-1.68\H,0,-0.891,-5.999,-
 0.463\H,0,-1.283,-3.581,4.028\H,0,0.698,-4.478,7.755\H,0,0.833,-2.619,
 7.68\H,0,2.,-3.754,6.976\Mg,0,7.89066,0.70362,0.60317\C,0,8.10471,-1.9
 3755,-1.81705\C,0,7.04685,-1.67219,2.90059\C,0,7.25555,3.04677,2.64613
 \C,0,7.62302,2.93485,-2.06061\N,0,7.64127,-1.48819,0.44179\C,0,7.80901
 ,-2.38957,-0.5141\C,0,7.7301,-3.86242,-0.03031\C,0,6.84434,-3.6348,1.2
 8972\C,0,7.22231,-2.18597,1.59087\C,0,5.3485,-3.69374,1.0283\C,0,9.141
 05,-4.45306,0.31951\C,0,9.17524,-5.9721,0.50138\H,0,10.36311,-6.69913,
 0.06221\N,0,7.72684,0.67403,2.58076\C,0,7.39783,-0.38173,3.35431\C,0,7
 .39333,0.11892,4.7376\C,0,7.58514,1.5943,4.70309\C,0,7.50744,1.83692,3
 .2765\C,0,7.29795,-0.7872,5.93061\C,0,7.79012,2.61911,5.77731\O,0,7.69
 627,3.87459,5.53692\C,0,8.01154,2.10756,7.13774\N,0,7.28452,2.67525,0.
 3432\C,0,7.13084,3.49595,1.39713\C,0,6.96074,4.929,0.95232\C,0,7.2753,
 4.93237,-0.61568\C,0,7.49538,3.41917,-0.83288\C,0,5.58181,5.54189,1.19
 581\C,0,8.36923,5.91712,-1.1119\C,0,9.72144,5.49516,-0.58382\N,0,8.049
 33,0.58361,-1.54822\C,0,7.87659,1.63392,-2.47617\C,0,7.96785,1.04139,-
 3.82635\C,0,8.16596,-0.32703,-3.58834\C,0,8.17587,-0.57318,-2.18876\C,
 0,7.82152,1.74481,-5.05514\C,0,8.35835,-1.62085,-4.20292\O,0,8.52399,-
 2.01925,-5.35513\C,0,8.20086,-2.73976,-3.08506\C,0,9.3518,-3.69844,-3.
 22204\O,0,10.51691,-3.32262,-3.00321\O,0,8.87063,-4.94563,-3.37488\C,0
 ,9.9745,-5.9339,-3.50386\H,0,6.55517,-2.30129,3.64313\H,0,7.13978,3.90
 817,3.30799\H,0,7.64773,3.57859,-2.94245\H,0,7.22058,-4.53658,-0.7083\
 H,0,7.16408,-4.28805,2.09743\H,0,5.12619,-3.76169,-0.02626\H,0,4.94125
 ,-2.78082,1.44276\H,0,4.89802,-4.51097,1.59885\H,0,9.42073,-4.13621,1.
 33249\H,0,9.86873,-4.16026,-0.41218\H,0,8.26686,-6.45354,0.11924\H,0,9
 .16622,-6.19379,1.57133\H,0,7.00041,-1.80276,5.64162\H,0,6.46509,-0.42
 386,6.54233\H,0,8.20757,-0.78506,6.53496\H,0,7.1629,1.4968,7.43648\H,0
 ,8.22614,2.98627,7.74904\H,0,8.88573,1.44706,7.12518\H,0,7.66926,5.576
 41,1.45427\H,0,6.39094,5.20952,-1.20807\H,0,5.61556,6.46357,1.80691\H,
 0,4.95514,4.79617,1.66669\H,0,5.01807,5.78272,0.29614\H,0,8.18209,6.91
 987,-0.71995\H,0,8.41952,5.99797,-2.19261\H,0,9.73869,5.9252,0.42209\H
 ,0,10.51852,5.90394,-1.20156\H,0,9.77999,4.40569,-0.4776\H,0,8.60001,1
 .38482,-5.71458\H,0,7.89007,2.82064,-4.908\H,0,6.81303,1.43284,-5.3395
 6\H,0,7.23925,-3.22911,-3.24453\H,0,9.80875,-6.47778,-4.43896\H,0,9.95
 808,-6.52391,-2.56826\H,0,10.97601,-5.54942,-3.65749\\Version=ES64L-G1
 6RevA.03\State=1-A\HF=-4069.8134794\RMSD=5.446e-09\PG=C01 [X(C68H72Mg2
 N8O8)]\\@


 THE NUMBERS ARE MEANINGLESS, BUT THE TRENDS ARE IMPORTANT.
     -- LARRY BURGGRAF
 Job cpu time:       0 days 17 hours 59 minutes 19.4 seconds.
 Elapsed time:       0 days  0 hours 45 minutes 44.0 seconds.
 File lengths (MBytes):  RWF=  13225 Int=      0 D2E=      0 Chk=    574 Scr=      1
 Normal termination of Gaussian 16 at Fri Sep  3 18:30:34 2021.
