 Entering Gaussian System, Link 0=g16
 Initial command:
 /sw/apps/gaussian-16.0/g16/l1.exe "/tmp/Gau-9763.inp" -scrdir="/tmp/"
 Entering Link 1 = /sw/apps/gaussian-16.0/g16/l1.exe PID=      9764.
  
 Copyright (c) 1988,1990,1992,1993,1995,1998,2003,2009,2016,
            Gaussian, Inc.  All Rights Reserved.
  
 This is part of the Gaussian(R) 16 program.  It is based on
 the Gaussian(R) 09 system (copyright 2009, Gaussian, Inc.),
 the Gaussian(R) 03 system (copyright 2003, Gaussian, Inc.),
 the Gaussian(R) 98 system (copyright 1998, Gaussian, Inc.),
 the Gaussian(R) 94 system (copyright 1995, Gaussian, Inc.),
 the Gaussian 92(TM) system (copyright 1992, Gaussian, Inc.),
 the Gaussian 90(TM) system (copyright 1990, Gaussian, Inc.),
 the Gaussian 88(TM) system (copyright 1988, Gaussian, Inc.),
 the Gaussian 86(TM) system (copyright 1986, Carnegie Mellon
 University), and the Gaussian 82(TM) system (copyright 1983,
 Carnegie Mellon University). Gaussian is a federally registered
 trademark of Gaussian, Inc.
  
 This software contains proprietary and confidential information,
 including trade secrets, belonging to Gaussian, Inc.
  
 This software is provided under written license and may be
 used, copied, transmitted, or stored only in accord with that
 written license.
  
 The following legend is applicable only to US Government
 contracts under FAR:
  
                    RESTRICTED RIGHTS LEGEND
  
 Use, reproduction and disclosure by the US Government is
 subject to restrictions as set forth in subparagraphs (a)
 and (c) of the Commercial Computer Software - Restricted
 Rights clause in FAR 52.227-19.
  
 Gaussian, Inc.
 340 Quinnipiac St., Bldg. 40, Wallingford CT 06492
  
  
 ---------------------------------------------------------------
 Warning -- This program may not be used in any manner that
 competes with the business of Gaussian, Inc. or will provide
 assistance to any competitor of Gaussian, Inc.  The licensee
 of this program is prohibited from giving any competitor of
 Gaussian, Inc. access to this program.  By using this program,
 the user acknowledges that Gaussian, Inc. is engaged in the
 business of creating and licensing software in the field of
 computational chemistry and represents and warrants to the
 licensee that it is not a competitor of Gaussian, Inc. and that
 it will not use this program in any manner prohibited above.
 ---------------------------------------------------------------
  

 Cite this work as:
 Gaussian 16, Revision A.03,
 M. J. Frisch, G. W. Trucks, H. B. Schlegel, G. E. Scuseria, 
 M. A. Robb, J. R. Cheeseman, G. Scalmani, V. Barone, 
 G. A. Petersson, H. Nakatsuji, X. Li, M. Caricato, A. V. Marenich, 
 J. Bloino, B. G. Janesko, R. Gomperts, B. Mennucci, H. P. Hratchian, 
 J. V. Ortiz, A. F. Izmaylov, J. L. Sonnenberg, D. Williams-Young, 
 F. Ding, F. Lipparini, F. Egidi, J. Goings, B. Peng, A. Petrone, 
 T. Henderson, D. Ranasinghe, V. G. Zakrzewski, J. Gao, N. Rega, 
 G. Zheng, W. Liang, M. Hada, M. Ehara, K. Toyota, R. Fukuda, 
 J. Hasegawa, M. Ishida, T. Nakajima, Y. Honda, O. Kitao, H. Nakai, 
 T. Vreven, K. Throssell, J. A. Montgomery, Jr., J. E. Peralta, 
 F. Ogliaro, M. J. Bearpark, J. J. Heyd, E. N. Brothers, K. N. Kudin, 
 V. N. Staroverov, T. A. Keith, R. Kobayashi, J. Normand, 
 K. Raghavachari, A. P. Rendell, J. C. Burant, S. S. Iyengar, 
 J. Tomasi, M. Cossi, J. M. Millam, M. Klene, C. Adamo, R. Cammi, 
 J. W. Ochterski, R. L. Martin, K. Morokuma, O. Farkas, 
 J. B. Foresman, and D. J. Fox, Gaussian, Inc., Wallingford CT, 2016.
 
 ******************************************
 Gaussian 16:  ES64L-G16RevA.03 25-Dec-2016
                 9-Sep-2021 
 ******************************************
 %nproc=24
 Will use up to   24 processors via shared memory.
 %mem=175gb
 -----------------------------------
 #p cam-b3lyp/Def2SVP td=(nstates=5)
 -----------------------------------
 1/38=1,172=1/1;
 2/12=2,17=6,18=5,40=1/2;
 3/5=43,7=101,11=9,25=1,30=1,74=-40/1,2,3,8;
 4//1;
 5/5=2,38=5/2;
 8/6=1,10=1,108=5/1;
 9/41=5,42=1,70=2/14;
 6/7=2,8=2,9=2,10=2/1;
 99/5=1,9=1/99;
 Leave Link    1 at Thu Sep  9 19:10:10 2021, MaxMem= 23488102400 cpu:               0.7 elap:               0.0
 (Enter /sw/apps/gaussian-16.0/g16/l101.exe)
 --------------------------------
 TDDFT excited states in gaussian
 --------------------------------
 Symbolic Z-matrix:
 Charge =  0 Multiplicity = 1
 Mg                    0.        0.        0. 
 C                    -0.217    -2.218     2.801 
 C                    -1.255     2.442     2.026 
 C                    -0.245     1.85     -2.564 
 C                     0.146    -2.824    -2.037 
 N                    -0.617    -0.009     2.126 
 C                    -0.594    -0.908     3.105 
 C                    -0.936    -0.309     4.502 
 C                    -1.773     0.964     4.032 
 C                    -1.155     1.168     2.66 
 C                    -3.263     0.685     3.863 
 C                     0.345     0.11      5.299 
 C                     0.124     0.397     6.787 
 H                     1.168     0.033     7.733 
 N                    -0.185     1.961    -0.152 
 C                    -0.703     2.8       0.777 
 C                    -0.62      4.156     0.193 
 C                    -0.187     4.015    -1.225 
 C                    -0.214     2.583    -1.38 
 C                    -0.887     5.406     0.974 
 C                     0.181     5.013    -2.277 
 O                     0.303     4.69     -3.508 
 C                     0.31      6.414    -1.837 
 N                    -0.265    -0.413    -2.029 
 C                    -0.279     0.569    -2.937 
 C                    -0.196     0.024    -4.332 
 C                     0.124    -1.533    -4.18 
 C                     0.086    -1.632    -2.635 
 C                    -1.451     0.205    -5.197 
 C                     1.373    -2.07     -4.923 
 C                     2.626    -1.49     -4.306 
 N                     0.15     -2.144     0.303 
 C                     0.173    -3.136    -0.688 
 C                     0.173    -4.438     0.004 
 C                     0.133    -4.111     1.358 
 C                     0.083    -2.695     1.502 
 C                     0.149    -5.715    -0.623 
 C                     0.096    -4.629     2.716 
 O                     0.208    -5.747     3.221 
 C                    -0.255    -3.428     3.701 
 C                     0.717    -3.482     4.848 
 O                     1.931    -3.255     4.669 
 O                     0.038    -3.556     6.003 
 C                     0.943    -3.583     7.183 
 H                    -1.859     3.22      2.497 
 H                    -0.218     2.453    -3.474 
 H                     0.276    -3.747    -2.605 
 H                    -1.554    -0.949     5.132 
 H                    -1.585     1.831     4.665 
 H                    -3.484    -0.377     3.969 
 H                    -3.511     1.027     2.858 
 H                    -3.852     1.301     4.543 
 H                     0.669     1.096     4.966 
 H                     1.13     -0.639     5.189 
 H                    -0.844     0.026     7.125 
 H                     0.062     1.477     6.921 
 H                    -1.344     5.186     1.938 
 H                    -1.651     5.963     0.432 
 H                     0.007     6.02      1.084 
 H                    -0.635     6.744    -1.405 
 H                     0.665     6.97     -2.704 
 H                     1.048     6.466    -1.036 
 H                     0.608     0.501    -4.891 
 H                    -0.692    -2.156    -4.547 
 H                    -1.267     0.74     -6.129 
 H                    -2.204     0.714    -4.596 
 H                    -1.967    -0.72     -5.453 
 H                     1.356    -1.759    -5.967 
 H                     1.452    -3.157    -4.902 
 H                     2.714    -0.522    -4.798 
 H                     3.487    -2.121    -4.529 
 H                     2.495    -1.303    -3.24 
 H                     0.867    -6.333    -0.084 
 H                     0.404    -5.642    -1.68 
 H                    -0.891    -5.999    -0.463 
 H                    -1.283    -3.581     4.028 
 H                     0.698    -4.478     7.755 
 H                     0.833    -2.619     7.68 
 H                     2.       -3.754     6.976 
 Mg                    8.9385    0.81148   0.68522 
 C                     9.63788  -1.22782   3.55423 
 C                     6.93023   2.69433   2.69926 
 C                     7.95111   2.35192  -1.90699 
 C                     10.04845  -1.83437  -1.29295 
 N                     8.43089   0.65394   2.83226 
 C                     8.8051   -0.12489   3.83613 
 C                     8.32103   0.34894   5.23281 
 C                     7.04905   1.21128   4.76666 
 C                     7.50556   1.57721   3.35586 
 C                     5.77359   0.39222   4.65858 
 C                     9.38455   1.24247   5.96258 
 C                     9.11064   1.48407   7.44864 
 H                     10.24762   1.57005   8.36097 
 N                     8.03677   2.56982   0.50164 
 C                     7.27979   3.19661   1.42652 
 C                     6.83063   4.44837   0.79763 
 C                     7.24827   4.43193  -0.63066 
 C                     7.75444   3.07858  -0.74173 
 C                     6.15158   5.54605   1.56406 
 C                     7.18869   5.45945  -1.72008 
 O                     7.38925   5.15136  -2.94796 
 C                     6.79685   6.81846  -1.31876 
 N                     8.79038   0.25778  -1.31323 
 C                     8.37938   1.13556  -2.24517 
 C                     8.61527   0.60255  -3.63824 
 C                     9.49565  -0.71911  -3.4492 
 C                     9.54317  -0.77299  -1.9064 
 C                     7.36014   0.26682  -4.44343 
 C                     10.83481  -0.79075  -4.2329 
 C                     11.80356   0.23733  -3.69443 
 N                     9.87797  -1.10287   1.03265 
 C                     10.23455  -2.06638   0.06386 
 C                     10.73609  -3.25031   0.79133 
 C                     10.614   -2.8994    2.14427 
 C                     10.05563  -1.59711   2.25275 
 C                     11.17654  -4.46664   0.19748 
 C                     10.82061  -3.33869   3.50553 
 O                     11.34539  -4.31924   4.03172 
 C                     10.08018  -2.32577   4.48131 
 C                     11.03318  -1.96663   5.58825 
 O                     12.07222  -1.32789   5.34533 
 O                     10.45778  -2.24416   6.77243 
 C                     11.36019  -1.89475   7.90176 
 H                     6.10292   3.21232   3.18519 
 H                     7.72926   2.88182  -2.83622 
 H                     10.50455  -2.66249  -1.83964 
 H                     8.00746  -0.44607   5.8987 
 H                     6.93385   2.10525   5.37405 
 H                     5.9588   -0.66229   4.79944 
 H                     5.38728   0.57911   3.66515 
 H                     5.01962   0.77539   5.35215 
 H                     9.30612   2.27099   5.58743 
 H                     10.37081   0.83957   5.83777 
 H                     8.3512    0.79888   7.84452 
 H                     8.66342   2.47455   7.56251 
 H                     5.83128   5.20518   2.55634 
 H                     5.21677   5.77135   1.03943 
 H                     6.75357   6.45554   1.61985 
 H                     5.8144    6.78851  -0.85361 
 H                     6.89832   7.42936  -2.21785 
 H                     7.49663   7.17275  -0.55365 
 H                     9.17285   1.31381  -4.23517 
 H                     8.95564  -1.61896  -3.77858 
 H                     7.30332   0.80561  -5.40808 
 H                     6.49419   0.48695  -3.83334 
 H                     7.22326  -0.79001  -4.66608 
 H                     10.67186  -0.54273  -5.28461 
 H                     11.30185  -1.76946  -4.20145 
 H                     11.50593   1.15292  -4.21423 
 H                     12.82813  -0.03835  -3.93589 
 H                     11.64732   0.40152  -2.62192 
 H                     12.08029  -4.75712   0.71647 
 H                     11.35086  -4.34768  -0.86987 
 H                     10.31516  -5.10753   0.4038 
 H                     9.18676  -2.82631   4.85659 
 H                     11.47782  -2.79823   8.50804 
 H                     10.8997  -1.01607   8.39127 
 H                     12.39209  -1.66278   7.66547 
 
 ITRead=  0  0  0  0  0  0  0  0  0  0  0  0  0  0  0  0  0  0  0  0
 ITRead=  0  0  0  0  0  0  0  0  0  0  0  0  0  0  0  0  0  0  0  0
 ITRead=  0  0  0  0  0  0  0  0  0  0  0  0  0  0  0  0  0  0  0  0
 ITRead=  0  0  0  0  0  0  0  0  0  0  0  0  0  0  0  0  0  0  0  0
 ITRead=  0  0  0  0  0  0  0  0  0  0  0  0  0  0  0  0  0  0  0  0
 ITRead=  0  0  0  0  0  0  0  0  0  0  0  0  0  0  0  0  0  0  0  0
 ITRead=  0  0  0  0  0  0  0  0  0  0  0  0  0  0  0  0  0  0  0  0
 ITRead=  0  0  0  0  0  0  0  0  0  0  0  0  0  0  0  0  0  0
 MicOpt= -1 -1 -1 -1 -1 -1 -1 -1 -1 -1 -1 -1 -1 -1 -1 -1 -1 -1 -1 -1
 MicOpt= -1 -1 -1 -1 -1 -1 -1 -1 -1 -1 -1 -1 -1 -1 -1 -1 -1 -1 -1 -1
 MicOpt= -1 -1 -1 -1 -1 -1 -1 -1 -1 -1 -1 -1 -1 -1 -1 -1 -1 -1 -1 -1
 MicOpt= -1 -1 -1 -1 -1 -1 -1 -1 -1 -1 -1 -1 -1 -1 -1 -1 -1 -1 -1 -1
 MicOpt= -1 -1 -1 -1 -1 -1 -1 -1 -1 -1 -1 -1 -1 -1 -1 -1 -1 -1 -1 -1
 MicOpt= -1 -1 -1 -1 -1 -1 -1 -1 -1 -1 -1 -1 -1 -1 -1 -1 -1 -1 -1 -1
 MicOpt= -1 -1 -1 -1 -1 -1 -1 -1 -1 -1 -1 -1 -1 -1 -1 -1 -1 -1 -1 -1
 MicOpt= -1 -1 -1 -1 -1 -1 -1 -1 -1 -1 -1 -1 -1 -1 -1 -1 -1 -1
 NAtoms=    158 NQM=      158 NQMF=       0 NMMI=      0 NMMIF=      0
                NMic=       0 NMicF=      0.
                    Isotopes and Nuclear Properties:
 (Nuclear quadrupole moments (NQMom) in fm**2, nuclear magnetic moments (NMagM)
  in nuclear magnetons)

  Atom         1           2           3           4           5           6           7           8           9          10
 IAtWgt=          24          12          12          12          12          14          12          12          12          12
 AtmWgt=  23.9850450  12.0000000  12.0000000  12.0000000  12.0000000  14.0030740  12.0000000  12.0000000  12.0000000  12.0000000
 NucSpn=           0           0           0           0           0           2           0           0           0           0
 AtZEff=  -0.0000000  -0.0000000  -0.0000000  -0.0000000  -0.0000000  -0.0000000  -0.0000000  -0.0000000  -0.0000000  -0.0000000
 NQMom=    0.0000000   0.0000000   0.0000000   0.0000000   0.0000000   2.0440000   0.0000000   0.0000000   0.0000000   0.0000000
 NMagM=    0.0000000   0.0000000   0.0000000   0.0000000   0.0000000   0.4037610   0.0000000   0.0000000   0.0000000   0.0000000
 AtZNuc=  12.0000000   6.0000000   6.0000000   6.0000000   6.0000000   7.0000000   6.0000000   6.0000000   6.0000000   6.0000000

  Atom        11          12          13          14          15          16          17          18          19          20
 IAtWgt=          12          12          12           1          14          12          12          12          12          12
 AtmWgt=  12.0000000  12.0000000  12.0000000   1.0078250  14.0030740  12.0000000  12.0000000  12.0000000  12.0000000  12.0000000
 NucSpn=           0           0           0           1           2           0           0           0           0           0
 AtZEff=  -0.0000000  -0.0000000  -0.0000000  -0.0000000  -0.0000000  -0.0000000  -0.0000000  -0.0000000  -0.0000000  -0.0000000
 NQMom=    0.0000000   0.0000000   0.0000000   0.0000000   2.0440000   0.0000000   0.0000000   0.0000000   0.0000000   0.0000000
 NMagM=    0.0000000   0.0000000   0.0000000   2.7928460   0.4037610   0.0000000   0.0000000   0.0000000   0.0000000   0.0000000
 AtZNuc=   6.0000000   6.0000000   6.0000000   1.0000000   7.0000000   6.0000000   6.0000000   6.0000000   6.0000000   6.0000000

  Atom        21          22          23          24          25          26          27          28          29          30
 IAtWgt=          12          16          12          14          12          12          12          12          12          12
 AtmWgt=  12.0000000  15.9949146  12.0000000  14.0030740  12.0000000  12.0000000  12.0000000  12.0000000  12.0000000  12.0000000
 NucSpn=           0           0           0           2           0           0           0           0           0           0
 AtZEff=  -0.0000000  -0.0000000  -0.0000000  -0.0000000  -0.0000000  -0.0000000  -0.0000000  -0.0000000  -0.0000000  -0.0000000
 NQMom=    0.0000000   0.0000000   0.0000000   2.0440000   0.0000000   0.0000000   0.0000000   0.0000000   0.0000000   0.0000000
 NMagM=    0.0000000   0.0000000   0.0000000   0.4037610   0.0000000   0.0000000   0.0000000   0.0000000   0.0000000   0.0000000
 AtZNuc=   6.0000000   8.0000000   6.0000000   7.0000000   6.0000000   6.0000000   6.0000000   6.0000000   6.0000000   6.0000000

  Atom        31          32          33          34          35          36          37          38          39          40
 IAtWgt=          12          14          12          12          12          12          12          12          16          12
 AtmWgt=  12.0000000  14.0030740  12.0000000  12.0000000  12.0000000  12.0000000  12.0000000  12.0000000  15.9949146  12.0000000
 NucSpn=           0           2           0           0           0           0           0           0           0           0
 AtZEff=  -0.0000000  -0.0000000  -0.0000000  -0.0000000  -0.0000000  -0.0000000  -0.0000000  -0.0000000  -0.0000000  -0.0000000
 NQMom=    0.0000000   2.0440000   0.0000000   0.0000000   0.0000000   0.0000000   0.0000000   0.0000000   0.0000000   0.0000000
 NMagM=    0.0000000   0.4037610   0.0000000   0.0000000   0.0000000   0.0000000   0.0000000   0.0000000   0.0000000   0.0000000
 AtZNuc=   6.0000000   7.0000000   6.0000000   6.0000000   6.0000000   6.0000000   6.0000000   6.0000000   8.0000000   6.0000000

  Atom        41          42          43          44          45          46          47          48          49          50
 IAtWgt=          12          16          16          12           1           1           1           1           1           1
 AtmWgt=  12.0000000  15.9949146  15.9949146  12.0000000   1.0078250   1.0078250   1.0078250   1.0078250   1.0078250   1.0078250
 NucSpn=           0           0           0           0           1           1           1           1           1           1
 AtZEff=  -0.0000000  -0.0000000  -0.0000000  -0.0000000  -0.0000000  -0.0000000  -0.0000000  -0.0000000  -0.0000000  -0.0000000
 NQMom=    0.0000000   0.0000000   0.0000000   0.0000000   0.0000000   0.0000000   0.0000000   0.0000000   0.0000000   0.0000000
 NMagM=    0.0000000   0.0000000   0.0000000   0.0000000   2.7928460   2.7928460   2.7928460   2.7928460   2.7928460   2.7928460
 AtZNuc=   6.0000000   8.0000000   8.0000000   6.0000000   1.0000000   1.0000000   1.0000000   1.0000000   1.0000000   1.0000000

  Atom        51          52          53          54          55          56          57          58          59          60
 IAtWgt=           1           1           1           1           1           1           1           1           1           1
 AtmWgt=   1.0078250   1.0078250   1.0078250   1.0078250   1.0078250   1.0078250   1.0078250   1.0078250   1.0078250   1.0078250
 NucSpn=           1           1           1           1           1           1           1           1           1           1
 AtZEff=  -0.0000000  -0.0000000  -0.0000000  -0.0000000  -0.0000000  -0.0000000  -0.0000000  -0.0000000  -0.0000000  -0.0000000
 NQMom=    0.0000000   0.0000000   0.0000000   0.0000000   0.0000000   0.0000000   0.0000000   0.0000000   0.0000000   0.0000000
 NMagM=    2.7928460   2.7928460   2.7928460   2.7928460   2.7928460   2.7928460   2.7928460   2.7928460   2.7928460   2.7928460
 AtZNuc=   1.0000000   1.0000000   1.0000000   1.0000000   1.0000000   1.0000000   1.0000000   1.0000000   1.0000000   1.0000000

  Atom        61          62          63          64          65          66          67          68          69          70
 IAtWgt=           1           1           1           1           1           1           1           1           1           1
 AtmWgt=   1.0078250   1.0078250   1.0078250   1.0078250   1.0078250   1.0078250   1.0078250   1.0078250   1.0078250   1.0078250
 NucSpn=           1           1           1           1           1           1           1           1           1           1
 AtZEff=  -0.0000000  -0.0000000  -0.0000000  -0.0000000  -0.0000000  -0.0000000  -0.0000000  -0.0000000  -0.0000000  -0.0000000
 NQMom=    0.0000000   0.0000000   0.0000000   0.0000000   0.0000000   0.0000000   0.0000000   0.0000000   0.0000000   0.0000000
 NMagM=    2.7928460   2.7928460   2.7928460   2.7928460   2.7928460   2.7928460   2.7928460   2.7928460   2.7928460   2.7928460
 AtZNuc=   1.0000000   1.0000000   1.0000000   1.0000000   1.0000000   1.0000000   1.0000000   1.0000000   1.0000000   1.0000000

  Atom        71          72          73          74          75          76          77          78          79          80
 IAtWgt=           1           1           1           1           1           1           1           1           1          24
 AtmWgt=   1.0078250   1.0078250   1.0078250   1.0078250   1.0078250   1.0078250   1.0078250   1.0078250   1.0078250  23.9850450
 NucSpn=           1           1           1           1           1           1           1           1           1           0
 AtZEff=  -0.0000000  -0.0000000  -0.0000000  -0.0000000  -0.0000000  -0.0000000  -0.0000000  -0.0000000  -0.0000000  -0.0000000
 NQMom=    0.0000000   0.0000000   0.0000000   0.0000000   0.0000000   0.0000000   0.0000000   0.0000000   0.0000000   0.0000000
 NMagM=    2.7928460   2.7928460   2.7928460   2.7928460   2.7928460   2.7928460   2.7928460   2.7928460   2.7928460   0.0000000
 AtZNuc=   1.0000000   1.0000000   1.0000000   1.0000000   1.0000000   1.0000000   1.0000000   1.0000000   1.0000000  12.0000000

  Atom        81          82          83          84          85          86          87          88          89          90
 IAtWgt=          12          12          12          12          14          12          12          12          12          12
 AtmWgt=  12.0000000  12.0000000  12.0000000  12.0000000  14.0030740  12.0000000  12.0000000  12.0000000  12.0000000  12.0000000
 NucSpn=           0           0           0           0           2           0           0           0           0           0
 AtZEff=  -0.0000000  -0.0000000  -0.0000000  -0.0000000  -0.0000000  -0.0000000  -0.0000000  -0.0000000  -0.0000000  -0.0000000
 NQMom=    0.0000000   0.0000000   0.0000000   0.0000000   2.0440000   0.0000000   0.0000000   0.0000000   0.0000000   0.0000000
 NMagM=    0.0000000   0.0000000   0.0000000   0.0000000   0.4037610   0.0000000   0.0000000   0.0000000   0.0000000   0.0000000
 AtZNuc=   6.0000000   6.0000000   6.0000000   6.0000000   7.0000000   6.0000000   6.0000000   6.0000000   6.0000000   6.0000000

  Atom        91          92          93          94          95          96          97          98          99         100
 IAtWgt=          12          12           1          14          12          12          12          12          12          12
 AtmWgt=  12.0000000  12.0000000   1.0078250  14.0030740  12.0000000  12.0000000  12.0000000  12.0000000  12.0000000  12.0000000
 NucSpn=           0           0           1           2           0           0           0           0           0           0
 AtZEff=  -0.0000000  -0.0000000  -0.0000000  -0.0000000  -0.0000000  -0.0000000  -0.0000000  -0.0000000  -0.0000000  -0.0000000
 NQMom=    0.0000000   0.0000000   0.0000000   2.0440000   0.0000000   0.0000000   0.0000000   0.0000000   0.0000000   0.0000000
 NMagM=    0.0000000   0.0000000   2.7928460   0.4037610   0.0000000   0.0000000   0.0000000   0.0000000   0.0000000   0.0000000
 AtZNuc=   6.0000000   6.0000000   1.0000000   7.0000000   6.0000000   6.0000000   6.0000000   6.0000000   6.0000000   6.0000000

  Atom       101         102         103         104         105         106         107         108         109         110
 IAtWgt=          16          12          14          12          12          12          12          12          12          12
 AtmWgt=  15.9949146  12.0000000  14.0030740  12.0000000  12.0000000  12.0000000  12.0000000  12.0000000  12.0000000  12.0000000
 NucSpn=           0           0           2           0           0           0           0           0           0           0
 AtZEff=  -0.0000000  -0.0000000  -0.0000000  -0.0000000  -0.0000000  -0.0000000  -0.0000000  -0.0000000  -0.0000000  -0.0000000
 NQMom=    0.0000000   0.0000000   2.0440000   0.0000000   0.0000000   0.0000000   0.0000000   0.0000000   0.0000000   0.0000000
 NMagM=    0.0000000   0.0000000   0.4037610   0.0000000   0.0000000   0.0000000   0.0000000   0.0000000   0.0000000   0.0000000
 AtZNuc=   8.0000000   6.0000000   7.0000000   6.0000000   6.0000000   6.0000000   6.0000000   6.0000000   6.0000000   6.0000000

  Atom       111         112         113         114         115         116         117         118         119         120
 IAtWgt=          14          12          12          12          12          12          12          16          12          12
 AtmWgt=  14.0030740  12.0000000  12.0000000  12.0000000  12.0000000  12.0000000  12.0000000  15.9949146  12.0000000  12.0000000
 NucSpn=           2           0           0           0           0           0           0           0           0           0
 AtZEff=  -0.0000000  -0.0000000  -0.0000000  -0.0000000  -0.0000000  -0.0000000  -0.0000000  -0.0000000  -0.0000000  -0.0000000
 NQMom=    2.0440000   0.0000000   0.0000000   0.0000000   0.0000000   0.0000000   0.0000000   0.0000000   0.0000000   0.0000000
 NMagM=    0.4037610   0.0000000   0.0000000   0.0000000   0.0000000   0.0000000   0.0000000   0.0000000   0.0000000   0.0000000
 AtZNuc=   7.0000000   6.0000000   6.0000000   6.0000000   6.0000000   6.0000000   6.0000000   8.0000000   6.0000000   6.0000000

  Atom       121         122         123         124         125         126         127         128         129         130
 IAtWgt=          16          16          12           1           1           1           1           1           1           1
 AtmWgt=  15.9949146  15.9949146  12.0000000   1.0078250   1.0078250   1.0078250   1.0078250   1.0078250   1.0078250   1.0078250
 NucSpn=           0           0           0           1           1           1           1           1           1           1
 AtZEff=  -0.0000000  -0.0000000  -0.0000000  -0.0000000  -0.0000000  -0.0000000  -0.0000000  -0.0000000  -0.0000000  -0.0000000
 NQMom=    0.0000000   0.0000000   0.0000000   0.0000000   0.0000000   0.0000000   0.0000000   0.0000000   0.0000000   0.0000000
 NMagM=    0.0000000   0.0000000   0.0000000   2.7928460   2.7928460   2.7928460   2.7928460   2.7928460   2.7928460   2.7928460
 AtZNuc=   8.0000000   8.0000000   6.0000000   1.0000000   1.0000000   1.0000000   1.0000000   1.0000000   1.0000000   1.0000000

  Atom       131         132         133         134         135         136         137         138         139         140
 IAtWgt=           1           1           1           1           1           1           1           1           1           1
 AtmWgt=   1.0078250   1.0078250   1.0078250   1.0078250   1.0078250   1.0078250   1.0078250   1.0078250   1.0078250   1.0078250
 NucSpn=           1           1           1           1           1           1           1           1           1           1
 AtZEff=  -0.0000000  -0.0000000  -0.0000000  -0.0000000  -0.0000000  -0.0000000  -0.0000000  -0.0000000  -0.0000000  -0.0000000
 NQMom=    0.0000000   0.0000000   0.0000000   0.0000000   0.0000000   0.0000000   0.0000000   0.0000000   0.0000000   0.0000000
 NMagM=    2.7928460   2.7928460   2.7928460   2.7928460   2.7928460   2.7928460   2.7928460   2.7928460   2.7928460   2.7928460
 AtZNuc=   1.0000000   1.0000000   1.0000000   1.0000000   1.0000000   1.0000000   1.0000000   1.0000000   1.0000000   1.0000000

  Atom       141         142         143         144         145         146         147         148         149         150
 IAtWgt=           1           1           1           1           1           1           1           1           1           1
 AtmWgt=   1.0078250   1.0078250   1.0078250   1.0078250   1.0078250   1.0078250   1.0078250   1.0078250   1.0078250   1.0078250
 NucSpn=           1           1           1           1           1           1           1           1           1           1
 AtZEff=  -0.0000000  -0.0000000  -0.0000000  -0.0000000  -0.0000000  -0.0000000  -0.0000000  -0.0000000  -0.0000000  -0.0000000
 NQMom=    0.0000000   0.0000000   0.0000000   0.0000000   0.0000000   0.0000000   0.0000000   0.0000000   0.0000000   0.0000000
 NMagM=    2.7928460   2.7928460   2.7928460   2.7928460   2.7928460   2.7928460   2.7928460   2.7928460   2.7928460   2.7928460
 AtZNuc=   1.0000000   1.0000000   1.0000000   1.0000000   1.0000000   1.0000000   1.0000000   1.0000000   1.0000000   1.0000000

  Atom       151         152         153         154         155         156         157         158
 IAtWgt=           1           1           1           1           1           1           1           1
 AtmWgt=   1.0078250   1.0078250   1.0078250   1.0078250   1.0078250   1.0078250   1.0078250   1.0078250
 NucSpn=           1           1           1           1           1           1           1           1
 AtZEff=  -0.0000000  -0.0000000  -0.0000000  -0.0000000  -0.0000000  -0.0000000  -0.0000000  -0.0000000
 NQMom=    0.0000000   0.0000000   0.0000000   0.0000000   0.0000000   0.0000000   0.0000000   0.0000000
 NMagM=    2.7928460   2.7928460   2.7928460   2.7928460   2.7928460   2.7928460   2.7928460   2.7928460
 AtZNuc=   1.0000000   1.0000000   1.0000000   1.0000000   1.0000000   1.0000000   1.0000000   1.0000000
 Leave Link  101 at Thu Sep  9 19:10:10 2021, MaxMem= 23488102400 cpu:               3.5 elap:               0.2
 (Enter /sw/apps/gaussian-16.0/g16/l202.exe)
 Stoichiometry    C68H72Mg2N8O8
 Framework group  C1[X(C68H72Mg2N8O8)]
 Deg. of freedom   468
 Full point group                 C1      NOp   1
 Largest Abelian subgroup         C1      NOp   1
 Largest concise Abelian subgroup C1      NOp   1
                         Standard orientation:                         
 ---------------------------------------------------------------------
 Center     Atomic      Atomic             Coordinates (Angstroms)
 Number     Number       Type             X           Y           Z
 ---------------------------------------------------------------------
      1         12           0       -4.552485   -0.019257    0.383827
      2          6           0       -4.113119    3.487984    0.948126
      3          6           0       -5.579268    0.768696   -2.773373
      4          6           0       -5.378133   -3.058312    0.010908
      5          6           0       -4.590780   -0.421346    3.845405
      6          7           0       -4.773360    1.918646   -0.663261
      7          6           0       -4.514625    3.185599   -0.354948
      8          6           0       -4.637435    4.154352   -1.568954
      9          6           0       -5.627719    3.295867   -2.476885
     10          6           0       -5.282538    1.907664   -1.967310
     11          6           0       -7.102021    3.569224   -2.197225
     12          6           0       -3.264036    4.389502   -2.283245
     13          6           0       -3.231077    5.563960   -3.265546
     14          1           0       -2.011667    6.350149   -3.376428
     15          7           0       -4.890904   -1.062589   -1.259274
     16          6           0       -5.286802   -0.576383   -2.460171
     17          6           0       -5.400327   -1.747028   -3.356488
     18          6           0       -5.222234   -2.972538   -2.529141
     19          6           0       -5.182223   -2.407157   -1.204709
     20          6           0       -5.603766   -1.633720   -4.836192
     21          6           0       -5.116986   -4.423959   -2.876171
     22          8           0       -5.198300   -5.342634   -1.990734
     23          6           0       -5.003377   -4.750201   -4.309245
     24          7           0       -5.151777   -1.502755    1.724617
     25          6           0       -5.394333   -2.750903    1.309554
     26          6           0       -5.528891   -3.694911    2.467432
     27          6           0       -5.084655   -2.872624    3.762134
     28          6           0       -4.836341   -1.497482    3.094606
     29          6           0       -6.928655   -4.283326    2.692021
     30          6           0       -3.957735   -3.484735    4.631496
     31          6           0       -2.654952   -3.475942    3.863526
     32          7           0       -4.209061    1.248253    2.111984
     33          6           0       -4.300026    0.877031    3.461278
     34          6           0       -4.089106    2.098077    4.260419
     35          6           0       -3.905369    3.104345    3.314105
     36          6           0       -4.021875    2.551920    2.006609
     37          6           0       -4.141636    2.184637    5.679638
     38          6           0       -3.662200    4.522205    3.103393
     39          8           0       -3.387291    5.473217    3.836532
     40          6           0       -3.907990    4.849455    1.564457
     41          6           0       -2.743389    5.671089    1.082867
     42          8           0       -1.599361    5.177938    1.009588
     43          8           0       -3.196206    6.822582    0.563673
     44          6           0       -2.093175    7.672067    0.040364
     45          1           0       -6.138262    0.909418   -3.700553
     46          1           0       -5.555804   -4.132620   -0.071145
     47          1           0       -4.504890   -0.484842    4.931703
     48          1           0       -5.087867    5.119495   -1.336503
     49          1           0       -5.386108    3.381633   -3.536126
     50          1           0       -7.229663    4.215446   -1.328878
     51          1           0       -7.549494    2.592193   -2.013731
     52          1           0       -7.597853    3.964031   -3.084387
     53          1           0       -3.071304    3.566546   -2.971475
     54          1           0       -2.464127    4.508836   -1.551651
     55          1           0       -4.095473    6.215926   -3.136438
     56          1           0       -3.338990    5.167798   -4.275304
     57          1           0       -5.863592   -0.616927   -5.128029
     58          1           0       -6.488166   -2.221232   -5.081906
     59          1           0       -4.747105   -2.006416   -5.397939
     60          1           0       -5.874485   -4.361374   -4.837007
     61          1           0       -4.848301   -5.827287   -4.361066
     62          1           0       -4.137900   -4.231050   -4.722019
     63          1           0       -4.872349   -4.555847    2.348408
     64          1           0       -5.910599   -2.729959    4.459368
     65          1           0       -6.951742   -5.373336    2.684898
     66          1           0       -7.592634   -3.873133    1.931650
     67          1           0       -7.420219   -3.956677    3.608036
     68          1           0       -4.183517   -4.523936    4.868204
     69          1           0       -3.804679   -2.955983    5.572371
     70          1           0       -2.721346   -4.381248    3.261161
     71          1           0       -1.808659   -3.524657    4.549549
     72          1           0       -2.603298   -2.630748    3.176893
     73          1           0       -3.298894    2.807824    5.978625
     74          1           0       -4.087137    1.197831    6.138819
     75          1           0       -5.114581    2.656102    5.817312
     76          1           0       -4.847640    5.397959    1.506810
     77          1           0       -2.171217    8.640210    0.535178
     78          1           0       -2.174969    7.651273   -1.046504
     79          1           0       -1.082009    7.377311    0.323209
     80         12           0        4.289393   -1.522806   -0.381245
     81          6           0        5.628526    1.782178    0.022357
     82          6           0        2.558141   -0.331634   -3.067972
     83          6           0        2.750546   -4.295323   -0.493262
     84          6           0        5.195926   -2.143758    2.926063
     85          7           0        4.189470    0.484163   -1.305559
     86          6           0        4.789422    1.647579   -1.103356
     87          6           0        4.535396    2.703570   -2.212369
     88          6           0        3.146048    2.129575   -2.777259
     89          6           0        3.315057    0.660542   -2.395105
     90          6           0        1.928926    2.675502   -2.049305
     91          6           0        5.651914    2.693015   -3.314781
     92          6           0        5.635596    3.897818   -4.258154
     93          1           0        6.910472    4.419928   -4.742462
     94          7           0        3.255293   -2.359059   -1.854302
     95          6           0        2.638136   -1.728366   -2.875395
     96          6           0        2.001155   -2.785941   -3.675357
     97          6           0        2.154095   -4.077580   -2.952180
     98          6           0        2.720069   -3.613903   -1.701270
     99          6           0        1.400777   -2.533197   -5.027796
    100          6           0        1.831036   -5.494101   -3.319991
    101          8           0        1.826395   -6.432232   -2.446653
    102          6           0        1.429312   -5.734226   -4.713714
    103          7           0        3.819603   -2.934327    1.071075
    104          6           0        3.190011   -4.077168    0.746331
    105          6           0        3.205046   -5.054344    1.897542
    106          6           0        4.190363   -4.420606    2.986173
    107          6           0        4.519225   -3.085399    2.282990
    108          6           0        1.850060   -5.341680    2.543953
    109          6           0        5.367697   -5.309706    3.472025
    110          6           0        6.347780   -5.530805    2.342455
    111          7           0        5.400421   -0.478259    1.149306
    112          6           0        5.638941   -0.907597    2.473252
    113          6           0        6.340655    0.191453    3.167610
    114          6           0        6.442065    1.200829    2.198401
    115          6           0        5.827767    0.769545    0.991696
    116          6           0        6.745890    0.188838    4.532121
    117          6           0        6.919691    2.537165    1.924956
    118          8           0        7.594432    3.361452    2.540606
    119          6           0        6.302487    3.021427    0.542589
    120          6           0        7.413942    3.612596   -0.280633
    121          8           0        8.347556    2.898871   -0.687529
    122          8           0        7.081493    4.867809   -0.633206
    123          6           0        8.147989    5.492416   -1.460413
    124          1           0        1.799861   -0.010001   -3.782428
    125          1           0        2.330021   -5.303471   -0.509860
    126          1           0        5.599417   -2.296834    3.929279
    127          1           0        4.400424    3.716580   -1.852689
    128          1           0        3.083712    2.237960   -3.856955
    129          1           0        2.205715    3.270788   -1.191892
    130          1           0        1.358051    1.809636   -1.740364
    131          1           0        1.289020    3.225837   -2.744992
    132          1           0        5.439308    1.889857   -4.032053
    133          1           0        6.623810    2.594082   -2.871786
    134          1           0        5.007057    4.711634   -3.876580
    135          1           0        5.151925    3.600873   -5.191914
    136          1           0        1.288184   -1.459720   -5.223689
    137          1           0        0.373783   -2.913000   -4.997781
    138          1           0        1.941586   -3.039723   -5.830064
    139          1           0        0.551195   -5.135854   -4.944648
    140          1           0        1.326171   -6.817168   -4.805669
    141          1           0        2.230849   -5.384710   -5.374003
    142          1           0        3.597457   -6.014235    1.584916
    143          1           0        3.660323   -4.164261    3.915246
    144          1           0        1.584500   -6.415713    2.541967
    145          1           0        1.095945   -4.762551    2.027759
    146          1           0        1.745264   -4.994723    3.570519
    147          1           0        5.001452   -6.297329    3.762932
    148          1           0        5.896290   -4.898055    4.325325
    149          1           0        5.901390   -6.361322    1.787424
    150          1           0        7.327805   -5.798213    2.732442
    151          1           0        6.377346   -4.664225    1.671775
    152          1           0        7.745686    0.601247    4.560776
    153          1           0        6.716312   -0.813730    4.953734
    154          1           0        5.980150    0.838613    4.964231
    155          1           0        5.526562    3.753751    0.768898
    156          1           0        8.432560    6.425126   -0.963663
    157          1           0        7.726525    5.573014   -2.480031
    158          1           0        9.102639    4.982474   -1.515759
 ---------------------------------------------------------------------
 Rotational constants (GHZ):           0.0214454           0.0142184           0.0119437
 Leave Link  202 at Thu Sep  9 19:10:10 2021, MaxMem= 23488102400 cpu:               0.2 elap:               0.0
 (Enter /sw/apps/gaussian-16.0/g16/l301.exe)
 Standard basis: def2SVP (5D, 7F)
 Ernie: Thresh=  0.10000D-02 Tol=  0.10000D-05 Strict=F.
 There are  1658 symmetry adapted cartesian basis functions of A   symmetry.
 There are  1572 symmetry adapted basis functions of A   symmetry.
  1572 basis functions,  2678 primitive gaussians,  1658 cartesian basis functions
   312 alpha electrons      312 beta electrons
       nuclear repulsion energy     15499.3500358377 Hartrees.
 IExCor=20419 DFT=T Ex+Corr=CAM-B3LYP ExCW=0 ScaHFX=  1.000000
 ScaDFX=  1.000000  1.000000  1.000000  0.810000 ScalE2=  1.000000  1.000000
 IRadAn=      5 IRanWt=     -1 IRanGd=            0 ICorTp=0 IEmpDi=  4
 HFx  wShort=  0.000000 wLong=  0.330000 cFull=  0.190000 cShort=  0.000000 cLong=  0.460000
 DFx  wShort=  0.000000 wLong=  0.330000 cFull=  0.190000 cShort=  0.000000 cLong=  0.460000
 NAtoms=  158 NActive=  158 NUniq=  158 SFac= 1.00D+00 NAtFMM=   60 NAOKFM=T Big=T
 Integral buffers will be    131072 words long.
 Raffenetti 1 integral format.
 Two-electron integral symmetry is turned on.
 Leave Link  301 at Thu Sep  9 19:10:10 2021, MaxMem= 23488102400 cpu:               1.7 elap:               0.1
 (Enter /sw/apps/gaussian-16.0/g16/l302.exe)
 NPDir=0 NMtPBC=     1 NCelOv=     1 NCel=       1 NClECP=     1 NCelD=      1
         NCelK=      1 NCelE2=     1 NClLst=     1 CellRange=     0.0.
 One-electron integrals computed using PRISM.
 One-electron integral symmetry used in STVInt
   1 Symmetry operations used in ECPInt.
 ECPInt:  NShTT=  271216 NPrTT=  987664 LenC2=  153652 LenP2D=  320429.
 LDataN:  DoStor=T MaxTD1= 4 Len=   56
 NBasis=  1572 RedAO= T EigKep=  3.36D-04  NBF=  1572
 NBsUse=  1572 1.00D-06 EigRej= -1.00D+00 NBFU=  1572
 Precomputing XC quadrature grid using
 IXCGrd= 4 IRadAn=           5 IRanWt=          -1 IRanGd=           0 AccXCQ= 0.00D+00.
 Generated NRdTot=       0 NPtTot=           0 NUsed=           0 NTot=          32
 NSgBfM=  1390  1390  1390  1390  1390 MxSgAt=   158 MxSgA2=   158.
 Leave Link  302 at Thu Sep  9 19:10:16 2021, MaxMem= 23488102400 cpu:             134.8 elap:               5.6
 (Enter /sw/apps/gaussian-16.0/g16/l303.exe)
 DipDrv:  MaxL=1.
 Leave Link  303 at Thu Sep  9 19:10:17 2021, MaxMem= 23488102400 cpu:               9.3 elap:               0.4
 (Enter /sw/apps/gaussian-16.0/g16/l308.exe)
 Leave Link  308 at Thu Sep  9 19:10:17 2021, MaxMem= 23488102400 cpu:              13.6 elap:               0.7
 (Enter /sw/apps/gaussian-16.0/g16/l401.exe)
 ExpMin= 3.36D-02 ExpMax= 4.95D+03 ExpMxC= 7.45D+02 IAcc=3 IRadAn=         5 AccDes= 0.00D+00
 Harris functional with IExCor=20419 and IRadAn=       5 diagonalized for initial guess.
 HarFok:  IExCor=20419 AccDes= 0.00D+00 IRadAn=         5 IDoV= 1 UseB2=F ITyADJ=14
 ICtDFT=  3500011 ScaDFX=  1.000000  1.000000  1.000000  1.000000
 FoFCou: FMM=F IPFlag=           0 FMFlag=      100000 FMFlg1=        2001
         NFxFlg=           0 DoJE=T BraDBF=F KetDBF=T FulRan=T
         wScrn=  0.000000 ICntrl=       500 IOpCl=  0 I1Cent=   200000004 NGrid=           0
         NMat0=    1 NMatS0=      1 NMatT0=    0 NMatD0=    1 NMtDS0=    0 NMtDT0=    0
 Petite list used in FoFCou.
 Harris En= -3918.65795856109    
 JPrj=0 DoOrth=F DoCkMO=F.
 Leave Link  401 at Thu Sep  9 19:10:25 2021, MaxMem= 23488102400 cpu:             190.2 elap:               8.0
 (Enter /sw/apps/gaussian-16.0/g16/l502.exe)
 Integral symmetry usage will be decided dynamically.
 Closed shell SCF:
 Using DIIS extrapolation, IDIIS=  1040.
 NGot= 23488102400 LenX= 23482547354 LenY= 23479796732
 Requested convergence on RMS density matrix=1.00D-08 within 128 cycles.
 Requested convergence on MAX density matrix=1.00D-06.
 Requested convergence on             energy=1.00D-06.
 No special actions if energy rises.
 Fock matrices will be formed incrementally for  20 cycles.

 Cycle   1  Pass 1  IDiag  1:
 FoFJK:  IHMeth= 1 ICntrl=       0 DoSepK=T KAlg= 0 I1Cent=           0 FoldK=F
 IRaf=         1 NMat=       1 IRICut=       1 DoRegI=T DoRafI=F ISym2E= 0 IDoP0=0 IntGTp=1.
 FoFCou: FMM=T IPFlag=           0 FMFlag=      100000 FMFlg1=        2001
         NFxFlg=           0 DoJE=T BraDBF=F KetDBF=F FulRan=T
         wScrn=  0.000000 ICntrl=       500 IOpCl=  0 I1Cent=           0 NGrid=           0
         NMat0=    1 NMatS0=      1 NMatT0=    0 NMatD0=    1 NMtDS0=    0 NMtDT0=    0
 Symmetry not used in FoFCou.
 FMM levels:  10  Number of levels for PrismC:   9
 E= -4068.94793112138    
 DIIS: error= 2.04D-02 at cycle   1 NSaved=   1.
 NSaved= 1 IEnMin= 1 EnMin= -4068.94793112138     IErMin= 1 ErrMin= 2.04D-02
 ErrMax= 2.04D-02  0.00D+00 EMaxC= 1.00D-01 BMatC= 1.69D+00 BMatP= 1.69D+00
 IDIUse=3 WtCom= 7.96D-01 WtEn= 2.04D-01
 Coeff-Com:  0.100D+01
 Coeff-En:   0.100D+01
 Coeff:      0.100D+01
 Gap=     0.120 Goal=   None    Shift=    0.000
 GapD=    0.120 DampG=1.000 DampE=0.500 DampFc=0.5000 IDamp=-1.
 Damping current iteration by 5.00D-01
 RMSDP=1.57D-03 MaxDP=1.36D-01              OVMax= 2.07D-01

 Cycle   2  Pass 1  IDiag  1:
 RMSU=  7.70D-04    CP:  9.82D-01
 E= -4069.33670535933     Delta-E=       -0.388774237952 Rises=F Damp=T
 DIIS: error= 1.27D-02 at cycle   2 NSaved=   2.
 NSaved= 2 IEnMin= 2 EnMin= -4069.33670535933     IErMin= 2 ErrMin= 1.27D-02
 ErrMax= 1.27D-02  0.00D+00 EMaxC= 1.00D-01 BMatC= 3.07D-01 BMatP= 1.69D+00
 IDIUse=3 WtCom= 8.73D-01 WtEn= 1.27D-01
 Coeff-Com: -0.213D+00 0.121D+01
 Coeff-En:   0.000D+00 0.100D+01
 Coeff:     -0.186D+00 0.119D+01
 Gap=     0.134 Goal=   None    Shift=    0.000
 RMSDP=7.69D-04 MaxDP=9.41D-02 DE=-3.89D-01 OVMax= 1.93D-01

 Cycle   3  Pass 1  IDiag  1:
 RMSU=  7.37D-04    CP:  9.68D-01  1.23D+00
 E= -4069.62371857162     Delta-E=       -0.287013212284 Rises=F Damp=F
 DIIS: error= 1.55D-02 at cycle   3 NSaved=   3.
 NSaved= 3 IEnMin= 3 EnMin= -4069.62371857162     IErMin= 2 ErrMin= 1.27D-02
 ErrMax= 1.55D-02  0.00D+00 EMaxC= 1.00D-01 BMatC= 2.03D-01 BMatP= 3.07D-01
 IDIUse=3 WtCom= 8.45D-01 WtEn= 1.55D-01
 Coeff-Com: -0.267D+00 0.653D+00 0.614D+00
 Coeff-En:   0.000D+00 0.000D+00 0.100D+01
 Coeff:     -0.226D+00 0.552D+00 0.674D+00
 Gap=     0.120 Goal=   None    Shift=    0.000
 RMSDP=5.18D-04 MaxDP=4.71D-02 DE=-2.87D-01 OVMax= 1.51D-01

 Cycle   4  Pass 1  IDiag  1:
 RMSU=  2.70D-04    CP:  9.65D-01  1.55D+00  4.99D-01
 E= -4069.76252297096     Delta-E=       -0.138804399339 Rises=F Damp=F
 DIIS: error= 6.94D-03 at cycle   4 NSaved=   4.
 NSaved= 4 IEnMin= 4 EnMin= -4069.76252297096     IErMin= 4 ErrMin= 6.94D-03
 ErrMax= 6.94D-03  0.00D+00 EMaxC= 1.00D-01 BMatC= 5.10D-02 BMatP= 2.03D-01
 IDIUse=3 WtCom= 9.31D-01 WtEn= 6.94D-02
 Coeff-Com: -0.110D+00 0.229D+00 0.409D+00 0.472D+00
 Coeff-En:   0.000D+00 0.000D+00 0.226D+00 0.774D+00
 Coeff:     -0.102D+00 0.213D+00 0.396D+00 0.493D+00
 Gap=     0.120 Goal=   None    Shift=    0.000
 RMSDP=2.08D-04 MaxDP=1.88D-02 DE=-1.39D-01 OVMax= 7.07D-02

 Cycle   5  Pass 1  IDiag  1:
 RMSU=  8.04D-05    CP:  9.64D-01  1.49D+00  6.87D-01  5.40D-01
 E= -4069.80974686234     Delta-E=       -0.047223891383 Rises=F Damp=F
 DIIS: error= 6.93D-04 at cycle   5 NSaved=   5.
 NSaved= 5 IEnMin= 5 EnMin= -4069.80974686234     IErMin= 5 ErrMin= 6.93D-04
 ErrMax= 6.93D-04  0.00D+00 EMaxC= 1.00D-01 BMatC= 1.36D-03 BMatP= 5.10D-02
 IDIUse=3 WtCom= 9.93D-01 WtEn= 6.93D-03
 Coeff-Com: -0.390D-01 0.768D-01 0.175D+00 0.258D+00 0.529D+00
 Coeff-En:   0.000D+00 0.000D+00 0.000D+00 0.000D+00 0.100D+01
 Coeff:     -0.387D-01 0.763D-01 0.174D+00 0.256D+00 0.532D+00
 Gap=     0.119 Goal=   None    Shift=    0.000
 RMSDP=4.67D-05 MaxDP=4.67D-03 DE=-4.72D-02 OVMax= 2.17D-02

 Cycle   6  Pass 1  IDiag  1:
 RMSU=  3.33D-05    CP:  9.64D-01  1.49D+00  6.77D-01  6.19D-01  7.10D-01
 E= -4069.81101883149     Delta-E=       -0.001271969155 Rises=F Damp=F
 DIIS: error= 1.99D-04 at cycle   6 NSaved=   6.
 NSaved= 6 IEnMin= 6 EnMin= -4069.81101883149     IErMin= 6 ErrMin= 1.99D-04
 ErrMax= 1.99D-04  0.00D+00 EMaxC= 1.00D-01 BMatC= 2.17D-04 BMatP= 1.36D-03
 IDIUse=3 WtCom= 9.98D-01 WtEn= 1.99D-03
 Coeff-Com:  0.145D-02-0.515D-02 0.148D-01 0.448D-01 0.308D+00 0.637D+00
 Coeff-En:   0.000D+00 0.000D+00 0.000D+00 0.000D+00 0.130D+00 0.870D+00
 Coeff:      0.145D-02-0.514D-02 0.148D-01 0.447D-01 0.307D+00 0.637D+00
 Gap=     0.120 Goal=   None    Shift=    0.000
 RMSDP=1.83D-05 MaxDP=1.33D-03 DE=-1.27D-03 OVMax= 8.34D-03

 Cycle   7  Pass 1  IDiag  1:
 RMSU=  1.17D-05    CP:  9.64D-01  1.49D+00  6.84D-01  6.16D-01  8.29D-01
                    CP:  7.29D-01
 E= -4069.81126522847     Delta-E=       -0.000246396972 Rises=F Damp=F
 DIIS: error= 1.16D-04 at cycle   7 NSaved=   7.
 NSaved= 7 IEnMin= 7 EnMin= -4069.81126522847     IErMin= 7 ErrMin= 1.16D-04
 ErrMax= 1.16D-04  0.00D+00 EMaxC= 1.00D-01 BMatC= 2.90D-05 BMatP= 2.17D-04
 IDIUse=3 WtCom= 9.99D-01 WtEn= 1.16D-03
 Coeff-Com:  0.463D-02-0.102D-01-0.863D-02-0.256D-02 0.112D+00 0.344D+00
 Coeff-Com:  0.560D+00
 Coeff-En:   0.000D+00 0.000D+00 0.000D+00 0.000D+00 0.000D+00 0.000D+00
 Coeff-En:   0.100D+01
 Coeff:      0.462D-02-0.102D-01-0.862D-02-0.256D-02 0.112D+00 0.344D+00
 Coeff:      0.561D+00
 Gap=     0.120 Goal=   None    Shift=    0.000
 RMSDP=6.96D-06 MaxDP=1.10D-03 DE=-2.46D-04 OVMax= 3.48D-03

 Cycle   8  Pass 1  IDiag  1:
 RMSU=  4.96D-06    CP:  9.64D-01  1.49D+00  6.84D-01  6.21D-01  8.28D-01
                    CP:  8.47D-01  8.01D-01
 E= -4069.81130033770     Delta-E=       -0.000035109231 Rises=F Damp=F
 DIIS: error= 6.29D-05 at cycle   8 NSaved=   8.
 NSaved= 8 IEnMin= 8 EnMin= -4069.81130033770     IErMin= 8 ErrMin= 6.29D-05
 ErrMax= 6.29D-05  0.00D+00 EMaxC= 1.00D-01 BMatC= 5.10D-06 BMatP= 2.90D-05
 IDIUse=1 WtCom= 1.00D+00 WtEn= 0.00D+00
 Coeff-Com:  0.229D-02-0.455D-02-0.797D-02-0.122D-01-0.696D-02 0.339D-01
 Coeff-Com:  0.308D+00 0.688D+00
 Coeff:      0.229D-02-0.455D-02-0.797D-02-0.122D-01-0.696D-02 0.339D-01
 Coeff:      0.308D+00 0.688D+00
 Gap=     0.120 Goal=   None    Shift=    0.000
 RMSDP=3.49D-06 MaxDP=4.15D-04 DE=-3.51D-05 OVMax= 1.17D-03

 Cycle   9  Pass 1  IDiag  1:
 RMSU=  2.03D-06    CP:  9.64D-01  1.49D+00  6.85D-01  6.23D-01  8.45D-01
                    CP:  8.76D-01  9.88D-01  9.80D-01
 E= -4069.81130854924     Delta-E=       -0.000008211544 Rises=F Damp=F
 DIIS: error= 2.00D-05 at cycle   9 NSaved=   9.
 NSaved= 9 IEnMin= 9 EnMin= -4069.81130854924     IErMin= 9 ErrMin= 2.00D-05
 ErrMax= 2.00D-05  0.00D+00 EMaxC= 1.00D-01 BMatC= 8.42D-07 BMatP= 5.10D-06
 IDIUse=1 WtCom= 1.00D+00 WtEn= 0.00D+00
 Coeff-Com:  0.527D-03-0.890D-03-0.288D-02-0.628D-02-0.196D-01-0.409D-01
 Coeff-Com:  0.893D-01 0.350D+00 0.631D+00
 Coeff:      0.527D-03-0.890D-03-0.288D-02-0.628D-02-0.196D-01-0.409D-01
 Coeff:      0.893D-01 0.350D+00 0.631D+00
 Gap=     0.120 Goal=   None    Shift=    0.000
 RMSDP=1.50D-06 MaxDP=1.46D-04 DE=-8.21D-06 OVMax= 7.56D-04

 Cycle  10  Pass 1  IDiag  1:
 RMSU=  9.96D-07    CP:  9.64D-01  1.49D+00  6.85D-01  6.23D-01  8.49D-01
                    CP:  8.87D-01  1.03D+00  1.15D+00  1.05D+00
 E= -4069.81131038384     Delta-E=       -0.000001834604 Rises=F Damp=F
 DIIS: error= 1.01D-05 at cycle  10 NSaved=  10.
 NSaved=10 IEnMin=10 EnMin= -4069.81131038384     IErMin=10 ErrMin= 1.01D-05
 ErrMax= 1.01D-05  0.00D+00 EMaxC= 1.00D-01 BMatC= 1.83D-07 BMatP= 8.42D-07
 IDIUse=1 WtCom= 1.00D+00 WtEn= 0.00D+00
 Coeff-Com: -0.417D-03 0.882D-03 0.115D-02 0.905D-03-0.389D-02-0.318D-01
 Coeff-Com: -0.410D-01-0.617D-01 0.227D+00 0.909D+00
 Coeff:     -0.417D-03 0.882D-03 0.115D-02 0.905D-03-0.389D-02-0.318D-01
 Coeff:     -0.410D-01-0.617D-01 0.227D+00 0.909D+00
 Gap=     0.120 Goal=   None    Shift=    0.000
 RMSDP=1.27D-06 MaxDP=1.26D-04 DE=-1.83D-06 OVMax= 6.77D-04

 Cycle  11  Pass 1  IDiag  1:
 RMSU=  5.73D-07    CP:  9.64D-01  1.49D+00  6.85D-01  6.23D-01  8.51D-01
                    CP:  8.97D-01  1.08D+00  1.26D+00  1.39D+00  1.34D+00
 E= -4069.81131123762     Delta-E=       -0.000000853772 Rises=F Damp=F
 DIIS: error= 4.66D-06 at cycle  11 NSaved=  11.
 NSaved=11 IEnMin=11 EnMin= -4069.81131123762     IErMin=11 ErrMin= 4.66D-06
 ErrMax= 4.66D-06  0.00D+00 EMaxC= 1.00D-01 BMatC= 8.21D-08 BMatP= 1.83D-07
 IDIUse=1 WtCom= 1.00D+00 WtEn= 0.00D+00
 Coeff-Com: -0.360D-03 0.704D-03 0.141D-02 0.214D-02 0.415D-02-0.963D-02
 Coeff-Com: -0.406D-01-0.131D+00-0.437D-01 0.518D+00 0.700D+00
 Coeff:     -0.360D-03 0.704D-03 0.141D-02 0.214D-02 0.415D-02-0.963D-02
 Coeff:     -0.406D-01-0.131D+00-0.437D-01 0.518D+00 0.700D+00
 Gap=     0.120 Goal=   None    Shift=    0.000
 RMSDP=7.37D-07 MaxDP=7.07D-05 DE=-8.54D-07 OVMax= 3.95D-04

 Cycle  12  Pass 1  IDiag  1:
 RMSU=  2.87D-07    CP:  9.64D-01  1.49D+00  6.85D-01  6.23D-01  8.52D-01
                    CP:  8.99D-01  1.10D+00  1.32D+00  1.54D+00  1.74D+00
                    CP:  1.15D+00
 E= -4069.81131154359     Delta-E=       -0.000000305972 Rises=F Damp=F
 DIIS: error= 2.87D-06 at cycle  12 NSaved=  12.
 NSaved=12 IEnMin=12 EnMin= -4069.81131154359     IErMin=12 ErrMin= 2.87D-06
 ErrMax= 2.87D-06  0.00D+00 EMaxC= 1.00D-01 BMatC= 1.96D-08 BMatP= 8.21D-08
 IDIUse=1 WtCom= 1.00D+00 WtEn= 0.00D+00
 Coeff-Com: -0.384D-04 0.578D-04 0.328D-03 0.719D-03 0.380D-02 0.300D-02
 Coeff-Com: -0.117D-02-0.439D-01-0.807D-01-0.711D-02 0.273D+00 0.852D+00
 Coeff:     -0.384D-04 0.578D-04 0.328D-03 0.719D-03 0.380D-02 0.300D-02
 Coeff:     -0.117D-02-0.439D-01-0.807D-01-0.711D-02 0.273D+00 0.852D+00
 Gap=     0.120 Goal=   None    Shift=    0.000
 RMSDP=4.45D-07 MaxDP=3.12D-05 DE=-3.06D-07 OVMax= 2.54D-04

 Cycle  13  Pass 1  IDiag  1:
 RMSU=  1.74D-07    CP:  9.64D-01  1.49D+00  6.85D-01  6.23D-01  8.53D-01
                    CP:  8.99D-01  1.10D+00  1.35D+00  1.65D+00  1.95D+00
                    CP:  1.54D+00  1.20D+00
 E= -4069.81131164715     Delta-E=       -0.000000103562 Rises=F Damp=F
 DIIS: error= 1.53D-06 at cycle  13 NSaved=  13.
 NSaved=13 IEnMin=13 EnMin= -4069.81131164715     IErMin=13 ErrMin= 1.53D-06
 ErrMax= 1.53D-06  0.00D+00 EMaxC= 1.00D-01 BMatC= 9.96D-09 BMatP= 1.96D-08
 IDIUse=1 WtCom= 1.00D+00 WtEn= 0.00D+00
 Coeff-Com:  0.118D-03-0.243D-03-0.349D-03-0.414D-03 0.906D-03 0.481D-02
 Coeff-Com:  0.175D-01 0.224D-01-0.339D-01-0.227D+00-0.166D+00 0.548D+00
 Coeff-Com:  0.835D+00
 Coeff:      0.118D-03-0.243D-03-0.349D-03-0.414D-03 0.906D-03 0.481D-02
 Coeff:      0.175D-01 0.224D-01-0.339D-01-0.227D+00-0.166D+00 0.548D+00
 Coeff:      0.835D+00
 Gap=     0.120 Goal=   None    Shift=    0.000
 RMSDP=3.79D-07 MaxDP=2.03D-05 DE=-1.04D-07 OVMax= 2.24D-04

 Cycle  14  Pass 1  IDiag  1:
 RMSU=  8.25D-08    CP:  9.64D-01  1.49D+00  6.85D-01  6.24D-01  8.53D-01
                    CP:  9.00D-01  1.11D+00  1.38D+00  1.73D+00  2.16D+00
                    CP:  1.80D+00  1.73D+00  1.16D+00
 E= -4069.81131169291     Delta-E=       -0.000000045755 Rises=F Damp=F
 DIIS: error= 7.90D-07 at cycle  14 NSaved=  14.
 NSaved=14 IEnMin=14 EnMin= -4069.81131169291     IErMin=14 ErrMin= 7.90D-07
 ErrMax= 7.90D-07  0.00D+00 EMaxC= 1.00D-01 BMatC= 1.52D-09 BMatP= 9.96D-09
 IDIUse=1 WtCom= 1.00D+00 WtEn= 0.00D+00
 Coeff-Com:  0.720D-04-0.142D-03-0.262D-03-0.403D-03-0.388D-03 0.124D-02
 Coeff-Com:  0.997D-02 0.209D-01 0.538D-02-0.103D+00-0.151D+00 0.656D-01
 Coeff-Com:  0.417D+00 0.735D+00
 Coeff:      0.720D-04-0.142D-03-0.262D-03-0.403D-03-0.388D-03 0.124D-02
 Coeff:      0.997D-02 0.209D-01 0.538D-02-0.103D+00-0.151D+00 0.656D-01
 Coeff:      0.417D+00 0.735D+00
 Gap=     0.120 Goal=   None    Shift=    0.000
 RMSDP=1.21D-07 MaxDP=6.38D-06 DE=-4.58D-08 OVMax= 6.64D-05

 Cycle  15  Pass 1  IDiag  1:
 RMSU=  4.05D-08    CP:  9.64D-01  1.49D+00  6.85D-01  6.24D-01  8.53D-01
                    CP:  8.99D-01  1.11D+00  1.38D+00  1.75D+00  2.21D+00
                    CP:  1.91D+00  1.88D+00  1.41D+00  1.05D+00
 E= -4069.81131169792     Delta-E=       -0.000000005017 Rises=F Damp=F
 DIIS: error= 4.49D-07 at cycle  15 NSaved=  15.
 NSaved=15 IEnMin=15 EnMin= -4069.81131169792     IErMin=15 ErrMin= 4.49D-07
 ErrMax= 4.49D-07  0.00D+00 EMaxC= 1.00D-01 BMatC= 2.51D-10 BMatP= 1.52D-09
 IDIUse=1 WtCom= 1.00D+00 WtEn= 0.00D+00
 Coeff-Com:  0.933D-05-0.168D-04-0.467D-04-0.102D-03-0.296D-03-0.483D-03
 Coeff-Com:  0.141D-02 0.379D-02 0.880D-02-0.347D-02-0.330D-01-0.695D-01
 Coeff-Com:  0.412D-01 0.306D+00 0.746D+00
 Coeff:      0.933D-05-0.168D-04-0.467D-04-0.102D-03-0.296D-03-0.483D-03
 Coeff:      0.141D-02 0.379D-02 0.880D-02-0.347D-02-0.330D-01-0.695D-01
 Coeff:      0.412D-01 0.306D+00 0.746D+00
 Gap=     0.120 Goal=   None    Shift=    0.000
 RMSDP=3.84D-08 MaxDP=2.22D-06 DE=-5.02D-09 OVMax= 2.63D-05

 Cycle  16  Pass 1  IDiag  1:
 RMSU=  1.92D-08    CP:  9.64D-01  1.49D+00  6.85D-01  6.24D-01  8.53D-01
                    CP:  8.99D-01  1.11D+00  1.38D+00  1.75D+00  2.22D+00
                    CP:  1.94D+00  1.93D+00  1.49D+00  1.24D+00  1.14D+00
 E= -4069.81131169910     Delta-E=       -0.000000001175 Rises=F Damp=F
 DIIS: error= 1.91D-07 at cycle  16 NSaved=  16.
 NSaved=16 IEnMin=16 EnMin= -4069.81131169910     IErMin=16 ErrMin= 1.91D-07
 ErrMax= 1.91D-07  0.00D+00 EMaxC= 1.00D-01 BMatC= 9.47D-11 BMatP= 2.51D-10
 IDIUse=1 WtCom= 1.00D+00 WtEn= 0.00D+00
 Coeff-Com: -0.136D-04 0.276D-04 0.435D-04 0.469D-04-0.429D-04-0.617D-03
 Coeff-Com: -0.165D-02-0.400D-02 0.383D-02 0.237D-01 0.218D-01-0.577D-01
 Coeff-Com: -0.799D-01-0.417D-01 0.384D+00 0.752D+00
 Coeff:     -0.136D-04 0.276D-04 0.435D-04 0.469D-04-0.429D-04-0.617D-03
 Coeff:     -0.165D-02-0.400D-02 0.383D-02 0.237D-01 0.218D-01-0.577D-01
 Coeff:     -0.799D-01-0.417D-01 0.384D+00 0.752D+00
 Gap=     0.120 Goal=   None    Shift=    0.000
 RMSDP=2.44D-08 MaxDP=1.48D-06 DE=-1.18D-09 OVMax= 1.43D-05

 Cycle  17  Pass 1  IDiag  1:
 RMSU=  1.07D-08    CP:  9.64D-01  1.49D+00  6.85D-01  6.24D-01  8.53D-01
                    CP:  9.00D-01  1.11D+00  1.38D+00  1.75D+00  2.22D+00
                    CP:  1.95D+00  1.95D+00  1.53D+00  1.33D+00  1.43D+00
                    CP:  1.25D+00
 E= -4069.81131169924     Delta-E=       -0.000000000138 Rises=F Damp=F
 DIIS: error= 1.04D-07 at cycle  17 NSaved=  17.
 NSaved=17 IEnMin=17 EnMin= -4069.81131169924     IErMin=17 ErrMin= 1.04D-07
 ErrMax= 1.04D-07  0.00D+00 EMaxC= 1.00D-01 BMatC= 1.95D-11 BMatP= 9.47D-11
 IDIUse=1 WtCom= 1.00D+00 WtEn= 0.00D+00
 Coeff-Com: -0.786D-05 0.154D-04 0.302D-04 0.434D-04 0.763D-04-0.143D-03
 Coeff-Com: -0.867D-03-0.290D-02-0.202D-03 0.980D-02 0.181D-01-0.670D-02
 Coeff-Com: -0.363D-01-0.991D-01-0.244D-01 0.288D+00 0.854D+00
 Coeff:     -0.786D-05 0.154D-04 0.302D-04 0.434D-04 0.763D-04-0.143D-03
 Coeff:     -0.867D-03-0.290D-02-0.202D-03 0.980D-02 0.181D-01-0.670D-02
 Coeff:     -0.363D-01-0.991D-01-0.244D-01 0.288D+00 0.854D+00
 Gap=     0.120 Goal=   None    Shift=    0.000
 RMSDP=1.36D-08 MaxDP=8.21D-07 DE=-1.38D-10 OVMax= 9.07D-06

 Cycle  18  Pass 1  IDiag  1:
 RMSU=  5.06D-09    CP:  9.64D-01  1.49D+00  6.85D-01  6.24D-01  8.53D-01
                    CP:  9.00D-01  1.11D+00  1.38D+00  1.75D+00  2.23D+00
                    CP:  1.95D+00  1.96D+00  1.55D+00  1.39D+00  1.59D+00
                    CP:  1.64D+00  1.40D+00
 E= -4069.81131169916     Delta-E=        0.000000000073 Rises=F Damp=F
 DIIS: error= 5.92D-08 at cycle  18 NSaved=  18.
 NSaved=18 IEnMin=17 EnMin= -4069.81131169924     IErMin=18 ErrMin= 5.92D-08
 ErrMax= 5.92D-08  0.00D+00 EMaxC= 1.00D-01 BMatC= 7.91D-12 BMatP= 1.95D-11
 IDIUse=1 WtCom= 1.00D+00 WtEn= 0.00D+00
 Coeff-Com:  0.128D-05-0.288D-05-0.172D-05 0.199D-05 0.634D-04 0.153D-03
 Coeff-Com:  0.289D-03 0.298D-04-0.115D-02-0.464D-02 0.411D-03 0.160D-01
 Coeff-Com:  0.161D-01-0.315D-01-0.148D+00-0.177D+00 0.368D+00 0.962D+00
 Coeff:      0.128D-05-0.288D-05-0.172D-05 0.199D-05 0.634D-04 0.153D-03
 Coeff:      0.289D-03 0.298D-04-0.115D-02-0.464D-02 0.411D-03 0.160D-01
 Coeff:      0.161D-01-0.315D-01-0.148D+00-0.177D+00 0.368D+00 0.962D+00
 Gap=     0.120 Goal=   None    Shift=    0.000
 RMSDP=1.13D-08 MaxDP=6.21D-07 DE= 7.28D-11 OVMax= 6.81D-06

 Cycle  19  Pass 1  IDiag  1:
 RMSU=  2.89D-09    CP:  9.64D-01  1.49D+00  6.85D-01  6.24D-01  8.53D-01
                    CP:  9.00D-01  1.11D+00  1.38D+00  1.75D+00  2.23D+00
                    CP:  1.96D+00  1.97D+00  1.56D+00  1.43D+00  1.73D+00
                    CP:  1.94D+00  1.93D+00  1.34D+00
 E= -4069.81131169953     Delta-E=       -0.000000000367 Rises=F Damp=F
 DIIS: error= 3.62D-08 at cycle  19 NSaved=  19.
 NSaved=19 IEnMin=19 EnMin= -4069.81131169953     IErMin=19 ErrMin= 3.62D-08
 ErrMax= 3.62D-08  0.00D+00 EMaxC= 1.00D-01 BMatC= 1.77D-12 BMatP= 7.91D-12
 IDIUse=1 WtCom= 1.00D+00 WtEn= 0.00D+00
 Coeff-Com:  0.293D-05-0.592D-05-0.970D-05-0.118D-04 0.169D-04 0.119D-03
 Coeff-Com:  0.429D-03 0.815D-03-0.522D-03-0.582D-02-0.523D-02 0.106D-01
 Coeff-Com:  0.211D-01 0.129D-01-0.696D-01-0.187D+00-0.398D-01 0.493D+00
 Coeff-Com:  0.769D+00
 Coeff:      0.293D-05-0.592D-05-0.970D-05-0.118D-04 0.169D-04 0.119D-03
 Coeff:      0.429D-03 0.815D-03-0.522D-03-0.582D-02-0.523D-02 0.106D-01
 Coeff:      0.211D-01 0.129D-01-0.696D-01-0.187D+00-0.398D-01 0.493D+00
 Coeff:      0.769D+00
 Gap=     0.120 Goal=   None    Shift=    0.000
 RMSDP=5.24D-09 MaxDP=2.90D-07 DE=-3.67D-10 OVMax= 3.42D-06

 SCF Done:  E(RCAM-B3LYP) =  -4069.81131170     A.U. after   19 cycles
            NFock= 19  Conv=0.52D-08     -V/T= 2.0102
 KE= 4.028800130454D+03 PE=-4.047958905104D+04 EE= 1.688162757305D+04
 Leave Link  502 at Thu Sep  9 19:21:44 2021, MaxMem= 23488102400 cpu:           15655.8 elap:             678.9
 (Enter /sw/apps/gaussian-16.0/g16/l801.exe)
 DoSCS=F DFT=T ScalE2(SS,OS)=  1.000000  1.000000
 ExpMin= 3.36D-02 ExpMax= 4.95D+03 ExpMxC= 7.45D+02 IAcc=3 IRadAn=         5 AccDes= 0.00D+00
 HarFok:  IExCor=  205 AccDes= 0.00D+00 IRadAn=         5 IDoV=-2 UseB2=F ITyADJ=14
 ICtDFT= 12500011 ScaDFX=  1.000000  1.000000  1.000000  1.000000
 GSVD:  LWork=       -9588 too small for GESVD, short by       45590 words or       45590 for optimal perf.
 Largest valence mixing into a core orbital is  2.03D-04
 Largest core mixing into a valence orbital is  5.24D-05
 Range of M.O.s used for correlation:    95  1572
 NBasis=  1572 NAE=   312 NBE=   312 NFC=    94 NFV=     0
 NROrb=   1478 NOA=   218 NOB=   218 NVA=  1260 NVB=  1260
 Leave Link  801 at Thu Sep  9 19:21:45 2021, MaxMem= 23488102400 cpu:               9.3 elap:               0.4
 (Enter /sw/apps/gaussian-16.0/g16/l914.exe)
 RHF ground state
 Two-electron integrals replicated using symmetry.
 MDV= 23488102400 DFT=T DoStab=F Mixed=T DoRPA=T DoScal=F NonHer=T
 Making orbital integer symmetry assigments:
 Orbital symmetries:
       Occupied  (A) (A) (A) (A) (A) (A) (A) (A) (A) (A) (A) (A)
                 (A) (A) (A) (A) (A) (A) (A) (A) (A) (A) (A) (A)
                 (A) (A) (A) (A) (A) (A) (A) (A) (A) (A) (A) (A)
                 (A) (A) (A) (A) (A) (A) (A) (A) (A) (A) (A) (A)
                 (A) (A) (A) (A) (A) (A) (A) (A) (A) (A) (A) (A)
                 (A) (A) (A) (A) (A) (A) (A) (A) (A) (A) (A) (A)
                 (A) (A) (A) (A) (A) (A) (A) (A) (A) (A) (A) (A)
                 (A) (A) (A) (A) (A) (A) (A) (A) (A) (A) (A) (A)
                 (A) (A) (A) (A) (A) (A) (A) (A) (A) (A) (A) (A)
                 (A) (A) (A) (A) (A) (A) (A) (A) (A) (A) (A) (A)
                 (A) (A) (A) (A) (A) (A) (A) (A) (A) (A) (A) (A)
                 (A) (A) (A) (A) (A) (A) (A) (A) (A) (A) (A) (A)
                 (A) (A) (A) (A) (A) (A) (A) (A) (A) (A) (A) (A)
                 (A) (A) (A) (A) (A) (A) (A) (A) (A) (A) (A) (A)
                 (A) (A) (A) (A) (A) (A) (A) (A) (A) (A) (A) (A)
                 (A) (A) (A) (A) (A) (A) (A) (A) (A) (A) (A) (A)
                 (A) (A) (A) (A) (A) (A) (A) (A) (A) (A) (A) (A)
                 (A) (A) (A) (A) (A) (A) (A) (A) (A) (A) (A) (A)
                 (A) (A) (A) (A) (A) (A) (A) (A) (A) (A) (A) (A)
                 (A) (A) (A) (A) (A) (A) (A) (A) (A) (A) (A) (A)
                 (A) (A) (A) (A) (A) (A) (A) (A) (A) (A) (A) (A)
                 (A) (A) (A) (A) (A) (A) (A) (A) (A) (A) (A) (A)
                 (A) (A) (A) (A) (A) (A) (A) (A) (A) (A) (A) (A)
                 (A) (A) (A) (A) (A) (A) (A) (A) (A) (A) (A) (A)
                 (A) (A) (A) (A) (A) (A) (A) (A) (A) (A) (A) (A)
                 (A) (A) (A) (A) (A) (A) (A) (A) (A) (A) (A) (A)
       Virtual   (A) (A) (A) (A) (A) (A) (A) (A) (A) (A) (A) (A)
                 (A) (A) (A) (A) (A) (A) (A) (A) (A) (A) (A) (A)
                 (A) (A) (A) (A) (A) (A) (A) (A) (A) (A) (A) (A)
                 (A) (A) (A) (A) (A) (A) (A) (A) (A) (A) (A) (A)
                 (A) (A) (A) (A) (A) (A) (A) (A) (A) (A) (A) (A)
                 (A) (A) (A) (A) (A) (A) (A) (A) (A) (A) (A) (A)
                 (A) (A) (A) (A) (A) (A) (A) (A) (A) (A) (A) (A)
                 (A) (A) (A) (A) (A) (A) (A) (A) (A) (A) (A) (A)
                 (A) (A) (A) (A) (A) (A) (A) (A) (A) (A) (A) (A)
                 (A) (A) (A) (A) (A) (A) (A) (A) (A) (A) (A) (A)
                 (A) (A) (A) (A) (A) (A) (A) (A) (A) (A) (A) (A)
                 (A) (A) (A) (A) (A) (A) (A) (A) (A) (A) (A) (A)
                 (A) (A) (A) (A) (A) (A) (A) (A) (A) (A) (A) (A)
                 (A) (A) (A) (A) (A) (A) (A) (A) (A) (A) (A) (A)
                 (A) (A) (A) (A) (A) (A) (A) (A) (A) (A) (A) (A)
                 (A) (A) (A) (A) (A) (A) (A) (A) (A) (A) (A) (A)
                 (A) (A) (A) (A) (A) (A) (A) (A) (A) (A) (A) (A)
                 (A) (A) (A) (A) (A) (A) (A) (A) (A) (A) (A) (A)
                 (A) (A) (A) (A) (A) (A) (A) (A) (A) (A) (A) (A)
                 (A) (A) (A) (A) (A) (A) (A) (A) (A) (A) (A) (A)
                 (A) (A) (A) (A) (A) (A) (A) (A) (A) (A) (A) (A)
                 (A) (A) (A) (A) (A) (A) (A) (A) (A) (A) (A) (A)
                 (A) (A) (A) (A) (A) (A) (A) (A) (A) (A) (A) (A)
                 (A) (A) (A) (A) (A) (A) (A) (A) (A) (A) (A) (A)
                 (A) (A) (A) (A) (A) (A) (A) (A) (A) (A) (A) (A)
                 (A) (A) (A) (A) (A) (A) (A) (A) (A) (A) (A) (A)
                 (A) (A) (A) (A) (A) (A) (A) (A) (A) (A) (A) (A)
                 (A) (A) (A) (A) (A) (A) (A) (A) (A) (A) (A) (A)
                 (A) (A) (A) (A) (A) (A) (A) (A) (A) (A) (A) (A)
                 (A) (A) (A) (A) (A) (A) (A) (A) (A) (A) (A) (A)
                 (A) (A) (A) (A) (A) (A) (A) (A) (A) (A) (A) (A)
                 (A) (A) (A) (A) (A) (A) (A) (A) (A) (A) (A) (A)
                 (A) (A) (A) (A) (A) (A) (A) (A) (A) (A) (A) (A)
                 (A) (A) (A) (A) (A) (A) (A) (A) (A) (A) (A) (A)
                 (A) (A) (A) (A) (A) (A) (A) (A) (A) (A) (A) (A)
                 (A) (A) (A) (A) (A) (A) (A) (A) (A) (A) (A) (A)
                 (A) (A) (A) (A) (A) (A) (A) (A) (A) (A) (A) (A)
                 (A) (A) (A) (A) (A) (A) (A) (A) (A) (A) (A) (A)
                 (A) (A) (A) (A) (A) (A) (A) (A) (A) (A) (A) (A)
                 (A) (A) (A) (A) (A) (A) (A) (A) (A) (A) (A) (A)
                 (A) (A) (A) (A) (A) (A) (A) (A) (A) (A) (A) (A)
                 (A) (A) (A) (A) (A) (A) (A) (A) (A) (A) (A) (A)
                 (A) (A) (A) (A) (A) (A) (A) (A) (A) (A) (A) (A)
                 (A) (A) (A) (A) (A) (A) (A) (A) (A) (A) (A) (A)
                 (A) (A) (A) (A) (A) (A) (A) (A) (A) (A) (A) (A)
                 (A) (A) (A) (A) (A) (A) (A) (A) (A) (A) (A) (A)
                 (A) (A) (A) (A) (A) (A) (A) (A) (A) (A) (A) (A)
                 (A) (A) (A) (A) (A) (A) (A) (A) (A) (A) (A) (A)
                 (A) (A) (A) (A) (A) (A) (A) (A) (A) (A) (A) (A)
                 (A) (A) (A) (A) (A) (A) (A) (A) (A) (A) (A) (A)
                 (A) (A) (A) (A) (A) (A) (A) (A) (A) (A) (A) (A)
                 (A) (A) (A) (A) (A) (A) (A) (A) (A) (A) (A) (A)
                 (A) (A) (A) (A) (A) (A) (A) (A) (A) (A) (A) (A)
                 (A) (A) (A) (A) (A) (A) (A) (A) (A) (A) (A) (A)
                 (A) (A) (A) (A) (A) (A) (A) (A) (A) (A) (A) (A)
                 (A) (A) (A) (A) (A) (A) (A) (A) (A) (A) (A) (A)
                 (A) (A) (A) (A) (A) (A) (A) (A) (A) (A) (A) (A)
                 (A) (A) (A) (A) (A) (A) (A) (A) (A) (A) (A) (A)
                 (A) (A) (A) (A) (A) (A) (A) (A) (A) (A) (A) (A)
                 (A) (A) (A) (A) (A) (A) (A) (A) (A) (A) (A) (A)
                 (A) (A) (A) (A) (A) (A) (A) (A) (A) (A) (A) (A)
                 (A) (A) (A) (A) (A) (A) (A) (A) (A) (A) (A) (A)
                 (A) (A) (A) (A) (A) (A) (A) (A) (A) (A) (A) (A)
                 (A) (A) (A) (A) (A) (A) (A) (A) (A) (A) (A) (A)
                 (A) (A) (A) (A) (A) (A) (A) (A) (A) (A) (A) (A)
                 (A) (A) (A) (A) (A) (A) (A) (A) (A) (A) (A) (A)
                 (A) (A) (A) (A) (A) (A) (A) (A) (A) (A) (A) (A)
                 (A) (A) (A) (A) (A) (A) (A) (A) (A) (A) (A) (A)
                 (A) (A) (A) (A) (A) (A) (A) (A) (A) (A) (A) (A)
                 (A) (A) (A) (A) (A) (A) (A) (A) (A) (A) (A) (A)
                 (A) (A) (A) (A) (A) (A) (A) (A) (A) (A) (A) (A)
                 (A) (A) (A) (A) (A) (A) (A) (A) (A) (A) (A) (A)
                 (A) (A) (A) (A) (A) (A) (A) (A) (A) (A) (A) (A)
                 (A) (A) (A) (A) (A) (A) (A) (A) (A) (A) (A) (A)
                 (A) (A) (A) (A) (A) (A) (A) (A) (A) (A) (A) (A)
                 (A) (A) (A) (A) (A) (A) (A) (A) (A) (A) (A) (A)
                 (A) (A) (A) (A) (A) (A) (A) (A) (A) (A) (A) (A)
                 (A) (A) (A) (A) (A) (A) (A) (A) (A) (A) (A) (A)
                 (A) (A) (A) (A) (A) (A) (A) (A) (A) (A) (A) (A)
                 (A) (A) (A) (A) (A) (A) (A) (A) (A) (A) (A) (A)
                 (A) (A) (A) (A) (A) (A) (A) (A) (A) (A) (A) (A)
                 (A) (A) (A) (A) (A) (A) (A) (A) (A) (A) (A) (A)
                 (A) (A) (A) (A) (A) (A) (A) (A) (A) (A) (A) (A)
                 (A) (A) (A) (A) (A) (A) (A) (A) (A) (A) (A) (A)
                 (A) (A) (A) (A) (A) (A) (A) (A) (A) (A) (A) (A)
                 (A) (A) (A) (A) (A) (A) (A) (A) (A) (A) (A) (A)
                 (A) (A) (A) (A) (A) (A) (A) (A) (A) (A) (A) (A)
                 (A) (A) (A) (A) (A) (A) (A) (A) (A) (A) (A) (A)
                 (A) (A) (A) (A) (A) (A) (A) (A) (A) (A) (A) (A)
                 (A) (A) (A) (A) (A) (A) (A) (A) (A) (A) (A) (A)
                 (A) (A) (A) (A) (A) (A) (A) (A) (A) (A) (A) (A)
                 (A) (A) (A) (A) (A) (A) (A) (A) (A) (A) (A) (A)
                 (A) (A) (A) (A) (A) (A) (A) (A) (A) (A) (A) (A)
                 (A) (A) (A) (A) (A) (A) (A) (A) (A) (A) (A) (A)
                 (A) (A) (A) (A) (A) (A) (A) (A) (A) (A) (A) (A)
                 (A) (A) (A) (A) (A) (A) (A) (A) (A) (A) (A) (A)
                 (A) (A) (A) (A) (A) (A) (A) (A) (A) (A) (A) (A)
                 (A) (A) (A) (A) (A) (A) (A) (A) (A) (A) (A) (A)
                 (A) (A) (A) (A) (A) (A) (A) (A) (A) (A) (A) (A)
                 (A) (A) (A) (A) (A) (A) (A) (A) (A) (A) (A) (A)
                 (A) (A) (A) (A) (A) (A) (A) (A) (A) (A) (A) (A)
                 (A) (A) (A) (A) (A) (A) (A) (A) (A) (A) (A) (A)
                 (A) (A) (A) (A) (A) (A) (A) (A) (A) (A) (A) (A)
                 (A) (A) (A) (A) (A) (A) (A) (A) (A) (A) (A) (A)
                 (A) (A) (A) (A) (A) (A) (A) (A) (A) (A) (A) (A)
    20 initial guesses have been made.
 Convergence on wavefunction:    0.001000000000000
 Davidson Disk Diagonalization:  ConvIn= 1.00D-03 SkipCon=T Conv= 1.00D-03.
 Max sub-space:  2000 roots to seek:    20 dimension of matrix:       549360
 Iteration     1 Dimension    20 NMult     0 NNew     20
 CISAX will form    20 AO SS matrices at one time.
 NMat=    20 NSing=    20 JSym2X= 0.
 FoFJK:  IHMeth= 1 ICntrl=       0 DoSepK=T KAlg= 0 I1Cent=           0 FoldK=F
 IRaf=         1 NMat=      40 IRICut=       1 DoRegI=T DoRafI=F ISym2E= 0 IDoP0=3 IntGTp=3.
 FoFCou: FMM=T IPFlag=           0 FMFlag=      100000 FMFlg1=        2001
         NFxFlg=           0 DoJE=F BraDBF=F KetDBF=F FulRan=T
         wScrn=  0.000000 ICntrl=       500 IOpCl=  0 I1Cent=           0 NGrid=           0
         NMat0=   20 NMatS0=     20 NMatT0=    0 NMatD0=   20 NMtDS0=    0 NMtDT0=    0
 Symmetry not used in FoFCou.
 FMM levels:  10  Number of levels for PrismC:   9
 New state      2 was old state      4
 New state      3 was old state      7
 New state      4 was old state     10
 New state      5 was old state      6
 Excitation Energies [eV] at current iteration:
 Root      1 :     2.329734919317436
 Root      2 :     2.529158666376331
 Root      3 :     2.597056668240401
 Root      4 :     2.623244584789016
 Root      5 :     2.625608891688668
 Root      6 :     2.753584706692383
 Root      7 :     3.124145404272010
 Root      8 :     3.324970323482348
 Root      9 :     3.622711488525215
 Root     10 :     3.666971131760443
 Root     11 :     3.741530692153841
 Root     12 :     3.761153890013016
 Root     13 :     4.231167365416237
 Root     14 :     4.246740007666671
 Root     15 :     4.362351545024788
 Root     16 :     4.451662367303869
 Root     17 :     4.479480177579093
 Root     18 :     4.662199816965853
 Root     19 :     4.708005673497422
 Root     20 :     4.925557859342780
 Iteration     2 Dimension    30 NMult    20 NNew     10
 CISAX will form    10 AO SS matrices at one time.
 NMat=    10 NSing=    10 JSym2X= 0.
 New state      1 was old state      3
 Root      1 not converged, maximum delta is    0.356868359572775
 New state      2 was old state      5
 Root      2 not converged, maximum delta is    0.278974205668046
 New state      3 was old state      4
 Root      3 not converged, maximum delta is    0.157743680961975
 New state      4 was old state      1
 Root      4 not converged, maximum delta is    0.007260940463925
 New state      5 was old state      2
 Root      5 not converged, maximum delta is    0.010544044124937
 Excitation Energies [eV] at current iteration:
 Root      1 :     1.767813131995238   Change is   -0.829243536245162
 Root      2 :     2.227575890450409   Change is   -0.398033001238259
 Root      3 :     2.242829114468617   Change is   -0.380415470320400
 Root      4 :     2.328016490246065   Change is   -0.001718429071371
 Root      5 :     2.527061347399312   Change is   -0.002097318977019
 Iteration     3 Dimension    40 NMult    30 NNew     10
 CISAX will form    10 AO SS matrices at one time.
 NMat=    10 NSing=    10 JSym2X= 0.
 Root      1 not converged, maximum delta is    0.053160121903215
 Root      2 not converged, maximum delta is    0.133411449743257
 Root      3 not converged, maximum delta is    0.166692434123854
 Root      4 not converged, maximum delta is    0.002124832045403
 No map to state      5
 Excitation Energies [eV] at current iteration:
 Root      1 :     1.664014220922619   Change is   -0.103798911072619
 Root      2 :     2.186231182580314   Change is   -0.041344707870096
 Root      3 :     2.191193152644253   Change is   -0.051635961824363
 Root      4 :     2.328000574988092   Change is   -0.000015915257973
 Root      5 :     2.371506733997652
 Iteration     4 Dimension    50 NMult    40 NNew     10
 CISAX will form    10 AO SS matrices at one time.
 NMat=    10 NSing=    10 JSym2X= 0.
 Root      1 not converged, maximum delta is    0.010963241723708
 New state      2 was old state      5
 Root      2 not converged, maximum delta is    0.184076674886287
 New state      3 was old state      2
 Root      3 not converged, maximum delta is    0.219708299229165
 New state      4 was old state      3
 Root      4 not converged, maximum delta is    0.257981759011514
 New state      5 was old state      4
 Root      5 not converged, maximum delta is    0.002339234592473
 Excitation Energies [eV] at current iteration:
 Root      1 :     1.647515986941802   Change is   -0.016498233980817
 Root      2 :     1.763575244457536   Change is   -0.607931489540116
 Root      3 :     2.180515372934179   Change is   -0.005715809646135
 Root      4 :     2.197479021782806   Change is    0.006285869138552
 Root      5 :     2.328001942196510   Change is    0.000001367208418
 Iteration     5 Dimension    60 NMult    50 NNew     10
 CISAX will form    10 AO SS matrices at one time.
 NMat=    10 NSing=    10 JSym2X= 0.
 Root      1 not converged, maximum delta is    0.001567820302946
 Root      2 not converged, maximum delta is    0.028122598635549
 Root      3 not converged, maximum delta is    0.002213580202007
 Root      4 not converged, maximum delta is    0.004445024198666
 Root      5 has converged.
 Excitation Energies [eV] at current iteration:
 Root      1 :     1.645816190972746   Change is   -0.001699795969056
 Root      2 :     1.714632686009306   Change is   -0.048942558448230
 Root      3 :     2.179687052125217   Change is   -0.000828320808962
 Root      4 :     2.196140664223774   Change is   -0.001338357559031
 Root      5 :     2.328001888458016   Change is   -0.000000053738493
 Iteration     6 Dimension    68 NMult    60 NNew      8
 CISAX will form     8 AO SS matrices at one time.
 NMat=     8 NSing=     8 JSym2X= 0.
 Root      1 has converged.
 Root      2 not converged, maximum delta is    0.011487065688654
 Root      3 has converged.
 Root      4 has converged.
 Root      5 has converged.
 Excitation Energies [eV] at current iteration:
 Root      1 :     1.645583410131787   Change is   -0.000232780840959
 Root      2 :     1.704796962995051   Change is   -0.009835723014255
 Root      3 :     2.179560536061714   Change is   -0.000126516063504
 Root      4 :     2.195942124695680   Change is   -0.000198539528094
 Root      5 :     2.328001887705578   Change is   -0.000000000752438
 Iteration     7 Dimension    70 NMult    68 NNew      2
 CISAX will form     2 AO SS matrices at one time.
 NMat=     2 NSing=     2 JSym2X= 0.
 Root      1 has converged.
 Root      2 not converged, maximum delta is    0.001349290770888
 Root      3 has converged.
 Root      4 has converged.
[...]
 Alpha virt. eigenvalues --    1.82790   1.82935   1.82964   1.83226   1.83355
 Alpha virt. eigenvalues --    1.83660   1.83684   1.83939   1.84046   1.84334
 Alpha virt. eigenvalues --    1.84397   1.84640   1.84674   1.84968   1.84979
 Alpha virt. eigenvalues --    1.85150   1.85247   1.85355   1.85433   1.85645
 Alpha virt. eigenvalues --    1.85751   1.86052   1.86230   1.86431   1.86507
 Alpha virt. eigenvalues --    1.86680   1.86792   1.86902   1.86955   1.87168
 Alpha virt. eigenvalues --    1.87305   1.87548   1.87629   1.87743   1.87897
 Alpha virt. eigenvalues --    1.87917   1.88146   1.88310   1.88392   1.88662
 Alpha virt. eigenvalues --    1.88732   1.89068   1.89131   1.89263   1.89498
 Alpha virt. eigenvalues --    1.89632   1.89800   1.89972   1.90012   1.90349
 Alpha virt. eigenvalues --    1.90620   1.91054   1.91210   1.91356   1.91549
 Alpha virt. eigenvalues --    1.91804   1.92023   1.92361   1.92432   1.92801
 Alpha virt. eigenvalues --    1.92866   1.93235   1.93309   1.93641   1.94167
 Alpha virt. eigenvalues --    1.94428   1.94575   1.94941   1.95402   1.95600
 Alpha virt. eigenvalues --    1.95713   1.95840   1.95973   1.96038   1.96196
 Alpha virt. eigenvalues --    1.96330   1.96477   1.96632   1.96766   1.97088
 Alpha virt. eigenvalues --    1.97324   1.97663   1.97713   1.97960   1.98017
 Alpha virt. eigenvalues --    1.98357   1.98503   1.98527   1.99005   1.99240
 Alpha virt. eigenvalues --    1.99646   2.00098   2.00539   2.00818   2.00919
 Alpha virt. eigenvalues --    2.01242   2.01280   2.01488   2.01571   2.01702
 Alpha virt. eigenvalues --    2.01775   2.01995   2.02643   2.02860   2.03086
 Alpha virt. eigenvalues --    2.03238   2.03316   2.03485   2.03536   2.03671
 Alpha virt. eigenvalues --    2.03940   2.04232   2.04828   2.05099   2.05396
 Alpha virt. eigenvalues --    2.05749   2.05956   2.06430   2.06777   2.07066
 Alpha virt. eigenvalues --    2.07196   2.07502   2.08479   2.08647   2.08836
 Alpha virt. eigenvalues --    2.09150   2.09431   2.09747   2.10680   2.11046
 Alpha virt. eigenvalues --    2.11155   2.11330   2.11552   2.11573   2.11676
 Alpha virt. eigenvalues --    2.12018   2.12332   2.12621   2.12674   2.12732
 Alpha virt. eigenvalues --    2.12962   2.13061   2.13532   2.13908   2.14059
 Alpha virt. eigenvalues --    2.14445   2.15216   2.15535   2.15789   2.16246
 Alpha virt. eigenvalues --    2.16480   2.16623   2.16767   2.17303   2.17347
 Alpha virt. eigenvalues --    2.17591   2.17781   2.17965   2.18135   2.18195
 Alpha virt. eigenvalues --    2.18231   2.18691   2.18860   2.19398   2.19529
 Alpha virt. eigenvalues --    2.19884   2.19994   2.20088   2.20408   2.20596
 Alpha virt. eigenvalues --    2.21112   2.21294   2.21555   2.21608   2.21925
 Alpha virt. eigenvalues --    2.22016   2.22551   2.22862   2.23218   2.23527
 Alpha virt. eigenvalues --    2.24278   2.24545   2.24893   2.25151   2.26143
 Alpha virt. eigenvalues --    2.26601   2.26664   2.26957   2.27151   2.27359
 Alpha virt. eigenvalues --    2.27985   2.28546   2.29139   2.29578   2.29639
 Alpha virt. eigenvalues --    2.30054   2.30312   2.30797   2.30934   2.30983
 Alpha virt. eigenvalues --    2.31048   2.31358   2.32017   2.32372   2.32986
 Alpha virt. eigenvalues --    2.33329   2.33396   2.33628   2.34038   2.34293
 Alpha virt. eigenvalues --    2.35216   2.35452   2.35635   2.36084   2.36261
 Alpha virt. eigenvalues --    2.36468   2.36493   2.36558   2.37608   2.37805
 Alpha virt. eigenvalues --    2.38147   2.38499   2.38658   2.38945   2.39467
 Alpha virt. eigenvalues --    2.39817   2.40076   2.40312   2.40390   2.40985
 Alpha virt. eigenvalues --    2.41078   2.41361   2.41595   2.41809   2.41880
 Alpha virt. eigenvalues --    2.42278   2.42849   2.42919   2.43184   2.43369
 Alpha virt. eigenvalues --    2.44017   2.44105   2.44584   2.44755   2.44933
 Alpha virt. eigenvalues --    2.45163   2.45431   2.45708   2.46177   2.46339
 Alpha virt. eigenvalues --    2.46419   2.46621   2.46653   2.46944   2.47146
 Alpha virt. eigenvalues --    2.47506   2.47598   2.48016   2.49208   2.49480
 Alpha virt. eigenvalues --    2.49960   2.49998   2.50441   2.50548   2.50971
 Alpha virt. eigenvalues --    2.51431   2.51707   2.51731   2.52259   2.52523
 Alpha virt. eigenvalues --    2.52652   2.53334   2.53794   2.54027   2.54095
 Alpha virt. eigenvalues --    2.54372   2.54674   2.54955   2.55398   2.55801
 Alpha virt. eigenvalues --    2.57726   2.58222   2.58521   2.59084   2.60043
 Alpha virt. eigenvalues --    2.60423   2.60466   2.61091   2.61577   2.61954
 Alpha virt. eigenvalues --    2.62359   2.62567   2.62817   2.63276   2.63773
 Alpha virt. eigenvalues --    2.64150   2.64383   2.64584   2.64943   2.65252
 Alpha virt. eigenvalues --    2.65607   2.66007   2.66664   2.66761   2.66933
 Alpha virt. eigenvalues --    2.67233   2.67783   2.68134   2.68701   2.68865
 Alpha virt. eigenvalues --    2.68929   2.69177   2.69265   2.69741   2.69864
 Alpha virt. eigenvalues --    2.70284   2.70844   2.71226   2.71913   2.72013
 Alpha virt. eigenvalues --    2.72510   2.72614   2.72658   2.72890   2.73179
 Alpha virt. eigenvalues --    2.73360   2.73392   2.73595   2.74383   2.74639
 Alpha virt. eigenvalues --    2.74831   2.75195   2.76478   2.76648   2.77095
 Alpha virt. eigenvalues --    2.77203   2.77321   2.77731   2.78087   2.78405
 Alpha virt. eigenvalues --    2.78575   2.78808   2.78997   2.79289   2.80210
 Alpha virt. eigenvalues --    2.80333   2.80417   2.80809   2.80989   2.81270
 Alpha virt. eigenvalues --    2.81779   2.82119   2.82220   2.82466   2.83610
 Alpha virt. eigenvalues --    2.83628   2.83935   2.84040   2.84429   2.84633
 Alpha virt. eigenvalues --    2.84780   2.85000   2.85542   2.85780   2.86761
 Alpha virt. eigenvalues --    2.86868   2.87289   2.87445   2.88027   2.88331
 Alpha virt. eigenvalues --    2.88379   2.88747   2.88812   2.88985   2.90326
 Alpha virt. eigenvalues --    2.90797   2.91090   2.91201   2.92995   2.93461
 Alpha virt. eigenvalues --    2.93886   2.94071   2.94450   2.94666   2.95161
 Alpha virt. eigenvalues --    2.95627   2.95961   2.96032   2.96327   2.96475
 Alpha virt. eigenvalues --    2.96990   2.97010   2.97632   2.98044   2.98094
 Alpha virt. eigenvalues --    2.98252   2.98470   2.98504   2.98718   2.98756
 Alpha virt. eigenvalues --    2.98951   2.99039   2.99456   2.99822   2.99897
 Alpha virt. eigenvalues --    3.00073   3.00142   3.00307   3.00409   3.01156
 Alpha virt. eigenvalues --    3.01868   3.01894   3.02049   3.02276   3.02568
 Alpha virt. eigenvalues --    3.02816   3.02904   3.03191   3.03462   3.03917
 Alpha virt. eigenvalues --    3.04039   3.04239   3.04337   3.04428   3.04552
 Alpha virt. eigenvalues --    3.04852   3.05198   3.05475   3.05960   3.06354
 Alpha virt. eigenvalues --    3.06621   3.07122   3.07987   3.08044   3.09230
 Alpha virt. eigenvalues --    3.09459   3.09556   3.10273   3.10558   3.10916
 Alpha virt. eigenvalues --    3.11255   3.11577   3.11753   3.11953   3.12158
 Alpha virt. eigenvalues --    3.12456   3.13112   3.13535   3.13774   3.13786
 Alpha virt. eigenvalues --    3.13935   3.14599   3.15849   3.16051   3.17145
 Alpha virt. eigenvalues --    3.17643   3.17963   3.17987   3.19015   3.19127
 Alpha virt. eigenvalues --    3.22138   3.22717   3.23816   3.24545   3.24562
 Alpha virt. eigenvalues --    3.25319   3.26377   3.26776   3.27488   3.27522
 Alpha virt. eigenvalues --    3.28935   3.29341   3.31394   3.31499   3.33291
 Alpha virt. eigenvalues --    3.33306   3.40372   3.40452   3.42710   3.42914
 Alpha virt. eigenvalues --    3.48537   3.48826   3.49888   3.50403   3.50963
 Alpha virt. eigenvalues --    3.51346   3.56436   3.57120   3.58988   3.59453
 Alpha virt. eigenvalues --    3.62637   3.62719   3.66104   3.66205   3.67015
 Alpha virt. eigenvalues --    3.67659   3.73118   3.74145   3.75918   3.76806
          Condensed to atoms (all electrons):
 Mulliken charges:
               1
     1  Mg   0.838667
     2  C   -0.003529
     3  C   -0.095762
     4  C   -0.044592
     5  C   -0.063559
     6  N   -0.256709
     7  C   -0.053017
     8  C   -0.013786
     9  C   -0.086759
    10  C    0.045802
    11  C    0.104760
    12  C    0.053386
    13  C   -0.071450
    14  H    0.034203
    15  N   -0.433149
    16  C    0.168115
    17  C   -0.178550
    18  C   -0.003960
    19  C    0.149223
    20  C    0.110470
    21  C    0.013163
    22  O   -0.247451
    23  C    0.062928
    24  N   -0.341051
    25  C    0.041086
    26  C   -0.028542
    27  C   -0.024064
    28  C    0.074958
    29  C    0.075976
    30  C    0.035062
    31  C   -0.005938
    32  N   -0.310568
    33  C    0.080595
    34  C   -0.169250
    35  C    0.008622
    36  C    0.083129
    37  C    0.127223
    38  C    0.046360
    39  O   -0.187672
    40  C   -0.005510
    41  C    0.213260
    42  O   -0.258158
    43  O   -0.304530
    44  C    0.157531
    45  H   -0.017790
    46  H   -0.015787
    47  H   -0.041064
    48  H    0.001457
    49  H   -0.004964
    50  H    0.025827
    51  H    0.016920
    52  H    0.016752
    53  H    0.008825
    54  H    0.043625
    55  H    0.019373
    56  H    0.017326
    57  H    0.005484
    58  H    0.027557
    59  H    0.036913
    60  H    0.037371
    61  H    0.037325
    62  H    0.027946
    63  H    0.017806
    64  H    0.009737
    65  H    0.023888
    66  H    0.012477
    67  H    0.004867
    68  H    0.006760
    69  H    0.004565
    70  H    0.010937
    71  H    0.017207
    72  H    0.029488
    73  H    0.048141
    74  H    0.009324
    75  H    0.046326
    76  H    0.035455
    77  H    0.044022
    78  H    0.045670
    79  H    0.053381
    80  Mg   0.838353
    81  C   -0.016351
    82  C   -0.088145
    83  C   -0.045407
    84  C   -0.064823
    85  N   -0.254779
    86  C   -0.047855
    87  C   -0.015130
    88  C   -0.091457
    89  C    0.046911
    90  C    0.114963
    91  C    0.062674
    92  C   -0.077189
    93  H    0.033856
    94  N   -0.423447
    95  C    0.162983
    96  C   -0.175314
    97  C   -0.007605
    98  C    0.151660
    99  C    0.100372
   100  C    0.015949
   101  O   -0.252407
   102  C    0.061720
   103  N   -0.349885
   104  C    0.037201
   105  C   -0.019893
   106  C   -0.034836
   107  C    0.089130
   108  C    0.073469
   109  C    0.034850
   110  C   -0.007566
   111  N   -0.324356
   112  C    0.079101
   113  C   -0.162732
   114  C    0.003048
   115  C    0.096438
   116  C    0.131175
   117  C    0.043050
   118  O   -0.187685
   119  C    0.000501
   120  C    0.210927
   121  O   -0.251644
   122  O   -0.305076
   123  C    0.152289
   124  H   -0.021056
   125  H   -0.015342
   126  H   -0.040836
   127  H    0.000393
   128  H   -0.006680
   129  H    0.029903
   130  H    0.015249
   131  H    0.014186
   132  H    0.013213
   133  H    0.037363
   134  H    0.020770
   135  H    0.018581
   136  H    0.007584
   137  H    0.022839
   138  H    0.038934
   139  H    0.035970
   140  H    0.036476
   141  H    0.033323
   142  H    0.014109
   143  H    0.011907
   144  H    0.024703
   145  H    0.013281
   146  H    0.004303
   147  H    0.005722
   148  H    0.003423
   149  H    0.010798
   150  H    0.017557
   151  H    0.030350
   152  H    0.045638
   153  H    0.007886
   154  H    0.048382
   155  H    0.038046
   156  H    0.043727
   157  H    0.049011
   158  H    0.053136
 Sum of Mulliken charges =  -0.00000
 Mulliken charges with hydrogens summed into heavy atoms:
               1
     1  Mg   0.838667
     2  C   -0.003529
     3  C   -0.113552
     4  C   -0.060379
     5  C   -0.104624
     6  N   -0.256709
     7  C   -0.053017
     8  C   -0.012329
     9  C   -0.091723
    10  C    0.045802
    11  C    0.164260
    12  C    0.105836
    13  C   -0.000548
    15  N   -0.433149
    16  C    0.168115
    17  C   -0.178550
    18  C   -0.003960
    19  C    0.149223
    20  C    0.180423
    21  C    0.013163
    22  O   -0.247451
    23  C    0.165570
    24  N   -0.341051
    25  C    0.041086
    26  C   -0.010736
    27  C   -0.014327
    28  C    0.074958
    29  C    0.117208
    30  C    0.046386
    31  C    0.051694
    32  N   -0.310568
    33  C    0.080595
    34  C   -0.169250
    35  C    0.008622
    36  C    0.083129
    37  C    0.231015
    38  C    0.046360
    39  O   -0.187672
    40  C    0.029945
    41  C    0.213260
    42  O   -0.258158
    43  O   -0.304530
    44  C    0.300604
    80  Mg   0.838353
    81  C   -0.016351
    82  C   -0.109201
    83  C   -0.060748
    84  C   -0.105659
    85  N   -0.254779
    86  C   -0.047855
    87  C   -0.014737
    88  C   -0.098137
    89  C    0.046911
    90  C    0.174301
    91  C    0.113250
    92  C   -0.003982
    94  N   -0.423447
    95  C    0.162983
    96  C   -0.175314
    97  C   -0.007605
    98  C    0.151660
    99  C    0.169729
   100  C    0.015949
   101  O   -0.252407
   102  C    0.167489
   103  N   -0.349885
   104  C    0.037201
   105  C   -0.005783
   106  C   -0.022929
   107  C    0.089130
   108  C    0.115757
   109  C    0.043996
   110  C    0.051140
   111  N   -0.324356
   112  C    0.079101
   113  C   -0.162732
   114  C    0.003048
   115  C    0.096438
   116  C    0.233081
   117  C    0.043050
   118  O   -0.187685
   119  C    0.038547
   120  C    0.210927
   121  O   -0.251644
   122  O   -0.305076
   123  C    0.298164
 Electronic spatial extent (au):  <R**2>=          99025.8156
 Charge=             -0.0000 electrons
 Dipole moment (field-independent basis, Debye):
    X=             -5.9867    Y=             -0.0491    Z=             -6.1895  Tot=              8.6112
 Quadrupole moment (field-independent basis, Debye-Ang):
   XX=           -535.5468   YY=           -531.5369   ZZ=           -461.2554
   XY=            -17.2137   XZ=              3.6856   YZ=            -55.0458
 Traceless Quadrupole moment (field-independent basis, Debye-Ang):
   XX=            -26.1004   YY=            -22.0906   ZZ=             48.1910
   XY=            -17.2137   XZ=              3.6856   YZ=            -55.0458
 Octapole moment (field-independent basis, Debye-Ang**2):
  XXX=           -475.7623  YYY=            398.4915  ZZZ=           -103.5436  XYY=            143.1291
  XXY=            -20.0848  XXZ=           -140.3190  XZZ=            -75.1254  YZZ=           -202.6265
  YYZ=           -106.4166  XYZ=            -46.7576
 Hexadecapole moment (field-independent basis, Debye-Ang**3):
 XXXX=         -74319.4889 YYYY=         -40625.7582 ZZZZ=         -22531.6917 XXXY=           -905.5568
 XXXZ=           -441.7316 YYYX=            439.6883 YYYZ=          -1638.4769 ZZZX=            274.0156
 ZZZY=            117.4932 XXYY=         -18303.2559 XXZZ=         -14785.4866 YYZZ=         -10600.6668
 XXYZ=          -1509.6404 YYXZ=              0.2310 ZZXY=            204.7151
 N-N= 1.549935003584D+04 E-N=-4.047958904840D+04  KE= 4.028800130454D+03
 Leave Link  601 at Thu Sep  9 19:48:45 2021, MaxMem= 23488102400 cpu:              14.1 elap:               0.7
 (Enter /sw/apps/gaussian-16.0/g16/l9999.exe)
 1\1\GINC-BP1-COMPUTE00091\SP\RCAM-B3LYP TD-FC\def2SVP\C68H72Mg2N8O8\OF
 15641\09-Sep-2021\0\\#p cam-b3lyp/Def2SVP td=(nstates=5)\\TDDFT excite
 d states in gaussian\\0,1\Mg,0,0.,0.,0.\C,0,-0.217,-2.218,2.801\C,0,-1
 .255,2.442,2.026\C,0,-0.245,1.85,-2.564\C,0,0.146,-2.824,-2.037\N,0,-0
 .617,-0.009,2.126\C,0,-0.594,-0.908,3.105\C,0,-0.936,-0.309,4.502\C,0,
 -1.773,0.964,4.032\C,0,-1.155,1.168,2.66\C,0,-3.263,0.685,3.863\C,0,0.
 345,0.11,5.299\C,0,0.124,0.397,6.787\H,0,1.168,0.033,7.733\N,0,-0.185,
 1.961,-0.152\C,0,-0.703,2.8,0.777\C,0,-0.62,4.156,0.193\C,0,-0.187,4.0
 15,-1.225\C,0,-0.214,2.583,-1.38\C,0,-0.887,5.406,0.974\C,0,0.181,5.01
 3,-2.277\O,0,0.303,4.69,-3.508\C,0,0.31,6.414,-1.837\N,0,-0.265,-0.413
 ,-2.029\C,0,-0.279,0.569,-2.937\C,0,-0.196,0.024,-4.332\C,0,0.124,-1.5
 33,-4.18\C,0,0.086,-1.632,-2.635\C,0,-1.451,0.205,-5.197\C,0,1.373,-2.
 07,-4.923\C,0,2.626,-1.49,-4.306\N,0,0.15,-2.144,0.303\C,0,0.173,-3.13
 6,-0.688\C,0,0.173,-4.438,0.004\C,0,0.133,-4.111,1.358\C,0,0.083,-2.69
 5,1.502\C,0,0.149,-5.715,-0.623\C,0,0.096,-4.629,2.716\O,0,0.208,-5.74
 7,3.221\C,0,-0.255,-3.428,3.701\C,0,0.717,-3.482,4.848\O,0,1.931,-3.25
 5,4.669\O,0,0.038,-3.556,6.003\C,0,0.943,-3.583,7.183\H,0,-1.859,3.22,
 2.497\H,0,-0.218,2.453,-3.474\H,0,0.276,-3.747,-2.605\H,0,-1.554,-0.94
 9,5.132\H,0,-1.585,1.831,4.665\H,0,-3.484,-0.377,3.969\H,0,-3.511,1.02
 7,2.858\H,0,-3.852,1.301,4.543\H,0,0.669,1.096,4.966\H,0,1.13,-0.639,5
 .189\H,0,-0.844,0.026,7.125\H,0,0.062,1.477,6.921\H,0,-1.344,5.186,1.9
 38\H,0,-1.651,5.963,0.432\H,0,0.007,6.02,1.084\H,0,-0.635,6.744,-1.405
 \H,0,0.665,6.97,-2.704\H,0,1.048,6.466,-1.036\H,0,0.608,0.501,-4.891\H
 ,0,-0.692,-2.156,-4.547\H,0,-1.267,0.74,-6.129\H,0,-2.204,0.714,-4.596
 \H,0,-1.967,-0.72,-5.453\H,0,1.356,-1.759,-5.967\H,0,1.452,-3.157,-4.9
 02\H,0,2.714,-0.522,-4.798\H,0,3.487,-2.121,-4.529\H,0,2.495,-1.303,-3
 .24\H,0,0.867,-6.333,-0.084\H,0,0.404,-5.642,-1.68\H,0,-0.891,-5.999,-
 0.463\H,0,-1.283,-3.581,4.028\H,0,0.698,-4.478,7.755\H,0,0.833,-2.619,
 7.68\H,0,2.,-3.754,6.976\Mg,0,8.9385,0.81148,0.68522\C,0,9.63788,-1.22
 782,3.55423\C,0,6.93023,2.69433,2.69926\C,0,7.95111,2.35192,-1.90699\C
 ,0,10.04845,-1.83437,-1.29295\N,0,8.43089,0.65394,2.83226\C,0,8.8051,-
 0.12489,3.83613\C,0,8.32103,0.34894,5.23281\C,0,7.04905,1.21128,4.7666
 6\C,0,7.50556,1.57721,3.35586\C,0,5.77359,0.39222,4.65858\C,0,9.38455,
 1.24247,5.96258\C,0,9.11064,1.48407,7.44864\H,0,10.24762,1.57005,8.360
 97\N,0,8.03677,2.56982,0.50164\C,0,7.27979,3.19661,1.42652\C,0,6.83063
 ,4.44837,0.79763\C,0,7.24827,4.43193,-0.63066\C,0,7.75444,3.07858,-0.7
 4173\C,0,6.15158,5.54605,1.56406\C,0,7.18869,5.45945,-1.72008\O,0,7.38
 925,5.15136,-2.94796\C,0,6.79685,6.81846,-1.31876\N,0,8.79038,0.25778,
 -1.31323\C,0,8.37938,1.13556,-2.24517\C,0,8.61527,0.60255,-3.63824\C,0
 ,9.49565,-0.71911,-3.4492\C,0,9.54317,-0.77299,-1.9064\C,0,7.36014,0.2
 6682,-4.44343\C,0,10.83481,-0.79075,-4.2329\C,0,11.80356,0.23733,-3.69
 443\N,0,9.87797,-1.10287,1.03265\C,0,10.23455,-2.06638,0.06386\C,0,10.
 73609,-3.25031,0.79133\C,0,10.614,-2.8994,2.14427\C,0,10.05563,-1.5971
 1,2.25275\C,0,11.17654,-4.46664,0.19748\C,0,10.82061,-3.33869,3.50553\
 O,0,11.34539,-4.31924,4.03172\C,0,10.08018,-2.32577,4.48131\C,0,11.033
 18,-1.96663,5.58825\O,0,12.07222,-1.32789,5.34533\O,0,10.45778,-2.2441
 6,6.77243\C,0,11.36019,-1.89475,7.90176\H,0,6.10292,3.21232,3.18519\H,
 0,7.72926,2.88182,-2.83622\H,0,10.50455,-2.66249,-1.83964\H,0,8.00746,
 -0.44607,5.8987\H,0,6.93385,2.10525,5.37405\H,0,5.9588,-0.66229,4.7994
 4\H,0,5.38728,0.57911,3.66515\H,0,5.01962,0.77539,5.35215\H,0,9.30612,
 2.27099,5.58743\H,0,10.37081,0.83957,5.83777\H,0,8.3512,0.79888,7.8445
 2\H,0,8.66342,2.47455,7.56251\H,0,5.83128,5.20518,2.55634\H,0,5.21677,
 5.77135,1.03943\H,0,6.75357,6.45554,1.61985\H,0,5.8144,6.78851,-0.8536
 1\H,0,6.89832,7.42936,-2.21785\H,0,7.49663,7.17275,-0.55365\H,0,9.1728
 5,1.31381,-4.23517\H,0,8.95564,-1.61896,-3.77858\H,0,7.30332,0.80561,-
 5.40808\H,0,6.49419,0.48695,-3.83334\H,0,7.22326,-0.79001,-4.66608\H,0
 ,10.67186,-0.54273,-5.28461\H,0,11.30185,-1.76946,-4.20145\H,0,11.5059
 3,1.15292,-4.21423\H,0,12.82813,-0.03835,-3.93589\H,0,11.64732,0.40152
 ,-2.62192\H,0,12.08029,-4.75712,0.71647\H,0,11.35086,-4.34768,-0.86987
 \H,0,10.31516,-5.10753,0.4038\H,0,9.18676,-2.82631,4.85659\H,0,11.4778
 2,-2.79823,8.50804\H,0,10.8997,-1.01607,8.39127\H,0,12.39209,-1.66278,
 7.66547\\Version=ES64L-G16RevA.03\State=1-A\HF=-4069.8113117\RMSD=5.24
 4e-09\PG=C01 [X(C68H72Mg2N8O8)]\\@


 ON A CLEAR DISK YOU CAN SEEK FOREVER.
 Job cpu time:       0 days 15 hours  8 minutes 30.6 seconds.
 Elapsed time:       0 days  0 hours 38 minutes 33.1 seconds.
 File lengths (MBytes):  RWF=  13225 Int=      0 D2E=      0 Chk=    574 Scr=      1
 Normal termination of Gaussian 16 at Thu Sep  9 19:48:46 2021.
