 Entering Gaussian System, Link 0=g16
 Initial command:
 /sw/apps/gaussian-16.0/g16/l1.exe "/tmp/Gau-225912.inp" -scrdir="/tmp/"
 Entering Link 1 = /sw/apps/gaussian-16.0/g16/l1.exe PID=    225913.
  
 Copyright (c) 1988,1990,1992,1993,1995,1998,2003,2009,2016,
            Gaussian, Inc.  All Rights Reserved.
  
 This is part of the Gaussian(R) 16 program.  It is based on
 the Gaussian(R) 09 system (copyright 2009, Gaussian, Inc.),
 the Gaussian(R) 03 system (copyright 2003, Gaussian, Inc.),
 the Gaussian(R) 98 system (copyright 1998, Gaussian, Inc.),
 the Gaussian(R) 94 system (copyright 1995, Gaussian, Inc.),
 the Gaussian 92(TM) system (copyright 1992, Gaussian, Inc.),
 the Gaussian 90(TM) system (copyright 1990, Gaussian, Inc.),
 the Gaussian 88(TM) system (copyright 1988, Gaussian, Inc.),
 the Gaussian 86(TM) system (copyright 1986, Carnegie Mellon
 University), and the Gaussian 82(TM) system (copyright 1983,
 Carnegie Mellon University). Gaussian is a federally registered
 trademark of Gaussian, Inc.
  
 This software contains proprietary and confidential information,
 including trade secrets, belonging to Gaussian, Inc.
  
 This software is provided under written license and may be
 used, copied, transmitted, or stored only in accord with that
 written license.
  
 The following legend is applicable only to US Government
 contracts under FAR:
  
                    RESTRICTED RIGHTS LEGEND
  
 Use, reproduction and disclosure by the US Government is
 subject to restrictions as set forth in subparagraphs (a)
 and (c) of the Commercial Computer Software - Restricted
 Rights clause in FAR 52.227-19.
  
 Gaussian, Inc.
 340 Quinnipiac St., Bldg. 40, Wallingford CT 06492
  
  
 ---------------------------------------------------------------
 Warning -- This program may not be used in any manner that
 competes with the business of Gaussian, Inc. or will provide
 assistance to any competitor of Gaussian, Inc.  The licensee
 of this program is prohibited from giving any competitor of
 Gaussian, Inc. access to this program.  By using this program,
 the user acknowledges that Gaussian, Inc. is engaged in the
 business of creating and licensing software in the field of
 computational chemistry and represents and warrants to the
 licensee that it is not a competitor of Gaussian, Inc. and that
 it will not use this program in any manner prohibited above.
 ---------------------------------------------------------------
  

 Cite this work as:
 Gaussian 16, Revision A.03,
 M. J. Frisch, G. W. Trucks, H. B. Schlegel, G. E. Scuseria, 
 M. A. Robb, J. R. Cheeseman, G. Scalmani, V. Barone, 
 G. A. Petersson, H. Nakatsuji, X. Li, M. Caricato, A. V. Marenich, 
 J. Bloino, B. G. Janesko, R. Gomperts, B. Mennucci, H. P. Hratchian, 
 J. V. Ortiz, A. F. Izmaylov, J. L. Sonnenberg, D. Williams-Young, 
 F. Ding, F. Lipparini, F. Egidi, J. Goings, B. Peng, A. Petrone, 
 T. Henderson, D. Ranasinghe, V. G. Zakrzewski, J. Gao, N. Rega, 
 G. Zheng, W. Liang, M. Hada, M. Ehara, K. Toyota, R. Fukuda, 
 J. Hasegawa, M. Ishida, T. Nakajima, Y. Honda, O. Kitao, H. Nakai, 
 T. Vreven, K. Throssell, J. A. Montgomery, Jr., J. E. Peralta, 
 F. Ogliaro, M. J. Bearpark, J. J. Heyd, E. N. Brothers, K. N. Kudin, 
 V. N. Staroverov, T. A. Keith, R. Kobayashi, J. Normand, 
 K. Raghavachari, A. P. Rendell, J. C. Burant, S. S. Iyengar, 
 J. Tomasi, M. Cossi, J. M. Millam, M. Klene, C. Adamo, R. Cammi, 
 J. W. Ochterski, R. L. Martin, K. Morokuma, O. Farkas, 
 J. B. Foresman, and D. J. Fox, Gaussian, Inc., Wallingford CT, 2016.
 
 ******************************************
 Gaussian 16:  ES64L-G16RevA.03 25-Dec-2016
                11-Sep-2021 
 ******************************************
 %nproc=24
 Will use up to   24 processors via shared memory.
 %mem=175gb
 -----------------------------------
 #p cam-b3lyp/Def2SVP td=(nstates=5)
 -----------------------------------
 1/38=1,172=1/1;
 2/12=2,17=6,18=5,40=1/2;
 3/5=43,7=101,11=9,25=1,30=1,74=-40/1,2,3,8;
 4//1;
 5/5=2,38=5/2;
 8/6=1,10=1,108=5/1;
 9/41=5,42=1,70=2/14;
 6/7=2,8=2,9=2,10=2/1;
 99/5=1,9=1/99;
 Leave Link    1 at Sat Sep 11 15:30:38 2021, MaxMem= 23488102400 cpu:               0.6 elap:               0.0
 (Enter /sw/apps/gaussian-16.0/g16/l101.exe)
 --------------------------------
 TDDFT excited states in gaussian
 --------------------------------
 Symbolic Z-matrix:
 Charge =  0 Multiplicity = 1
 Mg                    0.        0.        0. 
 C                    -0.217    -2.218     2.801 
 C                    -1.255     2.442     2.026 
 C                    -0.245     1.85     -2.564 
 C                     0.146    -2.824    -2.037 
 N                    -0.617    -0.009     2.126 
 C                    -0.594    -0.908     3.105 
 C                    -0.936    -0.309     4.502 
 C                    -1.773     0.964     4.032 
 C                    -1.155     1.168     2.66 
 C                    -3.263     0.685     3.863 
 C                     0.345     0.11      5.299 
 C                     0.124     0.397     6.787 
 H                     1.168     0.033     7.733 
 N                    -0.185     1.961    -0.152 
 C                    -0.703     2.8       0.777 
 C                    -0.62      4.156     0.193 
 C                    -0.187     4.015    -1.225 
 C                    -0.214     2.583    -1.38 
 C                    -0.887     5.406     0.974 
 C                     0.181     5.013    -2.277 
 O                     0.303     4.69     -3.508 
 C                     0.31      6.414    -1.837 
 N                    -0.265    -0.413    -2.029 
 C                    -0.279     0.569    -2.937 
 C                    -0.196     0.024    -4.332 
 C                     0.124    -1.533    -4.18 
 C                     0.086    -1.632    -2.635 
 C                    -1.451     0.205    -5.197 
 C                     1.373    -2.07     -4.923 
 C                     2.626    -1.49     -4.306 
 N                     0.15     -2.144     0.303 
 C                     0.173    -3.136    -0.688 
 C                     0.173    -4.438     0.004 
 C                     0.133    -4.111     1.358 
 C                     0.083    -2.695     1.502 
 C                     0.149    -5.715    -0.623 
 C                     0.096    -4.629     2.716 
 O                     0.208    -5.747     3.221 
 C                    -0.255    -3.428     3.701 
 C                     0.717    -3.482     4.848 
 O                     1.931    -3.255     4.669 
 O                     0.038    -3.556     6.003 
 C                     0.943    -3.583     7.183 
 H                    -1.859     3.22      2.497 
 H                    -0.218     2.453    -3.474 
 H                     0.276    -3.747    -2.605 
 H                    -1.554    -0.949     5.132 
 H                    -1.585     1.831     4.665 
 H                    -3.484    -0.377     3.969 
 H                    -3.511     1.027     2.858 
 H                    -3.852     1.301     4.543 
 H                     0.669     1.096     4.966 
 H                     1.13     -0.639     5.189 
 H                    -0.844     0.026     7.125 
 H                     0.062     1.477     6.921 
 H                    -1.344     5.186     1.938 
 H                    -1.651     5.963     0.432 
 H                     0.007     6.02      1.084 
 H                    -0.635     6.744    -1.405 
 H                     0.665     6.97     -2.704 
 H                     1.048     6.466    -1.036 
 H                     0.608     0.501    -4.891 
 H                    -0.692    -2.156    -4.547 
 H                    -1.267     0.74     -6.129 
 H                    -2.204     0.714    -4.596 
 H                    -1.967    -0.72     -5.453 
 H                     1.356    -1.759    -5.967 
 H                     1.452    -3.157    -4.902 
 H                     2.714    -0.522    -4.798 
 H                     3.487    -2.121    -4.529 
 H                     2.495    -1.303    -3.24 
 H                     0.867    -6.333    -0.084 
 H                     0.404    -5.642    -1.68 
 H                    -0.891    -5.999    -0.463 
 H                    -1.283    -3.581     4.028 
 H                     0.698    -4.478     7.755 
 H                     0.833    -2.619     7.68 
 H                     2.       -3.754     6.976 
 Mg                    13.13959   1.19142   1.00419 
 C                     14.73815  -0.22395   3.8887 
 C                     10.588    2.13015   3.06399 
 C                     11.50306   2.04592  -1.57632 
 C                     15.20648  -0.81752  -0.95485 
 N                     12.81981   0.93052   3.17719 
 C                     13.52404   0.43138   4.18181 
 C                     12.93087   0.71708   5.58755 
 C                     11.39767   0.93413   5.16202 
 C                     11.60685   1.39505   3.72102 
 C                     10.59133  -0.35375   5.13925 
 C                     13.53463   2.01031   6.23951 
 C                     13.23352   2.1796    7.73029 
 H                     14.25462   2.78248   8.58254 
 N                     11.56775   2.38865   0.81839 
 C                     10.64692   2.67507   1.76248 
 C                     9.68551   3.5868    1.12326 
 C                     10.02227   3.68479  -0.32301 
 C                     11.05389   2.67192  -0.42267 
 C                     8.6287    4.32478   1.89266 
 C                     9.49328   4.53869  -1.43532 
 O                     9.76512   4.28982  -2.66292 
 C                     8.57224   5.6185   -1.05168 
 N                     13.17554   0.53722  -0.9689 
 C                     12.39822   1.1134   -1.90255 
 C                     12.79252   0.66878  -3.2908 
 C                     14.15876  -0.14261  -3.11021 
 C                     14.27618  -0.10105  -1.57077 
 C                     11.77489  -0.20525  -4.02352 
 C                     15.3733   0.32685  -3.95708 
 C                     15.82759   1.69268  -3.49503 
 N                     14.81763  -0.12333   1.35588 
 C                     15.51899  -0.88645   0.39681 
 C                     16.50205  -1.71009   1.13005 
 C                     16.287   -1.38346   2.47747 
 C                     15.22992  -0.43907   2.5785 
 C                     17.39967  -2.64901   0.54796 
 C                     16.7067  -1.6308    3.83812 
 O                     17.61719  -2.26988   4.36378 
 C                     15.63762  -0.98604   4.82186 
 C                     16.38232  -0.2057    5.8702 
 O                     17.04033   0.80267   5.55905 
 O                     16.02041  -0.64761   7.08844 
 C                     16.72428   0.10343   8.1619 
 H                     9.63544   2.26838   3.57623 
 H                     11.04531   2.38828  -2.5073 
 H                     15.95403  -1.39676  -1.50105 
 H                     13.00924  -0.10466   6.28924 
 H                     10.93207   1.72068   5.75016 
 H                     11.21372  -1.22165   5.29901 
 H                     10.1293  -0.3943    4.16153 
 H                     9.76953  -0.29674   5.8588 
 H                     13.01202   2.88952   5.84124 
 H                     14.59373   2.06013   6.07684 
 H                     12.8531   1.25515   8.18154 
 H                     12.41022   2.88971   7.83956 
 H                     8.51795   3.92546   2.90837 
 H                     7.67029   4.10685   1.40913 
 H                     8.78614   5.40547   1.89414 
 H                     7.71279   5.19454  -0.5378 
 H                     8.37304   6.17301  -1.97076 
 H                     9.07879   6.2712   -0.33195 
 H                     12.9727   1.52177  -3.93348 
 H                     14.0441  -1.20063  -3.38818 
 H                     11.46127   0.21376  -4.99828 
 H                     10.91875  -0.34703  -3.37741 
 H                     12.0951  -1.22879  -4.21069 
 H                     15.08506   0.43394  -5.0057 
 H                     16.21433  -0.3576   -3.92256 
 H                     15.1503   2.36999  -4.02383 
 H                     16.86308   1.86849  -3.77947 
 H                     15.65207   1.8233   -2.42089 
 H                     18.35767  -2.50346   1.02915 
 H                     17.47078  -2.51577  -0.52952 
 H                     16.90189  -3.58539   0.81381 
 H                     15.05659  -1.80153   5.25422 
 H                     17.23663  -0.63559   8.78563 
 H                     15.94927   0.7239    8.64987 
 H                     17.54977   0.74141   7.86865 
 
 ITRead=  0  0  0  0  0  0  0  0  0  0  0  0  0  0  0  0  0  0  0  0
 ITRead=  0  0  0  0  0  0  0  0  0  0  0  0  0  0  0  0  0  0  0  0
 ITRead=  0  0  0  0  0  0  0  0  0  0  0  0  0  0  0  0  0  0  0  0
 ITRead=  0  0  0  0  0  0  0  0  0  0  0  0  0  0  0  0  0  0  0  0
 ITRead=  0  0  0  0  0  0  0  0  0  0  0  0  0  0  0  0  0  0  0  0
 ITRead=  0  0  0  0  0  0  0  0  0  0  0  0  0  0  0  0  0  0  0  0
 ITRead=  0  0  0  0  0  0  0  0  0  0  0  0  0  0  0  0  0  0  0  0
 ITRead=  0  0  0  0  0  0  0  0  0  0  0  0  0  0  0  0  0  0
 MicOpt= -1 -1 -1 -1 -1 -1 -1 -1 -1 -1 -1 -1 -1 -1 -1 -1 -1 -1 -1 -1
 MicOpt= -1 -1 -1 -1 -1 -1 -1 -1 -1 -1 -1 -1 -1 -1 -1 -1 -1 -1 -1 -1
 MicOpt= -1 -1 -1 -1 -1 -1 -1 -1 -1 -1 -1 -1 -1 -1 -1 -1 -1 -1 -1 -1
 MicOpt= -1 -1 -1 -1 -1 -1 -1 -1 -1 -1 -1 -1 -1 -1 -1 -1 -1 -1 -1 -1
 MicOpt= -1 -1 -1 -1 -1 -1 -1 -1 -1 -1 -1 -1 -1 -1 -1 -1 -1 -1 -1 -1
 MicOpt= -1 -1 -1 -1 -1 -1 -1 -1 -1 -1 -1 -1 -1 -1 -1 -1 -1 -1 -1 -1
 MicOpt= -1 -1 -1 -1 -1 -1 -1 -1 -1 -1 -1 -1 -1 -1 -1 -1 -1 -1 -1 -1
 MicOpt= -1 -1 -1 -1 -1 -1 -1 -1 -1 -1 -1 -1 -1 -1 -1 -1 -1 -1
 NAtoms=    158 NQM=      158 NQMF=       0 NMMI=      0 NMMIF=      0
                NMic=       0 NMicF=      0.
                    Isotopes and Nuclear Properties:
 (Nuclear quadrupole moments (NQMom) in fm**2, nuclear magnetic moments (NMagM)
  in nuclear magnetons)

  Atom         1           2           3           4           5           6           7           8           9          10
 IAtWgt=          24          12          12          12          12          14          12          12          12          12
 AtmWgt=  23.9850450  12.0000000  12.0000000  12.0000000  12.0000000  14.0030740  12.0000000  12.0000000  12.0000000  12.0000000
 NucSpn=           0           0           0           0           0           2           0           0           0           0
 AtZEff=  -0.0000000  -0.0000000  -0.0000000  -0.0000000  -0.0000000  -0.0000000  -0.0000000  -0.0000000  -0.0000000  -0.0000000
 NQMom=    0.0000000   0.0000000   0.0000000   0.0000000   0.0000000   2.0440000   0.0000000   0.0000000   0.0000000   0.0000000
 NMagM=    0.0000000   0.0000000   0.0000000   0.0000000   0.0000000   0.4037610   0.0000000   0.0000000   0.0000000   0.0000000
 AtZNuc=  12.0000000   6.0000000   6.0000000   6.0000000   6.0000000   7.0000000   6.0000000   6.0000000   6.0000000   6.0000000

  Atom        11          12          13          14          15          16          17          18          19          20
 IAtWgt=          12          12          12           1          14          12          12          12          12          12
 AtmWgt=  12.0000000  12.0000000  12.0000000   1.0078250  14.0030740  12.0000000  12.0000000  12.0000000  12.0000000  12.0000000
 NucSpn=           0           0           0           1           2           0           0           0           0           0
 AtZEff=  -0.0000000  -0.0000000  -0.0000000  -0.0000000  -0.0000000  -0.0000000  -0.0000000  -0.0000000  -0.0000000  -0.0000000
 NQMom=    0.0000000   0.0000000   0.0000000   0.0000000   2.0440000   0.0000000   0.0000000   0.0000000   0.0000000   0.0000000
 NMagM=    0.0000000   0.0000000   0.0000000   2.7928460   0.4037610   0.0000000   0.0000000   0.0000000   0.0000000   0.0000000
 AtZNuc=   6.0000000   6.0000000   6.0000000   1.0000000   7.0000000   6.0000000   6.0000000   6.0000000   6.0000000   6.0000000

  Atom        21          22          23          24          25          26          27          28          29          30
 IAtWgt=          12          16          12          14          12          12          12          12          12          12
 AtmWgt=  12.0000000  15.9949146  12.0000000  14.0030740  12.0000000  12.0000000  12.0000000  12.0000000  12.0000000  12.0000000
 NucSpn=           0           0           0           2           0           0           0           0           0           0
 AtZEff=  -0.0000000  -0.0000000  -0.0000000  -0.0000000  -0.0000000  -0.0000000  -0.0000000  -0.0000000  -0.0000000  -0.0000000
 NQMom=    0.0000000   0.0000000   0.0000000   2.0440000   0.0000000   0.0000000   0.0000000   0.0000000   0.0000000   0.0000000
 NMagM=    0.0000000   0.0000000   0.0000000   0.4037610   0.0000000   0.0000000   0.0000000   0.0000000   0.0000000   0.0000000
 AtZNuc=   6.0000000   8.0000000   6.0000000   7.0000000   6.0000000   6.0000000   6.0000000   6.0000000   6.0000000   6.0000000

  Atom        31          32          33          34          35          36          37          38          39          40
 IAtWgt=          12          14          12          12          12          12          12          12          16          12
 AtmWgt=  12.0000000  14.0030740  12.0000000  12.0000000  12.0000000  12.0000000  12.0000000  12.0000000  15.9949146  12.0000000
 NucSpn=           0           2           0           0           0           0           0           0           0           0
 AtZEff=  -0.0000000  -0.0000000  -0.0000000  -0.0000000  -0.0000000  -0.0000000  -0.0000000  -0.0000000  -0.0000000  -0.0000000
 NQMom=    0.0000000   2.0440000   0.0000000   0.0000000   0.0000000   0.0000000   0.0000000   0.0000000   0.0000000   0.0000000
 NMagM=    0.0000000   0.4037610   0.0000000   0.0000000   0.0000000   0.0000000   0.0000000   0.0000000   0.0000000   0.0000000
 AtZNuc=   6.0000000   7.0000000   6.0000000   6.0000000   6.0000000   6.0000000   6.0000000   6.0000000   8.0000000   6.0000000

  Atom        41          42          43          44          45          46          47          48          49          50
 IAtWgt=          12          16          16          12           1           1           1           1           1           1
 AtmWgt=  12.0000000  15.9949146  15.9949146  12.0000000   1.0078250   1.0078250   1.0078250   1.0078250   1.0078250   1.0078250
 NucSpn=           0           0           0           0           1           1           1           1           1           1
 AtZEff=  -0.0000000  -0.0000000  -0.0000000  -0.0000000  -0.0000000  -0.0000000  -0.0000000  -0.0000000  -0.0000000  -0.0000000
 NQMom=    0.0000000   0.0000000   0.0000000   0.0000000   0.0000000   0.0000000   0.0000000   0.0000000   0.0000000   0.0000000
 NMagM=    0.0000000   0.0000000   0.0000000   0.0000000   2.7928460   2.7928460   2.7928460   2.7928460   2.7928460   2.7928460
 AtZNuc=   6.0000000   8.0000000   8.0000000   6.0000000   1.0000000   1.0000000   1.0000000   1.0000000   1.0000000   1.0000000

  Atom        51          52          53          54          55          56          57          58          59          60
 IAtWgt=           1           1           1           1           1           1           1           1           1           1
 AtmWgt=   1.0078250   1.0078250   1.0078250   1.0078250   1.0078250   1.0078250   1.0078250   1.0078250   1.0078250   1.0078250
 NucSpn=           1           1           1           1           1           1           1           1           1           1
 AtZEff=  -0.0000000  -0.0000000  -0.0000000  -0.0000000  -0.0000000  -0.0000000  -0.0000000  -0.0000000  -0.0000000  -0.0000000
 NQMom=    0.0000000   0.0000000   0.0000000   0.0000000   0.0000000   0.0000000   0.0000000   0.0000000   0.0000000   0.0000000
 NMagM=    2.7928460   2.7928460   2.7928460   2.7928460   2.7928460   2.7928460   2.7928460   2.7928460   2.7928460   2.7928460
 AtZNuc=   1.0000000   1.0000000   1.0000000   1.0000000   1.0000000   1.0000000   1.0000000   1.0000000   1.0000000   1.0000000

  Atom        61          62          63          64          65          66          67          68          69          70
 IAtWgt=           1           1           1           1           1           1           1           1           1           1
 AtmWgt=   1.0078250   1.0078250   1.0078250   1.0078250   1.0078250   1.0078250   1.0078250   1.0078250   1.0078250   1.0078250
 NucSpn=           1           1           1           1           1           1           1           1           1           1
 AtZEff=  -0.0000000  -0.0000000  -0.0000000  -0.0000000  -0.0000000  -0.0000000  -0.0000000  -0.0000000  -0.0000000  -0.0000000
 NQMom=    0.0000000   0.0000000   0.0000000   0.0000000   0.0000000   0.0000000   0.0000000   0.0000000   0.0000000   0.0000000
 NMagM=    2.7928460   2.7928460   2.7928460   2.7928460   2.7928460   2.7928460   2.7928460   2.7928460   2.7928460   2.7928460
 AtZNuc=   1.0000000   1.0000000   1.0000000   1.0000000   1.0000000   1.0000000   1.0000000   1.0000000   1.0000000   1.0000000

  Atom        71          72          73          74          75          76          77          78          79          80
 IAtWgt=           1           1           1           1           1           1           1           1           1          24
 AtmWgt=   1.0078250   1.0078250   1.0078250   1.0078250   1.0078250   1.0078250   1.0078250   1.0078250   1.0078250  23.9850450
 NucSpn=           1           1           1           1           1           1           1           1           1           0
 AtZEff=  -0.0000000  -0.0000000  -0.0000000  -0.0000000  -0.0000000  -0.0000000  -0.0000000  -0.0000000  -0.0000000  -0.0000000
 NQMom=    0.0000000   0.0000000   0.0000000   0.0000000   0.0000000   0.0000000   0.0000000   0.0000000   0.0000000   0.0000000
 NMagM=    2.7928460   2.7928460   2.7928460   2.7928460   2.7928460   2.7928460   2.7928460   2.7928460   2.7928460   0.0000000
 AtZNuc=   1.0000000   1.0000000   1.0000000   1.0000000   1.0000000   1.0000000   1.0000000   1.0000000   1.0000000  12.0000000

  Atom        81          82          83          84          85          86          87          88          89          90
 IAtWgt=          12          12          12          12          14          12          12          12          12          12
 AtmWgt=  12.0000000  12.0000000  12.0000000  12.0000000  14.0030740  12.0000000  12.0000000  12.0000000  12.0000000  12.0000000
 NucSpn=           0           0           0           0           2           0           0           0           0           0
 AtZEff=  -0.0000000  -0.0000000  -0.0000000  -0.0000000  -0.0000000  -0.0000000  -0.0000000  -0.0000000  -0.0000000  -0.0000000
 NQMom=    0.0000000   0.0000000   0.0000000   0.0000000   2.0440000   0.0000000   0.0000000   0.0000000   0.0000000   0.0000000
 NMagM=    0.0000000   0.0000000   0.0000000   0.0000000   0.4037610   0.0000000   0.0000000   0.0000000   0.0000000   0.0000000
 AtZNuc=   6.0000000   6.0000000   6.0000000   6.0000000   7.0000000   6.0000000   6.0000000   6.0000000   6.0000000   6.0000000

  Atom        91          92          93          94          95          96          97          98          99         100
 IAtWgt=          12          12           1          14          12          12          12          12          12          12
 AtmWgt=  12.0000000  12.0000000   1.0078250  14.0030740  12.0000000  12.0000000  12.0000000  12.0000000  12.0000000  12.0000000
 NucSpn=           0           0           1           2           0           0           0           0           0           0
 AtZEff=  -0.0000000  -0.0000000  -0.0000000  -0.0000000  -0.0000000  -0.0000000  -0.0000000  -0.0000000  -0.0000000  -0.0000000
 NQMom=    0.0000000   0.0000000   0.0000000   2.0440000   0.0000000   0.0000000   0.0000000   0.0000000   0.0000000   0.0000000
 NMagM=    0.0000000   0.0000000   2.7928460   0.4037610   0.0000000   0.0000000   0.0000000   0.0000000   0.0000000   0.0000000
 AtZNuc=   6.0000000   6.0000000   1.0000000   7.0000000   6.0000000   6.0000000   6.0000000   6.0000000   6.0000000   6.0000000

  Atom       101         102         103         104         105         106         107         108         109         110
 IAtWgt=          16          12          14          12          12          12          12          12          12          12
 AtmWgt=  15.9949146  12.0000000  14.0030740  12.0000000  12.0000000  12.0000000  12.0000000  12.0000000  12.0000000  12.0000000
 NucSpn=           0           0           2           0           0           0           0           0           0           0
 AtZEff=  -0.0000000  -0.0000000  -0.0000000  -0.0000000  -0.0000000  -0.0000000  -0.0000000  -0.0000000  -0.0000000  -0.0000000
 NQMom=    0.0000000   0.0000000   2.0440000   0.0000000   0.0000000   0.0000000   0.0000000   0.0000000   0.0000000   0.0000000
 NMagM=    0.0000000   0.0000000   0.4037610   0.0000000   0.0000000   0.0000000   0.0000000   0.0000000   0.0000000   0.0000000
 AtZNuc=   8.0000000   6.0000000   7.0000000   6.0000000   6.0000000   6.0000000   6.0000000   6.0000000   6.0000000   6.0000000

  Atom       111         112         113         114         115         116         117         118         119         120
 IAtWgt=          14          12          12          12          12          12          12          16          12          12
 AtmWgt=  14.0030740  12.0000000  12.0000000  12.0000000  12.0000000  12.0000000  12.0000000  15.9949146  12.0000000  12.0000000
 NucSpn=           2           0           0           0           0           0           0           0           0           0
 AtZEff=  -0.0000000  -0.0000000  -0.0000000  -0.0000000  -0.0000000  -0.0000000  -0.0000000  -0.0000000  -0.0000000  -0.0000000
 NQMom=    2.0440000   0.0000000   0.0000000   0.0000000   0.0000000   0.0000000   0.0000000   0.0000000   0.0000000   0.0000000
 NMagM=    0.4037610   0.0000000   0.0000000   0.0000000   0.0000000   0.0000000   0.0000000   0.0000000   0.0000000   0.0000000
 AtZNuc=   7.0000000   6.0000000   6.0000000   6.0000000   6.0000000   6.0000000   6.0000000   8.0000000   6.0000000   6.0000000

  Atom       121         122         123         124         125         126         127         128         129         130
 IAtWgt=          16          16          12           1           1           1           1           1           1           1
 AtmWgt=  15.9949146  15.9949146  12.0000000   1.0078250   1.0078250   1.0078250   1.0078250   1.0078250   1.0078250   1.0078250
 NucSpn=           0           0           0           1           1           1           1           1           1           1
 AtZEff=  -0.0000000  -0.0000000  -0.0000000  -0.0000000  -0.0000000  -0.0000000  -0.0000000  -0.0000000  -0.0000000  -0.0000000
 NQMom=    0.0000000   0.0000000   0.0000000   0.0000000   0.0000000   0.0000000   0.0000000   0.0000000   0.0000000   0.0000000
 NMagM=    0.0000000   0.0000000   0.0000000   2.7928460   2.7928460   2.7928460   2.7928460   2.7928460   2.7928460   2.7928460
 AtZNuc=   8.0000000   8.0000000   6.0000000   1.0000000   1.0000000   1.0000000   1.0000000   1.0000000   1.0000000   1.0000000

  Atom       131         132         133         134         135         136         137         138         139         140
 IAtWgt=           1           1           1           1           1           1           1           1           1           1
 AtmWgt=   1.0078250   1.0078250   1.0078250   1.0078250   1.0078250   1.0078250   1.0078250   1.0078250   1.0078250   1.0078250
 NucSpn=           1           1           1           1           1           1           1           1           1           1
 AtZEff=  -0.0000000  -0.0000000  -0.0000000  -0.0000000  -0.0000000  -0.0000000  -0.0000000  -0.0000000  -0.0000000  -0.0000000
 NQMom=    0.0000000   0.0000000   0.0000000   0.0000000   0.0000000   0.0000000   0.0000000   0.0000000   0.0000000   0.0000000
 NMagM=    2.7928460   2.7928460   2.7928460   2.7928460   2.7928460   2.7928460   2.7928460   2.7928460   2.7928460   2.7928460
 AtZNuc=   1.0000000   1.0000000   1.0000000   1.0000000   1.0000000   1.0000000   1.0000000   1.0000000   1.0000000   1.0000000

  Atom       141         142         143         144         145         146         147         148         149         150
 IAtWgt=           1           1           1           1           1           1           1           1           1           1
 AtmWgt=   1.0078250   1.0078250   1.0078250   1.0078250   1.0078250   1.0078250   1.0078250   1.0078250   1.0078250   1.0078250
 NucSpn=           1           1           1           1           1           1           1           1           1           1
 AtZEff=  -0.0000000  -0.0000000  -0.0000000  -0.0000000  -0.0000000  -0.0000000  -0.0000000  -0.0000000  -0.0000000  -0.0000000
 NQMom=    0.0000000   0.0000000   0.0000000   0.0000000   0.0000000   0.0000000   0.0000000   0.0000000   0.0000000   0.0000000
 NMagM=    2.7928460   2.7928460   2.7928460   2.7928460   2.7928460   2.7928460   2.7928460   2.7928460   2.7928460   2.7928460
 AtZNuc=   1.0000000   1.0000000   1.0000000   1.0000000   1.0000000   1.0000000   1.0000000   1.0000000   1.0000000   1.0000000

  Atom       151         152         153         154         155         156         157         158
 IAtWgt=           1           1           1           1           1           1           1           1
 AtmWgt=   1.0078250   1.0078250   1.0078250   1.0078250   1.0078250   1.0078250   1.0078250   1.0078250
 NucSpn=           1           1           1           1           1           1           1           1
 AtZEff=  -0.0000000  -0.0000000  -0.0000000  -0.0000000  -0.0000000  -0.0000000  -0.0000000  -0.0000000
 NQMom=    0.0000000   0.0000000   0.0000000   0.0000000   0.0000000   0.0000000   0.0000000   0.0000000
 NMagM=    2.7928460   2.7928460   2.7928460   2.7928460   2.7928460   2.7928460   2.7928460   2.7928460
 AtZNuc=   1.0000000   1.0000000   1.0000000   1.0000000   1.0000000   1.0000000   1.0000000   1.0000000
 Leave Link  101 at Sat Sep 11 15:30:38 2021, MaxMem= 23488102400 cpu:               3.9 elap:               0.2
 (Enter /sw/apps/gaussian-16.0/g16/l202.exe)
 Stoichiometry    C68H72Mg2N8O8
 Framework group  C1[X(C68H72Mg2N8O8)]
 Deg. of freedom   468
 Full point group                 C1      NOp   1
 Largest Abelian subgroup         C1      NOp   1
 Largest concise Abelian subgroup C1      NOp   1
                         Standard orientation:                         
 ---------------------------------------------------------------------
 Center     Atomic      Atomic             Coordinates (Angstroms)
 Number     Number       Type             X           Y           Z
 ---------------------------------------------------------------------
      1         12           0        6.737146   -0.395397   -0.155298
      2          6           0        6.717273    3.002556   -1.280347
      3          6           0        7.661123    0.781562    2.911312
      4          6           0        7.202549   -3.402377    0.738060
      5          6           0        6.929770   -1.347536   -3.502235
      6          7           0        7.108286    1.653453    0.596442
      7          6           0        7.007849    2.874133    0.079697
      8          6           0        7.166059    4.007527    1.136939
      9          6           0        8.002728    3.211434    2.236128
     10          6           0        7.537539    1.800723    1.920822
     11          6           0        9.511692    3.289174    2.027590
     12          6           0        5.787927    4.488714    1.703457
     13          6           0        5.827363    5.802528    2.489391
     14          1           0        4.696955    6.713196    2.388348
     15          7           0        6.864537   -1.190933    1.648515
     16          6           0        7.241695   -0.560619    2.786822
     17          6           0        7.174834   -1.578316    3.857570
     18          6           0        6.911487   -2.896592    3.216563
     19          6           0        7.009637   -2.549087    1.821936
     20          6           0        7.304211   -1.250608    5.313462
     21          6           0        6.628324   -4.256206    3.772802
     22          8           0        6.659302   -5.308103    3.046768
     23          6           0        6.397663   -4.336254    5.226566
     24          7           0        7.246459   -2.126145   -1.205415
     25          6           0        7.326774   -3.309685   -0.587542
     26          6           0        7.423448   -4.435295   -1.574251
     27          6           0        7.146873   -3.790676   -3.008729
     28          6           0        7.012624   -2.308754   -2.579596
     29          6           0        8.760992   -5.187762   -1.602198
     30          6           0        6.011494   -4.419236   -3.855042
     31          6           0        4.675590   -4.158778   -3.195785
     32          7           0        6.634197    0.607214   -2.077593
     33          6           0        6.761267    0.017884   -3.343775
     34          6           0        6.731418    1.110265   -4.333664
     35          6           0        6.604894    2.268071   -3.568599
     36          6           0        6.585041    1.923005   -2.186996
     37          6           0        6.874449    0.963174   -5.741620
     38          6           0        6.506634    3.718403   -3.595797
     39          8           0        6.379954    4.562460   -4.484060
     40          6           0        6.698047    4.261510   -2.111135
     41          6           0        5.604635    5.260831   -1.848231
     42          8           0        4.411210    4.901511   -1.785063
     43          8           0        6.150185    6.429932   -1.479288
     44          6           0        5.118526    7.457178   -1.174986
     45          1           0        8.178033    1.012641    3.844772
     46          1           0        7.256603   -4.461994    0.996379
     47          1           0        6.899920   -1.575068   -4.569377
     48          1           0        7.731980    4.873668    0.793490
     49          1           0        7.711576    3.488951    3.249013
     50          1           0        9.758887    3.772390    1.082435
     51          1           0        9.859361    2.255918    2.029264
     52          1           0        9.996020    3.769661    2.878081
     53          1           0        5.467137    3.809568    2.493340
     54          1           0        5.049181    4.568183    0.905168
     55          1           0        6.763880    6.336600    2.326261
     56          1           0        5.833165    5.564186    3.553045
     57          1           0        7.656554   -0.231037    5.464706
     58          1           0        8.103452   -1.875950    5.710787
     59          1           0        6.381102   -1.441990    5.860795
     60          1           0        7.274359   -3.956271    5.751508
     61          1           0        6.122950   -5.370475    5.430944
     62          1           0        5.571936   -3.674649    5.490013
     63          1           0        6.670906   -5.196808   -1.373743
     64          1           0        8.022106   -3.843838   -3.656661
     65          1           0        8.664228   -6.259468   -1.426734
     66          1           0        9.421137   -4.729088   -0.866591
     67          1           0        9.337089   -5.062082   -2.518567
     68          1           0        6.135424   -5.500100   -3.912670
     69          1           0        5.971451   -4.035185   -4.874431
     70          1           0        4.607859   -4.958199   -2.458785
     71          1           0        3.869814   -4.232480   -3.926883
     72          1           0        4.677413   -3.213772   -2.652235
     73          1           0        6.123505    1.610911   -6.193825
     74          1           0        6.738741   -0.074037   -6.047200
     75          1           0        7.899425    1.307846   -5.877564
     76          1           0        7.687205    4.716372   -2.068840
     77          1           0        5.330292    8.321205   -1.804944
     78          1           0        5.135056    7.602421   -0.094692
     79          1           0        4.099085    7.222617   -1.483303
     80         12           0       -6.466789   -1.101353    0.328875
     81          6           0       -8.328765    1.929148   -0.148806
     82          6           0       -4.203002    0.743554    2.091313
     83          6           0       -4.580647   -3.652187    0.384929
     84          6           0       -8.220675   -2.440304   -2.368681
     85          7           0       -6.386625    1.049626    0.837913
     86          6           0       -7.181304    2.093324    0.654821
     87          6           0       -6.762973    3.365718    1.439417
     88          6           0       -5.200558    3.037990    1.613604
     89          6           0       -5.261660    1.513373    1.546576
     90          6           0       -4.349118    3.533203    0.456387
     91          6           0       -7.485039    3.476003    2.828114
     92          6           0       -7.361970    4.840226    3.510389
     93          1           0       -8.495253    5.334637    4.287350
     94          7           0       -4.930042   -1.536623    1.506801
     95          6           0       -4.133939   -0.665236    2.161151
     96          6           0       -3.140959   -1.484236    2.873467
     97          6           0       -3.314510   -2.901638    2.454468
     98          6           0       -4.289379   -2.745455    1.393660
     99          6           0       -2.206929   -0.917845    3.903140
    100          6           0       -2.694872   -4.183880    2.921493
    101          8           0       -2.815824   -5.272068    2.255119
    102          6           0       -1.864591   -4.107872    4.132418
    103          7           0       -6.253570   -2.725653   -0.951179
    104          6           0       -5.397287   -3.722471   -0.666493
    105          6           0       -5.614207   -4.905422   -1.579713
    106          6           0       -6.960715   -4.587656   -2.381910
    107          6           0       -7.253906   -3.173652   -1.834168
    108          6           0       -4.487790   -5.195648   -2.571344
    109          6           0       -8.087825   -5.654387   -2.315603
    110          6           0       -8.642625   -5.732418   -0.911512
    111          7           0       -8.123428   -0.480783   -0.911493
    112          6           0       -8.682054   -1.182434   -2.002224
    113          6           0       -9.710524   -0.307705   -2.601832
    114          6           0       -9.662496    0.860558   -1.826377
    115          6           0       -8.659937    0.731480   -0.827522
    116          6           0      -10.500272   -0.615243   -3.745440
    117          6           0      -10.224624    2.177773   -1.632341
    118          8           0      -11.164365    2.802125   -2.123061
    119          6           0       -9.299289    2.977604   -0.617246
    120          6           0      -10.187115    3.620664    0.412687
    121          8           0      -10.842835    2.922843    1.206210
    122          8           0       -9.949764    4.944893    0.433993
    123          6           0      -10.798811    5.625307    1.447879
    124          1           0       -3.320731    1.264872    2.463728
    125          1           0       -4.033167   -4.596611    0.427336
    126          1           0       -8.879006   -2.823201   -3.151415
    127          1           0       -6.889746    4.295486    0.897913
    128          1           0       -4.834694    3.362631    2.584225
    129          1           0       -4.952639    3.920867   -0.350844
    130          1           0       -3.777710    2.676474    0.123880
    131          1           0       -3.617193    4.263815    0.812547
    132          1           0       -6.953882    2.852083    3.558420
    133          1           0       -8.519890    3.207148    2.741873
    134          1           0       -7.000922    5.614186    2.822214
    135          1           0       -6.583658    4.776985    4.274751
    136          1           0       -2.197498    0.178812    3.877784
    137          1           0       -1.192255   -1.205118    3.606904
    138          1           0       -2.403944   -1.300983    4.906669
    139          1           0       -1.053857   -3.401467    3.970647
    140          1           0       -1.583113   -5.138091    4.358890
    141          1           0       -2.473825   -3.705952    4.949680
    142          1           0       -5.752006   -5.815055   -1.008160
    143          1           0       -6.775581   -4.474802   -3.460247
    144          1           0       -4.081300   -6.220796   -2.482346
    145          1           0       -3.705964   -4.462459   -2.423975
    146          1           0       -4.746016   -5.050644   -3.618958
    147          1           0       -7.686433   -6.644274   -2.546173
    148          1           0       -8.901054   -5.467159   -3.008856
    149          1           0       -7.935484   -6.394742   -0.403203
    150          1           0       -9.644915   -6.155997   -0.918640
    151          1           0       -8.595413   -4.756323   -0.414869
    152          1           0      -11.511558   -0.305359   -3.517919
    153          1           0      -10.453343   -1.674895   -3.987740
    154          1           0      -10.001178    0.000511   -4.498448
    155          1           0       -8.741014    3.715518   -1.194627
    156          1           0      -11.350680    6.413026    0.925737
    157          1           0      -10.108143    5.942244    2.251786
    158          1           0      -11.608948    5.055159    1.887264
 ---------------------------------------------------------------------
 Rotational constants (GHZ):           0.0234950           0.0076458           0.0069128
 Leave Link  202 at Sat Sep 11 15:30:38 2021, MaxMem= 23488102400 cpu:               0.2 elap:               0.0
 (Enter /sw/apps/gaussian-16.0/g16/l301.exe)
 Standard basis: def2SVP (5D, 7F)
 Ernie: Thresh=  0.10000D-02 Tol=  0.10000D-05 Strict=F.
 There are  1658 symmetry adapted cartesian basis functions of A   symmetry.
 There are  1572 symmetry adapted basis functions of A   symmetry.
  1572 basis functions,  2678 primitive gaussians,  1658 cartesian basis functions
   312 alpha electrons      312 beta electrons
       nuclear repulsion energy     14279.9468853050 Hartrees.
 IExCor=20419 DFT=T Ex+Corr=CAM-B3LYP ExCW=0 ScaHFX=  1.000000
 ScaDFX=  1.000000  1.000000  1.000000  0.810000 ScalE2=  1.000000  1.000000
 IRadAn=      5 IRanWt=     -1 IRanGd=            0 ICorTp=0 IEmpDi=  4
 HFx  wShort=  0.000000 wLong=  0.330000 cFull=  0.190000 cShort=  0.000000 cLong=  0.460000
 DFx  wShort=  0.000000 wLong=  0.330000 cFull=  0.190000 cShort=  0.000000 cLong=  0.460000
 NAtoms=  158 NActive=  158 NUniq=  158 SFac= 1.00D+00 NAtFMM=   60 NAOKFM=T Big=T
 Integral buffers will be    131072 words long.
 Raffenetti 1 integral format.
 Two-electron integral symmetry is turned on.
 Leave Link  301 at Sat Sep 11 15:30:39 2021, MaxMem= 23488102400 cpu:               1.3 elap:               0.1
 (Enter /sw/apps/gaussian-16.0/g16/l302.exe)
 NPDir=0 NMtPBC=     1 NCelOv=     1 NCel=       1 NClECP=     1 NCelD=      1
         NCelK=      1 NCelE2=     1 NClLst=     1 CellRange=     0.0.
 One-electron integrals computed using PRISM.
 One-electron integral symmetry used in STVInt
   1 Symmetry operations used in ECPInt.
 ECPInt:  NShTT=  271216 NPrTT=  987664 LenC2=  120708 LenP2D=  262700.
 LDataN:  DoStor=T MaxTD1= 4 Len=   56
 NBasis=  1572 RedAO= T EigKep=  3.36D-04  NBF=  1572
 NBsUse=  1572 1.00D-06 EigRej= -1.00D+00 NBFU=  1572
 Precomputing XC quadrature grid using
 IXCGrd= 4 IRadAn=           5 IRanWt=          -1 IRanGd=           0 AccXCQ= 0.00D+00.
 Generated NRdTot=       0 NPtTot=           0 NUsed=           0 NTot=          32
 NSgBfM=  1056  1049  1049  1049  1056 MxSgAt=   158 MxSgA2=   158.
 Leave Link  302 at Sat Sep 11 15:30:44 2021, MaxMem= 23488102400 cpu:             118.2 elap:               5.0
 (Enter /sw/apps/gaussian-16.0/g16/l303.exe)
 DipDrv:  MaxL=1.
 Leave Link  303 at Sat Sep 11 15:30:44 2021, MaxMem= 23488102400 cpu:               9.1 elap:               0.4
 (Enter /sw/apps/gaussian-16.0/g16/l308.exe)
 Leave Link  308 at Sat Sep 11 15:30:45 2021, MaxMem= 23488102400 cpu:              12.8 elap:               0.6
 (Enter /sw/apps/gaussian-16.0/g16/l401.exe)
 ExpMin= 3.36D-02 ExpMax= 4.95D+03 ExpMxC= 7.45D+02 IAcc=3 IRadAn=         5 AccDes= 0.00D+00
 Harris functional with IExCor=20419 and IRadAn=       5 diagonalized for initial guess.
 HarFok:  IExCor=20419 AccDes= 0.00D+00 IRadAn=         5 IDoV= 1 UseB2=F ITyADJ=14
 ICtDFT=  3500011 ScaDFX=  1.000000  1.000000  1.000000  1.000000
 FoFCou: FMM=F IPFlag=           0 FMFlag=      100000 FMFlg1=        2001
         NFxFlg=           0 DoJE=T BraDBF=F KetDBF=T FulRan=T
         wScrn=  0.000000 ICntrl=       500 IOpCl=  0 I1Cent=   200000004 NGrid=           0
         NMat0=    1 NMatS0=      1 NMatT0=    0 NMatD0=    1 NMtDS0=    0 NMtDT0=    0
 Petite list used in FoFCou.
 Harris En= -3918.65801435179    
 JPrj=0 DoOrth=F DoCkMO=F.
 Leave Link  401 at Sat Sep 11 15:30:52 2021, MaxMem= 23488102400 cpu:             164.8 elap:               6.9
 (Enter /sw/apps/gaussian-16.0/g16/l502.exe)
 Integral symmetry usage will be decided dynamically.
 Closed shell SCF:
 Using DIIS extrapolation, IDIIS=  1040.
 NGot= 23488102400 LenX= 23482547354 LenY= 23479796732
 Requested convergence on RMS density matrix=1.00D-08 within 128 cycles.
 Requested convergence on MAX density matrix=1.00D-06.
 Requested convergence on             energy=1.00D-06.
 No special actions if energy rises.
 Fock matrices will be formed incrementally for  20 cycles.

 Cycle   1  Pass 1  IDiag  1:
 FoFJK:  IHMeth= 1 ICntrl=       0 DoSepK=T KAlg= 0 I1Cent=           0 FoldK=F
 IRaf=         1 NMat=       1 IRICut=       1 DoRegI=T DoRafI=F ISym2E= 0 IDoP0=0 IntGTp=1.
 FoFCou: FMM=T IPFlag=           0 FMFlag=      100000 FMFlg1=        2001
         NFxFlg=           0 DoJE=T BraDBF=F KetDBF=F FulRan=T
         wScrn=  0.000000 ICntrl=       500 IOpCl=  0 I1Cent=           0 NGrid=           0
         NMat0=    1 NMatS0=      1 NMatT0=    0 NMatD0=    1 NMtDS0=    0 NMtDT0=    0
 Symmetry not used in FoFCou.
 FMM levels:  10  Number of levels for PrismC:   9
 E= -4068.94896111712    
 DIIS: error= 2.04D-02 at cycle   1 NSaved=   1.
 NSaved= 1 IEnMin= 1 EnMin= -4068.94896111712     IErMin= 1 ErrMin= 2.04D-02
 ErrMax= 2.04D-02  0.00D+00 EMaxC= 1.00D-01 BMatC= 1.69D+00 BMatP= 1.69D+00
 IDIUse=3 WtCom= 7.96D-01 WtEn= 2.04D-01
 Coeff-Com:  0.100D+01
 Coeff-En:   0.100D+01
 Coeff:      0.100D+01
 Gap=     0.120 Goal=   None    Shift=    0.000
 GapD=    0.120 DampG=1.000 DampE=0.500 DampFc=0.5000 IDamp=-1.
 Damping current iteration by 5.00D-01
 RMSDP=1.57D-03 MaxDP=1.35D-01              OVMax= 2.04D-01

 Cycle   2  Pass 1  IDiag  1:
 RMSU=  7.70D-04    CP:  9.82D-01
 E= -4069.33795604349     Delta-E=       -0.388994926368 Rises=F Damp=T
 DIIS: error= 1.27D-02 at cycle   2 NSaved=   2.
 NSaved= 2 IEnMin= 2 EnMin= -4069.33795604349     IErMin= 2 ErrMin= 1.27D-02
 ErrMax= 1.27D-02  0.00D+00 EMaxC= 1.00D-01 BMatC= 3.07D-01 BMatP= 1.69D+00
 IDIUse=3 WtCom= 8.73D-01 WtEn= 1.27D-01
 Coeff-Com: -0.213D+00 0.121D+01
 Coeff-En:   0.000D+00 0.100D+01
 Coeff:     -0.186D+00 0.119D+01
 Gap=     0.135 Goal=   None    Shift=    0.000
 RMSDP=7.65D-04 MaxDP=9.42D-02 DE=-3.89D-01 OVMax= 1.89D-01

 Cycle   3  Pass 1  IDiag  1:
 RMSU=  7.33D-04    CP:  9.68D-01  1.24D+00
 E= -4069.62755644160     Delta-E=       -0.289600398108 Rises=F Damp=F
 DIIS: error= 1.56D-02 at cycle   3 NSaved=   3.
 NSaved= 3 IEnMin= 3 EnMin= -4069.62755644160     IErMin= 2 ErrMin= 1.27D-02
 ErrMax= 1.56D-02  0.00D+00 EMaxC= 1.00D-01 BMatC= 2.01D-01 BMatP= 3.07D-01
 IDIUse=3 WtCom= 8.44D-01 WtEn= 1.56D-01
 Coeff-Com: -0.267D+00 0.651D+00 0.616D+00
 Coeff-En:   0.000D+00 0.000D+00 0.100D+01
 Coeff:     -0.225D+00 0.550D+00 0.676D+00
 Gap=     0.122 Goal=   None    Shift=    0.000
 RMSDP=5.08D-04 MaxDP=4.78D-02 DE=-2.90D-01 OVMax= 1.43D-01

 Cycle   4  Pass 1  IDiag  1:
 RMSU=  2.66D-04    CP:  9.65D-01  1.55D+00  5.06D-01
 E= -4069.76498566213     Delta-E=       -0.137429220536 Rises=F Damp=F
 DIIS: error= 7.17D-03 at cycle   4 NSaved=   4.
 NSaved= 4 IEnMin= 4 EnMin= -4069.76498566213     IErMin= 4 ErrMin= 7.17D-03
 ErrMax= 7.17D-03  0.00D+00 EMaxC= 1.00D-01 BMatC= 5.01D-02 BMatP= 2.01D-01
 IDIUse=3 WtCom= 9.28D-01 WtEn= 7.17D-02
 Coeff-Com: -0.109D+00 0.226D+00 0.408D+00 0.474D+00
 Coeff-En:   0.000D+00 0.000D+00 0.220D+00 0.780D+00
 Coeff:     -0.101D+00 0.210D+00 0.395D+00 0.496D+00
 Gap=     0.121 Goal=   None    Shift=    0.000
 RMSDP=2.00D-04 MaxDP=2.01D-02 DE=-1.37D-01 OVMax= 6.24D-02

 Cycle   5  Pass 1  IDiag  1:
 RMSU=  7.64D-05    CP:  9.64D-01  1.49D+00  6.89D-01  5.49D-01
 E= -4069.81043676867     Delta-E=       -0.045451106540 Rises=F Damp=F
 DIIS: error= 7.72D-04 at cycle   5 NSaved=   5.
 NSaved= 5 IEnMin= 5 EnMin= -4069.81043676867     IErMin= 5 ErrMin= 7.72D-04
 ErrMax= 7.72D-04  0.00D+00 EMaxC= 1.00D-01 BMatC= 1.18D-03 BMatP= 5.01D-02
 IDIUse=3 WtCom= 9.92D-01 WtEn= 7.72D-03
 Coeff-Com: -0.362D-01 0.711D-01 0.166D+00 0.250D+00 0.549D+00
 Coeff-En:   0.000D+00 0.000D+00 0.000D+00 0.000D+00 0.100D+01
 Coeff:     -0.359D-01 0.706D-01 0.165D+00 0.248D+00 0.552D+00
 Gap=     0.120 Goal=   None    Shift=    0.000
 RMSDP=4.15D-05 MaxDP=4.08D-03 DE=-4.55D-02 OVMax= 1.66D-02

 Cycle   6  Pass 1  IDiag  1:
 RMSU=  3.06D-05    CP:  9.64D-01  1.49D+00  6.81D-01  6.22D-01  7.52D-01
 E= -4069.81147200390     Delta-E=       -0.001035235226 Rises=F Damp=F
 DIIS: error= 2.02D-04 at cycle   6 NSaved=   6.
 NSaved= 6 IEnMin= 6 EnMin= -4069.81147200390     IErMin= 6 ErrMin= 2.02D-04
 ErrMax= 2.02D-04  0.00D+00 EMaxC= 1.00D-01 BMatC= 1.82D-04 BMatP= 1.18D-03
 IDIUse=3 WtCom= 9.98D-01 WtEn= 2.02D-03
 Coeff-Com:  0.216D-02-0.649D-02 0.115D-01 0.405D-01 0.308D+00 0.645D+00
 Coeff-En:   0.000D+00 0.000D+00 0.000D+00 0.000D+00 0.110D+00 0.890D+00
 Coeff:      0.215D-02-0.647D-02 0.114D-01 0.404D-01 0.307D+00 0.645D+00
 Gap=     0.121 Goal=   None    Shift=    0.000
 RMSDP=1.63D-05 MaxDP=1.13D-03 DE=-1.04D-03 OVMax= 7.28D-03

 Cycle   7  Pass 1  IDiag  1:
 RMSU=  1.09D-05    CP:  9.64D-01  1.50D+00  6.87D-01  6.21D-01  8.56D-01
                    CP:  7.44D-01
 E= -4069.81167004688     Delta-E=       -0.000198042984 Rises=F Damp=F
 DIIS: error= 8.30D-05 at cycle   7 NSaved=   7.
 NSaved= 7 IEnMin= 7 EnMin= -4069.81167004688     IErMin= 7 ErrMin= 8.30D-05
 ErrMax= 8.30D-05  0.00D+00 EMaxC= 1.00D-01 BMatC= 2.21D-05 BMatP= 1.82D-04
 IDIUse=1 WtCom= 1.00D+00 WtEn= 0.00D+00
 Coeff-Com:  0.448D-02-0.982D-02-0.890D-02-0.356D-02 0.105D+00 0.332D+00
 Coeff-Com:  0.580D+00
 Coeff:      0.448D-02-0.982D-02-0.890D-02-0.356D-02 0.105D+00 0.332D+00
 Coeff:      0.580D+00
 Gap=     0.121 Goal=   None    Shift=    0.000
 RMSDP=6.58D-06 MaxDP=1.04D-03 DE=-1.98D-04 OVMax= 3.36D-03

 Cycle   8  Pass 1  IDiag  1:
 RMSU=  4.72D-06    CP:  9.64D-01  1.50D+00  6.87D-01  6.26D-01  8.59D-01
                    CP:  8.69D-01  8.16D-01
 E= -4069.81169736055     Delta-E=       -0.000027313672 Rises=F Damp=F
 DIIS: error= 5.28D-05 at cycle   8 NSaved=   8.
 NSaved= 8 IEnMin= 8 EnMin= -4069.81169736055     IErMin= 8 ErrMin= 5.28D-05
 ErrMax= 5.28D-05  0.00D+00 EMaxC= 1.00D-01 BMatC= 4.96D-06 BMatP= 2.21D-05
 IDIUse=1 WtCom= 1.00D+00 WtEn= 0.00D+00
 Coeff-Com:  0.218D-02-0.433D-02-0.780D-02-0.122D-01-0.106D-01 0.338D-01
 Coeff-Com:  0.339D+00 0.660D+00
 Coeff:      0.218D-02-0.433D-02-0.780D-02-0.122D-01-0.106D-01 0.338D-01
 Coeff:      0.339D+00 0.660D+00
 Gap=     0.121 Goal=   None    Shift=    0.000
 RMSDP=3.32D-06 MaxDP=3.59D-04 DE=-2.73D-05 OVMax= 1.07D-03

 Cycle   9  Pass 1  IDiag  1:
 RMSU=  1.92D-06    CP:  9.64D-01  1.50D+00  6.88D-01  6.27D-01  8.76D-01
                    CP:  8.95D-01  1.01D+00  9.47D-01
 E= -4069.81170524438     Delta-E=       -0.000007883824 Rises=F Damp=F
 DIIS: error= 1.97D-05 at cycle   9 NSaved=   9.
 NSaved= 9 IEnMin= 9 EnMin= -4069.81170524438     IErMin= 9 ErrMin= 1.97D-05
 ErrMax= 1.97D-05  0.00D+00 EMaxC= 1.00D-01 BMatC= 7.10D-07 BMatP= 4.96D-06
 IDIUse=1 WtCom= 1.00D+00 WtEn= 0.00D+00
 Coeff-Com:  0.478D-03-0.797D-03-0.270D-02-0.605D-02-0.210D-01-0.391D-01
 Coeff-Com:  0.103D+00 0.327D+00 0.639D+00
 Coeff:      0.478D-03-0.797D-03-0.270D-02-0.605D-02-0.210D-01-0.391D-01
 Coeff:      0.103D+00 0.327D+00 0.639D+00
 Gap=     0.121 Goal=   None    Shift=    0.000
 RMSDP=1.42D-06 MaxDP=1.42D-04 DE=-7.88D-06 OVMax= 7.41D-04

 Cycle  10  Pass 1  IDiag  1:
 RMSU=  9.45D-07    CP:  9.64D-01  1.50D+00  6.88D-01  6.28D-01  8.80D-01
                    CP:  9.08D-01  1.06D+00  1.11D+00  1.06D+00
 E= -4069.81170686397     Delta-E=       -0.000001619588 Rises=F Damp=F
 DIIS: error= 1.06D-05 at cycle  10 NSaved=  10.
 NSaved=10 IEnMin=10 EnMin= -4069.81170686397     IErMin=10 ErrMin= 1.06D-05
 ErrMax= 1.06D-05  0.00D+00 EMaxC= 1.00D-01 BMatC= 1.74D-07 BMatP= 7.10D-07
 IDIUse=1 WtCom= 1.00D+00 WtEn= 0.00D+00
 Coeff-Com: -0.425D-03 0.891D-03 0.122D-02 0.109D-02-0.380D-02-0.312D-01
 Coeff-Com: -0.446D-01-0.754D-01 0.249D+00 0.903D+00
 Coeff:     -0.425D-03 0.891D-03 0.122D-02 0.109D-02-0.380D-02-0.312D-01
 Coeff:     -0.446D-01-0.754D-01 0.249D+00 0.903D+00
 Gap=     0.121 Goal=   None    Shift=    0.000
 RMSDP=1.23D-06 MaxDP=1.22D-04 DE=-1.62D-06 OVMax= 6.25D-04

 Cycle  11  Pass 1  IDiag  1:
 RMSU=  5.23D-07    CP:  9.64D-01  1.50D+00  6.88D-01  6.28D-01  8.82D-01
                    CP:  9.18D-01  1.11D+00  1.22D+00  1.39D+00  1.37D+00
 E= -4069.81170765916     Delta-E=       -0.000000795197 Rises=F Damp=F
 DIIS: error= 4.15D-06 at cycle  11 NSaved=  11.
 NSaved=11 IEnMin=11 EnMin= -4069.81170765916     IErMin=11 ErrMin= 4.15D-06
 ErrMax= 4.15D-06  0.00D+00 EMaxC= 1.00D-01 BMatC= 6.45D-08 BMatP= 1.74D-07
 IDIUse=1 WtCom= 1.00D+00 WtEn= 0.00D+00
 Coeff-Com: -0.332D-03 0.647D-03 0.134D-02 0.212D-02 0.437D-02-0.864D-02
 Coeff-Com: -0.425D-01-0.132D+00-0.266D-01 0.473D+00 0.729D+00
 Coeff:     -0.332D-03 0.647D-03 0.134D-02 0.212D-02 0.437D-02-0.864D-02
 Coeff:     -0.425D-01-0.132D+00-0.266D-01 0.473D+00 0.729D+00
 Gap=     0.121 Goal=   None    Shift=    0.000
 RMSDP=6.93D-07 MaxDP=6.03D-05 DE=-7.95D-07 OVMax= 3.76D-04

 Cycle  12  Pass 1  IDiag  1:
 RMSU=  2.67D-07    CP:  9.64D-01  1.50D+00  6.88D-01  6.28D-01  8.83D-01
                    CP:  9.21D-01  1.13D+00  1.29D+00  1.56D+00  1.76D+00
                    CP:  1.19D+00
 E= -4069.81170792693     Delta-E=       -0.000000267763 Rises=F Damp=F
 DIIS: error= 2.45D-06 at cycle  12 NSaved=  12.
 NSaved=12 IEnMin=12 EnMin= -4069.81170792693     IErMin=12 ErrMin= 2.45D-06
 ErrMax= 2.45D-06  0.00D+00 EMaxC= 1.00D-01 BMatC= 1.59D-08 BMatP= 6.45D-08
 IDIUse=1 WtCom= 1.00D+00 WtEn= 0.00D+00
 Coeff-Com: -0.957D-05 0.212D-05 0.215D-03 0.563D-03 0.343D-02 0.374D-02
 Coeff-Com:  0.172D-02-0.376D-01-0.695D-01-0.598D-01 0.264D+00 0.894D+00
 Coeff:     -0.957D-05 0.212D-05 0.215D-03 0.563D-03 0.343D-02 0.374D-02
 Coeff:      0.172D-02-0.376D-01-0.695D-01-0.598D-01 0.264D+00 0.894D+00
 Gap=     0.121 Goal=   None    Shift=    0.000
 RMSDP=4.33D-07 MaxDP=3.03D-05 DE=-2.68D-07 OVMax= 2.47D-04

 Cycle  13  Pass 1  IDiag  1:
 RMSU=  1.67D-07    CP:  9.64D-01  1.50D+00  6.88D-01  6.28D-01  8.83D-01
                    CP:  9.21D-01  1.13D+00  1.31D+00  1.67D+00  1.98D+00
                    CP:  1.60D+00  1.24D+00
 E= -4069.81170801945     Delta-E=       -0.000000092525 Rises=F Damp=F
 DIIS: error= 1.28D-06 at cycle  13 NSaved=  13.
 NSaved=13 IEnMin=13 EnMin= -4069.81170801945     IErMin=13 ErrMin= 1.28D-06
 ErrMax= 1.28D-06  0.00D+00 EMaxC= 1.00D-01 BMatC= 8.44D-09 BMatP= 1.59D-08
 IDIUse=1 WtCom= 1.00D+00 WtEn= 0.00D+00
 Coeff-Com:  0.119D-03-0.243D-03-0.363D-03-0.444D-03 0.655D-03 0.502D-02
 Coeff-Com:  0.192D-01 0.224D-01-0.339D-01-0.239D+00-0.153D+00 0.584D+00
 Coeff-Com:  0.794D+00
 Coeff:      0.119D-03-0.243D-03-0.363D-03-0.444D-03 0.655D-03 0.502D-02
 Coeff:      0.192D-01 0.224D-01-0.339D-01-0.239D+00-0.153D+00 0.584D+00
 Coeff:      0.794D+00
 Gap=     0.121 Goal=   None    Shift=    0.000
 RMSDP=3.45D-07 MaxDP=2.07D-05 DE=-9.25D-08 OVMax= 2.02D-04

 Cycle  14  Pass 1  IDiag  1:
 RMSU=  7.73D-08    CP:  9.64D-01  1.50D+00  6.88D-01  6.28D-01  8.84D-01
                    CP:  9.21D-01  1.14D+00  1.34D+00  1.74D+00  2.17D+00
                    CP:  1.86D+00  1.76D+00  1.10D+00
 E= -4069.81170805708     Delta-E=       -0.000000037635 Rises=F Damp=F
 DIIS: error= 7.01D-07 at cycle  14 NSaved=  14.
 NSaved=14 IEnMin=14 EnMin= -4069.81170805708     IErMin=14 ErrMin= 7.01D-07
 ErrMax= 7.01D-07  0.00D+00 EMaxC= 1.00D-01 BMatC= 1.32D-09 BMatP= 8.44D-09
 IDIUse=1 WtCom= 1.00D+00 WtEn= 0.00D+00
 Coeff-Com:  0.679D-04-0.134D-03-0.250D-03-0.391D-03-0.464D-03 0.131D-02
 Coeff-Com:  0.107D-01 0.196D-01 0.375D-02-0.102D+00-0.143D+00 0.869D-01
 Coeff-Com:  0.411D+00 0.713D+00
 Coeff:      0.679D-04-0.134D-03-0.250D-03-0.391D-03-0.464D-03 0.131D-02
 Coeff:      0.107D-01 0.196D-01 0.375D-02-0.102D+00-0.143D+00 0.869D-01
 Coeff:      0.411D+00 0.713D+00
 Gap=     0.121 Goal=   None    Shift=    0.000
 RMSDP=1.06D-07 MaxDP=6.77D-06 DE=-3.76D-08 OVMax= 5.68D-05

 Cycle  15  Pass 1  IDiag  1:
 RMSU=  3.85D-08    CP:  9.64D-01  1.50D+00  6.88D-01  6.28D-01  8.84D-01
                    CP:  9.21D-01  1.14D+00  1.34D+00  1.76D+00  2.22D+00
                    CP:  1.97D+00  1.90D+00  1.34D+00  1.03D+00
 E= -4069.81170806131     Delta-E=       -0.000000004227 Rises=F Damp=F
 DIIS: error= 3.21D-07 at cycle  15 NSaved=  15.
 NSaved=15 IEnMin=15 EnMin= -4069.81170806131     IErMin=15 ErrMin= 3.21D-07
 ErrMax= 3.21D-07  0.00D+00 EMaxC= 1.00D-01 BMatC= 2.23D-10 BMatP= 1.32D-09
 IDIUse=1 WtCom= 1.00D+00 WtEn= 0.00D+00
 Coeff-Com:  0.639D-05-0.110D-04-0.360D-04-0.866D-04-0.300D-03-0.491D-03
 Coeff-Com:  0.124D-02 0.285D-02 0.866D-02 0.167D-03-0.312D-01-0.720D-01
 Coeff-Com:  0.360D-01 0.293D+00 0.762D+00
 Coeff:      0.639D-05-0.110D-04-0.360D-04-0.866D-04-0.300D-03-0.491D-03
 Coeff:      0.124D-02 0.285D-02 0.866D-02 0.167D-03-0.312D-01-0.720D-01
 Coeff:      0.360D-01 0.293D+00 0.762D+00
 Gap=     0.121 Goal=   None    Shift=    0.000
 RMSDP=3.93D-08 MaxDP=2.32D-06 DE=-4.23D-09 OVMax= 2.72D-05

 Cycle  16  Pass 1  IDiag  1:
 RMSU=  1.87D-08    CP:  9.64D-01  1.50D+00  6.88D-01  6.28D-01  8.84D-01
                    CP:  9.21D-01  1.14D+00  1.34D+00  1.76D+00  2.23D+00
                    CP:  1.99D+00  1.96D+00  1.41D+00  1.23D+00  1.14D+00
 E= -4069.81170806211     Delta-E=       -0.000000000793 Rises=F Damp=F
 DIIS: error= 1.82D-07 at cycle  16 NSaved=  16.
 NSaved=16 IEnMin=16 EnMin= -4069.81170806211     IErMin=16 ErrMin= 1.82D-07
 ErrMax= 1.82D-07  0.00D+00 EMaxC= 1.00D-01 BMatC= 8.64D-11 BMatP= 2.23D-10
 IDIUse=1 WtCom= 1.00D+00 WtEn= 0.00D+00
 Coeff-Com: -0.139D-04 0.283D-04 0.457D-04 0.515D-04-0.332D-04-0.628D-03
 Coeff-Com: -0.189D-02-0.416D-02 0.441D-02 0.250D-01 0.205D-01-0.639D-01
 Coeff-Com: -0.798D-01-0.413D-01 0.403D+00 0.739D+00
 Coeff:     -0.139D-04 0.283D-04 0.457D-04 0.515D-04-0.332D-04-0.628D-03
 Coeff:     -0.189D-02-0.416D-02 0.441D-02 0.250D-01 0.205D-01-0.639D-01
 Coeff:     -0.798D-01-0.413D-01 0.403D+00 0.739D+00
 Gap=     0.121 Goal=   None    Shift=    0.000
 RMSDP=2.32D-08 MaxDP=1.34D-06 DE=-7.93D-10 OVMax= 1.20D-05

 Cycle  17  Pass 1  IDiag  1:
 RMSU=  1.04D-08    CP:  9.64D-01  1.50D+00  6.88D-01  6.28D-01  8.84D-01
                    CP:  9.21D-01  1.14D+00  1.34D+00  1.77D+00  2.23D+00
                    CP:  2.00D+00  1.98D+00  1.46D+00  1.33D+00  1.44D+00
                    CP:  1.24D+00
 E= -4069.81170806234     Delta-E=       -0.000000000233 Rises=F Damp=F
 DIIS: error= 9.31D-08 at cycle  17 NSaved=  17.
 NSaved=17 IEnMin=17 EnMin= -4069.81170806234     IErMin=17 ErrMin= 9.31D-08
 ErrMax= 9.31D-08  0.00D+00 EMaxC= 1.00D-01 BMatC= 1.79D-11 BMatP= 8.64D-11
 IDIUse=1 WtCom= 1.00D+00 WtEn= 0.00D+00
 Coeff-Com: -0.737D-05 0.144D-04 0.289D-04 0.426D-04 0.808D-04-0.133D-03
 Coeff-Com: -0.946D-03-0.283D-02 0.152D-03 0.946D-02 0.176D-01-0.793D-02
 Coeff-Com: -0.358D-01-0.101D+00-0.218D-01 0.285D+00 0.858D+00
 Coeff:     -0.737D-05 0.144D-04 0.289D-04 0.426D-04 0.808D-04-0.133D-03
 Coeff:     -0.946D-03-0.283D-02 0.152D-03 0.946D-02 0.176D-01-0.793D-02
 Coeff:     -0.358D-01-0.101D+00-0.218D-01 0.285D+00 0.858D+00
 Gap=     0.121 Goal=   None    Shift=    0.000
 RMSDP=1.35D-08 MaxDP=8.35D-07 DE=-2.33D-10 OVMax= 9.27D-06

 Cycle  18  Pass 1  IDiag  1:
 RMSU=  5.05D-09    CP:  9.64D-01  1.50D+00  6.88D-01  6.28D-01  8.84D-01
                    CP:  9.21D-01  1.14D+00  1.34D+00  1.77D+00  2.24D+00
                    CP:  2.01D+00  1.99D+00  1.48D+00  1.39D+00  1.60D+00
                    CP:  1.64D+00  1.38D+00
 E= -4069.81170806260     Delta-E=       -0.000000000262 Rises=F Damp=F
 DIIS: error= 6.32D-08 at cycle  18 NSaved=  18.
 NSaved=18 IEnMin=18 EnMin= -4069.81170806260     IErMin=18 ErrMin= 6.32D-08
 ErrMax= 6.32D-08  0.00D+00 EMaxC= 1.00D-01 BMatC= 7.65D-12 BMatP= 1.79D-11
 IDIUse=1 WtCom= 1.00D+00 WtEn= 0.00D+00
 Coeff-Com:  0.145D-05-0.322D-05-0.236D-05 0.130D-05 0.622D-04 0.165D-03
 Coeff-Com:  0.314D-03 0.314D-04-0.120D-02-0.522D-02 0.968D-03 0.181D-01
 Coeff-Com:  0.155D-01-0.362D-01-0.154D+00-0.176D+00 0.391D+00 0.947D+00
 Coeff:      0.145D-05-0.322D-05-0.236D-05 0.130D-05 0.622D-04 0.165D-03
 Coeff:      0.314D-03 0.314D-04-0.120D-02-0.522D-02 0.968D-03 0.181D-01
 Coeff:      0.155D-01-0.362D-01-0.154D+00-0.176D+00 0.391D+00 0.947D+00
 Gap=     0.121 Goal=   None    Shift=    0.000
 RMSDP=1.13D-08 MaxDP=6.63D-07 DE=-2.62D-10 OVMax= 5.81D-06

 Cycle  19  Pass 1  IDiag  1:
 RMSU=  2.99D-09    CP:  9.64D-01  1.50D+00  6.88D-01  6.28D-01  8.84D-01
                    CP:  9.21D-01  1.14D+00  1.34D+00  1.77D+00  2.24D+00
                    CP:  2.01D+00  1.99D+00  1.49D+00  1.44D+00  1.75D+00
                    CP:  1.95D+00  1.92D+00  1.29D+00
 E= -4069.81170806273     Delta-E=       -0.000000000135 Rises=F Damp=F
 DIIS: error= 3.27D-08 at cycle  19 NSaved=  19.
 NSaved=19 IEnMin=19 EnMin= -4069.81170806273     IErMin=19 ErrMin= 3.27D-08
 ErrMax= 3.27D-08  0.00D+00 EMaxC= 1.00D-01 BMatC= 1.86D-12 BMatP= 7.65D-12
 IDIUse=1 WtCom= 1.00D+00 WtEn= 0.00D+00
 Coeff-Com:  0.300D-05-0.606D-05-0.100D-04-0.122D-04 0.158D-04 0.130D-03
 Coeff-Com:  0.486D-03 0.806D-03-0.650D-03-0.622D-02-0.478D-02 0.128D-01
 Coeff-Com:  0.212D-01 0.997D-02-0.781D-01-0.194D+00-0.114D-01 0.524D+00
 Coeff-Com:  0.725D+00
 Coeff:      0.300D-05-0.606D-05-0.100D-04-0.122D-04 0.158D-04 0.130D-03
 Coeff:      0.486D-03 0.806D-03-0.650D-03-0.622D-02-0.478D-02 0.128D-01
 Coeff:      0.212D-01 0.997D-02-0.781D-01-0.194D+00-0.114D-01 0.524D+00
 Coeff:      0.725D+00
 Gap=     0.121 Goal=   None    Shift=    0.000
 RMSDP=5.01D-09 MaxDP=3.45D-07 DE=-1.35D-10 OVMax= 3.59D-06

 SCF Done:  E(RCAM-B3LYP) =  -4069.81170806     A.U. after   19 cycles
            NFock= 19  Conv=0.50D-08     -V/T= 2.0102
 KE= 4.028802185361D+03 PE=-3.804059449292D+04 EE= 1.566203371419D+04
 Leave Link  502 at Sat Sep 11 15:40:02 2021, MaxMem= 23488102400 cpu:           12601.8 elap:             550.0
 (Enter /sw/apps/gaussian-16.0/g16/l801.exe)
 DoSCS=F DFT=T ScalE2(SS,OS)=  1.000000  1.000000
 ExpMin= 3.36D-02 ExpMax= 4.95D+03 ExpMxC= 7.45D+02 IAcc=3 IRadAn=         5 AccDes= 0.00D+00
 HarFok:  IExCor=  205 AccDes= 0.00D+00 IRadAn=         5 IDoV=-2 UseB2=F ITyADJ=14
 ICtDFT= 12500011 ScaDFX=  1.000000  1.000000  1.000000  1.000000
 GSVD:  LWork=       -9588 too small for GESVD, short by       45590 words or       45590 for optimal perf.
 Largest valence mixing into a core orbital is  2.03D-04
 Largest core mixing into a valence orbital is  5.24D-05
 Range of M.O.s used for correlation:    95  1572
 NBasis=  1572 NAE=   312 NBE=   312 NFC=    94 NFV=     0
 NROrb=   1478 NOA=   218 NOB=   218 NVA=  1260 NVB=  1260
 Leave Link  801 at Sat Sep 11 15:40:02 2021, MaxMem= 23488102400 cpu:               9.7 elap:               0.4
 (Enter /sw/apps/gaussian-16.0/g16/l914.exe)
 RHF ground state
 Two-electron integrals replicated using symmetry.
 MDV= 23488102400 DFT=T DoStab=F Mixed=T DoRPA=T DoScal=F NonHer=T
 Making orbital integer symmetry assigments:
 Orbital symmetries:
       Occupied  (A) (A) (A) (A) (A) (A) (A) (A) (A) (A) (A) (A)
                 (A) (A) (A) (A) (A) (A) (A) (A) (A) (A) (A) (A)
                 (A) (A) (A) (A) (A) (A) (A) (A) (A) (A) (A) (A)
                 (A) (A) (A) (A) (A) (A) (A) (A) (A) (A) (A) (A)
                 (A) (A) (A) (A) (A) (A) (A) (A) (A) (A) (A) (A)
                 (A) (A) (A) (A) (A) (A) (A) (A) (A) (A) (A) (A)
                 (A) (A) (A) (A) (A) (A) (A) (A) (A) (A) (A) (A)
                 (A) (A) (A) (A) (A) (A) (A) (A) (A) (A) (A) (A)
                 (A) (A) (A) (A) (A) (A) (A) (A) (A) (A) (A) (A)
                 (A) (A) (A) (A) (A) (A) (A) (A) (A) (A) (A) (A)
                 (A) (A) (A) (A) (A) (A) (A) (A) (A) (A) (A) (A)
                 (A) (A) (A) (A) (A) (A) (A) (A) (A) (A) (A) (A)
                 (A) (A) (A) (A) (A) (A) (A) (A) (A) (A) (A) (A)
                 (A) (A) (A) (A) (A) (A) (A) (A) (A) (A) (A) (A)
                 (A) (A) (A) (A) (A) (A) (A) (A) (A) (A) (A) (A)
                 (A) (A) (A) (A) (A) (A) (A) (A) (A) (A) (A) (A)
                 (A) (A) (A) (A) (A) (A) (A) (A) (A) (A) (A) (A)
                 (A) (A) (A) (A) (A) (A) (A) (A) (A) (A) (A) (A)
                 (A) (A) (A) (A) (A) (A) (A) (A) (A) (A) (A) (A)
                 (A) (A) (A) (A) (A) (A) (A) (A) (A) (A) (A) (A)
                 (A) (A) (A) (A) (A) (A) (A) (A) (A) (A) (A) (A)
                 (A) (A) (A) (A) (A) (A) (A) (A) (A) (A) (A) (A)
                 (A) (A) (A) (A) (A) (A) (A) (A) (A) (A) (A) (A)
                 (A) (A) (A) (A) (A) (A) (A) (A) (A) (A) (A) (A)
                 (A) (A) (A) (A) (A) (A) (A) (A) (A) (A) (A) (A)
                 (A) (A) (A) (A) (A) (A) (A) (A) (A) (A) (A) (A)
       Virtual   (A) (A) (A) (A) (A) (A) (A) (A) (A) (A) (A) (A)
                 (A) (A) (A) (A) (A) (A) (A) (A) (A) (A) (A) (A)
                 (A) (A) (A) (A) (A) (A) (A) (A) (A) (A) (A) (A)
                 (A) (A) (A) (A) (A) (A) (A) (A) (A) (A) (A) (A)
                 (A) (A) (A) (A) (A) (A) (A) (A) (A) (A) (A) (A)
                 (A) (A) (A) (A) (A) (A) (A) (A) (A) (A) (A) (A)
                 (A) (A) (A) (A) (A) (A) (A) (A) (A) (A) (A) (A)
                 (A) (A) (A) (A) (A) (A) (A) (A) (A) (A) (A) (A)
                 (A) (A) (A) (A) (A) (A) (A) (A) (A) (A) (A) (A)
                 (A) (A) (A) (A) (A) (A) (A) (A) (A) (A) (A) (A)
                 (A) (A) (A) (A) (A) (A) (A) (A) (A) (A) (A) (A)
                 (A) (A) (A) (A) (A) (A) (A) (A) (A) (A) (A) (A)
                 (A) (A) (A) (A) (A) (A) (A) (A) (A) (A) (A) (A)
                 (A) (A) (A) (A) (A) (A) (A) (A) (A) (A) (A) (A)
                 (A) (A) (A) (A) (A) (A) (A) (A) (A) (A) (A) (A)
                 (A) (A) (A) (A) (A) (A) (A) (A) (A) (A) (A) (A)
                 (A) (A) (A) (A) (A) (A) (A) (A) (A) (A) (A) (A)
                 (A) (A) (A) (A) (A) (A) (A) (A) (A) (A) (A) (A)
                 (A) (A) (A) (A) (A) (A) (A) (A) (A) (A) (A) (A)
                 (A) (A) (A) (A) (A) (A) (A) (A) (A) (A) (A) (A)
                 (A) (A) (A) (A) (A) (A) (A) (A) (A) (A) (A) (A)
                 (A) (A) (A) (A) (A) (A) (A) (A) (A) (A) (A) (A)
                 (A) (A) (A) (A) (A) (A) (A) (A) (A) (A) (A) (A)
                 (A) (A) (A) (A) (A) (A) (A) (A) (A) (A) (A) (A)
                 (A) (A) (A) (A) (A) (A) (A) (A) (A) (A) (A) (A)
                 (A) (A) (A) (A) (A) (A) (A) (A) (A) (A) (A) (A)
                 (A) (A) (A) (A) (A) (A) (A) (A) (A) (A) (A) (A)
                 (A) (A) (A) (A) (A) (A) (A) (A) (A) (A) (A) (A)
                 (A) (A) (A) (A) (A) (A) (A) (A) (A) (A) (A) (A)
                 (A) (A) (A) (A) (A) (A) (A) (A) (A) (A) (A) (A)
                 (A) (A) (A) (A) (A) (A) (A) (A) (A) (A) (A) (A)
                 (A) (A) (A) (A) (A) (A) (A) (A) (A) (A) (A) (A)
                 (A) (A) (A) (A) (A) (A) (A) (A) (A) (A) (A) (A)
                 (A) (A) (A) (A) (A) (A) (A) (A) (A) (A) (A) (A)
                 (A) (A) (A) (A) (A) (A) (A) (A) (A) (A) (A) (A)
                 (A) (A) (A) (A) (A) (A) (A) (A) (A) (A) (A) (A)
                 (A) (A) (A) (A) (A) (A) (A) (A) (A) (A) (A) (A)
                 (A) (A) (A) (A) (A) (A) (A) (A) (A) (A) (A) (A)
                 (A) (A) (A) (A) (A) (A) (A) (A) (A) (A) (A) (A)
                 (A) (A) (A) (A) (A) (A) (A) (A) (A) (A) (A) (A)
                 (A) (A) (A) (A) (A) (A) (A) (A) (A) (A) (A) (A)
                 (A) (A) (A) (A) (A) (A) (A) (A) (A) (A) (A) (A)
                 (A) (A) (A) (A) (A) (A) (A) (A) (A) (A) (A) (A)
                 (A) (A) (A) (A) (A) (A) (A) (A) (A) (A) (A) (A)
                 (A) (A) (A) (A) (A) (A) (A) (A) (A) (A) (A) (A)
                 (A) (A) (A) (A) (A) (A) (A) (A) (A) (A) (A) (A)
                 (A) (A) (A) (A) (A) (A) (A) (A) (A) (A) (A) (A)
                 (A) (A) (A) (A) (A) (A) (A) (A) (A) (A) (A) (A)
                 (A) (A) (A) (A) (A) (A) (A) (A) (A) (A) (A) (A)
                 (A) (A) (A) (A) (A) (A) (A) (A) (A) (A) (A) (A)
                 (A) (A) (A) (A) (A) (A) (A) (A) (A) (A) (A) (A)
                 (A) (A) (A) (A) (A) (A) (A) (A) (A) (A) (A) (A)
                 (A) (A) (A) (A) (A) (A) (A) (A) (A) (A) (A) (A)
                 (A) (A) (A) (A) (A) (A) (A) (A) (A) (A) (A) (A)
                 (A) (A) (A) (A) (A) (A) (A) (A) (A) (A) (A) (A)
                 (A) (A) (A) (A) (A) (A) (A) (A) (A) (A) (A) (A)
                 (A) (A) (A) (A) (A) (A) (A) (A) (A) (A) (A) (A)
                 (A) (A) (A) (A) (A) (A) (A) (A) (A) (A) (A) (A)
                 (A) (A) (A) (A) (A) (A) (A) (A) (A) (A) (A) (A)
                 (A) (A) (A) (A) (A) (A) (A) (A) (A) (A) (A) (A)
                 (A) (A) (A) (A) (A) (A) (A) (A) (A) (A) (A) (A)
                 (A) (A) (A) (A) (A) (A) (A) (A) (A) (A) (A) (A)
                 (A) (A) (A) (A) (A) (A) (A) (A) (A) (A) (A) (A)
                 (A) (A) (A) (A) (A) (A) (A) (A) (A) (A) (A) (A)
                 (A) (A) (A) (A) (A) (A) (A) (A) (A) (A) (A) (A)
                 (A) (A) (A) (A) (A) (A) (A) (A) (A) (A) (A) (A)
                 (A) (A) (A) (A) (A) (A) (A) (A) (A) (A) (A) (A)
                 (A) (A) (A) (A) (A) (A) (A) (A) (A) (A) (A) (A)
                 (A) (A) (A) (A) (A) (A) (A) (A) (A) (A) (A) (A)
                 (A) (A) (A) (A) (A) (A) (A) (A) (A) (A) (A) (A)
                 (A) (A) (A) (A) (A) (A) (A) (A) (A) (A) (A) (A)
                 (A) (A) (A) (A) (A) (A) (A) (A) (A) (A) (A) (A)
                 (A) (A) (A) (A) (A) (A) (A) (A) (A) (A) (A) (A)
                 (A) (A) (A) (A) (A) (A) (A) (A) (A) (A) (A) (A)
                 (A) (A) (A) (A) (A) (A) (A) (A) (A) (A) (A) (A)
                 (A) (A) (A) (A) (A) (A) (A) (A) (A) (A) (A) (A)
                 (A) (A) (A) (A) (A) (A) (A) (A) (A) (A) (A) (A)
                 (A) (A) (A) (A) (A) (A) (A) (A) (A) (A) (A) (A)
                 (A) (A) (A) (A) (A) (A) (A) (A) (A) (A) (A) (A)
                 (A) (A) (A) (A) (A) (A) (A) (A) (A) (A) (A) (A)
                 (A) (A) (A) (A) (A) (A) (A) (A) (A) (A) (A) (A)
                 (A) (A) (A) (A) (A) (A) (A) (A) (A) (A) (A) (A)
                 (A) (A) (A) (A) (A) (A) (A) (A) (A) (A) (A) (A)
                 (A) (A) (A) (A) (A) (A) (A) (A) (A) (A) (A) (A)
                 (A) (A) (A) (A) (A) (A) (A) (A) (A) (A) (A) (A)
                 (A) (A) (A) (A) (A) (A) (A) (A) (A) (A) (A) (A)
                 (A) (A) (A) (A) (A) (A) (A) (A) (A) (A) (A) (A)
                 (A) (A) (A) (A) (A) (A) (A) (A) (A) (A) (A) (A)
                 (A) (A) (A) (A) (A) (A) (A) (A) (A) (A) (A) (A)
                 (A) (A) (A) (A) (A) (A) (A) (A) (A) (A) (A) (A)
                 (A) (A) (A) (A) (A) (A) (A) (A) (A) (A) (A) (A)
                 (A) (A) (A) (A) (A) (A) (A) (A) (A) (A) (A) (A)
                 (A) (A) (A) (A) (A) (A) (A) (A) (A) (A) (A) (A)
                 (A) (A) (A) (A) (A) (A) (A) (A) (A) (A) (A) (A)
                 (A) (A) (A) (A) (A) (A) (A) (A) (A) (A) (A) (A)
                 (A) (A) (A) (A) (A) (A) (A) (A) (A) (A) (A) (A)
                 (A) (A) (A) (A) (A) (A) (A) (A) (A) (A) (A) (A)
                 (A) (A) (A) (A) (A) (A) (A) (A) (A) (A) (A) (A)
                 (A) (A) (A) (A) (A) (A) (A) (A) (A) (A) (A) (A)
                 (A) (A) (A) (A) (A) (A) (A) (A) (A) (A) (A) (A)
                 (A) (A) (A) (A) (A) (A) (A) (A) (A) (A) (A) (A)
                 (A) (A) (A) (A) (A) (A) (A) (A) (A) (A) (A) (A)
                 (A) (A) (A) (A) (A) (A) (A) (A) (A) (A) (A) (A)
                 (A) (A) (A) (A) (A) (A) (A) (A) (A) (A) (A) (A)
                 (A) (A) (A) (A) (A) (A) (A) (A) (A) (A) (A) (A)
    20 initial guesses have been made.
 Convergence on wavefunction:    0.001000000000000
 Davidson Disk Diagonalization:  ConvIn= 1.00D-03 SkipCon=T Conv= 1.00D-03.
 Max sub-space:  2000 roots to seek:    20 dimension of matrix:       549360
 Iteration     1 Dimension    20 NMult     0 NNew     20
 CISAX will form    20 AO SS matrices at one time.
 NMat=    20 NSing=    20 JSym2X= 0.
 FoFJK:  IHMeth= 1 ICntrl=       0 DoSepK=T KAlg= 0 I1Cent=           0 FoldK=F
 IRaf=         1 NMat=      40 IRICut=       1 DoRegI=T DoRafI=F ISym2E= 0 IDoP0=3 IntGTp=3.
 FoFCou: FMM=T IPFlag=           0 FMFlag=      100000 FMFlg1=        2001
         NFxFlg=           0 DoJE=F BraDBF=F KetDBF=F FulRan=T
         wScrn=  0.000000 ICntrl=       500 IOpCl=  0 I1Cent=           0 NGrid=           0
         NMat0=   20 NMatS0=     20 NMatT0=    0 NMatD0=   20 NMtDS0=    0 NMtDT0=    0
 Symmetry not used in FoFCou.
 FMM levels:  10  Number of levels for PrismC:   9
 New state      1 was old state      7
 New state      2 was old state      1
 New state      3 was old state      6
 New state      4 was old state      2
 New state      5 was old state      3
 Excitation Energies [eV] at current iteration:
 Root      1 :     2.611437652076424
 Root      2 :     2.617257398618385
 Root      3 :     2.620588669819878
 Root      4 :     2.664401835904946
 Root      5 :     2.705968317773470
 Root      6 :     2.741702134880136
 Root      7 :     3.421339545602231
 Root      8 :     3.542229340878113
 Root      9 :     3.629066084579119
 Root     10 :     3.668905453295037
 Root     11 :     3.736630259446850
 Root     12 :     3.760890247955829
 Root     13 :     4.283763553506224
 Root     14 :     4.326529979249274
 Root     15 :     4.524288851305053
 Root     16 :     4.667232213709014
 Root     17 :     4.724050710205499
 Root     18 :     4.944358532668414
 Root     19 :     4.973531649496915
 Root     20 :     4.989986394462164
 Iteration     2 Dimension    30 NMult    20 NNew     10
 CISAX will form    10 AO SS matrices at one time.
 NMat=    10 NSing=    10 JSym2X= 0.
 New state      1 was old state      4
 Root      1 not converged, maximum delta is    0.147898977093362
 New state      2 was old state      5
 Root      2 not converged, maximum delta is    0.153646700661172
 New state      3 was old state      1
 Root      3 not converged, maximum delta is    0.324392465607658
 New state      4 was old state      3
 Root      4 not converged, maximum delta is    0.313028744891872
 New state      5 was old state      2
 Root      5 not converged, maximum delta is    0.008573488693484
 Excitation Energies [eV] at current iteration:
 Root      1 :     1.791478184342039   Change is   -0.872923651562908
 Root      2 :     1.815221559201348   Change is   -0.890746758572122
 Root      3 :     2.233590083909070   Change is   -0.377847568167354
 Root      4 :     2.240530113454983   Change is   -0.380058556364895
 Root      5 :     2.616132348102037   Change is   -0.001125050516348
 Iteration     3 Dimension    40 NMult    30 NNew     10
 CISAX will form    10 AO SS matrices at one time.
 NMat=    10 NSing=    10 JSym2X= 0.
 Root      1 not converged, maximum delta is    0.054535393286793
 Root      2 not converged, maximum delta is    0.055633895710491
 Root      3 not converged, maximum delta is    0.102367610555762
 Root      4 not converged, maximum delta is    0.101815724857571
 Root      5 has converged.
 Excitation Energies [eV] at current iteration:
 Root      1 :     1.685096015291300   Change is   -0.106382169050739
 Root      2 :     1.706267624070296   Change is   -0.108953935131052
 Root      3 :     2.192701666253298   Change is   -0.040888417655772
 Root      4 :     2.201314051157772   Change is   -0.039216062297211
 Root      5 :     2.616129200409449   Change is   -0.000003147692587
 Iteration     4 Dimension    48 NMult    40 NNew      8
 CISAX will form     8 AO SS matrices at one time.
 NMat=     8 NSing=     8 JSym2X= 0.
 Root      1 not converged, maximum delta is    0.010529959176143
 Root      2 not converged, maximum delta is    0.010290214014411
 Root      3 not converged, maximum delta is    0.015331584219352
 Root      4 not converged, maximum delta is    0.015162800705335
 Root      5 has converged.
 Excitation Energies [eV] at current iteration:
 Root      1 :     1.668358103552098   Change is   -0.016737911739201
 Root      2 :     1.689411345098445   Change is   -0.016856278971851
 Root      3 :     2.185481816163052   Change is   -0.007219850090246
 Root      4 :     2.194486925602453   Change is   -0.006827125555319
 Root      5 :     2.616129196200230   Change is   -0.000000004209219
 Iteration     5 Dimension    56 NMult    48 NNew      8
 CISAX will form     8 AO SS matrices at one time.
 NMat=     8 NSing=     8 JSym2X= 0.
 Root      1 not converged, maximum delta is    0.001698820116333
 Root      2 not converged, maximum delta is    0.001545998052161
 Root      3 not converged, maximum delta is    0.002408053650230
 Root      4 not converged, maximum delta is    0.002249086299389
 Root      5 has converged.
 Excitation Energies [eV] at current iteration:
 Root      1 :     1.666598920705147   Change is   -0.001759182846952
 Root      2 :     1.687616186587396   Change is   -0.001795158511049
 Root      3 :     2.184642031638246   Change is   -0.000839784524806
 Root      4 :     2.193711237667154   Change is   -0.000775687935299
 Root      5 :     2.616129195011611   Change is   -0.000000001188619
 Iteration     6 Dimension    64 NMult    56 NNew      8
 CISAX will form     8 AO SS matrices at one time.
 NMat=     8 NSing=     8 JSym2X= 0.
 Root      1 not converged, maximum delta is    0.001063098092775
 Root      2 not converged, maximum delta is    0.001065019902780
 Root      3 not converged, maximum delta is    0.001013199187059
 Root      4 has converged.
 Root      5 has converged.
 Excitation Energies [eV] at current iteration:
 Root      1 :     1.666349970646185   Change is   -0.000248950058962
 Root      2 :     1.687357496733136   Change is   -0.000258689854260
 Root      3 :     2.184515191812244   Change is   -0.000126839826002
 Root      4 :     2.193592279118907   Change is   -0.000118958548247
 Root      5 :     2.616129193502537   Change is   -0.000000001509074
 Iteration     7 Dimension    70 NMult    64 NNew      6
 CISAX will form     6 AO SS matrices at one time.
 NMat=     6 NSing=     6 JSym2X= 0.
 Root      1 has converged.
 Root      2 has converged.
 Root      3 has converged.
 Root      4 has converged.
 Root      5 has converged.
 Excitation Energies [eV] at current iteration:
 Root      1 :     1.666325637713608   Change is   -0.000024332932577
[...]
 Alpha virt. eigenvalues --    1.84362   1.84568   1.84708   1.84849   1.85023
 Alpha virt. eigenvalues --    1.85166   1.85180   1.85382   1.85389   1.85537
 Alpha virt. eigenvalues --    1.85775   1.85953   1.86275   1.86430   1.86468
 Alpha virt. eigenvalues --    1.86698   1.86700   1.86867   1.86953   1.87082
 Alpha virt. eigenvalues --    1.87348   1.87532   1.87578   1.87778   1.87814
 Alpha virt. eigenvalues --    1.87946   1.88062   1.88227   1.88434   1.88629
 Alpha virt. eigenvalues --    1.88711   1.89010   1.89056   1.89127   1.89532
 Alpha virt. eigenvalues --    1.89648   1.89708   1.89917   1.90019   1.90241
 Alpha virt. eigenvalues --    1.90653   1.90949   1.91245   1.91363   1.91473
 Alpha virt. eigenvalues --    1.91665   1.92056   1.92242   1.92494   1.92707
 Alpha virt. eigenvalues --    1.92892   1.93203   1.93263   1.93549   1.94204
 Alpha virt. eigenvalues --    1.94349   1.94603   1.94860   1.95415   1.95620
 Alpha virt. eigenvalues --    1.95638   1.95864   1.95880   1.96078   1.96101
 Alpha virt. eigenvalues --    1.96222   1.96508   1.96531   1.96797   1.96989
 Alpha virt. eigenvalues --    1.97363   1.97582   1.97753   1.97850   1.98060
 Alpha virt. eigenvalues --    1.98225   1.98395   1.98551   1.99030   1.99127
 Alpha virt. eigenvalues --    1.99699   1.99988   2.00572   2.00775   2.00885
 Alpha virt. eigenvalues --    2.01145   2.01343   2.01551   2.01595   2.01606
 Alpha virt. eigenvalues --    2.01650   2.01873   2.02681   2.02757   2.03156
 Alpha virt. eigenvalues --    2.03187   2.03293   2.03364   2.03427   2.03567
 Alpha virt. eigenvalues --    2.03935   2.04073   2.04862   2.05022   2.05420
 Alpha virt. eigenvalues --    2.05672   2.05982   2.06326   2.06780   2.07078
 Alpha virt. eigenvalues --    2.07090   2.07396   2.08503   2.08587   2.08871
 Alpha virt. eigenvalues --    2.09052   2.09469   2.09657   2.10720   2.11076
 Alpha virt. eigenvalues --    2.11082   2.11407   2.11454   2.11576   2.11619
 Alpha virt. eigenvalues --    2.11919   2.12352   2.12515   2.12706   2.12738
 Alpha virt. eigenvalues --    2.12850   2.12925   2.13624   2.13694   2.14073
 Alpha virt. eigenvalues --    2.14301   2.15237   2.15450   2.15820   2.16143
 Alpha virt. eigenvalues --    2.16439   2.16645   2.16654   2.17221   2.17322
 Alpha virt. eigenvalues --    2.17616   2.17693   2.17997   2.17999   2.18046
 Alpha virt. eigenvalues --    2.18207   2.18718   2.18744   2.19288   2.19528
 Alpha virt. eigenvalues --    2.19868   2.19918   2.20112   2.20289   2.20485
 Alpha virt. eigenvalues --    2.21091   2.21211   2.21572   2.21634   2.21808
 Alpha virt. eigenvalues --    2.21915   2.22582   2.22756   2.23232   2.23386
 Alpha virt. eigenvalues --    2.24303   2.24457   2.24904   2.25041   2.26179
 Alpha virt. eigenvalues --    2.26490   2.26688   2.26987   2.27054   2.27250
 Alpha virt. eigenvalues --    2.28027   2.28379   2.29170   2.29492   2.29618
 Alpha virt. eigenvalues --    2.29933   2.30331   2.30671   2.30865   2.30971
 Alpha virt. eigenvalues --    2.31066   2.31246   2.32036   2.32284   2.33018
 Alpha virt. eigenvalues --    2.33284   2.33360   2.33525   2.34058   2.34185
 Alpha virt. eigenvalues --    2.35248   2.35338   2.35678   2.35965   2.36286
 Alpha virt. eigenvalues --    2.36377   2.36485   2.36515   2.37587   2.37717
 Alpha virt. eigenvalues --    2.38169   2.38419   2.38720   2.38831   2.39502
 Alpha virt. eigenvalues --    2.39711   2.40098   2.40303   2.40362   2.40874
 Alpha virt. eigenvalues --    2.41136   2.41253   2.41608   2.41727   2.41917
 Alpha virt. eigenvalues --    2.42168   2.42854   2.42874   2.43088   2.43394
 Alpha virt. eigenvalues --    2.44014   2.44054   2.44621   2.44796   2.44844
 Alpha virt. eigenvalues --    2.45038   2.45454   2.45611   2.46202   2.46325
 Alpha virt. eigenvalues --    2.46371   2.46531   2.46684   2.46839   2.47165
 Alpha virt. eigenvalues --    2.47413   2.47617   2.47924   2.49228   2.49423
 Alpha virt. eigenvalues --    2.49922   2.49994   2.50473   2.50485   2.50995
 Alpha virt. eigenvalues --    2.51309   2.51642   2.51763   2.52307   2.52425
 Alpha virt. eigenvalues --    2.52695   2.53214   2.53824   2.54006   2.54059
 Alpha virt. eigenvalues --    2.54310   2.54697   2.54841   2.55423   2.55702
 Alpha virt. eigenvalues --    2.57760   2.58116   2.58554   2.58947   2.60079
 Alpha virt. eigenvalues --    2.60337   2.60484   2.60967   2.61611   2.61858
 Alpha virt. eigenvalues --    2.62413   2.62460   2.62850   2.63161   2.63818
 Alpha virt. eigenvalues --    2.64184   2.64266   2.64453   2.64981   2.65132
 Alpha virt. eigenvalues --    2.65655   2.65895   2.66696   2.66807   2.66847
 Alpha virt. eigenvalues --    2.67105   2.67816   2.68018   2.68746   2.68845
 Alpha virt. eigenvalues --    2.68905   2.69059   2.69307   2.69628   2.69898
 Alpha virt. eigenvalues --    2.70168   2.70878   2.71104   2.71916   2.71942
 Alpha virt. eigenvalues --    2.72513   2.72536   2.72692   2.72767   2.73206
 Alpha virt. eigenvalues --    2.73309   2.73391   2.73483   2.74408   2.74533
 Alpha virt. eigenvalues --    2.74863   2.75082   2.76503   2.76548   2.77092
 Alpha virt. eigenvalues --    2.77118   2.77350   2.77633   2.78097   2.78318
 Alpha virt. eigenvalues --    2.78614   2.78712   2.79028   2.79182   2.80236
 Alpha virt. eigenvalues --    2.80277   2.80455   2.80707   2.81007   2.81172
 Alpha virt. eigenvalues --    2.81817   2.82010   2.82248   2.82361   2.83635
 Alpha virt. eigenvalues --    2.83660   2.83862   2.83923   2.84449   2.84546
 Alpha virt. eigenvalues --    2.84801   2.84906   2.85570   2.85705   2.86671
 Alpha virt. eigenvalues --    2.86896   2.87184   2.87476   2.88050   2.88251
 Alpha virt. eigenvalues --    2.88414   2.88638   2.88836   2.88889   2.90384
 Alpha virt. eigenvalues --    2.90683   2.91090   2.91114   2.93034   2.93350
 Alpha virt. eigenvalues --    2.93791   2.94095   2.94477   2.94586   2.95229
 Alpha virt. eigenvalues --    2.95503   2.95847   2.96069   2.96355   2.96386
 Alpha virt. eigenvalues --    2.96881   2.97045   2.97676   2.98038   2.98089
 Alpha virt. eigenvalues --    2.98276   2.98379   2.98499   2.98601   2.98788
 Alpha virt. eigenvalues --    2.98804   2.98939   2.99505   2.99801   2.99901
 Alpha virt. eigenvalues --    3.00029   3.00104   3.00340   3.00341   3.01025
 Alpha virt. eigenvalues --    3.01913   3.01926   3.01926   3.02143   3.02597
 Alpha virt. eigenvalues --    3.02825   3.02855   3.03226   3.03343   3.03754
 Alpha virt. eigenvalues --    3.04079   3.04096   3.04354   3.04442   3.04469
 Alpha virt. eigenvalues --    3.04741   3.05223   3.05363   3.06009   3.06183
 Alpha virt. eigenvalues --    3.06670   3.06967   3.07931   3.08054   3.09264
 Alpha virt. eigenvalues --    3.09368   3.09574   3.10322   3.10447   3.10769
 Alpha virt. eigenvalues --    3.11270   3.11494   3.11806   3.11903   3.12136
 Alpha virt. eigenvalues --    3.12328   3.13150   3.13561   3.13667   3.13700
 Alpha virt. eigenvalues --    3.13954   3.14481   3.15871   3.15990   3.17162
 Alpha virt. eigenvalues --    3.17536   3.17889   3.17995   3.19034   3.19045
 Alpha virt. eigenvalues --    3.22166   3.22604   3.23839   3.24455   3.24561
 Alpha virt. eigenvalues --    3.25205   3.26400   3.26675   3.27414   3.27514
 Alpha virt. eigenvalues --    3.28958   3.29226   3.31397   3.31418   3.33206
 Alpha virt. eigenvalues --    3.33315   3.40259   3.40481   3.42721   3.42832
 Alpha virt. eigenvalues --    3.48553   3.48714   3.49916   3.50304   3.50859
 Alpha virt. eigenvalues --    3.51370   3.56453   3.57024   3.59009   3.59359
 Alpha virt. eigenvalues --    3.62532   3.62732   3.66102   3.66126   3.67043
 Alpha virt. eigenvalues --    3.67545   3.73137   3.74027   3.75931   3.76687
          Condensed to atoms (all electrons):
 Mulliken charges:
               1
     1  Mg   0.838029
     2  C   -0.003371
     3  C   -0.094812
     4  C   -0.045434
     5  C   -0.063623
     6  N   -0.256788
     7  C   -0.052730
     8  C   -0.013879
     9  C   -0.086871
    10  C    0.046024
    11  C    0.104751
    12  C    0.053673
    13  C   -0.071494
    14  H    0.035026
    15  N   -0.433154
    16  C    0.168075
    17  C   -0.177706
    18  C   -0.004130
    19  C    0.148559
    20  C    0.110259
    21  C    0.012189
    22  O   -0.248671
    23  C    0.062721
    24  N   -0.341136
    25  C    0.041218
    26  C   -0.028311
    27  C   -0.024087
    28  C    0.074990
    29  C    0.076042
    30  C    0.034966
    31  C   -0.004537
    32  N   -0.310503
    33  C    0.080458
    34  C   -0.169475
    35  C    0.008412
    36  C    0.082918
    37  C    0.127286
    38  C    0.046116
    39  O   -0.188219
    40  C   -0.005347
    41  C    0.213016
    42  O   -0.257841
    43  O   -0.304548
    44  C    0.157735
    45  H   -0.017595
    46  H   -0.016233
    47  H   -0.041054
    48  H    0.001175
    49  H   -0.004435
    50  H    0.025658
    51  H    0.016740
    52  H    0.016777
    53  H    0.010200
    54  H    0.043490
    55  H    0.018568
    56  H    0.017723
    57  H    0.005723
    58  H    0.027268
    59  H    0.038478
    60  H    0.037501
    61  H    0.036357
    62  H    0.030128
    63  H    0.017277
    64  H    0.009634
    65  H    0.023698
    66  H    0.012443
    67  H    0.004916
    68  H    0.006859
    69  H    0.004704
    70  H    0.009735
    71  H    0.018583
    72  H    0.028379
    73  H    0.047693
    74  H    0.009437
    75  H    0.046249
    76  H    0.035390
    77  H    0.043413
    78  H    0.046146
    79  H    0.053178
    80  Mg   0.838087
    81  C   -0.016862
    82  C   -0.087574
    83  C   -0.045373
    84  C   -0.064800
    85  N   -0.254616
    86  C   -0.049583
    87  C   -0.015128
    88  C   -0.090524
    89  C    0.045780
    90  C    0.114182
    91  C    0.062599
    92  C   -0.077620
    93  H    0.034317
    94  N   -0.423564
    95  C    0.162955
    96  C   -0.174253
    97  C   -0.007849
    98  C    0.152258
    99  C    0.099341
   100  C    0.015757
   101  O   -0.252927
   102  C    0.061241
   103  N   -0.349947
   104  C    0.037610
   105  C   -0.019864
   106  C   -0.034775
   107  C    0.088899
   108  C    0.073591
   109  C    0.034778
   110  C   -0.007628
   111  N   -0.324113
   112  C    0.078471
   113  C   -0.163176
   114  C    0.002301
   115  C    0.096184
   116  C    0.131482
   117  C    0.042338
   118  O   -0.188070
   119  C    0.000941
   120  C    0.211188
   121  O   -0.251233
   122  O   -0.305485
   123  C    0.152132
   124  H   -0.019058
   125  H   -0.015565
   126  H   -0.040622
   127  H   -0.000503
   128  H   -0.004899
   129  H    0.022680
   130  H    0.015847
   131  H    0.017027
   132  H    0.013604
   133  H    0.037486
   134  H    0.020982
   135  H    0.019231
   136  H    0.008681
   137  H    0.026157
   138  H    0.038844
   139  H    0.038015
   140  H    0.036529
   141  H    0.033252
   142  H    0.014211
   143  H    0.012447
   144  H    0.024867
   145  H    0.012158
   146  H    0.005602
   147  H    0.006075
   148  H    0.003540
   149  H    0.010848
   150  H    0.017699
   151  H    0.030153
   152  H    0.045775
   153  H    0.008337
   154  H    0.047148
   155  H    0.035401
   156  H    0.043815
   157  H    0.049391
   158  H    0.053376
 Sum of Mulliken charges =  -0.00000
 Mulliken charges with hydrogens summed into heavy atoms:
               1
     1  Mg   0.838029
     2  C   -0.003371
     3  C   -0.112407
     4  C   -0.061667
     5  C   -0.104676
     6  N   -0.256788
     7  C   -0.052730
     8  C   -0.012704
     9  C   -0.091306
    10  C    0.046024
    11  C    0.163925
    12  C    0.107363
    13  C   -0.000177
    15  N   -0.433154
    16  C    0.168075
    17  C   -0.177706
    18  C   -0.004130
    19  C    0.148559
    20  C    0.181728
    21  C    0.012189
    22  O   -0.248671
    23  C    0.166707
    24  N   -0.341136
    25  C    0.041218
    26  C   -0.011034
    27  C   -0.014453
    28  C    0.074990
    29  C    0.117100
    30  C    0.046529
    31  C    0.052160
    32  N   -0.310503
    33  C    0.080458
    34  C   -0.169475
    35  C    0.008412
    36  C    0.082918
    37  C    0.230665
    38  C    0.046116
    39  O   -0.188219
    40  C    0.030042
    41  C    0.213016
    42  O   -0.257841
    43  O   -0.304548
    44  C    0.300473
    80  Mg   0.838087
    81  C   -0.016862
    82  C   -0.106632
    83  C   -0.060938
    84  C   -0.105421
    85  N   -0.254616
    86  C   -0.049583
    87  C   -0.015631
    88  C   -0.095422
    89  C    0.045780
    90  C    0.169736
    91  C    0.113689
    92  C   -0.003091
    94  N   -0.423564
    95  C    0.162955
    96  C   -0.174253
    97  C   -0.007849
    98  C    0.152258
    99  C    0.173023
   100  C    0.015757
   101  O   -0.252927
   102  C    0.169038
   103  N   -0.349947
   104  C    0.037610
   105  C   -0.005653
   106  C   -0.022329
   107  C    0.088899
   108  C    0.116218
   109  C    0.044393
   110  C    0.051072
   111  N   -0.324113
   112  C    0.078471
   113  C   -0.163176
   114  C    0.002301
   115  C    0.096184
   116  C    0.232743
   117  C    0.042338
   118  O   -0.188070
   119  C    0.036342
   120  C    0.211188
   121  O   -0.251233
   122  O   -0.305485
   123  C    0.298715
 Electronic spatial extent (au):  <R**2>=         155001.1952
 Charge=             -0.0000 electrons
 Dipole moment (field-independent basis, Debye):
    X=              6.3289    Y=              0.9834    Z=              5.3811  Tot=              8.3654
 Quadrupole moment (field-independent basis, Debye-Ang):
   XX=           -553.4393   YY=           -508.7058   ZZ=           -482.4777
   XY=             16.7265   XZ=             20.6176   YZ=             58.6758
 Traceless Quadrupole moment (field-independent basis, Debye-Ang):
   XX=            -38.5650   YY=              6.1684   ZZ=             32.3966
   XY=             16.7265   XZ=             20.6176   YZ=             58.6758
 Octapole moment (field-independent basis, Debye-Ang**2):
  XXX=           1160.1854  YYY=            396.7317  ZZZ=            156.1835  XYY=           -208.1948
  XXY=           -155.1509  XXZ=            216.8562  XZZ=             68.6723  YZZ=           -160.8629
  YYZ=             -6.3808  XYZ=             29.7945
 Hexadecapole moment (field-independent basis, Debye-Ang**3):
 XXXX=        -163444.1062 YYYY=         -37306.0168 ZZZZ=         -19512.3728 XXXY=           2956.0543
 XXXZ=            -35.5856 YYYX=             53.5997 YYYZ=           1306.4449 ZZZX=            838.3657
 ZZZY=            103.7344 XXYY=         -30543.1284 XXZZ=         -27812.7735 YYZZ=         -10009.7226
 XXYZ=           3415.0550 YYXZ=           -117.2510 ZZXY=           -613.5127
 N-N= 1.427994688530D+04 E-N=-3.804059449597D+04  KE= 4.028802185361D+03
 Leave Link  601 at Sat Sep 11 16:01:16 2021, MaxMem= 23488102400 cpu:              16.2 elap:               0.8
 (Enter /sw/apps/gaussian-16.0/g16/l9999.exe)
 1\1\GINC-BP1-COMPUTE00084\SP\RCAM-B3LYP TD-FC\def2SVP\C68H72Mg2N8O8\OF
 15641\11-Sep-2021\0\\#p cam-b3lyp/Def2SVP td=(nstates=5)\\TDDFT excite
 d states in gaussian\\0,1\Mg,0,0.,0.,0.\C,0,-0.217,-2.218,2.801\C,0,-1
 .255,2.442,2.026\C,0,-0.245,1.85,-2.564\C,0,0.146,-2.824,-2.037\N,0,-0
 .617,-0.009,2.126\C,0,-0.594,-0.908,3.105\C,0,-0.936,-0.309,4.502\C,0,
 -1.773,0.964,4.032\C,0,-1.155,1.168,2.66\C,0,-3.263,0.685,3.863\C,0,0.
 345,0.11,5.299\C,0,0.124,0.397,6.787\H,0,1.168,0.033,7.733\N,0,-0.185,
 1.961,-0.152\C,0,-0.703,2.8,0.777\C,0,-0.62,4.156,0.193\C,0,-0.187,4.0
 15,-1.225\C,0,-0.214,2.583,-1.38\C,0,-0.887,5.406,0.974\C,0,0.181,5.01
 3,-2.277\O,0,0.303,4.69,-3.508\C,0,0.31,6.414,-1.837\N,0,-0.265,-0.413
 ,-2.029\C,0,-0.279,0.569,-2.937\C,0,-0.196,0.024,-4.332\C,0,0.124,-1.5
 33,-4.18\C,0,0.086,-1.632,-2.635\C,0,-1.451,0.205,-5.197\C,0,1.373,-2.
 07,-4.923\C,0,2.626,-1.49,-4.306\N,0,0.15,-2.144,0.303\C,0,0.173,-3.13
 6,-0.688\C,0,0.173,-4.438,0.004\C,0,0.133,-4.111,1.358\C,0,0.083,-2.69
 5,1.502\C,0,0.149,-5.715,-0.623\C,0,0.096,-4.629,2.716\O,0,0.208,-5.74
 7,3.221\C,0,-0.255,-3.428,3.701\C,0,0.717,-3.482,4.848\O,0,1.931,-3.25
 5,4.669\O,0,0.038,-3.556,6.003\C,0,0.943,-3.583,7.183\H,0,-1.859,3.22,
 2.497\H,0,-0.218,2.453,-3.474\H,0,0.276,-3.747,-2.605\H,0,-1.554,-0.94
 9,5.132\H,0,-1.585,1.831,4.665\H,0,-3.484,-0.377,3.969\H,0,-3.511,1.02
 7,2.858\H,0,-3.852,1.301,4.543\H,0,0.669,1.096,4.966\H,0,1.13,-0.639,5
 .189\H,0,-0.844,0.026,7.125\H,0,0.062,1.477,6.921\H,0,-1.344,5.186,1.9
 38\H,0,-1.651,5.963,0.432\H,0,0.007,6.02,1.084\H,0,-0.635,6.744,-1.405
 \H,0,0.665,6.97,-2.704\H,0,1.048,6.466,-1.036\H,0,0.608,0.501,-4.891\H
 ,0,-0.692,-2.156,-4.547\H,0,-1.267,0.74,-6.129\H,0,-2.204,0.714,-4.596
 \H,0,-1.967,-0.72,-5.453\H,0,1.356,-1.759,-5.967\H,0,1.452,-3.157,-4.9
 02\H,0,2.714,-0.522,-4.798\H,0,3.487,-2.121,-4.529\H,0,2.495,-1.303,-3
 .24\H,0,0.867,-6.333,-0.084\H,0,0.404,-5.642,-1.68\H,0,-0.891,-5.999,-
 0.463\H,0,-1.283,-3.581,4.028\H,0,0.698,-4.478,7.755\H,0,0.833,-2.619,
 7.68\H,0,2.,-3.754,6.976\Mg,0,13.13959,1.19142,1.00419\C,0,14.73815,-0
 .22395,3.8887\C,0,10.588,2.13015,3.06399\C,0,11.50306,2.04592,-1.57632
 \C,0,15.20648,-0.81752,-0.95485\N,0,12.81981,0.93052,3.17719\C,0,13.52
 404,0.43138,4.18181\C,0,12.93087,0.71708,5.58755\C,0,11.39767,0.93413,
 5.16202\C,0,11.60685,1.39505,3.72102\C,0,10.59133,-0.35375,5.13925\C,0
 ,13.53463,2.01031,6.23951\C,0,13.23352,2.1796,7.73029\H,0,14.25462,2.7
 8248,8.58254\N,0,11.56775,2.38865,0.81839\C,0,10.64692,2.67507,1.76248
 \C,0,9.68551,3.5868,1.12326\C,0,10.02227,3.68479,-0.32301\C,0,11.05389
 ,2.67192,-0.42267\C,0,8.6287,4.32478,1.89266\C,0,9.49328,4.53869,-1.43
 532\O,0,9.76512,4.28982,-2.66292\C,0,8.57224,5.6185,-1.05168\N,0,13.17
 554,0.53722,-0.9689\C,0,12.39822,1.1134,-1.90255\C,0,12.79252,0.66878,
 -3.2908\C,0,14.15876,-0.14261,-3.11021\C,0,14.27618,-0.10105,-1.57077\
 C,0,11.77489,-0.20525,-4.02352\C,0,15.3733,0.32685,-3.95708\C,0,15.827
 59,1.69268,-3.49503\N,0,14.81763,-0.12333,1.35588\C,0,15.51899,-0.8864
 5,0.39681\C,0,16.50205,-1.71009,1.13005\C,0,16.287,-1.38346,2.47747\C,
 0,15.22992,-0.43907,2.5785\C,0,17.39967,-2.64901,0.54796\C,0,16.7067,-
 1.6308,3.83812\O,0,17.61719,-2.26988,4.36378\C,0,15.63762,-0.98604,4.8
 2186\C,0,16.38232,-0.2057,5.8702\O,0,17.04033,0.80267,5.55905\O,0,16.0
 2041,-0.64761,7.08844\C,0,16.72428,0.10343,8.1619\H,0,9.63544,2.26838,
 3.57623\H,0,11.04531,2.38828,-2.5073\H,0,15.95403,-1.39676,-1.50105\H,
 0,13.00924,-0.10466,6.28924\H,0,10.93207,1.72068,5.75016\H,0,11.21372,
 -1.22165,5.29901\H,0,10.1293,-0.3943,4.16153\H,0,9.76953,-0.29674,5.85
 88\H,0,13.01202,2.88952,5.84124\H,0,14.59373,2.06013,6.07684\H,0,12.85
 31,1.25515,8.18154\H,0,12.41022,2.88971,7.83956\H,0,8.51795,3.92546,2.
 90837\H,0,7.67029,4.10685,1.40913\H,0,8.78614,5.40547,1.89414\H,0,7.71
 279,5.19454,-0.5378\H,0,8.37304,6.17301,-1.97076\H,0,9.07879,6.2712,-0
 .33195\H,0,12.9727,1.52177,-3.93348\H,0,14.0441,-1.20063,-3.38818\H,0,
 11.46127,0.21376,-4.99828\H,0,10.91875,-0.34703,-3.37741\H,0,12.0951,-
 1.22879,-4.21069\H,0,15.08506,0.43394,-5.0057\H,0,16.21433,-0.3576,-3.
 92256\H,0,15.1503,2.36999,-4.02383\H,0,16.86308,1.86849,-3.77947\H,0,1
 5.65207,1.8233,-2.42089\H,0,18.35767,-2.50346,1.02915\H,0,17.47078,-2.
 51577,-0.52952\H,0,16.90189,-3.58539,0.81381\H,0,15.05659,-1.80153,5.2
 5422\H,0,17.23663,-0.63559,8.78563\H,0,15.94927,0.7239,8.64987\H,0,17.
 54977,0.74141,7.86865\\Version=ES64L-G16RevA.03\State=1-A\HF=-4069.811
 7081\RMSD=5.012e-09\PG=C01 [X(C68H72Mg2N8O8)]\\@


 GETTING A SIMPLE ANSWER FROM A PROFESSOR IS LIKE
 GETTING A THIMBLE OF WATER FROM A FIRE HYDRANT.
     -- PROF. LEN SHAPIRO, NDSU
 Job cpu time:       0 days 12 hours  0 minutes 18.2 seconds.
 Elapsed time:       0 days  0 hours 30 minutes 37.7 seconds.
 File lengths (MBytes):  RWF=  13225 Int=      0 D2E=      0 Chk=    574 Scr=      1
 Normal termination of Gaussian 16 at Sat Sep 11 16:01:17 2021.
