 Entering Gaussian System, Link 0=g16
 Initial command:
 /sw/apps/gaussian-16.0/g16/l1.exe "/tmp/Gau-57978.inp" -scrdir="/tmp/"
 Entering Link 1 = /sw/apps/gaussian-16.0/g16/l1.exe PID=     57979.
  
 Copyright (c) 1988,1990,1992,1993,1995,1998,2003,2009,2016,
            Gaussian, Inc.  All Rights Reserved.
  
 This is part of the Gaussian(R) 16 program.  It is based on
 the Gaussian(R) 09 system (copyright 2009, Gaussian, Inc.),
 the Gaussian(R) 03 system (copyright 2003, Gaussian, Inc.),
 the Gaussian(R) 98 system (copyright 1998, Gaussian, Inc.),
 the Gaussian(R) 94 system (copyright 1995, Gaussian, Inc.),
 the Gaussian 92(TM) system (copyright 1992, Gaussian, Inc.),
 the Gaussian 90(TM) system (copyright 1990, Gaussian, Inc.),
 the Gaussian 88(TM) system (copyright 1988, Gaussian, Inc.),
 the Gaussian 86(TM) system (copyright 1986, Carnegie Mellon
 University), and the Gaussian 82(TM) system (copyright 1983,
 Carnegie Mellon University). Gaussian is a federally registered
 trademark of Gaussian, Inc.
  
 This software contains proprietary and confidential information,
 including trade secrets, belonging to Gaussian, Inc.
  
 This software is provided under written license and may be
 used, copied, transmitted, or stored only in accord with that
 written license.
  
 The following legend is applicable only to US Government
 contracts under FAR:
  
                    RESTRICTED RIGHTS LEGEND
  
 Use, reproduction and disclosure by the US Government is
 subject to restrictions as set forth in subparagraphs (a)
 and (c) of the Commercial Computer Software - Restricted
 Rights clause in FAR 52.227-19.
  
 Gaussian, Inc.
 340 Quinnipiac St., Bldg. 40, Wallingford CT 06492
  
  
 ---------------------------------------------------------------
 Warning -- This program may not be used in any manner that
 competes with the business of Gaussian, Inc. or will provide
 assistance to any competitor of Gaussian, Inc.  The licensee
 of this program is prohibited from giving any competitor of
 Gaussian, Inc. access to this program.  By using this program,
 the user acknowledges that Gaussian, Inc. is engaged in the
 business of creating and licensing software in the field of
 computational chemistry and represents and warrants to the
 licensee that it is not a competitor of Gaussian, Inc. and that
 it will not use this program in any manner prohibited above.
 ---------------------------------------------------------------
  

 Cite this work as:
 Gaussian 16, Revision A.03,
 M. J. Frisch, G. W. Trucks, H. B. Schlegel, G. E. Scuseria, 
 M. A. Robb, J. R. Cheeseman, G. Scalmani, V. Barone, 
 G. A. Petersson, H. Nakatsuji, X. Li, M. Caricato, A. V. Marenich, 
 J. Bloino, B. G. Janesko, R. Gomperts, B. Mennucci, H. P. Hratchian, 
 J. V. Ortiz, A. F. Izmaylov, J. L. Sonnenberg, D. Williams-Young, 
 F. Ding, F. Lipparini, F. Egidi, J. Goings, B. Peng, A. Petrone, 
 T. Henderson, D. Ranasinghe, V. G. Zakrzewski, J. Gao, N. Rega, 
 G. Zheng, W. Liang, M. Hada, M. Ehara, K. Toyota, R. Fukuda, 
 J. Hasegawa, M. Ishida, T. Nakajima, Y. Honda, O. Kitao, H. Nakai, 
 T. Vreven, K. Throssell, J. A. Montgomery, Jr., J. E. Peralta, 
 F. Ogliaro, M. J. Bearpark, J. J. Heyd, E. N. Brothers, K. N. Kudin, 
 V. N. Staroverov, T. A. Keith, R. Kobayashi, J. Normand, 
 K. Raghavachari, A. P. Rendell, J. C. Burant, S. S. Iyengar, 
 J. Tomasi, M. Cossi, J. M. Millam, M. Klene, C. Adamo, R. Cammi, 
 J. W. Ochterski, R. L. Martin, K. Morokuma, O. Farkas, 
 J. B. Foresman, and D. J. Fox, Gaussian, Inc., Wallingford CT, 2016.
 
 ******************************************
 Gaussian 16:  ES64L-G16RevA.03 25-Dec-2016
                 9-Sep-2021 
 ******************************************
 %nproc=24
 Will use up to   24 processors via shared memory.
 %mem=175gb
 -----------------------------------
 #p cam-b3lyp/Def2SVP td=(nstates=5)
 -----------------------------------
 1/38=1,172=1/1;
 2/12=2,17=6,18=5,40=1/2;
 3/5=43,7=101,11=9,25=1,30=1,74=-40/1,2,3,8;
 4//1;
 5/5=2,38=5/2;
 8/6=1,10=1,108=5/1;
 9/41=5,42=1,70=2/14;
 6/7=2,8=2,9=2,10=2/1;
 99/5=1,9=1/99;
 Leave Link    1 at Thu Sep  9 05:14:40 2021, MaxMem= 23488102400 cpu:               0.9 elap:               0.0
 (Enter /sw/apps/gaussian-16.0/g16/l101.exe)
 --------------------------------
 TDDFT excited states in gaussian
 --------------------------------
 Symbolic Z-matrix:
 Charge =  0 Multiplicity = 1
 Mg                    0.        0.        0. 
 C                    -0.217    -2.218     2.801 
 C                    -1.255     2.442     2.026 
 C                    -0.245     1.85     -2.564 
 C                     0.146    -2.824    -2.037 
 N                    -0.617    -0.009     2.126 
 C                    -0.594    -0.908     3.105 
 C                    -0.936    -0.309     4.502 
 C                    -1.773     0.964     4.032 
 C                    -1.155     1.168     2.66 
 C                    -3.263     0.685     3.863 
 C                     0.345     0.11      5.299 
 C                     0.124     0.397     6.787 
 H                     1.168     0.033     7.733 
 N                    -0.185     1.961    -0.152 
 C                    -0.703     2.8       0.777 
 C                    -0.62      4.156     0.193 
 C                    -0.187     4.015    -1.225 
 C                    -0.214     2.583    -1.38 
 C                    -0.887     5.406     0.974 
 C                     0.181     5.013    -2.277 
 O                     0.303     4.69     -3.508 
 C                     0.31      6.414    -1.837 
 N                    -0.265    -0.413    -2.029 
 C                    -0.279     0.569    -2.937 
 C                    -0.196     0.024    -4.332 
 C                     0.124    -1.533    -4.18 
 C                     0.086    -1.632    -2.635 
 C                    -1.451     0.205    -5.197 
 C                     1.373    -2.07     -4.923 
 C                     2.626    -1.49     -4.306 
 N                     0.15     -2.144     0.303 
 C                     0.173    -3.136    -0.688 
 C                     0.173    -4.438     0.004 
 C                     0.133    -4.111     1.358 
 C                     0.083    -2.695     1.502 
 C                     0.149    -5.715    -0.623 
 C                     0.096    -4.629     2.716 
 O                     0.208    -5.747     3.221 
 C                    -0.255    -3.428     3.701 
 C                     0.717    -3.482     4.848 
 O                     1.931    -3.255     4.669 
 O                     0.038    -3.556     6.003 
 C                     0.943    -3.583     7.183 
 H                    -1.859     3.22      2.497 
 H                    -0.218     2.453    -3.474 
 H                     0.276    -3.747    -2.605 
 H                    -1.554    -0.949     5.132 
 H                    -1.585     1.831     4.665 
 H                    -3.484    -0.377     3.969 
 H                    -3.511     1.027     2.858 
 H                    -3.852     1.301     4.543 
 H                     0.669     1.096     4.966 
 H                     1.13     -0.639     5.189 
 H                    -0.844     0.026     7.125 
 H                     0.062     1.477     6.921 
 H                    -1.344     5.186     1.938 
 H                    -1.651     5.963     0.432 
 H                     0.007     6.02      1.084 
 H                    -0.635     6.744    -1.405 
 H                     0.665     6.97     -2.704 
 H                     1.048     6.466    -1.036 
 H                     0.608     0.501    -4.891 
 H                    -0.692    -2.156    -4.547 
 H                    -1.267     0.74     -6.129 
 H                    -2.204     0.714    -4.596 
 H                    -1.967    -0.72     -5.453 
 H                     1.356    -1.759    -5.967 
 H                     1.452    -3.157    -4.902 
 H                     2.714    -0.522    -4.798 
 H                     3.487    -2.121    -4.529 
 H                     2.495    -1.303    -3.24 
 H                     0.867    -6.333    -0.084 
 H                     0.404    -5.642    -1.68 
 H                    -0.891    -5.999    -0.463 
 H                    -1.283    -3.581     4.028 
 H                     0.698    -4.478     7.755 
 H                     0.833    -2.619     7.68 
 H                     2.       -3.754     6.976 
 Mg                    7.88503   0.7145    0.60809 
 C                     6.48322  -1.66151   2.90342 
 C                     5.65851   2.98866   1.83506 
 C                     8.78565   2.69427  -1.70207 
 C                     9.16842  -1.98411  -1.18526 
 N                     6.32375   0.56383   2.16757 
 C                     5.92368  -0.37164   3.01561 
 C                     4.92262   0.12324   4.09382 
 C                     4.32863   1.39075   3.30675 
 C                     5.51975   1.69608   2.40083 
 C                     3.13609   1.04928   2.42893 
 C                     5.63909   0.55548   5.42116 
 C                     4.70786   0.75554   6.61888 
 H                     5.19313   0.38939   7.94663 
 N                     7.66889   2.68051   0.44478 
 C                     6.72401   3.44659   1.02925 
 C                     6.98509   4.82205   0.57744 
 C                     8.05975   4.78185  -0.45126 
 C                     8.20173   3.35057  -0.62836 
 C                     6.30103   6.01797   1.17346 
 C                     8.8232    5.85432  -1.1676 
 O                     9.54495   5.59548  -2.19468 
 C                     8.62705   7.23027  -0.68825 
 N                     8.65709   0.40051  -1.29656 
 C                     9.0141    1.43551  -2.07709 
 C                     9.79493   0.96649  -3.28155 
 C                     10.09755  -0.5821   -3.02099 
 C                     9.32887  -0.77048  -1.6947 
 C                     9.09633   1.12815  -4.63143 
 C                     11.58381  -1.02903  -3.08383 
 C                     12.35386  -0.42384  -1.93224 
 N                     8.00963  -1.42368   0.89217 
 C                     8.56581  -2.37106   0.00492 
 C                     8.31358  -3.70775   0.58117 
 C                     7.60236  -3.44439   1.76155 
 C                     7.40634  -2.04372   1.90016 
 C                     8.68372  -4.95028  -0.0064 
 C                     6.9636   -4.03345   2.9164 
 O                     6.88388  -5.17055   3.37941 
 C                     6.10056  -2.91359   3.64267 
 C                     6.40128  -2.97749   5.11509 
 O                     7.53626  -2.69994   5.541 
 O                     5.25083  -3.14253   5.79302 
 C                     5.49608  -3.20067   7.25873 
 H                     4.8553    3.71029   1.98661 
 H                     9.21156   3.33943  -2.47398 
 H                     9.62209  -2.87031  -1.63415 
 H                     4.1276   -0.57395   4.32967 
 H                     4.13988   2.2217    3.98147 
 H                     2.95775  -0.01497   2.38774 
 H                     3.37604   1.43104   1.44519 
 H                     2.25321   1.60348   2.76018 
 H                     6.01946   1.5786    5.30595 
 H                     6.41508  -0.13885   5.67879 
 H                     3.71246   0.33001   6.44267 
 H                     4.5241    1.82579   6.74061 
 H                     5.44349   5.72441   1.7914 
 H                     5.85834   6.57963   0.34375 
 H                     6.98935   6.67069   1.71462 
 H                     7.57305   7.48923  -0.75524 
 H                     9.32288   7.84266  -1.26504 
 H                     8.89459   7.27235   0.37348 
 H                     10.73441   1.49899  -3.36471 
 H                     9.60341  -1.22455  -3.76457 
 H                     9.67823   1.73006  -5.35473 
 H                     8.12456   1.57249  -4.46181 
 H                     8.84001   0.19666  -5.13326 
 H                     12.05223  -0.6588   -3.99907 
 H                     11.71189  -2.10624  -3.06952 
 H                     12.60101   0.57676  -2.2994 
 H                     13.25251  -1.0019   -1.7265 
 H                     11.71333  -0.3027   -1.05094 
 H                     9.08786  -5.56257   0.78876 
 H                     9.40571  -4.81142  -0.8084 
 H                     7.71303  -5.28552  -0.38143 
 H                     5.05086  -3.11959   3.4299 
 H                     5.05948  -4.13736   7.61881 
 H                     5.08062  -2.26093   7.66865 
 H                     6.52226  -3.30397   7.59148 
 
 ITRead=  0  0  0  0  0  0  0  0  0  0  0  0  0  0  0  0  0  0  0  0
 ITRead=  0  0  0  0  0  0  0  0  0  0  0  0  0  0  0  0  0  0  0  0
 ITRead=  0  0  0  0  0  0  0  0  0  0  0  0  0  0  0  0  0  0  0  0
 ITRead=  0  0  0  0  0  0  0  0  0  0  0  0  0  0  0  0  0  0  0  0
 ITRead=  0  0  0  0  0  0  0  0  0  0  0  0  0  0  0  0  0  0  0  0
 ITRead=  0  0  0  0  0  0  0  0  0  0  0  0  0  0  0  0  0  0  0  0
 ITRead=  0  0  0  0  0  0  0  0  0  0  0  0  0  0  0  0  0  0  0  0
 ITRead=  0  0  0  0  0  0  0  0  0  0  0  0  0  0  0  0  0  0
 MicOpt= -1 -1 -1 -1 -1 -1 -1 -1 -1 -1 -1 -1 -1 -1 -1 -1 -1 -1 -1 -1
 MicOpt= -1 -1 -1 -1 -1 -1 -1 -1 -1 -1 -1 -1 -1 -1 -1 -1 -1 -1 -1 -1
 MicOpt= -1 -1 -1 -1 -1 -1 -1 -1 -1 -1 -1 -1 -1 -1 -1 -1 -1 -1 -1 -1
 MicOpt= -1 -1 -1 -1 -1 -1 -1 -1 -1 -1 -1 -1 -1 -1 -1 -1 -1 -1 -1 -1
 MicOpt= -1 -1 -1 -1 -1 -1 -1 -1 -1 -1 -1 -1 -1 -1 -1 -1 -1 -1 -1 -1
 MicOpt= -1 -1 -1 -1 -1 -1 -1 -1 -1 -1 -1 -1 -1 -1 -1 -1 -1 -1 -1 -1
 MicOpt= -1 -1 -1 -1 -1 -1 -1 -1 -1 -1 -1 -1 -1 -1 -1 -1 -1 -1 -1 -1
 MicOpt= -1 -1 -1 -1 -1 -1 -1 -1 -1 -1 -1 -1 -1 -1 -1 -1 -1 -1
 NAtoms=    158 NQM=      158 NQMF=       0 NMMI=      0 NMMIF=      0
                NMic=       0 NMicF=      0.
                    Isotopes and Nuclear Properties:
 (Nuclear quadrupole moments (NQMom) in fm**2, nuclear magnetic moments (NMagM)
  in nuclear magnetons)

  Atom         1           2           3           4           5           6           7           8           9          10
 IAtWgt=          24          12          12          12          12          14          12          12          12          12
 AtmWgt=  23.9850450  12.0000000  12.0000000  12.0000000  12.0000000  14.0030740  12.0000000  12.0000000  12.0000000  12.0000000
 NucSpn=           0           0           0           0           0           2           0           0           0           0
 AtZEff=  -0.0000000  -0.0000000  -0.0000000  -0.0000000  -0.0000000  -0.0000000  -0.0000000  -0.0000000  -0.0000000  -0.0000000
 NQMom=    0.0000000   0.0000000   0.0000000   0.0000000   0.0000000   2.0440000   0.0000000   0.0000000   0.0000000   0.0000000
 NMagM=    0.0000000   0.0000000   0.0000000   0.0000000   0.0000000   0.4037610   0.0000000   0.0000000   0.0000000   0.0000000
 AtZNuc=  12.0000000   6.0000000   6.0000000   6.0000000   6.0000000   7.0000000   6.0000000   6.0000000   6.0000000   6.0000000

  Atom        11          12          13          14          15          16          17          18          19          20
 IAtWgt=          12          12          12           1          14          12          12          12          12          12
 AtmWgt=  12.0000000  12.0000000  12.0000000   1.0078250  14.0030740  12.0000000  12.0000000  12.0000000  12.0000000  12.0000000
 NucSpn=           0           0           0           1           2           0           0           0           0           0
 AtZEff=  -0.0000000  -0.0000000  -0.0000000  -0.0000000  -0.0000000  -0.0000000  -0.0000000  -0.0000000  -0.0000000  -0.0000000
 NQMom=    0.0000000   0.0000000   0.0000000   0.0000000   2.0440000   0.0000000   0.0000000   0.0000000   0.0000000   0.0000000
 NMagM=    0.0000000   0.0000000   0.0000000   2.7928460   0.4037610   0.0000000   0.0000000   0.0000000   0.0000000   0.0000000
 AtZNuc=   6.0000000   6.0000000   6.0000000   1.0000000   7.0000000   6.0000000   6.0000000   6.0000000   6.0000000   6.0000000

  Atom        21          22          23          24          25          26          27          28          29          30
 IAtWgt=          12          16          12          14          12          12          12          12          12          12
 AtmWgt=  12.0000000  15.9949146  12.0000000  14.0030740  12.0000000  12.0000000  12.0000000  12.0000000  12.0000000  12.0000000
 NucSpn=           0           0           0           2           0           0           0           0           0           0
 AtZEff=  -0.0000000  -0.0000000  -0.0000000  -0.0000000  -0.0000000  -0.0000000  -0.0000000  -0.0000000  -0.0000000  -0.0000000
 NQMom=    0.0000000   0.0000000   0.0000000   2.0440000   0.0000000   0.0000000   0.0000000   0.0000000   0.0000000   0.0000000
 NMagM=    0.0000000   0.0000000   0.0000000   0.4037610   0.0000000   0.0000000   0.0000000   0.0000000   0.0000000   0.0000000
 AtZNuc=   6.0000000   8.0000000   6.0000000   7.0000000   6.0000000   6.0000000   6.0000000   6.0000000   6.0000000   6.0000000

  Atom        31          32          33          34          35          36          37          38          39          40
 IAtWgt=          12          14          12          12          12          12          12          12          16          12
 AtmWgt=  12.0000000  14.0030740  12.0000000  12.0000000  12.0000000  12.0000000  12.0000000  12.0000000  15.9949146  12.0000000
 NucSpn=           0           2           0           0           0           0           0           0           0           0
 AtZEff=  -0.0000000  -0.0000000  -0.0000000  -0.0000000  -0.0000000  -0.0000000  -0.0000000  -0.0000000  -0.0000000  -0.0000000
 NQMom=    0.0000000   2.0440000   0.0000000   0.0000000   0.0000000   0.0000000   0.0000000   0.0000000   0.0000000   0.0000000
 NMagM=    0.0000000   0.4037610   0.0000000   0.0000000   0.0000000   0.0000000   0.0000000   0.0000000   0.0000000   0.0000000
 AtZNuc=   6.0000000   7.0000000   6.0000000   6.0000000   6.0000000   6.0000000   6.0000000   6.0000000   8.0000000   6.0000000

  Atom        41          42          43          44          45          46          47          48          49          50
 IAtWgt=          12          16          16          12           1           1           1           1           1           1
 AtmWgt=  12.0000000  15.9949146  15.9949146  12.0000000   1.0078250   1.0078250   1.0078250   1.0078250   1.0078250   1.0078250
 NucSpn=           0           0           0           0           1           1           1           1           1           1
 AtZEff=  -0.0000000  -0.0000000  -0.0000000  -0.0000000  -0.0000000  -0.0000000  -0.0000000  -0.0000000  -0.0000000  -0.0000000
 NQMom=    0.0000000   0.0000000   0.0000000   0.0000000   0.0000000   0.0000000   0.0000000   0.0000000   0.0000000   0.0000000
 NMagM=    0.0000000   0.0000000   0.0000000   0.0000000   2.7928460   2.7928460   2.7928460   2.7928460   2.7928460   2.7928460
 AtZNuc=   6.0000000   8.0000000   8.0000000   6.0000000   1.0000000   1.0000000   1.0000000   1.0000000   1.0000000   1.0000000

  Atom        51          52          53          54          55          56          57          58          59          60
 IAtWgt=           1           1           1           1           1           1           1           1           1           1
 AtmWgt=   1.0078250   1.0078250   1.0078250   1.0078250   1.0078250   1.0078250   1.0078250   1.0078250   1.0078250   1.0078250
 NucSpn=           1           1           1           1           1           1           1           1           1           1
 AtZEff=  -0.0000000  -0.0000000  -0.0000000  -0.0000000  -0.0000000  -0.0000000  -0.0000000  -0.0000000  -0.0000000  -0.0000000
 NQMom=    0.0000000   0.0000000   0.0000000   0.0000000   0.0000000   0.0000000   0.0000000   0.0000000   0.0000000   0.0000000
 NMagM=    2.7928460   2.7928460   2.7928460   2.7928460   2.7928460   2.7928460   2.7928460   2.7928460   2.7928460   2.7928460
 AtZNuc=   1.0000000   1.0000000   1.0000000   1.0000000   1.0000000   1.0000000   1.0000000   1.0000000   1.0000000   1.0000000

  Atom        61          62          63          64          65          66          67          68          69          70
 IAtWgt=           1           1           1           1           1           1           1           1           1           1
 AtmWgt=   1.0078250   1.0078250   1.0078250   1.0078250   1.0078250   1.0078250   1.0078250   1.0078250   1.0078250   1.0078250
 NucSpn=           1           1           1           1           1           1           1           1           1           1
 AtZEff=  -0.0000000  -0.0000000  -0.0000000  -0.0000000  -0.0000000  -0.0000000  -0.0000000  -0.0000000  -0.0000000  -0.0000000
 NQMom=    0.0000000   0.0000000   0.0000000   0.0000000   0.0000000   0.0000000   0.0000000   0.0000000   0.0000000   0.0000000
 NMagM=    2.7928460   2.7928460   2.7928460   2.7928460   2.7928460   2.7928460   2.7928460   2.7928460   2.7928460   2.7928460
 AtZNuc=   1.0000000   1.0000000   1.0000000   1.0000000   1.0000000   1.0000000   1.0000000   1.0000000   1.0000000   1.0000000

  Atom        71          72          73          74          75          76          77          78          79          80
 IAtWgt=           1           1           1           1           1           1           1           1           1          24
 AtmWgt=   1.0078250   1.0078250   1.0078250   1.0078250   1.0078250   1.0078250   1.0078250   1.0078250   1.0078250  23.9850450
 NucSpn=           1           1           1           1           1           1           1           1           1           0
 AtZEff=  -0.0000000  -0.0000000  -0.0000000  -0.0000000  -0.0000000  -0.0000000  -0.0000000  -0.0000000  -0.0000000  -0.0000000
 NQMom=    0.0000000   0.0000000   0.0000000   0.0000000   0.0000000   0.0000000   0.0000000   0.0000000   0.0000000   0.0000000
 NMagM=    2.7928460   2.7928460   2.7928460   2.7928460   2.7928460   2.7928460   2.7928460   2.7928460   2.7928460   0.0000000
 AtZNuc=   1.0000000   1.0000000   1.0000000   1.0000000   1.0000000   1.0000000   1.0000000   1.0000000   1.0000000  12.0000000

  Atom        81          82          83          84          85          86          87          88          89          90
 IAtWgt=          12          12          12          12          14          12          12          12          12          12
 AtmWgt=  12.0000000  12.0000000  12.0000000  12.0000000  14.0030740  12.0000000  12.0000000  12.0000000  12.0000000  12.0000000
 NucSpn=           0           0           0           0           2           0           0           0           0           0
 AtZEff=  -0.0000000  -0.0000000  -0.0000000  -0.0000000  -0.0000000  -0.0000000  -0.0000000  -0.0000000  -0.0000000  -0.0000000
 NQMom=    0.0000000   0.0000000   0.0000000   0.0000000   2.0440000   0.0000000   0.0000000   0.0000000   0.0000000   0.0000000
 NMagM=    0.0000000   0.0000000   0.0000000   0.0000000   0.4037610   0.0000000   0.0000000   0.0000000   0.0000000   0.0000000
 AtZNuc=   6.0000000   6.0000000   6.0000000   6.0000000   7.0000000   6.0000000   6.0000000   6.0000000   6.0000000   6.0000000

  Atom        91          92          93          94          95          96          97          98          99         100
 IAtWgt=          12          12           1          14          12          12          12          12          12          12
 AtmWgt=  12.0000000  12.0000000   1.0078250  14.0030740  12.0000000  12.0000000  12.0000000  12.0000000  12.0000000  12.0000000
 NucSpn=           0           0           1           2           0           0           0           0           0           0
 AtZEff=  -0.0000000  -0.0000000  -0.0000000  -0.0000000  -0.0000000  -0.0000000  -0.0000000  -0.0000000  -0.0000000  -0.0000000
 NQMom=    0.0000000   0.0000000   0.0000000   2.0440000   0.0000000   0.0000000   0.0000000   0.0000000   0.0000000   0.0000000
 NMagM=    0.0000000   0.0000000   2.7928460   0.4037610   0.0000000   0.0000000   0.0000000   0.0000000   0.0000000   0.0000000
 AtZNuc=   6.0000000   6.0000000   1.0000000   7.0000000   6.0000000   6.0000000   6.0000000   6.0000000   6.0000000   6.0000000

  Atom       101         102         103         104         105         106         107         108         109         110
 IAtWgt=          16          12          14          12          12          12          12          12          12          12
 AtmWgt=  15.9949146  12.0000000  14.0030740  12.0000000  12.0000000  12.0000000  12.0000000  12.0000000  12.0000000  12.0000000
 NucSpn=           0           0           2           0           0           0           0           0           0           0
 AtZEff=  -0.0000000  -0.0000000  -0.0000000  -0.0000000  -0.0000000  -0.0000000  -0.0000000  -0.0000000  -0.0000000  -0.0000000
 NQMom=    0.0000000   0.0000000   2.0440000   0.0000000   0.0000000   0.0000000   0.0000000   0.0000000   0.0000000   0.0000000
 NMagM=    0.0000000   0.0000000   0.4037610   0.0000000   0.0000000   0.0000000   0.0000000   0.0000000   0.0000000   0.0000000
 AtZNuc=   8.0000000   6.0000000   7.0000000   6.0000000   6.0000000   6.0000000   6.0000000   6.0000000   6.0000000   6.0000000

  Atom       111         112         113         114         115         116         117         118         119         120
 IAtWgt=          14          12          12          12          12          12          12          16          12          12
 AtmWgt=  14.0030740  12.0000000  12.0000000  12.0000000  12.0000000  12.0000000  12.0000000  15.9949146  12.0000000  12.0000000
 NucSpn=           2           0           0           0           0           0           0           0           0           0
 AtZEff=  -0.0000000  -0.0000000  -0.0000000  -0.0000000  -0.0000000  -0.0000000  -0.0000000  -0.0000000  -0.0000000  -0.0000000
 NQMom=    2.0440000   0.0000000   0.0000000   0.0000000   0.0000000   0.0000000   0.0000000   0.0000000   0.0000000   0.0000000
 NMagM=    0.4037610   0.0000000   0.0000000   0.0000000   0.0000000   0.0000000   0.0000000   0.0000000   0.0000000   0.0000000
 AtZNuc=   7.0000000   6.0000000   6.0000000   6.0000000   6.0000000   6.0000000   6.0000000   8.0000000   6.0000000   6.0000000

  Atom       121         122         123         124         125         126         127         128         129         130
 IAtWgt=          16          16          12           1           1           1           1           1           1           1
 AtmWgt=  15.9949146  15.9949146  12.0000000   1.0078250   1.0078250   1.0078250   1.0078250   1.0078250   1.0078250   1.0078250
 NucSpn=           0           0           0           1           1           1           1           1           1           1
 AtZEff=  -0.0000000  -0.0000000  -0.0000000  -0.0000000  -0.0000000  -0.0000000  -0.0000000  -0.0000000  -0.0000000  -0.0000000
 NQMom=    0.0000000   0.0000000   0.0000000   0.0000000   0.0000000   0.0000000   0.0000000   0.0000000   0.0000000   0.0000000
 NMagM=    0.0000000   0.0000000   0.0000000   2.7928460   2.7928460   2.7928460   2.7928460   2.7928460   2.7928460   2.7928460
 AtZNuc=   8.0000000   8.0000000   6.0000000   1.0000000   1.0000000   1.0000000   1.0000000   1.0000000   1.0000000   1.0000000

  Atom       131         132         133         134         135         136         137         138         139         140
 IAtWgt=           1           1           1           1           1           1           1           1           1           1
 AtmWgt=   1.0078250   1.0078250   1.0078250   1.0078250   1.0078250   1.0078250   1.0078250   1.0078250   1.0078250   1.0078250
 NucSpn=           1           1           1           1           1           1           1           1           1           1
 AtZEff=  -0.0000000  -0.0000000  -0.0000000  -0.0000000  -0.0000000  -0.0000000  -0.0000000  -0.0000000  -0.0000000  -0.0000000
 NQMom=    0.0000000   0.0000000   0.0000000   0.0000000   0.0000000   0.0000000   0.0000000   0.0000000   0.0000000   0.0000000
 NMagM=    2.7928460   2.7928460   2.7928460   2.7928460   2.7928460   2.7928460   2.7928460   2.7928460   2.7928460   2.7928460
 AtZNuc=   1.0000000   1.0000000   1.0000000   1.0000000   1.0000000   1.0000000   1.0000000   1.0000000   1.0000000   1.0000000

  Atom       141         142         143         144         145         146         147         148         149         150
 IAtWgt=           1           1           1           1           1           1           1           1           1           1
 AtmWgt=   1.0078250   1.0078250   1.0078250   1.0078250   1.0078250   1.0078250   1.0078250   1.0078250   1.0078250   1.0078250
 NucSpn=           1           1           1           1           1           1           1           1           1           1
 AtZEff=  -0.0000000  -0.0000000  -0.0000000  -0.0000000  -0.0000000  -0.0000000  -0.0000000  -0.0000000  -0.0000000  -0.0000000
 NQMom=    0.0000000   0.0000000   0.0000000   0.0000000   0.0000000   0.0000000   0.0000000   0.0000000   0.0000000   0.0000000
 NMagM=    2.7928460   2.7928460   2.7928460   2.7928460   2.7928460   2.7928460   2.7928460   2.7928460   2.7928460   2.7928460
 AtZNuc=   1.0000000   1.0000000   1.0000000   1.0000000   1.0000000   1.0000000   1.0000000   1.0000000   1.0000000   1.0000000

  Atom       151         152         153         154         155         156         157         158
 IAtWgt=           1           1           1           1           1           1           1           1
 AtmWgt=   1.0078250   1.0078250   1.0078250   1.0078250   1.0078250   1.0078250   1.0078250   1.0078250
 NucSpn=           1           1           1           1           1           1           1           1
 AtZEff=  -0.0000000  -0.0000000  -0.0000000  -0.0000000  -0.0000000  -0.0000000  -0.0000000  -0.0000000
 NQMom=    0.0000000   0.0000000   0.0000000   0.0000000   0.0000000   0.0000000   0.0000000   0.0000000
 NMagM=    2.7928460   2.7928460   2.7928460   2.7928460   2.7928460   2.7928460   2.7928460   2.7928460
 AtZNuc=   1.0000000   1.0000000   1.0000000   1.0000000   1.0000000   1.0000000   1.0000000   1.0000000
 Leave Link  101 at Thu Sep  9 05:14:40 2021, MaxMem= 23488102400 cpu:               3.4 elap:               0.2
 (Enter /sw/apps/gaussian-16.0/g16/l202.exe)
 Stoichiometry    C68H72Mg2N8O8
 Framework group  C1[X(C68H72Mg2N8O8)]
 Deg. of freedom   468
 Full point group                 C1      NOp   1
 Largest Abelian subgroup         C1      NOp   1
 Largest concise Abelian subgroup C1      NOp   1
                         Standard orientation:                         
 ---------------------------------------------------------------------
 Center     Atomic      Atomic             Coordinates (Angstroms)
 Number     Number       Type             X           Y           Z
 ---------------------------------------------------------------------
      1         12           0        3.119623    2.035102    0.784637
      2          6           0        4.691364   -1.165321    0.469778
      3          6           0        4.349811    2.777868   -2.310197
      4          6           0        2.131506    5.015853    1.226639
      5          6           0        2.996870    1.472221    4.221752
      6          7           0        4.349270    0.870496   -0.640953
      7          6           0        4.835514   -0.366465   -0.666749
      8          6           0        5.447340   -0.761197   -2.044149
      9          6           0        5.785097    0.695830   -2.596405
     10          6           0        4.743504    1.493079   -1.831289
     11          6           0        7.171981    1.191423   -2.199615
     12          6           0        4.415921   -1.497554   -2.963760
     13          6           0        5.015165   -2.201523   -4.184697
     14          1           0        4.426803   -3.456230   -4.628417
     15          7           0        2.797288    3.484527   -0.518480
     16          6           0        3.372187    3.620081   -1.737662
     17          6           0        2.806349    4.855978   -2.319956
     18          6           0        1.999815    5.528669   -1.263981
     19          6           0        2.302541    4.706252   -0.120581
     20          6           0        3.010201    5.261196   -3.747539
     21          6           0        1.107449    6.729316   -1.280105
     22          8           0        0.687333    7.279013   -0.204973
     23          6           0        0.805796    7.305903   -2.602828
     24          7           0        2.830344    3.196350    2.495034
     25          6           0        2.338881    4.437502    2.411439
     26          6           0        1.954524    4.964689    3.762099
     27          6           0        2.060308    3.727486    4.766038
     28          6           0        2.596040    2.664698    3.775208
     29          6           0        2.804400    6.127183    4.293447
     30          6           0        0.799337    3.388955    5.600165
     31          6           0       -0.298559    2.886271    4.689654
     32          7           0        3.562634    0.380625    2.117864
     33          6           0        3.460386    0.374203    3.516498
     34          6           0        3.970728   -0.928826    3.980969
     35          6           0        4.352288   -1.587729    2.813877
     36          6           0        4.120891   -0.739247    1.693686
     37          6           0        4.089356   -1.341890    5.337339
     38          6           0        4.924544   -2.801698    2.254719
     39          8           0        5.231748   -3.904722    2.709094
     40          6           0        5.280230   -2.530202    0.726451
     41          6           0        4.750026   -3.687007   -0.076042
     42          8           0        3.522108   -3.883433   -0.180920
     43          8           0        5.751213   -4.234003   -0.782415
     44          6           0        5.286940   -5.369332   -1.623623
     45          1           0        4.876255    3.206532   -3.165209
     46          1           0        1.687787    5.995447    1.416236
     47          1           0        2.911037    1.192860    5.273438
     48          1           0        6.358494   -1.356570   -1.982892
     49          1           0        5.610176    0.775073   -3.669180
     50          1           0        7.650427    0.513141   -1.493256
     51          1           0        7.012145    2.167619   -1.741373
     52          1           0        7.786107    1.371700   -3.082297
     53          1           0        3.789416   -0.759257   -3.464230
     54          1           0        3.827480   -2.212770   -2.387974
     55          1           0        6.097916   -2.296850   -4.098251
     56          1           0        4.868190   -1.561139   -5.054471
     57          1           0        3.780521    4.659678   -4.228505
     58          1           0        3.421159    6.270503   -3.736452
     59          1           0        2.079135    5.249580   -4.314384
     60          1           0        1.736930    7.597569   -3.089108
     61          1           0        0.083234    8.101866   -2.426197
     62          1           0        0.360454    6.534060   -3.231221
     63          1           0        0.930688    5.336417    3.759940
     64          1           0        2.841871    3.872004    5.512327
     65          1           0        2.224384    7.017102    4.539068
     66          1           0        3.569840    6.351821    3.551200
     67          1           0        3.412026    5.887782    5.165739
     68          1           0        0.421202    4.282607    6.095489
     69          1           0        0.980176    2.635944    6.367317
     70          1           0       -0.752276    3.806823    4.324198
     71          1           0       -1.018984    2.293193    5.253974
     72          1           0        0.109743    2.359415    3.826985
     73          1           0        3.733818   -2.371529    5.374845
     74          1           0        3.510203   -0.698475    5.999307
     75          1           0        5.163707   -1.236396    5.487325
     76          1           0        6.365382   -2.453263    0.666051
     77          1           0        5.893765   -6.234963   -1.357764
     78          1           0        5.323008   -5.024294   -2.657089
     79          1           0        4.285855   -5.747345   -1.413208
     80         12           0       -4.134969   -0.897063   -0.567136
     81          6           0       -1.589837   -3.418395   -0.356839
     82          6           0       -2.216869    0.629518   -2.938864
     83          6           0       -6.131802    1.566141   -0.454312
     84          6           0       -5.260996   -1.970538    2.551422
     85          7           0       -2.176560   -1.423540   -1.450161
     86          6           0       -1.331928   -2.437507   -1.337031
     87          6           0       -0.186561   -2.440492   -2.384739
     88          6           0       -0.170048   -0.871676   -2.727418
     89          6           0       -1.619617   -0.531840   -2.386912
     90          6           0        0.737048   -0.065417   -1.812844
     91          6           0       -0.535640   -3.301047   -3.649484
     92          6           0        0.649304   -3.601280   -4.570088
     93          1           0        0.695444   -4.895042   -5.245754
     94          7           0       -4.433192    0.574892   -1.864439
     95          6           0       -3.554188    1.051089   -2.771009
     96          6           0       -4.247965    2.145292   -3.467844
     97          6           0       -5.549399    2.384474   -2.786819
     98          6           0       -5.409694    1.512725   -1.637635
     99          6           0       -3.703984    2.795135   -4.706873
    100          6           0       -6.719949    3.263259   -3.108904
    101          8           0       -7.645302    3.492992   -2.252307
    102          6           0       -6.703515    3.921410   -4.423460
    103          7           0       -5.365805   -0.147258    0.931261
    104          6           0       -6.172431    0.903779    0.701945
    105          6           0       -7.159412    1.090169    1.829565
    106          6           0       -7.005898   -0.206089    2.753551
    107          6           0       -5.842881   -0.905862    2.016590
    108          6           0       -6.968913    2.346179    2.679565
    109          6           0       -8.295934   -1.021922    3.041454
    110          6           0       -8.788216   -1.674830    1.769935
    111          7           0       -3.675686   -2.525678    0.776259
    112          6           0       -4.248260   -2.773832    2.043009
    113          6           0       -3.532964   -3.927670    2.625620
    114          6           0       -2.570921   -4.258938    1.659585
    115          6           0       -2.665678   -3.361374    0.561900
    116          6           0       -3.773885   -4.494034    3.909096
    117          6           0       -1.489763   -5.157185    1.323526
    118          8           0       -1.014194   -6.172211    1.830760
    119          6           0       -0.722920   -4.574246    0.059198
    120          6           0       -0.530374   -5.695424   -0.924888
    121          8           0       -1.509634   -6.225288   -1.478879
    122          8           0        0.779175   -5.809768   -1.211886
    123          6           0        1.019549   -6.901687   -2.192584
    124          1           0       -1.592530    1.306572   -3.522528
    125          1           0       -6.910690    2.330972   -0.411390
    126          1           0       -5.617184   -2.427096    3.477356
    127          1           0        0.779070   -2.747490   -2.001250
    128          1           0        0.023995   -0.699968   -3.782982
    129          1           0        1.131067   -0.664922   -1.005706
    130          1           0        0.124222    0.737151   -1.423754
    131          1           0        1.528645    0.414927   -2.395067
    132          1           0       -1.155238   -2.702726   -4.329807
    133          1           0       -1.014430   -4.218127   -3.366016
    134          1           0        1.610628   -3.384727   -4.088520
    135          1           0        0.613171   -2.912893   -5.417932
    136          1           0       -2.654206    2.524826   -4.875101
    137          1           0       -3.679788    3.873820   -4.517906
    138          1           0       -4.320525    2.604430   -5.587890
    139          1           0       -5.810001    4.535253   -4.508859
    140          1           0       -7.663783    4.434284   -4.505525
    141          1           0       -6.631538    3.151183   -5.199468
    142          1           0       -8.173705    1.134681    1.452309
    143          1           0       -6.633622    0.050117    3.756345
    144          1           0       -7.866945    2.991586    2.712028
    145          1           0       -6.120271    2.894602    2.292805
    146          1           0       -6.675649    2.164878    3.712199
    147          1           0       -9.095884   -0.358692    3.379623
    148          1           0       -8.164708   -1.782833    3.803546
    149          1           0       -9.357659   -0.875381    1.286503
    150          1           0       -9.422766   -2.528705    1.998624
    151          1           0       -7.951642   -1.929751    1.109025
    152          1           0       -3.761662   -5.568440    3.782568
    153          1           0       -4.720277   -4.152447    4.323119
    154          1           0       -2.917444   -4.097659    4.461064
    155          1           0        0.227283   -4.169844    0.410123
    156          1           0        1.747181   -7.582724   -1.740471
    157          1           0        1.316218   -6.399192   -3.132392
    158          1           0        0.198554   -7.577578   -2.401333
 ---------------------------------------------------------------------
 Rotational constants (GHZ):           0.0224700           0.0176492           0.0144248
 Leave Link  202 at Thu Sep  9 05:14:40 2021, MaxMem= 23488102400 cpu:               0.2 elap:               0.0
 (Enter /sw/apps/gaussian-16.0/g16/l301.exe)
 Standard basis: def2SVP (5D, 7F)
 Ernie: Thresh=  0.10000D-02 Tol=  0.10000D-05 Strict=F.
 There are  1658 symmetry adapted cartesian basis functions of A   symmetry.
 There are  1572 symmetry adapted basis functions of A   symmetry.
  1572 basis functions,  2678 primitive gaussians,  1658 cartesian basis functions
   312 alpha electrons      312 beta electrons
       nuclear repulsion energy     16254.7644079489 Hartrees.
 IExCor=20419 DFT=T Ex+Corr=CAM-B3LYP ExCW=0 ScaHFX=  1.000000
 ScaDFX=  1.000000  1.000000  1.000000  0.810000 ScalE2=  1.000000  1.000000
 IRadAn=      5 IRanWt=     -1 IRanGd=            0 ICorTp=0 IEmpDi=  4
 HFx  wShort=  0.000000 wLong=  0.330000 cFull=  0.190000 cShort=  0.000000 cLong=  0.460000
 DFx  wShort=  0.000000 wLong=  0.330000 cFull=  0.190000 cShort=  0.000000 cLong=  0.460000
 NAtoms=  158 NActive=  158 NUniq=  158 SFac= 1.00D+00 NAtFMM=   60 NAOKFM=T Big=T
 Integral buffers will be    131072 words long.
 Raffenetti 1 integral format.
 Two-electron integral symmetry is turned on.
 Leave Link  301 at Thu Sep  9 05:14:40 2021, MaxMem= 23488102400 cpu:               1.3 elap:               0.1
 (Enter /sw/apps/gaussian-16.0/g16/l302.exe)
 NPDir=0 NMtPBC=     1 NCelOv=     1 NCel=       1 NClECP=     1 NCelD=      1
         NCelK=      1 NCelE2=     1 NClLst=     1 CellRange=     0.0.
 One-electron integrals computed using PRISM.
 One-electron integral symmetry used in STVInt
   1 Symmetry operations used in ECPInt.
 ECPInt:  NShTT=  271216 NPrTT=  987664 LenC2=  167823 LenP2D=  353495.
 LDataN:  DoStor=T MaxTD1= 4 Len=   56
 NBasis=  1572 RedAO= T EigKep=  3.30D-04  NBF=  1572
 NBsUse=  1572 1.00D-06 EigRej= -1.00D+00 NBFU=  1572
 Precomputing XC quadrature grid using
 IXCGrd= 4 IRadAn=           5 IRanWt=          -1 IRanGd=           0 AccXCQ= 0.00D+00.
 Generated NRdTot=       0 NPtTot=           0 NUsed=           0 NTot=          32
 NSgBfM=  1402  1384  1387  1393  1402 MxSgAt=   158 MxSgA2=   158.
 Leave Link  302 at Thu Sep  9 05:14:46 2021, MaxMem= 23488102400 cpu:             133.4 elap:               5.6
 (Enter /sw/apps/gaussian-16.0/g16/l303.exe)
 DipDrv:  MaxL=1.
 Leave Link  303 at Thu Sep  9 05:14:47 2021, MaxMem= 23488102400 cpu:              10.4 elap:               0.5
 (Enter /sw/apps/gaussian-16.0/g16/l308.exe)
 Leave Link  308 at Thu Sep  9 05:14:47 2021, MaxMem= 23488102400 cpu:              14.8 elap:               0.7
 (Enter /sw/apps/gaussian-16.0/g16/l401.exe)
 ExpMin= 3.36D-02 ExpMax= 4.95D+03 ExpMxC= 7.45D+02 IAcc=3 IRadAn=         5 AccDes= 0.00D+00
 Harris functional with IExCor=20419 and IRadAn=       5 diagonalized for initial guess.
 HarFok:  IExCor=20419 AccDes= 0.00D+00 IRadAn=         5 IDoV= 1 UseB2=F ITyADJ=14
 ICtDFT=  3500011 ScaDFX=  1.000000  1.000000  1.000000  1.000000
 FoFCou: FMM=F IPFlag=           0 FMFlag=      100000 FMFlg1=        2001
         NFxFlg=           0 DoJE=T BraDBF=F KetDBF=T FulRan=T
         wScrn=  0.000000 ICntrl=       500 IOpCl=  0 I1Cent=   200000004 NGrid=           0
         NMat0=    1 NMatS0=      1 NMatT0=    0 NMatD0=    1 NMtDS0=    0 NMtDT0=    0
 Petite list used in FoFCou.
 Harris En= -3918.66253959521    
 JPrj=0 DoOrth=F DoCkMO=F.
 Leave Link  401 at Thu Sep  9 05:14:56 2021, MaxMem= 23488102400 cpu:             213.2 elap:               8.9
 (Enter /sw/apps/gaussian-16.0/g16/l502.exe)
 Integral symmetry usage will be decided dynamically.
 Closed shell SCF:
 Using DIIS extrapolation, IDIIS=  1040.
 NGot= 23488102400 LenX= 23482547354 LenY= 23479796732
 Requested convergence on RMS density matrix=1.00D-08 within 128 cycles.
 Requested convergence on MAX density matrix=1.00D-06.
 Requested convergence on             energy=1.00D-06.
 No special actions if energy rises.
 Fock matrices will be formed incrementally for  20 cycles.

 Cycle   1  Pass 1  IDiag  1:
 FoFJK:  IHMeth= 1 ICntrl=       0 DoSepK=T KAlg= 0 I1Cent=           0 FoldK=F
 IRaf=         1 NMat=       1 IRICut=       1 DoRegI=T DoRafI=F ISym2E= 0 IDoP0=0 IntGTp=1.
 FoFCou: FMM=T IPFlag=           0 FMFlag=      100000 FMFlg1=        2001
         NFxFlg=           0 DoJE=T BraDBF=F KetDBF=F FulRan=T
         wScrn=  0.000000 ICntrl=       500 IOpCl=  0 I1Cent=           0 NGrid=           0
         NMat0=    1 NMatS0=      1 NMatT0=    0 NMatD0=    1 NMtDS0=    0 NMtDT0=    0
 Symmetry not used in FoFCou.
 FMM levels:  10  Number of levels for PrismC:   9
 E= -4068.94785147154    
 DIIS: error= 2.35D-02 at cycle   1 NSaved=   1.
 NSaved= 1 IEnMin= 1 EnMin= -4068.94785147154     IErMin= 1 ErrMin= 2.35D-02
 ErrMax= 2.35D-02  0.00D+00 EMaxC= 1.00D-01 BMatC= 1.69D+00 BMatP= 1.69D+00
 IDIUse=3 WtCom= 7.65D-01 WtEn= 2.35D-01
 Coeff-Com:  0.100D+01
 Coeff-En:   0.100D+01
 Coeff:      0.100D+01
 Gap=     0.121 Goal=   None    Shift=    0.000
 GapD=    0.121 DampG=1.000 DampE=0.500 DampFc=0.5000 IDamp=-1.
 Damping current iteration by 5.00D-01
 RMSDP=1.59D-03 MaxDP=1.47D-01              OVMax= 2.17D-01

 Cycle   2  Pass 1  IDiag  1:
 RMSU=  7.80D-04    CP:  9.82D-01
 E= -4069.33780846542     Delta-E=       -0.389956993880 Rises=F Damp=T
 DIIS: error= 1.42D-02 at cycle   2 NSaved=   2.
 NSaved= 2 IEnMin= 2 EnMin= -4069.33780846542     IErMin= 2 ErrMin= 1.42D-02
 ErrMax= 1.42D-02  0.00D+00 EMaxC= 1.00D-01 BMatC= 3.07D-01 BMatP= 1.69D+00
 IDIUse=3 WtCom= 8.58D-01 WtEn= 1.42D-01
 Coeff-Com: -0.215D+00 0.121D+01
 Coeff-En:   0.000D+00 0.100D+01
 Coeff:     -0.184D+00 0.118D+01
 Gap=     0.132 Goal=   None    Shift=    0.000
 RMSDP=7.79D-04 MaxDP=1.01D-01 DE=-3.90D-01 OVMax= 1.99D-01

 Cycle   3  Pass 1  IDiag  1:
 RMSU=  7.46D-04    CP:  9.68D-01  1.24D+00
 E= -4069.62560584952     Delta-E=       -0.287797384095 Rises=F Damp=F
 DIIS: error= 1.45D-02 at cycle   3 NSaved=   3.
 NSaved= 3 IEnMin= 3 EnMin= -4069.62560584952     IErMin= 2 ErrMin= 1.42D-02
 ErrMax= 1.45D-02  0.00D+00 EMaxC= 1.00D-01 BMatC= 2.00D-01 BMatP= 3.07D-01
 IDIUse=3 WtCom= 8.55D-01 WtEn= 1.45D-01
 Coeff-Com: -0.266D+00 0.651D+00 0.615D+00
 Coeff-En:   0.000D+00 0.000D+00 0.100D+01
 Coeff:     -0.227D+00 0.556D+00 0.671D+00
 Gap=     0.116 Goal=   None    Shift=    0.000
 RMSDP=5.25D-04 MaxDP=4.51D-02 DE=-2.88D-01 OVMax= 1.65D-01

 Cycle   4  Pass 1  IDiag  1:
 RMSU=  2.75D-04    CP:  9.64D-01  1.55D+00  4.95D-01
 E= -4069.76464448583     Delta-E=       -0.139038636309 Rises=F Damp=F
 DIIS: error= 6.10D-03 at cycle   4 NSaved=   4.
 NSaved= 4 IEnMin= 4 EnMin= -4069.76464448583     IErMin= 4 ErrMin= 6.10D-03
 ErrMax= 6.10D-03  0.00D+00 EMaxC= 1.00D-01 BMatC= 4.91D-02 BMatP= 2.00D-01
 IDIUse=3 WtCom= 9.39D-01 WtEn= 6.10D-02
 Coeff-Com: -0.111D+00 0.232D+00 0.407D+00 0.472D+00
 Coeff-En:   0.000D+00 0.000D+00 0.225D+00 0.775D+00
 Coeff:     -0.104D+00 0.218D+00 0.396D+00 0.490D+00
 Gap=     0.117 Goal=   None    Shift=    0.000
 RMSDP=2.14D-04 MaxDP=1.60D-02 DE=-1.39D-01 OVMax= 7.85D-02

 Cycle   5  Pass 1  IDiag  1:
 RMSU=  8.53D-05    CP:  9.64D-01  1.49D+00  6.85D-01  5.37D-01
 E= -4069.81173663166     Delta-E=       -0.047092145836 Rises=F Damp=F
 DIIS: error= 5.74D-04 at cycle   5 NSaved=   5.
 NSaved= 5 IEnMin= 5 EnMin= -4069.81173663166     IErMin= 5 ErrMin= 5.74D-04
 ErrMax= 5.74D-04  0.00D+00 EMaxC= 1.00D-01 BMatC= 1.53D-03 BMatP= 4.91D-02
 IDIUse=3 WtCom= 9.94D-01 WtEn= 5.74D-03
 Coeff-Com: -0.417D-01 0.825D-01 0.182D+00 0.264D+00 0.513D+00
 Coeff-En:   0.000D+00 0.000D+00 0.000D+00 0.000D+00 0.100D+01
 Coeff:     -0.414D-01 0.820D-01 0.181D+00 0.263D+00 0.515D+00
 Gap=     0.116 Goal=   None    Shift=    0.000
 RMSDP=5.15D-05 MaxDP=5.31D-03 DE=-4.71D-02 OVMax= 2.51D-02

 Cycle   6  Pass 1  IDiag  1:
 RMSU=  3.58D-05    CP:  9.63D-01  1.49D+00  6.74D-01  6.20D-01  6.82D-01
 E= -4069.81324256404     Delta-E=       -0.001505932378 Rises=F Damp=F
 DIIS: error= 2.31D-04 at cycle   6 NSaved=   6.
 NSaved= 6 IEnMin= 6 EnMin= -4069.81324256404     IErMin= 6 ErrMin= 2.31D-04
 ErrMax= 2.31D-04  0.00D+00 EMaxC= 1.00D-01 BMatC= 2.51D-04 BMatP= 1.53D-03
 IDIUse=3 WtCom= 9.98D-01 WtEn= 2.31D-03
 Coeff-Com:  0.718D-03-0.377D-02 0.176D-01 0.474D-01 0.307D+00 0.631D+00
 Coeff-En:   0.000D+00 0.000D+00 0.000D+00 0.000D+00 0.141D+00 0.859D+00
 Coeff:      0.717D-03-0.377D-02 0.176D-01 0.473D-01 0.306D+00 0.632D+00
 Gap=     0.116 Goal=   None    Shift=    0.000
 RMSDP=1.97D-05 MaxDP=1.51D-03 DE=-1.51D-03 OVMax= 9.22D-03

 Cycle   7  Pass 1  IDiag  1:
 RMSU=  1.22D-05    CP:  9.63D-01  1.49D+00  6.81D-01  6.16D-01  8.07D-01
                    CP:  7.26D-01
 E= -4069.81353744099     Delta-E=       -0.000294876954 Rises=F Damp=F
 DIIS: error= 1.41D-04 at cycle   7 NSaved=   7.
 NSaved= 7 IEnMin= 7 EnMin= -4069.81353744099     IErMin= 7 ErrMin= 1.41D-04
 ErrMax= 1.41D-04  0.00D+00 EMaxC= 1.00D-01 BMatC= 3.27D-05 BMatP= 2.51D-04
 IDIUse=3 WtCom= 9.99D-01 WtEn= 1.41D-03
 Coeff-Com:  0.468D-02-0.104D-01-0.847D-02-0.281D-02 0.113D+00 0.343D+00
 Coeff-Com:  0.561D+00
 Coeff-En:   0.000D+00 0.000D+00 0.000D+00 0.000D+00 0.000D+00 0.000D+00
 Coeff-En:   0.100D+01
 Coeff:      0.467D-02-0.103D-01-0.846D-02-0.281D-02 0.113D+00 0.342D+00
 Coeff:      0.561D+00
 Gap=     0.117 Goal=   None    Shift=    0.000
 RMSDP=7.17D-06 MaxDP=1.16D-03 DE=-2.95D-04 OVMax= 3.44D-03

 Cycle   8  Pass 1  IDiag  1:
 RMSU=  5.26D-06    CP:  9.63D-01  1.50D+00  6.81D-01  6.21D-01  8.07D-01
                    CP:  8.37D-01  8.19D-01
 E= -4069.81357639470     Delta-E=       -0.000038953702 Rises=F Damp=F
 DIIS: error= 4.69D-05 at cycle   8 NSaved=   8.
 NSaved= 8 IEnMin= 8 EnMin= -4069.81357639470     IErMin= 8 ErrMin= 4.69D-05
 ErrMax= 4.69D-05  0.00D+00 EMaxC= 1.00D-01 BMatC= 5.18D-06 BMatP= 3.27D-05
 IDIUse=1 WtCom= 1.00D+00 WtEn= 0.00D+00
 Coeff-Com:  0.236D-02-0.471D-02-0.804D-02-0.123D-01-0.527D-02 0.303D-01
 Coeff-Com:  0.293D+00 0.705D+00
 Coeff:      0.236D-02-0.471D-02-0.804D-02-0.123D-01-0.527D-02 0.303D-01
 Coeff:      0.293D+00 0.705D+00
 Gap=     0.117 Goal=   None    Shift=    0.000
 RMSDP=3.68D-06 MaxDP=4.69D-04 DE=-3.90D-05 OVMax= 1.44D-03

 Cycle   9  Pass 1  IDiag  1:
 RMSU=  2.21D-06    CP:  9.63D-01  1.50D+00  6.82D-01  6.23D-01  8.23D-01
                    CP:  8.68D-01  1.00D+00  9.80D-01
 E= -4069.81358497221     Delta-E=       -0.000008577510 Rises=F Damp=F
 DIIS: error= 1.51D-05 at cycle   9 NSaved=   9.
 NSaved= 9 IEnMin= 9 EnMin= -4069.81358497221     IErMin= 9 ErrMin= 1.51D-05
 ErrMax= 1.51D-05  0.00D+00 EMaxC= 1.00D-01 BMatC= 1.04D-06 BMatP= 5.18D-06
 IDIUse=1 WtCom= 1.00D+00 WtEn= 0.00D+00
 Coeff-Com:  0.609D-03-0.105D-02-0.311D-02-0.663D-02-0.186D-01-0.424D-01
 Coeff-Com:  0.845D-01 0.378D+00 0.609D+00
 Coeff:      0.609D-03-0.105D-02-0.311D-02-0.663D-02-0.186D-01-0.424D-01
 Coeff:      0.845D-01 0.378D+00 0.609D+00
 Gap=     0.117 Goal=   None    Shift=    0.000
 RMSDP=1.64D-06 MaxDP=1.59D-04 DE=-8.58D-06 OVMax= 8.22D-04

 Cycle  10  Pass 1  IDiag  1:
 RMSU=  1.09D-06    CP:  9.63D-01  1.50D+00  6.82D-01  6.23D-01  8.27D-01
                    CP:  8.78D-01  1.05D+00  1.16D+00  1.02D+00
 E= -4069.81358715205     Delta-E=       -0.000002179848 Rises=F Damp=F
 DIIS: error= 8.63D-06 at cycle  10 NSaved=  10.
 NSaved=10 IEnMin=10 EnMin= -4069.81358715205     IErMin=10 ErrMin= 8.63D-06
 ErrMax= 8.63D-06  0.00D+00 EMaxC= 1.00D-01 BMatC= 2.17D-07 BMatP= 1.04D-06
 IDIUse=1 WtCom= 1.00D+00 WtEn= 0.00D+00
 Coeff-Com: -0.405D-03 0.868D-03 0.106D-02 0.662D-03-0.417D-02-0.333D-01
 Coeff-Com: -0.400D-01-0.407D-01 0.224D+00 0.892D+00
 Coeff:     -0.405D-03 0.868D-03 0.106D-02 0.662D-03-0.417D-02-0.333D-01
 Coeff:     -0.400D-01-0.407D-01 0.224D+00 0.892D+00
 Gap=     0.117 Goal=   None    Shift=    0.000
 RMSDP=1.35D-06 MaxDP=1.24D-04 DE=-2.18D-06 OVMax= 7.57D-04

 Cycle  11  Pass 1  IDiag  1:
 RMSU=  6.47D-07    CP:  9.63D-01  1.50D+00  6.82D-01  6.23D-01  8.29D-01
                    CP:  8.86D-01  1.09D+00  1.26D+00  1.36D+00  1.29D+00
 E= -4069.81358814277     Delta-E=       -0.000000990716 Rises=F Damp=F
 DIIS: error= 4.19D-06 at cycle  11 NSaved=  11.
 NSaved=11 IEnMin=11 EnMin= -4069.81358814277     IErMin=11 ErrMin= 4.19D-06
 ErrMax= 4.19D-06  0.00D+00 EMaxC= 1.00D-01 BMatC= 1.15D-07 BMatP= 2.17D-07
 IDIUse=1 WtCom= 1.00D+00 WtEn= 0.00D+00
 Coeff-Com: -0.410D-03 0.805D-03 0.154D-02 0.226D-02 0.413D-02-0.110D-01
 Coeff-Com: -0.440D-01-0.134D+00-0.538D-01 0.558D+00 0.677D+00
 Coeff:     -0.410D-03 0.805D-03 0.154D-02 0.226D-02 0.413D-02-0.110D-01
 Coeff:     -0.440D-01-0.134D+00-0.538D-01 0.558D+00 0.677D+00
 Gap=     0.117 Goal=   None    Shift=    0.000
 RMSDP=8.38D-07 MaxDP=8.46D-05 DE=-9.91D-07 OVMax= 4.51D-04

 Cycle  12  Pass 1  IDiag  1:
 RMSU=  3.15D-07    CP:  9.63D-01  1.50D+00  6.82D-01  6.23D-01  8.30D-01
                    CP:  8.90D-01  1.11D+00  1.34D+00  1.52D+00  1.71D+00
                    CP:  1.14D+00
 E= -4069.81358854109     Delta-E=       -0.000000398319 Rises=F Damp=F
 DIIS: error= 3.04D-06 at cycle  12 NSaved=  12.
 NSaved=12 IEnMin=12 EnMin= -4069.81358854109     IErMin=12 ErrMin= 3.04D-06
 ErrMax= 3.04D-06  0.00D+00 EMaxC= 1.00D-01 BMatC= 2.62D-08 BMatP= 1.15D-07
 IDIUse=1 WtCom= 1.00D+00 WtEn= 0.00D+00
 Coeff-Com: -0.668D-04 0.112D-03 0.438D-03 0.862D-03 0.429D-02 0.282D-02
 Coeff-Com: -0.379D-02-0.508D-01-0.951D-01 0.312D-01 0.268D+00 0.842D+00
 Coeff:     -0.668D-04 0.112D-03 0.438D-03 0.862D-03 0.429D-02 0.282D-02
 Coeff:     -0.379D-02-0.508D-01-0.951D-01 0.312D-01 0.268D+00 0.842D+00
 Gap=     0.117 Goal=   None    Shift=    0.000
 RMSDP=4.97D-07 MaxDP=2.54D-05 DE=-3.98D-07 OVMax= 2.78D-04

 Cycle  13  Pass 1  IDiag  1:
 RMSU=  1.80D-07    CP:  9.63D-01  1.50D+00  6.82D-01  6.23D-01  8.30D-01
                    CP:  8.89D-01  1.12D+00  1.37D+00  1.63D+00  1.92D+00
                    CP:  1.52D+00  1.25D+00
 E= -4069.81358867302     Delta-E=       -0.000000131935 Rises=F Damp=F
 DIIS: error= 1.76D-06 at cycle  13 NSaved=  13.
 NSaved=13 IEnMin=13 EnMin= -4069.81358867302     IErMin=13 ErrMin= 1.76D-06
 ErrMax= 1.76D-06  0.00D+00 EMaxC= 1.00D-01 BMatC= 1.15D-08 BMatP= 2.62D-08
 IDIUse=1 WtCom= 1.00D+00 WtEn= 0.00D+00
 Coeff-Com:  0.121D-03-0.250D-03-0.347D-03-0.422D-03 0.110D-02 0.473D-02
 Coeff-Com:  0.172D-01 0.229D-01-0.361D-01-0.213D+00-0.180D+00 0.492D+00
 Coeff-Com:  0.893D+00
 Coeff:      0.121D-03-0.250D-03-0.347D-03-0.422D-03 0.110D-02 0.473D-02
 Coeff:      0.172D-01 0.229D-01-0.361D-01-0.213D+00-0.180D+00 0.492D+00
 Coeff:      0.893D+00
 Gap=     0.117 Goal=   None    Shift=    0.000
 RMSDP=4.33D-07 MaxDP=2.19D-05 DE=-1.32D-07 OVMax= 2.68D-04

 Cycle  14  Pass 1  IDiag  1:
 RMSU=  8.95D-08    CP:  9.63D-01  1.50D+00  6.82D-01  6.23D-01  8.31D-01
                    CP:  8.90D-01  1.13D+00  1.40D+00  1.71D+00  2.14D+00
                    CP:  1.79D+00  1.77D+00  1.26D+00
 E= -4069.81358873120     Delta-E=       -0.000000058179 Rises=F Damp=F
 DIIS: error= 8.81D-07 at cycle  14 NSaved=  14.
 NSaved=14 IEnMin=14 EnMin= -4069.81358873120     IErMin=14 ErrMin= 8.81D-07
 ErrMax= 8.81D-07  0.00D+00 EMaxC= 1.00D-01 BMatC= 1.89D-09 BMatP= 1.15D-08
 IDIUse=1 WtCom= 1.00D+00 WtEn= 0.00D+00
 Coeff-Com:  0.790D-04-0.156D-03-0.282D-03-0.438D-03-0.368D-03 0.117D-02
 Coeff-Com:  0.101D-01 0.226D-01 0.695D-02-0.103D+00-0.153D+00 0.272D-01
 Coeff-Com:  0.436D+00 0.753D+00
 Coeff:      0.790D-04-0.156D-03-0.282D-03-0.438D-03-0.368D-03 0.117D-02
 Coeff:      0.101D-01 0.226D-01 0.695D-02-0.103D+00-0.153D+00 0.272D-01
 Coeff:      0.436D+00 0.753D+00
 Gap=     0.117 Goal=   None    Shift=    0.000
 RMSDP=1.44D-07 MaxDP=7.77D-06 DE=-5.82D-08 OVMax= 8.25D-05

 Cycle  15  Pass 1  IDiag  1:
 RMSU=  4.42D-08    CP:  9.63D-01  1.50D+00  6.82D-01  6.23D-01  8.31D-01
                    CP:  8.90D-01  1.13D+00  1.40D+00  1.74D+00  2.19D+00
                    CP:  1.91D+00  1.95D+00  1.52D+00  1.07D+00
 E= -4069.81358873783     Delta-E=       -0.000000006625 Rises=F Damp=F
 DIIS: error= 3.74D-07 at cycle  15 NSaved=  15.
 NSaved=15 IEnMin=15 EnMin= -4069.81358873783     IErMin=15 ErrMin= 3.74D-07
 ErrMax= 3.74D-07  0.00D+00 EMaxC= 1.00D-01 BMatC= 3.05D-10 BMatP= 1.89D-09
 IDIUse=1 WtCom= 1.00D+00 WtEn= 0.00D+00
 Coeff-Com:  0.130D-04-0.238D-04-0.590D-04-0.122D-03-0.305D-03-0.475D-03
 Coeff-Com:  0.165D-02 0.479D-02 0.954D-02-0.751D-02-0.336D-01-0.716D-01
 Coeff-Com:  0.525D-01 0.327D+00 0.719D+00
 Coeff:      0.130D-04-0.238D-04-0.590D-04-0.122D-03-0.305D-03-0.475D-03
 Coeff:      0.165D-02 0.479D-02 0.954D-02-0.751D-02-0.336D-01-0.716D-01
 Coeff:      0.525D-01 0.327D+00 0.719D+00
 Gap=     0.117 Goal=   None    Shift=    0.000
 RMSDP=3.85D-08 MaxDP=1.97D-06 DE=-6.62D-09 OVMax= 2.80D-05

 Cycle  16  Pass 1  IDiag  1:
 RMSU=  2.09D-08    CP:  9.63D-01  1.50D+00  6.82D-01  6.23D-01  8.31D-01
                    CP:  8.90D-01  1.13D+00  1.41D+00  1.74D+00  2.20D+00
                    CP:  1.93D+00  1.99D+00  1.59D+00  1.24D+00  1.12D+00
 E= -4069.81358873886     Delta-E=       -0.000000001033 Rises=F Damp=F
 DIIS: error= 1.59D-07 at cycle  16 NSaved=  16.
 NSaved=16 IEnMin=16 EnMin= -4069.81358873886     IErMin=16 ErrMin= 1.59D-07
 ErrMax= 1.59D-07  0.00D+00 EMaxC= 1.00D-01 BMatC= 1.09D-10 BMatP= 3.05D-10
 IDIUse=1 WtCom= 1.00D+00 WtEn= 0.00D+00
 Coeff-Com: -0.137D-04 0.281D-04 0.430D-04 0.456D-04-0.549D-04-0.616D-03
 Coeff-Com: -0.162D-02-0.395D-02 0.396D-02 0.218D-01 0.231D-01-0.499D-01
 Coeff-Com: -0.829D-01-0.352D-01 0.368D+00 0.757D+00
 Coeff:     -0.137D-04 0.281D-04 0.430D-04 0.456D-04-0.549D-04-0.616D-03
 Coeff:     -0.162D-02-0.395D-02 0.396D-02 0.218D-01 0.231D-01-0.499D-01
 Coeff:     -0.829D-01-0.352D-01 0.368D+00 0.757D+00
 Gap=     0.117 Goal=   None    Shift=    0.000
 RMSDP=2.63D-08 MaxDP=1.45D-06 DE=-1.03D-09 OVMax= 1.54D-05

 Cycle  17  Pass 1  IDiag  1:
 RMSU=  1.20D-08    CP:  9.63D-01  1.50D+00  6.82D-01  6.23D-01  8.31D-01
                    CP:  8.90D-01  1.13D+00  1.41D+00  1.74D+00  2.21D+00
                    CP:  1.94D+00  2.01D+00  1.64D+00  1.34D+00  1.40D+00
                    CP:  1.22D+00
 E= -4069.81358873923     Delta-E=       -0.000000000375 Rises=F Damp=F
 DIIS: error= 8.47D-08 at cycle  17 NSaved=  17.
 NSaved=17 IEnMin=17 EnMin= -4069.81358873923     IErMin=17 ErrMin= 8.47D-08
 ErrMax= 8.47D-08  0.00D+00 EMaxC= 1.00D-01 BMatC= 2.38D-11 BMatP= 1.09D-10
 IDIUse=1 WtCom= 1.00D+00 WtEn= 0.00D+00
 Coeff-Com: -0.914D-05 0.179D-04 0.337D-04 0.477D-04 0.702D-04-0.164D-03
 Coeff-Com: -0.965D-03-0.316D-02-0.142D-03 0.104D-01 0.190D-01-0.550D-02
 Coeff-Com: -0.432D-01-0.959D-01-0.158D-01 0.316D+00 0.819D+00
 Coeff:     -0.914D-05 0.179D-04 0.337D-04 0.477D-04 0.702D-04-0.164D-03
 Coeff:     -0.965D-03-0.316D-02-0.142D-03 0.104D-01 0.190D-01-0.550D-02
 Coeff:     -0.432D-01-0.959D-01-0.158D-01 0.316D+00 0.819D+00
 Gap=     0.117 Goal=   None    Shift=    0.000
 RMSDP=1.44D-08 MaxDP=6.36D-07 DE=-3.75D-10 OVMax= 9.58D-06

 Cycle  18  Pass 1  IDiag  1:
 RMSU=  5.81D-09    CP:  9.63D-01  1.50D+00  6.82D-01  6.23D-01  8.31D-01
                    CP:  8.90D-01  1.13D+00  1.41D+00  1.74D+00  2.21D+00
                    CP:  1.94D+00  2.02D+00  1.66D+00  1.39D+00  1.55D+00
                    CP:  1.59D+00  1.34D+00
 E= -4069.81358873918     Delta-E=        0.000000000051 Rises=F Damp=F
 DIIS: error= 4.97D-08 at cycle  18 NSaved=  18.
 NSaved=18 IEnMin=17 EnMin= -4069.81358873923     IErMin=18 ErrMin= 4.97D-08
 ErrMax= 4.97D-08  0.00D+00 EMaxC= 1.00D-01 BMatC= 9.12D-12 BMatP= 2.38D-11
 IDIUse=1 WtCom= 1.00D+00 WtEn= 0.00D+00
 Coeff-Com:  0.360D-06-0.109D-05 0.160D-05 0.638D-05 0.688D-04 0.135D-03
 Coeff-Com:  0.187D-03-0.224D-03-0.118D-02-0.322D-02 0.141D-02 0.139D-01
 Coeff-Com:  0.120D-01-0.346D-01-0.143D+00-0.138D+00 0.386D+00 0.907D+00
 Coeff:      0.360D-06-0.109D-05 0.160D-05 0.638D-05 0.688D-04 0.135D-03
 Coeff:      0.187D-03-0.224D-03-0.118D-02-0.322D-02 0.141D-02 0.139D-01
 Coeff:      0.120D-01-0.346D-01-0.143D+00-0.138D+00 0.386D+00 0.907D+00
 Gap=     0.117 Goal=   None    Shift=    0.000
 RMSDP=1.13D-08 MaxDP=5.83D-07 DE= 5.09D-11 OVMax= 6.60D-06

 Cycle  19  Pass 1  IDiag  1:
 RMSU=  3.22D-09    CP:  9.63D-01  1.50D+00  6.82D-01  6.23D-01  8.31D-01
                    CP:  8.90D-01  1.13D+00  1.41D+00  1.74D+00  2.21D+00
                    CP:  1.94D+00  2.02D+00  1.67D+00  1.43D+00  1.68D+00
                    CP:  1.85D+00  1.85D+00  1.24D+00
 E= -4069.81358873940     Delta-E=       -0.000000000218 Rises=F Damp=F
 DIIS: error= 2.76D-08 at cycle  19 NSaved=  19.
 NSaved=19 IEnMin=19 EnMin= -4069.81358873940     IErMin=19 ErrMin= 2.76D-08
 ErrMax= 2.76D-08  0.00D+00 EMaxC= 1.00D-01 BMatC= 2.50D-12 BMatP= 9.12D-12
 IDIUse=1 WtCom= 1.00D+00 WtEn= 0.00D+00
 Coeff-Com:  0.318D-05-0.647D-05-0.102D-04-0.123D-04 0.221D-04 0.131D-03
 Coeff-Com:  0.446D-03 0.880D-03-0.572D-03-0.577D-02-0.563D-02 0.940D-02
 Coeff-Com:  0.225D-01 0.119D-01-0.789D-01-0.193D+00-0.351D-01 0.510D+00
 Coeff-Com:  0.763D+00
 Coeff:      0.318D-05-0.647D-05-0.102D-04-0.123D-04 0.221D-04 0.131D-03
 Coeff:      0.446D-03 0.880D-03-0.572D-03-0.577D-02-0.563D-02 0.940D-02
 Coeff:      0.225D-01 0.119D-01-0.789D-01-0.193D+00-0.351D-01 0.510D+00
 Coeff:      0.763D+00
 Gap=     0.117 Goal=   None    Shift=    0.000
 RMSDP=6.33D-09 MaxDP=5.18D-07 DE=-2.18D-10 OVMax= 4.10D-06

 SCF Done:  E(RCAM-B3LYP) =  -4069.81358874     A.U. after   19 cycles
            NFock= 19  Conv=0.63D-08     -V/T= 2.0102
 KE= 4.028773988600D+03 PE=-4.199059599615D+04 EE= 1.763724401086D+04
 Leave Link  502 at Thu Sep  9 05:29:11 2021, MaxMem= 23488102400 cpu:           19812.2 elap:             854.6
 (Enter /sw/apps/gaussian-16.0/g16/l801.exe)
 DoSCS=F DFT=T ScalE2(SS,OS)=  1.000000  1.000000
 ExpMin= 3.36D-02 ExpMax= 4.95D+03 ExpMxC= 7.45D+02 IAcc=3 IRadAn=         5 AccDes= 0.00D+00
 HarFok:  IExCor=  205 AccDes= 0.00D+00 IRadAn=         5 IDoV=-2 UseB2=F ITyADJ=14
 ICtDFT= 12500011 ScaDFX=  1.000000  1.000000  1.000000  1.000000
 GSVD:  LWork=       -9588 too small for GESVD, short by       45590 words or       45590 for optimal perf.
 Largest valence mixing into a core orbital is  2.03D-04
 Largest core mixing into a valence orbital is  5.24D-05
 Range of M.O.s used for correlation:    95  1572
 NBasis=  1572 NAE=   312 NBE=   312 NFC=    94 NFV=     0
 NROrb=   1478 NOA=   218 NOB=   218 NVA=  1260 NVB=  1260
 Leave Link  801 at Thu Sep  9 05:29:11 2021, MaxMem= 23488102400 cpu:               9.0 elap:               0.4
 (Enter /sw/apps/gaussian-16.0/g16/l914.exe)
 RHF ground state
 Two-electron integrals replicated using symmetry.
 MDV= 23488102400 DFT=T DoStab=F Mixed=T DoRPA=T DoScal=F NonHer=T
 Making orbital integer symmetry assigments:
 Orbital symmetries:
       Occupied  (A) (A) (A) (A) (A) (A) (A) (A) (A) (A) (A) (A)
                 (A) (A) (A) (A) (A) (A) (A) (A) (A) (A) (A) (A)
                 (A) (A) (A) (A) (A) (A) (A) (A) (A) (A) (A) (A)
                 (A) (A) (A) (A) (A) (A) (A) (A) (A) (A) (A) (A)
                 (A) (A) (A) (A) (A) (A) (A) (A) (A) (A) (A) (A)
                 (A) (A) (A) (A) (A) (A) (A) (A) (A) (A) (A) (A)
                 (A) (A) (A) (A) (A) (A) (A) (A) (A) (A) (A) (A)
                 (A) (A) (A) (A) (A) (A) (A) (A) (A) (A) (A) (A)
                 (A) (A) (A) (A) (A) (A) (A) (A) (A) (A) (A) (A)
                 (A) (A) (A) (A) (A) (A) (A) (A) (A) (A) (A) (A)
                 (A) (A) (A) (A) (A) (A) (A) (A) (A) (A) (A) (A)
                 (A) (A) (A) (A) (A) (A) (A) (A) (A) (A) (A) (A)
                 (A) (A) (A) (A) (A) (A) (A) (A) (A) (A) (A) (A)
                 (A) (A) (A) (A) (A) (A) (A) (A) (A) (A) (A) (A)
                 (A) (A) (A) (A) (A) (A) (A) (A) (A) (A) (A) (A)
                 (A) (A) (A) (A) (A) (A) (A) (A) (A) (A) (A) (A)
                 (A) (A) (A) (A) (A) (A) (A) (A) (A) (A) (A) (A)
                 (A) (A) (A) (A) (A) (A) (A) (A) (A) (A) (A) (A)
                 (A) (A) (A) (A) (A) (A) (A) (A) (A) (A) (A) (A)
                 (A) (A) (A) (A) (A) (A) (A) (A) (A) (A) (A) (A)
                 (A) (A) (A) (A) (A) (A) (A) (A) (A) (A) (A) (A)
                 (A) (A) (A) (A) (A) (A) (A) (A) (A) (A) (A) (A)
                 (A) (A) (A) (A) (A) (A) (A) (A) (A) (A) (A) (A)
                 (A) (A) (A) (A) (A) (A) (A) (A) (A) (A) (A) (A)
                 (A) (A) (A) (A) (A) (A) (A) (A) (A) (A) (A) (A)
                 (A) (A) (A) (A) (A) (A) (A) (A) (A) (A) (A) (A)
       Virtual   (A) (A) (A) (A) (A) (A) (A) (A) (A) (A) (A) (A)
                 (A) (A) (A) (A) (A) (A) (A) (A) (A) (A) (A) (A)
                 (A) (A) (A) (A) (A) (A) (A) (A) (A) (A) (A) (A)
                 (A) (A) (A) (A) (A) (A) (A) (A) (A) (A) (A) (A)
                 (A) (A) (A) (A) (A) (A) (A) (A) (A) (A) (A) (A)
                 (A) (A) (A) (A) (A) (A) (A) (A) (A) (A) (A) (A)
                 (A) (A) (A) (A) (A) (A) (A) (A) (A) (A) (A) (A)
                 (A) (A) (A) (A) (A) (A) (A) (A) (A) (A) (A) (A)
                 (A) (A) (A) (A) (A) (A) (A) (A) (A) (A) (A) (A)
                 (A) (A) (A) (A) (A) (A) (A) (A) (A) (A) (A) (A)
                 (A) (A) (A) (A) (A) (A) (A) (A) (A) (A) (A) (A)
                 (A) (A) (A) (A) (A) (A) (A) (A) (A) (A) (A) (A)
                 (A) (A) (A) (A) (A) (A) (A) (A) (A) (A) (A) (A)
                 (A) (A) (A) (A) (A) (A) (A) (A) (A) (A) (A) (A)
                 (A) (A) (A) (A) (A) (A) (A) (A) (A) (A) (A) (A)
                 (A) (A) (A) (A) (A) (A) (A) (A) (A) (A) (A) (A)
                 (A) (A) (A) (A) (A) (A) (A) (A) (A) (A) (A) (A)
                 (A) (A) (A) (A) (A) (A) (A) (A) (A) (A) (A) (A)
                 (A) (A) (A) (A) (A) (A) (A) (A) (A) (A) (A) (A)
                 (A) (A) (A) (A) (A) (A) (A) (A) (A) (A) (A) (A)
                 (A) (A) (A) (A) (A) (A) (A) (A) (A) (A) (A) (A)
                 (A) (A) (A) (A) (A) (A) (A) (A) (A) (A) (A) (A)
                 (A) (A) (A) (A) (A) (A) (A) (A) (A) (A) (A) (A)
                 (A) (A) (A) (A) (A) (A) (A) (A) (A) (A) (A) (A)
                 (A) (A) (A) (A) (A) (A) (A) (A) (A) (A) (A) (A)
                 (A) (A) (A) (A) (A) (A) (A) (A) (A) (A) (A) (A)
                 (A) (A) (A) (A) (A) (A) (A) (A) (A) (A) (A) (A)
                 (A) (A) (A) (A) (A) (A) (A) (A) (A) (A) (A) (A)
                 (A) (A) (A) (A) (A) (A) (A) (A) (A) (A) (A) (A)
                 (A) (A) (A) (A) (A) (A) (A) (A) (A) (A) (A) (A)
                 (A) (A) (A) (A) (A) (A) (A) (A) (A) (A) (A) (A)
                 (A) (A) (A) (A) (A) (A) (A) (A) (A) (A) (A) (A)
                 (A) (A) (A) (A) (A) (A) (A) (A) (A) (A) (A) (A)
                 (A) (A) (A) (A) (A) (A) (A) (A) (A) (A) (A) (A)
                 (A) (A) (A) (A) (A) (A) (A) (A) (A) (A) (A) (A)
                 (A) (A) (A) (A) (A) (A) (A) (A) (A) (A) (A) (A)
                 (A) (A) (A) (A) (A) (A) (A) (A) (A) (A) (A) (A)
                 (A) (A) (A) (A) (A) (A) (A) (A) (A) (A) (A) (A)
                 (A) (A) (A) (A) (A) (A) (A) (A) (A) (A) (A) (A)
                 (A) (A) (A) (A) (A) (A) (A) (A) (A) (A) (A) (A)
                 (A) (A) (A) (A) (A) (A) (A) (A) (A) (A) (A) (A)
                 (A) (A) (A) (A) (A) (A) (A) (A) (A) (A) (A) (A)
                 (A) (A) (A) (A) (A) (A) (A) (A) (A) (A) (A) (A)
                 (A) (A) (A) (A) (A) (A) (A) (A) (A) (A) (A) (A)
                 (A) (A) (A) (A) (A) (A) (A) (A) (A) (A) (A) (A)
                 (A) (A) (A) (A) (A) (A) (A) (A) (A) (A) (A) (A)
                 (A) (A) (A) (A) (A) (A) (A) (A) (A) (A) (A) (A)
                 (A) (A) (A) (A) (A) (A) (A) (A) (A) (A) (A) (A)
                 (A) (A) (A) (A) (A) (A) (A) (A) (A) (A) (A) (A)
                 (A) (A) (A) (A) (A) (A) (A) (A) (A) (A) (A) (A)
                 (A) (A) (A) (A) (A) (A) (A) (A) (A) (A) (A) (A)
                 (A) (A) (A) (A) (A) (A) (A) (A) (A) (A) (A) (A)
                 (A) (A) (A) (A) (A) (A) (A) (A) (A) (A) (A) (A)
                 (A) (A) (A) (A) (A) (A) (A) (A) (A) (A) (A) (A)
                 (A) (A) (A) (A) (A) (A) (A) (A) (A) (A) (A) (A)
                 (A) (A) (A) (A) (A) (A) (A) (A) (A) (A) (A) (A)
                 (A) (A) (A) (A) (A) (A) (A) (A) (A) (A) (A) (A)
                 (A) (A) (A) (A) (A) (A) (A) (A) (A) (A) (A) (A)
                 (A) (A) (A) (A) (A) (A) (A) (A) (A) (A) (A) (A)
                 (A) (A) (A) (A) (A) (A) (A) (A) (A) (A) (A) (A)
                 (A) (A) (A) (A) (A) (A) (A) (A) (A) (A) (A) (A)
                 (A) (A) (A) (A) (A) (A) (A) (A) (A) (A) (A) (A)
                 (A) (A) (A) (A) (A) (A) (A) (A) (A) (A) (A) (A)
                 (A) (A) (A) (A) (A) (A) (A) (A) (A) (A) (A) (A)
                 (A) (A) (A) (A) (A) (A) (A) (A) (A) (A) (A) (A)
                 (A) (A) (A) (A) (A) (A) (A) (A) (A) (A) (A) (A)
                 (A) (A) (A) (A) (A) (A) (A) (A) (A) (A) (A) (A)
                 (A) (A) (A) (A) (A) (A) (A) (A) (A) (A) (A) (A)
                 (A) (A) (A) (A) (A) (A) (A) (A) (A) (A) (A) (A)
                 (A) (A) (A) (A) (A) (A) (A) (A) (A) (A) (A) (A)
                 (A) (A) (A) (A) (A) (A) (A) (A) (A) (A) (A) (A)
                 (A) (A) (A) (A) (A) (A) (A) (A) (A) (A) (A) (A)
                 (A) (A) (A) (A) (A) (A) (A) (A) (A) (A) (A) (A)
                 (A) (A) (A) (A) (A) (A) (A) (A) (A) (A) (A) (A)
                 (A) (A) (A) (A) (A) (A) (A) (A) (A) (A) (A) (A)
                 (A) (A) (A) (A) (A) (A) (A) (A) (A) (A) (A) (A)
                 (A) (A) (A) (A) (A) (A) (A) (A) (A) (A) (A) (A)
                 (A) (A) (A) (A) (A) (A) (A) (A) (A) (A) (A) (A)
                 (A) (A) (A) (A) (A) (A) (A) (A) (A) (A) (A) (A)
                 (A) (A) (A) (A) (A) (A) (A) (A) (A) (A) (A) (A)
                 (A) (A) (A) (A) (A) (A) (A) (A) (A) (A) (A) (A)
                 (A) (A) (A) (A) (A) (A) (A) (A) (A) (A) (A) (A)
                 (A) (A) (A) (A) (A) (A) (A) (A) (A) (A) (A) (A)
                 (A) (A) (A) (A) (A) (A) (A) (A) (A) (A) (A) (A)
                 (A) (A) (A) (A) (A) (A) (A) (A) (A) (A) (A) (A)
                 (A) (A) (A) (A) (A) (A) (A) (A) (A) (A) (A) (A)
                 (A) (A) (A) (A) (A) (A) (A) (A) (A) (A) (A) (A)
                 (A) (A) (A) (A) (A) (A) (A) (A) (A) (A) (A) (A)
                 (A) (A) (A) (A) (A) (A) (A) (A) (A) (A) (A) (A)
                 (A) (A) (A) (A) (A) (A) (A) (A) (A) (A) (A) (A)
                 (A) (A) (A) (A) (A) (A) (A) (A) (A) (A) (A) (A)
                 (A) (A) (A) (A) (A) (A) (A) (A) (A) (A) (A) (A)
                 (A) (A) (A) (A) (A) (A) (A) (A) (A) (A) (A) (A)
                 (A) (A) (A) (A) (A) (A) (A) (A) (A) (A) (A) (A)
                 (A) (A) (A) (A) (A) (A) (A) (A) (A) (A) (A) (A)
                 (A) (A) (A) (A) (A) (A) (A) (A) (A) (A) (A) (A)
                 (A) (A) (A) (A) (A) (A) (A) (A) (A) (A) (A) (A)
                 (A) (A) (A) (A) (A) (A) (A) (A) (A) (A) (A) (A)
                 (A) (A) (A) (A) (A) (A) (A) (A) (A) (A) (A) (A)
                 (A) (A) (A) (A) (A) (A) (A) (A) (A) (A) (A) (A)
                 (A) (A) (A) (A) (A) (A) (A) (A) (A) (A) (A) (A)
                 (A) (A) (A) (A) (A) (A) (A) (A) (A) (A) (A) (A)
                 (A) (A) (A) (A) (A) (A) (A) (A) (A) (A) (A) (A)
                 (A) (A) (A) (A) (A) (A) (A) (A) (A) (A) (A) (A)
                 (A) (A) (A) (A) (A) (A) (A) (A) (A) (A) (A) (A)
    20 initial guesses have been made.
 Convergence on wavefunction:    0.001000000000000
 Davidson Disk Diagonalization:  ConvIn= 1.00D-03 SkipCon=T Conv= 1.00D-03.
 Max sub-space:  2000 roots to seek:    20 dimension of matrix:       549360
 Iteration     1 Dimension    20 NMult     0 NNew     20
 CISAX will form    20 AO SS matrices at one time.
 NMat=    20 NSing=    20 JSym2X= 0.
 FoFJK:  IHMeth= 1 ICntrl=       0 DoSepK=T KAlg= 0 I1Cent=           0 FoldK=F
 IRaf=         1 NMat=      40 IRICut=       1 DoRegI=T DoRafI=F ISym2E= 0 IDoP0=3 IntGTp=3.
 FoFCou: FMM=T IPFlag=           0 FMFlag=      100000 FMFlg1=        2001
         NFxFlg=           0 DoJE=F BraDBF=F KetDBF=F FulRan=T
         wScrn=  0.000000 ICntrl=       500 IOpCl=  0 I1Cent=           0 NGrid=           0
         NMat0=   20 NMatS0=     20 NMatT0=    0 NMatD0=   20 NMtDS0=    0 NMtDT0=    0
 Symmetry not used in FoFCou.
 FMM levels:  10  Number of levels for PrismC:   9
 New state      2 was old state      4
 New state      3 was old state      2
 New state      4 was old state      7
 New state      5 was old state      6
 Excitation Energies [eV] at current iteration:
 Root      1 :     2.138802506925369
 Root      2 :     2.512465034917671
 Root      3 :     2.574767084192373
 Root      4 :     2.614794084887674
 Root      5 :     2.625204483317276
 Root      6 :     2.784453651959189
 Root      7 :     2.907585159419652
 Root      8 :     3.306380623140460
 Root      9 :     3.611166522939103
 Root     10 :     3.660514798572324
 Root     11 :     3.746937702184342
 Root     12 :     3.761028181674837
 Root     13 :     4.040046749668301
 Root     14 :     4.236515452747609
 Root     15 :     4.367790707791038
 Root     16 :     4.372772156542949
 Root     17 :     4.435588280470800
 Root     18 :     4.465625960660889
 Root     19 :     4.506835636694319
 Root     20 :     4.527682325322783
 Iteration     2 Dimension    30 NMult    20 NNew     10
 CISAX will form    10 AO SS matrices at one time.
 NMat=    10 NSing=    10 JSym2X= 0.
 New state      1 was old state      3
 Root      1 not converged, maximum delta is    0.217313630075743
 New state      2 was old state      1
 Root      2 not converged, maximum delta is    0.023046618754484
 New state      3 was old state      4
 Root      3 not converged, maximum delta is    0.241267321756188
 New state      4 was old state      5
 Root      4 not converged, maximum delta is    0.220353716849662
 New state      5 was old state      2
 Root      5 not converged, maximum delta is    0.008051453539227
 Excitation Energies [eV] at current iteration:
 Root      1 :     1.753694771999931   Change is   -0.821072312192442
 Root      2 :     2.133224883634498   Change is   -0.005577623290871
 Root      3 :     2.222956941608931   Change is   -0.391837143278743
 Root      4 :     2.244775118367320   Change is   -0.380429364949956
 Root      5 :     2.509605821383662   Change is   -0.002859213534009
 Iteration     3 Dimension    40 NMult    30 NNew     10
 CISAX will form    10 AO SS matrices at one time.
 NMat=    10 NSing=    10 JSym2X= 0.
 Root      1 not converged, maximum delta is    0.051982632050759
 No map to state      2
 New state      3 was old state      2
 Root      3 not converged, maximum delta is    0.016857139648480
 New state      4 was old state      3
 Root      4 not converged, maximum delta is    0.070126786704060
 New state      5 was old state      4
 Root      5 not converged, maximum delta is    0.067857705733292
 Excitation Energies [eV] at current iteration:
 Root      1 :     1.651897548132744   Change is   -0.101797223867186
 Root      2 :     1.909355873126183
 Root      3 :     2.133039817816060   Change is   -0.000185065818439
 Root      4 :     2.183659231173224   Change is   -0.039297710435707
 Root      5 :     2.205664029657826   Change is   -0.039111088709493
 Iteration     4 Dimension    50 NMult    40 NNew     10
 CISAX will form    10 AO SS matrices at one time.
 NMat=    10 NSing=    10 JSym2X= 0.
 Root      1 not converged, maximum delta is    0.012544522402657
 Root      2 not converged, maximum delta is    0.031968262267944
 Root      3 not converged, maximum delta is    0.005383434729103
 Root      4 not converged, maximum delta is    0.023188666547877
 Root      5 not converged, maximum delta is    0.022522592611946
 Excitation Energies [eV] at current iteration:
 Root      1 :     1.635660032515594   Change is   -0.016237515617150
 Root      2 :     1.743233960122937   Change is   -0.166121913003245
 Root      3 :     2.132992523131798   Change is   -0.000047294684262
 Root      4 :     2.176489803367969   Change is   -0.007169427805254
 Root      5 :     2.198093102653640   Change is   -0.007570927004186
 Iteration     5 Dimension    60 NMult    50 NNew     10
 CISAX will form    10 AO SS matrices at one time.
 NMat=    10 NSing=    10 JSym2X= 0.
 Root      1 not converged, maximum delta is    0.001929135815620
 Root      2 not converged, maximum delta is    0.018787562331394
 Root      3 has converged.
 Root      4 not converged, maximum delta is    0.003329163529517
 Root      5 not converged, maximum delta is    0.003283479846995
 Excitation Energies [eV] at current iteration:
 Root      1 :     1.634014946689685   Change is   -0.001645085825909
 Root      2 :     1.715052782422007   Change is   -0.028181177700930
 Root      3 :     2.132986241843157   Change is   -0.000006281288640
 Root      4 :     2.175668008548774   Change is   -0.000821794819196
 Root      5 :     2.197148681300177   Change is   -0.000944421353463
 Iteration     6 Dimension    68 NMult    60 NNew      8
 CISAX will form     8 AO SS matrices at one time.
 NMat=     8 NSing=     8 JSym2X= 0.
 Root      1 has converged.
 Root      2 not converged, maximum delta is    0.003830479202688
 Root      3 has converged.
 Root      4 has converged.
 Root      5 has converged.
 Excitation Energies [eV] at current iteration:
 Root      1 :     1.633781284111378   Change is   -0.000233662578308
 Root      2 :     1.712573688525111   Change is   -0.002479093896896
 Root      3 :     2.132985436770399   Change is   -0.000000805072758
 Root      4 :     2.175544679692885   Change is   -0.000123328855888
 Root      5 :     2.197023857077935   Change is   -0.000124824222243
 Iteration     7 Dimension    70 NMult    68 NNew      2
 CISAX will form     2 AO SS matrices at one time.
 NMat=     2 NSing=     2 JSym2X= 0.
 Root      1 has converged.
 Root      2 not converged, maximum delta is    0.001158494713485
 Root      3 has converged.
 Root      4 has converged.
 Root      5 has converged.
 Excitation Energies [eV] at current iteration:
[...]
 Alpha virt. eigenvalues --    1.83001   1.83117   1.83149   1.83581   1.83593
 Alpha virt. eigenvalues --    1.83788   1.83870   1.84253   1.84277   1.84475
 Alpha virt. eigenvalues --    1.84557   1.84823   1.84969   1.85153   1.85247
 Alpha virt. eigenvalues --    1.85335   1.85490   1.85555   1.85655   1.85794
 Alpha virt. eigenvalues --    1.86078   1.86240   1.86462   1.86624   1.86699
 Alpha virt. eigenvalues --    1.86786   1.86994   1.87044   1.87201   1.87293
 Alpha virt. eigenvalues --    1.87539   1.87591   1.87896   1.87949   1.88264
 Alpha virt. eigenvalues --    1.88326   1.88363   1.88450   1.88677   1.88870
 Alpha virt. eigenvalues --    1.89034   1.89326   1.89465   1.89590   1.89875
 Alpha virt. eigenvalues --    1.89882   1.90158   1.90339   1.90440   1.90667
 Alpha virt. eigenvalues --    1.91160   1.91244   1.91567   1.91743   1.91853
 Alpha virt. eigenvalues --    1.92233   1.92492   1.92732   1.92955   1.93033
 Alpha virt. eigenvalues --    1.93302   1.93564   1.93963   1.94135   1.94488
 Alpha virt. eigenvalues --    1.94640   1.95132   1.95316   1.95372   1.95661
 Alpha virt. eigenvalues --    1.95850   1.95962   1.96021   1.96377   1.96480
 Alpha virt. eigenvalues --    1.96704   1.96800   1.96919   1.97099   1.97561
 Alpha virt. eigenvalues --    1.97574   1.97712   1.97983   1.98139   1.98321
 Alpha virt. eigenvalues --    1.98682   1.98831   1.98862   1.99157   1.99691
 Alpha virt. eigenvalues --    2.00100   2.00438   2.00855   2.00955   2.01372
 Alpha virt. eigenvalues --    2.01455   2.01636   2.01645   2.01973   2.02218
 Alpha virt. eigenvalues --    2.02386   2.02824   2.02870   2.03090   2.03197
 Alpha virt. eigenvalues --    2.03249   2.03550   2.03883   2.04108   2.04202
 Alpha virt. eigenvalues --    2.04529   2.04779   2.05193   2.05351   2.05627
 Alpha virt. eigenvalues --    2.06120   2.06493   2.06877   2.07275   2.07422
 Alpha virt. eigenvalues --    2.07663   2.07845   2.08408   2.08812   2.08946
 Alpha virt. eigenvalues --    2.09448   2.09793   2.10186   2.10660   2.11031
 Alpha virt. eigenvalues --    2.11311   2.11483   2.11606   2.11976   2.12221
 Alpha virt. eigenvalues --    2.12432   2.12513   2.12621   2.12956   2.13103
 Alpha virt. eigenvalues --    2.13424   2.13999   2.14197   2.14560   2.14692
 Alpha virt. eigenvalues --    2.15184   2.15454   2.15813   2.15904   2.16396
 Alpha virt. eigenvalues --    2.16621   2.16651   2.17301   2.17454   2.17589
 Alpha virt. eigenvalues --    2.17675   2.17917   2.17967   2.18215   2.18500
 Alpha virt. eigenvalues --    2.18577   2.19026   2.19564   2.19700   2.19932
 Alpha virt. eigenvalues --    2.20103   2.20236   2.20774   2.20992   2.21156
 Alpha virt. eigenvalues --    2.21384   2.21465   2.21503   2.21954   2.22350
 Alpha virt. eigenvalues --    2.22441   2.22608   2.23179   2.23428   2.23801
 Alpha virt. eigenvalues --    2.24250   2.24805   2.24894   2.25427   2.26176
 Alpha virt. eigenvalues --    2.26584   2.26981   2.27031   2.27491   2.27846
 Alpha virt. eigenvalues --    2.28096   2.29060   2.29224   2.29650   2.30015
 Alpha virt. eigenvalues --    2.30250   2.30793   2.30968   2.30998   2.31578
 Alpha virt. eigenvalues --    2.31698   2.31812   2.32223   2.32606   2.32957
 Alpha virt. eigenvalues --    2.33396   2.33692   2.33936   2.34075   2.34618
 Alpha virt. eigenvalues --    2.35191   2.35566   2.35991   2.36295   2.36396
 Alpha virt. eigenvalues --    2.36632   2.36747   2.36993   2.37627   2.37989
 Alpha virt. eigenvalues --    2.38080   2.38618   2.38777   2.39391   2.39412
 Alpha virt. eigenvalues --    2.40048   2.40172   2.40273   2.40614   2.41247
 Alpha virt. eigenvalues --    2.41401   2.41513   2.41772   2.41903   2.42182
 Alpha virt. eigenvalues --    2.42657   2.42802   2.43081   2.43296   2.43699
 Alpha virt. eigenvalues --    2.43950   2.44403   2.44537   2.44712   2.45217
 Alpha virt. eigenvalues --    2.45369   2.45700   2.46027   2.46108   2.46289
 Alpha virt. eigenvalues --    2.46649   2.46777   2.46902   2.47124   2.47343
 Alpha virt. eigenvalues --    2.47614   2.47757   2.48229   2.49174   2.49629
 Alpha virt. eigenvalues --    2.49879   2.50142   2.50388   2.50761   2.51278
 Alpha virt. eigenvalues --    2.51776   2.51935   2.51976   2.52399   2.52705
 Alpha virt. eigenvalues --    2.53052   2.53762   2.53817   2.53952   2.54321
 Alpha virt. eigenvalues --    2.54546   2.54657   2.55226   2.55348   2.56154
 Alpha virt. eigenvalues --    2.57701   2.58420   2.58476   2.59510   2.60064
 Alpha virt. eigenvalues --    2.60384   2.60957   2.61469   2.61509   2.62219
 Alpha virt. eigenvalues --    2.62458   2.62779   2.62928   2.63532   2.63718
 Alpha virt. eigenvalues --    2.64099   2.64652   2.64667   2.64946   2.65485
 Alpha virt. eigenvalues --    2.65650   2.66283   2.66601   2.66696   2.67134
 Alpha virt. eigenvalues --    2.67510   2.67720   2.68382   2.68620   2.68821
 Alpha virt. eigenvalues --    2.69138   2.69191   2.69565   2.69848   2.70161
 Alpha virt. eigenvalues --    2.70472   2.70799   2.71609   2.71950   2.72257
 Alpha virt. eigenvalues --    2.72470   2.72690   2.73102   2.73197   2.73218
 Alpha virt. eigenvalues --    2.73616   2.73932   2.74022   2.74486   2.74861
 Alpha virt. eigenvalues --    2.74994   2.75475   2.76414   2.76863   2.77067
 Alpha virt. eigenvalues --    2.77253   2.77517   2.77943   2.77976   2.78504
 Alpha virt. eigenvalues --    2.78606   2.78910   2.79034   2.79605   2.80116
 Alpha virt. eigenvalues --    2.80335   2.80535   2.80928   2.81178   2.81506
 Alpha virt. eigenvalues --    2.81711   2.82168   2.82470   2.82697   2.83518
 Alpha virt. eigenvalues --    2.83570   2.84130   2.84367   2.84501   2.84695
 Alpha virt. eigenvalues --    2.84824   2.85186   2.85501   2.85992   2.86793
 Alpha virt. eigenvalues --    2.87076   2.87428   2.87762   2.88094   2.88341
 Alpha virt. eigenvalues --    2.88532   2.88773   2.89047   2.89225   2.90236
 Alpha virt. eigenvalues --    2.91010   2.91124   2.91588   2.93020   2.93794
 Alpha virt. eigenvalues --    2.94087   2.94277   2.94415   2.94828   2.95178
 Alpha virt. eigenvalues --    2.96019   2.96113   2.96291   2.96600   2.96880
 Alpha virt. eigenvalues --    2.97106   2.97752   2.97927   2.98042   2.98224
 Alpha virt. eigenvalues --    2.98395   2.98472   2.98831   2.98961   2.99193
 Alpha virt. eigenvalues --    2.99406   2.99485   2.99627   2.99910   3.00080
 Alpha virt. eigenvalues --    3.00204   3.00292   3.00600   3.00767   3.01728
 Alpha virt. eigenvalues --    3.01853   3.01940   3.02532   3.02645   3.02794
 Alpha virt. eigenvalues --    3.03079   3.03173   3.03553   3.03876   3.04069
 Alpha virt. eigenvalues --    3.04292   3.04391   3.04555   3.04907   3.05006
 Alpha virt. eigenvalues --    3.05096   3.05531   3.05683   3.06088   3.06525
 Alpha virt. eigenvalues --    3.06961   3.07599   3.08042   3.08274   3.09404
 Alpha virt. eigenvalues --    3.09608   3.10160   3.10433   3.11154   3.11540
 Alpha virt. eigenvalues --    3.11661   3.11756   3.11857   3.12032   3.12117
 Alpha virt. eigenvalues --    3.13265   3.13392   3.13683   3.13937   3.14098
 Alpha virt. eigenvalues --    3.14548   3.15645   3.15794   3.16166   3.17124
 Alpha virt. eigenvalues --    3.17875   3.18017   3.18104   3.18954   3.19311
 Alpha virt. eigenvalues --    3.22193   3.23169   3.23731   3.24482   3.24835
 Alpha virt. eigenvalues --    3.25679   3.26351   3.26998   3.27400   3.27824
 Alpha virt. eigenvalues --    3.28949   3.29850   3.31280   3.31779   3.33208
 Alpha virt. eigenvalues --    3.33510   3.40654   3.40965   3.42591   3.43083
 Alpha virt. eigenvalues --    3.48490   3.49111   3.49926   3.50607   3.51193
 Alpha virt. eigenvalues --    3.51323   3.56362   3.57309   3.58930   3.59617
 Alpha virt. eigenvalues --    3.62772   3.62891   3.65983   3.66342   3.67175
 Alpha virt. eigenvalues --    3.68236   3.73382   3.74663   3.76690   3.77259
          Condensed to atoms (all electrons):
 Mulliken charges:
               1
     1  Mg   0.825445
     2  C   -0.005429
     3  C   -0.096288
     4  C   -0.044057
     5  C   -0.062861
     6  N   -0.256413
     7  C   -0.057373
     8  C   -0.009676
     9  C   -0.086681
    10  C    0.042541
    11  C    0.104873
    12  C    0.037878
    13  C   -0.075524
    14  H    0.041504
    15  N   -0.431218
    16  C    0.165551
    17  C   -0.179325
    18  C   -0.004311
    19  C    0.149234
    20  C    0.110487
    21  C    0.012659
    22  O   -0.248104
    23  C    0.062971
    24  N   -0.338737
    25  C    0.040081
    26  C   -0.028207
    27  C   -0.024235
    28  C    0.075356
    29  C    0.075904
    30  C    0.034819
    31  C   -0.004793
    32  N   -0.309836
    33  C    0.081937
    34  C   -0.168363
    35  C    0.010309
    36  C    0.079963
    37  C    0.126598
    38  C    0.047198
    39  O   -0.184647
    40  C   -0.006628
    41  C    0.214630
    42  O   -0.253584
    43  O   -0.304480
    44  C    0.154952
    45  H   -0.018128
    46  H   -0.016153
    47  H   -0.040318
    48  H    0.001908
    49  H   -0.004987
    50  H    0.026303
    51  H    0.018147
    52  H    0.017066
    53  H    0.011225
    54  H    0.050553
    55  H    0.020336
    56  H    0.018025
    57  H    0.005427
    58  H    0.027913
    59  H    0.036735
    60  H    0.037720
    61  H    0.036838
    62  H    0.028598
    63  H    0.017461
    64  H    0.010048
    65  H    0.023894
    66  H    0.012549
    67  H    0.005215
    68  H    0.006891
    69  H    0.005105
    70  H    0.009412
    71  H    0.018577
    72  H    0.029628
    73  H    0.050455
    74  H    0.009683
    75  H    0.046571
    76  H    0.035953
    77  H    0.044261
    78  H    0.044637
    79  H    0.055623
    80  Mg   0.835975
    81  C   -0.018661
    82  C   -0.087758
    83  C   -0.045752
    84  C   -0.066690
    85  N   -0.254419
    86  C   -0.049978
    87  C   -0.019291
    88  C   -0.079949
    89  C    0.043224
    90  C    0.060894
    91  C    0.063598
    92  C   -0.077707
    93  H    0.030831
    94  N   -0.423395
    95  C    0.162612
    96  C   -0.175298
    97  C   -0.008367
    98  C    0.151854
    99  C    0.100173
   100  C    0.015190
   101  O   -0.253929
   102  C    0.061452
   103  N   -0.350374
   104  C    0.037092
   105  C   -0.019473
   106  C   -0.034699
   107  C    0.089589
   108  C    0.073920
   109  C    0.034967
   110  C   -0.007529
   111  N   -0.324435
   112  C    0.079293
   113  C   -0.164194
   114  C    0.003652
   115  C    0.094940
   116  C    0.131572
   117  C    0.042768
   118  O   -0.185382
   119  C    0.001802
   120  C    0.206197
   121  O   -0.255152
   122  O   -0.292530
   123  C    0.153053
   124  H   -0.021799
   125  H   -0.016499
   126  H   -0.041544
   127  H    0.017012
   128  H   -0.008655
   129  H    0.049778
   130  H    0.022296
   131  H    0.032130
   132  H    0.011481
   133  H    0.037563
   134  H    0.022365
   135  H    0.016093
   136  H    0.005857
   137  H    0.023818
   138  H    0.038510
   139  H    0.037352
   140  H    0.035544
   141  H    0.033147
   142  H    0.013738
   143  H    0.011276
   144  H    0.024410
   145  H    0.012301
   146  H    0.004225
   147  H    0.005508
   148  H    0.003171
   149  H    0.010656
   150  H    0.017317
   151  H    0.030638
   152  H    0.046021
   153  H    0.007267
   154  H    0.047003
   155  H    0.055948
   156  H    0.041803
   157  H    0.045270
   158  H    0.052019
 Sum of Mulliken charges =  -0.00000
 Mulliken charges with hydrogens summed into heavy atoms:
               1
     1  Mg   0.825445
     2  C   -0.005429
     3  C   -0.114416
     4  C   -0.060210
     5  C   -0.103179
     6  N   -0.256413
     7  C   -0.057373
     8  C   -0.007768
     9  C   -0.091668
    10  C    0.042541
    11  C    0.166389
    12  C    0.099656
    13  C    0.004342
    15  N   -0.431218
    16  C    0.165551
    17  C   -0.179325
    18  C   -0.004311
    19  C    0.149234
    20  C    0.180562
    21  C    0.012659
    22  O   -0.248104
    23  C    0.166127
    24  N   -0.338737
    25  C    0.040081
    26  C   -0.010747
    27  C   -0.014187
    28  C    0.075356
    29  C    0.117561
    30  C    0.046815
    31  C    0.052825
    32  N   -0.309836
    33  C    0.081937
    34  C   -0.168363
    35  C    0.010309
    36  C    0.079963
    37  C    0.233306
    38  C    0.047198
    39  O   -0.184647
    40  C    0.029325
    41  C    0.214630
    42  O   -0.253584
    43  O   -0.304480
    44  C    0.299473
    80  Mg   0.835975
    81  C   -0.018661
    82  C   -0.109557
    83  C   -0.062251
    84  C   -0.108234
    85  N   -0.254419
    86  C   -0.049978
    87  C   -0.002279
    88  C   -0.088604
    89  C    0.043224
    90  C    0.165099
    91  C    0.112642
    92  C   -0.008418
    94  N   -0.423395
    95  C    0.162612
    96  C   -0.175298
    97  C   -0.008367
    98  C    0.151854
    99  C    0.168358
   100  C    0.015190
   101  O   -0.253929
   102  C    0.167495
   103  N   -0.350374
   104  C    0.037092
   105  C   -0.005735
   106  C   -0.023423
   107  C    0.089589
   108  C    0.114856
   109  C    0.043646
   110  C    0.051082
   111  N   -0.324435
   112  C    0.079293
   113  C   -0.164194
   114  C    0.003652
   115  C    0.094940
   116  C    0.231864
   117  C    0.042768
   118  O   -0.185382
   119  C    0.057750
   120  C    0.206197
   121  O   -0.255152
   122  O   -0.292530
   123  C    0.292145
 Electronic spatial extent (au):  <R**2>=          84669.0089
 Charge=             -0.0000 electrons
 Dipole moment (field-independent basis, Debye):
    X=              4.2869    Y=              5.4685    Z=             -4.5922  Tot=              8.3289
 Quadrupole moment (field-independent basis, Debye-Ang):
   XX=           -508.1240   YY=           -561.0024   ZZ=           -453.3526
   XY=             14.6383   XZ=            -38.9933   YZ=             10.8487
 Traceless Quadrupole moment (field-independent basis, Debye-Ang):
   XX=             -0.6310   YY=            -53.5094   ZZ=             54.1404
   XY=             14.6383   XZ=            -38.9933   YZ=             10.8487
 Octapole moment (field-independent basis, Debye-Ang**2):
  XXX=            179.8735  YYY=            -47.4520  ZZZ=             21.9117  XYY=            175.9091
  XXY=            -92.9655  XXZ=             10.8863  XZZ=            -18.4960  YZZ=            143.4633
  YYZ=           -232.1737  XYZ=            110.5792
 Hexadecapole moment (field-independent basis, Debye-Ang**3):
 XXXX=         -55562.8767 YYYY=         -39699.7922 ZZZZ=         -21809.2626 XXXY=           1290.4696
 XXXZ=          -1871.5008 YYYX=           -885.3735 YYYZ=            539.0021 ZZZX=            290.8951
 ZZZY=            -92.3315 XXYY=         -15955.4589 XXZZ=         -12089.4335 YYZZ=          -9386.6921
 XXYZ=            176.3620 YYXZ=           -755.0813 ZZXY=             74.1716
 N-N= 1.625476440795D+04 E-N=-4.199059597978D+04  KE= 4.028773988600D+03
 Leave Link  601 at Thu Sep  9 06:02:34 2021, MaxMem= 23488102400 cpu:              18.9 elap:               0.9
 (Enter /sw/apps/gaussian-16.0/g16/l9999.exe)
 1\1\GINC-BP1-COMPUTE00108\SP\RCAM-B3LYP TD-FC\def2SVP\C68H72Mg2N8O8\OF
 15641\09-Sep-2021\0\\#p cam-b3lyp/Def2SVP td=(nstates=5)\\TDDFT excite
 d states in gaussian\\0,1\Mg,0,0.,0.,0.\C,0,-0.217,-2.218,2.801\C,0,-1
 .255,2.442,2.026\C,0,-0.245,1.85,-2.564\C,0,0.146,-2.824,-2.037\N,0,-0
 .617,-0.009,2.126\C,0,-0.594,-0.908,3.105\C,0,-0.936,-0.309,4.502\C,0,
 -1.773,0.964,4.032\C,0,-1.155,1.168,2.66\C,0,-3.263,0.685,3.863\C,0,0.
 345,0.11,5.299\C,0,0.124,0.397,6.787\H,0,1.168,0.033,7.733\N,0,-0.185,
 1.961,-0.152\C,0,-0.703,2.8,0.777\C,0,-0.62,4.156,0.193\C,0,-0.187,4.0
 15,-1.225\C,0,-0.214,2.583,-1.38\C,0,-0.887,5.406,0.974\C,0,0.181,5.01
 3,-2.277\O,0,0.303,4.69,-3.508\C,0,0.31,6.414,-1.837\N,0,-0.265,-0.413
 ,-2.029\C,0,-0.279,0.569,-2.937\C,0,-0.196,0.024,-4.332\C,0,0.124,-1.5
 33,-4.18\C,0,0.086,-1.632,-2.635\C,0,-1.451,0.205,-5.197\C,0,1.373,-2.
 07,-4.923\C,0,2.626,-1.49,-4.306\N,0,0.15,-2.144,0.303\C,0,0.173,-3.13
 6,-0.688\C,0,0.173,-4.438,0.004\C,0,0.133,-4.111,1.358\C,0,0.083,-2.69
 5,1.502\C,0,0.149,-5.715,-0.623\C,0,0.096,-4.629,2.716\O,0,0.208,-5.74
 7,3.221\C,0,-0.255,-3.428,3.701\C,0,0.717,-3.482,4.848\O,0,1.931,-3.25
 5,4.669\O,0,0.038,-3.556,6.003\C,0,0.943,-3.583,7.183\H,0,-1.859,3.22,
 2.497\H,0,-0.218,2.453,-3.474\H,0,0.276,-3.747,-2.605\H,0,-1.554,-0.94
 9,5.132\H,0,-1.585,1.831,4.665\H,0,-3.484,-0.377,3.969\H,0,-3.511,1.02
 7,2.858\H,0,-3.852,1.301,4.543\H,0,0.669,1.096,4.966\H,0,1.13,-0.639,5
 .189\H,0,-0.844,0.026,7.125\H,0,0.062,1.477,6.921\H,0,-1.344,5.186,1.9
 38\H,0,-1.651,5.963,0.432\H,0,0.007,6.02,1.084\H,0,-0.635,6.744,-1.405
 \H,0,0.665,6.97,-2.704\H,0,1.048,6.466,-1.036\H,0,0.608,0.501,-4.891\H
 ,0,-0.692,-2.156,-4.547\H,0,-1.267,0.74,-6.129\H,0,-2.204,0.714,-4.596
 \H,0,-1.967,-0.72,-5.453\H,0,1.356,-1.759,-5.967\H,0,1.452,-3.157,-4.9
 02\H,0,2.714,-0.522,-4.798\H,0,3.487,-2.121,-4.529\H,0,2.495,-1.303,-3
 .24\H,0,0.867,-6.333,-0.084\H,0,0.404,-5.642,-1.68\H,0,-0.891,-5.999,-
 0.463\H,0,-1.283,-3.581,4.028\H,0,0.698,-4.478,7.755\H,0,0.833,-2.619,
 7.68\H,0,2.,-3.754,6.976\Mg,0,7.88503,0.7145,0.60809\C,0,6.48322,-1.66
 151,2.90342\C,0,5.65851,2.98866,1.83506\C,0,8.78565,2.69427,-1.70207\C
 ,0,9.16842,-1.98411,-1.18526\N,0,6.32375,0.56383,2.16757\C,0,5.92368,-
 0.37164,3.01561\C,0,4.92262,0.12324,4.09382\C,0,4.32863,1.39075,3.3067
 5\C,0,5.51975,1.69608,2.40083\C,0,3.13609,1.04928,2.42893\C,0,5.63909,
 0.55548,5.42116\C,0,4.70786,0.75554,6.61888\H,0,5.19313,0.38939,7.9466
 3\N,0,7.66889,2.68051,0.44478\C,0,6.72401,3.44659,1.02925\C,0,6.98509,
 4.82205,0.57744\C,0,8.05975,4.78185,-0.45126\C,0,8.20173,3.35057,-0.62
 836\C,0,6.30103,6.01797,1.17346\C,0,8.8232,5.85432,-1.1676\O,0,9.54495
 ,5.59548,-2.19468\C,0,8.62705,7.23027,-0.68825\N,0,8.65709,0.40051,-1.
 29656\C,0,9.0141,1.43551,-2.07709\C,0,9.79493,0.96649,-3.28155\C,0,10.
 09755,-0.5821,-3.02099\C,0,9.32887,-0.77048,-1.6947\C,0,9.09633,1.1281
 5,-4.63143\C,0,11.58381,-1.02903,-3.08383\C,0,12.35386,-0.42384,-1.932
 24\N,0,8.00963,-1.42368,0.89217\C,0,8.56581,-2.37106,0.00492\C,0,8.313
 58,-3.70775,0.58117\C,0,7.60236,-3.44439,1.76155\C,0,7.40634,-2.04372,
 1.90016\C,0,8.68372,-4.95028,-0.0064\C,0,6.9636,-4.03345,2.9164\O,0,6.
 88388,-5.17055,3.37941\C,0,6.10056,-2.91359,3.64267\C,0,6.40128,-2.977
 49,5.11509\O,0,7.53626,-2.69994,5.541\O,0,5.25083,-3.14253,5.79302\C,0
 ,5.49608,-3.20067,7.25873\H,0,4.8553,3.71029,1.98661\H,0,9.21156,3.339
 43,-2.47398\H,0,9.62209,-2.87031,-1.63415\H,0,4.1276,-0.57395,4.32967\
 H,0,4.13988,2.2217,3.98147\H,0,2.95775,-0.01497,2.38774\H,0,3.37604,1.
 43104,1.44519\H,0,2.25321,1.60348,2.76018\H,0,6.01946,1.5786,5.30595\H
 ,0,6.41508,-0.13885,5.67879\H,0,3.71246,0.33001,6.44267\H,0,4.5241,1.8
 2579,6.74061\H,0,5.44349,5.72441,1.7914\H,0,5.85834,6.57963,0.34375\H,
 0,6.98935,6.67069,1.71462\H,0,7.57305,7.48923,-0.75524\H,0,9.32288,7.8
 4266,-1.26504\H,0,8.89459,7.27235,0.37348\H,0,10.73441,1.49899,-3.3647
 1\H,0,9.60341,-1.22455,-3.76457\H,0,9.67823,1.73006,-5.35473\H,0,8.124
 56,1.57249,-4.46181\H,0,8.84001,0.19666,-5.13326\H,0,12.05223,-0.6588,
 -3.99907\H,0,11.71189,-2.10624,-3.06952\H,0,12.60101,0.57676,-2.2994\H
 ,0,13.25251,-1.0019,-1.7265\H,0,11.71333,-0.3027,-1.05094\H,0,9.08786,
 -5.56257,0.78876\H,0,9.40571,-4.81142,-0.8084\H,0,7.71303,-5.28552,-0.
 38143\H,0,5.05086,-3.11959,3.4299\H,0,5.05948,-4.13736,7.61881\H,0,5.0
 8062,-2.26093,7.66865\H,0,6.52226,-3.30397,7.59148\\Version=ES64L-G16R
 evA.03\State=1-A\HF=-4069.8135887\RMSD=6.325e-09\PG=C01 [X(C68H72Mg2N8
 O8)]\\@


 BOOKS ARE LIGHTHOUSES ERECTED IN THE GREAT SEA OF TIME.
     -- E.P.WHIPPLE
 Job cpu time:       0 days 18 hours 51 minutes 40.6 seconds.
 Elapsed time:       0 days  0 hours 47 minutes 54.2 seconds.
 File lengths (MBytes):  RWF=  13225 Int=      0 D2E=      0 Chk=    574 Scr=      1
 Normal termination of Gaussian 16 at Thu Sep  9 06:02:35 2021.
