 Entering Gaussian System, Link 0=g16
 Initial command:
 /sw/apps/gaussian-16.0/g16/l1.exe "/tmp/Gau-207579.inp" -scrdir="/tmp/"
 Entering Link 1 = /sw/apps/gaussian-16.0/g16/l1.exe PID=    207580.
  
 Copyright (c) 1988,1990,1992,1993,1995,1998,2003,2009,2016,
            Gaussian, Inc.  All Rights Reserved.
  
 This is part of the Gaussian(R) 16 program.  It is based on
 the Gaussian(R) 09 system (copyright 2009, Gaussian, Inc.),
 the Gaussian(R) 03 system (copyright 2003, Gaussian, Inc.),
 the Gaussian(R) 98 system (copyright 1998, Gaussian, Inc.),
 the Gaussian(R) 94 system (copyright 1995, Gaussian, Inc.),
 the Gaussian 92(TM) system (copyright 1992, Gaussian, Inc.),
 the Gaussian 90(TM) system (copyright 1990, Gaussian, Inc.),
 the Gaussian 88(TM) system (copyright 1988, Gaussian, Inc.),
 the Gaussian 86(TM) system (copyright 1986, Carnegie Mellon
 University), and the Gaussian 82(TM) system (copyright 1983,
 Carnegie Mellon University). Gaussian is a federally registered
 trademark of Gaussian, Inc.
  
 This software contains proprietary and confidential information,
 including trade secrets, belonging to Gaussian, Inc.
  
 This software is provided under written license and may be
 used, copied, transmitted, or stored only in accord with that
 written license.
  
 The following legend is applicable only to US Government
 contracts under FAR:
  
                    RESTRICTED RIGHTS LEGEND
  
 Use, reproduction and disclosure by the US Government is
 subject to restrictions as set forth in subparagraphs (a)
 and (c) of the Commercial Computer Software - Restricted
 Rights clause in FAR 52.227-19.
  
 Gaussian, Inc.
 340 Quinnipiac St., Bldg. 40, Wallingford CT 06492
  
  
 ---------------------------------------------------------------
 Warning -- This program may not be used in any manner that
 competes with the business of Gaussian, Inc. or will provide
 assistance to any competitor of Gaussian, Inc.  The licensee
 of this program is prohibited from giving any competitor of
 Gaussian, Inc. access to this program.  By using this program,
 the user acknowledges that Gaussian, Inc. is engaged in the
 business of creating and licensing software in the field of
 computational chemistry and represents and warrants to the
 licensee that it is not a competitor of Gaussian, Inc. and that
 it will not use this program in any manner prohibited above.
 ---------------------------------------------------------------
  

 Cite this work as:
 Gaussian 16, Revision A.03,
 M. J. Frisch, G. W. Trucks, H. B. Schlegel, G. E. Scuseria, 
 M. A. Robb, J. R. Cheeseman, G. Scalmani, V. Barone, 
 G. A. Petersson, H. Nakatsuji, X. Li, M. Caricato, A. V. Marenich, 
 J. Bloino, B. G. Janesko, R. Gomperts, B. Mennucci, H. P. Hratchian, 
 J. V. Ortiz, A. F. Izmaylov, J. L. Sonnenberg, D. Williams-Young, 
 F. Ding, F. Lipparini, F. Egidi, J. Goings, B. Peng, A. Petrone, 
 T. Henderson, D. Ranasinghe, V. G. Zakrzewski, J. Gao, N. Rega, 
 G. Zheng, W. Liang, M. Hada, M. Ehara, K. Toyota, R. Fukuda, 
 J. Hasegawa, M. Ishida, T. Nakajima, Y. Honda, O. Kitao, H. Nakai, 
 T. Vreven, K. Throssell, J. A. Montgomery, Jr., J. E. Peralta, 
 F. Ogliaro, M. J. Bearpark, J. J. Heyd, E. N. Brothers, K. N. Kudin, 
 V. N. Staroverov, T. A. Keith, R. Kobayashi, J. Normand, 
 K. Raghavachari, A. P. Rendell, J. C. Burant, S. S. Iyengar, 
 J. Tomasi, M. Cossi, J. M. Millam, M. Klene, C. Adamo, R. Cammi, 
 J. W. Ochterski, R. L. Martin, K. Morokuma, O. Farkas, 
 J. B. Foresman, and D. J. Fox, Gaussian, Inc., Wallingford CT, 2016.
 
 ******************************************
 Gaussian 16:  ES64L-G16RevA.03 25-Dec-2016
                11-Sep-2021 
 ******************************************
 %nproc=24
 Will use up to   24 processors via shared memory.
 %mem=175gb
 -----------------------------------
 #p cam-b3lyp/Def2SVP td=(nstates=5)
 -----------------------------------
 1/38=1,172=1/1;
 2/12=2,17=6,18=5,40=1/2;
 3/5=43,7=101,11=9,25=1,30=1,74=-40/1,2,3,8;
 4//1;
 5/5=2,38=5/2;
 8/6=1,10=1,108=5/1;
 9/41=5,42=1,70=2/14;
 6/7=2,8=2,9=2,10=2/1;
 99/5=1,9=1/99;
 Leave Link    1 at Sat Sep 11 08:24:00 2021, MaxMem= 23488102400 cpu:               0.6 elap:               0.0
 (Enter /sw/apps/gaussian-16.0/g16/l101.exe)
 --------------------------------
 TDDFT excited states in gaussian
 --------------------------------
 Symbolic Z-matrix:
 Charge =  0 Multiplicity = 1
 Mg                    0.        0.        0. 
 C                    -0.217    -2.218     2.801 
 C                    -1.255     2.442     2.026 
 C                    -0.245     1.85     -2.564 
 C                     0.146    -2.824    -2.037 
 N                    -0.617    -0.009     2.126 
 C                    -0.594    -0.908     3.105 
 C                    -0.936    -0.309     4.502 
 C                    -1.773     0.964     4.032 
 C                    -1.155     1.168     2.66 
 C                    -3.263     0.685     3.863 
 C                     0.345     0.11      5.299 
 C                     0.124     0.397     6.787 
 H                     1.168     0.033     7.733 
 N                    -0.185     1.961    -0.152 
 C                    -0.703     2.8       0.777 
 C                    -0.62      4.156     0.193 
 C                    -0.187     4.015    -1.225 
 C                    -0.214     2.583    -1.38 
 C                    -0.887     5.406     0.974 
 C                     0.181     5.013    -2.277 
 O                     0.303     4.69     -3.508 
 C                     0.31      6.414    -1.837 
 N                    -0.265    -0.413    -2.029 
 C                    -0.279     0.569    -2.937 
 C                    -0.196     0.024    -4.332 
 C                     0.124    -1.533    -4.18 
 C                     0.086    -1.632    -2.635 
 C                    -1.451     0.205    -5.197 
 C                     1.373    -2.07     -4.923 
 C                     2.626    -1.49     -4.306 
 N                     0.15     -2.144     0.303 
 C                     0.173    -3.136    -0.688 
 C                     0.173    -4.438     0.004 
 C                     0.133    -4.111     1.358 
 C                     0.083    -2.695     1.502 
 C                     0.149    -5.715    -0.623 
 C                     0.096    -4.629     2.716 
 O                     0.208    -5.747     3.221 
 C                    -0.255    -3.428     3.701 
 C                     0.717    -3.482     4.848 
 O                     1.931    -3.255     4.669 
 O                     0.038    -3.556     6.003 
 C                     0.943    -3.583     7.183 
 H                    -1.859     3.22      2.497 
 H                    -0.218     2.453    -3.474 
 H                     0.276    -3.747    -2.605 
 H                    -1.554    -0.949     5.132 
 H                    -1.585     1.831     4.665 
 H                    -3.484    -0.377     3.969 
 H                    -3.511     1.027     2.858 
 H                    -3.852     1.301     4.543 
 H                     0.669     1.096     4.966 
 H                     1.13     -0.639     5.189 
 H                    -0.844     0.026     7.125 
 H                     0.062     1.477     6.921 
 H                    -1.344     5.186     1.938 
 H                    -1.651     5.963     0.432 
 H                     0.007     6.02      1.084 
 H                    -0.635     6.744    -1.405 
 H                     0.665     6.97     -2.704 
 H                     1.048     6.466    -1.036 
 H                     0.608     0.501    -4.891 
 H                    -0.692    -2.156    -4.547 
 H                    -1.267     0.74     -6.129 
 H                    -2.204     0.714    -4.596 
 H                    -1.967    -0.72     -5.453 
 H                     1.356    -1.759    -5.967 
 H                     1.452    -3.157    -4.902 
 H                     2.714    -0.522    -4.798 
 H                     3.487    -2.121    -4.529 
 H                     2.495    -1.303    -3.24 
 H                     0.867    -6.333    -0.084 
 H                     0.404    -5.642    -1.68 
 H                    -0.891    -5.999    -0.463 
 H                    -1.283    -3.581     4.028 
 H                     0.698    -4.478     7.755 
 H                     0.833    -2.619     7.68 
 H                     2.       -3.754     6.976 
 Mg                    13.1284   1.18547   0.99664 
 C                     11.95203  -1.6351   -0.88474 
 C                     12.22541   3.13826  -1.65022 
 C                     14.56129   3.6241    2.43446 
 C                     14.94438  -1.0539    2.95448 
 N                     12.21558   0.69818  -0.95824 
 C                     11.75553  -0.40041  -1.53772 
 C                     10.97362  -0.15324  -2.85571 
 C                     11.62406   1.25824  -3.26009 
 C                     12.01811   1.75303  -1.86991 
 C                     12.88694   1.12199  -4.0943 
 C                     9.42772  -0.02649  -2.61879 
 C                     8.57503  -0.09343  -3.88773 
 H                     7.27007  -0.74487  -3.81585 
 N                     12.93522   3.13956   0.70894 
 C                     12.53486   3.7601   -0.42063 
 C                     12.58047   5.2007   -0.12607 
 C                     13.19767   5.38588   1.21538 
 C                     13.61682   4.02865   1.50233 
 C                     11.9961   6.23726  -1.04121 
 C                     13.3915   6.5881    2.08904 
 O                     14.16549   6.56056   3.11032 
 C                     12.72182   7.82477   1.66048 
 N                     14.70918   1.29774   2.34233 
 C                     15.09962   2.47861   2.85322 
 C                     16.06292   2.28509   3.99995 
 C                     16.05099   0.71643   4.31101 
 C                     15.10929   0.24184   3.18258 
 C                     17.49922   2.74252   3.74663 
 C                     15.72975   0.29065   5.76984 
 C                     14.29293   0.62475   6.10047 
 N                     13.27525  -0.96298   1.1717 
 C                     14.11734  -1.69252   2.0393 
 C                     13.94573  -3.1228    1.71179 
 C                     13.02573  -3.12472   0.65251 
 C                     12.66579  -1.78873   0.32839 
 C                     14.63202  -4.2059    2.32988 
 C                     12.2853  -3.95258  -0.27221 
 O                     12.12153  -5.16364  -0.41453 
 C                     11.6535  -3.01851  -1.39235 
 C                     10.21008  -3.40664  -1.56096 
 O                     9.3967   -3.23282  -0.63641 
 O                     9.98437  -3.71437  -2.85121 
 C                     8.5636   -4.09525  -3.07071 
 H                     12.18948   3.81066  -2.50781 
 H                     15.00372   4.42267   3.03448 
 H                     15.40104  -1.82028   3.5844 
 H                     11.15518  -0.88329  -3.63534 
 H                     10.88591   1.92022  -3.70537 
 H                     13.20535   0.09354  -4.17822 
 H                     13.63971   1.71089  -3.58677 
 H                     12.74543   1.59162  -5.07193 
 H                     9.1982    0.99586  -2.29191 
 H                     9.08834  -0.76252  -1.91614 
 H                     9.14423  -0.46705  -4.74759 
 H                     8.29621   0.92401  -4.17252 
 H                     11.75959   5.81668  -2.02639 
 H                     12.78606   6.96934  -1.24094 
 H                     11.1396   6.75267  -0.60141 
 H                     13.06494   8.09478   0.66458 
 H                     12.90482   8.54762   2.4579 
 H                     11.64635   7.63075   1.58098 
 H                     15.72881   2.82045   4.88022 
 H                     17.03063   0.25523   4.11755 
 H                     17.85613   3.48779   4.48234 
 H                     17.55849   3.1409    2.74248 
 H                     18.24038   1.94544   3.72306 
 H                     16.34887   0.85262   6.47342 
 H                     15.90201  -0.76346   5.96001 
 H                     14.34345   1.68109   6.38096 
 H                     13.93803   0.01327   6.92762 
 H                     13.65675   0.54997   5.2109 
 H                     13.89693  -4.97964   2.50725 
 H                     15.11435  -3.89523   3.25433 
 H                     15.35818  -4.44763   1.54915 
 H                     12.22767  -3.16982  -2.30724 
 H                     8.56651  -5.08723  -3.53294 
 H                     8.11957  -3.26814  -3.65592 
 H                     7.95098  -4.27205  -2.19442 
 
 ITRead=  0  0  0  0  0  0  0  0  0  0  0  0  0  0  0  0  0  0  0  0
 ITRead=  0  0  0  0  0  0  0  0  0  0  0  0  0  0  0  0  0  0  0  0
 ITRead=  0  0  0  0  0  0  0  0  0  0  0  0  0  0  0  0  0  0  0  0
 ITRead=  0  0  0  0  0  0  0  0  0  0  0  0  0  0  0  0  0  0  0  0
 ITRead=  0  0  0  0  0  0  0  0  0  0  0  0  0  0  0  0  0  0  0  0
 ITRead=  0  0  0  0  0  0  0  0  0  0  0  0  0  0  0  0  0  0  0  0
 ITRead=  0  0  0  0  0  0  0  0  0  0  0  0  0  0  0  0  0  0  0  0
 ITRead=  0  0  0  0  0  0  0  0  0  0  0  0  0  0  0  0  0  0
 MicOpt= -1 -1 -1 -1 -1 -1 -1 -1 -1 -1 -1 -1 -1 -1 -1 -1 -1 -1 -1 -1
 MicOpt= -1 -1 -1 -1 -1 -1 -1 -1 -1 -1 -1 -1 -1 -1 -1 -1 -1 -1 -1 -1
 MicOpt= -1 -1 -1 -1 -1 -1 -1 -1 -1 -1 -1 -1 -1 -1 -1 -1 -1 -1 -1 -1
 MicOpt= -1 -1 -1 -1 -1 -1 -1 -1 -1 -1 -1 -1 -1 -1 -1 -1 -1 -1 -1 -1
 MicOpt= -1 -1 -1 -1 -1 -1 -1 -1 -1 -1 -1 -1 -1 -1 -1 -1 -1 -1 -1 -1
 MicOpt= -1 -1 -1 -1 -1 -1 -1 -1 -1 -1 -1 -1 -1 -1 -1 -1 -1 -1 -1 -1
 MicOpt= -1 -1 -1 -1 -1 -1 -1 -1 -1 -1 -1 -1 -1 -1 -1 -1 -1 -1 -1 -1
 MicOpt= -1 -1 -1 -1 -1 -1 -1 -1 -1 -1 -1 -1 -1 -1 -1 -1 -1 -1
 NAtoms=    158 NQM=      158 NQMF=       0 NMMI=      0 NMMIF=      0
                NMic=       0 NMicF=      0.
                    Isotopes and Nuclear Properties:
 (Nuclear quadrupole moments (NQMom) in fm**2, nuclear magnetic moments (NMagM)
  in nuclear magnetons)

  Atom         1           2           3           4           5           6           7           8           9          10
 IAtWgt=          24          12          12          12          12          14          12          12          12          12
 AtmWgt=  23.9850450  12.0000000  12.0000000  12.0000000  12.0000000  14.0030740  12.0000000  12.0000000  12.0000000  12.0000000
 NucSpn=           0           0           0           0           0           2           0           0           0           0
 AtZEff=  -0.0000000  -0.0000000  -0.0000000  -0.0000000  -0.0000000  -0.0000000  -0.0000000  -0.0000000  -0.0000000  -0.0000000
 NQMom=    0.0000000   0.0000000   0.0000000   0.0000000   0.0000000   2.0440000   0.0000000   0.0000000   0.0000000   0.0000000
 NMagM=    0.0000000   0.0000000   0.0000000   0.0000000   0.0000000   0.4037610   0.0000000   0.0000000   0.0000000   0.0000000
 AtZNuc=  12.0000000   6.0000000   6.0000000   6.0000000   6.0000000   7.0000000   6.0000000   6.0000000   6.0000000   6.0000000

  Atom        11          12          13          14          15          16          17          18          19          20
 IAtWgt=          12          12          12           1          14          12          12          12          12          12
 AtmWgt=  12.0000000  12.0000000  12.0000000   1.0078250  14.0030740  12.0000000  12.0000000  12.0000000  12.0000000  12.0000000
 NucSpn=           0           0           0           1           2           0           0           0           0           0
 AtZEff=  -0.0000000  -0.0000000  -0.0000000  -0.0000000  -0.0000000  -0.0000000  -0.0000000  -0.0000000  -0.0000000  -0.0000000
 NQMom=    0.0000000   0.0000000   0.0000000   0.0000000   2.0440000   0.0000000   0.0000000   0.0000000   0.0000000   0.0000000
 NMagM=    0.0000000   0.0000000   0.0000000   2.7928460   0.4037610   0.0000000   0.0000000   0.0000000   0.0000000   0.0000000
 AtZNuc=   6.0000000   6.0000000   6.0000000   1.0000000   7.0000000   6.0000000   6.0000000   6.0000000   6.0000000   6.0000000

  Atom        21          22          23          24          25          26          27          28          29          30
 IAtWgt=          12          16          12          14          12          12          12          12          12          12
 AtmWgt=  12.0000000  15.9949146  12.0000000  14.0030740  12.0000000  12.0000000  12.0000000  12.0000000  12.0000000  12.0000000
 NucSpn=           0           0           0           2           0           0           0           0           0           0
 AtZEff=  -0.0000000  -0.0000000  -0.0000000  -0.0000000  -0.0000000  -0.0000000  -0.0000000  -0.0000000  -0.0000000  -0.0000000
 NQMom=    0.0000000   0.0000000   0.0000000   2.0440000   0.0000000   0.0000000   0.0000000   0.0000000   0.0000000   0.0000000
 NMagM=    0.0000000   0.0000000   0.0000000   0.4037610   0.0000000   0.0000000   0.0000000   0.0000000   0.0000000   0.0000000
 AtZNuc=   6.0000000   8.0000000   6.0000000   7.0000000   6.0000000   6.0000000   6.0000000   6.0000000   6.0000000   6.0000000

  Atom        31          32          33          34          35          36          37          38          39          40
 IAtWgt=          12          14          12          12          12          12          12          12          16          12
 AtmWgt=  12.0000000  14.0030740  12.0000000  12.0000000  12.0000000  12.0000000  12.0000000  12.0000000  15.9949146  12.0000000
 NucSpn=           0           2           0           0           0           0           0           0           0           0
 AtZEff=  -0.0000000  -0.0000000  -0.0000000  -0.0000000  -0.0000000  -0.0000000  -0.0000000  -0.0000000  -0.0000000  -0.0000000
 NQMom=    0.0000000   2.0440000   0.0000000   0.0000000   0.0000000   0.0000000   0.0000000   0.0000000   0.0000000   0.0000000
 NMagM=    0.0000000   0.4037610   0.0000000   0.0000000   0.0000000   0.0000000   0.0000000   0.0000000   0.0000000   0.0000000
 AtZNuc=   6.0000000   7.0000000   6.0000000   6.0000000   6.0000000   6.0000000   6.0000000   6.0000000   8.0000000   6.0000000

  Atom        41          42          43          44          45          46          47          48          49          50
 IAtWgt=          12          16          16          12           1           1           1           1           1           1
 AtmWgt=  12.0000000  15.9949146  15.9949146  12.0000000   1.0078250   1.0078250   1.0078250   1.0078250   1.0078250   1.0078250
 NucSpn=           0           0           0           0           1           1           1           1           1           1
 AtZEff=  -0.0000000  -0.0000000  -0.0000000  -0.0000000  -0.0000000  -0.0000000  -0.0000000  -0.0000000  -0.0000000  -0.0000000
 NQMom=    0.0000000   0.0000000   0.0000000   0.0000000   0.0000000   0.0000000   0.0000000   0.0000000   0.0000000   0.0000000
 NMagM=    0.0000000   0.0000000   0.0000000   0.0000000   2.7928460   2.7928460   2.7928460   2.7928460   2.7928460   2.7928460
 AtZNuc=   6.0000000   8.0000000   8.0000000   6.0000000   1.0000000   1.0000000   1.0000000   1.0000000   1.0000000   1.0000000

  Atom        51          52          53          54          55          56          57          58          59          60
 IAtWgt=           1           1           1           1           1           1           1           1           1           1
 AtmWgt=   1.0078250   1.0078250   1.0078250   1.0078250   1.0078250   1.0078250   1.0078250   1.0078250   1.0078250   1.0078250
 NucSpn=           1           1           1           1           1           1           1           1           1           1
 AtZEff=  -0.0000000  -0.0000000  -0.0000000  -0.0000000  -0.0000000  -0.0000000  -0.0000000  -0.0000000  -0.0000000  -0.0000000
 NQMom=    0.0000000   0.0000000   0.0000000   0.0000000   0.0000000   0.0000000   0.0000000   0.0000000   0.0000000   0.0000000
 NMagM=    2.7928460   2.7928460   2.7928460   2.7928460   2.7928460   2.7928460   2.7928460   2.7928460   2.7928460   2.7928460
 AtZNuc=   1.0000000   1.0000000   1.0000000   1.0000000   1.0000000   1.0000000   1.0000000   1.0000000   1.0000000   1.0000000

  Atom        61          62          63          64          65          66          67          68          69          70
 IAtWgt=           1           1           1           1           1           1           1           1           1           1
 AtmWgt=   1.0078250   1.0078250   1.0078250   1.0078250   1.0078250   1.0078250   1.0078250   1.0078250   1.0078250   1.0078250
 NucSpn=           1           1           1           1           1           1           1           1           1           1
 AtZEff=  -0.0000000  -0.0000000  -0.0000000  -0.0000000  -0.0000000  -0.0000000  -0.0000000  -0.0000000  -0.0000000  -0.0000000
 NQMom=    0.0000000   0.0000000   0.0000000   0.0000000   0.0000000   0.0000000   0.0000000   0.0000000   0.0000000   0.0000000
 NMagM=    2.7928460   2.7928460   2.7928460   2.7928460   2.7928460   2.7928460   2.7928460   2.7928460   2.7928460   2.7928460
 AtZNuc=   1.0000000   1.0000000   1.0000000   1.0000000   1.0000000   1.0000000   1.0000000   1.0000000   1.0000000   1.0000000

  Atom        71          72          73          74          75          76          77          78          79          80
 IAtWgt=           1           1           1           1           1           1           1           1           1          24
 AtmWgt=   1.0078250   1.0078250   1.0078250   1.0078250   1.0078250   1.0078250   1.0078250   1.0078250   1.0078250  23.9850450
 NucSpn=           1           1           1           1           1           1           1           1           1           0
 AtZEff=  -0.0000000  -0.0000000  -0.0000000  -0.0000000  -0.0000000  -0.0000000  -0.0000000  -0.0000000  -0.0000000  -0.0000000
 NQMom=    0.0000000   0.0000000   0.0000000   0.0000000   0.0000000   0.0000000   0.0000000   0.0000000   0.0000000   0.0000000
 NMagM=    2.7928460   2.7928460   2.7928460   2.7928460   2.7928460   2.7928460   2.7928460   2.7928460   2.7928460   0.0000000
 AtZNuc=   1.0000000   1.0000000   1.0000000   1.0000000   1.0000000   1.0000000   1.0000000   1.0000000   1.0000000  12.0000000

  Atom        81          82          83          84          85          86          87          88          89          90
 IAtWgt=          12          12          12          12          14          12          12          12          12          12
 AtmWgt=  12.0000000  12.0000000  12.0000000  12.0000000  14.0030740  12.0000000  12.0000000  12.0000000  12.0000000  12.0000000
 NucSpn=           0           0           0           0           2           0           0           0           0           0
 AtZEff=  -0.0000000  -0.0000000  -0.0000000  -0.0000000  -0.0000000  -0.0000000  -0.0000000  -0.0000000  -0.0000000  -0.0000000
 NQMom=    0.0000000   0.0000000   0.0000000   0.0000000   2.0440000   0.0000000   0.0000000   0.0000000   0.0000000   0.0000000
 NMagM=    0.0000000   0.0000000   0.0000000   0.0000000   0.4037610   0.0000000   0.0000000   0.0000000   0.0000000   0.0000000
 AtZNuc=   6.0000000   6.0000000   6.0000000   6.0000000   7.0000000   6.0000000   6.0000000   6.0000000   6.0000000   6.0000000

  Atom        91          92          93          94          95          96          97          98          99         100
 IAtWgt=          12          12           1          14          12          12          12          12          12          12
 AtmWgt=  12.0000000  12.0000000   1.0078250  14.0030740  12.0000000  12.0000000  12.0000000  12.0000000  12.0000000  12.0000000
 NucSpn=           0           0           1           2           0           0           0           0           0           0
 AtZEff=  -0.0000000  -0.0000000  -0.0000000  -0.0000000  -0.0000000  -0.0000000  -0.0000000  -0.0000000  -0.0000000  -0.0000000
 NQMom=    0.0000000   0.0000000   0.0000000   2.0440000   0.0000000   0.0000000   0.0000000   0.0000000   0.0000000   0.0000000
 NMagM=    0.0000000   0.0000000   2.7928460   0.4037610   0.0000000   0.0000000   0.0000000   0.0000000   0.0000000   0.0000000
 AtZNuc=   6.0000000   6.0000000   1.0000000   7.0000000   6.0000000   6.0000000   6.0000000   6.0000000   6.0000000   6.0000000

  Atom       101         102         103         104         105         106         107         108         109         110
 IAtWgt=          16          12          14          12          12          12          12          12          12          12
 AtmWgt=  15.9949146  12.0000000  14.0030740  12.0000000  12.0000000  12.0000000  12.0000000  12.0000000  12.0000000  12.0000000
 NucSpn=           0           0           2           0           0           0           0           0           0           0
 AtZEff=  -0.0000000  -0.0000000  -0.0000000  -0.0000000  -0.0000000  -0.0000000  -0.0000000  -0.0000000  -0.0000000  -0.0000000
 NQMom=    0.0000000   0.0000000   2.0440000   0.0000000   0.0000000   0.0000000   0.0000000   0.0000000   0.0000000   0.0000000
 NMagM=    0.0000000   0.0000000   0.4037610   0.0000000   0.0000000   0.0000000   0.0000000   0.0000000   0.0000000   0.0000000
 AtZNuc=   8.0000000   6.0000000   7.0000000   6.0000000   6.0000000   6.0000000   6.0000000   6.0000000   6.0000000   6.0000000

  Atom       111         112         113         114         115         116         117         118         119         120
 IAtWgt=          14          12          12          12          12          12          12          16          12          12
 AtmWgt=  14.0030740  12.0000000  12.0000000  12.0000000  12.0000000  12.0000000  12.0000000  15.9949146  12.0000000  12.0000000
 NucSpn=           2           0           0           0           0           0           0           0           0           0
 AtZEff=  -0.0000000  -0.0000000  -0.0000000  -0.0000000  -0.0000000  -0.0000000  -0.0000000  -0.0000000  -0.0000000  -0.0000000
 NQMom=    2.0440000   0.0000000   0.0000000   0.0000000   0.0000000   0.0000000   0.0000000   0.0000000   0.0000000   0.0000000
 NMagM=    0.4037610   0.0000000   0.0000000   0.0000000   0.0000000   0.0000000   0.0000000   0.0000000   0.0000000   0.0000000
 AtZNuc=   7.0000000   6.0000000   6.0000000   6.0000000   6.0000000   6.0000000   6.0000000   8.0000000   6.0000000   6.0000000

  Atom       121         122         123         124         125         126         127         128         129         130
 IAtWgt=          16          16          12           1           1           1           1           1           1           1
 AtmWgt=  15.9949146  15.9949146  12.0000000   1.0078250   1.0078250   1.0078250   1.0078250   1.0078250   1.0078250   1.0078250
 NucSpn=           0           0           0           1           1           1           1           1           1           1
 AtZEff=  -0.0000000  -0.0000000  -0.0000000  -0.0000000  -0.0000000  -0.0000000  -0.0000000  -0.0000000  -0.0000000  -0.0000000
 NQMom=    0.0000000   0.0000000   0.0000000   0.0000000   0.0000000   0.0000000   0.0000000   0.0000000   0.0000000   0.0000000
 NMagM=    0.0000000   0.0000000   0.0000000   2.7928460   2.7928460   2.7928460   2.7928460   2.7928460   2.7928460   2.7928460
 AtZNuc=   8.0000000   8.0000000   6.0000000   1.0000000   1.0000000   1.0000000   1.0000000   1.0000000   1.0000000   1.0000000

  Atom       131         132         133         134         135         136         137         138         139         140
 IAtWgt=           1           1           1           1           1           1           1           1           1           1
 AtmWgt=   1.0078250   1.0078250   1.0078250   1.0078250   1.0078250   1.0078250   1.0078250   1.0078250   1.0078250   1.0078250
 NucSpn=           1           1           1           1           1           1           1           1           1           1
 AtZEff=  -0.0000000  -0.0000000  -0.0000000  -0.0000000  -0.0000000  -0.0000000  -0.0000000  -0.0000000  -0.0000000  -0.0000000
 NQMom=    0.0000000   0.0000000   0.0000000   0.0000000   0.0000000   0.0000000   0.0000000   0.0000000   0.0000000   0.0000000
 NMagM=    2.7928460   2.7928460   2.7928460   2.7928460   2.7928460   2.7928460   2.7928460   2.7928460   2.7928460   2.7928460
 AtZNuc=   1.0000000   1.0000000   1.0000000   1.0000000   1.0000000   1.0000000   1.0000000   1.0000000   1.0000000   1.0000000

  Atom       141         142         143         144         145         146         147         148         149         150
 IAtWgt=           1           1           1           1           1           1           1           1           1           1
 AtmWgt=   1.0078250   1.0078250   1.0078250   1.0078250   1.0078250   1.0078250   1.0078250   1.0078250   1.0078250   1.0078250
 NucSpn=           1           1           1           1           1           1           1           1           1           1
 AtZEff=  -0.0000000  -0.0000000  -0.0000000  -0.0000000  -0.0000000  -0.0000000  -0.0000000  -0.0000000  -0.0000000  -0.0000000
 NQMom=    0.0000000   0.0000000   0.0000000   0.0000000   0.0000000   0.0000000   0.0000000   0.0000000   0.0000000   0.0000000
 NMagM=    2.7928460   2.7928460   2.7928460   2.7928460   2.7928460   2.7928460   2.7928460   2.7928460   2.7928460   2.7928460
 AtZNuc=   1.0000000   1.0000000   1.0000000   1.0000000   1.0000000   1.0000000   1.0000000   1.0000000   1.0000000   1.0000000

  Atom       151         152         153         154         155         156         157         158
 IAtWgt=           1           1           1           1           1           1           1           1
 AtmWgt=   1.0078250   1.0078250   1.0078250   1.0078250   1.0078250   1.0078250   1.0078250   1.0078250
 NucSpn=           1           1           1           1           1           1           1           1
 AtZEff=  -0.0000000  -0.0000000  -0.0000000  -0.0000000  -0.0000000  -0.0000000  -0.0000000  -0.0000000
 NQMom=    0.0000000   0.0000000   0.0000000   0.0000000   0.0000000   0.0000000   0.0000000   0.0000000
 NMagM=    2.7928460   2.7928460   2.7928460   2.7928460   2.7928460   2.7928460   2.7928460   2.7928460
 AtZNuc=   1.0000000   1.0000000   1.0000000   1.0000000   1.0000000   1.0000000   1.0000000   1.0000000
 Leave Link  101 at Sat Sep 11 08:24:01 2021, MaxMem= 23488102400 cpu:               3.2 elap:               0.2
 (Enter /sw/apps/gaussian-16.0/g16/l202.exe)
 Stoichiometry    C68H72Mg2N8O8
 Framework group  C1[X(C68H72Mg2N8O8)]
 Deg. of freedom   468
 Full point group                 C1      NOp   1
 Largest Abelian subgroup         C1      NOp   1
 Largest concise Abelian subgroup C1      NOp   1
                         Standard orientation:                         
 ---------------------------------------------------------------------
 Center     Atomic      Atomic             Coordinates (Angstroms)
 Number     Number       Type             X           Y           Z
 ---------------------------------------------------------------------
      1         12           0        6.364733    0.676932    0.029781
      2          6           0        6.719653   -2.530866   -1.518212
      3          6           0        7.252842    2.054046   -2.963192
      4          6           0        6.500709    3.489801    1.487827
      5          6           0        6.621328   -0.942730    3.104926
      6          7           0        6.893316   -0.227924   -1.920215
      7          6           0        6.933269   -1.467670   -2.398342
      8          6           0        7.149056   -1.528574   -3.940126
      9          6           0        7.854464   -0.114480   -4.151633
     10          6           0        7.272650    0.627639   -2.961391
     11          6           0        9.372043   -0.162837   -4.006312
     12          6           0        5.797994   -1.618150   -4.726472
     13          6           0        5.925391   -2.007792   -6.202040
     14          1           0        4.892417   -2.841660   -6.797840
     15          7           0        6.332167    2.507546   -0.712272
     16          6           0        6.714176    2.884034   -1.956302
     17          6           0        6.501401    4.345865   -2.023080
     18          6           0        6.144193    4.816604   -0.656002
     19          6           0        6.339523    3.612074    0.109721
     20          6           0        6.593553    5.133566   -3.293822
     21          6           0        5.707770    6.144371   -0.122428
     22          8           0        5.672466    6.395568    1.130659
     23          6           0        5.403304    7.185578   -1.120541
     24          7           0        6.755717    1.236395    2.002537
     25          6           0        6.694583    2.517665    2.381476
     26          6           0        6.729717    2.647492    3.875414
     27          6           0        6.582464    1.165541    4.451513
     28          6           0        6.569666    0.391200    3.110431
     29          6           0        7.989669    3.299842    4.461051
     30          6           0        5.433087    0.913910    5.459498
     31          6           0        4.098764    1.050444    4.760899
     32          7           0        6.446755   -1.381177    0.714255
     33          6           0        6.575980   -1.824858    2.038311
     34          6           0        6.695919   -3.293712    1.991946
     35          6           0        6.644449   -3.603093    0.634198
     36          6           0        6.527814   -2.401461   -0.121293
     37          6           0        6.889564   -4.149798    3.111791
     38          6           0        6.685630   -4.667425   -0.355427
     39          8           0        6.680997   -5.898284   -0.305831
     40          6           0        6.858575   -4.007363   -1.794258
     41          6           0        5.853905   -4.648658   -2.712237
     42          8           0        4.630127   -4.468247   -2.547354
     43          8           0        6.490212   -5.173017   -3.770870
     44          6           0        5.547676   -5.799365   -4.735996
     45          1           0        7.745445    2.587727   -3.778340
     46          1           0        6.441916    4.430830    2.038686
     47          1           0        6.619601   -1.522619    4.029684
     48          1           0        7.809949   -2.328131   -4.275320
     49          1           0        7.544246    0.359869   -5.082482
     50          1           0        9.707593   -1.137881   -3.653301
     51          1           0        9.619640    0.611060   -3.279488
     52          1           0        9.859767    0.131995   -4.935815
     53          1           0        5.377879   -0.618175   -4.834245
     54          1           0        5.107989   -2.302219   -4.231228
     55          1           0        6.914922   -2.408061   -6.424579
     56          1           0        5.859158   -1.100077   -6.801928
     57          1           0        7.033653    4.545734   -4.098378
     58          1           0        7.310533    5.935695   -3.119929
     59          1           0        5.632035    5.556675   -3.585017
     60          1           0        6.286779    7.366052   -1.733281
     61          1           0        5.022498    8.038063   -0.559197
     62          1           0        4.632748    6.812707   -1.795938
     63          1           0        5.899813    3.254551    4.234810
     64          1           0        7.477838    0.842540    4.983161
     65          1           0        7.783602    4.176943    5.075003
     66          1           0        8.655490    3.548322    3.635079
     67          1           0        8.617016    2.633094    5.052066
     68          1           0        5.456431    1.658232    6.254726
     69          1           0        5.477043   -0.070621    5.925349
     70          1           0        3.921332    2.125092    4.782854
     71          1           0        3.324449    0.515564    5.311852
     72          1           0        4.165014    0.752438    3.714339
     73          1           0        6.225285   -5.001087    2.963430
     74          1           0        6.670379   -3.634530    4.046702
     75          1           0        7.947824   -4.387099    3.003947
     76          1           0        7.883398   -4.203453   -2.107960
     77          1           0        5.869498   -6.831506   -4.875096
     78          1           0        5.527737   -5.152942   -5.613575
     79          1           0        4.525997   -5.947934   -4.384660
     80         12           0       -6.842699    0.188611   -0.250901
     81          6           0       -5.279930   -1.386633    2.569633
     82          6           0       -6.061845    3.185166    1.179333
     83          6           0       -8.599105    1.599942   -2.484866
     84          6           0       -8.469902   -2.832376   -0.860450
     85          7           0       -5.803133    0.703087    1.632410
     86          6           0       -5.198724    0.021301    2.593764
     87          6           0       -4.397829    0.895078    3.596089
     88          6           0       -5.187398    2.278661    3.393238
     89          6           0       -5.690238    2.066277    1.966795
     90          6           0       -6.392339    2.423640    4.307807
     91          6           0       -2.886974    1.031833    3.195318
     92          6           0       -1.982166    1.609776    4.285764
     93          1           0       -0.615692    1.106592    4.395387
     94          7           0       -6.860938    2.074297   -0.869297
     95          6           0       -6.488683    3.164722   -0.166671
     96          6           0       -6.709040    4.313090   -1.059346
     97          6           0       -7.396368    3.827881   -2.286891
     98          6           0       -7.670091    2.455413   -1.910714
     99          6           0       -6.209839    5.693947   -0.747164
    100          6           0       -7.759991    4.493058   -3.579757
    101          8           0       -8.566062    3.948019   -4.414032
    102          6           0       -7.218228    5.842274   -3.797924
    103          7           0       -8.478525   -0.444187   -1.367142
    104          6           0       -9.020415    0.347346   -2.309339
    105          6           0      -10.000622   -0.417416   -3.166498
    106          6           0       -9.823386   -1.952912   -2.756090
    107          6           0       -8.789617   -1.793426   -1.619747
    108          6           0      -11.468239   -0.017152   -3.017300
    109          6           0       -9.514510   -2.956245   -3.900898
    110          6           0       -8.139194   -2.685685   -4.467197
    111          7           0       -6.751933   -1.816118    0.549644
    112          6           0       -7.539890   -2.923795    0.167219
    113          6           0       -7.194298   -4.037710    1.073958
    114          6           0       -6.238418   -3.489734    1.942573
    115          6           0       -6.019582   -2.124569    1.614067
    116          6           0       -7.777534   -5.336043    1.056599
    117          6           0       -5.372554   -3.752770    3.069421
    118          8           0       -5.066998   -4.754636    3.714901
    119          6           0       -4.806455   -2.367798    3.605850
    120          6           0       -3.322763   -2.517470    3.802808
    121          8           0       -2.571934   -2.706939    2.829695
    122          8           0       -3.012242   -2.197099    5.072189
    123          6           0       -1.549824   -2.319503    5.313410
    124          1           0       -6.068126    4.169921    1.647405
    125          1           0       -9.152833    2.006715   -3.334221
    126          1           0       -8.861548   -3.834543   -1.047399
    127          1           0       -4.464157    0.577212    4.629686
    128          1           0       -4.511847    3.129011    3.436738
    129          1           0       -6.588501    1.518030    4.862359
    130          1           0       -7.226692    2.658856    3.660056
    131          1           0       -6.266022    3.290125    4.963235
    132          1           0       -2.788075    1.816161    2.433887
    133          1           0       -2.494699    0.090954    2.861396
    134          1           0       -2.470522    1.612815    5.267822
    135          1           0       -1.809323    2.666761    4.069113
    136          1           0       -5.887995    5.778561    0.298141
    137          1           0       -7.069078    6.369173   -0.822313
    138          1           0       -5.435552    6.028730   -1.440751
    139          1           0       -7.549669    6.498440   -2.996645
    140          1           0       -7.513712    6.115243   -4.812841
    141          1           0       -6.125384    5.794974   -3.734249
    142          1           0       -9.764802   -0.305143   -4.217639
    143          1           0      -10.735911   -2.359616   -2.295962
    144          1           0      -11.936447    0.288755   -3.971912
    145          1           0      -11.532110    0.780857   -2.289538
    146          1           0      -12.112727   -0.778951   -2.581974
    147          1           0      -10.220964   -2.821296   -4.723611
    148          1           0       -9.573627   -3.994761   -3.592716
    149          1           0       -8.320304   -1.873836   -5.177958
    150          1           0       -7.750606   -3.569833   -4.968516
    151          1           0       -7.463598   -2.302126   -3.693824
    152          1           0       -6.967151   -6.043011    1.174781
    153          1           0       -8.328530   -5.512091    0.135090
    154          1           0       -8.439825   -5.263942    1.923462
    155          1           0       -5.322747   -2.142540    4.539816
    156          1           0       -1.421789   -2.997398    6.162973
    157          1           0       -1.179387   -1.284230    5.434779
    158          1           0       -0.956623   -2.816672    4.554871
 ---------------------------------------------------------------------
 Rotational constants (GHZ):           0.0223548           0.0079961           0.0077450
 Leave Link  202 at Sat Sep 11 08:24:01 2021, MaxMem= 23488102400 cpu:               0.2 elap:               0.0
 (Enter /sw/apps/gaussian-16.0/g16/l301.exe)
 Standard basis: def2SVP (5D, 7F)
 Ernie: Thresh=  0.10000D-02 Tol=  0.10000D-05 Strict=F.
 There are  1658 symmetry adapted cartesian basis functions of A   symmetry.
 There are  1572 symmetry adapted basis functions of A   symmetry.
  1572 basis functions,  2678 primitive gaussians,  1658 cartesian basis functions
   312 alpha electrons      312 beta electrons
       nuclear repulsion energy     14387.6870991800 Hartrees.
 IExCor=20419 DFT=T Ex+Corr=CAM-B3LYP ExCW=0 ScaHFX=  1.000000
 ScaDFX=  1.000000  1.000000  1.000000  0.810000 ScalE2=  1.000000  1.000000
 IRadAn=      5 IRanWt=     -1 IRanGd=            0 ICorTp=0 IEmpDi=  4
 HFx  wShort=  0.000000 wLong=  0.330000 cFull=  0.190000 cShort=  0.000000 cLong=  0.460000
 DFx  wShort=  0.000000 wLong=  0.330000 cFull=  0.190000 cShort=  0.000000 cLong=  0.460000
 NAtoms=  158 NActive=  158 NUniq=  158 SFac= 1.00D+00 NAtFMM=   60 NAOKFM=T Big=T
 Integral buffers will be    131072 words long.
 Raffenetti 1 integral format.
 Two-electron integral symmetry is turned on.
 Leave Link  301 at Sat Sep 11 08:24:01 2021, MaxMem= 23488102400 cpu:               1.3 elap:               0.1
 (Enter /sw/apps/gaussian-16.0/g16/l302.exe)
 NPDir=0 NMtPBC=     1 NCelOv=     1 NCel=       1 NClECP=     1 NCelD=      1
         NCelK=      1 NCelE2=     1 NClLst=     1 CellRange=     0.0.
 One-electron integrals computed using PRISM.
 One-electron integral symmetry used in STVInt
   1 Symmetry operations used in ECPInt.
 ECPInt:  NShTT=  271216 NPrTT=  987664 LenC2=  121032 LenP2D=  263761.
 LDataN:  DoStor=T MaxTD1= 4 Len=   56
 NBasis=  1572 RedAO= T EigKep=  3.36D-04  NBF=  1572
 NBsUse=  1572 1.00D-06 EigRej= -1.00D+00 NBFU=  1572
 Precomputing XC quadrature grid using
 IXCGrd= 4 IRadAn=           5 IRanWt=          -1 IRanGd=           0 AccXCQ= 0.00D+00.
 Generated NRdTot=       0 NPtTot=           0 NUsed=           0 NTot=          32
 NSgBfM=  1073  1045  1058  1072  1073 MxSgAt=   158 MxSgA2=   158.
 Leave Link  302 at Sat Sep 11 08:24:05 2021, MaxMem= 23488102400 cpu:             108.2 elap:               4.5
 (Enter /sw/apps/gaussian-16.0/g16/l303.exe)
 DipDrv:  MaxL=1.
 Leave Link  303 at Sat Sep 11 08:24:06 2021, MaxMem= 23488102400 cpu:               8.7 elap:               0.4
 (Enter /sw/apps/gaussian-16.0/g16/l308.exe)
 Leave Link  308 at Sat Sep 11 08:24:06 2021, MaxMem= 23488102400 cpu:              12.0 elap:               0.6
 (Enter /sw/apps/gaussian-16.0/g16/l401.exe)
 ExpMin= 3.36D-02 ExpMax= 4.95D+03 ExpMxC= 7.45D+02 IAcc=3 IRadAn=         5 AccDes= 0.00D+00
 Harris functional with IExCor=20419 and IRadAn=       5 diagonalized for initial guess.
 HarFok:  IExCor=20419 AccDes= 0.00D+00 IRadAn=         5 IDoV= 1 UseB2=F ITyADJ=14
 ICtDFT=  3500011 ScaDFX=  1.000000  1.000000  1.000000  1.000000
 FoFCou: FMM=F IPFlag=           0 FMFlag=      100000 FMFlg1=        2001
         NFxFlg=           0 DoJE=T BraDBF=F KetDBF=T FulRan=T
         wScrn=  0.000000 ICntrl=       500 IOpCl=  0 I1Cent=   200000004 NGrid=           0
         NMat0=    1 NMatS0=      1 NMatT0=    0 NMatD0=    1 NMtDS0=    0 NMtDT0=    0
 Petite list used in FoFCou.
 Harris En= -3918.65801232549    
 JPrj=0 DoOrth=F DoCkMO=F.
 Leave Link  401 at Sat Sep 11 08:24:13 2021, MaxMem= 23488102400 cpu:             158.8 elap:               6.6
 (Enter /sw/apps/gaussian-16.0/g16/l502.exe)
 Integral symmetry usage will be decided dynamically.
 Closed shell SCF:
 Using DIIS extrapolation, IDIIS=  1040.
 NGot= 23488102400 LenX= 23482547354 LenY= 23479796732
 Requested convergence on RMS density matrix=1.00D-08 within 128 cycles.
 Requested convergence on MAX density matrix=1.00D-06.
 Requested convergence on             energy=1.00D-06.
 No special actions if energy rises.
 Fock matrices will be formed incrementally for  20 cycles.

 Cycle   1  Pass 1  IDiag  1:
 FoFJK:  IHMeth= 1 ICntrl=       0 DoSepK=T KAlg= 0 I1Cent=           0 FoldK=F
 IRaf=         1 NMat=       1 IRICut=       1 DoRegI=T DoRafI=F ISym2E= 0 IDoP0=0 IntGTp=1.
 FoFCou: FMM=T IPFlag=           0 FMFlag=      100000 FMFlg1=        2001
         NFxFlg=           0 DoJE=T BraDBF=F KetDBF=F FulRan=T
         wScrn=  0.000000 ICntrl=       500 IOpCl=  0 I1Cent=           0 NGrid=           0
         NMat0=    1 NMatS0=      1 NMatT0=    0 NMatD0=    1 NMtDS0=    0 NMtDT0=    0
 Symmetry not used in FoFCou.
 FMM levels:  10  Number of levels for PrismC:   9
 E= -4068.94833645931    
 DIIS: error= 2.04D-02 at cycle   1 NSaved=   1.
 NSaved= 1 IEnMin= 1 EnMin= -4068.94833645931     IErMin= 1 ErrMin= 2.04D-02
 ErrMax= 2.04D-02  0.00D+00 EMaxC= 1.00D-01 BMatC= 1.69D+00 BMatP= 1.69D+00
 IDIUse=3 WtCom= 7.96D-01 WtEn= 2.04D-01
 Coeff-Com:  0.100D+01
 Coeff-En:   0.100D+01
 Coeff:      0.100D+01
 Gap=     0.120 Goal=   None    Shift=    0.000
 GapD=    0.120 DampG=1.000 DampE=0.500 DampFc=0.5000 IDamp=-1.
 Damping current iteration by 5.00D-01
 RMSDP=1.57D-03 MaxDP=1.35D-01              OVMax= 2.07D-01

 Cycle   2  Pass 1  IDiag  1:
 RMSU=  7.70D-04    CP:  9.82D-01
 E= -4069.33710370877     Delta-E=       -0.388767249460 Rises=F Damp=T
 DIIS: error= 1.27D-02 at cycle   2 NSaved=   2.
 NSaved= 2 IEnMin= 2 EnMin= -4069.33710370877     IErMin= 2 ErrMin= 1.27D-02
 ErrMax= 1.27D-02  0.00D+00 EMaxC= 1.00D-01 BMatC= 3.07D-01 BMatP= 1.69D+00
 IDIUse=3 WtCom= 8.73D-01 WtEn= 1.27D-01
 Coeff-Com: -0.212D+00 0.121D+01
 Coeff-En:   0.000D+00 0.100D+01
 Coeff:     -0.185D+00 0.119D+01
 Gap=     0.136 Goal=   None    Shift=    0.000
 RMSDP=7.66D-04 MaxDP=9.51D-02 DE=-3.89D-01 OVMax= 1.87D-01

 Cycle   3  Pass 1  IDiag  1:
 RMSU=  7.34D-04    CP:  9.68D-01  1.24D+00
 E= -4069.62585850183     Delta-E=       -0.288754793059 Rises=F Damp=F
 DIIS: error= 1.59D-02 at cycle   3 NSaved=   3.
 NSaved= 3 IEnMin= 3 EnMin= -4069.62585850183     IErMin= 2 ErrMin= 1.27D-02
 ErrMax= 1.59D-02  0.00D+00 EMaxC= 1.00D-01 BMatC= 2.03D-01 BMatP= 3.07D-01
 IDIUse=3 WtCom= 8.41D-01 WtEn= 1.59D-01
 Coeff-Com: -0.267D+00 0.653D+00 0.615D+00
 Coeff-En:   0.000D+00 0.000D+00 0.100D+01
 Coeff:     -0.225D+00 0.549D+00 0.676D+00
 Gap=     0.124 Goal=   None    Shift=    0.000
 RMSDP=5.12D-04 MaxDP=4.74D-02 DE=-2.89D-01 OVMax= 1.49D-01

 Cycle   4  Pass 1  IDiag  1:
 RMSU=  2.67D-04    CP:  9.65D-01  1.55D+00  5.03D-01
 E= -4069.76344772876     Delta-E=       -0.137589226935 Rises=F Damp=F
 DIIS: error= 7.39D-03 at cycle   4 NSaved=   4.
 NSaved= 4 IEnMin= 4 EnMin= -4069.76344772876     IErMin= 4 ErrMin= 7.39D-03
 ErrMax= 7.39D-03  0.00D+00 EMaxC= 1.00D-01 BMatC= 5.14D-02 BMatP= 2.03D-01
 IDIUse=3 WtCom= 9.26D-01 WtEn= 7.39D-02
 Coeff-Com: -0.109D+00 0.226D+00 0.410D+00 0.473D+00
 Coeff-En:   0.000D+00 0.000D+00 0.224D+00 0.776D+00
 Coeff:     -0.101D+00 0.210D+00 0.396D+00 0.495D+00
 Gap=     0.122 Goal=   None    Shift=    0.000
 RMSDP=2.03D-04 MaxDP=2.08D-02 DE=-1.38D-01 OVMax= 6.61D-02

 Cycle   5  Pass 1  IDiag  1:
 RMSU=  7.76D-05    CP:  9.64D-01  1.49D+00  6.88D-01  5.44D-01
 E= -4069.80994732144     Delta-E=       -0.046499592674 Rises=F Damp=F
 DIIS: error= 7.90D-04 at cycle   5 NSaved=   5.
 NSaved= 5 IEnMin= 5 EnMin= -4069.80994732144     IErMin= 5 ErrMin= 7.90D-04
 ErrMax= 7.90D-04  0.00D+00 EMaxC= 1.00D-01 BMatC= 1.24D-03 BMatP= 5.14D-02
 IDIUse=3 WtCom= 9.92D-01 WtEn= 7.90D-03
 Coeff-Com: -0.367D-01 0.721D-01 0.169D+00 0.253D+00 0.543D+00
 Coeff-En:   0.000D+00 0.000D+00 0.000D+00 0.000D+00 0.100D+01
 Coeff:     -0.364D-01 0.715D-01 0.168D+00 0.251D+00 0.547D+00
 Gap=     0.122 Goal=   None    Shift=    0.000
 RMSDP=4.27D-05 MaxDP=4.34D-03 DE=-4.65D-02 OVMax= 1.86D-02

 Cycle   6  Pass 1  IDiag  1:
 RMSU=  3.12D-05    CP:  9.64D-01  1.49D+00  6.80D-01  6.19D-01  7.44D-01
 E= -4069.81104161525     Delta-E=       -0.001094293817 Rises=F Damp=F
 DIIS: error= 2.01D-04 at cycle   6 NSaved=   6.
 NSaved= 6 IEnMin= 6 EnMin= -4069.81104161525     IErMin= 6 ErrMin= 2.01D-04
 ErrMax= 2.01D-04  0.00D+00 EMaxC= 1.00D-01 BMatC= 1.87D-04 BMatP= 1.24D-03
 IDIUse=3 WtCom= 9.98D-01 WtEn= 2.01D-03
 Coeff-Com:  0.210D-02-0.638D-02 0.122D-01 0.417D-01 0.305D+00 0.645D+00
 Coeff-En:   0.000D+00 0.000D+00 0.000D+00 0.000D+00 0.108D+00 0.892D+00
 Coeff:      0.209D-02-0.637D-02 0.121D-01 0.416D-01 0.305D+00 0.646D+00
 Gap=     0.123 Goal=   None    Shift=    0.000
 RMSDP=1.66D-05 MaxDP=1.23D-03 DE=-1.09D-03 OVMax= 7.74D-03

 Cycle   7  Pass 1  IDiag  1:
 RMSU=  1.11D-05    CP:  9.64D-01  1.50D+00  6.86D-01  6.18D-01  8.48D-01
                    CP:  7.43D-01
 E= -4069.81124470795     Delta-E=       -0.000203092692 Rises=F Damp=F
 DIIS: error= 9.30D-05 at cycle   7 NSaved=   7.
 NSaved= 7 IEnMin= 7 EnMin= -4069.81124470795     IErMin= 7 ErrMin= 9.30D-05
 ErrMax= 9.30D-05  0.00D+00 EMaxC= 1.00D-01 BMatC= 2.35D-05 BMatP= 1.87D-04
 IDIUse=1 WtCom= 1.00D+00 WtEn= 0.00D+00
 Coeff-Com:  0.452D-02-0.992D-02-0.882D-02-0.315D-02 0.106D+00 0.337D+00
 Coeff-Com:  0.575D+00
 Coeff:      0.452D-02-0.992D-02-0.882D-02-0.315D-02 0.106D+00 0.337D+00
 Coeff:      0.575D+00
 Gap=     0.123 Goal=   None    Shift=    0.000
 RMSDP=6.76D-06 MaxDP=1.14D-03 DE=-2.03D-04 OVMax= 3.56D-03

 Cycle   8  Pass 1  IDiag  1:
 RMSU=  4.80D-06    CP:  9.64D-01  1.50D+00  6.86D-01  6.23D-01  8.51D-01
                    CP:  8.69D-01  8.10D-01
 E= -4069.81127380708     Delta-E=       -0.000029099137 Rises=F Damp=F
 DIIS: error= 5.12D-05 at cycle   8 NSaved=   8.
 NSaved= 8 IEnMin= 8 EnMin= -4069.81127380708     IErMin= 8 ErrMin= 5.12D-05
 ErrMax= 5.12D-05  0.00D+00 EMaxC= 1.00D-01 BMatC= 5.00D-06 BMatP= 2.35D-05
 IDIUse=1 WtCom= 1.00D+00 WtEn= 0.00D+00
 Coeff-Com:  0.220D-02-0.437D-02-0.785D-02-0.122D-01-0.978D-02 0.347D-01
 Coeff-Com:  0.332D+00 0.666D+00
 Coeff:      0.220D-02-0.437D-02-0.785D-02-0.122D-01-0.978D-02 0.347D-01
 Coeff:      0.332D+00 0.666D+00
 Gap=     0.123 Goal=   None    Shift=    0.000
 RMSDP=3.35D-06 MaxDP=3.55D-04 DE=-2.91D-05 OVMax= 1.10D-03

 Cycle   9  Pass 1  IDiag  1:
 RMSU=  1.96D-06    CP:  9.64D-01  1.50D+00  6.87D-01  6.24D-01  8.68D-01
                    CP:  8.96D-01  1.00D+00  9.55D-01
 E= -4069.81128186100     Delta-E=       -0.000008053914 Rises=F Damp=F
 DIIS: error= 1.97D-05 at cycle   9 NSaved=   9.
 NSaved= 9 IEnMin= 9 EnMin= -4069.81128186100     IErMin= 9 ErrMin= 1.97D-05
 ErrMax= 1.97D-05  0.00D+00 EMaxC= 1.00D-01 BMatC= 7.42D-07 BMatP= 5.00D-06
 IDIUse=1 WtCom= 1.00D+00 WtEn= 0.00D+00
 Coeff-Com:  0.471D-03-0.781D-03-0.271D-02-0.610D-02-0.208D-01-0.401D-01
 Coeff-Com:  0.979D-01 0.332D+00 0.641D+00
 Coeff:      0.471D-03-0.781D-03-0.271D-02-0.610D-02-0.208D-01-0.401D-01
 Coeff:      0.979D-01 0.332D+00 0.641D+00
 Gap=     0.123 Goal=   None    Shift=    0.000
 RMSDP=1.46D-06 MaxDP=1.53D-04 DE=-8.05D-06 OVMax= 7.66D-04

 Cycle  10  Pass 1  IDiag  1:
 RMSU=  9.58D-07    CP:  9.64D-01  1.50D+00  6.87D-01  6.25D-01  8.71D-01
                    CP:  9.10D-01  1.05D+00  1.12D+00  1.06D+00
 E= -4069.81128356928     Delta-E=       -0.000001708282 Rises=F Damp=F
 DIIS: error= 9.94D-06 at cycle  10 NSaved=  10.
 NSaved=10 IEnMin=10 EnMin= -4069.81128356928     IErMin=10 ErrMin= 9.94D-06
 ErrMax= 9.94D-06  0.00D+00 EMaxC= 1.00D-01 BMatC= 1.77D-07 BMatP= 7.42D-07
 IDIUse=1 WtCom= 1.00D+00 WtEn= 0.00D+00
 Coeff-Com: -0.433D-03 0.908D-03 0.125D-02 0.110D-02-0.363D-02-0.314D-01
 Coeff-Com: -0.454D-01-0.752D-01 0.242D+00 0.911D+00
 Coeff:     -0.433D-03 0.908D-03 0.125D-02 0.110D-02-0.363D-02-0.314D-01
 Coeff:     -0.454D-01-0.752D-01 0.242D+00 0.911D+00
 Gap=     0.123 Goal=   None    Shift=    0.000
 RMSDP=1.26D-06 MaxDP=1.21D-04 DE=-1.71D-06 OVMax= 6.32D-04

 Cycle  11  Pass 1  IDiag  1:
 RMSU=  5.33D-07    CP:  9.64D-01  1.50D+00  6.87D-01  6.25D-01  8.73D-01
                    CP:  9.20D-01  1.10D+00  1.24D+00  1.40D+00  1.39D+00
 E= -4069.81128441093     Delta-E=       -0.000000841650 Rises=F Damp=F
 DIIS: error= 4.69D-06 at cycle  11 NSaved=  11.
 NSaved=11 IEnMin=11 EnMin= -4069.81128441093     IErMin=11 ErrMin= 4.69D-06
 ErrMax= 4.69D-06  0.00D+00 EMaxC= 1.00D-01 BMatC= 6.59D-08 BMatP= 1.77D-07
 IDIUse=1 WtCom= 1.00D+00 WtEn= 0.00D+00
 Coeff-Com: -0.334D-03 0.648D-03 0.136D-02 0.215D-02 0.454D-02-0.824D-02
 Coeff-Com: -0.420D-01-0.133D+00-0.361D-01 0.471D+00 0.740D+00
 Coeff:     -0.334D-03 0.648D-03 0.136D-02 0.215D-02 0.454D-02-0.824D-02
 Coeff:     -0.420D-01-0.133D+00-0.361D-01 0.471D+00 0.740D+00
 Gap=     0.123 Goal=   None    Shift=    0.000
 RMSDP=7.19D-07 MaxDP=6.55D-05 DE=-8.42D-07 OVMax= 3.95D-04

 Cycle  12  Pass 1  IDiag  1:
 RMSU=  2.70D-07    CP:  9.64D-01  1.50D+00  6.87D-01  6.25D-01  8.74D-01
                    CP:  9.23D-01  1.12D+00  1.30D+00  1.57D+00  1.79D+00
                    CP:  1.21D+00
 E= -4069.81128469768     Delta-E=       -0.000000286749 Rises=F Damp=F
 DIIS: error= 2.51D-06 at cycle  12 NSaved=  12.
 NSaved=12 IEnMin=12 EnMin= -4069.81128469768     IErMin=12 ErrMin= 2.51D-06
 ErrMax= 2.51D-06  0.00D+00 EMaxC= 1.00D-01 BMatC= 1.59D-08 BMatP= 6.59D-08
 IDIUse=1 WtCom= 1.00D+00 WtEn= 0.00D+00
 Coeff-Com:  0.184D-05-0.210D-04 0.179D-03 0.511D-03 0.340D-02 0.423D-02
 Coeff-Com:  0.332D-02-0.336D-01-0.709D-01-0.788D-01 0.245D+00 0.927D+00
 Coeff:      0.184D-05-0.210D-04 0.179D-03 0.511D-03 0.340D-02 0.423D-02
 Coeff:      0.332D-02-0.336D-01-0.709D-01-0.788D-01 0.245D+00 0.927D+00
 Gap=     0.123 Goal=   None    Shift=    0.000
 RMSDP=4.60D-07 MaxDP=2.89D-05 DE=-2.87D-07 OVMax= 2.61D-04

 Cycle  13  Pass 1  IDiag  1:
 RMSU=  1.70D-07    CP:  9.64D-01  1.50D+00  6.87D-01  6.25D-01  8.75D-01
                    CP:  9.23D-01  1.13D+00  1.33D+00  1.69D+00  2.03D+00
                    CP:  1.63D+00  1.29D+00
 E= -4069.81128479800     Delta-E=       -0.000000100321 Rises=F Damp=F
 DIIS: error= 1.56D-06 at cycle  13 NSaved=  13.
 NSaved=13 IEnMin=13 EnMin= -4069.81128479800     IErMin=13 ErrMin= 1.56D-06
 ErrMax= 1.56D-06  0.00D+00 EMaxC= 1.00D-01 BMatC= 8.73D-09 BMatP= 1.59D-08
 IDIUse=1 WtCom= 1.00D+00 WtEn= 0.00D+00
 Coeff-Com:  0.122D-03-0.250D-03-0.377D-03-0.467D-03 0.608D-03 0.504D-02
 Coeff-Com:  0.193D-01 0.237D-01-0.311D-01-0.244D+00-0.163D+00 0.604D+00
 Coeff-Com:  0.786D+00
 Coeff:      0.122D-03-0.250D-03-0.377D-03-0.467D-03 0.608D-03 0.504D-02
 Coeff:      0.193D-01 0.237D-01-0.311D-01-0.244D+00-0.163D+00 0.604D+00
 Coeff:      0.786D+00
 Gap=     0.123 Goal=   None    Shift=    0.000
 RMSDP=3.54D-07 MaxDP=2.39D-05 DE=-1.00D-07 OVMax= 2.09D-04

 Cycle  14  Pass 1  IDiag  1:
 RMSU=  7.89D-08    CP:  9.64D-01  1.50D+00  6.87D-01  6.26D-01  8.75D-01
                    CP:  9.24D-01  1.13D+00  1.36D+00  1.76D+00  2.22D+00
                    CP:  1.89D+00  1.80D+00  1.08D+00
 E= -4069.81128483661     Delta-E=       -0.000000038614 Rises=F Damp=F
 DIIS: error= 7.06D-07 at cycle  14 NSaved=  14.
 NSaved=14 IEnMin=14 EnMin= -4069.81128483661     IErMin=14 ErrMin= 7.06D-07
 ErrMax= 7.06D-07  0.00D+00 EMaxC= 1.00D-01 BMatC= 1.36D-09 BMatP= 8.73D-09
 IDIUse=1 WtCom= 1.00D+00 WtEn= 0.00D+00
 Coeff-Com:  0.677D-04-0.133D-03-0.252D-03-0.395D-03-0.465D-03 0.124D-02
 Coeff-Com:  0.105D-01 0.196D-01 0.532D-02-0.101D+00-0.145D+00 0.979D-01
 Coeff-Com:  0.408D+00 0.705D+00
 Coeff:      0.677D-04-0.133D-03-0.252D-03-0.395D-03-0.465D-03 0.124D-02
 Coeff:      0.105D-01 0.196D-01 0.532D-02-0.101D+00-0.145D+00 0.979D-01
 Coeff:      0.408D+00 0.705D+00
 Gap=     0.123 Goal=   None    Shift=    0.000
 RMSDP=1.04D-07 MaxDP=7.44D-06 DE=-3.86D-08 OVMax= 5.64D-05

 Cycle  15  Pass 1  IDiag  1:
 RMSU=  3.93D-08    CP:  9.64D-01  1.50D+00  6.87D-01  6.26D-01  8.75D-01
                    CP:  9.23D-01  1.13D+00  1.36D+00  1.78D+00  2.27D+00
                    CP:  2.00D+00  1.94D+00  1.32D+00  1.02D+00
 E= -4069.81128484085     Delta-E=       -0.000000004235 Rises=F Damp=F
 DIIS: error= 3.37D-07 at cycle  15 NSaved=  15.
 NSaved=15 IEnMin=15 EnMin= -4069.81128484085     IErMin=15 ErrMin= 3.37D-07
 ErrMax= 3.37D-07  0.00D+00 EMaxC= 1.00D-01 BMatC= 2.43D-10 BMatP= 1.36D-09
 IDIUse=1 WtCom= 1.00D+00 WtEn= 0.00D+00
 Coeff-Com:  0.579D-05-0.973D-05-0.348D-04-0.858D-04-0.297D-03-0.538D-03
 Coeff-Com:  0.115D-02 0.266D-02 0.888D-02 0.162D-02-0.320D-01-0.713D-01
 Coeff-Com:  0.327D-01 0.300D+00 0.757D+00
 Coeff:      0.579D-05-0.973D-05-0.348D-04-0.858D-04-0.297D-03-0.538D-03
 Coeff:      0.115D-02 0.266D-02 0.888D-02 0.162D-02-0.320D-01-0.713D-01
 Coeff:      0.327D-01 0.300D+00 0.757D+00
 Gap=     0.123 Goal=   None    Shift=    0.000
 RMSDP=4.10D-08 MaxDP=2.65D-06 DE=-4.23D-09 OVMax= 2.87D-05

 Cycle  16  Pass 1  IDiag  1:
 RMSU=  1.94D-08    CP:  9.64D-01  1.50D+00  6.87D-01  6.26D-01  8.75D-01
                    CP:  9.24D-01  1.13D+00  1.36D+00  1.78D+00  2.28D+00
                    CP:  2.02D+00  2.00D+00  1.39D+00  1.23D+00  1.13D+00
 E= -4069.81128484195     Delta-E=       -0.000000001102 Rises=F Damp=F
 DIIS: error= 1.93D-07 at cycle  16 NSaved=  16.
 NSaved=16 IEnMin=16 EnMin= -4069.81128484195     IErMin=16 ErrMin= 1.93D-07
 ErrMax= 1.93D-07  0.00D+00 EMaxC= 1.00D-01 BMatC= 8.84D-11 BMatP= 2.43D-10
 IDIUse=1 WtCom= 1.00D+00 WtEn= 0.00D+00
 Coeff-Com: -0.141D-04 0.285D-04 0.461D-04 0.516D-04-0.313D-04-0.638D-03
 Coeff-Com: -0.185D-02-0.420D-02 0.410D-02 0.255D-01 0.197D-01-0.643D-01
 Coeff-Com: -0.806D-01-0.306D-01 0.401D+00 0.731D+00
 Coeff:     -0.141D-04 0.285D-04 0.461D-04 0.516D-04-0.313D-04-0.638D-03
 Coeff:     -0.185D-02-0.420D-02 0.410D-02 0.255D-01 0.197D-01-0.643D-01
 Coeff:     -0.806D-01-0.306D-01 0.401D+00 0.731D+00
 Gap=     0.123 Goal=   None    Shift=    0.000
 RMSDP=2.31D-08 MaxDP=1.30D-06 DE=-1.10D-09 OVMax= 1.19D-05

 Cycle  17  Pass 1  IDiag  1:
 RMSU=  1.09D-08    CP:  9.64D-01  1.50D+00  6.87D-01  6.26D-01  8.75D-01
                    CP:  9.24D-01  1.13D+00  1.36D+00  1.79D+00  2.28D+00
                    CP:  2.03D+00  2.03D+00  1.44D+00  1.32D+00  1.42D+00
                    CP:  1.21D+00
 E= -4069.81128484203     Delta-E=       -0.000000000084 Rises=F Damp=F
 DIIS: error= 9.42D-08 at cycle  17 NSaved=  17.
 NSaved=17 IEnMin=17 EnMin= -4069.81128484203     IErMin=17 ErrMin= 9.42D-08
 ErrMax= 9.42D-08  0.00D+00 EMaxC= 1.00D-01 BMatC= 1.90D-11 BMatP= 8.84D-11
 IDIUse=1 WtCom= 1.00D+00 WtEn= 0.00D+00
 Coeff-Com: -0.745D-05 0.145D-04 0.293D-04 0.430D-04 0.806D-04-0.137D-03
 Coeff-Com: -0.929D-03-0.285D-02 0.250D-04 0.999D-02 0.175D-01-0.905D-02
 Coeff-Com: -0.383D-01-0.986D-01-0.177D-01 0.299D+00 0.841D+00
 Coeff:     -0.745D-05 0.145D-04 0.293D-04 0.430D-04 0.806D-04-0.137D-03
 Coeff:     -0.929D-03-0.285D-02 0.250D-04 0.999D-02 0.175D-01-0.905D-02
 Coeff:     -0.383D-01-0.986D-01-0.177D-01 0.299D+00 0.841D+00
 Gap=     0.123 Goal=   None    Shift=    0.000
 RMSDP=1.36D-08 MaxDP=8.23D-07 DE=-8.37D-11 OVMax= 9.40D-06

 Cycle  18  Pass 1  IDiag  1:
 RMSU=  5.32D-09    CP:  9.64D-01  1.50D+00  6.87D-01  6.26D-01  8.75D-01
                    CP:  9.24D-01  1.13D+00  1.36D+00  1.79D+00  2.29D+00
                    CP:  2.04D+00  2.03D+00  1.46D+00  1.39D+00  1.58D+00
                    CP:  1.60D+00  1.34D+00
 E= -4069.81128484199     Delta-E=        0.000000000044 Rises=F Damp=F
 DIIS: error= 6.60D-08 at cycle  18 NSaved=  18.
 NSaved=18 IEnMin=17 EnMin= -4069.81128484203     IErMin=18 ErrMin= 6.60D-08
 ErrMax= 6.60D-08  0.00D+00 EMaxC= 1.00D-01 BMatC= 8.07D-12 BMatP= 1.90D-11
 IDIUse=1 WtCom= 1.00D+00 WtEn= 0.00D+00
 Coeff-Com:  0.112D-05-0.259D-05-0.115D-05 0.316D-05 0.638D-04 0.158D-03
 Coeff-Com:  0.267D-03-0.760D-04-0.120D-02-0.475D-02 0.158D-02 0.177D-01
 Coeff-Com:  0.126D-01-0.413D-01-0.151D+00-0.147D+00 0.407D+00 0.907D+00
 Coeff:      0.112D-05-0.259D-05-0.115D-05 0.316D-05 0.638D-04 0.158D-03
 Coeff:      0.267D-03-0.760D-04-0.120D-02-0.475D-02 0.158D-02 0.177D-01
 Coeff:      0.126D-01-0.413D-01-0.151D+00-0.147D+00 0.407D+00 0.907D+00
 Gap=     0.123 Goal=   None    Shift=    0.000
 RMSDP=1.11D-08 MaxDP=7.20D-07 DE= 4.37D-11 OVMax= 5.83D-06

 Cycle  19  Pass 1  IDiag  1:
 RMSU=  3.17D-09    CP:  9.64D-01  1.50D+00  6.87D-01  6.26D-01  8.75D-01
                    CP:  9.24D-01  1.13D+00  1.36D+00  1.79D+00  2.29D+00
                    CP:  2.04D+00  2.04D+00  1.47D+00  1.43D+00  1.72D+00
                    CP:  1.88D+00  1.85D+00  1.22D+00
 E= -4069.81128484190     Delta-E=        0.000000000087 Rises=F Damp=F
 DIIS: error= 2.78D-08 at cycle  19 NSaved=  19.
 NSaved=19 IEnMin=17 EnMin= -4069.81128484203     IErMin=19 ErrMin= 2.78D-08
 ErrMax= 2.78D-08  0.00D+00 EMaxC= 1.00D-01 BMatC= 2.24D-12 BMatP= 8.07D-12
 IDIUse=1 WtCom= 1.00D+00 WtEn= 0.00D+00
 Coeff-Com:  0.311D-05-0.629D-05-0.103D-04-0.124D-04 0.178D-04 0.137D-03
 Coeff-Com:  0.496D-03 0.829D-03-0.648D-03-0.647D-02-0.478D-02 0.140D-01
 Coeff-Com:  0.216D-01 0.704D-02-0.856D-01-0.197D+00-0.482D-02 0.544D+00
 Coeff-Com:  0.711D+00
 Coeff:      0.311D-05-0.629D-05-0.103D-04-0.124D-04 0.178D-04 0.137D-03
 Coeff:      0.496D-03 0.829D-03-0.648D-03-0.647D-02-0.478D-02 0.140D-01
 Coeff:      0.216D-01 0.704D-02-0.856D-01-0.197D+00-0.482D-02 0.544D+00
 Coeff:      0.711D+00
 Gap=     0.123 Goal=   None    Shift=    0.000
 RMSDP=5.40D-09 MaxDP=3.50D-07 DE= 8.73D-11 OVMax= 3.76D-06

 SCF Done:  E(RCAM-B3LYP) =  -4069.81128484     A.U. after   19 cycles
            NFock= 19  Conv=0.54D-08     -V/T= 2.0102
 KE= 4.028801690729D+03 PE=-3.825667535864D+04 EE= 1.577037528389D+04
 Leave Link  502 at Sat Sep 11 08:33:05 2021, MaxMem= 23488102400 cpu:           12209.7 elap:             531.6
 (Enter /sw/apps/gaussian-16.0/g16/l801.exe)
 DoSCS=F DFT=T ScalE2(SS,OS)=  1.000000  1.000000
 ExpMin= 3.36D-02 ExpMax= 4.95D+03 ExpMxC= 7.45D+02 IAcc=3 IRadAn=         5 AccDes= 0.00D+00
 HarFok:  IExCor=  205 AccDes= 0.00D+00 IRadAn=         5 IDoV=-2 UseB2=F ITyADJ=14
 ICtDFT= 12500011 ScaDFX=  1.000000  1.000000  1.000000  1.000000
 GSVD:  LWork=       -9588 too small for GESVD, short by       45590 words or       45590 for optimal perf.
 Largest valence mixing into a core orbital is  2.03D-04
 Largest core mixing into a valence orbital is  5.24D-05
 Range of M.O.s used for correlation:    95  1572
 NBasis=  1572 NAE=   312 NBE=   312 NFC=    94 NFV=     0
 NROrb=   1478 NOA=   218 NOB=   218 NVA=  1260 NVB=  1260
 Leave Link  801 at Sat Sep 11 08:33:05 2021, MaxMem= 23488102400 cpu:               8.0 elap:               0.4
 (Enter /sw/apps/gaussian-16.0/g16/l914.exe)
 RHF ground state
 Two-electron integrals replicated using symmetry.
 MDV= 23488102400 DFT=T DoStab=F Mixed=T DoRPA=T DoScal=F NonHer=T
 Making orbital integer symmetry assigments:
 Orbital symmetries:
       Occupied  (A) (A) (A) (A) (A) (A) (A) (A) (A) (A) (A) (A)
                 (A) (A) (A) (A) (A) (A) (A) (A) (A) (A) (A) (A)
                 (A) (A) (A) (A) (A) (A) (A) (A) (A) (A) (A) (A)
                 (A) (A) (A) (A) (A) (A) (A) (A) (A) (A) (A) (A)
                 (A) (A) (A) (A) (A) (A) (A) (A) (A) (A) (A) (A)
                 (A) (A) (A) (A) (A) (A) (A) (A) (A) (A) (A) (A)
                 (A) (A) (A) (A) (A) (A) (A) (A) (A) (A) (A) (A)
                 (A) (A) (A) (A) (A) (A) (A) (A) (A) (A) (A) (A)
                 (A) (A) (A) (A) (A) (A) (A) (A) (A) (A) (A) (A)
                 (A) (A) (A) (A) (A) (A) (A) (A) (A) (A) (A) (A)
                 (A) (A) (A) (A) (A) (A) (A) (A) (A) (A) (A) (A)
                 (A) (A) (A) (A) (A) (A) (A) (A) (A) (A) (A) (A)
                 (A) (A) (A) (A) (A) (A) (A) (A) (A) (A) (A) (A)
                 (A) (A) (A) (A) (A) (A) (A) (A) (A) (A) (A) (A)
                 (A) (A) (A) (A) (A) (A) (A) (A) (A) (A) (A) (A)
                 (A) (A) (A) (A) (A) (A) (A) (A) (A) (A) (A) (A)
                 (A) (A) (A) (A) (A) (A) (A) (A) (A) (A) (A) (A)
                 (A) (A) (A) (A) (A) (A) (A) (A) (A) (A) (A) (A)
                 (A) (A) (A) (A) (A) (A) (A) (A) (A) (A) (A) (A)
                 (A) (A) (A) (A) (A) (A) (A) (A) (A) (A) (A) (A)
                 (A) (A) (A) (A) (A) (A) (A) (A) (A) (A) (A) (A)
                 (A) (A) (A) (A) (A) (A) (A) (A) (A) (A) (A) (A)
                 (A) (A) (A) (A) (A) (A) (A) (A) (A) (A) (A) (A)
                 (A) (A) (A) (A) (A) (A) (A) (A) (A) (A) (A) (A)
                 (A) (A) (A) (A) (A) (A) (A) (A) (A) (A) (A) (A)
                 (A) (A) (A) (A) (A) (A) (A) (A) (A) (A) (A) (A)
       Virtual   (A) (A) (A) (A) (A) (A) (A) (A) (A) (A) (A) (A)
                 (A) (A) (A) (A) (A) (A) (A) (A) (A) (A) (A) (A)
                 (A) (A) (A) (A) (A) (A) (A) (A) (A) (A) (A) (A)
                 (A) (A) (A) (A) (A) (A) (A) (A) (A) (A) (A) (A)
                 (A) (A) (A) (A) (A) (A) (A) (A) (A) (A) (A) (A)
                 (A) (A) (A) (A) (A) (A) (A) (A) (A) (A) (A) (A)
                 (A) (A) (A) (A) (A) (A) (A) (A) (A) (A) (A) (A)
                 (A) (A) (A) (A) (A) (A) (A) (A) (A) (A) (A) (A)
                 (A) (A) (A) (A) (A) (A) (A) (A) (A) (A) (A) (A)
                 (A) (A) (A) (A) (A) (A) (A) (A) (A) (A) (A) (A)
                 (A) (A) (A) (A) (A) (A) (A) (A) (A) (A) (A) (A)
                 (A) (A) (A) (A) (A) (A) (A) (A) (A) (A) (A) (A)
                 (A) (A) (A) (A) (A) (A) (A) (A) (A) (A) (A) (A)
                 (A) (A) (A) (A) (A) (A) (A) (A) (A) (A) (A) (A)
                 (A) (A) (A) (A) (A) (A) (A) (A) (A) (A) (A) (A)
                 (A) (A) (A) (A) (A) (A) (A) (A) (A) (A) (A) (A)
                 (A) (A) (A) (A) (A) (A) (A) (A) (A) (A) (A) (A)
                 (A) (A) (A) (A) (A) (A) (A) (A) (A) (A) (A) (A)
                 (A) (A) (A) (A) (A) (A) (A) (A) (A) (A) (A) (A)
                 (A) (A) (A) (A) (A) (A) (A) (A) (A) (A) (A) (A)
                 (A) (A) (A) (A) (A) (A) (A) (A) (A) (A) (A) (A)
                 (A) (A) (A) (A) (A) (A) (A) (A) (A) (A) (A) (A)
                 (A) (A) (A) (A) (A) (A) (A) (A) (A) (A) (A) (A)
                 (A) (A) (A) (A) (A) (A) (A) (A) (A) (A) (A) (A)
                 (A) (A) (A) (A) (A) (A) (A) (A) (A) (A) (A) (A)
                 (A) (A) (A) (A) (A) (A) (A) (A) (A) (A) (A) (A)
                 (A) (A) (A) (A) (A) (A) (A) (A) (A) (A) (A) (A)
                 (A) (A) (A) (A) (A) (A) (A) (A) (A) (A) (A) (A)
                 (A) (A) (A) (A) (A) (A) (A) (A) (A) (A) (A) (A)
                 (A) (A) (A) (A) (A) (A) (A) (A) (A) (A) (A) (A)
                 (A) (A) (A) (A) (A) (A) (A) (A) (A) (A) (A) (A)
                 (A) (A) (A) (A) (A) (A) (A) (A) (A) (A) (A) (A)
                 (A) (A) (A) (A) (A) (A) (A) (A) (A) (A) (A) (A)
                 (A) (A) (A) (A) (A) (A) (A) (A) (A) (A) (A) (A)
                 (A) (A) (A) (A) (A) (A) (A) (A) (A) (A) (A) (A)
                 (A) (A) (A) (A) (A) (A) (A) (A) (A) (A) (A) (A)
                 (A) (A) (A) (A) (A) (A) (A) (A) (A) (A) (A) (A)
                 (A) (A) (A) (A) (A) (A) (A) (A) (A) (A) (A) (A)
                 (A) (A) (A) (A) (A) (A) (A) (A) (A) (A) (A) (A)
                 (A) (A) (A) (A) (A) (A) (A) (A) (A) (A) (A) (A)
                 (A) (A) (A) (A) (A) (A) (A) (A) (A) (A) (A) (A)
                 (A) (A) (A) (A) (A) (A) (A) (A) (A) (A) (A) (A)
                 (A) (A) (A) (A) (A) (A) (A) (A) (A) (A) (A) (A)
                 (A) (A) (A) (A) (A) (A) (A) (A) (A) (A) (A) (A)
                 (A) (A) (A) (A) (A) (A) (A) (A) (A) (A) (A) (A)
                 (A) (A) (A) (A) (A) (A) (A) (A) (A) (A) (A) (A)
                 (A) (A) (A) (A) (A) (A) (A) (A) (A) (A) (A) (A)
                 (A) (A) (A) (A) (A) (A) (A) (A) (A) (A) (A) (A)
                 (A) (A) (A) (A) (A) (A) (A) (A) (A) (A) (A) (A)
                 (A) (A) (A) (A) (A) (A) (A) (A) (A) (A) (A) (A)
                 (A) (A) (A) (A) (A) (A) (A) (A) (A) (A) (A) (A)
                 (A) (A) (A) (A) (A) (A) (A) (A) (A) (A) (A) (A)
                 (A) (A) (A) (A) (A) (A) (A) (A) (A) (A) (A) (A)
                 (A) (A) (A) (A) (A) (A) (A) (A) (A) (A) (A) (A)
                 (A) (A) (A) (A) (A) (A) (A) (A) (A) (A) (A) (A)
                 (A) (A) (A) (A) (A) (A) (A) (A) (A) (A) (A) (A)
                 (A) (A) (A) (A) (A) (A) (A) (A) (A) (A) (A) (A)
                 (A) (A) (A) (A) (A) (A) (A) (A) (A) (A) (A) (A)
                 (A) (A) (A) (A) (A) (A) (A) (A) (A) (A) (A) (A)
                 (A) (A) (A) (A) (A) (A) (A) (A) (A) (A) (A) (A)
                 (A) (A) (A) (A) (A) (A) (A) (A) (A) (A) (A) (A)
                 (A) (A) (A) (A) (A) (A) (A) (A) (A) (A) (A) (A)
                 (A) (A) (A) (A) (A) (A) (A) (A) (A) (A) (A) (A)
                 (A) (A) (A) (A) (A) (A) (A) (A) (A) (A) (A) (A)
                 (A) (A) (A) (A) (A) (A) (A) (A) (A) (A) (A) (A)
                 (A) (A) (A) (A) (A) (A) (A) (A) (A) (A) (A) (A)
                 (A) (A) (A) (A) (A) (A) (A) (A) (A) (A) (A) (A)
                 (A) (A) (A) (A) (A) (A) (A) (A) (A) (A) (A) (A)
                 (A) (A) (A) (A) (A) (A) (A) (A) (A) (A) (A) (A)
                 (A) (A) (A) (A) (A) (A) (A) (A) (A) (A) (A) (A)
                 (A) (A) (A) (A) (A) (A) (A) (A) (A) (A) (A) (A)
                 (A) (A) (A) (A) (A) (A) (A) (A) (A) (A) (A) (A)
                 (A) (A) (A) (A) (A) (A) (A) (A) (A) (A) (A) (A)
                 (A) (A) (A) (A) (A) (A) (A) (A) (A) (A) (A) (A)
                 (A) (A) (A) (A) (A) (A) (A) (A) (A) (A) (A) (A)
                 (A) (A) (A) (A) (A) (A) (A) (A) (A) (A) (A) (A)
                 (A) (A) (A) (A) (A) (A) (A) (A) (A) (A) (A) (A)
                 (A) (A) (A) (A) (A) (A) (A) (A) (A) (A) (A) (A)
                 (A) (A) (A) (A) (A) (A) (A) (A) (A) (A) (A) (A)
                 (A) (A) (A) (A) (A) (A) (A) (A) (A) (A) (A) (A)
                 (A) (A) (A) (A) (A) (A) (A) (A) (A) (A) (A) (A)
                 (A) (A) (A) (A) (A) (A) (A) (A) (A) (A) (A) (A)
                 (A) (A) (A) (A) (A) (A) (A) (A) (A) (A) (A) (A)
                 (A) (A) (A) (A) (A) (A) (A) (A) (A) (A) (A) (A)
                 (A) (A) (A) (A) (A) (A) (A) (A) (A) (A) (A) (A)
                 (A) (A) (A) (A) (A) (A) (A) (A) (A) (A) (A) (A)
                 (A) (A) (A) (A) (A) (A) (A) (A) (A) (A) (A) (A)
                 (A) (A) (A) (A) (A) (A) (A) (A) (A) (A) (A) (A)
                 (A) (A) (A) (A) (A) (A) (A) (A) (A) (A) (A) (A)
                 (A) (A) (A) (A) (A) (A) (A) (A) (A) (A) (A) (A)
                 (A) (A) (A) (A) (A) (A) (A) (A) (A) (A) (A) (A)
                 (A) (A) (A) (A) (A) (A) (A) (A) (A) (A) (A) (A)
                 (A) (A) (A) (A) (A) (A) (A) (A) (A) (A) (A) (A)
                 (A) (A) (A) (A) (A) (A) (A) (A) (A) (A) (A) (A)
                 (A) (A) (A) (A) (A) (A) (A) (A) (A) (A) (A) (A)
                 (A) (A) (A) (A) (A) (A) (A) (A) (A) (A) (A) (A)
                 (A) (A) (A) (A) (A) (A) (A) (A) (A) (A) (A) (A)
                 (A) (A) (A) (A) (A) (A) (A) (A) (A) (A) (A) (A)
                 (A) (A) (A) (A) (A) (A) (A) (A) (A) (A) (A) (A)
                 (A) (A) (A) (A) (A) (A) (A) (A) (A) (A) (A) (A)
                 (A) (A) (A) (A) (A) (A) (A) (A) (A) (A) (A) (A)
                 (A) (A) (A) (A) (A) (A) (A) (A) (A) (A) (A) (A)
                 (A) (A) (A) (A) (A) (A) (A) (A) (A) (A) (A) (A)
                 (A) (A) (A) (A) (A) (A) (A) (A) (A) (A) (A) (A)
                 (A) (A) (A) (A) (A) (A) (A) (A) (A) (A) (A) (A)
    20 initial guesses have been made.
 Convergence on wavefunction:    0.001000000000000
 Davidson Disk Diagonalization:  ConvIn= 1.00D-03 SkipCon=T Conv= 1.00D-03.
 Max sub-space:  2000 roots to seek:    20 dimension of matrix:       549360
 Iteration     1 Dimension    20 NMult     0 NNew     20
 CISAX will form    20 AO SS matrices at one time.
 NMat=    20 NSing=    20 JSym2X= 0.
 FoFJK:  IHMeth= 1 ICntrl=       0 DoSepK=T KAlg= 0 I1Cent=           0 FoldK=F
 IRaf=         1 NMat=      40 IRICut=       1 DoRegI=T DoRafI=F ISym2E= 0 IDoP0=3 IntGTp=3.
 FoFCou: FMM=T IPFlag=           0 FMFlag=      100000 FMFlg1=        2001
         NFxFlg=           0 DoJE=F BraDBF=F KetDBF=F FulRan=T
         wScrn=  0.000000 ICntrl=       500 IOpCl=  0 I1Cent=           0 NGrid=           0
         NMat0=   20 NMatS0=     20 NMatT0=    0 NMatD0=   20 NMtDS0=    0 NMtDT0=    0
 Symmetry not used in FoFCou.
 FMM levels:  10  Number of levels for PrismC:   9
 New state      1 was old state      7
 New state      2 was old state      6
 New state      3 was old state      2
 New state      4 was old state      1
 New state      5 was old state      3
 Excitation Energies [eV] at current iteration:
 Root      1 :     2.614877906643673
 Root      2 :     2.619330634157506
 Root      3 :     2.659762629271758
 Root      4 :     2.689215997451901
 Root      5 :     2.712541593209331
 Root      6 :     2.724297420956427
 Root      7 :     3.475822698018913
 Root      8 :     3.523921992985876
 Root      9 :     3.624712784322611
 Root     10 :     3.662889298850363
 Root     11 :     3.738576674598128
 Root     12 :     3.761074303439430
 Root     13 :     4.285061708842882
 Root     14 :     4.318768186821973
 Root     15 :     4.592056144222408
 Root     16 :     4.669699628008686
 Root     17 :     4.888501304700113
 Root     18 :     4.933034483270526
 Root     19 :     4.945495712177548
 Root     20 :     4.984016384710501
 Iteration     2 Dimension    30 NMult    20 NNew     10
 CISAX will form    10 AO SS matrices at one time.
 NMat=    10 NSing=    10 JSym2X= 0.
 New state      1 was old state      3
 Root      1 not converged, maximum delta is    0.145137872918953
 New state      2 was old state      5
 Root      2 not converged, maximum delta is    0.151013478368945
 New state      3 was old state      2
 Root      3 not converged, maximum delta is    0.267796547730837
 New state      4 was old state      1
 Root      4 not converged, maximum delta is    0.293257624730167
 New state      5 was old state      4
 Root      5 not converged, maximum delta is    0.009649851038217
 Excitation Energies [eV] at current iteration:
 Root      1 :     1.789967939859287   Change is   -0.869794689412471
 Root      2 :     1.817794688207678   Change is   -0.894746905001653
 Root      3 :     2.234319889895342   Change is   -0.385010744262165
 Root      4 :     2.240114824415086   Change is   -0.374763082228587
 Root      5 :     2.688406148016266   Change is   -0.000809849435634
 Iteration     3 Dimension    40 NMult    30 NNew     10
 CISAX will form    10 AO SS matrices at one time.
 NMat=    10 NSing=    10 JSym2X= 0.
 Root      1 not converged, maximum delta is    0.053910465880758
 Root      2 not converged, maximum delta is    0.054705331728528
 Root      3 not converged, maximum delta is    0.068942695583129
 Root      4 not converged, maximum delta is    0.068808481336602
 Root      5 has converged.
 Excitation Energies [eV] at current iteration:
 Root      1 :     1.683690359857095   Change is   -0.106277580002192
 Root      2 :     1.708634290276456   Change is   -0.109160397931221
 Root      3 :     2.192771072538640   Change is   -0.041548817356701
 Root      4 :     2.200029903012261   Change is   -0.040084921402825
 Root      5 :     2.688403206704627   Change is   -0.000002941311640
 Iteration     4 Dimension    48 NMult    40 NNew      8
 CISAX will form     8 AO SS matrices at one time.
 NMat=     8 NSing=     8 JSym2X= 0.
 Root      1 not converged, maximum delta is    0.010407868354510
 Root      2 not converged, maximum delta is    0.010199680082467
 Root      3 not converged, maximum delta is    0.013987016106280
 Root      4 not converged, maximum delta is    0.013891120407660
 Root      5 has converged.
 Excitation Energies [eV] at current iteration:
 Root      1 :     1.666955079211258   Change is   -0.016735280645837
 Root      2 :     1.691788836864088   Change is   -0.016845453412368
 Root      3 :     2.185483178066397   Change is   -0.007287894472244
 Root      4 :     2.193084745452747   Change is   -0.006945157559513
 Root      5 :     2.688403204171651   Change is   -0.000000002532975
 Iteration     5 Dimension    56 NMult    48 NNew      8
 CISAX will form     8 AO SS matrices at one time.
 NMat=     8 NSing=     8 JSym2X= 0.
 Root      1 not converged, maximum delta is    0.001570876801946
 Root      2 not converged, maximum delta is    0.001668998622436
 Root      3 not converged, maximum delta is    0.002389875713564
 Root      4 not converged, maximum delta is    0.002296628161064
 Root      5 has converged.
 Excitation Energies [eV] at current iteration:
 Root      1 :     1.665205533664837   Change is   -0.001749545546421
 Root      2 :     1.689983084342300   Change is   -0.001805752521788
 Root      3 :     2.184634577331022   Change is   -0.000848600735375
 Root      4 :     2.192284681351085   Change is   -0.000800064101663
 Root      5 :     2.688403203067062   Change is   -0.000000001104590
 Iteration     6 Dimension    64 NMult    56 NNew      8
 CISAX will form     8 AO SS matrices at one time.
 NMat=     8 NSing=     8 JSym2X= 0.
 Root      1 not converged, maximum delta is    0.001044244658611
 Root      2 not converged, maximum delta is    0.001052538800411
 Root      3 not converged, maximum delta is    0.001002977433534
 Root      4 has converged.
 Root      5 has converged.
 Excitation Energies [eV] at current iteration:
 Root      1 :     1.664957130718447   Change is   -0.000248402946390
 Root      2 :     1.689723018413280   Change is   -0.000260065929020
 Root      3 :     2.184505598723316   Change is   -0.000128978607706
 Root      4 :     2.192163236300265   Change is   -0.000121445050820
 Root      5 :     2.688403202743021   Change is   -0.000000000324041
 Iteration     7 Dimension    70 NMult    64 NNew      6
 CISAX will form     6 AO SS matrices at one time.
 NMat=     6 NSing=     6 JSym2X= 0.
 Root      1 has converged.
 Root      2 has converged.
 Root      3 has converged.
 Root      4 has converged.
 Root      5 has converged.
 Excitation Energies [eV] at current iteration:
 Root      1 :     1.664932716661487   Change is   -0.000024414056960
[...]
 Alpha virt. eigenvalues --    1.83594   1.83820   1.83938   1.84081   1.84265
 Alpha virt. eigenvalues --    1.84501   1.84581   1.84840   1.84874   1.85134
 Alpha virt. eigenvalues --    1.85183   1.85343   1.85381   1.85499   1.85543
 Alpha virt. eigenvalues --    1.85927   1.85962   1.86395   1.86433   1.86595
 Alpha virt. eigenvalues --    1.86703   1.86832   1.86876   1.87100   1.87111
 Alpha virt. eigenvalues --    1.87508   1.87557   1.87768   1.87844   1.87924
 Alpha virt. eigenvalues --    1.88064   1.88099   1.88236   1.88596   1.88626
 Alpha virt. eigenvalues --    1.88904   1.88991   1.89126   1.89171   1.89672
 Alpha virt. eigenvalues --    1.89709   1.89802   1.89925   1.90185   1.90249
 Alpha virt. eigenvalues --    1.90832   1.90960   1.91406   1.91474   1.91512
 Alpha virt. eigenvalues --    1.91673   1.92225   1.92257   1.92722   1.92731
 Alpha virt. eigenvalues --    1.93042   1.93207   1.93376   1.93555   1.94309
 Alpha virt. eigenvalues --    1.94380   1.94737   1.94869   1.95493   1.95635
 Alpha virt. eigenvalues --    1.95813   1.95888   1.96084   1.96103   1.96181
 Alpha virt. eigenvalues --    1.96251   1.96544   1.96654   1.96959   1.96993
 Alpha virt. eigenvalues --    1.97509   1.97606   1.97873   1.97890   1.98232
 Alpha virt. eigenvalues --    1.98257   1.98426   1.98795   1.99126   1.99225
 Alpha virt. eigenvalues --    1.99919   1.99998   2.00718   2.00784   2.01090
 Alpha virt. eigenvalues --    2.01165   2.01548   2.01586   2.01678   2.01730
 Alpha virt. eigenvalues --    2.01813   2.01911   2.02775   2.02855   2.03189
 Alpha virt. eigenvalues --    2.03286   2.03448   2.03496   2.03590   2.03599
 Alpha virt. eigenvalues --    2.04090   2.04122   2.05016   2.05026   2.05568
 Alpha virt. eigenvalues --    2.05678   2.06142   2.06344   2.07022   2.07120
 Alpha virt. eigenvalues --    2.07270   2.07410   2.08580   2.08612   2.09055
 Alpha virt. eigenvalues --    2.09082   2.09679   2.09688   2.10792   2.11077
 Alpha virt. eigenvalues --    2.11257   2.11466   2.11611   2.11638   2.11799
 Alpha virt. eigenvalues --    2.11922   2.12527   2.12553   2.12851   2.12866
 Alpha virt. eigenvalues --    2.12907   2.12932   2.13727   2.13879   2.14174
 Alpha virt. eigenvalues --    2.14296   2.15398   2.15455   2.16015   2.16146
 Alpha virt. eigenvalues --    2.16568   2.16642   2.16846   2.17233   2.17474
 Alpha virt. eigenvalues --    2.17692   2.17768   2.17994   2.18052   2.18114
 Alpha virt. eigenvalues --    2.18430   2.18748   2.18974   2.19311   2.19721
 Alpha virt. eigenvalues --    2.19890   2.20124   2.20300   2.20309   2.20508
 Alpha virt. eigenvalues --    2.21189   2.21216   2.21732   2.21827   2.21851
 Alpha virt. eigenvalues --    2.21939   2.22741   2.22761   2.23376   2.23398
 Alpha virt. eigenvalues --    2.24445   2.24465   2.24962   2.25042   2.26401
 Alpha virt. eigenvalues --    2.26504   2.26836   2.27065   2.27202   2.27270
 Alpha virt. eigenvalues --    2.28215   2.28371   2.29329   2.29486   2.29825
 Alpha virt. eigenvalues --    2.29943   2.30544   2.30708   2.30933   2.31154
 Alpha virt. eigenvalues --    2.31272   2.31316   2.32166   2.32285   2.33221
 Alpha virt. eigenvalues --    2.33318   2.33526   2.33542   2.34180   2.34209
 Alpha virt. eigenvalues --    2.35376   2.35489   2.35882   2.35965   2.36372
 Alpha virt. eigenvalues --    2.36384   2.36486   2.36697   2.37703   2.37723
 Alpha virt. eigenvalues --    2.38290   2.38412   2.38864   2.38961   2.39682
 Alpha virt. eigenvalues --    2.39721   2.40222   2.40337   2.40579   2.40896
 Alpha virt. eigenvalues --    2.41281   2.41371   2.41709   2.41768   2.42151
 Alpha virt. eigenvalues --    2.42198   2.42854   2.42969   2.43170   2.43683
 Alpha virt. eigenvalues --    2.44019   2.44259   2.44805   2.44854   2.44976
 Alpha virt. eigenvalues --    2.45053   2.45612   2.45625   2.46323   2.46351
 Alpha virt. eigenvalues --    2.46543   2.46561   2.46863   2.46888   2.47324
 Alpha virt. eigenvalues --    2.47428   2.47777   2.47928   2.49342   2.49420
 Alpha virt. eigenvalues --    2.49928   2.50080   2.50488   2.50569   2.51217
 Alpha virt. eigenvalues --    2.51327   2.51653   2.51963   2.52477   2.52538
 Alpha virt. eigenvalues --    2.52888   2.53211   2.53969   2.54007   2.54177
 Alpha virt. eigenvalues --    2.54300   2.54844   2.54864   2.55573   2.55705
 Alpha virt. eigenvalues --    2.57920   2.58111   2.58694   2.58937   2.60314
 Alpha virt. eigenvalues --    2.60362   2.60698   2.60970   2.61761   2.61852
 Alpha virt. eigenvalues --    2.62477   2.62611   2.63032   2.63171   2.64011
 Alpha virt. eigenvalues --    2.64247   2.64266   2.64450   2.65140   2.65144
 Alpha virt. eigenvalues --    2.65872   2.65910   2.66803   2.66851   2.66966
 Alpha virt. eigenvalues --    2.67089   2.67959   2.68018   2.68850   2.68911
 Alpha virt. eigenvalues --    2.69093   2.69123   2.69423   2.69634   2.70054
 Alpha virt. eigenvalues --    2.70171   2.71047   2.71110   2.71941   2.72134
 Alpha virt. eigenvalues --    2.72549   2.72749   2.72792   2.72972   2.73289
 Alpha virt. eigenvalues --    2.73310   2.73566   2.73691   2.74550   2.74588
 Alpha virt. eigenvalues --    2.75058   2.75099   2.76551   2.76639   2.77113
 Alpha virt. eigenvalues --    2.77330   2.77513   2.77629   2.78220   2.78308
 Alpha virt. eigenvalues --    2.78728   2.78816   2.79200   2.79213   2.80284
 Alpha virt. eigenvalues --    2.80402   2.80711   2.80759   2.81191   2.81214
 Alpha virt. eigenvalues --    2.82019   2.82038   2.82367   2.82398   2.83803
 Alpha virt. eigenvalues --    2.83861   2.83872   2.83961   2.84552   2.84609
 Alpha virt. eigenvalues --    2.84908   2.84923   2.85703   2.85708   2.86696
 Alpha virt. eigenvalues --    2.87056   2.87241   2.87741   2.88196   2.88250
 Alpha virt. eigenvalues --    2.88575   2.88648   2.88901   2.89001   2.90562
 Alpha virt. eigenvalues --    2.90694   2.91093   2.91221   2.93239   2.93353
 Alpha virt. eigenvalues --    2.93800   2.94260   2.94576   2.94582   2.95456
 Alpha virt. eigenvalues --    2.95514   2.95912   2.96311   2.96397   2.96507
 Alpha virt. eigenvalues --    2.96933   2.97302   2.97922   2.98040   2.98269
 Alpha virt. eigenvalues --    2.98401   2.98438   2.98600   2.98694   2.98813
 Alpha virt. eigenvalues --    2.98937   2.98947   2.99596   2.99809   3.00072
 Alpha virt. eigenvalues --    3.00121   3.00320   3.00354   3.00554   3.01022
 Alpha virt. eigenvalues --    3.01919   3.02002   3.02089   3.02141   3.02858
 Alpha virt. eigenvalues --    3.02860   3.03073   3.03323   3.03367   3.03737
 Alpha virt. eigenvalues --    3.04075   3.04196   3.04459   3.04537   3.04591
 Alpha virt. eigenvalues --    3.04763   3.05319   3.05362   3.06167   3.06191
 Alpha virt. eigenvalues --    3.06895   3.06964   3.07925   3.08169   3.09359
 Alpha virt. eigenvalues --    3.09469   3.09770   3.10483   3.10519   3.10771
 Alpha virt. eigenvalues --    3.11344   3.11481   3.11908   3.12049   3.12151
 Alpha virt. eigenvalues --    3.12347   3.13376   3.13663   3.13690   3.13704
 Alpha virt. eigenvalues --    3.14241   3.14541   3.15906   3.15995   3.17348
 Alpha virt. eigenvalues --    3.17552   3.17878   3.18099   3.19046   3.19173
 Alpha virt. eigenvalues --    3.22465   3.22672   3.24032   3.24476   3.24799
 Alpha virt. eigenvalues --    3.25245   3.26584   3.26686   3.27425   3.27702
 Alpha virt. eigenvalues --    3.29273   3.29313   3.31408   3.31607   3.33208
 Alpha virt. eigenvalues --    3.33489   3.40350   3.40816   3.42824   3.42859
 Alpha virt. eigenvalues --    3.48735   3.48762   3.50096   3.50306   3.50861
 Alpha virt. eigenvalues --    3.51546   3.56617   3.57026   3.59156   3.59360
 Alpha virt. eigenvalues --    3.62548   3.62929   3.66111   3.66209   3.67361
 Alpha virt. eigenvalues --    3.67633   3.73437   3.74103   3.76212   3.76758
          Condensed to atoms (all electrons):
 Mulliken charges:
               1
     1  Mg   0.839433
     2  C   -0.002313
     3  C   -0.093917
     4  C   -0.046351
     5  C   -0.064378
     6  N   -0.256682
     7  C   -0.052180
     8  C   -0.014067
     9  C   -0.087019
    10  C    0.046301
    11  C    0.104849
    12  C    0.053445
    13  C   -0.071938
    14  H    0.036861
    15  N   -0.433014
    16  C    0.168229
    17  C   -0.177269
    18  C   -0.004442
    19  C    0.148619
    20  C    0.110203
    21  C    0.011737
    22  O   -0.250495
    23  C    0.062690
    24  N   -0.341100
    25  C    0.041121
    26  C   -0.028057
    27  C   -0.023938
    28  C    0.074829
    29  C    0.076238
    30  C    0.035308
    31  C   -0.004565
    32  N   -0.310725
    33  C    0.080943
    34  C   -0.169162
    35  C    0.008909
    36  C    0.083727
    37  C    0.127095
    38  C    0.047062
    39  O   -0.187415
    40  C   -0.005688
    41  C    0.212792
    42  O   -0.255465
    43  O   -0.305194
    44  C    0.157422
    45  H   -0.017703
    46  H   -0.017539
    47  H   -0.041815
    48  H    0.001065
    49  H   -0.004020
    50  H    0.025500
    51  H    0.016219
    52  H    0.016574
    53  H    0.011176
    54  H    0.045036
    55  H    0.017662
    56  H    0.017705
    57  H    0.006013
    58  H    0.026543
    59  H    0.039091
    60  H    0.037579
    61  H    0.034755
    62  H    0.031110
    63  H    0.015658
    64  H    0.009612
    65  H    0.022725
    66  H    0.012796
    67  H    0.004739
    68  H    0.005963
    69  H    0.004698
    70  H    0.008302
    71  H    0.015447
    72  H    0.030543
    73  H    0.048742
    74  H    0.008580
    75  H    0.045993
    76  H    0.035028
    77  H    0.042899
    78  H    0.046095
    79  H    0.054766
    80  Mg   0.838215
    81  C   -0.016400
    82  C   -0.087725
    83  C   -0.045685
    84  C   -0.065042
    85  N   -0.254523
    86  C   -0.049665
    87  C   -0.015115
    88  C   -0.090532
    89  C    0.045733
    90  C    0.114425
    91  C    0.062405
    92  C   -0.078339
    93  H    0.035618
    94  N   -0.423395
    95  C    0.162781
    96  C   -0.174851
    97  C   -0.008106
    98  C    0.152057
    99  C    0.099454
   100  C    0.015307
   101  O   -0.253549
   102  C    0.061344
   103  N   -0.350101
   104  C    0.037443
   105  C   -0.019758
   106  C   -0.034809
   107  C    0.089090
   108  C    0.073766
   109  C    0.034764
   110  C   -0.007660
   111  N   -0.324255
   112  C    0.078800
   113  C   -0.162792
   114  C    0.002471
   115  C    0.096658
   116  C    0.131348
   117  C    0.043055
   118  O   -0.187268
   119  C    0.000657
   120  C    0.211160
   121  O   -0.249191
   122  O   -0.306117
   123  C    0.151669
   124  H   -0.019827
   125  H   -0.015934
   126  H   -0.040483
   127  H   -0.000828
   128  H   -0.004180
   129  H    0.022310
   130  H    0.014236
   131  H    0.016095
   132  H    0.014106
   133  H    0.038551
   134  H    0.020129
   135  H    0.020016
   136  H    0.008879
   137  H    0.025810
   138  H    0.039302
   139  H    0.038204
   140  H    0.035890
   141  H    0.033542
   142  H    0.014173
   143  H    0.012261
   144  H    0.024834
   145  H    0.011552
   146  H    0.005507
   147  H    0.005941
   148  H    0.003723
   149  H    0.010593
   150  H    0.018027
   151  H    0.030530
   152  H    0.046709
   153  H    0.008435
   154  H    0.046705
   155  H    0.034679
   156  H    0.043349
   157  H    0.048447
   158  H    0.055401
 Sum of Mulliken charges =  -0.00000
 Mulliken charges with hydrogens summed into heavy atoms:
               1
     1  Mg   0.839433
     2  C   -0.002313
     3  C   -0.111620
     4  C   -0.063890
     5  C   -0.106193
     6  N   -0.256682
     7  C   -0.052180
     8  C   -0.013002
     9  C   -0.091040
    10  C    0.046301
    11  C    0.163143
    12  C    0.109657
    13  C    0.000290
    15  N   -0.433014
    16  C    0.168229
    17  C   -0.177269
    18  C   -0.004442
    19  C    0.148619
    20  C    0.181849
    21  C    0.011737
    22  O   -0.250495
    23  C    0.166133
    24  N   -0.341100
    25  C    0.041121
    26  C   -0.012398
    27  C   -0.014326
    28  C    0.074829
    29  C    0.116498
    30  C    0.045969
    31  C    0.049728
    32  N   -0.310725
    33  C    0.080943
    34  C   -0.169162
    35  C    0.008909
    36  C    0.083727
    37  C    0.230410
    38  C    0.047062
    39  O   -0.187415
    40  C    0.029340
    41  C    0.212792
    42  O   -0.255465
    43  O   -0.305194
    44  C    0.301182
    80  Mg   0.838215
    81  C   -0.016400
    82  C   -0.107552
    83  C   -0.061619
    84  C   -0.105524
    85  N   -0.254523
    86  C   -0.049665
    87  C   -0.015944
    88  C   -0.094712
    89  C    0.045733
    90  C    0.167067
    91  C    0.115061
    92  C   -0.002575
    94  N   -0.423395
    95  C    0.162781
    96  C   -0.174851
    97  C   -0.008106
    98  C    0.152057
    99  C    0.173445
   100  C    0.015307
   101  O   -0.253549
   102  C    0.168980
   103  N   -0.350101
   104  C    0.037443
   105  C   -0.005585
   106  C   -0.022549
   107  C    0.089090
   108  C    0.115658
   109  C    0.044428
   110  C    0.051490
   111  N   -0.324255
   112  C    0.078800
   113  C   -0.162792
   114  C    0.002471
   115  C    0.096658
   116  C    0.233197
   117  C    0.043055
   118  O   -0.187268
   119  C    0.035336
   120  C    0.211160
   121  O   -0.249191
   122  O   -0.306117
   123  C    0.298866
 Electronic spatial extent (au):  <R**2>=         146174.6680
 Charge=             -0.0000 electrons
 Dipole moment (field-independent basis, Debye):
    X=              1.5031    Y=              6.9946    Z=             -1.7023  Tot=              7.3540
 Quadrupole moment (field-independent basis, Debye-Ang):
   XX=           -477.3220   YY=           -535.6974   ZZ=           -470.1357
   XY=             14.7393   XZ=            -23.5583   YZ=             16.7725
 Traceless Quadrupole moment (field-independent basis, Debye-Ang):
   XX=             17.0630   YY=            -41.3124   ZZ=             24.2493
   XY=             14.7393   XZ=            -23.5583   YZ=             16.7725
 Octapole moment (field-independent basis, Debye-Ang**2):
  XXX=             71.8089  YYY=            215.8300  ZZZ=             64.4867  XYY=           -231.2385
  XXY=            -79.1120  XXZ=           -110.1456  XZZ=            372.8037  YZZ=            -68.5566
  YYZ=           -242.2047  XYZ=           -292.1922
 Hexadecapole moment (field-independent basis, Debye-Ang**3):
 XXXX=        -136655.0320 YYYY=         -33290.6784 ZZZZ=         -27706.2637 XXXY=           3280.0992
 XXXZ=          -1613.9163 YYYX=           -337.5907 YYYZ=             28.8078 ZZZX=           -722.6671
 ZZZY=            748.1863 XXYY=         -29378.0576 XXZZ=         -26875.5155 YYZZ=          -9825.0660
 XXYZ=           1156.1596 YYXZ=           -639.3145 ZZXY=            -39.8010
 N-N= 1.438768709918D+04 E-N=-3.825667535359D+04  KE= 4.028801690729D+03
 Leave Link  601 at Sat Sep 11 08:52:38 2021, MaxMem= 23488102400 cpu:              12.8 elap:               0.7
 (Enter /sw/apps/gaussian-16.0/g16/l9999.exe)
 1\1\GINC-BP1-COMPUTE00129\SP\RCAM-B3LYP TD-FC\def2SVP\C68H72Mg2N8O8\OF
 15641\11-Sep-2021\0\\#p cam-b3lyp/Def2SVP td=(nstates=5)\\TDDFT excite
 d states in gaussian\\0,1\Mg,0,0.,0.,0.\C,0,-0.217,-2.218,2.801\C,0,-1
 .255,2.442,2.026\C,0,-0.245,1.85,-2.564\C,0,0.146,-2.824,-2.037\N,0,-0
 .617,-0.009,2.126\C,0,-0.594,-0.908,3.105\C,0,-0.936,-0.309,4.502\C,0,
 -1.773,0.964,4.032\C,0,-1.155,1.168,2.66\C,0,-3.263,0.685,3.863\C,0,0.
 345,0.11,5.299\C,0,0.124,0.397,6.787\H,0,1.168,0.033,7.733\N,0,-0.185,
 1.961,-0.152\C,0,-0.703,2.8,0.777\C,0,-0.62,4.156,0.193\C,0,-0.187,4.0
 15,-1.225\C,0,-0.214,2.583,-1.38\C,0,-0.887,5.406,0.974\C,0,0.181,5.01
 3,-2.277\O,0,0.303,4.69,-3.508\C,0,0.31,6.414,-1.837\N,0,-0.265,-0.413
 ,-2.029\C,0,-0.279,0.569,-2.937\C,0,-0.196,0.024,-4.332\C,0,0.124,-1.5
 33,-4.18\C,0,0.086,-1.632,-2.635\C,0,-1.451,0.205,-5.197\C,0,1.373,-2.
 07,-4.923\C,0,2.626,-1.49,-4.306\N,0,0.15,-2.144,0.303\C,0,0.173,-3.13
 6,-0.688\C,0,0.173,-4.438,0.004\C,0,0.133,-4.111,1.358\C,0,0.083,-2.69
 5,1.502\C,0,0.149,-5.715,-0.623\C,0,0.096,-4.629,2.716\O,0,0.208,-5.74
 7,3.221\C,0,-0.255,-3.428,3.701\C,0,0.717,-3.482,4.848\O,0,1.931,-3.25
 5,4.669\O,0,0.038,-3.556,6.003\C,0,0.943,-3.583,7.183\H,0,-1.859,3.22,
 2.497\H,0,-0.218,2.453,-3.474\H,0,0.276,-3.747,-2.605\H,0,-1.554,-0.94
 9,5.132\H,0,-1.585,1.831,4.665\H,0,-3.484,-0.377,3.969\H,0,-3.511,1.02
 7,2.858\H,0,-3.852,1.301,4.543\H,0,0.669,1.096,4.966\H,0,1.13,-0.639,5
 .189\H,0,-0.844,0.026,7.125\H,0,0.062,1.477,6.921\H,0,-1.344,5.186,1.9
 38\H,0,-1.651,5.963,0.432\H,0,0.007,6.02,1.084\H,0,-0.635,6.744,-1.405
 \H,0,0.665,6.97,-2.704\H,0,1.048,6.466,-1.036\H,0,0.608,0.501,-4.891\H
 ,0,-0.692,-2.156,-4.547\H,0,-1.267,0.74,-6.129\H,0,-2.204,0.714,-4.596
 \H,0,-1.967,-0.72,-5.453\H,0,1.356,-1.759,-5.967\H,0,1.452,-3.157,-4.9
 02\H,0,2.714,-0.522,-4.798\H,0,3.487,-2.121,-4.529\H,0,2.495,-1.303,-3
 .24\H,0,0.867,-6.333,-0.084\H,0,0.404,-5.642,-1.68\H,0,-0.891,-5.999,-
 0.463\H,0,-1.283,-3.581,4.028\H,0,0.698,-4.478,7.755\H,0,0.833,-2.619,
 7.68\H,0,2.,-3.754,6.976\Mg,0,13.1284,1.18547,0.99664\C,0,11.95203,-1.
 6351,-0.88474\C,0,12.22541,3.13826,-1.65022\C,0,14.56129,3.6241,2.4344
 6\C,0,14.94438,-1.0539,2.95448\N,0,12.21558,0.69818,-0.95824\C,0,11.75
 553,-0.40041,-1.53772\C,0,10.97362,-0.15324,-2.85571\C,0,11.62406,1.25
 824,-3.26009\C,0,12.01811,1.75303,-1.86991\C,0,12.88694,1.12199,-4.094
 3\C,0,9.42772,-0.02649,-2.61879\C,0,8.57503,-0.09343,-3.88773\H,0,7.27
 007,-0.74487,-3.81585\N,0,12.93522,3.13956,0.70894\C,0,12.53486,3.7601
 ,-0.42063\C,0,12.58047,5.2007,-0.12607\C,0,13.19767,5.38588,1.21538\C,
 0,13.61682,4.02865,1.50233\C,0,11.9961,6.23726,-1.04121\C,0,13.3915,6.
 5881,2.08904\O,0,14.16549,6.56056,3.11032\C,0,12.72182,7.82477,1.66048
 \N,0,14.70918,1.29774,2.34233\C,0,15.09962,2.47861,2.85322\C,0,16.0629
 2,2.28509,3.99995\C,0,16.05099,0.71643,4.31101\C,0,15.10929,0.24184,3.
 18258\C,0,17.49922,2.74252,3.74663\C,0,15.72975,0.29065,5.76984\C,0,14
 .29293,0.62475,6.10047\N,0,13.27525,-0.96298,1.1717\C,0,14.11734,-1.69
 252,2.0393\C,0,13.94573,-3.1228,1.71179\C,0,13.02573,-3.12472,0.65251\
 C,0,12.66579,-1.78873,0.32839\C,0,14.63202,-4.2059,2.32988\C,0,12.2853
 ,-3.95258,-0.27221\O,0,12.12153,-5.16364,-0.41453\C,0,11.6535,-3.01851
 ,-1.39235\C,0,10.21008,-3.40664,-1.56096\O,0,9.3967,-3.23282,-0.63641\
 O,0,9.98437,-3.71437,-2.85121\C,0,8.5636,-4.09525,-3.07071\H,0,12.1894
 8,3.81066,-2.50781\H,0,15.00372,4.42267,3.03448\H,0,15.40104,-1.82028,
 3.5844\H,0,11.15518,-0.88329,-3.63534\H,0,10.88591,1.92022,-3.70537\H,
 0,13.20535,0.09354,-4.17822\H,0,13.63971,1.71089,-3.58677\H,0,12.74543
 ,1.59162,-5.07193\H,0,9.1982,0.99586,-2.29191\H,0,9.08834,-0.76252,-1.
 91614\H,0,9.14423,-0.46705,-4.74759\H,0,8.29621,0.92401,-4.17252\H,0,1
 1.75959,5.81668,-2.02639\H,0,12.78606,6.96934,-1.24094\H,0,11.1396,6.7
 5267,-0.60141\H,0,13.06494,8.09478,0.66458\H,0,12.90482,8.54762,2.4579
 \H,0,11.64635,7.63075,1.58098\H,0,15.72881,2.82045,4.88022\H,0,17.0306
 3,0.25523,4.11755\H,0,17.85613,3.48779,4.48234\H,0,17.55849,3.1409,2.7
 4248\H,0,18.24038,1.94544,3.72306\H,0,16.34887,0.85262,6.47342\H,0,15.
 90201,-0.76346,5.96001\H,0,14.34345,1.68109,6.38096\H,0,13.93803,0.013
 27,6.92762\H,0,13.65675,0.54997,5.2109\H,0,13.89693,-4.97964,2.50725\H
 ,0,15.11435,-3.89523,3.25433\H,0,15.35818,-4.44763,1.54915\H,0,12.2276
 7,-3.16982,-2.30724\H,0,8.56651,-5.08723,-3.53294\H,0,8.11957,-3.26814
 ,-3.65592\H,0,7.95098,-4.27205,-2.19442\\Version=ES64L-G16RevA.03\Stat
 e=1-A\HF=-4069.8112848\RMSD=5.403e-09\PG=C01 [X(C68H72Mg2N8O8)]\\@


 IF IT HAPPENS, IT MUST BE POSSIBLE.

 -- THE UNNAMED LAW FROM PAUL DICKSON'S 
    "THE OFFICIAL RULES"
 Job cpu time:       0 days 11 hours 13 minutes 29.8 seconds.
 Elapsed time:       0 days  0 hours 28 minutes 37.9 seconds.
 File lengths (MBytes):  RWF=  13225 Int=      0 D2E=      0 Chk=    574 Scr=      1
 Normal termination of Gaussian 16 at Sat Sep 11 08:52:39 2021.
