 Entering Gaussian System, Link 0=g16
 Initial command:
 /sw/apps/gaussian-16.0/g16/l1.exe "/tmp/Gau-265996.inp" -scrdir="/tmp/"
 Entering Link 1 = /sw/apps/gaussian-16.0/g16/l1.exe PID=    265997.
  
 Copyright (c) 1988,1990,1992,1993,1995,1998,2003,2009,2016,
            Gaussian, Inc.  All Rights Reserved.
  
 This is part of the Gaussian(R) 16 program.  It is based on
 the Gaussian(R) 09 system (copyright 2009, Gaussian, Inc.),
 the Gaussian(R) 03 system (copyright 2003, Gaussian, Inc.),
 the Gaussian(R) 98 system (copyright 1998, Gaussian, Inc.),
 the Gaussian(R) 94 system (copyright 1995, Gaussian, Inc.),
 the Gaussian 92(TM) system (copyright 1992, Gaussian, Inc.),
 the Gaussian 90(TM) system (copyright 1990, Gaussian, Inc.),
 the Gaussian 88(TM) system (copyright 1988, Gaussian, Inc.),
 the Gaussian 86(TM) system (copyright 1986, Carnegie Mellon
 University), and the Gaussian 82(TM) system (copyright 1983,
 Carnegie Mellon University). Gaussian is a federally registered
 trademark of Gaussian, Inc.
  
 This software contains proprietary and confidential information,
 including trade secrets, belonging to Gaussian, Inc.
  
 This software is provided under written license and may be
 used, copied, transmitted, or stored only in accord with that
 written license.
  
 The following legend is applicable only to US Government
 contracts under FAR:
  
                    RESTRICTED RIGHTS LEGEND
  
 Use, reproduction and disclosure by the US Government is
 subject to restrictions as set forth in subparagraphs (a)
 and (c) of the Commercial Computer Software - Restricted
 Rights clause in FAR 52.227-19.
  
 Gaussian, Inc.
 340 Quinnipiac St., Bldg. 40, Wallingford CT 06492
  
  
 ---------------------------------------------------------------
 Warning -- This program may not be used in any manner that
 competes with the business of Gaussian, Inc. or will provide
 assistance to any competitor of Gaussian, Inc.  The licensee
 of this program is prohibited from giving any competitor of
 Gaussian, Inc. access to this program.  By using this program,
 the user acknowledges that Gaussian, Inc. is engaged in the
 business of creating and licensing software in the field of
 computational chemistry and represents and warrants to the
 licensee that it is not a competitor of Gaussian, Inc. and that
 it will not use this program in any manner prohibited above.
 ---------------------------------------------------------------
  

 Cite this work as:
 Gaussian 16, Revision A.03,
 M. J. Frisch, G. W. Trucks, H. B. Schlegel, G. E. Scuseria, 
 M. A. Robb, J. R. Cheeseman, G. Scalmani, V. Barone, 
 G. A. Petersson, H. Nakatsuji, X. Li, M. Caricato, A. V. Marenich, 
 J. Bloino, B. G. Janesko, R. Gomperts, B. Mennucci, H. P. Hratchian, 
 J. V. Ortiz, A. F. Izmaylov, J. L. Sonnenberg, D. Williams-Young, 
 F. Ding, F. Lipparini, F. Egidi, J. Goings, B. Peng, A. Petrone, 
 T. Henderson, D. Ranasinghe, V. G. Zakrzewski, J. Gao, N. Rega, 
 G. Zheng, W. Liang, M. Hada, M. Ehara, K. Toyota, R. Fukuda, 
 J. Hasegawa, M. Ishida, T. Nakajima, Y. Honda, O. Kitao, H. Nakai, 
 T. Vreven, K. Throssell, J. A. Montgomery, Jr., J. E. Peralta, 
 F. Ogliaro, M. J. Bearpark, J. J. Heyd, E. N. Brothers, K. N. Kudin, 
 V. N. Staroverov, T. A. Keith, R. Kobayashi, J. Normand, 
 K. Raghavachari, A. P. Rendell, J. C. Burant, S. S. Iyengar, 
 J. Tomasi, M. Cossi, J. M. Millam, M. Klene, C. Adamo, R. Cammi, 
 J. W. Ochterski, R. L. Martin, K. Morokuma, O. Farkas, 
 J. B. Foresman, and D. J. Fox, Gaussian, Inc., Wallingford CT, 2016.
 
 ******************************************
 Gaussian 16:  ES64L-G16RevA.03 25-Dec-2016
                 4-Sep-2021 
 ******************************************
 %nproc=24
 Will use up to   24 processors via shared memory.
 %mem=175gb
 -----------------------------------
 #p cam-b3lyp/Def2SVP td=(nstates=5)
 -----------------------------------
 1/38=1,172=1/1;
 2/12=2,17=6,18=5,40=1/2;
 3/5=43,7=101,11=9,25=1,30=1,74=-40/1,2,3,8;
 4//1;
 5/5=2,38=5/2;
 8/6=1,10=1,108=5/1;
 9/41=5,42=1,70=2/14;
 6/7=2,8=2,9=2,10=2/1;
 99/5=1,9=1/99;
 Leave Link    1 at Sat Sep  4 04:56:39 2021, MaxMem= 23488102400 cpu:               0.9 elap:               0.0
 (Enter /sw/apps/gaussian-16.0/g16/l101.exe)
 --------------------------------
 TDDFT excited states in gaussian
 --------------------------------
 Symbolic Z-matrix:
 Charge =  0 Multiplicity = 1
 Mg                    0.        0.        0. 
 C                    -0.217    -2.218     2.801 
 C                    -1.255     2.442     2.026 
 C                    -0.245     1.85     -2.564 
 C                     0.146    -2.824    -2.037 
 N                    -0.617    -0.009     2.126 
 C                    -0.594    -0.908     3.105 
 C                    -0.936    -0.309     4.502 
 C                    -1.773     0.964     4.032 
 C                    -1.155     1.168     2.66 
 C                    -3.263     0.685     3.863 
 C                     0.345     0.11      5.299 
 C                     0.124     0.397     6.787 
 H                     1.168     0.033     7.733 
 N                    -0.185     1.961    -0.152 
 C                    -0.703     2.8       0.777 
 C                    -0.62      4.156     0.193 
 C                    -0.187     4.015    -1.225 
 C                    -0.214     2.583    -1.38 
 C                    -0.887     5.406     0.974 
 C                     0.181     5.013    -2.277 
 O                     0.303     4.69     -3.508 
 C                     0.31      6.414    -1.837 
 N                    -0.265    -0.413    -2.029 
 C                    -0.279     0.569    -2.937 
 C                    -0.196     0.024    -4.332 
 C                     0.124    -1.533    -4.18 
 C                     0.086    -1.632    -2.635 
 C                    -1.451     0.205    -5.197 
 C                     1.373    -2.07     -4.923 
 C                     2.626    -1.49     -4.306 
 N                     0.15     -2.144     0.303 
 C                     0.173    -3.136    -0.688 
 C                     0.173    -4.438     0.004 
 C                     0.133    -4.111     1.358 
 C                     0.083    -2.695     1.502 
 C                     0.149    -5.715    -0.623 
 C                     0.096    -4.629     2.716 
 O                     0.208    -5.747     3.221 
 C                    -0.255    -3.428     3.701 
 C                     0.717    -3.482     4.848 
 O                     1.931    -3.255     4.669 
 O                     0.038    -3.556     6.003 
 C                     0.943    -3.583     7.183 
 H                    -1.859     3.22      2.497 
 H                    -0.218     2.453    -3.474 
 H                     0.276    -3.747    -2.605 
 H                    -1.554    -0.949     5.132 
 H                    -1.585     1.831     4.665 
 H                    -3.484    -0.377     3.969 
 H                    -3.511     1.027     2.858 
 H                    -3.852     1.301     4.543 
 H                     0.669     1.096     4.966 
 H                     1.13     -0.639     5.189 
 H                    -0.844     0.026     7.125 
 H                     0.062     1.477     6.921 
 H                    -1.344     5.186     1.938 
 H                    -1.651     5.963     0.432 
 H                     0.007     6.02      1.084 
 H                    -0.635     6.744    -1.405 
 H                     0.665     6.97     -2.704 
 H                     1.048     6.466    -1.036 
 H                     0.608     0.501    -4.891 
 H                    -0.692    -2.156    -4.547 
 H                    -1.267     0.74     -6.129 
 H                    -2.204     0.714    -4.596 
 H                    -1.967    -0.72     -5.453 
 H                     1.356    -1.759    -5.967 
 H                     1.452    -3.157    -4.902 
 H                     2.714    -0.522    -4.798 
 H                     3.487    -2.121    -4.529 
 H                     2.495    -1.303    -3.24 
 H                     0.867    -6.333    -0.084 
 H                     0.404    -5.642    -1.68 
 H                    -0.891    -5.999    -0.463 
 H                    -1.283    -3.581     4.028 
 H                     0.698    -4.478     7.755 
 H                     0.833    -2.619     7.68 
 H                     2.       -3.754     6.976 
 Mg                    10.51715   0.95265   0.80409 
 C                     10.19164  -0.49463   4.07189 
 C                     9.27364   3.84194   2.1233 
 C                     10.36725   2.1172   -2.14358 
 C                     10.63658  -2.28973  -0.46808 
 N                     9.85534   1.48176   2.84721 
 C                     9.83527   0.86914   4.02137 
 C                     9.48647   1.78994   5.22138 
 C                     8.67956   2.92737   4.42511 
 C                     9.32918   2.77179   3.05163 
 C                     7.19584   2.62871   4.28831 
 C                     10.76531   2.37397   5.91814 
 C                     10.51429   3.02859   7.27837 
 H                     11.53653   2.89786   8.31298 
 N                     10.38026   2.82808   0.1696 
 C                     9.86909   3.87979   0.84332 
 C                     9.98003   5.03176  -0.06488 
 C                     10.44687   4.5411   -1.39003 
 C                     10.39516   3.10905  -1.17403 
 C                     9.73282   6.4444    0.37869 
 C                     10.85801   5.24411  -2.64818 
 O                     10.99971   4.61467  -3.75568 
 C                     10.99898   6.70526  -2.56661 
 N                     10.29103   0.05418  -1.05708 
 C                     10.31111   0.78587  -2.18498 
 C                     10.40848  -0.09698  -3.40624 
 C                     10.69454  -1.56903  -2.85052 
 C                     10.62119  -1.28571  -1.33403 
 C                     9.17415  -0.12442  -4.30738 
 C                     11.94745  -2.2999   -3.40616 
 C                     13.20318  -1.60309  -2.93395 
 N                     10.61811  -1.04035   1.63223 
 C                     10.63329  -2.25996   0.92062 
 C                     10.59066  -3.34746   1.91961 
 C                     10.52992  -2.67967   3.15203 
 C                     10.514   -1.27527   2.93547 
 C                     10.56167  -4.7411    1.63144 
 C                     10.46492  -2.84358   4.58647 
 O                     10.535   -3.80146   5.35541 
 C                     10.11537  -1.43768   5.24042 
 C                     11.06206  -1.21051   6.38703 
 O                     12.28035  -1.06788   6.18204 
 O                     10.35146  -0.98303   7.5067 
 C                     11.24644  -0.74112   8.66959 
 H                     8.68301   4.72168   2.3804 
 H                     10.42639   2.46631  -3.17707 
 H                     10.76942  -3.32781  -0.78017 
 H                     8.84857   1.3372    5.97097 
 H                     8.88201   3.91425   4.83308 
 H                     6.94896   1.6407    4.64753 
 H                     6.97484   2.71353   3.23237 
 H                     6.6075    3.40694   4.78282 
 H                     11.11496   3.24648   5.35139 
 H                     11.52423   1.62193   6.01359 
 H                     9.52566   2.77661   7.68092 
 H                     10.4795   4.11207   7.14091 
 H                     9.2443    6.47813   1.36033 
 H                     8.99294   6.87023  -0.30769 
 H                     10.63536   7.05867   0.3509 
 H                     10.0547   7.14208  -2.25041 
 H                     11.385    7.01635  -3.53928 
 H                     11.73218   6.94307  -1.78785 
 H                     11.23408   0.20669  -4.03812 
 H                     9.86981  -2.25917  -3.08153 
 H                     9.39073   0.16447  -5.35319 
 H                     8.42486   0.52854  -3.8799 
 H                     8.65276  -1.07928  -4.34747 
 H                     11.95921  -2.25458  -4.49793 
 H                     11.99597  -3.34708  -3.12677 
 H                     13.31647  -0.78532  -3.65193 
 H                     14.05387  -2.28064  -2.96997 
 H                     13.05619  -1.15496  -1.9444 
 H                     11.24808  -5.21574   2.31996 
 H                     10.83464  -4.93896   0.59698 
 H                     9.50824  -4.95879   1.82683 
 H                     9.0763   -1.47868   5.56939 
 H                     10.96687  -1.46268   9.44345 
 H                     11.13271   0.33129   8.91609 
 H                     12.30018  -0.96173   8.54547 
 
 ITRead=  0  0  0  0  0  0  0  0  0  0  0  0  0  0  0  0  0  0  0  0
 ITRead=  0  0  0  0  0  0  0  0  0  0  0  0  0  0  0  0  0  0  0  0
 ITRead=  0  0  0  0  0  0  0  0  0  0  0  0  0  0  0  0  0  0  0  0
 ITRead=  0  0  0  0  0  0  0  0  0  0  0  0  0  0  0  0  0  0  0  0
 ITRead=  0  0  0  0  0  0  0  0  0  0  0  0  0  0  0  0  0  0  0  0
 ITRead=  0  0  0  0  0  0  0  0  0  0  0  0  0  0  0  0  0  0  0  0
 ITRead=  0  0  0  0  0  0  0  0  0  0  0  0  0  0  0  0  0  0  0  0
 ITRead=  0  0  0  0  0  0  0  0  0  0  0  0  0  0  0  0  0  0
 MicOpt= -1 -1 -1 -1 -1 -1 -1 -1 -1 -1 -1 -1 -1 -1 -1 -1 -1 -1 -1 -1
 MicOpt= -1 -1 -1 -1 -1 -1 -1 -1 -1 -1 -1 -1 -1 -1 -1 -1 -1 -1 -1 -1
 MicOpt= -1 -1 -1 -1 -1 -1 -1 -1 -1 -1 -1 -1 -1 -1 -1 -1 -1 -1 -1 -1
 MicOpt= -1 -1 -1 -1 -1 -1 -1 -1 -1 -1 -1 -1 -1 -1 -1 -1 -1 -1 -1 -1
 MicOpt= -1 -1 -1 -1 -1 -1 -1 -1 -1 -1 -1 -1 -1 -1 -1 -1 -1 -1 -1 -1
 MicOpt= -1 -1 -1 -1 -1 -1 -1 -1 -1 -1 -1 -1 -1 -1 -1 -1 -1 -1 -1 -1
 MicOpt= -1 -1 -1 -1 -1 -1 -1 -1 -1 -1 -1 -1 -1 -1 -1 -1 -1 -1 -1 -1
 MicOpt= -1 -1 -1 -1 -1 -1 -1 -1 -1 -1 -1 -1 -1 -1 -1 -1 -1 -1
 NAtoms=    158 NQM=      158 NQMF=       0 NMMI=      0 NMMIF=      0
                NMic=       0 NMicF=      0.
                    Isotopes and Nuclear Properties:
 (Nuclear quadrupole moments (NQMom) in fm**2, nuclear magnetic moments (NMagM)
  in nuclear magnetons)

  Atom         1           2           3           4           5           6           7           8           9          10
 IAtWgt=          24          12          12          12          12          14          12          12          12          12
 AtmWgt=  23.9850450  12.0000000  12.0000000  12.0000000  12.0000000  14.0030740  12.0000000  12.0000000  12.0000000  12.0000000
 NucSpn=           0           0           0           0           0           2           0           0           0           0
 AtZEff=  -0.0000000  -0.0000000  -0.0000000  -0.0000000  -0.0000000  -0.0000000  -0.0000000  -0.0000000  -0.0000000  -0.0000000
 NQMom=    0.0000000   0.0000000   0.0000000   0.0000000   0.0000000   2.0440000   0.0000000   0.0000000   0.0000000   0.0000000
 NMagM=    0.0000000   0.0000000   0.0000000   0.0000000   0.0000000   0.4037610   0.0000000   0.0000000   0.0000000   0.0000000
 AtZNuc=  12.0000000   6.0000000   6.0000000   6.0000000   6.0000000   7.0000000   6.0000000   6.0000000   6.0000000   6.0000000

  Atom        11          12          13          14          15          16          17          18          19          20
 IAtWgt=          12          12          12           1          14          12          12          12          12          12
 AtmWgt=  12.0000000  12.0000000  12.0000000   1.0078250  14.0030740  12.0000000  12.0000000  12.0000000  12.0000000  12.0000000
 NucSpn=           0           0           0           1           2           0           0           0           0           0
 AtZEff=  -0.0000000  -0.0000000  -0.0000000  -0.0000000  -0.0000000  -0.0000000  -0.0000000  -0.0000000  -0.0000000  -0.0000000
 NQMom=    0.0000000   0.0000000   0.0000000   0.0000000   2.0440000   0.0000000   0.0000000   0.0000000   0.0000000   0.0000000
 NMagM=    0.0000000   0.0000000   0.0000000   2.7928460   0.4037610   0.0000000   0.0000000   0.0000000   0.0000000   0.0000000
 AtZNuc=   6.0000000   6.0000000   6.0000000   1.0000000   7.0000000   6.0000000   6.0000000   6.0000000   6.0000000   6.0000000

  Atom        21          22          23          24          25          26          27          28          29          30
 IAtWgt=          12          16          12          14          12          12          12          12          12          12
 AtmWgt=  12.0000000  15.9949146  12.0000000  14.0030740  12.0000000  12.0000000  12.0000000  12.0000000  12.0000000  12.0000000
 NucSpn=           0           0           0           2           0           0           0           0           0           0
 AtZEff=  -0.0000000  -0.0000000  -0.0000000  -0.0000000  -0.0000000  -0.0000000  -0.0000000  -0.0000000  -0.0000000  -0.0000000
 NQMom=    0.0000000   0.0000000   0.0000000   2.0440000   0.0000000   0.0000000   0.0000000   0.0000000   0.0000000   0.0000000
 NMagM=    0.0000000   0.0000000   0.0000000   0.4037610   0.0000000   0.0000000   0.0000000   0.0000000   0.0000000   0.0000000
 AtZNuc=   6.0000000   8.0000000   6.0000000   7.0000000   6.0000000   6.0000000   6.0000000   6.0000000   6.0000000   6.0000000

  Atom        31          32          33          34          35          36          37          38          39          40
 IAtWgt=          12          14          12          12          12          12          12          12          16          12
 AtmWgt=  12.0000000  14.0030740  12.0000000  12.0000000  12.0000000  12.0000000  12.0000000  12.0000000  15.9949146  12.0000000
 NucSpn=           0           2           0           0           0           0           0           0           0           0
 AtZEff=  -0.0000000  -0.0000000  -0.0000000  -0.0000000  -0.0000000  -0.0000000  -0.0000000  -0.0000000  -0.0000000  -0.0000000
 NQMom=    0.0000000   2.0440000   0.0000000   0.0000000   0.0000000   0.0000000   0.0000000   0.0000000   0.0000000   0.0000000
 NMagM=    0.0000000   0.4037610   0.0000000   0.0000000   0.0000000   0.0000000   0.0000000   0.0000000   0.0000000   0.0000000
 AtZNuc=   6.0000000   7.0000000   6.0000000   6.0000000   6.0000000   6.0000000   6.0000000   6.0000000   8.0000000   6.0000000

  Atom        41          42          43          44          45          46          47          48          49          50
 IAtWgt=          12          16          16          12           1           1           1           1           1           1
 AtmWgt=  12.0000000  15.9949146  15.9949146  12.0000000   1.0078250   1.0078250   1.0078250   1.0078250   1.0078250   1.0078250
 NucSpn=           0           0           0           0           1           1           1           1           1           1
 AtZEff=  -0.0000000  -0.0000000  -0.0000000  -0.0000000  -0.0000000  -0.0000000  -0.0000000  -0.0000000  -0.0000000  -0.0000000
 NQMom=    0.0000000   0.0000000   0.0000000   0.0000000   0.0000000   0.0000000   0.0000000   0.0000000   0.0000000   0.0000000
 NMagM=    0.0000000   0.0000000   0.0000000   0.0000000   2.7928460   2.7928460   2.7928460   2.7928460   2.7928460   2.7928460
 AtZNuc=   6.0000000   8.0000000   8.0000000   6.0000000   1.0000000   1.0000000   1.0000000   1.0000000   1.0000000   1.0000000

  Atom        51          52          53          54          55          56          57          58          59          60
 IAtWgt=           1           1           1           1           1           1           1           1           1           1
 AtmWgt=   1.0078250   1.0078250   1.0078250   1.0078250   1.0078250   1.0078250   1.0078250   1.0078250   1.0078250   1.0078250
 NucSpn=           1           1           1           1           1           1           1           1           1           1
 AtZEff=  -0.0000000  -0.0000000  -0.0000000  -0.0000000  -0.0000000  -0.0000000  -0.0000000  -0.0000000  -0.0000000  -0.0000000
 NQMom=    0.0000000   0.0000000   0.0000000   0.0000000   0.0000000   0.0000000   0.0000000   0.0000000   0.0000000   0.0000000
 NMagM=    2.7928460   2.7928460   2.7928460   2.7928460   2.7928460   2.7928460   2.7928460   2.7928460   2.7928460   2.7928460
 AtZNuc=   1.0000000   1.0000000   1.0000000   1.0000000   1.0000000   1.0000000   1.0000000   1.0000000   1.0000000   1.0000000

  Atom        61          62          63          64          65          66          67          68          69          70
 IAtWgt=           1           1           1           1           1           1           1           1           1           1
 AtmWgt=   1.0078250   1.0078250   1.0078250   1.0078250   1.0078250   1.0078250   1.0078250   1.0078250   1.0078250   1.0078250
 NucSpn=           1           1           1           1           1           1           1           1           1           1
 AtZEff=  -0.0000000  -0.0000000  -0.0000000  -0.0000000  -0.0000000  -0.0000000  -0.0000000  -0.0000000  -0.0000000  -0.0000000
 NQMom=    0.0000000   0.0000000   0.0000000   0.0000000   0.0000000   0.0000000   0.0000000   0.0000000   0.0000000   0.0000000
 NMagM=    2.7928460   2.7928460   2.7928460   2.7928460   2.7928460   2.7928460   2.7928460   2.7928460   2.7928460   2.7928460
 AtZNuc=   1.0000000   1.0000000   1.0000000   1.0000000   1.0000000   1.0000000   1.0000000   1.0000000   1.0000000   1.0000000

  Atom        71          72          73          74          75          76          77          78          79          80
 IAtWgt=           1           1           1           1           1           1           1           1           1          24
 AtmWgt=   1.0078250   1.0078250   1.0078250   1.0078250   1.0078250   1.0078250   1.0078250   1.0078250   1.0078250  23.9850450
 NucSpn=           1           1           1           1           1           1           1           1           1           0
 AtZEff=  -0.0000000  -0.0000000  -0.0000000  -0.0000000  -0.0000000  -0.0000000  -0.0000000  -0.0000000  -0.0000000  -0.0000000
 NQMom=    0.0000000   0.0000000   0.0000000   0.0000000   0.0000000   0.0000000   0.0000000   0.0000000   0.0000000   0.0000000
 NMagM=    2.7928460   2.7928460   2.7928460   2.7928460   2.7928460   2.7928460   2.7928460   2.7928460   2.7928460   0.0000000
 AtZNuc=   1.0000000   1.0000000   1.0000000   1.0000000   1.0000000   1.0000000   1.0000000   1.0000000   1.0000000  12.0000000

  Atom        81          82          83          84          85          86          87          88          89          90
 IAtWgt=          12          12          12          12          14          12          12          12          12          12
 AtmWgt=  12.0000000  12.0000000  12.0000000  12.0000000  14.0030740  12.0000000  12.0000000  12.0000000  12.0000000  12.0000000
 NucSpn=           0           0           0           0           2           0           0           0           0           0
 AtZEff=  -0.0000000  -0.0000000  -0.0000000  -0.0000000  -0.0000000  -0.0000000  -0.0000000  -0.0000000  -0.0000000  -0.0000000
 NQMom=    0.0000000   0.0000000   0.0000000   0.0000000   2.0440000   0.0000000   0.0000000   0.0000000   0.0000000   0.0000000
 NMagM=    0.0000000   0.0000000   0.0000000   0.0000000   0.4037610   0.0000000   0.0000000   0.0000000   0.0000000   0.0000000
 AtZNuc=   6.0000000   6.0000000   6.0000000   6.0000000   7.0000000   6.0000000   6.0000000   6.0000000   6.0000000   6.0000000

  Atom        91          92          93          94          95          96          97          98          99         100
 IAtWgt=          12          12           1          14          12          12          12          12          12          12
 AtmWgt=  12.0000000  12.0000000   1.0078250  14.0030740  12.0000000  12.0000000  12.0000000  12.0000000  12.0000000  12.0000000
 NucSpn=           0           0           1           2           0           0           0           0           0           0
 AtZEff=  -0.0000000  -0.0000000  -0.0000000  -0.0000000  -0.0000000  -0.0000000  -0.0000000  -0.0000000  -0.0000000  -0.0000000
 NQMom=    0.0000000   0.0000000   0.0000000   2.0440000   0.0000000   0.0000000   0.0000000   0.0000000   0.0000000   0.0000000
 NMagM=    0.0000000   0.0000000   2.7928460   0.4037610   0.0000000   0.0000000   0.0000000   0.0000000   0.0000000   0.0000000
 AtZNuc=   6.0000000   6.0000000   1.0000000   7.0000000   6.0000000   6.0000000   6.0000000   6.0000000   6.0000000   6.0000000

  Atom       101         102         103         104         105         106         107         108         109         110
 IAtWgt=          16          12          14          12          12          12          12          12          12          12
 AtmWgt=  15.9949146  12.0000000  14.0030740  12.0000000  12.0000000  12.0000000  12.0000000  12.0000000  12.0000000  12.0000000
 NucSpn=           0           0           2           0           0           0           0           0           0           0
 AtZEff=  -0.0000000  -0.0000000  -0.0000000  -0.0000000  -0.0000000  -0.0000000  -0.0000000  -0.0000000  -0.0000000  -0.0000000
 NQMom=    0.0000000   0.0000000   2.0440000   0.0000000   0.0000000   0.0000000   0.0000000   0.0000000   0.0000000   0.0000000
 NMagM=    0.0000000   0.0000000   0.4037610   0.0000000   0.0000000   0.0000000   0.0000000   0.0000000   0.0000000   0.0000000
 AtZNuc=   8.0000000   6.0000000   7.0000000   6.0000000   6.0000000   6.0000000   6.0000000   6.0000000   6.0000000   6.0000000

  Atom       111         112         113         114         115         116         117         118         119         120
 IAtWgt=          14          12          12          12          12          12          12          16          12          12
 AtmWgt=  14.0030740  12.0000000  12.0000000  12.0000000  12.0000000  12.0000000  12.0000000  15.9949146  12.0000000  12.0000000
 NucSpn=           2           0           0           0           0           0           0           0           0           0
 AtZEff=  -0.0000000  -0.0000000  -0.0000000  -0.0000000  -0.0000000  -0.0000000  -0.0000000  -0.0000000  -0.0000000  -0.0000000
 NQMom=    2.0440000   0.0000000   0.0000000   0.0000000   0.0000000   0.0000000   0.0000000   0.0000000   0.0000000   0.0000000
 NMagM=    0.4037610   0.0000000   0.0000000   0.0000000   0.0000000   0.0000000   0.0000000   0.0000000   0.0000000   0.0000000
 AtZNuc=   7.0000000   6.0000000   6.0000000   6.0000000   6.0000000   6.0000000   6.0000000   8.0000000   6.0000000   6.0000000

  Atom       121         122         123         124         125         126         127         128         129         130
 IAtWgt=          16          16          12           1           1           1           1           1           1           1
 AtmWgt=  15.9949146  15.9949146  12.0000000   1.0078250   1.0078250   1.0078250   1.0078250   1.0078250   1.0078250   1.0078250
 NucSpn=           0           0           0           1           1           1           1           1           1           1
 AtZEff=  -0.0000000  -0.0000000  -0.0000000  -0.0000000  -0.0000000  -0.0000000  -0.0000000  -0.0000000  -0.0000000  -0.0000000
 NQMom=    0.0000000   0.0000000   0.0000000   0.0000000   0.0000000   0.0000000   0.0000000   0.0000000   0.0000000   0.0000000
 NMagM=    0.0000000   0.0000000   0.0000000   2.7928460   2.7928460   2.7928460   2.7928460   2.7928460   2.7928460   2.7928460
 AtZNuc=   8.0000000   8.0000000   6.0000000   1.0000000   1.0000000   1.0000000   1.0000000   1.0000000   1.0000000   1.0000000

  Atom       131         132         133         134         135         136         137         138         139         140
 IAtWgt=           1           1           1           1           1           1           1           1           1           1
 AtmWgt=   1.0078250   1.0078250   1.0078250   1.0078250   1.0078250   1.0078250   1.0078250   1.0078250   1.0078250   1.0078250
 NucSpn=           1           1           1           1           1           1           1           1           1           1
 AtZEff=  -0.0000000  -0.0000000  -0.0000000  -0.0000000  -0.0000000  -0.0000000  -0.0000000  -0.0000000  -0.0000000  -0.0000000
 NQMom=    0.0000000   0.0000000   0.0000000   0.0000000   0.0000000   0.0000000   0.0000000   0.0000000   0.0000000   0.0000000
 NMagM=    2.7928460   2.7928460   2.7928460   2.7928460   2.7928460   2.7928460   2.7928460   2.7928460   2.7928460   2.7928460
 AtZNuc=   1.0000000   1.0000000   1.0000000   1.0000000   1.0000000   1.0000000   1.0000000   1.0000000   1.0000000   1.0000000

  Atom       141         142         143         144         145         146         147         148         149         150
 IAtWgt=           1           1           1           1           1           1           1           1           1           1
 AtmWgt=   1.0078250   1.0078250   1.0078250   1.0078250   1.0078250   1.0078250   1.0078250   1.0078250   1.0078250   1.0078250
 NucSpn=           1           1           1           1           1           1           1           1           1           1
 AtZEff=  -0.0000000  -0.0000000  -0.0000000  -0.0000000  -0.0000000  -0.0000000  -0.0000000  -0.0000000  -0.0000000  -0.0000000
 NQMom=    0.0000000   0.0000000   0.0000000   0.0000000   0.0000000   0.0000000   0.0000000   0.0000000   0.0000000   0.0000000
 NMagM=    2.7928460   2.7928460   2.7928460   2.7928460   2.7928460   2.7928460   2.7928460   2.7928460   2.7928460   2.7928460
 AtZNuc=   1.0000000   1.0000000   1.0000000   1.0000000   1.0000000   1.0000000   1.0000000   1.0000000   1.0000000   1.0000000

  Atom       151         152         153         154         155         156         157         158
 IAtWgt=           1           1           1           1           1           1           1           1
 AtmWgt=   1.0078250   1.0078250   1.0078250   1.0078250   1.0078250   1.0078250   1.0078250   1.0078250
 NucSpn=           1           1           1           1           1           1           1           1
 AtZEff=  -0.0000000  -0.0000000  -0.0000000  -0.0000000  -0.0000000  -0.0000000  -0.0000000  -0.0000000
 NQMom=    0.0000000   0.0000000   0.0000000   0.0000000   0.0000000   0.0000000   0.0000000   0.0000000
 NMagM=    2.7928460   2.7928460   2.7928460   2.7928460   2.7928460   2.7928460   2.7928460   2.7928460
 AtZNuc=   1.0000000   1.0000000   1.0000000   1.0000000   1.0000000   1.0000000   1.0000000   1.0000000
 Leave Link  101 at Sat Sep  4 04:56:39 2021, MaxMem= 23488102400 cpu:               3.7 elap:               0.2
 (Enter /sw/apps/gaussian-16.0/g16/l202.exe)
 Stoichiometry    C68H72Mg2N8O8
 Framework group  C1[X(C68H72Mg2N8O8)]
 Deg. of freedom   468
 Full point group                 C1      NOp   1
 Largest Abelian subgroup         C1      NOp   1
 Largest concise Abelian subgroup C1      NOp   1
                         Standard orientation:                         
 ---------------------------------------------------------------------
 Center     Atomic      Atomic             Coordinates (Angstroms)
 Number     Number       Type             X           Y           Z
 ---------------------------------------------------------------------
      1         12           0       -5.222722   -0.686183    0.011529
      2          6           0       -5.375094    2.828612    0.671235
      3          6           0       -6.044693    0.035839   -3.220515
      4          6           0       -5.539674   -3.801491   -0.489487
      5          6           0       -5.536387   -1.194485    3.445027
      6          7           0       -5.630831    1.228219   -1.022472
      7          6           0       -5.597644    2.509604   -0.670163
      8          6           0       -5.746676    3.485747   -1.875281
      9          6           0       -6.502875    2.517502   -2.891480
     10          6           0       -6.003218    1.181250   -2.371194
     11          6           0       -8.021681    2.559900   -2.757575
     12          6           0       -4.361653    3.944159   -2.443877
     13          6           0       -4.411057    5.139753   -3.399632
     14          1           0       -3.319437    6.101578   -3.374976
     15          7           0       -5.238230   -1.717834   -1.673198
     16          6           0       -5.584304   -1.259663   -2.900226
     17          6           0       -5.431991   -2.406391   -3.821365
     18          6           0       -5.152186   -3.616344   -2.999284
     19          6           0       -5.327047   -3.091808   -1.668997
     20          6           0       -5.505298   -2.279697   -5.312111
     21          6           0       -4.795685   -5.024743   -3.356288
     22          8           0       -4.823059   -5.971768   -2.497819
     23          6           0       -4.495252   -5.286761   -4.775488
     24          7           0       -5.718636   -2.282366    1.262091
     25          6           0       -5.728363   -3.539514    0.805508
     26          6           0       -5.830789   -4.527776    1.929245
     27          6           0       -5.643910   -3.688281    3.274637
     28          6           0       -5.542392   -2.271861    2.656805
     29          6           0       -7.140759   -5.324401    2.002585
     30          6           0       -4.527442   -4.152090    4.243554
     31          6           0       -3.172478   -3.926284    3.610954
     32          7           0       -5.244422    0.565208    1.784830
     33          6           0       -5.409092    0.143761    3.112211
     34          6           0       -5.463753    1.357746    3.947269
     35          6           0       -5.342931    2.408433    3.039908
     36          6           0       -5.246923    1.884809    1.718965
     37          6           0       -5.666554    1.392366    5.355143
     38          6           0       -5.297360    3.852430    2.876654
     39          8           0       -5.241870    4.811034    3.648335
     40          6           0       -5.438878    4.186087    1.326017
     41          6           0       -4.370468    5.186057    0.976921
     42          8           0       -3.163444    4.871016    1.011662
     43          8           0       -4.939325    6.272624    0.432573
     44          6           0       -3.931632    7.292232    0.036203
     45          1           0       -6.525656    0.119955   -4.197009
     46          1           0       -5.544220   -4.887281   -0.605577
     47          1           0       -5.547972   -1.277477    4.533342
     48          1           0       -6.358158    4.365642   -1.674531
     49          1           0       -6.175112    2.670396   -3.919545
     50          1           0       -8.329313    3.153261   -1.896641
     51          1           0       -8.332162    1.522059   -2.635179
     52          1           0       -8.482777    2.903334   -3.683977
     53          1           0       -3.980819    3.180322   -3.121800
     54          1           0       -3.663946    4.158863   -1.633672
     55          1           0       -5.372416    5.651666   -3.348218
     56          1           0       -4.359159    4.762813   -4.421113
     57          1           0       -5.886075   -1.304470   -5.612923
     58          1           0       -6.262676   -2.984482   -5.654696
     59          1           0       -4.551641   -2.503581   -5.790386
     60          1           0       -5.359576   -5.015977   -5.382257
     61          1           0       -4.174985   -6.326722   -4.828027
     62          1           0       -3.682110   -4.632352   -5.090923
     63          1           0       -5.043323   -5.277460    1.863701
     64          1           0       -6.545787   -3.691308    3.887239
     65          1           0       -6.998154   -6.404994    1.976364
     66          1           0       -7.781924   -4.994621    1.185613
     67          1           0       -7.762764   -5.102487    2.869350
     68          1           0       -4.615627   -5.220021    4.440260
     69          1           0       -4.548257   -3.635288    5.203102
     70          1           0       -3.042470   -4.812669    2.991075
     71          1           0       -2.399329   -3.869398    4.377906
     72          1           0       -3.182523   -3.062340    2.946133
     73          1           0       -4.960726    2.124598    5.747077
     74          1           0       -5.508571    0.411153    5.802205
     75          1           0       -6.708269    1.709464    5.401360
     76          1           0       -6.440474    4.590218    1.182473
     77          1           0       -4.202756    8.222511    0.535509
     78          1           0       -3.903231    7.292537   -1.053567
     79          1           0       -2.919913    7.142704    0.414889
     80         12           0        5.365839   -0.860884    0.139604
     81          6           0        5.222464    2.716572   -0.106051
     82          6           0        4.528983   -0.972068   -3.165232
     83          6           0        5.042517   -4.003960    0.429332
     84          6           0        5.060378   -0.497245    3.592163
     85          7           0        4.955422    0.733689   -1.337279
     86          6           0        4.991311    2.057713   -1.331569
     87          6           0        4.846557    2.711097   -2.732173
     88          6           0        4.076230    1.514996   -3.477045
     89          6           0        4.573630    0.342001   -2.634825
     90          6           0        2.564911    1.594733   -3.339594
     91          6           0        6.235164    3.004625   -3.401209
     92          6           0        6.177938    3.918647   -4.627200
     93          1           0        7.278204    4.852287   -4.851282
     94          7           0        5.343708   -2.282665   -1.244810
     95          6           0        4.999674   -2.149152   -2.542925
     96          6           0        5.129557   -3.490221   -3.133545
     97          6           0        5.419288   -4.457997   -2.040761
     98          6           0        5.255566   -3.603619   -0.881740
     99          6           0        5.058585   -3.738432   -4.612319
    100          6           0        5.771299   -5.914804   -2.038579
    101          8           0        5.746803   -6.611831   -0.963226
    102          6           0        6.054766   -6.522713   -3.346852
    103          7           0        4.879413   -2.085995    1.747343
    104          6           0        4.859053   -3.423965    1.615609
    105          6           0        4.756124   -4.102989    2.960493
    106          6           0        4.956046   -2.943484    4.043622
    107          6           0        5.055360   -1.727231    3.096914
    108          6           0        3.443777   -4.836342    3.236741
    109          6           0        6.076348   -3.151974    5.099153
    110          6           0        7.430978   -3.108489    4.429473
    111          7           0        5.360023    0.788281    1.535411
    112          6           0        5.193263    0.719775    2.935970
    113          6           0        5.145793    2.108645    3.437211
    114          6           0        5.266088    2.895230    2.281657
    115          6           0        5.360161    2.055992    1.138713
    116          6           0        4.959738    2.497555    4.793768
    117          6           0        5.324192    4.244776    1.767791
    118          8           0        5.378384    5.365177    2.273239
    119          6           0        5.171377    4.190463    0.186624
    120          6           0        6.240824    5.061430   -0.413579
    121          8           0        7.441755    4.762104   -0.292073
    122          8           0        5.665304    5.978928   -1.211911
    123          6           0        6.686440    6.859721   -1.839053
    124          1           0        4.050191   -1.125016   -4.132833
    125          1           0        5.034343   -5.083402    0.597301
    126          1           0        5.065480   -0.300479    4.666367
    127          1           0        4.244261    3.611411   -2.753376
    128          1           0        4.407853    1.412548   -4.507039
    129          1           0        2.262835    2.379450   -2.662009
    130          1           0        2.252370    0.629267   -2.963776
    131          1           0        2.101746    1.698909   -4.324963
    132          1           0        6.608411    2.084921   -3.869788
    133          1           0        6.926476    3.403904   -2.684760
    134          1           0        5.213407    4.433723   -4.712671
    135          1           0        6.231053    3.298385   -5.525246
    136          1           0        4.671870   -2.863306   -5.148987
    137          1           0        4.299041   -4.511665   -4.770667
    138          1           0        6.007496   -4.084910   -5.027288
    139          1           0        5.189972   -6.403866   -3.995284
    140          1           0        6.372842   -7.544631   -3.131475
    141          1           0        6.878301   -5.973543   -3.816753
    142          1           0        5.541873   -4.838199    3.083652
    143          1           0        4.052332   -2.794651    4.652710
    144          1           0        3.584844   -5.905618    3.483383
    145          1           0        2.803016   -4.726913    2.371882
    146          1           0        2.834389   -4.409090    4.031294
    147          1           0        5.987361   -4.140873    5.555567
    148          1           0        6.053848   -2.423272    5.902575
    149          1           0        7.550369   -4.126888    4.047786
    150          1           0        8.207538   -2.863990    5.151429
    151          1           0        7.422037   -2.432101    3.566887
    152          1           0        5.661957    3.297483    4.987434
    153          1           0        5.112497    1.660530    5.471869
    154          1           0        3.914282    2.815990    4.763736
    155          1           0        4.169419    4.545133   -0.058034
    156          1           0        6.416579    7.890325   -1.588659
    157          1           0        6.697171    6.588179   -2.911391
    158          1           0        7.698274    6.806667   -1.454579
 ---------------------------------------------------------------------
 Rotational constants (GHZ):           0.0202568           0.0117554           0.0101299
 Leave Link  202 at Sat Sep  4 04:56:39 2021, MaxMem= 23488102400 cpu:               0.2 elap:               0.0
 (Enter /sw/apps/gaussian-16.0/g16/l301.exe)
 Standard basis: def2SVP (5D, 7F)
 Ernie: Thresh=  0.10000D-02 Tol=  0.10000D-05 Strict=F.
 There are  1658 symmetry adapted cartesian basis functions of A   symmetry.
 There are  1572 symmetry adapted basis functions of A   symmetry.
  1572 basis functions,  2678 primitive gaussians,  1658 cartesian basis functions
   312 alpha electrons      312 beta electrons
       nuclear repulsion energy     14951.7275922996 Hartrees.
 IExCor=20419 DFT=T Ex+Corr=CAM-B3LYP ExCW=0 ScaHFX=  1.000000
 ScaDFX=  1.000000  1.000000  1.000000  0.810000 ScalE2=  1.000000  1.000000
 IRadAn=      5 IRanWt=     -1 IRanGd=            0 ICorTp=0 IEmpDi=  4
 HFx  wShort=  0.000000 wLong=  0.330000 cFull=  0.190000 cShort=  0.000000 cLong=  0.460000
 DFx  wShort=  0.000000 wLong=  0.330000 cFull=  0.190000 cShort=  0.000000 cLong=  0.460000
 NAtoms=  158 NActive=  158 NUniq=  158 SFac= 1.00D+00 NAtFMM=   60 NAOKFM=T Big=T
 Integral buffers will be    131072 words long.
 Raffenetti 1 integral format.
 Two-electron integral symmetry is turned on.
 Leave Link  301 at Sat Sep  4 04:56:40 2021, MaxMem= 23488102400 cpu:               1.4 elap:               0.1
 (Enter /sw/apps/gaussian-16.0/g16/l302.exe)
 NPDir=0 NMtPBC=     1 NCelOv=     1 NCel=       1 NClECP=     1 NCelD=      1
         NCelK=      1 NCelE2=     1 NClLst=     1 CellRange=     0.0.
 One-electron integrals computed using PRISM.
 One-electron integral symmetry used in STVInt
   1 Symmetry operations used in ECPInt.
 ECPInt:  NShTT=  271216 NPrTT=  987664 LenC2=  137963 LenP2D=  287687.
 LDataN:  DoStor=T MaxTD1= 4 Len=   56
 NBasis=  1572 RedAO= T EigKep=  3.36D-04  NBF=  1572
 NBsUse=  1572 1.00D-06 EigRej= -1.00D+00 NBFU=  1572
 Precomputing XC quadrature grid using
 IXCGrd= 4 IRadAn=           5 IRanWt=          -1 IRanGd=           0 AccXCQ= 0.00D+00.
 Generated NRdTot=       0 NPtTot=           0 NUsed=           0 NTot=          32
 NSgBfM=  1131  1108  1114  1120  1131 MxSgAt=   158 MxSgA2=   158.
 Leave Link  302 at Sat Sep  4 04:56:45 2021, MaxMem= 23488102400 cpu:             123.0 elap:               5.1
 (Enter /sw/apps/gaussian-16.0/g16/l303.exe)
 DipDrv:  MaxL=1.
 Leave Link  303 at Sat Sep  4 04:56:45 2021, MaxMem= 23488102400 cpu:               9.1 elap:               0.4
 (Enter /sw/apps/gaussian-16.0/g16/l308.exe)
 Leave Link  308 at Sat Sep  4 04:56:46 2021, MaxMem= 23488102400 cpu:              15.6 elap:               0.7
 (Enter /sw/apps/gaussian-16.0/g16/l401.exe)
 ExpMin= 3.36D-02 ExpMax= 4.95D+03 ExpMxC= 7.45D+02 IAcc=3 IRadAn=         5 AccDes= 0.00D+00
 Harris functional with IExCor=20419 and IRadAn=       5 diagonalized for initial guess.
 HarFok:  IExCor=20419 AccDes= 0.00D+00 IRadAn=         5 IDoV= 1 UseB2=F ITyADJ=14
 ICtDFT=  3500011 ScaDFX=  1.000000  1.000000  1.000000  1.000000
 FoFCou: FMM=F IPFlag=           0 FMFlag=      100000 FMFlg1=        2001
         NFxFlg=           0 DoJE=T BraDBF=F KetDBF=T FulRan=T
         wScrn=  0.000000 ICntrl=       500 IOpCl=  0 I1Cent=   200000004 NGrid=           0
         NMat0=    1 NMatS0=      1 NMatT0=    0 NMatD0=    1 NMtDS0=    0 NMtDT0=    0
 Petite list used in FoFCou.
 Harris En= -3918.65800242114    
 JPrj=0 DoOrth=F DoCkMO=F.
 Leave Link  401 at Sat Sep  4 04:56:54 2021, MaxMem= 23488102400 cpu:             182.5 elap:               7.6
 (Enter /sw/apps/gaussian-16.0/g16/l502.exe)
 Integral symmetry usage will be decided dynamically.
 Closed shell SCF:
 Using DIIS extrapolation, IDIIS=  1040.
 NGot= 23488102400 LenX= 23482547354 LenY= 23479796732
 Requested convergence on RMS density matrix=1.00D-08 within 128 cycles.
 Requested convergence on MAX density matrix=1.00D-06.
 Requested convergence on             energy=1.00D-06.
 No special actions if energy rises.
 Fock matrices will be formed incrementally for  20 cycles.

 Cycle   1  Pass 1  IDiag  1:
 FoFJK:  IHMeth= 1 ICntrl=       0 DoSepK=T KAlg= 0 I1Cent=           0 FoldK=F
 IRaf=         1 NMat=       1 IRICut=       1 DoRegI=T DoRafI=F ISym2E= 0 IDoP0=0 IntGTp=1.
 FoFCou: FMM=T IPFlag=           0 FMFlag=      100000 FMFlg1=        2001
         NFxFlg=           0 DoJE=T BraDBF=F KetDBF=F FulRan=T
         wScrn=  0.000000 ICntrl=       500 IOpCl=  0 I1Cent=           0 NGrid=           0
         NMat0=    1 NMatS0=      1 NMatT0=    0 NMatD0=    1 NMtDS0=    0 NMtDT0=    0
 Symmetry not used in FoFCou.
 FMM levels:  10  Number of levels for PrismC:   9
 E= -4068.94803047918    
 DIIS: error= 2.04D-02 at cycle   1 NSaved=   1.
 NSaved= 1 IEnMin= 1 EnMin= -4068.94803047918     IErMin= 1 ErrMin= 2.04D-02
 ErrMax= 2.04D-02  0.00D+00 EMaxC= 1.00D-01 BMatC= 1.69D+00 BMatP= 1.69D+00
 IDIUse=3 WtCom= 7.96D-01 WtEn= 2.04D-01
 Coeff-Com:  0.100D+01
 Coeff-En:   0.100D+01
 Coeff:      0.100D+01
 Gap=     0.120 Goal=   None    Shift=    0.000
 GapD=    0.120 DampG=1.000 DampE=0.500 DampFc=0.5000 IDamp=-1.
 Damping current iteration by 5.00D-01
 RMSDP=1.57D-03 MaxDP=1.36D-01              OVMax= 2.08D-01

 Cycle   2  Pass 1  IDiag  1:
 RMSU=  7.70D-04    CP:  9.82D-01
 E= -4069.33661931450     Delta-E=       -0.388588835318 Rises=F Damp=T
 DIIS: error= 1.27D-02 at cycle   2 NSaved=   2.
 NSaved= 2 IEnMin= 2 EnMin= -4069.33661931450     IErMin= 2 ErrMin= 1.27D-02
 ErrMax= 1.27D-02  0.00D+00 EMaxC= 1.00D-01 BMatC= 3.07D-01 BMatP= 1.69D+00
 IDIUse=3 WtCom= 8.73D-01 WtEn= 1.27D-01
 Coeff-Com: -0.212D+00 0.121D+01
 Coeff-En:   0.000D+00 0.100D+01
 Coeff:     -0.185D+00 0.119D+01
 Gap=     0.135 Goal=   None    Shift=    0.000
 RMSDP=7.68D-04 MaxDP=9.46D-02 DE=-3.89D-01 OVMax= 1.94D-01

 Cycle   3  Pass 1  IDiag  1:
 RMSU=  7.37D-04    CP:  9.68D-01  1.23D+00
 E= -4069.62373263332     Delta-E=       -0.287113318824 Rises=F Damp=F
 DIIS: error= 1.57D-02 at cycle   3 NSaved=   3.
 NSaved= 3 IEnMin= 3 EnMin= -4069.62373263332     IErMin= 2 ErrMin= 1.27D-02
 ErrMax= 1.57D-02  0.00D+00 EMaxC= 1.00D-01 BMatC= 2.04D-01 BMatP= 3.07D-01
 IDIUse=3 WtCom= 8.43D-01 WtEn= 1.57D-01
 Coeff-Com: -0.267D+00 0.653D+00 0.614D+00
 Coeff-En:   0.000D+00 0.000D+00 0.100D+01
 Coeff:     -0.225D+00 0.551D+00 0.675D+00
 Gap=     0.122 Goal=   None    Shift=    0.000
 RMSDP=5.18D-04 MaxDP=4.89D-02 DE=-2.87D-01 OVMax= 1.53D-01

 Cycle   4  Pass 1  IDiag  1:
 RMSU=  2.70D-04    CP:  9.65D-01  1.55D+00  4.99D-01
 E= -4069.76249316831     Delta-E=       -0.138760534988 Rises=F Damp=F
 DIIS: error= 7.17D-03 at cycle   4 NSaved=   4.
 NSaved= 4 IEnMin= 4 EnMin= -4069.76249316831     IErMin= 4 ErrMin= 7.17D-03
 ErrMax= 7.17D-03  0.00D+00 EMaxC= 1.00D-01 BMatC= 5.15D-02 BMatP= 2.04D-01
 IDIUse=3 WtCom= 9.28D-01 WtEn= 7.17D-02
 Coeff-Com: -0.110D+00 0.228D+00 0.409D+00 0.472D+00
 Coeff-En:   0.000D+00 0.000D+00 0.226D+00 0.774D+00
 Coeff:     -0.102D+00 0.212D+00 0.396D+00 0.494D+00
 Gap=     0.121 Goal=   None    Shift=    0.000
 RMSDP=2.07D-04 MaxDP=1.97D-02 DE=-1.39D-01 OVMax= 6.96D-02

 Cycle   5  Pass 1  IDiag  1:
 RMSU=  7.93D-05    CP:  9.64D-01  1.49D+00  6.87D-01  5.41D-01
 E= -4069.80991378648     Delta-E=       -0.047420618168 Rises=F Damp=F
 DIIS: error= 7.20D-04 at cycle   5 NSaved=   5.
 NSaved= 5 IEnMin= 5 EnMin= -4069.80991378648     IErMin= 5 ErrMin= 7.20D-04
 ErrMax= 7.20D-04  0.00D+00 EMaxC= 1.00D-01 BMatC= 1.32D-03 BMatP= 5.15D-02
 IDIUse=3 WtCom= 9.93D-01 WtEn= 7.20D-03
 Coeff-Com: -0.380D-01 0.748D-01 0.173D+00 0.256D+00 0.535D+00
 Coeff-En:   0.000D+00 0.000D+00 0.000D+00 0.000D+00 0.100D+01
 Coeff:     -0.377D-01 0.742D-01 0.171D+00 0.254D+00 0.538D+00
 Gap=     0.120 Goal=   None    Shift=    0.000
 RMSDP=4.52D-05 MaxDP=4.18D-03 DE=-4.74D-02 OVMax= 1.99D-02

 Cycle   6  Pass 1  IDiag  1:
 RMSU=  3.26D-05    CP:  9.64D-01  1.49D+00  6.78D-01  6.18D-01  7.24D-01
 E= -4069.81112195573     Delta-E=       -0.001208169255 Rises=F Damp=F
 DIIS: error= 1.90D-04 at cycle   6 NSaved=   6.
 NSaved= 6 IEnMin= 6 EnMin= -4069.81112195573     IErMin= 6 ErrMin= 1.90D-04
 ErrMax= 1.90D-04  0.00D+00 EMaxC= 1.00D-01 BMatC= 2.05D-04 BMatP= 1.32D-03
 IDIUse=3 WtCom= 9.98D-01 WtEn= 1.90D-03
 Coeff-Com:  0.183D-02-0.590D-02 0.134D-01 0.430D-01 0.306D+00 0.641D+00
 Coeff-En:   0.000D+00 0.000D+00 0.000D+00 0.000D+00 0.122D+00 0.878D+00
 Coeff:      0.183D-02-0.589D-02 0.133D-01 0.429D-01 0.306D+00 0.642D+00
 Gap=     0.121 Goal=   None    Shift=    0.000
 RMSDP=1.77D-05 MaxDP=1.26D-03 DE=-1.21D-03 OVMax= 8.23D-03

 Cycle   7  Pass 1  IDiag  1:
 RMSU=  1.15D-05    CP:  9.64D-01  1.49D+00  6.84D-01  6.16D-01  8.38D-01
                    CP:  7.34D-01
 E= -4069.81135221206     Delta-E=       -0.000230256330 Rises=F Damp=F
 DIIS: error= 1.03D-04 at cycle   7 NSaved=   7.
 NSaved= 7 IEnMin= 7 EnMin= -4069.81135221206     IErMin= 7 ErrMin= 1.03D-04
 ErrMax= 1.03D-04  0.00D+00 EMaxC= 1.00D-01 BMatC= 2.64D-05 BMatP= 2.05D-04
 IDIUse=3 WtCom= 9.99D-01 WtEn= 1.03D-03
 Coeff-Com:  0.461D-02-0.101D-01-0.882D-02-0.293D-02 0.109D+00 0.341D+00
 Coeff-Com:  0.567D+00
 Coeff-En:   0.000D+00 0.000D+00 0.000D+00 0.000D+00 0.000D+00 0.000D+00
 Coeff-En:   0.100D+01
 Coeff:      0.460D-02-0.101D-01-0.881D-02-0.293D-02 0.109D+00 0.340D+00
 Coeff:      0.568D+00
 Gap=     0.121 Goal=   None    Shift=    0.000
 RMSDP=6.85D-06 MaxDP=1.05D-03 DE=-2.30D-04 OVMax= 3.47D-03

 Cycle   8  Pass 1  IDiag  1:
 RMSU=  4.88D-06    CP:  9.64D-01  1.49D+00  6.85D-01  6.21D-01  8.38D-01
                    CP:  8.55D-01  8.09D-01
 E= -4069.81138463654     Delta-E=       -0.000032424483 Rises=F Damp=F
 DIIS: error= 5.78D-05 at cycle   8 NSaved=   8.
 NSaved= 8 IEnMin= 8 EnMin= -4069.81138463654     IErMin= 8 ErrMin= 5.78D-05
 ErrMax= 5.78D-05  0.00D+00 EMaxC= 1.00D-01 BMatC= 5.05D-06 BMatP= 2.64D-05
 IDIUse=1 WtCom= 1.00D+00 WtEn= 0.00D+00
 Coeff-Com:  0.223D-02-0.444D-02-0.788D-02-0.121D-01-0.835D-02 0.329D-01
 Coeff-Com:  0.318D+00 0.680D+00
 Coeff:      0.223D-02-0.444D-02-0.788D-02-0.121D-01-0.835D-02 0.329D-01
 Coeff:      0.318D+00 0.680D+00
 Gap=     0.121 Goal=   None    Shift=    0.000
 RMSDP=3.43D-06 MaxDP=3.99D-04 DE=-3.24D-05 OVMax= 1.13D-03

 Cycle   9  Pass 1  IDiag  1:
 RMSU=  1.99D-06    CP:  9.64D-01  1.49D+00  6.85D-01  6.23D-01  8.55D-01
                    CP:  8.83D-01  9.99D-01  9.73D-01
 E= -4069.81139280387     Delta-E=       -0.000008167328 Rises=F Damp=F
 DIIS: error= 2.06D-05 at cycle   9 NSaved=   9.
 NSaved= 9 IEnMin= 9 EnMin= -4069.81139280387     IErMin= 9 ErrMin= 2.06D-05
 ErrMax= 2.06D-05  0.00D+00 EMaxC= 1.00D-01 BMatC= 7.93D-07 BMatP= 5.05D-06
 IDIUse=1 WtCom= 1.00D+00 WtEn= 0.00D+00
 Coeff-Com:  0.492D-03-0.820D-03-0.277D-02-0.613D-02-0.200D-01-0.409D-01
 Coeff-Com:  0.932D-01 0.341D+00 0.636D+00
 Coeff:      0.492D-03-0.820D-03-0.277D-02-0.613D-02-0.200D-01-0.409D-01
 Coeff:      0.932D-01 0.341D+00 0.636D+00
 Gap=     0.121 Goal=   None    Shift=    0.000
 RMSDP=1.49D-06 MaxDP=1.46D-04 DE=-8.17D-06 OVMax= 7.78D-04

 Cycle  10  Pass 1  IDiag  1:
 RMSU=  9.82D-07    CP:  9.64D-01  1.49D+00  6.85D-01  6.23D-01  8.59D-01
                    CP:  8.95D-01  1.05D+00  1.14D+00  1.06D+00
 E= -4069.81139458431     Delta-E=       -0.000001780434 Rises=F Damp=F
 DIIS: error= 1.05D-05 at cycle  10 NSaved=  10.
 NSaved=10 IEnMin=10 EnMin= -4069.81139458431     IErMin=10 ErrMin= 1.05D-05
 ErrMax= 1.05D-05  0.00D+00 EMaxC= 1.00D-01 BMatC= 1.84D-07 BMatP= 7.93D-07
 IDIUse=1 WtCom= 1.00D+00 WtEn= 0.00D+00
 Coeff-Com: -0.428D-03 0.902D-03 0.121D-02 0.102D-02-0.370D-02-0.317D-01
 Coeff-Com: -0.430D-01-0.702D-01 0.235D+00 0.910D+00
 Coeff:     -0.428D-03 0.902D-03 0.121D-02 0.102D-02-0.370D-02-0.317D-01
 Coeff:     -0.430D-01-0.702D-01 0.235D+00 0.910D+00
 Gap=     0.121 Goal=   None    Shift=    0.000
 RMSDP=1.28D-06 MaxDP=1.24D-04 DE=-1.78D-06 OVMax= 6.58D-04

 Cycle  11  Pass 1  IDiag  1:
 RMSU=  5.59D-07    CP:  9.64D-01  1.49D+00  6.85D-01  6.24D-01  8.61D-01
                    CP:  9.05D-01  1.09D+00  1.25D+00  1.40D+00  1.36D+00
 E= -4069.81139544401     Delta-E=       -0.000000859698 Rises=F Damp=F
 DIIS: error= 4.43D-06 at cycle  11 NSaved=  11.
 NSaved=11 IEnMin=11 EnMin= -4069.81139544401     IErMin=11 ErrMin= 4.43D-06
 ErrMax= 4.43D-06  0.00D+00 EMaxC= 1.00D-01 BMatC= 7.66D-08 BMatP= 1.84D-07
 IDIUse=1 WtCom= 1.00D+00 WtEn= 0.00D+00
 Coeff-Com: -0.350D-03 0.683D-03 0.139D-02 0.215D-02 0.431D-02-0.921D-02
 Coeff-Com: -0.413D-01-0.133D+00-0.376D-01 0.503D+00 0.710D+00
 Coeff:     -0.350D-03 0.683D-03 0.139D-02 0.215D-02 0.431D-02-0.921D-02
 Coeff:     -0.413D-01-0.133D+00-0.376D-01 0.503D+00 0.710D+00
 Gap=     0.121 Goal=   None    Shift=    0.000
 RMSDP=7.31D-07 MaxDP=6.78D-05 DE=-8.60D-07 OVMax= 4.12D-04

 Cycle  12  Pass 1  IDiag  1:
 RMSU=  2.82D-07    CP:  9.64D-01  1.49D+00  6.85D-01  6.24D-01  8.62D-01
                    CP:  9.07D-01  1.11D+00  1.32D+00  1.56D+00  1.76D+00
                    CP:  1.17D+00
 E= -4069.81139574423     Delta-E=       -0.000000300228 Rises=F Damp=F
 DIIS: error= 2.84D-06 at cycle  12 NSaved=  12.
 NSaved=12 IEnMin=12 EnMin= -4069.81139574423     IErMin=12 ErrMin= 2.84D-06
 ErrMax= 2.84D-06  0.00D+00 EMaxC= 1.00D-01 BMatC= 1.86D-08 BMatP= 7.66D-08
 IDIUse=1 WtCom= 1.00D+00 WtEn= 0.00D+00
 Coeff-Com: -0.241D-04 0.298D-04 0.278D-03 0.652D-03 0.369D-02 0.342D-02
 Coeff-Com:  0.272D-03-0.414D-01-0.769D-01-0.303D-01 0.269D+00 0.871D+00
 Coeff:     -0.241D-04 0.298D-04 0.278D-03 0.652D-03 0.369D-02 0.342D-02
 Coeff:      0.272D-03-0.414D-01-0.769D-01-0.303D-01 0.269D+00 0.871D+00
 Gap=     0.121 Goal=   None    Shift=    0.000
 RMSDP=4.51D-07 MaxDP=3.27D-05 DE=-3.00D-07 OVMax= 2.62D-04

 Cycle  13  Pass 1  IDiag  1:
 RMSU=  1.75D-07    CP:  9.64D-01  1.49D+00  6.85D-01  6.24D-01  8.62D-01
                    CP:  9.07D-01  1.12D+00  1.35D+00  1.67D+00  1.98D+00
                    CP:  1.57D+00  1.22D+00
 E= -4069.81139584736     Delta-E=       -0.000000103129 Rises=F Damp=F
 DIIS: error= 1.42D-06 at cycle  13 NSaved=  13.
 NSaved=13 IEnMin=13 EnMin= -4069.81139584736     IErMin=13 ErrMin= 1.42D-06
 ErrMax= 1.42D-06  0.00D+00 EMaxC= 1.00D-01 BMatC= 9.75D-09 BMatP= 1.86D-08
 IDIUse=1 WtCom= 1.00D+00 WtEn= 0.00D+00
 Coeff-Com:  0.121D-03-0.248D-03-0.362D-03-0.435D-03 0.815D-03 0.498D-02
 Coeff-Com:  0.184D-01 0.230D-01-0.342D-01-0.236D+00-0.162D+00 0.569D+00
 Coeff-Com:  0.816D+00
 Coeff:      0.121D-03-0.248D-03-0.362D-03-0.435D-03 0.815D-03 0.498D-02
 Coeff:      0.184D-01 0.230D-01-0.342D-01-0.236D+00-0.162D+00 0.569D+00
 Coeff:      0.816D+00
 Gap=     0.121 Goal=   None    Shift=    0.000
 RMSDP=3.75D-07 MaxDP=2.64D-05 DE=-1.03D-07 OVMax= 2.32D-04

 Cycle  14  Pass 1  IDiag  1:
 RMSU=  8.16D-08    CP:  9.64D-01  1.49D+00  6.85D-01  6.24D-01  8.63D-01
                    CP:  9.08D-01  1.13D+00  1.37D+00  1.75D+00  2.18D+00
                    CP:  1.83D+00  1.74D+00  1.13D+00
 E= -4069.81139589178     Delta-E=       -0.000000044420 Rises=F Damp=F
 DIIS: error= 7.93D-07 at cycle  14 NSaved=  14.
 NSaved=14 IEnMin=14 EnMin= -4069.81139589178     IErMin=14 ErrMin= 7.93D-07
 ErrMax= 7.93D-07  0.00D+00 EMaxC= 1.00D-01 BMatC= 1.49D-09 BMatP= 9.75D-09
 IDIUse=1 WtCom= 1.00D+00 WtEn= 0.00D+00
 Coeff-Com:  0.707D-04-0.140D-03-0.260D-03-0.401D-03-0.418D-03 0.128D-02
 Coeff-Com:  0.103D-01 0.206D-01 0.473D-02-0.104D+00-0.148D+00 0.765D-01
 Coeff-Com:  0.415D+00 0.726D+00
 Coeff:      0.707D-04-0.140D-03-0.260D-03-0.401D-03-0.418D-03 0.128D-02
 Coeff:      0.103D-01 0.206D-01 0.473D-02-0.104D+00-0.148D+00 0.765D-01
 Coeff:      0.415D+00 0.726D+00
 Gap=     0.121 Goal=   None    Shift=    0.000
 RMSDP=1.18D-07 MaxDP=8.12D-06 DE=-4.44D-08 OVMax= 6.51D-05

 Cycle  15  Pass 1  IDiag  1:
 RMSU=  4.03D-08    CP:  9.64D-01  1.49D+00  6.85D-01  6.24D-01  8.63D-01
                    CP:  9.08D-01  1.13D+00  1.38D+00  1.77D+00  2.23D+00
                    CP:  1.94D+00  1.89D+00  1.37D+00  1.04D+00
 E= -4069.81139589686     Delta-E=       -0.000000005075 Rises=F Damp=F
 DIIS: error= 3.73D-07 at cycle  15 NSaved=  15.
 NSaved=15 IEnMin=15 EnMin= -4069.81139589686     IErMin=15 ErrMin= 3.73D-07
 ErrMax= 3.73D-07  0.00D+00 EMaxC= 1.00D-01 BMatC= 2.42D-10 BMatP= 1.49D-09
 IDIUse=1 WtCom= 1.00D+00 WtEn= 0.00D+00
 Coeff-Com:  0.769D-05-0.135D-04-0.413D-04-0.946D-04-0.299D-03-0.506D-03
 Coeff-Com:  0.129D-02 0.331D-02 0.890D-02-0.154D-02-0.314D-01-0.714D-01
 Coeff-Com:  0.399D-01 0.297D+00 0.755D+00
 Coeff:      0.769D-05-0.135D-04-0.413D-04-0.946D-04-0.299D-03-0.506D-03
 Coeff:      0.129D-02 0.331D-02 0.890D-02-0.154D-02-0.314D-01-0.714D-01
 Coeff:      0.399D-01 0.297D+00 0.755D+00
 Gap=     0.121 Goal=   None    Shift=    0.000
 RMSDP=3.89D-08 MaxDP=2.79D-06 DE=-5.07D-09 OVMax= 2.92D-05

 Cycle  16  Pass 1  IDiag  1:
 RMSU=  1.96D-08    CP:  9.64D-01  1.49D+00  6.85D-01  6.24D-01  8.63D-01
                    CP:  9.08D-01  1.13D+00  1.38D+00  1.78D+00  2.24D+00
                    CP:  1.97D+00  1.94D+00  1.45D+00  1.24D+00  1.14D+00
 E= -4069.81139589759     Delta-E=       -0.000000000731 Rises=F Damp=F
 DIIS: error= 2.05D-07 at cycle  16 NSaved=  16.
 NSaved=16 IEnMin=16 EnMin= -4069.81139589759     IErMin=16 ErrMin= 2.05D-07
 ErrMax= 2.05D-07  0.00D+00 EMaxC= 1.00D-01 BMatC= 9.74D-11 BMatP= 2.42D-10
 IDIUse=1 WtCom= 1.00D+00 WtEn= 0.00D+00
 Coeff-Com: -0.139D-04 0.282D-04 0.446D-04 0.484D-04-0.449D-04-0.633D-03
 Coeff-Com: -0.176D-02-0.408D-02 0.419D-02 0.245D-01 0.211D-01-0.622D-01
 Coeff-Com: -0.775D-01-0.410D-01 0.403D+00 0.735D+00
 Coeff:     -0.139D-04 0.282D-04 0.446D-04 0.484D-04-0.449D-04-0.633D-03
 Coeff:     -0.176D-02-0.408D-02 0.419D-02 0.245D-01 0.211D-01-0.622D-01
 Coeff:     -0.775D-01-0.410D-01 0.403D+00 0.735D+00
 Gap=     0.121 Goal=   None    Shift=    0.000
 RMSDP=2.46D-08 MaxDP=1.79D-06 DE=-7.31D-10 OVMax= 1.37D-05

 Cycle  17  Pass 1  IDiag  1:
 RMSU=  1.11D-08    CP:  9.64D-01  1.49D+00  6.85D-01  6.24D-01  8.63D-01
                    CP:  9.08D-01  1.13D+00  1.38D+00  1.78D+00  2.25D+00
                    CP:  1.98D+00  1.97D+00  1.50D+00  1.33D+00  1.43D+00
                    CP:  1.21D+00
 E= -4069.81139589800     Delta-E=       -0.000000000407 Rises=F Damp=F
 DIIS: error= 9.64D-08 at cycle  17 NSaved=  17.
 NSaved=17 IEnMin=17 EnMin= -4069.81139589800     IErMin=17 ErrMin= 9.64D-08
 ErrMax= 9.64D-08  0.00D+00 EMaxC= 1.00D-01 BMatC= 1.99D-11 BMatP= 9.74D-11
 IDIUse=1 WtCom= 1.00D+00 WtEn= 0.00D+00
 Coeff-Com: -0.791D-05 0.155D-04 0.305D-04 0.440D-04 0.761D-04-0.150D-03
 Coeff-Com: -0.932D-03-0.294D-02 0.274D-04 0.103D-01 0.183D-01-0.902D-02
 Coeff-Com: -0.365D-01-0.101D+00-0.114D-01 0.293D+00 0.841D+00
 Coeff:     -0.791D-05 0.155D-04 0.305D-04 0.440D-04 0.761D-04-0.150D-03
 Coeff:     -0.932D-03-0.294D-02 0.274D-04 0.103D-01 0.183D-01-0.902D-02
 Coeff:     -0.365D-01-0.101D+00-0.114D-01 0.293D+00 0.841D+00
 Gap=     0.121 Goal=   None    Shift=    0.000
 RMSDP=1.38D-08 MaxDP=1.11D-06 DE=-4.07D-10 OVMax= 1.00D-05

 Cycle  18  Pass 1  IDiag  1:
 RMSU=  5.55D-09    CP:  9.64D-01  1.49D+00  6.85D-01  6.24D-01  8.63D-01
                    CP:  9.08D-01  1.13D+00  1.38D+00  1.78D+00  2.25D+00
                    CP:  1.98D+00  1.98D+00  1.51D+00  1.40D+00  1.59D+00
                    CP:  1.61D+00  1.34D+00
 E= -4069.81139589802     Delta-E=       -0.000000000029 Rises=F Damp=F
 DIIS: error= 7.34D-08 at cycle  18 NSaved=  18.
 NSaved=18 IEnMin=18 EnMin= -4069.81139589802     IErMin=18 ErrMin= 7.34D-08
 ErrMax= 7.34D-08  0.00D+00 EMaxC= 1.00D-01 BMatC= 9.05D-12 BMatP= 1.99D-11
 IDIUse=1 WtCom= 1.00D+00 WtEn= 0.00D+00
 Coeff-Com:  0.621D-06-0.159D-05 0.749D-06 0.567D-05 0.672D-04 0.143D-03
 Coeff-Com:  0.202D-03-0.219D-03-0.118D-02-0.385D-02 0.225D-02 0.155D-01
 Coeff-Com:  0.117D-01-0.417D-01-0.145D+00-0.142D+00 0.433D+00 0.871D+00
 Coeff:      0.621D-06-0.159D-05 0.749D-06 0.567D-05 0.672D-04 0.143D-03
 Coeff:      0.202D-03-0.219D-03-0.118D-02-0.385D-02 0.225D-02 0.155D-01
 Coeff:      0.117D-01-0.417D-01-0.145D+00-0.142D+00 0.433D+00 0.871D+00
 Gap=     0.121 Goal=   None    Shift=    0.000
 RMSDP=1.09D-08 MaxDP=7.66D-07 DE=-2.91D-11 OVMax= 5.99D-06

 Cycle  19  Pass 1  IDiag  1:
 RMSU=  3.20D-09    CP:  9.64D-01  1.49D+00  6.85D-01  6.24D-01  8.63D-01
                    CP:  9.08D-01  1.13D+00  1.38D+00  1.78D+00  2.25D+00
                    CP:  1.99D+00  1.98D+00  1.52D+00  1.43D+00  1.73D+00
                    CP:  1.88D+00  1.85D+00  1.19D+00
 E= -4069.81139589787     Delta-E=        0.000000000153 Rises=F Damp=F
 DIIS: error= 2.63D-08 at cycle  19 NSaved=  19.
 NSaved=19 IEnMin=18 EnMin= -4069.81139589802     IErMin=19 ErrMin= 2.63D-08
 ErrMax= 2.63D-08  0.00D+00 EMaxC= 1.00D-01 BMatC= 2.45D-12 BMatP= 9.05D-12
 IDIUse=1 WtCom= 1.00D+00 WtEn= 0.00D+00
 Coeff-Com:  0.312D-05-0.634D-05-0.102D-04-0.120D-04 0.213D-04 0.139D-03
 Coeff-Com:  0.480D-03 0.843D-03-0.680D-03-0.641D-02-0.503D-02 0.129D-01
 Coeff-Com:  0.221D-01 0.929D-02-0.851D-01-0.204D+00-0.314D-02 0.522D+00
 Coeff-Com:  0.736D+00
 Coeff:      0.312D-05-0.634D-05-0.102D-04-0.120D-04 0.213D-04 0.139D-03
 Coeff:      0.480D-03 0.843D-03-0.680D-03-0.641D-02-0.503D-02 0.129D-01
 Coeff:      0.221D-01 0.929D-02-0.851D-01-0.204D+00-0.314D-02 0.522D+00
 Coeff:      0.736D+00
 Gap=     0.121 Goal=   None    Shift=    0.000
 RMSDP=5.96D-09 MaxDP=4.67D-07 DE= 1.53D-10 OVMax= 4.21D-06

 SCF Done:  E(RCAM-B3LYP) =  -4069.81139590     A.U. after   19 cycles
            NFock= 19  Conv=0.60D-08     -V/T= 2.0102
 KE= 4.028801834866D+03 PE=-3.938454419728D+04 EE= 1.633420337422D+04
 Leave Link  502 at Sat Sep  4 05:06:44 2021, MaxMem= 23488102400 cpu:           13597.2 elap:             590.9
 (Enter /sw/apps/gaussian-16.0/g16/l801.exe)
 DoSCS=F DFT=T ScalE2(SS,OS)=  1.000000  1.000000
 ExpMin= 3.36D-02 ExpMax= 4.95D+03 ExpMxC= 7.45D+02 IAcc=3 IRadAn=         5 AccDes= 0.00D+00
 HarFok:  IExCor=  205 AccDes= 0.00D+00 IRadAn=         5 IDoV=-2 UseB2=F ITyADJ=14
 ICtDFT= 12500011 ScaDFX=  1.000000  1.000000  1.000000  1.000000
 GSVD:  LWork=       -9588 too small for GESVD, short by       45590 words or       45590 for optimal perf.
 Largest valence mixing into a core orbital is  2.03D-04
 Largest core mixing into a valence orbital is  5.23D-05
 Range of M.O.s used for correlation:    95  1572
 NBasis=  1572 NAE=   312 NBE=   312 NFC=    94 NFV=     0
 NROrb=   1478 NOA=   218 NOB=   218 NVA=  1260 NVB=  1260
 Leave Link  801 at Sat Sep  4 05:06:45 2021, MaxMem= 23488102400 cpu:               7.8 elap:               0.4
 (Enter /sw/apps/gaussian-16.0/g16/l914.exe)
 RHF ground state
 Two-electron integrals replicated using symmetry.
 MDV= 23488102400 DFT=T DoStab=F Mixed=T DoRPA=T DoScal=F NonHer=T
 Making orbital integer symmetry assigments:
 Orbital symmetries:
       Occupied  (A) (A) (A) (A) (A) (A) (A) (A) (A) (A) (A) (A)
                 (A) (A) (A) (A) (A) (A) (A) (A) (A) (A) (A) (A)
                 (A) (A) (A) (A) (A) (A) (A) (A) (A) (A) (A) (A)
                 (A) (A) (A) (A) (A) (A) (A) (A) (A) (A) (A) (A)
                 (A) (A) (A) (A) (A) (A) (A) (A) (A) (A) (A) (A)
                 (A) (A) (A) (A) (A) (A) (A) (A) (A) (A) (A) (A)
                 (A) (A) (A) (A) (A) (A) (A) (A) (A) (A) (A) (A)
                 (A) (A) (A) (A) (A) (A) (A) (A) (A) (A) (A) (A)
                 (A) (A) (A) (A) (A) (A) (A) (A) (A) (A) (A) (A)
                 (A) (A) (A) (A) (A) (A) (A) (A) (A) (A) (A) (A)
                 (A) (A) (A) (A) (A) (A) (A) (A) (A) (A) (A) (A)
                 (A) (A) (A) (A) (A) (A) (A) (A) (A) (A) (A) (A)
                 (A) (A) (A) (A) (A) (A) (A) (A) (A) (A) (A) (A)
                 (A) (A) (A) (A) (A) (A) (A) (A) (A) (A) (A) (A)
                 (A) (A) (A) (A) (A) (A) (A) (A) (A) (A) (A) (A)
                 (A) (A) (A) (A) (A) (A) (A) (A) (A) (A) (A) (A)
                 (A) (A) (A) (A) (A) (A) (A) (A) (A) (A) (A) (A)
                 (A) (A) (A) (A) (A) (A) (A) (A) (A) (A) (A) (A)
                 (A) (A) (A) (A) (A) (A) (A) (A) (A) (A) (A) (A)
                 (A) (A) (A) (A) (A) (A) (A) (A) (A) (A) (A) (A)
                 (A) (A) (A) (A) (A) (A) (A) (A) (A) (A) (A) (A)
                 (A) (A) (A) (A) (A) (A) (A) (A) (A) (A) (A) (A)
                 (A) (A) (A) (A) (A) (A) (A) (A) (A) (A) (A) (A)
                 (A) (A) (A) (A) (A) (A) (A) (A) (A) (A) (A) (A)
                 (A) (A) (A) (A) (A) (A) (A) (A) (A) (A) (A) (A)
                 (A) (A) (A) (A) (A) (A) (A) (A) (A) (A) (A) (A)
       Virtual   (A) (A) (A) (A) (A) (A) (A) (A) (A) (A) (A) (A)
                 (A) (A) (A) (A) (A) (A) (A) (A) (A) (A) (A) (A)
                 (A) (A) (A) (A) (A) (A) (A) (A) (A) (A) (A) (A)
                 (A) (A) (A) (A) (A) (A) (A) (A) (A) (A) (A) (A)
                 (A) (A) (A) (A) (A) (A) (A) (A) (A) (A) (A) (A)
                 (A) (A) (A) (A) (A) (A) (A) (A) (A) (A) (A) (A)
                 (A) (A) (A) (A) (A) (A) (A) (A) (A) (A) (A) (A)
                 (A) (A) (A) (A) (A) (A) (A) (A) (A) (A) (A) (A)
                 (A) (A) (A) (A) (A) (A) (A) (A) (A) (A) (A) (A)
                 (A) (A) (A) (A) (A) (A) (A) (A) (A) (A) (A) (A)
                 (A) (A) (A) (A) (A) (A) (A) (A) (A) (A) (A) (A)
                 (A) (A) (A) (A) (A) (A) (A) (A) (A) (A) (A) (A)
                 (A) (A) (A) (A) (A) (A) (A) (A) (A) (A) (A) (A)
                 (A) (A) (A) (A) (A) (A) (A) (A) (A) (A) (A) (A)
                 (A) (A) (A) (A) (A) (A) (A) (A) (A) (A) (A) (A)
                 (A) (A) (A) (A) (A) (A) (A) (A) (A) (A) (A) (A)
                 (A) (A) (A) (A) (A) (A) (A) (A) (A) (A) (A) (A)
                 (A) (A) (A) (A) (A) (A) (A) (A) (A) (A) (A) (A)
                 (A) (A) (A) (A) (A) (A) (A) (A) (A) (A) (A) (A)
                 (A) (A) (A) (A) (A) (A) (A) (A) (A) (A) (A) (A)
                 (A) (A) (A) (A) (A) (A) (A) (A) (A) (A) (A) (A)
                 (A) (A) (A) (A) (A) (A) (A) (A) (A) (A) (A) (A)
                 (A) (A) (A) (A) (A) (A) (A) (A) (A) (A) (A) (A)
                 (A) (A) (A) (A) (A) (A) (A) (A) (A) (A) (A) (A)
                 (A) (A) (A) (A) (A) (A) (A) (A) (A) (A) (A) (A)
                 (A) (A) (A) (A) (A) (A) (A) (A) (A) (A) (A) (A)
                 (A) (A) (A) (A) (A) (A) (A) (A) (A) (A) (A) (A)
                 (A) (A) (A) (A) (A) (A) (A) (A) (A) (A) (A) (A)
                 (A) (A) (A) (A) (A) (A) (A) (A) (A) (A) (A) (A)
                 (A) (A) (A) (A) (A) (A) (A) (A) (A) (A) (A) (A)
                 (A) (A) (A) (A) (A) (A) (A) (A) (A) (A) (A) (A)
                 (A) (A) (A) (A) (A) (A) (A) (A) (A) (A) (A) (A)
                 (A) (A) (A) (A) (A) (A) (A) (A) (A) (A) (A) (A)
                 (A) (A) (A) (A) (A) (A) (A) (A) (A) (A) (A) (A)
                 (A) (A) (A) (A) (A) (A) (A) (A) (A) (A) (A) (A)
                 (A) (A) (A) (A) (A) (A) (A) (A) (A) (A) (A) (A)
                 (A) (A) (A) (A) (A) (A) (A) (A) (A) (A) (A) (A)
                 (A) (A) (A) (A) (A) (A) (A) (A) (A) (A) (A) (A)
                 (A) (A) (A) (A) (A) (A) (A) (A) (A) (A) (A) (A)
                 (A) (A) (A) (A) (A) (A) (A) (A) (A) (A) (A) (A)
                 (A) (A) (A) (A) (A) (A) (A) (A) (A) (A) (A) (A)
                 (A) (A) (A) (A) (A) (A) (A) (A) (A) (A) (A) (A)
                 (A) (A) (A) (A) (A) (A) (A) (A) (A) (A) (A) (A)
                 (A) (A) (A) (A) (A) (A) (A) (A) (A) (A) (A) (A)
                 (A) (A) (A) (A) (A) (A) (A) (A) (A) (A) (A) (A)
                 (A) (A) (A) (A) (A) (A) (A) (A) (A) (A) (A) (A)
                 (A) (A) (A) (A) (A) (A) (A) (A) (A) (A) (A) (A)
                 (A) (A) (A) (A) (A) (A) (A) (A) (A) (A) (A) (A)
                 (A) (A) (A) (A) (A) (A) (A) (A) (A) (A) (A) (A)
                 (A) (A) (A) (A) (A) (A) (A) (A) (A) (A) (A) (A)
                 (A) (A) (A) (A) (A) (A) (A) (A) (A) (A) (A) (A)
                 (A) (A) (A) (A) (A) (A) (A) (A) (A) (A) (A) (A)
                 (A) (A) (A) (A) (A) (A) (A) (A) (A) (A) (A) (A)
                 (A) (A) (A) (A) (A) (A) (A) (A) (A) (A) (A) (A)
                 (A) (A) (A) (A) (A) (A) (A) (A) (A) (A) (A) (A)
                 (A) (A) (A) (A) (A) (A) (A) (A) (A) (A) (A) (A)
                 (A) (A) (A) (A) (A) (A) (A) (A) (A) (A) (A) (A)
                 (A) (A) (A) (A) (A) (A) (A) (A) (A) (A) (A) (A)
                 (A) (A) (A) (A) (A) (A) (A) (A) (A) (A) (A) (A)
                 (A) (A) (A) (A) (A) (A) (A) (A) (A) (A) (A) (A)
                 (A) (A) (A) (A) (A) (A) (A) (A) (A) (A) (A) (A)
                 (A) (A) (A) (A) (A) (A) (A) (A) (A) (A) (A) (A)
                 (A) (A) (A) (A) (A) (A) (A) (A) (A) (A) (A) (A)
                 (A) (A) (A) (A) (A) (A) (A) (A) (A) (A) (A) (A)
                 (A) (A) (A) (A) (A) (A) (A) (A) (A) (A) (A) (A)
                 (A) (A) (A) (A) (A) (A) (A) (A) (A) (A) (A) (A)
                 (A) (A) (A) (A) (A) (A) (A) (A) (A) (A) (A) (A)
                 (A) (A) (A) (A) (A) (A) (A) (A) (A) (A) (A) (A)
                 (A) (A) (A) (A) (A) (A) (A) (A) (A) (A) (A) (A)
                 (A) (A) (A) (A) (A) (A) (A) (A) (A) (A) (A) (A)
                 (A) (A) (A) (A) (A) (A) (A) (A) (A) (A) (A) (A)
                 (A) (A) (A) (A) (A) (A) (A) (A) (A) (A) (A) (A)
                 (A) (A) (A) (A) (A) (A) (A) (A) (A) (A) (A) (A)
                 (A) (A) (A) (A) (A) (A) (A) (A) (A) (A) (A) (A)
                 (A) (A) (A) (A) (A) (A) (A) (A) (A) (A) (A) (A)
                 (A) (A) (A) (A) (A) (A) (A) (A) (A) (A) (A) (A)
                 (A) (A) (A) (A) (A) (A) (A) (A) (A) (A) (A) (A)
                 (A) (A) (A) (A) (A) (A) (A) (A) (A) (A) (A) (A)
                 (A) (A) (A) (A) (A) (A) (A) (A) (A) (A) (A) (A)
                 (A) (A) (A) (A) (A) (A) (A) (A) (A) (A) (A) (A)
                 (A) (A) (A) (A) (A) (A) (A) (A) (A) (A) (A) (A)
                 (A) (A) (A) (A) (A) (A) (A) (A) (A) (A) (A) (A)
                 (A) (A) (A) (A) (A) (A) (A) (A) (A) (A) (A) (A)
                 (A) (A) (A) (A) (A) (A) (A) (A) (A) (A) (A) (A)
                 (A) (A) (A) (A) (A) (A) (A) (A) (A) (A) (A) (A)
                 (A) (A) (A) (A) (A) (A) (A) (A) (A) (A) (A) (A)
                 (A) (A) (A) (A) (A) (A) (A) (A) (A) (A) (A) (A)
                 (A) (A) (A) (A) (A) (A) (A) (A) (A) (A) (A) (A)
                 (A) (A) (A) (A) (A) (A) (A) (A) (A) (A) (A) (A)
                 (A) (A) (A) (A) (A) (A) (A) (A) (A) (A) (A) (A)
                 (A) (A) (A) (A) (A) (A) (A) (A) (A) (A) (A) (A)
                 (A) (A) (A) (A) (A) (A) (A) (A) (A) (A) (A) (A)
                 (A) (A) (A) (A) (A) (A) (A) (A) (A) (A) (A) (A)
                 (A) (A) (A) (A) (A) (A) (A) (A) (A) (A) (A) (A)
                 (A) (A) (A) (A) (A) (A) (A) (A) (A) (A) (A) (A)
                 (A) (A) (A) (A) (A) (A) (A) (A) (A) (A) (A) (A)
                 (A) (A) (A) (A) (A) (A) (A) (A) (A) (A) (A) (A)
                 (A) (A) (A) (A) (A) (A) (A) (A) (A) (A) (A) (A)
                 (A) (A) (A) (A) (A) (A) (A) (A) (A) (A) (A) (A)
                 (A) (A) (A) (A) (A) (A) (A) (A) (A) (A) (A) (A)
                 (A) (A) (A) (A) (A) (A) (A) (A) (A) (A) (A) (A)
                 (A) (A) (A) (A) (A) (A) (A) (A) (A) (A) (A) (A)
                 (A) (A) (A) (A) (A) (A) (A) (A) (A) (A) (A) (A)
                 (A) (A) (A) (A) (A) (A) (A) (A) (A) (A) (A) (A)
                 (A) (A) (A) (A) (A) (A) (A) (A) (A) (A) (A) (A)
    20 initial guesses have been made.
 Convergence on wavefunction:    0.001000000000000
 Davidson Disk Diagonalization:  ConvIn= 1.00D-03 SkipCon=T Conv= 1.00D-03.
 Max sub-space:  2000 roots to seek:    20 dimension of matrix:       549360
 Iteration     1 Dimension    20 NMult     0 NNew     20
 CISAX will form    20 AO SS matrices at one time.
 NMat=    20 NSing=    20 JSym2X= 0.
 FoFJK:  IHMeth= 1 ICntrl=       0 DoSepK=T KAlg= 0 I1Cent=           0 FoldK=F
 IRaf=         1 NMat=      40 IRICut=       1 DoRegI=T DoRafI=F ISym2E= 0 IDoP0=3 IntGTp=3.
 FoFCou: FMM=T IPFlag=           0 FMFlag=      100000 FMFlg1=        2001
         NFxFlg=           0 DoJE=F BraDBF=F KetDBF=F FulRan=T
         wScrn=  0.000000 ICntrl=       500 IOpCl=  0 I1Cent=           0 NGrid=           0
         NMat0=   20 NMatS0=     20 NMatT0=    0 NMatD0=   20 NMtDS0=    0 NMtDT0=    0
 Symmetry not used in FoFCou.
 FMM levels:  10  Number of levels for PrismC:   9
 New state      2 was old state      7
 New state      3 was old state      6
 New state      5 was old state      2
 Excitation Energies [eV] at current iteration:
 Root      1 :     2.485424017844228
 Root      2 :     2.607729950179723
 Root      3 :     2.620598242342714
 Root      4 :     2.623177616230841
 Root      5 :     2.642308035717318
 Root      6 :     2.732200031141103
 Root      7 :     3.271614368614341
 Root      8 :     3.420341843844785
 Root      9 :     3.620545141043642
 Root     10 :     3.666015322026416
 Root     11 :     3.740267422324747
 Root     12 :     3.761192192770536
 Root     13 :     4.268406851512305
 Root     14 :     4.340066579666257
 Root     15 :     4.389789659213745
 Root     16 :     4.553276085036881
 Root     17 :     4.701793426441276
 Root     18 :     4.743512531666037
 Root     19 :     4.847102987901626
 Root     20 :     4.863017657059009
 Iteration     2 Dimension    30 NMult    20 NNew     10
 CISAX will form    10 AO SS matrices at one time.
 NMat=    10 NSing=    10 JSym2X= 0.
 New state      1 was old state      5
 Root      1 not converged, maximum delta is    0.237692736576039
 New state      2 was old state      3
 Root      2 not converged, maximum delta is    0.451623066515854
 New state      3 was old state      2
 Root      3 not converged, maximum delta is    0.438454301616814
 New state      4 was old state      1
 Root      4 not converged, maximum delta is    0.002149815943128
 New state      5 was old state      4
 Root      5 not converged, maximum delta is    0.004092053287961
 Excitation Energies [eV] at current iteration:
 Root      1 :     1.781244151237144   Change is   -0.861063884480174
 Root      2 :     2.230807589217475   Change is   -0.389790653125239
 Root      3 :     2.238513124646162   Change is   -0.369216825533561
 Root      4 :     2.485009678691859   Change is   -0.000414339152368
 Root      5 :     2.622643321307153   Change is   -0.000534294923688
 Iteration     3 Dimension    40 NMult    30 NNew     10
 CISAX will form    10 AO SS matrices at one time.
 NMat=    10 NSing=    10 JSym2X= 0.
 Root      1 not converged, maximum delta is    0.053710823907816
 New state      2 was old state      3
 Root      2 not converged, maximum delta is    0.474721665279390
 New state      3 was old state      2
 Root      3 not converged, maximum delta is    0.198383322605890
 No map to state      4
 New state      5 was old state      4
 Root      5 has converged.
 Excitation Energies [eV] at current iteration:
 Root      1 :     1.675875312584500   Change is   -0.105368838652645
 Root      2 :     2.021480284835298   Change is   -0.217032839810865
 Root      3 :     2.192948923783147   Change is   -0.037858665434329
 Root      4 :     2.220802772459762
 Root      5 :     2.485007192983404   Change is   -0.000002485708456
 Iteration     4 Dimension    48 NMult    40 NNew      8
 CISAX will form     8 AO SS matrices at one time.
 NMat=     8 NSing=     8 JSym2X= 0.
 Root      1 not converged, maximum delta is    0.010430230286965
 Root      2 not converged, maximum delta is    0.138038364167004
 Root      3 not converged, maximum delta is    0.163177669459660
 Root      4 not converged, maximum delta is    0.143312067183325
 Root      5 has converged.
 Excitation Energies [eV] at current iteration:
 Root      1 :     1.659275074126858   Change is   -0.016600238457641
 Root      2 :     1.722123130475053   Change is   -0.299357154360245
 Root      3 :     2.184349349640320   Change is   -0.008599574142826
 Root      4 :     2.195539029287142   Change is   -0.025263743172621
 Root      5 :     2.485007185701824   Change is   -0.000000007281580
 Iteration     5 Dimension    56 NMult    48 NNew      8
 CISAX will form     8 AO SS matrices at one time.
 NMat=     8 NSing=     8 JSym2X= 0.
 Root      1 not converged, maximum delta is    0.001608371775733
 Root      2 not converged, maximum delta is    0.013678367983172
 Root      3 not converged, maximum delta is    0.013347783861936
 Root      4 not converged, maximum delta is    0.013292942990223
 Root      5 has converged.
 Excitation Energies [eV] at current iteration:
 Root      1 :     1.657555686904305   Change is   -0.001719387222553
 Root      2 :     1.701156322785009   Change is   -0.020966807690044
 Root      3 :     2.183427920439263   Change is   -0.000921429201058
 Root      4 :     2.194245815771945   Change is   -0.001293213515197
 Root      5 :     2.485007183101891   Change is   -0.000000002599933
 Iteration     6 Dimension    64 NMult    56 NNew      8
 CISAX will form     8 AO SS matrices at one time.
 NMat=     8 NSing=     8 JSym2X= 0.
 Root      1 has converged.
 Root      2 not converged, maximum delta is    0.007525910546180
 Root      3 not converged, maximum delta is    0.002182554176753
 Root      4 not converged, maximum delta is    0.002199154726623
 Root      5 has converged.
 Excitation Energies [eV] at current iteration:
 Root      1 :     1.657311518821066   Change is   -0.000244168083240
 Root      2 :     1.696712150067882   Change is   -0.004444172717127
 Root      3 :     2.183286462361227   Change is   -0.000141458078035
 Root      4 :     2.194053568340065   Change is   -0.000192247431879
 Root      5 :     2.485007181217971   Change is   -0.000000001883920
 Iteration     7 Dimension    70 NMult    64 NNew      6
 CISAX will form     6 AO SS matrices at one time.
 NMat=     6 NSing=     6 JSym2X= 0.
 Root      1 has converged.
 Root      2 not converged, maximum delta is    0.001279199604389
 Root      3 has converged.
 Root      4 has converged.
 Root      5 has converged.
 Excitation Energies [eV] at current iteration:
[...]
 Alpha virt. eigenvalues --    1.83617   1.83718   1.83977   1.83993   1.84291
 Alpha virt. eigenvalues --    1.84416   1.84625   1.84763   1.84892   1.85069
 Alpha virt. eigenvalues --    1.85213   1.85233   1.85418   1.85430   1.85591
 Alpha virt. eigenvalues --    1.85826   1.86007   1.86315   1.86477   1.86512
 Alpha virt. eigenvalues --    1.86746   1.86751   1.86914   1.87021   1.87139
 Alpha virt. eigenvalues --    1.87402   1.87587   1.87655   1.87826   1.87869
 Alpha virt. eigenvalues --    1.87997   1.88115   1.88274   1.88487   1.88665
 Alpha virt. eigenvalues --    1.88776   1.89040   1.89091   1.89169   1.89575
 Alpha virt. eigenvalues --    1.89694   1.89757   1.89979   1.90079   1.90293
 Alpha virt. eigenvalues --    1.90722   1.90997   1.91312   1.91413   1.91518
 Alpha virt. eigenvalues --    1.91692   1.92116   1.92290   1.92571   1.92744
 Alpha virt. eigenvalues --    1.92944   1.93258   1.93301   1.93605   1.94244
 Alpha virt. eigenvalues --    1.94400   1.94647   1.94915   1.95443   1.95685
 Alpha virt. eigenvalues --    1.95692   1.95911   1.95958   1.96111   1.96142
 Alpha virt. eigenvalues --    1.96281   1.96560   1.96585   1.96850   1.97027
 Alpha virt. eigenvalues --    1.97416   1.97632   1.97799   1.97908   1.98129
 Alpha virt. eigenvalues --    1.98273   1.98449   1.98666   1.99104   1.99175
 Alpha virt. eigenvalues --    1.99778   2.00021   2.00620   2.00832   2.00963
 Alpha virt. eigenvalues --    2.01203   2.01436   2.01606   2.01636   2.01691
 Alpha virt. eigenvalues --    2.01701   2.01920   2.02744   2.02809   2.03197
 Alpha virt. eigenvalues --    2.03236   2.03373   2.03449   2.03480   2.03632
 Alpha virt. eigenvalues --    2.04002   2.04126   2.04911   2.05079   2.05470
 Alpha virt. eigenvalues --    2.05728   2.06038   2.06387   2.06882   2.07144
 Alpha virt. eigenvalues --    2.07156   2.07472   2.08537   2.08643   2.08933
 Alpha virt. eigenvalues --    2.09107   2.09544   2.09715   2.10742   2.11132
 Alpha virt. eigenvalues --    2.11145   2.11486   2.11515   2.11622   2.11678
 Alpha virt. eigenvalues --    2.11963   2.12420   2.12557   2.12758   2.12794
 Alpha virt. eigenvalues --    2.12899   2.12980   2.13705   2.13719   2.14109
 Alpha virt. eigenvalues --    2.14357   2.15293   2.15505   2.15893   2.16191
 Alpha virt. eigenvalues --    2.16481   2.16692   2.16722   2.17308   2.17381
 Alpha virt. eigenvalues --    2.17670   2.17747   2.18038   2.18040   2.18107
 Alpha virt. eigenvalues --    2.18296   2.18775   2.18831   2.19338   2.19598
 Alpha virt. eigenvalues --    2.19919   2.19985   2.20184   2.20355   2.20529
 Alpha virt. eigenvalues --    2.21111   2.21264   2.21630   2.21721   2.21879
 Alpha virt. eigenvalues --    2.21986   2.22634   2.22800   2.23282   2.23457
 Alpha virt. eigenvalues --    2.24351   2.24519   2.24919   2.25095   2.26264
 Alpha virt. eigenvalues --    2.26549   2.26741   2.27069   2.27108   2.27313
 Alpha virt. eigenvalues --    2.28091   2.28411   2.29222   2.29538   2.29691
 Alpha virt. eigenvalues --    2.29990   2.30406   2.30718   2.30907   2.31044
 Alpha virt. eigenvalues --    2.31169   2.31306   2.32079   2.32340   2.33091
 Alpha virt. eigenvalues --    2.33332   2.33421   2.33585   2.34100   2.34231
 Alpha virt. eigenvalues --    2.35351   2.35405   2.35746   2.36006   2.36314
 Alpha virt. eigenvalues --    2.36438   2.36542   2.36578   2.37623   2.37782
 Alpha virt. eigenvalues --    2.38207   2.38473   2.38800   2.38858   2.39564
 Alpha virt. eigenvalues --    2.39771   2.40141   2.40356   2.40435   2.40913
 Alpha virt. eigenvalues --    2.41212   2.41290   2.41640   2.41784   2.42012
 Alpha virt. eigenvalues --    2.42239   2.42897   2.42905   2.43138   2.43545
 Alpha virt. eigenvalues --    2.44057   2.44139   2.44683   2.44860   2.44902
 Alpha virt. eigenvalues --    2.45093   2.45508   2.45678   2.46249   2.46379
 Alpha virt. eigenvalues --    2.46439   2.46608   2.46758   2.46911   2.47226
 Alpha virt. eigenvalues --    2.47487   2.47673   2.47982   2.49264   2.49474
 Alpha virt. eigenvalues --    2.49977   2.50020   2.50496   2.50533   2.51075
 Alpha virt. eigenvalues --    2.51368   2.51694   2.51834   2.52387   2.52461
 Alpha virt. eigenvalues --    2.52760   2.53251   2.53873   2.54053   2.54095
 Alpha virt. eigenvalues --    2.54366   2.54754   2.54917   2.55475   2.55769
 Alpha virt. eigenvalues --    2.57812   2.58167   2.58601   2.58990   2.60169
 Alpha virt. eigenvalues --    2.60398   2.60555   2.60997   2.61659   2.61907
 Alpha virt. eigenvalues --    2.62479   2.62509   2.62914   2.63223   2.63881
 Alpha virt. eigenvalues --    2.64206   2.64301   2.64500   2.65035   2.65183
 Alpha virt. eigenvalues --    2.65726   2.65930   2.66731   2.66857   2.66898
 Alpha virt. eigenvalues --    2.67137   2.67864   2.68064   2.68807   2.68895
 Alpha virt. eigenvalues --    2.68986   2.69114   2.69343   2.69672   2.69951
 Alpha virt. eigenvalues --    2.70222   2.70941   2.71143   2.71971   2.72025
 Alpha virt. eigenvalues --    2.72578   2.72618   2.72816   2.72829   2.73231
 Alpha virt. eigenvalues --    2.73362   2.73534   2.73549   2.74475   2.74602
 Alpha virt. eigenvalues --    2.74936   2.75145   2.76549   2.76606   2.77174
 Alpha virt. eigenvalues --    2.77198   2.77406   2.77680   2.78138   2.78369
 Alpha virt. eigenvalues --    2.78695   2.78769   2.79091   2.79231   2.80297
 Alpha virt. eigenvalues --    2.80326   2.80557   2.80765   2.81089   2.81251
 Alpha virt. eigenvalues --    2.81890   2.82084   2.82301   2.82423   2.83700
 Alpha virt. eigenvalues --    2.83735   2.83921   2.84009   2.84505   2.84620
 Alpha virt. eigenvalues --    2.84842   2.84971   2.85615   2.85760   2.86732
 Alpha virt. eigenvalues --    2.86967   2.87242   2.87599   2.88098   2.88310
 Alpha virt. eigenvalues --    2.88470   2.88711   2.88894   2.88965   2.90444
 Alpha virt. eigenvalues --    2.90720   2.91143   2.91152   2.93104   2.93398
 Alpha virt. eigenvalues --    2.93844   2.94151   2.94508   2.94639   2.95305
 Alpha virt. eigenvalues --    2.95520   2.95902   2.96194   2.96403   2.96434
 Alpha virt. eigenvalues --    2.96936   2.97158   2.97774   2.98085   2.98149
 Alpha virt. eigenvalues --    2.98332   2.98419   2.98569   2.98647   2.98838
 Alpha virt. eigenvalues --    2.98896   2.99025   2.99527   2.99851   2.99993
 Alpha virt. eigenvalues --    3.00089   3.00184   3.00393   3.00420   3.01056
 Alpha virt. eigenvalues --    3.01947   3.01964   3.01981   3.02172   3.02719
 Alpha virt. eigenvalues --    3.02877   3.02936   3.03269   3.03369   3.03776
 Alpha virt. eigenvalues --    3.04108   3.04138   3.04419   3.04484   3.04506
 Alpha virt. eigenvalues --    3.04849   3.05253   3.05411   3.06062   3.06225
 Alpha virt. eigenvalues --    3.06744   3.06997   3.07973   3.08086   3.09339
 Alpha virt. eigenvalues --    3.09419   3.09632   3.10386   3.10464   3.10802
 Alpha virt. eigenvalues --    3.11296   3.11537   3.11894   3.11952   3.12136
 Alpha virt. eigenvalues --    3.12359   3.13226   3.13594   3.13712   3.13760
 Alpha virt. eigenvalues --    3.14089   3.14549   3.15876   3.16040   3.17231
 Alpha virt. eigenvalues --    3.17620   3.17945   3.18028   3.19080   3.19111
 Alpha virt. eigenvalues --    3.22307   3.22677   3.23909   3.24539   3.24661
 Alpha virt. eigenvalues --    3.25299   3.26466   3.26749   3.27483   3.27582
 Alpha virt. eigenvalues --    3.29107   3.29302   3.31467   3.31488   3.33271
 Alpha virt. eigenvalues --    3.33375   3.40327   3.40649   3.42768   3.42889
 Alpha virt. eigenvalues --    3.48635   3.48803   3.49977   3.50365   3.50920
 Alpha virt. eigenvalues --    3.51431   3.56511   3.57092   3.59060   3.59425
 Alpha virt. eigenvalues --    3.62612   3.62807   3.66140   3.66181   3.67196
 Alpha virt. eigenvalues --    3.67617   3.73277   3.74116   3.76058   3.76783
          Condensed to atoms (all electrons):
 Mulliken charges:
               1
     1  Mg   0.838537
     2  C   -0.002976
     3  C   -0.094763
     4  C   -0.045661
     5  C   -0.063946
     6  N   -0.256732
     7  C   -0.052586
     8  C   -0.013868
     9  C   -0.086884
    10  C    0.046092
    11  C    0.104807
    12  C    0.053717
    13  C   -0.071688
    14  H    0.035930
    15  N   -0.433101
    16  C    0.168152
    17  C   -0.177680
    18  C   -0.004152
    19  C    0.148671
    20  C    0.110296
    21  C    0.012278
    22  O   -0.249131
    23  C    0.062670
    24  N   -0.341099
    25  C    0.041162
    26  C   -0.028279
    27  C   -0.024003
    28  C    0.074909
    29  C    0.076094
    30  C    0.035098
    31  C   -0.004479
    32  N   -0.310563
    33  C    0.080569
    34  C   -0.169566
    35  C    0.008669
    36  C    0.083105
    37  C    0.127244
    38  C    0.046458
    39  O   -0.187501
    40  C   -0.005444
    41  C    0.213089
    42  O   -0.256851
    43  O   -0.304963
    44  C    0.157185
    45  H   -0.017767
    46  H   -0.016614
    47  H   -0.041363
    48  H    0.001306
    49  H   -0.004542
    50  H    0.025703
    51  H    0.016548
    52  H    0.016628
    53  H    0.010028
    54  H    0.044195
    55  H    0.018431
    56  H    0.017236
    57  H    0.005644
    58  H    0.027002
    59  H    0.038234
    60  H    0.037395
    61  H    0.035798
    62  H    0.030280
    63  H    0.016833
    64  H    0.009636
    65  H    0.023447
    66  H    0.012549
    67  H    0.004844
    68  H    0.006617
    69  H    0.004629
    70  H    0.009389
    71  H    0.017189
    72  H    0.029090
    73  H    0.048007
    74  H    0.009027
    75  H    0.046260
    76  H    0.035278
    77  H    0.043582
    78  H    0.045815
    79  H    0.054850
    80  Mg   0.838116
    81  C   -0.016355
    82  C   -0.088020
    83  C   -0.045380
    84  C   -0.064392
    85  N   -0.254484
    86  C   -0.049126
    87  C   -0.015108
    88  C   -0.090719
    89  C    0.045933
    90  C    0.114271
    91  C    0.062644
    92  C   -0.077462
    93  H    0.034417
    94  N   -0.423415
    95  C    0.162782
    96  C   -0.175113
    97  C   -0.007911
    98  C    0.151856
    99  C    0.099618
   100  C    0.015474
   101  O   -0.253382
   102  C    0.061311
   103  N   -0.349911
   104  C    0.037381
   105  C   -0.019747
   106  C   -0.034851
   107  C    0.089081
   108  C    0.073782
   109  C    0.034770
   110  C   -0.007584
   111  N   -0.324442
   112  C    0.078931
   113  C   -0.162113
   114  C    0.003334
   115  C    0.096277
   116  C    0.130975
   117  C    0.043756
   118  O   -0.187115
   119  C    0.000303
   120  C    0.210986
   121  O   -0.251447
   122  O   -0.305359
   123  C    0.152207
   124  H   -0.020949
   125  H   -0.015800
   126  H   -0.040318
   127  H   -0.000362
   128  H   -0.005389
   129  H    0.025095
   130  H    0.014474
   131  H    0.013994
   132  H    0.013688
   133  H    0.037720
   134  H    0.020399
   135  H    0.019007
   136  H    0.007818
   137  H    0.025414
   138  H    0.039243
   139  H    0.037990
   140  H    0.036077
   141  H    0.033532
   142  H    0.014050
   143  H    0.012423
   144  H    0.024623
   145  H    0.012351
   146  H    0.005000
   147  H    0.005811
   148  H    0.003671
   149  H    0.010743
   150  H    0.017681
   151  H    0.030263
   152  H    0.045678
   153  H    0.007898
   154  H    0.050021
   155  H    0.037396
   156  H    0.043696
   157  H    0.048924
   158  H    0.053365
 Sum of Mulliken charges =  -0.00000
 Mulliken charges with hydrogens summed into heavy atoms:
               1
     1  Mg   0.838537
     2  C   -0.002976
     3  C   -0.112530
     4  C   -0.062275
     5  C   -0.105310
     6  N   -0.256732
     7  C   -0.052586
     8  C   -0.012562
     9  C   -0.091427
    10  C    0.046092
    11  C    0.163685
    12  C    0.107941
    13  C   -0.000091
    15  N   -0.433101
    16  C    0.168152
    17  C   -0.177680
    18  C   -0.004152
    19  C    0.148671
    20  C    0.181176
    21  C    0.012278
    22  O   -0.249131
    23  C    0.166143
    24  N   -0.341099
    25  C    0.041162
    26  C   -0.011447
    27  C   -0.014367
    28  C    0.074909
    29  C    0.116933
    30  C    0.046344
    31  C    0.051189
    32  N   -0.310563
    33  C    0.080569
    34  C   -0.169566
    35  C    0.008669
    36  C    0.083105
    37  C    0.230538
    38  C    0.046458
    39  O   -0.187501
    40  C    0.029833
    41  C    0.213089
    42  O   -0.256851
    43  O   -0.304963
    44  C    0.301433
    80  Mg   0.838116
    81  C   -0.016355
    82  C   -0.108969
    83  C   -0.061180
    84  C   -0.104710
    85  N   -0.254484
    86  C   -0.049126
    87  C   -0.015469
    88  C   -0.096107
    89  C    0.045933
    90  C    0.167834
    91  C    0.114052
    92  C   -0.003638
    94  N   -0.423415
    95  C    0.162782
    96  C   -0.175113
    97  C   -0.007911
    98  C    0.151856
    99  C    0.172094
   100  C    0.015474
   101  O   -0.253382
   102  C    0.168910
   103  N   -0.349911
   104  C    0.037381
   105  C   -0.005696
   106  C   -0.022428
   107  C    0.089081
   108  C    0.115756
   109  C    0.044252
   110  C    0.051104
   111  N   -0.324442
   112  C    0.078931
   113  C   -0.162113
   114  C    0.003334
   115  C    0.096277
   116  C    0.234571
   117  C    0.043756
   118  O   -0.187115
   119  C    0.037699
   120  C    0.210986
   121  O   -0.251447
   122  O   -0.305359
   123  C    0.298193
 Electronic spatial extent (au):  <R**2>=         114655.6387
 Charge=             -0.0000 electrons
 Dipole moment (field-independent basis, Debye):
    X=             -4.0391    Y=             -2.0857    Z=             -7.4001  Tot=              8.6848
 Quadrupole moment (field-independent basis, Debye-Ang):
   XX=           -518.3678   YY=           -549.6881   ZZ=           -449.5851
   XY=             -9.6510   XZ=              0.4202   YZ=            -46.6697
 Traceless Quadrupole moment (field-independent basis, Debye-Ang):
   XX=            -12.4875   YY=            -43.8077   ZZ=             56.2952
   XY=             -9.6510   XZ=              0.4202   YZ=            -46.6697
 Octapole moment (field-independent basis, Debye-Ang**2):
  XXX=           -346.1533  YYY=            404.6336  ZZZ=            -86.6296  XYY=            -45.8889
  XXY=            -56.2974  XXZ=           -216.1552  XZZ=             50.3471  YZZ=           -204.6648
  YYZ=           -201.0867  XYZ=             62.6546
 Hexadecapole moment (field-independent basis, Debye-Ang**3):
 XXXX=         -90633.6349 YYYY=         -42530.4184 ZZZZ=         -24128.4083 XXXY=           -665.6815
 XXXZ=           -159.2918 YYYX=            495.6278 YYYZ=          -1439.1422 ZZZX=            540.0562
 ZZZY=            142.3352 XXYY=         -22937.1157 XXZZ=         -17321.3959 YYZZ=         -10927.5083
 XXYZ=          -1349.8725 YYXZ=           -729.6665 ZZXY=            164.1124
 N-N= 1.495172759230D+04 E-N=-3.938454419044D+04  KE= 4.028801834866D+03
 Leave Link  601 at Sat Sep  4 05:31:33 2021, MaxMem= 23488102400 cpu:              13.5 elap:               0.7
 (Enter /sw/apps/gaussian-16.0/g16/l9999.exe)
 1\1\GINC-BP1-COMPUTE00089\SP\RCAM-B3LYP TD-FC\def2SVP\C68H72Mg2N8O8\OF
 15641\04-Sep-2021\0\\#p cam-b3lyp/Def2SVP td=(nstates=5)\\TDDFT excite
 d states in gaussian\\0,1\Mg,0,0.,0.,0.\C,0,-0.217,-2.218,2.801\C,0,-1
 .255,2.442,2.026\C,0,-0.245,1.85,-2.564\C,0,0.146,-2.824,-2.037\N,0,-0
 .617,-0.009,2.126\C,0,-0.594,-0.908,3.105\C,0,-0.936,-0.309,4.502\C,0,
 -1.773,0.964,4.032\C,0,-1.155,1.168,2.66\C,0,-3.263,0.685,3.863\C,0,0.
 345,0.11,5.299\C,0,0.124,0.397,6.787\H,0,1.168,0.033,7.733\N,0,-0.185,
 1.961,-0.152\C,0,-0.703,2.8,0.777\C,0,-0.62,4.156,0.193\C,0,-0.187,4.0
 15,-1.225\C,0,-0.214,2.583,-1.38\C,0,-0.887,5.406,0.974\C,0,0.181,5.01
 3,-2.277\O,0,0.303,4.69,-3.508\C,0,0.31,6.414,-1.837\N,0,-0.265,-0.413
 ,-2.029\C,0,-0.279,0.569,-2.937\C,0,-0.196,0.024,-4.332\C,0,0.124,-1.5
 33,-4.18\C,0,0.086,-1.632,-2.635\C,0,-1.451,0.205,-5.197\C,0,1.373,-2.
 07,-4.923\C,0,2.626,-1.49,-4.306\N,0,0.15,-2.144,0.303\C,0,0.173,-3.13
 6,-0.688\C,0,0.173,-4.438,0.004\C,0,0.133,-4.111,1.358\C,0,0.083,-2.69
 5,1.502\C,0,0.149,-5.715,-0.623\C,0,0.096,-4.629,2.716\O,0,0.208,-5.74
 7,3.221\C,0,-0.255,-3.428,3.701\C,0,0.717,-3.482,4.848\O,0,1.931,-3.25
 5,4.669\O,0,0.038,-3.556,6.003\C,0,0.943,-3.583,7.183\H,0,-1.859,3.22,
 2.497\H,0,-0.218,2.453,-3.474\H,0,0.276,-3.747,-2.605\H,0,-1.554,-0.94
 9,5.132\H,0,-1.585,1.831,4.665\H,0,-3.484,-0.377,3.969\H,0,-3.511,1.02
 7,2.858\H,0,-3.852,1.301,4.543\H,0,0.669,1.096,4.966\H,0,1.13,-0.639,5
 .189\H,0,-0.844,0.026,7.125\H,0,0.062,1.477,6.921\H,0,-1.344,5.186,1.9
 38\H,0,-1.651,5.963,0.432\H,0,0.007,6.02,1.084\H,0,-0.635,6.744,-1.405
 \H,0,0.665,6.97,-2.704\H,0,1.048,6.466,-1.036\H,0,0.608,0.501,-4.891\H
 ,0,-0.692,-2.156,-4.547\H,0,-1.267,0.74,-6.129\H,0,-2.204,0.714,-4.596
 \H,0,-1.967,-0.72,-5.453\H,0,1.356,-1.759,-5.967\H,0,1.452,-3.157,-4.9
 02\H,0,2.714,-0.522,-4.798\H,0,3.487,-2.121,-4.529\H,0,2.495,-1.303,-3
 .24\H,0,0.867,-6.333,-0.084\H,0,0.404,-5.642,-1.68\H,0,-0.891,-5.999,-
 0.463\H,0,-1.283,-3.581,4.028\H,0,0.698,-4.478,7.755\H,0,0.833,-2.619,
 7.68\H,0,2.,-3.754,6.976\Mg,0,10.51715,0.95265,0.80409\C,0,10.19164,-0
 .49463,4.07189\C,0,9.27364,3.84194,2.1233\C,0,10.36725,2.1172,-2.14358
 \C,0,10.63658,-2.28973,-0.46808\N,0,9.85534,1.48176,2.84721\C,0,9.8352
 7,0.86914,4.02137\C,0,9.48647,1.78994,5.22138\C,0,8.67956,2.92737,4.42
 511\C,0,9.32918,2.77179,3.05163\C,0,7.19584,2.62871,4.28831\C,0,10.765
 31,2.37397,5.91814\C,0,10.51429,3.02859,7.27837\H,0,11.53653,2.89786,8
 .31298\N,0,10.38026,2.82808,0.1696\C,0,9.86909,3.87979,0.84332\C,0,9.9
 8003,5.03176,-0.06488\C,0,10.44687,4.5411,-1.39003\C,0,10.39516,3.1090
 5,-1.17403\C,0,9.73282,6.4444,0.37869\C,0,10.85801,5.24411,-2.64818\O,
 0,10.99971,4.61467,-3.75568\C,0,10.99898,6.70526,-2.56661\N,0,10.29103
 ,0.05418,-1.05708\C,0,10.31111,0.78587,-2.18498\C,0,10.40848,-0.09698,
 -3.40624\C,0,10.69454,-1.56903,-2.85052\C,0,10.62119,-1.28571,-1.33403
 \C,0,9.17415,-0.12442,-4.30738\C,0,11.94745,-2.2999,-3.40616\C,0,13.20
 318,-1.60309,-2.93395\N,0,10.61811,-1.04035,1.63223\C,0,10.63329,-2.25
 996,0.92062\C,0,10.59066,-3.34746,1.91961\C,0,10.52992,-2.67967,3.1520
 3\C,0,10.514,-1.27527,2.93547\C,0,10.56167,-4.7411,1.63144\C,0,10.4649
 2,-2.84358,4.58647\O,0,10.535,-3.80146,5.35541\C,0,10.11537,-1.43768,5
 .24042\C,0,11.06206,-1.21051,6.38703\O,0,12.28035,-1.06788,6.18204\O,0
 ,10.35146,-0.98303,7.5067\C,0,11.24644,-0.74112,8.66959\H,0,8.68301,4.
 72168,2.3804\H,0,10.42639,2.46631,-3.17707\H,0,10.76942,-3.32781,-0.78
 017\H,0,8.84857,1.3372,5.97097\H,0,8.88201,3.91425,4.83308\H,0,6.94896
 ,1.6407,4.64753\H,0,6.97484,2.71353,3.23237\H,0,6.6075,3.40694,4.78282
 \H,0,11.11496,3.24648,5.35139\H,0,11.52423,1.62193,6.01359\H,0,9.52566
 ,2.77661,7.68092\H,0,10.4795,4.11207,7.14091\H,0,9.2443,6.47813,1.3603
 3\H,0,8.99294,6.87023,-0.30769\H,0,10.63536,7.05867,0.3509\H,0,10.0547
 ,7.14208,-2.25041\H,0,11.385,7.01635,-3.53928\H,0,11.73218,6.94307,-1.
 78785\H,0,11.23408,0.20669,-4.03812\H,0,9.86981,-2.25917,-3.08153\H,0,
 9.39073,0.16447,-5.35319\H,0,8.42486,0.52854,-3.8799\H,0,8.65276,-1.07
 928,-4.34747\H,0,11.95921,-2.25458,-4.49793\H,0,11.99597,-3.34708,-3.1
 2677\H,0,13.31647,-0.78532,-3.65193\H,0,14.05387,-2.28064,-2.96997\H,0
 ,13.05619,-1.15496,-1.9444\H,0,11.24808,-5.21574,2.31996\H,0,10.83464,
 -4.93896,0.59698\H,0,9.50824,-4.95879,1.82683\H,0,9.0763,-1.47868,5.56
 939\H,0,10.96687,-1.46268,9.44345\H,0,11.13271,0.33129,8.91609\H,0,12.
 30018,-0.96173,8.54547\\Version=ES64L-G16RevA.03\State=1-A\HF=-4069.81
 13959\RMSD=5.962e-09\PG=C01 [X(C68H72Mg2N8O8)]\\@


 YOU CAN WIPE THE SLATE CLEAN, BUT YOU'LL STILL
 HAVE TO EAT A LITTLE CHALK DUST.
 Job cpu time:       0 days 13 hours 42 minutes 14.6 seconds.
 Elapsed time:       0 days  0 hours 34 minutes 54.5 seconds.
 File lengths (MBytes):  RWF=  13225 Int=      0 D2E=      0 Chk=    574 Scr=      1
 Normal termination of Gaussian 16 at Sat Sep  4 05:31:34 2021.
