 Entering Gaussian System, Link 0=g16
 Initial command:
 /sw/apps/gaussian-16.0/g16/l1.exe "/tmp/Gau-242776.inp" -scrdir="/tmp/"
 Entering Link 1 = /sw/apps/gaussian-16.0/g16/l1.exe PID=    242778.
  
 Copyright (c) 1988,1990,1992,1993,1995,1998,2003,2009,2016,
            Gaussian, Inc.  All Rights Reserved.
  
 This is part of the Gaussian(R) 16 program.  It is based on
 the Gaussian(R) 09 system (copyright 2009, Gaussian, Inc.),
 the Gaussian(R) 03 system (copyright 2003, Gaussian, Inc.),
 the Gaussian(R) 98 system (copyright 1998, Gaussian, Inc.),
 the Gaussian(R) 94 system (copyright 1995, Gaussian, Inc.),
 the Gaussian 92(TM) system (copyright 1992, Gaussian, Inc.),
 the Gaussian 90(TM) system (copyright 1990, Gaussian, Inc.),
 the Gaussian 88(TM) system (copyright 1988, Gaussian, Inc.),
 the Gaussian 86(TM) system (copyright 1986, Carnegie Mellon
 University), and the Gaussian 82(TM) system (copyright 1983,
 Carnegie Mellon University). Gaussian is a federally registered
 trademark of Gaussian, Inc.
  
 This software contains proprietary and confidential information,
 including trade secrets, belonging to Gaussian, Inc.
  
 This software is provided under written license and may be
 used, copied, transmitted, or stored only in accord with that
 written license.
  
 The following legend is applicable only to US Government
 contracts under FAR:
  
                    RESTRICTED RIGHTS LEGEND
  
 Use, reproduction and disclosure by the US Government is
 subject to restrictions as set forth in subparagraphs (a)
 and (c) of the Commercial Computer Software - Restricted
 Rights clause in FAR 52.227-19.
  
 Gaussian, Inc.
 340 Quinnipiac St., Bldg. 40, Wallingford CT 06492
  
  
 ---------------------------------------------------------------
 Warning -- This program may not be used in any manner that
 competes with the business of Gaussian, Inc. or will provide
 assistance to any competitor of Gaussian, Inc.  The licensee
 of this program is prohibited from giving any competitor of
 Gaussian, Inc. access to this program.  By using this program,
 the user acknowledges that Gaussian, Inc. is engaged in the
 business of creating and licensing software in the field of
 computational chemistry and represents and warrants to the
 licensee that it is not a competitor of Gaussian, Inc. and that
 it will not use this program in any manner prohibited above.
 ---------------------------------------------------------------
  

 Cite this work as:
 Gaussian 16, Revision A.03,
 M. J. Frisch, G. W. Trucks, H. B. Schlegel, G. E. Scuseria, 
 M. A. Robb, J. R. Cheeseman, G. Scalmani, V. Barone, 
 G. A. Petersson, H. Nakatsuji, X. Li, M. Caricato, A. V. Marenich, 
 J. Bloino, B. G. Janesko, R. Gomperts, B. Mennucci, H. P. Hratchian, 
 J. V. Ortiz, A. F. Izmaylov, J. L. Sonnenberg, D. Williams-Young, 
 F. Ding, F. Lipparini, F. Egidi, J. Goings, B. Peng, A. Petrone, 
 T. Henderson, D. Ranasinghe, V. G. Zakrzewski, J. Gao, N. Rega, 
 G. Zheng, W. Liang, M. Hada, M. Ehara, K. Toyota, R. Fukuda, 
 J. Hasegawa, M. Ishida, T. Nakajima, Y. Honda, O. Kitao, H. Nakai, 
 T. Vreven, K. Throssell, J. A. Montgomery, Jr., J. E. Peralta, 
 F. Ogliaro, M. J. Bearpark, J. J. Heyd, E. N. Brothers, K. N. Kudin, 
 V. N. Staroverov, T. A. Keith, R. Kobayashi, J. Normand, 
 K. Raghavachari, A. P. Rendell, J. C. Burant, S. S. Iyengar, 
 J. Tomasi, M. Cossi, J. M. Millam, M. Klene, C. Adamo, R. Cammi, 
 J. W. Ochterski, R. L. Martin, K. Morokuma, O. Farkas, 
 J. B. Foresman, and D. J. Fox, Gaussian, Inc., Wallingford CT, 2016.
 
 ******************************************
 Gaussian 16:  ES64L-G16RevA.03 25-Dec-2016
                26-May-2022 
 ******************************************
 %nproc=24
 Will use up to   24 processors via shared memory.
 %mem=75gb
 ----------------------------------------------------------
 #p cam-b3lyp/Def2SVP td=(nstates=5) density=(transition=1)
 ----------------------------------------------------------
 1/38=1,172=1/1;
 2/12=2,17=6,18=5,40=1/2;
 3/5=43,7=101,11=9,25=1,30=1,74=-40/1,2,3,8;
 4//1;
 5/5=2,38=5/2;
 8/6=1,10=1,108=5/1;
 9/41=5,42=1,70=2/14;
 6/7=2,8=2,9=2,10=2,29=1/1;
 99/5=1,9=1/99;
 Leave Link    1 at Thu May 26 10:43:12 2022, MaxMem= 10066329600 cpu:               1.2 elap:               0.1
 (Enter /sw/apps/gaussian-16.0/g16/l101.exe)
 --------------------------------
 TDDFT excited states in gaussian
 --------------------------------
 Symbolic Z-matrix:
 Charge =  0 Multiplicity = 1
 Mg                    8.94055   0.80924   0.68562 
 C                     8.71971  -1.41348   3.4945 
 C                     7.68386   3.25081   2.709 
 C                     8.6987    2.66808  -1.87439 
 C                     9.08051  -2.01041  -1.35783 
 N                     8.3213    0.79794   2.80898 
 C                     8.34029  -0.08824   3.79319 
 C                     8.00664   0.49663   5.19182 
 C                     7.16198   1.77874   4.72106 
 C                     7.77968   1.98455   3.33948 
 C                     5.68032   1.49133   4.54381 
 C                     9.29284   0.91632   5.98653 
 C                     9.0652    1.20568   7.47186 
 H                     10.11481   0.84355   8.42036 
 N                     8.75775   2.78018   0.54227 
 C                     8.24662   3.61941   1.46732 
 C                     8.31639   4.9635    0.87342 
 C                     8.75799   4.82885  -0.54135 
 C                     8.73473   3.38738  -0.6887 
 C                     8.05757   6.2153    1.66046 
 C                     9.12635   5.83201  -1.59215 
 O                     9.2506    5.50167  -2.82433 
 C                     9.24576   7.22945  -1.15125 
 N                     8.68274   0.39823  -1.336 
 C                     8.66299   1.38817  -2.2457 
 C                     8.74418   0.83986  -3.65039 
 C                     9.06763  -0.71764  -3.4856 
 C                     9.02744  -0.82285  -1.94524 
 C                     7.48843   1.01096  -4.50491 
 C                     10.31794  -1.2595   -4.23111 
 C                     11.57364  -0.67516  -3.62518 
 N                     9.09414  -1.32457   0.98781 
 C                     9.11126  -2.32774  -0.00589 
 C                     9.11099  -3.63054   0.69063 
 C                     9.07016  -3.29244   2.0517 
 C                     9.02625  -1.87907   2.19296 
 C                     9.09729  -4.90869   0.06432 
 C                     9.04349  -3.81002   3.40081 
 O                     9.14807  -4.92755   3.90472 
 C                     8.68771  -2.61941   4.3919 
 C                     9.65882  -2.66458   5.53969 
 O                     10.86919  -2.44885   5.35241 
 O                     8.9727   -2.73885   6.69472 
 C                     9.8923   -2.77492   7.86299 
 H                     7.08571   4.02563   3.18937 
 H                     8.7265    3.26493  -2.78898 
 H                     9.22225  -2.93482  -1.92179 
 H                     7.39494  -0.14242   5.81729 
 H                     7.35859   2.63699   5.35833 
 H                     5.45838   0.43984   4.64989 
 H                     5.4318    1.83179   3.54713 
 H                     5.092     2.10876   5.22864 
 H                     9.6142    1.90995   5.64864 
 H                     10.0659   0.18094   5.87598 
 H                     8.09106   0.83984   7.8185 
 H                     9.00956   2.2882    7.60996 
 H                     7.59312   5.99268   2.62903 
 H                     7.2941    6.78252   1.1171 
 H                     8.94913   6.83663   1.7688 
 H                     8.30272   7.553    -0.71714 
 H                     9.60243   7.78146  -2.023 
 H                     9.99417   7.2816   -0.35264 
 H                     9.54882   1.30934  -4.20288 
 H                     8.24863  -1.34624  -3.86499 
 H                     7.67427   1.55601  -5.44961 
 H                     6.73958   1.5203   -3.91302 
 H                     6.98165   0.08509  -4.77163 
 H                     10.30183  -0.94329  -5.27701 
 H                     10.39025  -2.34195  -4.22301 
 H                     11.65587   0.29801  -4.1184 
 H                     12.43397  -1.30365  -3.84625 
 H                     11.4441  -0.49108  -2.55234 
 H                     9.80816  -5.52486   0.59864 
 H                     9.34762  -4.83651  -0.99204 
 H                     8.05269  -5.19111   0.22026 
 H                     7.65793  -2.76373   4.72099 
 H                     9.64371  -3.67249   8.43767 
 H                     9.76748  -1.80052   8.37163 
 H                     10.94605  -2.93462   7.66663 
 
 ITRead=  0  0  0  0  0  0  0  0  0  0  0  0  0  0  0  0  0  0  0  0
 ITRead=  0  0  0  0  0  0  0  0  0  0  0  0  0  0  0  0  0  0  0  0
 ITRead=  0  0  0  0  0  0  0  0  0  0  0  0  0  0  0  0  0  0  0  0
 ITRead=  0  0  0  0  0  0  0  0  0  0  0  0  0  0  0  0  0  0  0
 MicOpt= -1 -1 -1 -1 -1 -1 -1 -1 -1 -1 -1 -1 -1 -1 -1 -1 -1 -1 -1 -1
 MicOpt= -1 -1 -1 -1 -1 -1 -1 -1 -1 -1 -1 -1 -1 -1 -1 -1 -1 -1 -1 -1
 MicOpt= -1 -1 -1 -1 -1 -1 -1 -1 -1 -1 -1 -1 -1 -1 -1 -1 -1 -1 -1 -1
 MicOpt= -1 -1 -1 -1 -1 -1 -1 -1 -1 -1 -1 -1 -1 -1 -1 -1 -1 -1 -1
 NAtoms=     79 NQM=       79 NQMF=       0 NMMI=      0 NMMIF=      0
                NMic=       0 NMicF=      0.
                    Isotopes and Nuclear Properties:
 (Nuclear quadrupole moments (NQMom) in fm**2, nuclear magnetic moments (NMagM)
  in nuclear magnetons)

  Atom         1           2           3           4           5           6           7           8           9          10
 IAtWgt=          24          12          12          12          12          14          12          12          12          12
 AtmWgt=  23.9850450  12.0000000  12.0000000  12.0000000  12.0000000  14.0030740  12.0000000  12.0000000  12.0000000  12.0000000
 NucSpn=           0           0           0           0           0           2           0           0           0           0
 AtZEff=  -0.0000000  -0.0000000  -0.0000000  -0.0000000  -0.0000000  -0.0000000  -0.0000000  -0.0000000  -0.0000000  -0.0000000
 NQMom=    0.0000000   0.0000000   0.0000000   0.0000000   0.0000000   2.0440000   0.0000000   0.0000000   0.0000000   0.0000000
 NMagM=    0.0000000   0.0000000   0.0000000   0.0000000   0.0000000   0.4037610   0.0000000   0.0000000   0.0000000   0.0000000
 AtZNuc=  12.0000000   6.0000000   6.0000000   6.0000000   6.0000000   7.0000000   6.0000000   6.0000000   6.0000000   6.0000000

  Atom        11          12          13          14          15          16          17          18          19          20
 IAtWgt=          12          12          12           1          14          12          12          12          12          12
 AtmWgt=  12.0000000  12.0000000  12.0000000   1.0078250  14.0030740  12.0000000  12.0000000  12.0000000  12.0000000  12.0000000
 NucSpn=           0           0           0           1           2           0           0           0           0           0
 AtZEff=  -0.0000000  -0.0000000  -0.0000000  -0.0000000  -0.0000000  -0.0000000  -0.0000000  -0.0000000  -0.0000000  -0.0000000
 NQMom=    0.0000000   0.0000000   0.0000000   0.0000000   2.0440000   0.0000000   0.0000000   0.0000000   0.0000000   0.0000000
 NMagM=    0.0000000   0.0000000   0.0000000   2.7928460   0.4037610   0.0000000   0.0000000   0.0000000   0.0000000   0.0000000
 AtZNuc=   6.0000000   6.0000000   6.0000000   1.0000000   7.0000000   6.0000000   6.0000000   6.0000000   6.0000000   6.0000000

  Atom        21          22          23          24          25          26          27          28          29          30
 IAtWgt=          12          16          12          14          12          12          12          12          12          12
 AtmWgt=  12.0000000  15.9949146  12.0000000  14.0030740  12.0000000  12.0000000  12.0000000  12.0000000  12.0000000  12.0000000
 NucSpn=           0           0           0           2           0           0           0           0           0           0
 AtZEff=  -0.0000000  -0.0000000  -0.0000000  -0.0000000  -0.0000000  -0.0000000  -0.0000000  -0.0000000  -0.0000000  -0.0000000
 NQMom=    0.0000000   0.0000000   0.0000000   2.0440000   0.0000000   0.0000000   0.0000000   0.0000000   0.0000000   0.0000000
 NMagM=    0.0000000   0.0000000   0.0000000   0.4037610   0.0000000   0.0000000   0.0000000   0.0000000   0.0000000   0.0000000
 AtZNuc=   6.0000000   8.0000000   6.0000000   7.0000000   6.0000000   6.0000000   6.0000000   6.0000000   6.0000000   6.0000000

  Atom        31          32          33          34          35          36          37          38          39          40
 IAtWgt=          12          14          12          12          12          12          12          12          16          12
 AtmWgt=  12.0000000  14.0030740  12.0000000  12.0000000  12.0000000  12.0000000  12.0000000  12.0000000  15.9949146  12.0000000
 NucSpn=           0           2           0           0           0           0           0           0           0           0
 AtZEff=  -0.0000000  -0.0000000  -0.0000000  -0.0000000  -0.0000000  -0.0000000  -0.0000000  -0.0000000  -0.0000000  -0.0000000
 NQMom=    0.0000000   2.0440000   0.0000000   0.0000000   0.0000000   0.0000000   0.0000000   0.0000000   0.0000000   0.0000000
 NMagM=    0.0000000   0.4037610   0.0000000   0.0000000   0.0000000   0.0000000   0.0000000   0.0000000   0.0000000   0.0000000
 AtZNuc=   6.0000000   7.0000000   6.0000000   6.0000000   6.0000000   6.0000000   6.0000000   6.0000000   8.0000000   6.0000000

  Atom        41          42          43          44          45          46          47          48          49          50
 IAtWgt=          12          16          16          12           1           1           1           1           1           1
 AtmWgt=  12.0000000  15.9949146  15.9949146  12.0000000   1.0078250   1.0078250   1.0078250   1.0078250   1.0078250   1.0078250
 NucSpn=           0           0           0           0           1           1           1           1           1           1
 AtZEff=  -0.0000000  -0.0000000  -0.0000000  -0.0000000  -0.0000000  -0.0000000  -0.0000000  -0.0000000  -0.0000000  -0.0000000
 NQMom=    0.0000000   0.0000000   0.0000000   0.0000000   0.0000000   0.0000000   0.0000000   0.0000000   0.0000000   0.0000000
 NMagM=    0.0000000   0.0000000   0.0000000   0.0000000   2.7928460   2.7928460   2.7928460   2.7928460   2.7928460   2.7928460
 AtZNuc=   6.0000000   8.0000000   8.0000000   6.0000000   1.0000000   1.0000000   1.0000000   1.0000000   1.0000000   1.0000000

  Atom        51          52          53          54          55          56          57          58          59          60
 IAtWgt=           1           1           1           1           1           1           1           1           1           1
 AtmWgt=   1.0078250   1.0078250   1.0078250   1.0078250   1.0078250   1.0078250   1.0078250   1.0078250   1.0078250   1.0078250
 NucSpn=           1           1           1           1           1           1           1           1           1           1
 AtZEff=  -0.0000000  -0.0000000  -0.0000000  -0.0000000  -0.0000000  -0.0000000  -0.0000000  -0.0000000  -0.0000000  -0.0000000
 NQMom=    0.0000000   0.0000000   0.0000000   0.0000000   0.0000000   0.0000000   0.0000000   0.0000000   0.0000000   0.0000000
 NMagM=    2.7928460   2.7928460   2.7928460   2.7928460   2.7928460   2.7928460   2.7928460   2.7928460   2.7928460   2.7928460
 AtZNuc=   1.0000000   1.0000000   1.0000000   1.0000000   1.0000000   1.0000000   1.0000000   1.0000000   1.0000000   1.0000000

  Atom        61          62          63          64          65          66          67          68          69          70
 IAtWgt=           1           1           1           1           1           1           1           1           1           1
 AtmWgt=   1.0078250   1.0078250   1.0078250   1.0078250   1.0078250   1.0078250   1.0078250   1.0078250   1.0078250   1.0078250
 NucSpn=           1           1           1           1           1           1           1           1           1           1
 AtZEff=  -0.0000000  -0.0000000  -0.0000000  -0.0000000  -0.0000000  -0.0000000  -0.0000000  -0.0000000  -0.0000000  -0.0000000
 NQMom=    0.0000000   0.0000000   0.0000000   0.0000000   0.0000000   0.0000000   0.0000000   0.0000000   0.0000000   0.0000000
 NMagM=    2.7928460   2.7928460   2.7928460   2.7928460   2.7928460   2.7928460   2.7928460   2.7928460   2.7928460   2.7928460
 AtZNuc=   1.0000000   1.0000000   1.0000000   1.0000000   1.0000000   1.0000000   1.0000000   1.0000000   1.0000000   1.0000000

  Atom        71          72          73          74          75          76          77          78          79
 IAtWgt=           1           1           1           1           1           1           1           1           1
 AtmWgt=   1.0078250   1.0078250   1.0078250   1.0078250   1.0078250   1.0078250   1.0078250   1.0078250   1.0078250
 NucSpn=           1           1           1           1           1           1           1           1           1
 AtZEff=  -0.0000000  -0.0000000  -0.0000000  -0.0000000  -0.0000000  -0.0000000  -0.0000000  -0.0000000  -0.0000000
 NQMom=    0.0000000   0.0000000   0.0000000   0.0000000   0.0000000   0.0000000   0.0000000   0.0000000   0.0000000
 NMagM=    2.7928460   2.7928460   2.7928460   2.7928460   2.7928460   2.7928460   2.7928460   2.7928460   2.7928460
 AtZNuc=   1.0000000   1.0000000   1.0000000   1.0000000   1.0000000   1.0000000   1.0000000   1.0000000   1.0000000
 Leave Link  101 at Thu May 26 10:43:13 2022, MaxMem= 10066329600 cpu:               2.7 elap:               0.1
 (Enter /sw/apps/gaussian-16.0/g16/l202.exe)
 Stoichiometry    C34H36MgN4O4
 Framework group  C1[X(C34H36MgN4O4)]
 Deg. of freedom   231
 Full point group                 C1      NOp   1
 Largest Abelian subgroup         C1      NOp   1
 Largest concise Abelian subgroup C1      NOp   1
                         Standard orientation:                         
 ---------------------------------------------------------------------
 Center     Atomic      Atomic             Coordinates (Angstroms)
 Number     Number       Type             X           Y           Z
 ---------------------------------------------------------------------
      1         12           0        0.776111    0.081087   -0.099290
      2          6           0       -2.794870    0.279013    0.197317
      3          6           0        0.505179   -3.235016    0.652147
      4          6           0        3.941300   -0.032722    0.090604
      5          6           0        0.862426    3.541560    0.304915
      6          7           0       -0.973265   -1.197013    0.346130
      7          6           0       -2.286401   -1.025322    0.369383
      8          6           0       -3.104214   -2.337242    0.509407
      9          6           0       -1.980592   -3.247678    1.207586
     10          6           0       -0.732471   -2.543922    0.678819
     11          6           0       -1.980114   -3.145867    2.723823
     12          6           0       -3.536472   -2.923354   -0.880427
     13          6           0       -4.594271   -4.027047   -0.812021
     14          1           0       -5.593180   -4.100585   -1.874680
     15          7           0        2.012212   -1.469744   -0.173759
     16          6           0        1.730789   -2.750655    0.144594
     17          6           0        2.980441   -3.499699   -0.059034
     18          6           0        4.065201   -2.527976   -0.365243
     19          6           0        3.370837   -1.276847   -0.135840
     20          6           0        3.043431   -4.999321   -0.034732
     21          6           0        5.494979   -2.696986   -0.781619
     22          8           0        6.322118   -1.718058   -0.762368
     23          6           0        5.921354   -4.061904   -1.123224
     24          7           0        2.212664    1.508633    0.370571
     25          6           0        3.523140    1.210670    0.328162
     26          6           0        4.369559    2.456851    0.433024
     27          6           0        3.348231    3.681426    0.311013
     28          6           0        2.019528    2.896983    0.243252
     29          6           0        5.185236    2.600851    1.717673
     30          6           0        3.641497    4.735242   -0.791774
     31          6           0        3.458403    4.116337   -2.158822
     32          7           0       -0.682780    1.670731    0.013491
     33          6           0       -0.431886    3.046329    0.210636
     34          6           0       -1.743546    3.715106    0.331935
     35          6           0       -2.673488    2.670617    0.219062
     36          6           0       -1.989239    1.435268    0.060280
     37          6           0       -1.950786    5.103488    0.567658
     38          6           0       -4.078176    2.330844    0.208779
     39          8           0       -5.127402    2.973336    0.216699
     40          6           0       -4.216892    0.751428    0.320997
     41          6           0       -5.199710    0.296151   -0.722703
     42          8           0       -4.937184    0.414681   -1.932513
     43          8           0       -6.185842   -0.398215   -0.126240
     44          6           0       -7.179794   -0.880415   -1.121912
     45          1           0        0.554811   -4.227791    1.100276
     46          1           0        5.032710   -0.000878    0.054737
     47          1           0        0.802269    4.631600    0.334387
     48          1           0       -3.974477   -2.263800    1.150518
     49          1           0       -2.022221   -4.272210    0.847084
     50          1           0       -2.660282   -2.384971    3.076738
     51          1           0       -0.963007   -2.902642    3.002000
     52          1           0       -2.188222   -4.123772    3.167361
     53          1           0       -2.699145   -3.491700   -1.305408
     54          1           0       -3.870608   -2.142715   -1.535852
     55          1           0       -5.075855   -4.075996    0.172167
     56          1           0       -4.094590   -4.993424   -0.914260
     57          1           0        2.124437   -5.433900    0.377569
     58          1           0        3.821222   -5.275059    0.685597
     59          1           0        3.295608   -5.426134   -1.007823
     60          1           0        5.757611   -4.715625   -0.269821
     61          1           0        6.948274   -3.966283   -1.481233
     62          1           0        5.284007   -4.435285   -1.932539
     63          1           0        5.081442    2.510492   -0.381499
     64          1           0        3.314507    4.277463    1.234831
     65          1           0        6.270314    2.716369    1.535091
     66          1           0        4.994389    1.737895    2.341710
     67          1           0        4.886746    3.424174    2.364390
     68          1           0        4.682760    5.062064   -0.735978
     69          1           0        3.021162    5.622185   -0.717558
     70          1           0        4.414934    3.614398   -2.332587
     71          1           0        3.274868    4.885653   -2.906156
     72          1           0        2.679853    3.344860   -2.140498
     73          1           0       -2.748232    5.415888   -0.093391
     74          1           0       -1.042133    5.676200    0.394102
     75          1           0       -2.227151    5.082638    1.625229
     76          1           0       -4.557957    0.523504    1.331591
     77          1           0       -8.158745   -0.511596   -0.800489
     78          1           0       -7.045935   -1.977445   -1.170482
     79          1           0       -7.120524   -0.475961   -2.125582
 ---------------------------------------------------------------------
 Rotational constants (GHZ):           0.1026376           0.0594964           0.0404870
 Leave Link  202 at Thu May 26 10:43:13 2022, MaxMem= 10066329600 cpu:               0.2 elap:               0.0
 (Enter /sw/apps/gaussian-16.0/g16/l301.exe)
 Standard basis: def2SVP (5D, 7F)
 Ernie: Thresh=  0.10000D-02 Tol=  0.10000D-05 Strict=F.
 There are   829 symmetry adapted cartesian basis functions of A   symmetry.
 There are   786 symmetry adapted basis functions of A   symmetry.
   786 basis functions,  1339 primitive gaussians,   829 cartesian basis functions
   156 alpha electrons      156 beta electrons
       nuclear repulsion energy      5357.6948491343 Hartrees.
 IExCor=20419 DFT=T Ex+Corr=CAM-B3LYP ExCW=0 ScaHFX=  1.000000
 ScaDFX=  1.000000  1.000000  1.000000  0.810000 ScalE2=  1.000000  1.000000
 IRadAn=      5 IRanWt=     -1 IRanGd=            0 ICorTp=0 IEmpDi=  4
 HFx  wShort=  0.000000 wLong=  0.330000 cFull=  0.190000 cShort=  0.000000 cLong=  0.460000
 DFx  wShort=  0.000000 wLong=  0.330000 cFull=  0.190000 cShort=  0.000000 cLong=  0.460000
 NAtoms=   79 NActive=   79 NUniq=   79 SFac= 1.00D+00 NAtFMM=   60 NAOKFM=T Big=T
 Integral buffers will be    131072 words long.
 Raffenetti 1 integral format.
 Two-electron integral symmetry is turned on.
 Leave Link  301 at Thu May 26 10:43:13 2022, MaxMem= 10066329600 cpu:               4.1 elap:               0.2
 (Enter /sw/apps/gaussian-16.0/g16/l302.exe)
 NPDir=0 NMtPBC=     1 NCelOv=     1 NCel=       1 NClECP=     1 NCelD=      1
         NCelK=      1 NCelE2=     1 NClLst=     1 CellRange=     0.0.
 One-electron integrals computed using PRISM.
 One-electron integral symmetry used in STVInt
   1 Symmetry operations used in ECPInt.
 ECPInt:  NShTT=   67896 NPrTT=  247430 LenC2=   51977 LenP2D=  119923.
 LDataN:  DoStor=T MaxTD1= 4 Len=   56
 NBasis=   786 RedAO= T EigKep=  3.39D-04  NBF=   786
 NBsUse=   786 1.00D-06 EigRej= -1.00D+00 NBFU=   786
 Precomputing XC quadrature grid using
 IXCGrd= 4 IRadAn=           5 IRanWt=          -1 IRanGd=           0 AccXCQ= 0.00D+00.
 Generated NRdTot=       0 NPtTot=           0 NUsed=           0 NTot=          32
 NSgBfM=   812   812   812   812   812 MxSgAt=    79 MxSgA2=    79.
 Leave Link  302 at Thu May 26 10:43:15 2022, MaxMem= 10066329600 cpu:              38.0 elap:               1.6
 (Enter /sw/apps/gaussian-16.0/g16/l303.exe)
 DipDrv:  MaxL=1.
 Leave Link  303 at Thu May 26 10:43:15 2022, MaxMem= 10066329600 cpu:               2.8 elap:               0.1
 (Enter /sw/apps/gaussian-16.0/g16/l308.exe)
 Leave Link  308 at Thu May 26 10:43:16 2022, MaxMem= 10066329600 cpu:               3.9 elap:               0.2
 (Enter /sw/apps/gaussian-16.0/g16/l401.exe)
 ExpMin= 3.36D-02 ExpMax= 4.95D+03 ExpMxC= 7.45D+02 IAcc=3 IRadAn=         5 AccDes= 0.00D+00
 Harris functional with IExCor=20419 and IRadAn=       5 diagonalized for initial guess.
 HarFok:  IExCor=20419 AccDes= 0.00D+00 IRadAn=         5 IDoV= 1 UseB2=F ITyADJ=14
 ICtDFT=  3500011 ScaDFX=  1.000000  1.000000  1.000000  1.000000
 FoFCou: FMM=F IPFlag=           0 FMFlag=      100000 FMFlg1=        2001
         NFxFlg=           0 DoJE=T BraDBF=F KetDBF=T FulRan=T
         wScrn=  0.000000 ICntrl=       500 IOpCl=  0 I1Cent=   200000004 NGrid=           0
         NMat0=    1 NMatS0=      1 NMatT0=    0 NMatD0=    1 NMtDS0=    0 NMtDT0=    0
 Petite list used in FoFCou.
 Harris En= -1959.32813221929    
 JPrj=0 DoOrth=F DoCkMO=F.
 Leave Link  401 at Thu May 26 10:43:19 2022, MaxMem= 10066329600 cpu:              72.1 elap:               3.0
 (Enter /sw/apps/gaussian-16.0/g16/l502.exe)
 Integral symmetry usage will be decided dynamically.
 Closed shell SCF:
 Using DIIS extrapolation, IDIIS=  1040.
 NGot= 10066329600 LenX= 10064926473 LenY= 10064238403
 Requested convergence on RMS density matrix=1.00D-08 within 128 cycles.
 Requested convergence on MAX density matrix=1.00D-06.
 Requested convergence on             energy=1.00D-06.
 No special actions if energy rises.
 Fock matrices will be formed incrementally for  20 cycles.

 Cycle   1  Pass 1  IDiag  1:
 FoFJK:  IHMeth= 1 ICntrl=       0 DoSepK=T KAlg= 0 I1Cent=           0 FoldK=F
 IRaf=         1 NMat=       1 IRICut=       1 DoRegI=T DoRafI=F ISym2E= 0 IDoP0=0 IntGTp=1.
 FoFCou: FMM=T IPFlag=           0 FMFlag=      100000 FMFlg1=        2001
         NFxFlg=           0 DoJE=T BraDBF=F KetDBF=F FulRan=T
         wScrn=  0.000000 ICntrl=       500 IOpCl=  0 I1Cent=           0 NGrid=           0
         NMat0=    1 NMatS0=      1 NMatT0=    0 NMatD0=    1 NMtDS0=    0 NMtDT0=    0
 Symmetry not used in FoFCou.
 FMM levels:  10  Number of levels for PrismC:   9
 E= -2034.47204850095    
 DIIS: error= 2.02D-02 at cycle   1 NSaved=   1.
 NSaved= 1 IEnMin= 1 EnMin= -2034.47204850095     IErMin= 1 ErrMin= 2.02D-02
 ErrMax= 2.02D-02  0.00D+00 EMaxC= 1.00D-01 BMatC= 8.44D-01 BMatP= 8.44D-01
 IDIUse=3 WtCom= 7.98D-01 WtEn= 2.02D-01
 Coeff-Com:  0.100D+01
 Coeff-En:   0.100D+01
 Coeff:      0.100D+01
 Gap=     0.120 Goal=   None    Shift=    0.000
 GapD=    0.120 DampG=1.000 DampE=0.500 DampFc=0.5000 IDamp=-1.
 Damping current iteration by 5.00D-01
 RMSDP=2.22D-03 MaxDP=1.35D-01              OVMax= 1.90D-01

 Cycle   2  Pass 1  IDiag  1:
 RMSU=  1.09D-03    CP:  9.82D-01
 E= -2034.66655589848     Delta-E=       -0.194507397532 Rises=F Damp=T
 DIIS: error= 1.26D-02 at cycle   2 NSaved=   2.
 NSaved= 2 IEnMin= 2 EnMin= -2034.66655589848     IErMin= 2 ErrMin= 1.26D-02
 ErrMax= 1.26D-02  0.00D+00 EMaxC= 1.00D-01 BMatC= 1.53D-01 BMatP= 8.44D-01
 IDIUse=3 WtCom= 8.74D-01 WtEn= 1.26D-01
 Coeff-Com: -0.213D+00 0.121D+01
 Coeff-En:   0.000D+00 0.100D+01
 Coeff:     -0.186D+00 0.119D+01
 Gap=     0.137 Goal=   None    Shift=    0.000
 RMSDP=1.08D-03 MaxDP=9.43D-02 DE=-1.95D-01 OVMax= 1.88D-01

 Cycle   3  Pass 1  IDiag  1:
 RMSU=  1.03D-03    CP:  9.68D-01  1.24D+00
 E= -2034.81159037213     Delta-E=       -0.145034473651 Rises=F Damp=F
 DIIS: error= 1.28D-02 at cycle   3 NSaved=   3.
 NSaved= 3 IEnMin= 3 EnMin= -2034.81159037213     IErMin= 2 ErrMin= 1.26D-02
 ErrMax= 1.28D-02  0.00D+00 EMaxC= 1.00D-01 BMatC= 1.01D-01 BMatP= 1.53D-01
 IDIUse=3 WtCom= 8.72D-01 WtEn= 1.28D-01
 Coeff-Com: -0.267D+00 0.652D+00 0.616D+00
 Coeff-En:   0.000D+00 0.000D+00 0.100D+01
 Coeff:     -0.233D+00 0.568D+00 0.665D+00
 Gap=     0.125 Goal=   None    Shift=    0.000
 RMSDP=6.95D-04 MaxDP=4.75D-02 DE=-1.45D-01 OVMax= 1.25D-01

 Cycle   4  Pass 1  IDiag  1:
 RMSU=  3.67D-04    CP:  9.65D-01  1.54D+00  5.22D-01
 E= -2034.88347293864     Delta-E=       -0.071882566510 Rises=F Damp=F
 DIIS: error= 5.32D-03 at cycle   4 NSaved=   4.
 NSaved= 4 IEnMin= 4 EnMin= -2034.88347293864     IErMin= 4 ErrMin= 5.32D-03
 ErrMax= 5.32D-03  0.00D+00 EMaxC= 1.00D-01 BMatC= 2.14D-02 BMatP= 1.01D-01
 IDIUse=3 WtCom= 9.47D-01 WtEn= 5.32D-02
 Coeff-Com: -0.112D+00 0.231D+00 0.396D+00 0.484D+00
 Coeff-En:   0.000D+00 0.000D+00 0.187D+00 0.813D+00
 Coeff:     -0.106D+00 0.219D+00 0.385D+00 0.502D+00
 Gap=     0.123 Goal=   None    Shift=    0.000
 RMSDP=2.59D-04 MaxDP=1.85D-02 DE=-7.19D-02 OVMax= 4.91D-02

 Cycle   5  Pass 1  IDiag  1:
 RMSU=  1.04D-04    CP:  9.65D-01  1.49D+00  6.87D-01  5.68D-01
 E= -2034.90273113005     Delta-E=       -0.019258191408 Rises=F Damp=F
 DIIS: error= 7.42D-04 at cycle   5 NSaved=   5.
 NSaved= 5 IEnMin= 5 EnMin= -2034.90273113005     IErMin= 5 ErrMin= 7.42D-04
 ErrMax= 7.42D-04  0.00D+00 EMaxC= 1.00D-01 BMatC= 5.00D-04 BMatP= 2.14D-02
 IDIUse=3 WtCom= 9.93D-01 WtEn= 7.42D-03
 Coeff-Com: -0.371D-01 0.728D-01 0.157D+00 0.245D+00 0.562D+00
 Coeff-En:   0.000D+00 0.000D+00 0.000D+00 0.000D+00 0.100D+01
 Coeff:     -0.368D-01 0.723D-01 0.155D+00 0.243D+00 0.566D+00
 Gap=     0.123 Goal=   None    Shift=    0.000
 RMSDP=5.35D-05 MaxDP=3.93D-03 DE=-1.93D-02 OVMax= 1.27D-02

 Cycle   6  Pass 1  IDiag  1:
 RMSU=  4.12D-05    CP:  9.64D-01  1.49D+00  6.81D-01  6.34D-01  7.79D-01
 E= -2034.90315162198     Delta-E=       -0.000420491938 Rises=F Damp=F
 DIIS: error= 2.15D-04 at cycle   6 NSaved=   6.
 NSaved= 6 IEnMin= 6 EnMin= -2034.90315162198     IErMin= 6 ErrMin= 2.15D-04
 ErrMax= 2.15D-04  0.00D+00 EMaxC= 1.00D-01 BMatC= 8.16D-05 BMatP= 5.00D-04
 IDIUse=3 WtCom= 9.98D-01 WtEn= 2.15D-03
 Coeff-Com:  0.181D-02-0.573D-02 0.101D-01 0.372D-01 0.310D+00 0.647D+00
 Coeff-En:   0.000D+00 0.000D+00 0.000D+00 0.000D+00 0.109D+00 0.891D+00
 Coeff:      0.180D-02-0.571D-02 0.100D-01 0.372D-01 0.309D+00 0.647D+00
 Gap=     0.123 Goal=   None    Shift=    0.000
 RMSDP=2.12D-05 MaxDP=1.15D-03 DE=-4.20D-04 OVMax= 5.64D-03

 Cycle   7  Pass 1  IDiag  1:
 RMSU=  1.45D-05    CP:  9.64D-01  1.50D+00  6.87D-01  6.34D-01  8.75D-01
                    CP:  7.58D-01
 E= -2034.90323832735     Delta-E=       -0.000086705366 Rises=F Damp=F
 DIIS: error= 7.11D-05 at cycle   7 NSaved=   7.
 NSaved= 7 IEnMin= 7 EnMin= -2034.90323832735     IErMin= 7 ErrMin= 7.11D-05
 ErrMax= 7.11D-05  0.00D+00 EMaxC= 1.00D-01 BMatC= 8.92D-06 BMatP= 8.16D-05
 IDIUse=1 WtCom= 1.00D+00 WtEn= 0.00D+00
 Coeff-Com:  0.432D-02-0.943D-02-0.874D-02-0.526D-02 0.983D-01 0.318D+00
 Coeff-Com:  0.603D+00
 Coeff:      0.432D-02-0.943D-02-0.874D-02-0.526D-02 0.983D-01 0.318D+00
 Coeff:      0.603D+00
 Gap=     0.123 Goal=   None    Shift=    0.000
 RMSDP=8.94D-06 MaxDP=1.07D-03 DE=-8.67D-05 OVMax= 3.02D-03

 Cycle   8  Pass 1  IDiag  1:
 RMSU=  6.48D-06    CP:  9.64D-01  1.50D+00  6.88D-01  6.39D-01  8.81D-01
                    CP:  8.86D-01  8.40D-01
 E= -2034.90324958678     Delta-E=       -0.000011259432 Rises=F Damp=F
 DIIS: error= 4.82D-05 at cycle   8 NSaved=   8.
 NSaved= 8 IEnMin= 8 EnMin= -2034.90324958678     IErMin= 8 ErrMin= 4.82D-05
 ErrMax= 4.82D-05  0.00D+00 EMaxC= 1.00D-01 BMatC= 2.37D-06 BMatP= 8.92D-06
 IDIUse=1 WtCom= 1.00D+00 WtEn= 0.00D+00
 Coeff-Com:  0.223D-02-0.442D-02-0.750D-02-0.124D-01-0.136D-01 0.303D-01
 Coeff-Com:  0.362D+00 0.644D+00
 Coeff:      0.223D-02-0.442D-02-0.750D-02-0.124D-01-0.136D-01 0.303D-01
 Coeff:      0.362D+00 0.644D+00
 Gap=     0.123 Goal=   None    Shift=    0.000
 RMSDP=4.54D-06 MaxDP=3.10D-04 DE=-1.13D-05 OVMax= 9.74D-04

 Cycle   9  Pass 1  IDiag  1:
 RMSU=  2.66D-06    CP:  9.64D-01  1.50D+00  6.88D-01  6.40D-01  8.98D-01
                    CP:  9.11D-01  1.04D+00  9.29D-01
 E= -2034.90325335786     Delta-E=       -0.000003771079 Rises=F Damp=F
 DIIS: error= 2.12D-05 at cycle   9 NSaved=   9.
 NSaved= 9 IEnMin= 9 EnMin= -2034.90325335786     IErMin= 9 ErrMin= 2.12D-05
 ErrMax= 2.12D-05  0.00D+00 EMaxC= 1.00D-01 BMatC= 3.30D-07 BMatP= 2.37D-06
 IDIUse=1 WtCom= 1.00D+00 WtEn= 0.00D+00
 Coeff-Com:  0.529D-03-0.903D-03-0.258D-02-0.598D-02-0.218D-01-0.391D-01
 Coeff-Com:  0.114D+00 0.318D+00 0.638D+00
 Coeff:      0.529D-03-0.903D-03-0.258D-02-0.598D-02-0.218D-01-0.391D-01
 Coeff:      0.114D+00 0.318D+00 0.638D+00
 Gap=     0.123 Goal=   None    Shift=    0.000
 RMSDP=2.01D-06 MaxDP=1.48D-04 DE=-3.77D-06 OVMax= 7.77D-04

 Cycle  10  Pass 1  IDiag  1:
 RMSU=  1.34D-06    CP:  9.64D-01  1.50D+00  6.88D-01  6.41D-01  9.01D-01
                    CP:  9.25D-01  1.09D+00  1.10D+00  1.05D+00
 E= -2034.90325413424     Delta-E=       -0.000000776378 Rises=F Damp=F
 DIIS: error= 1.17D-05 at cycle  10 NSaved=  10.
 NSaved=10 IEnMin=10 EnMin= -2034.90325413424     IErMin=10 ErrMin= 1.17D-05
 ErrMax= 1.17D-05  0.00D+00 EMaxC= 1.00D-01 BMatC= 9.53D-08 BMatP= 3.30D-07
 IDIUse=1 WtCom= 1.00D+00 WtEn= 0.00D+00
 Coeff-Com: -0.433D-03 0.907D-03 0.121D-02 0.118D-02-0.353D-02-0.312D-01
 Coeff-Com: -0.454D-01-0.830D-01 0.277D+00 0.884D+00
 Coeff:     -0.433D-03 0.907D-03 0.121D-02 0.118D-02-0.353D-02-0.312D-01
 Coeff:     -0.454D-01-0.830D-01 0.277D+00 0.884D+00
 Gap=     0.123 Goal=   None    Shift=    0.000
 RMSDP=1.74D-06 MaxDP=1.18D-04 DE=-7.76D-07 OVMax= 6.02D-04

 Cycle  11  Pass 1  IDiag  1:
 RMSU=  7.27D-07    CP:  9.64D-01  1.50D+00  6.88D-01  6.41D-01  9.04D-01
                    CP:  9.35D-01  1.14D+00  1.21D+00  1.39D+00  1.37D+00
 E= -2034.90325454219     Delta-E=       -0.000000407952 Rises=F Damp=F
 DIIS: error= 3.75D-06 at cycle  11 NSaved=  11.
 NSaved=11 IEnMin=11 EnMin= -2034.90325454219     IErMin=11 ErrMin= 3.75D-06
 ErrMax= 3.75D-06  0.00D+00 EMaxC= 1.00D-01 BMatC= 3.19D-08 BMatP= 9.53D-08
 IDIUse=1 WtCom= 1.00D+00 WtEn= 0.00D+00
 Coeff-Com: -0.355D-03 0.691D-03 0.132D-02 0.221D-02 0.499D-02-0.819D-02
 Coeff-Com: -0.455D-01-0.142D+00-0.890D-02 0.449D+00 0.747D+00
 Coeff:     -0.355D-03 0.691D-03 0.132D-02 0.221D-02 0.499D-02-0.819D-02
 Coeff:     -0.455D-01-0.142D+00-0.890D-02 0.449D+00 0.747D+00
 Gap=     0.123 Goal=   None    Shift=    0.000
 RMSDP=1.02D-06 MaxDP=6.06D-05 DE=-4.08D-07 OVMax= 3.85D-04

 Cycle  12  Pass 1  IDiag  1:
 RMSU=  3.80D-07    CP:  9.64D-01  1.50D+00  6.88D-01  6.41D-01  9.05D-01
                    CP:  9.38D-01  1.17D+00  1.28D+00  1.57D+00  1.77D+00
                    CP:  1.21D+00
 E= -2034.90325468366     Delta-E=       -0.000000141472 Rises=F Damp=F
 DIIS: error= 2.45D-06 at cycle  12 NSaved=  12.
 NSaved=12 IEnMin=12 EnMin= -2034.90325468366     IErMin=12 ErrMin= 2.45D-06
 ErrMax= 2.45D-06  0.00D+00 EMaxC= 1.00D-01 BMatC= 8.55D-09 BMatP= 3.19D-08
 IDIUse=1 WtCom= 1.00D+00 WtEn= 0.00D+00
 Coeff-Com: -0.767D-05-0.187D-05 0.182D-03 0.521D-03 0.349D-02 0.416D-02
 Coeff-Com:  0.293D-02-0.402D-01-0.634D-01-0.884D-01 0.270D+00 0.911D+00
 Coeff:     -0.767D-05-0.187D-05 0.182D-03 0.521D-03 0.349D-02 0.416D-02
 Coeff:      0.293D-02-0.402D-01-0.634D-01-0.884D-01 0.270D+00 0.911D+00
 Gap=     0.123 Goal=   None    Shift=    0.000
 RMSDP=6.49D-07 MaxDP=3.14D-05 DE=-1.41D-07 OVMax= 2.49D-04

 Cycle  13  Pass 1  IDiag  1:
 RMSU=  2.38D-07    CP:  9.64D-01  1.50D+00  6.88D-01  6.41D-01  9.05D-01
                    CP:  9.39D-01  1.17D+00  1.31D+00  1.69D+00  2.01D+00
                    CP:  1.64D+00  1.27D+00
 E= -2034.90325473391     Delta-E=       -0.000000050247 Rises=F Damp=F
 DIIS: error= 1.22D-06 at cycle  13 NSaved=  13.
 NSaved=13 IEnMin=13 EnMin= -2034.90325473391     IErMin=13 ErrMin= 1.22D-06
 ErrMax= 1.22D-06  0.00D+00 EMaxC= 1.00D-01 BMatC= 4.32D-09 BMatP= 8.55D-09
 IDIUse=1 WtCom= 1.00D+00 WtEn= 0.00D+00
 Coeff-Com:  0.129D-03-0.263D-03-0.379D-03-0.503D-03 0.434D-03 0.514D-02
 Coeff-Com:  0.212D-01 0.231D-01-0.344D-01-0.252D+00-0.148D+00 0.591D+00
 Coeff-Com:  0.795D+00
 Coeff:      0.129D-03-0.263D-03-0.379D-03-0.503D-03 0.434D-03 0.514D-02
 Coeff:      0.212D-01 0.231D-01-0.344D-01-0.252D+00-0.148D+00 0.591D+00
 Coeff:      0.795D+00
 Gap=     0.123 Goal=   None    Shift=    0.000
 RMSDP=5.12D-07 MaxDP=2.34D-05 DE=-5.02D-08 OVMax= 2.00D-04

 Cycle  14  Pass 1  IDiag  1:
 RMSU=  1.10D-07    CP:  9.64D-01  1.50D+00  6.88D-01  6.41D-01  9.05D-01
                    CP:  9.40D-01  1.18D+00  1.34D+00  1.78D+00  2.21D+00
                    CP:  1.92D+00  1.80D+00  1.09D+00
 E= -2034.90325475376     Delta-E=       -0.000000019845 Rises=F Damp=F
 DIIS: error= 6.32D-07 at cycle  14 NSaved=  14.
 NSaved=14 IEnMin=14 EnMin= -2034.90325475376     IErMin=14 ErrMin= 6.32D-07
 ErrMax= 6.32D-07  0.00D+00 EMaxC= 1.00D-01 BMatC= 6.94D-10 BMatP= 4.32D-09
 IDIUse=1 WtCom= 1.00D+00 WtEn= 0.00D+00
 Coeff-Com:  0.736D-04-0.145D-03-0.254D-03-0.419D-03-0.612D-03 0.131D-02
 Coeff-Com:  0.118D-01 0.204D-01 0.344D-02-0.104D+00-0.142D+00 0.858D-01
 Coeff-Com:  0.418D+00 0.706D+00
 Coeff:      0.736D-04-0.145D-03-0.254D-03-0.419D-03-0.612D-03 0.131D-02
 Coeff:      0.118D-01 0.204D-01 0.344D-02-0.104D+00-0.142D+00 0.858D-01
 Coeff:      0.418D+00 0.706D+00
 Gap=     0.123 Goal=   None    Shift=    0.000
 RMSDP=1.52D-07 MaxDP=6.58D-06 DE=-1.98D-08 OVMax= 5.24D-05

 Cycle  15  Pass 1  IDiag  1:
 RMSU=  5.52D-08    CP:  9.64D-01  1.50D+00  6.88D-01  6.41D-01  9.05D-01
                    CP:  9.39D-01  1.18D+00  1.34D+00  1.79D+00  2.25D+00
                    CP:  2.03D+00  1.94D+00  1.33D+00  1.03D+00
 E= -2034.90325475595     Delta-E=       -0.000000002194 Rises=F Damp=F
 DIIS: error= 3.48D-07 at cycle  15 NSaved=  15.
 NSaved=15 IEnMin=15 EnMin= -2034.90325475595     IErMin=15 ErrMin= 3.48D-07
 ErrMax= 3.48D-07  0.00D+00 EMaxC= 1.00D-01 BMatC= 1.14D-10 BMatP= 6.94D-10
 IDIUse=1 WtCom= 1.00D+00 WtEn= 0.00D+00
 Coeff-Com:  0.644D-05-0.110D-04-0.331D-04-0.846D-04-0.326D-03-0.500D-03
 Coeff-Com:  0.128D-02 0.278D-02 0.904D-02 0.103D-02-0.302D-01-0.762D-01
 Coeff-Com:  0.388D-01 0.288D+00 0.766D+00
 Coeff:      0.644D-05-0.110D-04-0.331D-04-0.846D-04-0.326D-03-0.500D-03
 Coeff:      0.128D-02 0.278D-02 0.904D-02 0.103D-02-0.302D-01-0.762D-01
 Coeff:      0.388D-01 0.288D+00 0.766D+00
 Gap=     0.123 Goal=   None    Shift=    0.000
 RMSDP=5.78D-08 MaxDP=2.45D-06 DE=-2.19D-09 OVMax= 2.43D-05

 Cycle  16  Pass 1  IDiag  1:
 RMSU=  2.67D-08    CP:  9.64D-01  1.50D+00  6.88D-01  6.41D-01  9.05D-01
                    CP:  9.39D-01  1.19D+00  1.34D+00  1.80D+00  2.27D+00
                    CP:  2.06D+00  2.00D+00  1.41D+00  1.24D+00  1.14D+00
 E= -2034.90325475633     Delta-E=       -0.000000000380 Rises=F Damp=F
 DIIS: error= 1.61D-07 at cycle  16 NSaved=  16.
 NSaved=16 IEnMin=16 EnMin= -2034.90325475633     IErMin=16 ErrMin= 1.61D-07
 ErrMax= 1.61D-07  0.00D+00 EMaxC= 1.00D-01 BMatC= 4.31D-11 BMatP= 1.14D-10
 IDIUse=1 WtCom= 1.00D+00 WtEn= 0.00D+00
 Coeff-Com: -0.154D-04 0.312D-04 0.484D-04 0.598D-04-0.119D-04-0.617D-03
 Coeff-Com: -0.217D-02-0.445D-02 0.492D-02 0.259D-01 0.213D-01-0.665D-01
 Coeff-Com: -0.792D-01-0.454D-01 0.400D+00 0.746D+00
 Coeff:     -0.154D-04 0.312D-04 0.484D-04 0.598D-04-0.119D-04-0.617D-03
 Coeff:     -0.217D-02-0.445D-02 0.492D-02 0.259D-01 0.213D-01-0.665D-01
 Coeff:     -0.792D-01-0.454D-01 0.400D+00 0.746D+00
 Gap=     0.123 Goal=   None    Shift=    0.000
 RMSDP=3.37D-08 MaxDP=1.49D-06 DE=-3.80D-10 OVMax= 1.14D-05

 Cycle  17  Pass 1  IDiag  1:
 RMSU=  1.49D-08    CP:  9.64D-01  1.50D+00  6.88D-01  6.41D-01  9.05D-01
                    CP:  9.39D-01  1.19D+00  1.34D+00  1.80D+00  2.27D+00
                    CP:  2.07D+00  2.02D+00  1.46D+00  1.34D+00  1.44D+00
                    CP:  1.25D+00
 E= -2034.90325475646     Delta-E=       -0.000000000131 Rises=F Damp=F
 DIIS: error= 9.80D-08 at cycle  17 NSaved=  17.
 NSaved=17 IEnMin=17 EnMin= -2034.90325475646     IErMin=17 ErrMin= 9.80D-08
 ErrMax= 9.80D-08  0.00D+00 EMaxC= 1.00D-01 BMatC= 9.17D-12 BMatP= 4.31D-11
 IDIUse=1 WtCom= 1.00D+00 WtEn= 0.00D+00
 Coeff-Com: -0.804D-05 0.157D-04 0.293D-04 0.457D-04 0.938D-04-0.115D-03
 Coeff-Com: -0.109D-02-0.299D-02 0.378D-03 0.941D-02 0.181D-01-0.809D-02
 Coeff-Com: -0.358D-01-0.104D+00-0.261D-01 0.300D+00 0.850D+00
 Coeff:     -0.804D-05 0.157D-04 0.293D-04 0.457D-04 0.938D-04-0.115D-03
 Coeff:     -0.109D-02-0.299D-02 0.378D-03 0.941D-02 0.181D-01-0.809D-02
 Coeff:     -0.358D-01-0.104D+00-0.261D-01 0.300D+00 0.850D+00
 Gap=     0.123 Goal=   None    Shift=    0.000
 RMSDP=1.91D-08 MaxDP=9.75D-07 DE=-1.31D-10 OVMax= 7.78D-06

 Cycle  18  Pass 1  IDiag  1:
 RMSU=  6.97D-09    CP:  9.64D-01  1.50D+00  6.88D-01  6.41D-01  9.05D-01
                    CP:  9.39D-01  1.19D+00  1.34D+00  1.80D+00  2.27D+00
                    CP:  2.08D+00  2.03D+00  1.48D+00  1.40D+00  1.61D+00
                    CP:  1.64D+00  1.37D+00
 E= -2034.90325475660     Delta-E=       -0.000000000143 Rises=F Damp=F
 DIIS: error= 4.74D-08 at cycle  18 NSaved=  18.
 NSaved=18 IEnMin=18 EnMin= -2034.90325475660     IErMin=18 ErrMin= 4.74D-08
 ErrMax= 4.74D-08  0.00D+00 EMaxC= 1.00D-01 BMatC= 3.48D-12 BMatP= 9.17D-12
 IDIUse=1 WtCom= 1.00D+00 WtEn= 0.00D+00
 Coeff-Com:  0.208D-05-0.447D-05-0.473D-05-0.271D-05 0.544D-04 0.181D-03
 Coeff-Com:  0.394D-03 0.203D-03-0.123D-02-0.618D-02 0.822D-04 0.191D-01
 Coeff-Com:  0.175D-01-0.321D-01-0.157D+00-0.185D+00 0.340D+00 0.100D+01
 Coeff:      0.208D-05-0.447D-05-0.473D-05-0.271D-05 0.544D-04 0.181D-03
 Coeff:      0.394D-03 0.203D-03-0.123D-02-0.618D-02 0.822D-04 0.191D-01
 Coeff:      0.175D-01-0.321D-01-0.157D+00-0.185D+00 0.340D+00 0.100D+01
 Gap=     0.123 Goal=   None    Shift=    0.000
 RMSDP=1.65D-08 MaxDP=7.35D-07 DE=-1.43D-10 OVMax= 5.98D-06

 Cycle  19  Pass 1  IDiag  1:
 RMSU=  3.92D-09    CP:  9.64D-01  1.50D+00  6.88D-01  6.41D-01  9.05D-01
                    CP:  9.39D-01  1.19D+00  1.34D+00  1.80D+00  2.28D+00
                    CP:  2.08D+00  2.03D+00  1.49D+00  1.45D+00  1.76D+00
                    CP:  1.96D+00  1.90D+00  1.36D+00
 E= -2034.90325475654     Delta-E=        0.000000000062 Rises=F Damp=F
 DIIS: error= 3.19D-08 at cycle  19 NSaved=  19.
 NSaved=19 IEnMin=18 EnMin= -2034.90325475660     IErMin=19 ErrMin= 3.19D-08
 ErrMax= 3.19D-08  0.00D+00 EMaxC= 1.00D-01 BMatC= 6.78D-13 BMatP= 3.48D-12
 IDIUse=1 WtCom= 1.00D+00 WtEn= 0.00D+00
 Coeff-Com:  0.306D-05-0.617D-05-0.997D-05-0.135D-04 0.557D-05 0.115D-03
 Coeff-Com:  0.495D-03 0.811D-03-0.599D-03-0.594D-02-0.468D-02 0.115D-01
 Coeff-Com:  0.196D-01 0.116D-01-0.651D-01-0.171D+00-0.320D-01 0.485D+00
 Coeff-Com:  0.751D+00
 Coeff:      0.306D-05-0.617D-05-0.997D-05-0.135D-04 0.557D-05 0.115D-03
 Coeff:      0.495D-03 0.811D-03-0.599D-03-0.594D-02-0.468D-02 0.115D-01
 Coeff:      0.196D-01 0.116D-01-0.651D-01-0.171D+00-0.320D-01 0.485D+00
 Coeff:      0.751D+00
 Gap=     0.123 Goal=   None    Shift=    0.000
 RMSDP=5.94D-09 MaxDP=2.84D-07 DE= 6.18D-11 OVMax= 2.47D-06

 SCF Done:  E(RCAM-B3LYP) =  -2034.90325476     A.U. after   19 cycles
            NFock= 19  Conv=0.59D-08     -V/T= 2.0102
 KE= 2.014373886486D+03 PE=-1.545577268098D+04 EE= 6.048800690599D+03
 Leave Link  502 at Thu May 26 10:48:31 2022, MaxMem= 10066329600 cpu:            7216.8 elap:             311.9
 (Enter /sw/apps/gaussian-16.0/g16/l801.exe)
 DoSCS=F DFT=T ScalE2(SS,OS)=  1.000000  1.000000
 ExpMin= 3.36D-02 ExpMax= 4.95D+03 ExpMxC= 7.45D+02 IAcc=3 IRadAn=         5 AccDes= 0.00D+00
 HarFok:  IExCor=  205 AccDes= 0.00D+00 IRadAn=         5 IDoV=-2 UseB2=F ITyADJ=14
 ICtDFT= 12500011 ScaDFX=  1.000000  1.000000  1.000000  1.000000
 GSVD:  LWork=       -2585 too small for GESVD, short by       11750 words or       11750 for optimal perf.
 Largest valence mixing into a core orbital is  1.99D-04
 Largest core mixing into a valence orbital is  5.24D-05
 Range of M.O.s used for correlation:    48   786
 NBasis=   786 NAE=   156 NBE=   156 NFC=    47 NFV=     0
 NROrb=    739 NOA=   109 NOB=   109 NVA=   630 NVB=   630
 Leave Link  801 at Thu May 26 10:48:32 2022, MaxMem= 10066329600 cpu:               3.6 elap:               0.2
 (Enter /sw/apps/gaussian-16.0/g16/l914.exe)
 RHF ground state
 Two-electron integrals replicated using symmetry.
 MDV= 10066329600 DFT=T DoStab=F Mixed=T DoRPA=T DoScal=F NonHer=T
 Making orbital integer symmetry assigments:
 Orbital symmetries:
       Occupied  (A) (A) (A) (A) (A) (A) (A) (A) (A) (A) (A) (A)
                 (A) (A) (A) (A) (A) (A) (A) (A) (A) (A) (A) (A)
                 (A) (A) (A) (A) (A) (A) (A) (A) (A) (A) (A) (A)
                 (A) (A) (A) (A) (A) (A) (A) (A) (A) (A) (A) (A)
                 (A) (A) (A) (A) (A) (A) (A) (A) (A) (A) (A) (A)
                 (A) (A) (A) (A) (A) (A) (A) (A) (A) (A) (A) (A)
                 (A) (A) (A) (A) (A) (A) (A) (A) (A) (A) (A) (A)
                 (A) (A) (A) (A) (A) (A) (A) (A) (A) (A) (A) (A)
                 (A) (A) (A) (A) (A) (A) (A) (A) (A) (A) (A) (A)
                 (A) (A) (A) (A) (A) (A) (A) (A) (A) (A) (A) (A)
                 (A) (A) (A) (A) (A) (A) (A) (A) (A) (A) (A) (A)
                 (A) (A) (A) (A) (A) (A) (A) (A) (A) (A) (A) (A)
                 (A) (A) (A) (A) (A) (A) (A) (A) (A) (A) (A) (A)
       Virtual   (A) (A) (A) (A) (A) (A) (A) (A) (A) (A) (A) (A)
                 (A) (A) (A) (A) (A) (A) (A) (A) (A) (A) (A) (A)
                 (A) (A) (A) (A) (A) (A) (A) (A) (A) (A) (A) (A)
                 (A) (A) (A) (A) (A) (A) (A) (A) (A) (A) (A) (A)
                 (A) (A) (A) (A) (A) (A) (A) (A) (A) (A) (A) (A)
                 (A) (A) (A) (A) (A) (A) (A) (A) (A) (A) (A) (A)
                 (A) (A) (A) (A) (A) (A) (A) (A) (A) (A) (A) (A)
                 (A) (A) (A) (A) (A) (A) (A) (A) (A) (A) (A) (A)
                 (A) (A) (A) (A) (A) (A) (A) (A) (A) (A) (A) (A)
                 (A) (A) (A) (A) (A) (A) (A) (A) (A) (A) (A) (A)
                 (A) (A) (A) (A) (A) (A) (A) (A) (A) (A) (A) (A)
                 (A) (A) (A) (A) (A) (A) (A) (A) (A) (A) (A) (A)
                 (A) (A) (A) (A) (A) (A) (A) (A) (A) (A) (A) (A)
                 (A) (A) (A) (A) (A) (A) (A) (A) (A) (A) (A) (A)
                 (A) (A) (A) (A) (A) (A) (A) (A) (A) (A) (A) (A)
                 (A) (A) (A) (A) (A) (A) (A) (A) (A) (A) (A) (A)
                 (A) (A) (A) (A) (A) (A) (A) (A) (A) (A) (A) (A)
                 (A) (A) (A) (A) (A) (A) (A) (A) (A) (A) (A) (A)
                 (A) (A) (A) (A) (A) (A) (A) (A) (A) (A) (A) (A)
                 (A) (A) (A) (A) (A) (A) (A) (A) (A) (A) (A) (A)
                 (A) (A) (A) (A) (A) (A) (A) (A) (A) (A) (A) (A)
                 (A) (A) (A) (A) (A) (A) (A) (A) (A) (A) (A) (A)
                 (A) (A) (A) (A) (A) (A) (A) (A) (A) (A) (A) (A)
                 (A) (A) (A) (A) (A) (A) (A) (A) (A) (A) (A) (A)
                 (A) (A) (A) (A) (A) (A) (A) (A) (A) (A) (A) (A)
                 (A) (A) (A) (A) (A) (A) (A) (A) (A) (A) (A) (A)
                 (A) (A) (A) (A) (A) (A) (A) (A) (A) (A) (A) (A)
                 (A) (A) (A) (A) (A) (A) (A) (A) (A) (A) (A) (A)
                 (A) (A) (A) (A) (A) (A) (A) (A) (A) (A) (A) (A)
                 (A) (A) (A) (A) (A) (A) (A) (A) (A) (A) (A) (A)
                 (A) (A) (A) (A) (A) (A) (A) (A) (A) (A) (A) (A)
                 (A) (A) (A) (A) (A) (A) (A) (A) (A) (A) (A) (A)
                 (A) (A) (A) (A) (A) (A) (A) (A) (A) (A) (A) (A)
                 (A) (A) (A) (A) (A) (A) (A) (A) (A) (A) (A) (A)
                 (A) (A) (A) (A) (A) (A) (A) (A) (A) (A) (A) (A)
                 (A) (A) (A) (A) (A) (A) (A) (A) (A) (A) (A) (A)
                 (A) (A) (A) (A) (A) (A) (A) (A) (A) (A) (A) (A)
                 (A) (A) (A) (A) (A) (A) (A) (A) (A) (A) (A) (A)
                 (A) (A) (A) (A) (A) (A) (A) (A) (A) (A) (A) (A)
                 (A) (A) (A) (A) (A) (A) (A) (A) (A) (A) (A) (A)
                 (A) (A) (A) (A) (A) (A) (A) (A) (A) (A) (A) (A)
                 (A) (A) (A) (A) (A) (A) (A) (A) (A) (A) (A) (A)
                 (A) (A) (A) (A) (A) (A) (A) (A) (A) (A) (A) (A)
                 (A) (A) (A) (A) (A) (A) (A) (A) (A) (A) (A) (A)
                 (A) (A) (A) (A) (A) (A) (A) (A) (A) (A) (A) (A)
                 (A) (A) (A) (A) (A) (A) (A) (A) (A) (A) (A) (A)
                 (A) (A) (A) (A) (A) (A) (A) (A) (A) (A) (A) (A)
                 (A) (A) (A) (A) (A) (A) (A) (A) (A) (A) (A) (A)
                 (A) (A) (A) (A) (A) (A) (A) (A) (A) (A) (A) (A)
                 (A) (A) (A) (A) (A) (A) (A) (A) (A) (A) (A) (A)
                 (A) (A) (A) (A) (A) (A) (A) (A) (A) (A) (A) (A)
                 (A) (A) (A) (A) (A) (A) (A) (A) (A) (A) (A) (A)
                 (A) (A) (A) (A) (A) (A)
    20 initial guesses have been made.
 Convergence on wavefunction:    0.001000000000000
 Davidson Disk Diagonalization:  ConvIn= 1.00D-03 SkipCon=T Conv= 1.00D-03.
 Max sub-space:  2000 roots to seek:    20 dimension of matrix:       137340
 Iteration     1 Dimension    20 NMult     0 NNew     20
 CISAX will form    20 AO SS matrices at one time.
 NMat=    20 NSing=    20 JSym2X= 0.
 FoFJK:  IHMeth= 1 ICntrl=       0 DoSepK=T KAlg= 0 I1Cent=           0 FoldK=F
 IRaf=         1 NMat=      40 IRICut=       1 DoRegI=T DoRafI=F ISym2E= 0 IDoP0=3 IntGTp=3.
 FoFCou: FMM=T IPFlag=           0 FMFlag=      100000 FMFlg1=        2001
         NFxFlg=           0 DoJE=F BraDBF=F KetDBF=F FulRan=T
         wScrn=  0.000000 ICntrl=       500 IOpCl=  0 I1Cent=           0 NGrid=           0
         NMat0=   20 NMatS0=     20 NMatT0=    0 NMatD0=   20 NMtDS0=    0 NMtDT0=    0
 Symmetry not used in FoFCou.
 FMM levels:  10  Number of levels for PrismC:   9
 New state      3 was old state      4
 New state      4 was old state      5
 New state      5 was old state      7
 Excitation Energies [eV] at current iteration:
 Root      1 :     2.185029352699952
 Root      2 :     2.582167936167211
 Root      3 :     3.589497329552538
 Root      4 :     3.689614088146561
 Root      5 :     3.841050082973184
 Root      6 :     4.066235950215105
 Root      7 :     4.214486415760735
 Root      8 :     4.328367409536368
 Root      9 :     4.404588001694481
 Root     10 :     4.457848574257481
 Root     11 :     4.546189287705471
 Root     12 :     4.620024574955927
 Root     13 :     4.769557481555272
 Root     14 :     4.943689773877638
 Root     15 :     5.025944515350618
 Root     16 :     5.109703499900423
 Root     17 :     5.252932306591568
 Root     18 :     5.384073486986683
 Root     19 :     5.397916709583341
 Root     20 :     5.509480938460791
 Iteration     2 Dimension    30 NMult    20 NNew     10
 CISAX will form    10 AO SS matrices at one time.
 NMat=    10 NSing=    10 JSym2X= 0.
 Root      1 not converged, maximum delta is    0.071932219179356
 Root      2 not converged, maximum delta is    0.058380546025264
 Root      3 not converged, maximum delta is    0.144956602386938
 Root      4 not converged, maximum delta is    0.152883325330075
 Root      5 not converged, maximum delta is    0.173732750521197
 Excitation Energies [eV] at current iteration:
 Root      1 :     1.714992819675120   Change is   -0.470036533024832
 Root      2 :     2.212884681782965   Change is   -0.369283254384245
 Root      3 :     3.276476624693847   Change is   -0.313020704858691
 Root      4 :     3.328689913906504   Change is   -0.360924174240057
 Root      5 :     3.482723877574100   Change is   -0.358326205399084
 Iteration     3 Dimension    40 NMult    30 NNew     10
 CISAX will form    10 AO SS matrices at one time.
 NMat=    10 NSing=    10 JSym2X= 0.
 Root      1 not converged, maximum delta is    0.014956220369694
 Root      2 not converged, maximum delta is    0.022122530283039
 Root      3 not converged, maximum delta is    0.062005641818122
 Root      4 not converged, maximum delta is    0.107201658076674
 Root      5 not converged, maximum delta is    0.118646750460064
 Excitation Energies [eV] at current iteration:
 Root      1 :     1.680208705660218   Change is   -0.034784114014903
 Root      2 :     2.189469885314858   Change is   -0.023414796468108
 Root      3 :     3.259722845986281   Change is   -0.016753778707566
 Root      4 :     3.302660006854053   Change is   -0.026029907052451
 Root      5 :     3.384506145883365   Change is   -0.098217731690736
 Iteration     4 Dimension    50 NMult    40 NNew     10
 CISAX will form    10 AO SS matrices at one time.
 NMat=    10 NSing=    10 JSym2X= 0.
 Root      1 not converged, maximum delta is    0.002982258021419
 Root      2 not converged, maximum delta is    0.003226926436195
 Root      3 not converged, maximum delta is    0.011939600638919
 Root      4 not converged, maximum delta is    0.012580893154176
 Root      5 not converged, maximum delta is    0.012267725395744
 Excitation Energies [eV] at current iteration:
 Root      1 :     1.675985230043266   Change is   -0.004223475616951
 Root      2 :     2.186395993724453   Change is   -0.003073891590405
 Root      3 :     3.256396308920780   Change is   -0.003326537065501
 Root      4 :     3.296646683557558   Change is   -0.006013323296495
 Root      5 :     3.375282714243997   Change is   -0.009223431639368
 Iteration     5 Dimension    60 NMult    50 NNew     10
 CISAX will form    10 AO SS matrices at one time.
 NMat=    10 NSing=    10 JSym2X= 0.
 Root      1 has converged.
 Root      2 has converged.
 Root      3 not converged, maximum delta is    0.005077998850236
 Root      4 not converged, maximum delta is    0.009258696476351
 Root      5 not converged, maximum delta is    0.004986836381574
 Excitation Energies [eV] at current iteration:
 Root      1 :     1.675631582946427   Change is   -0.000353647096839
 Root      2 :     2.186158453464087   Change is   -0.000237540260367
 Root      3 :     3.255968329897883   Change is   -0.000427979022897
 Root      4 :     3.295377668354012   Change is   -0.001269015203545
 Root      5 :     3.374305215993144   Change is   -0.000977498250853
 Iteration     6 Dimension    66 NMult    60 NNew      6
 CISAX will form     6 AO SS matrices at one time.
 NMat=     6 NSing=     6 JSym2X= 0.
 Root      1 has converged.
 Root      2 has converged.
 Root      3 not converged, maximum delta is    0.005299252288429
 Root      4 not converged, maximum delta is    0.014062897828631
 Root      5 not converged, maximum delta is    0.009699527899582
 Excitation Energies [eV] at current iteration:
 Root      1 :     1.675629982802652   Change is   -0.000001600143775
 Root      2 :     2.186155945745941   Change is   -0.000002507718145
 Root      3 :     3.255835695731599   Change is   -0.000132634166284
 Root      4 :     3.294626663579069   Change is   -0.000751004774944
 Root      5 :     3.373972898320551   Change is   -0.000332317672592
 Iteration     7 Dimension    72 NMult    66 NNew      6
 CISAX will form     6 AO SS matrices at one time.
 NMat=     6 NSing=     6 JSym2X= 0.
 Root      1 has converged.
 Root      2 has converged.
 Root      3 not converged, maximum delta is    0.001689557344697
 Root      4 not converged, maximum delta is    0.004723041911113
 Root      5 not converged, maximum delta is    0.004321915241708
 Excitation Energies [eV] at current iteration:
 Root      1 :     1.675629504099947   Change is   -0.000000478702705
 Root      2 :     2.186153100388441   Change is   -0.000002845357500
 Root      3 :     3.255805086035582   Change is   -0.000030609696017
 Root      4 :     3.294434357440672   Change is   -0.000192306138397
 Root      5 :     3.373874798767574   Change is   -0.000098099552977
 Iteration     8 Dimension    78 NMult    72 NNew      6
 CISAX will form     6 AO SS matrices at one time.
 NMat=     6 NSing=     6 JSym2X= 0.
 Root      1 has converged.
 Root      2 has converged.
 Root      3 has converged.
 Root      4 has converged.
 Root      5 has converged.
 Excitation Energies [eV] at current iteration:
 Root      1 :     1.675629387372232   Change is   -0.000000116727715
 Root      2 :     2.186152414101493   Change is   -0.000000686286948
 Root      3 :     3.255801032320505   Change is   -0.000004053715077
 Root      4 :     3.294412152005204   Change is   -0.000022205435468
 Root      5 :     3.373861282496295   Change is   -0.000013516271279
 Convergence achieved on expansion vectors.
 ***********************************************************************
 Excited states from <AA,BB:AA,BB> singles matrix:
 ***********************************************************************
 
 1PDM for each excited state written to RWF  633
 Ground to excited state transition densities written to RWF  633
 Ground to excited state transition electric dipole moments (Au):
       state          X           Y           Z        Dip. S.      Osc.
         1        -2.1660      2.2050      0.0391      9.5551      0.3923
         2        -1.1230     -0.8118      0.0304      1.9211      0.1029
         3         0.0058      0.0074      0.0631      0.0041      0.0003
         4        -0.0689     -0.3647     -0.0352      0.1390      0.0112
         5        -0.1190     -0.2362     -0.0213      0.0704      0.0058
 Ground to excited state transition velocity dipole moments (Au):
       state          X           Y           Z        Dip. S.      Osc.
         1         0.1294     -0.1312     -0.0006      0.0340      0.3678
         2         0.0854      0.0623     -0.0024      0.0112      0.0927
         3        -0.0022     -0.0042     -0.0058      0.0001      0.0003
         4         0.0079      0.0407      0.0051      0.0017      0.0096
         5         0.0145      0.0256     -0.0004      0.0009      0.0047
 Ground to excited state transition magnetic dipole moments (Au):
       state          X           Y           Z
         1         0.1166      0.1537     -0.1728
         2         0.1042      0.0415      0.0647
         3         0.2438     -0.0563      1.0613
         4         0.1410     -0.3324     -0.3233
         5        -0.6031      0.1369      0.0824
 Ground to excited state transition velocity quadrupole moments (Au):
       state          XX          YY          ZZ          XY          XZ          YZ
         1         0.2616     -0.0328      0.0179     -0.2605     -0.0473     -0.0167
         2         0.0638      0.0978     -0.0099      0.0400     -0.0276      0.0618
         3         0.5846     -0.3770      0.0052     -0.0272     -0.0927     -0.0481
         4        -0.2382      0.0994     -0.0372      0.2319      0.1934     -0.0268
         5         0.0247     -0.0557     -0.0229      0.1226      0.0581     -0.0567
 <0|del|b> * <b|rxdel|0> + <0|del|b> * <b|delr+rdel|0>
 Rotatory Strengths (R) in cgs (10**-40 erg-esu-cm/Gauss)
       state          XX          YY          ZZ    R(velocity)    E-M Angle
         1      -149.8183     73.9899     18.8790    -18.9831       95.96
         2        17.8546     62.1082     19.7229     33.2286       34.13
         3       -18.1746    -19.9050     -0.0131    -12.6975      142.23
         4       -63.9108     -5.5679    -12.6616    -27.3801      133.96
         5         5.5464    -27.3031     -8.3885    -10.0484      106.70
 1/2[<0|r|b>*<b|rxdel|0> + (<0|rxdel|b>*<b|r|0>)*]
 Rotatory Strengths (R) in cgs (10**-40 erg-esu-cm/Gauss)
       state          XX          YY          ZZ     R(length)
         1       178.6764   -239.7158      4.7841    -18.7517
         2        82.7130     23.8467     -1.3923     35.0558
         3        -1.0083      0.2966    -47.3607    -16.0241
         4         6.8641    -85.7391     -8.0370    -28.9707
         5       -50.7524     22.8729      1.2431     -8.8788
  1/2[<0|del|b>*<b|r|0> + (<0|r|b>*<b|del|0>)*] (Au)
       state          X           Y           Z        Dip. S.   Osc.(frdel)
         1        -0.2804     -0.2893     -0.0000      0.5697      0.3798
         2        -0.0959     -0.0505     -0.0001      0.1465      0.0977
         3        -0.0000     -0.0000     -0.0004      0.0004      0.0003
         4        -0.0005     -0.0149     -0.0002      0.0156      0.0104
         5        -0.0017     -0.0061      0.0000      0.0078      0.0052

 Excitation energies and oscillator strengths:
 
 Excited State   1:      Singlet-A      1.6756 eV  739.93 nm  f=0.3923  <S**2>=0.000
     155 ->158         0.17361
     156 ->157         0.68605
     155 <-158         0.10463
 This state for optimization and/or second-order correction.
 Total Energy, E(TD-HF/TD-DFT) =  -2034.84167651    
 Copying the excited state density for this state as the 1-particle RhoCI density.
 
 Excited State   2:      Singlet-A      2.1862 eV  567.13 nm  f=0.1029  <S**2>=0.000
     155 ->157         0.64250
     156 ->158        -0.27306
 
 Excited State   3:      Singlet-A      3.2558 eV  380.81 nm  f=0.0003  <S**2>=0.000
     152 ->157        -0.11064
     154 ->157         0.67043
 
 Excited State   4:      Singlet-A      3.2944 eV  376.35 nm  f=0.0112  <S**2>=0.000
     152 ->157        -0.19560
     152 ->160        -0.11066
     153 ->157         0.59200
     156 ->158         0.26299
 
 Excited State   5:      Singlet-A      3.3739 eV  367.48 nm  f=0.0058  <S**2>=0.000
     152 ->157         0.56116
     152 ->159        -0.17378
     152 ->160         0.24253
     153 ->157         0.18826
     154 ->157         0.14855
     156 ->158         0.13576
 SavETr:  write IOETrn=   770 NScale= 10 NData=  16 NLR=1 NState=    5 LETran=     100.
 Leave Link  914 at Thu May 26 11:02:02 2022, MaxMem= 10066329600 cpu:           19304.9 elap:             810.2
 (Enter /sw/apps/gaussian-16.0/g16/l601.exe)
 Copying SCF densities to generalized density rwf, IOpCl= 0 IROHF=0.

 **********************************************************************

   Populations using transition density between ground and state  1.

 **********************************************************************

 Orbital symmetries:
       Occupied  (A) (A) (A) (A) (A) (A) (A) (A) (A) (A) (A) (A)
                 (A) (A) (A) (A) (A) (A) (A) (A) (A) (A) (A) (A)
                 (A) (A) (A) (A) (A) (A) (A) (A) (A) (A) (A) (A)
                 (A) (A) (A) (A) (A) (A) (A) (A) (A) (A) (A) (A)
                 (A) (A) (A) (A) (A) (A) (A) (A) (A) (A) (A) (A)
                 (A) (A) (A) (A) (A) (A) (A) (A) (A) (A) (A) (A)
                 (A) (A) (A) (A) (A) (A) (A) (A) (A) (A) (A) (A)
                 (A) (A) (A) (A) (A) (A) (A) (A) (A) (A) (A) (A)
                 (A) (A) (A) (A) (A) (A) (A) (A) (A) (A) (A) (A)
                 (A) (A) (A) (A) (A) (A) (A) (A) (A) (A) (A) (A)
                 (A) (A) (A) (A) (A) (A) (A) (A) (A) (A) (A) (A)
                 (A) (A) (A) (A) (A) (A) (A) (A) (A) (A) (A) (A)
                 (A) (A) (A) (A) (A) (A) (A) (A) (A) (A) (A) (A)
       Virtual   (A) (A) (A) (A) (A) (A) (A) (A) (A) (A) (A) (A)
                 (A) (A) (A) (A) (A) (A) (A) (A) (A) (A) (A) (A)
                 (A) (A) (A) (A) (A) (A) (A) (A) (A) (A) (A) (A)
                 (A) (A) (A) (A) (A) (A) (A) (A) (A) (A) (A) (A)
                 (A) (A) (A) (A) (A) (A) (A) (A) (A) (A) (A) (A)
                 (A) (A) (A) (A) (A) (A) (A) (A) (A) (A) (A) (A)
                 (A) (A) (A) (A) (A) (A) (A) (A) (A) (A) (A) (A)
                 (A) (A) (A) (A) (A) (A) (A) (A) (A) (A) (A) (A)
                 (A) (A) (A) (A) (A) (A) (A) (A) (A) (A) (A) (A)
                 (A) (A) (A) (A) (A) (A) (A) (A) (A) (A) (A) (A)
                 (A) (A) (A) (A) (A) (A) (A) (A) (A) (A) (A) (A)
                 (A) (A) (A) (A) (A) (A) (A) (A) (A) (A) (A) (A)
                 (A) (A) (A) (A) (A) (A) (A) (A) (A) (A) (A) (A)
                 (A) (A) (A) (A) (A) (A) (A) (A) (A) (A) (A) (A)
                 (A) (A) (A) (A) (A) (A) (A) (A) (A) (A) (A) (A)
                 (A) (A) (A) (A) (A) (A) (A) (A) (A) (A) (A) (A)
                 (A) (A) (A) (A) (A) (A) (A) (A) (A) (A) (A) (A)
                 (A) (A) (A) (A) (A) (A) (A) (A) (A) (A) (A) (A)
                 (A) (A) (A) (A) (A) (A) (A) (A) (A) (A) (A) (A)
                 (A) (A) (A) (A) (A) (A) (A) (A) (A) (A) (A) (A)
                 (A) (A) (A) (A) (A) (A) (A) (A) (A) (A) (A) (A)
                 (A) (A) (A) (A) (A) (A) (A) (A) (A) (A) (A) (A)
                 (A) (A) (A) (A) (A) (A) (A) (A) (A) (A) (A) (A)
                 (A) (A) (A) (A) (A) (A) (A) (A) (A) (A) (A) (A)
                 (A) (A) (A) (A) (A) (A) (A) (A) (A) (A) (A) (A)
                 (A) (A) (A) (A) (A) (A) (A) (A) (A) (A) (A) (A)
                 (A) (A) (A) (A) (A) (A) (A) (A) (A) (A) (A) (A)
                 (A) (A) (A) (A) (A) (A) (A) (A) (A) (A) (A) (A)
                 (A) (A) (A) (A) (A) (A) (A) (A) (A) (A) (A) (A)
                 (A) (A) (A) (A) (A) (A) (A) (A) (A) (A) (A) (A)
                 (A) (A) (A) (A) (A) (A) (A) (A) (A) (A) (A) (A)
                 (A) (A) (A) (A) (A) (A) (A) (A) (A) (A) (A) (A)
                 (A) (A) (A) (A) (A) (A) (A) (A) (A) (A) (A) (A)
                 (A) (A) (A) (A) (A) (A) (A) (A) (A) (A) (A) (A)
                 (A) (A) (A) (A) (A) (A) (A) (A) (A) (A) (A) (A)
                 (A) (A) (A) (A) (A) (A) (A) (A) (A) (A) (A) (A)
                 (A) (A) (A) (A) (A) (A) (A) (A) (A) (A) (A) (A)
                 (A) (A) (A) (A) (A) (A) (A) (A) (A) (A) (A) (A)
                 (A) (A) (A) (A) (A) (A) (A) (A) (A) (A) (A) (A)
                 (A) (A) (A) (A) (A) (A) (A) (A) (A) (A) (A) (A)
                 (A) (A) (A) (A) (A) (A) (A) (A) (A) (A) (A) (A)
                 (A) (A) (A) (A) (A) (A) (A) (A) (A) (A) (A) (A)
                 (A) (A) (A) (A) (A) (A) (A) (A) (A) (A) (A) (A)
                 (A) (A) (A) (A) (A) (A) (A) (A) (A) (A) (A) (A)
                 (A) (A) (A) (A) (A) (A) (A) (A) (A) (A) (A) (A)
                 (A) (A) (A) (A) (A) (A) (A) (A) (A) (A) (A) (A)
                 (A) (A) (A) (A) (A) (A) (A) (A) (A) (A) (A) (A)
                 (A) (A) (A) (A) (A) (A) (A) (A) (A) (A) (A) (A)
                 (A) (A) (A) (A) (A) (A) (A) (A) (A) (A) (A) (A)
                 (A) (A) (A) (A) (A) (A) (A) (A) (A) (A) (A) (A)
                 (A) (A) (A) (A) (A) (A) (A) (A) (A) (A) (A) (A)
                 (A) (A) (A) (A) (A) (A) (A) (A) (A) (A) (A) (A)
                 (A) (A) (A) (A) (A) (A)
 The electronic state is 1-A.
 Alpha  occ. eigenvalues --  -46.87685 -19.26372 -19.19184 -19.18737 -19.18075
 Alpha  occ. eigenvalues --  -14.42522 -14.41384 -14.39376 -14.38624 -10.39114
 Alpha  occ. eigenvalues --  -10.35414 -10.34253 -10.31778 -10.31333 -10.31047
 Alpha  occ. eigenvalues --  -10.30422 -10.30385 -10.30165 -10.29919 -10.29461
 Alpha  occ. eigenvalues --  -10.29425 -10.28742 -10.28675 -10.28429 -10.28164
 Alpha  occ. eigenvalues --  -10.28025 -10.27693 -10.27543 -10.27508 -10.27491
 Alpha  occ. eigenvalues --  -10.27488 -10.27401 -10.27074 -10.26715 -10.26436
 Alpha  occ. eigenvalues --  -10.26162 -10.26049 -10.25959 -10.25876 -10.25423
 Alpha  occ. eigenvalues --  -10.24897 -10.24755 -10.24714  -3.16435  -1.91317
 Alpha  occ. eigenvalues --   -1.90905  -1.90742  -1.16666  -1.08682  -1.06989
 Alpha  occ. eigenvalues --   -1.06968  -1.04519  -1.03687  -1.03063  -1.02136
 Alpha  occ. eigenvalues --   -0.92011  -0.89519  -0.89175  -0.88245  -0.87818
 Alpha  occ. eigenvalues --   -0.87708  -0.87143  -0.85023  -0.83900  -0.82955
 Alpha  occ. eigenvalues --   -0.82676  -0.81620  -0.80466  -0.78659  -0.77168
 Alpha  occ. eigenvalues --   -0.76922  -0.75862  -0.74827  -0.72723  -0.71605
 Alpha  occ. eigenvalues --   -0.69782  -0.68851  -0.67626  -0.67223  -0.65295
 Alpha  occ. eigenvalues --   -0.64794  -0.64677  -0.64228  -0.62302  -0.60363
 Alpha  occ. eigenvalues --   -0.59820  -0.59017  -0.58450  -0.57578  -0.57260
 Alpha  occ. eigenvalues --   -0.56228  -0.55909  -0.55475  -0.55272  -0.54512
 Alpha  occ. eigenvalues --   -0.53936  -0.53251  -0.53165  -0.52926  -0.52691
 Alpha  occ. eigenvalues --   -0.52425  -0.51910  -0.51682  -0.51225  -0.50498
 Alpha  occ. eigenvalues --   -0.50003  -0.49891  -0.49511  -0.49226  -0.49128
 Alpha  occ. eigenvalues --   -0.48582  -0.48400  -0.48362  -0.47618  -0.47142
 Alpha  occ. eigenvalues --   -0.46733  -0.46577  -0.46295  -0.46110  -0.45846
 Alpha  occ. eigenvalues --   -0.45233  -0.44538  -0.44500  -0.44151  -0.44102
 Alpha  occ. eigenvalues --   -0.43962  -0.43577  -0.43410  -0.42954  -0.42925
 Alpha  occ. eigenvalues --   -0.42578  -0.41988  -0.41693  -0.41482  -0.41014
 Alpha  occ. eigenvalues --   -0.40745  -0.40722  -0.40518  -0.40249  -0.39450
 Alpha  occ. eigenvalues --   -0.38375  -0.37677  -0.37290  -0.37223  -0.36794
 Alpha  occ. eigenvalues --   -0.36241  -0.34278  -0.33885  -0.33200  -0.31296
 Alpha  occ. eigenvalues --   -0.30997  -0.29980  -0.29351  -0.29236  -0.24060
 Alpha  occ. eigenvalues --   -0.21141
 Alpha virt. eigenvalues --   -0.08816  -0.01708  -0.00052   0.02183   0.03205
 Alpha virt. eigenvalues --    0.04706   0.05142   0.06161   0.06884   0.07879
 Alpha virt. eigenvalues --    0.08843   0.09029   0.09259   0.09913   0.10475
 Alpha virt. eigenvalues --    0.10812   0.11564   0.12059   0.12288   0.12483
 Alpha virt. eigenvalues --    0.12797   0.13054   0.13902   0.14434   0.14899
 Alpha virt. eigenvalues --    0.15190   0.15318   0.15547   0.15697   0.15764
 Alpha virt. eigenvalues --    0.16092   0.16490   0.17023   0.17157   0.17658
 Alpha virt. eigenvalues --    0.17894   0.18090   0.18256   0.18483   0.19027
 Alpha virt. eigenvalues --    0.19324   0.19472   0.19716   0.19822   0.20185
 Alpha virt. eigenvalues --    0.20233   0.20912   0.21650   0.21828   0.22018
 Alpha virt. eigenvalues --    0.22548   0.22932   0.23981   0.24420   0.24826
 Alpha virt. eigenvalues --    0.24905   0.25409   0.25559   0.25829   0.26313
 Alpha virt. eigenvalues --    0.26629   0.26865   0.27107   0.27712   0.27810
 Alpha virt. eigenvalues --    0.28208   0.28659   0.28919   0.29521   0.29640
 Alpha virt. eigenvalues --    0.30457   0.30551   0.31511   0.31563   0.31900
 Alpha virt. eigenvalues --    0.32496   0.32706   0.33137   0.33443   0.34078
 Alpha virt. eigenvalues --    0.34914   0.35331   0.35975   0.36519   0.37010
 Alpha virt. eigenvalues --    0.37947   0.38363   0.38721   0.39834   0.39918
 Alpha virt. eigenvalues --    0.40449   0.40986   0.41521   0.41916   0.42460
 Alpha virt. eigenvalues --    0.42855   0.43622   0.44364   0.44450   0.44633
 Alpha virt. eigenvalues --    0.45258   0.45374   0.45965   0.46113   0.46681
 Alpha virt. eigenvalues --    0.47031   0.47316   0.47825   0.48375   0.48493
 Alpha virt. eigenvalues --    0.48839   0.49156   0.49493   0.49816   0.50049
 Alpha virt. eigenvalues --    0.50640   0.51024   0.51210   0.51694   0.52044
 Alpha virt. eigenvalues --    0.52339   0.52940   0.53329   0.53866   0.54291
 Alpha virt. eigenvalues --    0.54562   0.55032   0.55363   0.55672   0.55929
 Alpha virt. eigenvalues --    0.56094   0.56599   0.57103   0.57420   0.57811
 Alpha virt. eigenvalues --    0.58351   0.58432   0.58908   0.58973   0.59497
 Alpha virt. eigenvalues --    0.59980   0.60548   0.60757   0.61511   0.62236
 Alpha virt. eigenvalues --    0.62379   0.62809   0.63663   0.64206   0.64454
 Alpha virt. eigenvalues --    0.64680   0.65072   0.65528   0.65626   0.66337
 Alpha virt. eigenvalues --    0.66741   0.67098   0.67418   0.67717   0.67816
 Alpha virt. eigenvalues --    0.68008   0.68167   0.68555   0.68874   0.69308
 Alpha virt. eigenvalues --    0.69389   0.69571   0.69942   0.70036   0.70272
 Alpha virt. eigenvalues --    0.70555   0.70654   0.70956   0.71132   0.71287
 Alpha virt. eigenvalues --    0.71609   0.71666   0.71894   0.71984   0.72305
 Alpha virt. eigenvalues --    0.72394   0.72617   0.72867   0.73211   0.73327
 Alpha virt. eigenvalues --    0.73409   0.73570   0.73653   0.74002   0.74189
 Alpha virt. eigenvalues --    0.74537   0.74633   0.74915   0.75012   0.75290
 Alpha virt. eigenvalues --    0.75467   0.75658   0.75963   0.76348   0.76402
 Alpha virt. eigenvalues --    0.76501   0.76888   0.77211   0.77540   0.77994
 Alpha virt. eigenvalues --    0.78194   0.78376   0.78678   0.78965   0.79201
 Alpha virt. eigenvalues --    0.79725   0.80430   0.80501   0.80721   0.81206
 Alpha virt. eigenvalues --    0.81323   0.81558   0.81860   0.82323   0.82630
 Alpha virt. eigenvalues --    0.83062   0.83258   0.83522   0.84248   0.84678
 Alpha virt. eigenvalues --    0.84732   0.84896   0.85397   0.85647   0.86123
 Alpha virt. eigenvalues --    0.86553   0.87289   0.87612   0.88487   0.89245
 Alpha virt. eigenvalues --    0.90071   0.91343   0.91573   0.92015   0.92487
 Alpha virt. eigenvalues --    0.92853   0.94121   0.95447   0.96479   0.97001
 Alpha virt. eigenvalues --    0.98238   0.98826   0.99302   1.00292   1.00871
 Alpha virt. eigenvalues --    1.01206   1.02065   1.02582   1.03122   1.04509
 Alpha virt. eigenvalues --    1.04847   1.05638   1.06236   1.06500   1.07034
 Alpha virt. eigenvalues --    1.08443   1.08538   1.09469   1.10592   1.11125
 Alpha virt. eigenvalues --    1.11438   1.12117   1.12633   1.12901   1.13724
 Alpha virt. eigenvalues --    1.14668   1.15271   1.15373   1.16719   1.17776
 Alpha virt. eigenvalues --    1.18745   1.18808   1.19106   1.19984   1.20196
 Alpha virt. eigenvalues --    1.21607   1.21929   1.23072   1.23896   1.24843
 Alpha virt. eigenvalues --    1.25612   1.26019   1.26460   1.27031   1.28409
 Alpha virt. eigenvalues --    1.28716   1.28836   1.30265   1.30506   1.30916
 Alpha virt. eigenvalues --    1.32384   1.33772   1.34514   1.35033   1.35783
 Alpha virt. eigenvalues --    1.36231   1.36875   1.37674   1.38286   1.40170
 Alpha virt. eigenvalues --    1.40583   1.40837   1.41242   1.41783   1.42553
 Alpha virt. eigenvalues --    1.43646   1.43983   1.44549   1.45012   1.45817
 Alpha virt. eigenvalues --    1.46049   1.46722   1.47241   1.47418   1.47748
 Alpha virt. eigenvalues --    1.49056   1.50368   1.50696   1.51490   1.52422
 Alpha virt. eigenvalues --    1.53645   1.53792   1.54055   1.54684   1.55329
 Alpha virt. eigenvalues --    1.56577   1.56727   1.56977   1.57468   1.58160
 Alpha virt. eigenvalues --    1.58480   1.58685   1.59286   1.60300   1.60779
 Alpha virt. eigenvalues --    1.61165   1.61516   1.62354   1.62536   1.63519
 Alpha virt. eigenvalues --    1.64096   1.64704   1.64939   1.65983   1.66107
 Alpha virt. eigenvalues --    1.66476   1.66965   1.67896   1.68304   1.68938
 Alpha virt. eigenvalues --    1.69169   1.69690   1.70624   1.71201   1.72039
 Alpha virt. eigenvalues --    1.73079   1.73839   1.74401   1.75107   1.75366
 Alpha virt. eigenvalues --    1.76525   1.77216   1.77552   1.77923   1.78216
 Alpha virt. eigenvalues --    1.79207   1.79470   1.80012   1.80676   1.80965
 Alpha virt. eigenvalues --    1.81283   1.81686   1.81910   1.82210   1.82549
 Alpha virt. eigenvalues --    1.82748   1.83142   1.83450   1.83823   1.84134
 Alpha virt. eigenvalues --    1.84457   1.84718   1.85056   1.85279   1.85419
 Alpha virt. eigenvalues --    1.85831   1.86313   1.86583   1.86755   1.86973
 Alpha virt. eigenvalues --    1.87413   1.87702   1.87944   1.88109   1.88504
 Alpha virt. eigenvalues --    1.88868   1.89002   1.89590   1.89808   1.90119
 Alpha virt. eigenvalues --    1.90824   1.91355   1.91520   1.92112   1.92591
 Alpha virt. eigenvalues --    1.93079   1.93431   1.94238   1.94744   1.95521
 Alpha virt. eigenvalues --    1.95742   1.95977   1.96102   1.96411   1.96865
 Alpha virt. eigenvalues --    1.97471   1.97730   1.98095   1.98278   1.99000
 Alpha virt. eigenvalues --    1.99860   2.00653   2.01024   2.01435   2.01536
 Alpha virt. eigenvalues --    2.01752   2.02638   2.03068   2.03307   2.03448
 Alpha virt. eigenvalues --    2.03953   2.04904   2.05558   2.06214   2.06960
 Alpha virt. eigenvalues --    2.07274   2.08482   2.08931   2.09539   2.10960
 Alpha virt. eigenvalues --    2.11333   2.11459   2.11792   2.12392   2.12727
 Alpha virt. eigenvalues --    2.12795   2.13556   2.14178   2.15333   2.16006
 Alpha virt. eigenvalues --    2.16518   2.17097   2.17575   2.17858   2.17929
 Alpha virt. eigenvalues --    2.18597   2.19159   2.19744   2.20167   2.20363
 Alpha virt. eigenvalues --    2.21098   2.21688   2.21800   2.22626   2.23265
 Alpha virt. eigenvalues --    2.24343   2.24930   2.26364   2.26932   2.27126
 Alpha virt. eigenvalues --    2.28237   2.29360   2.29802   2.30545   2.30749
 Alpha virt. eigenvalues --    2.31123   2.32163   2.33157   2.33406   2.34063
 Alpha virt. eigenvalues --    2.35221   2.35831   2.36255   2.36371   2.37599
 Alpha virt. eigenvalues --    2.38304   2.38704   2.39589   2.40188   2.40749
 Alpha virt. eigenvalues --    2.41134   2.41615   2.42048   2.42743   2.42990
 Alpha virt. eigenvalues --    2.43897   2.44724   2.44907   2.45489   2.46204
 Alpha virt. eigenvalues --    2.46414   2.46717   2.47294   2.47803   2.49311
 Alpha virt. eigenvalues --    2.49810   2.50373   2.51182   2.51527   2.52313
 Alpha virt. eigenvalues --    2.53078   2.53885   2.54199   2.54720   2.55580
 Alpha virt. eigenvalues --    2.57991   2.58815   2.60212   2.60835   2.61732
 Alpha virt. eigenvalues --    2.62341   2.63036   2.64128   2.64336   2.65008
 Alpha virt. eigenvalues --    2.65770   2.66729   2.66964   2.67888   2.68727
 Alpha virt. eigenvalues --    2.68939   2.69500   2.70044   2.70974   2.71800
 Alpha virt. eigenvalues --    2.72398   2.72640   2.73192   2.73374   2.74411
 Alpha virt. eigenvalues --    2.74959   2.76424   2.76968   2.77508   2.78200
 Alpha virt. eigenvalues --    2.78592   2.79058   2.80168   2.80591   2.81051
 Alpha virt. eigenvalues --    2.81890   2.82234   2.83748   2.83804   2.84426
 Alpha virt. eigenvalues --    2.84784   2.85593   2.86558   2.87074   2.88138
 Alpha virt. eigenvalues --    2.88514   2.88770   2.90557   2.90966   2.93218
 Alpha virt. eigenvalues --    2.93668   2.94471   2.95370   2.95738   2.96272
 Alpha virt. eigenvalues --    2.96769   2.97930   2.98254   2.98469   2.98674
 Alpha virt. eigenvalues --    2.98818   2.99698   2.99913   3.00234   3.00888
 Alpha virt. eigenvalues --    3.01798   3.02012   3.02719   3.03213   3.03604
 Alpha virt. eigenvalues --    3.03948   3.04327   3.04621   3.05248   3.06059
 Alpha virt. eigenvalues --    3.06831   3.07818   3.09252   3.10328   3.10633
 Alpha virt. eigenvalues --    3.11374   3.11794   3.12198   3.13543   3.13583
 Alpha virt. eigenvalues --    3.14369   3.15883   3.17412   3.17775   3.18926
 Alpha virt. eigenvalues --    3.22492   3.24331   3.25085   3.26549   3.27287
 Alpha virt. eigenvalues --    3.29116   3.31271   3.33078   3.40156   3.42713
 Alpha virt. eigenvalues --    3.48589   3.50174   3.50729   3.56898   3.59232
 Alpha virt. eigenvalues --    3.62408   3.66011   3.67437   3.73915   3.76573
          Condensed to atoms (all electrons):
 Mulliken charges:
               1
     1  Mg  12.000230
     2  C    5.983915
     3  C    6.022142
     4  C    6.014898
     5  C    5.975778
     6  N    6.995803
     7  C    6.034438
     8  C    5.990245
     9  C    6.009510
    10  C    5.968914
    11  C    6.001025
    12  C    5.995286
    13  C    5.998611
    14  H    1.000126
    15  N    7.006755
    16  C    5.952852
    17  C    5.974943
    18  C    5.980880
    19  C    5.972862
    20  C    6.007257
    21  C    5.985521
    22  O    7.968819
    23  C    6.005727
    24  N    6.997269
    25  C    5.971372
    26  C    6.012650
    27  C    5.985429
    28  C    6.036604
    29  C    5.999995
    30  C    5.995944
    31  C    5.998867
    32  N    6.993675
    33  C    6.054673
    34  C    6.020502
    35  C    6.010375
    36  C    6.031433
    37  C    5.994853
    38  C    6.013817
    39  O    8.032835
    40  C    6.002261
    41  C    6.003681
    42  O    8.004437
    43  O    8.001997
    44  C    5.997874
    45  H    0.993378
    46  H    0.992515
    47  H    1.007754
    48  H    0.999974
    49  H    1.000325
    50  H    0.983118
    51  H    1.005163
    52  H    0.996758
    53  H    1.015535
    54  H    0.994323
    55  H    1.001065
    56  H    1.007550
    57  H    0.977523
    58  H    0.978245
    59  H    0.977360
    60  H    0.994389
    61  H    0.984009
    62  H    0.992140
    63  H    1.000094
    64  H    1.004531
    65  H    0.999227
    66  H    1.005362
    67  H    0.988712
    68  H    1.009865
    69  H    0.996695
    70  H    1.012527
    71  H    1.001049
    72  H    0.996587
    73  H    1.017060
    74  H    1.019097
    75  H    1.020029
    76  H    1.008468
    77  H    1.003354
    78  H    1.006621
    79  H    1.002516
 Sum of Mulliken charges = 312.00000
 Mulliken charges with hydrogens summed into heavy atoms:
               1
     1  Mg  12.000230
     2  C    5.983915
     3  C    7.015520
     4  C    7.007413
     5  C    6.983532
     6  N    6.995803
     7  C    6.034438
     8  C    6.990219
     9  C    7.009834
    10  C    5.968914
    11  C    8.986064
    12  C    8.005144
    13  C    9.007352
    15  N    7.006755
    16  C    5.952852
    17  C    5.974943
    18  C    5.980880
    19  C    5.972862
    20  C    8.940386
    21  C    5.985521
    22  O    7.968819
    23  C    8.976265
    24  N    6.997269
    25  C    5.971372
    26  C    7.012744
    27  C    6.989960
    28  C    6.036604
    29  C    8.993296
    30  C    8.002504
    31  C    9.009030
    32  N    6.993675
    33  C    6.054673
    34  C    6.020502
    35  C    6.010375
    36  C    6.031433
    37  C    9.051039
    38  C    6.013817
    39  O    8.032835
    40  C    7.010729
    41  C    6.003681
    42  O    8.004437
    43  O    8.001997
    44  C    9.010366
 Electronic spatial extent (au):  <R**2>=              5.6647
 Charge=             -0.0000 electrons
 Dipole moment (field-independent basis, Debye):
    X=             -7.7860    Y=              7.9259    Z=              0.1407  Tot=             11.1113
 Quadrupole moment (field-independent basis, Debye-Ang):
   XX=             -8.1284   YY=              0.9676   ZZ=             -0.4585
   XY=              7.9661   XZ=              1.5283   YZ=              0.6120
 Traceless Quadrupole moment (field-independent basis, Debye-Ang):
   XX=             -5.5887   YY=              3.5074   ZZ=              2.0813
   XY=              7.9661   XZ=              1.5283   YZ=              0.6120
 Octapole moment (field-independent basis, Debye-Ang**2):
  XXX=           -171.0153  YYY=            132.7098  ZZZ=             -1.8755  XYY=            -79.0767
  XXY=             84.1850  XXZ=              5.1994  XZZ=             -8.5499  YZZ=             11.3755
  YYZ=              3.6180  XYZ=            -14.7348
 Hexadecapole moment (field-independent basis, Debye-Ang**3):
 XXXX=           -273.8939 YYYY=              7.5883 ZZZZ=             -6.3541 XXXY=            243.0724
 XXXZ=             77.4968 YYYX=            155.9981 YYYZ=             16.7643 ZZZX=              8.3275
 ZZZY=              2.6747 XXYY=            -81.2890 XXZZ=            -15.7598 YYZZ=             -3.6061
 XXYZ=            -31.6302 YYXZ=              6.2005 ZZXY=             10.7496
 N-N= 5.357694849134D+03 E-N= 4.005462299082D-01  KE= 1.923623080504D-02
 Leave Link  601 at Thu May 26 11:02:03 2022, MaxMem= 10066329600 cpu:               9.5 elap:               0.5
 (Enter /sw/apps/gaussian-16.0/g16/l9999.exe)
 Electronic transition elements 
                 1             2             3             4             5 
      1  -0.203484D+04 -0.203482D+04 -0.203478D+04 -0.203478D+04 -0.203478D+04
      2   0.330527D+00 -0.143807D+00 -0.612337D-01 -0.214176D-01 -0.144336D-01
      3  -0.302455D+01  0.201705D-01 -0.112690D-01  0.262344D+00  0.127580D+00
      4   0.545840D+00  0.137840D+01 -0.139792D-01  0.264033D+00  0.232218D+00
      5  -0.213338D-01  0.110648D-01  0.509826D-02  0.127162D-02  0.421055D-02
      6   0.180057D+00 -0.196550D-02  0.297413D-02 -0.293326D-01 -0.125726D-01
      7  -0.330703D-01 -0.105088D+00  0.459058D-02 -0.297549D-01 -0.263293D-01
      8   0.193337D+00 -0.586246D-01 -0.105980D+01  0.265794D+00 -0.530731D-01
      9  -0.356183D-01  0.164410D-01  0.404182D-01  0.393819D+00 -0.463917D+00
     10  -0.168698D+00 -0.114248D+00 -0.253157D+00  0.957397D-01  0.413780D+00
     11   0.217188D-01 -0.271087D-01  0.874593D-02 -0.220301D-01 -0.536926D-02
     12   0.305868D+00  0.659737D-01 -0.331351D-01 -0.260336D+00 -0.163626D+00
     13  -0.808523D-01  0.112891D+00  0.237170D+00  0.106391D+00  0.115016D+00
     14  -0.728200D-02  0.534917D-01  0.561795D-01 -0.122213D+00 -0.608505D-01
     15  -0.896172D-02 -0.262532D-02 -0.592930D-01  0.100897D+00  0.496219D-02
     16  -0.234235D+00  0.356190D-01 -0.467161D+00  0.247070D+00  0.201592D-02
 1\1\GINC-BP1-COMPUTE129\SP\RCAM-B3LYP TD-FC\def2SVP\C34H36Mg1N4O4\OF15
 641\26-May-2022\0\\#p cam-b3lyp/Def2SVP td=(nstates=5) density=(transi
 tion=1)\\TDDFT excited states in gaussian\\0,1\Mg,0,8.94055,0.80924,0.
 68562\C,0,8.71971,-1.41348,3.4945\C,0,7.68386,3.25081,2.709\C,0,8.6987
 ,2.66808,-1.87439\C,0,9.08051,-2.01041,-1.35783\N,0,8.3213,0.79794,2.8
 0898\C,0,8.34029,-0.08824,3.79319\C,0,8.00664,0.49663,5.19182\C,0,7.16
 198,1.77874,4.72106\C,0,7.77968,1.98455,3.33948\C,0,5.68032,1.49133,4.
 54381\C,0,9.29284,0.91632,5.98653\C,0,9.0652,1.20568,7.47186\H,0,10.11
 481,0.84355,8.42036\N,0,8.75775,2.78018,0.54227\C,0,8.24662,3.61941,1.
 46732\C,0,8.31639,4.9635,0.87342\C,0,8.75799,4.82885,-0.54135\C,0,8.73
 473,3.38738,-0.6887\C,0,8.05757,6.2153,1.66046\C,0,9.12635,5.83201,-1.
 59215\O,0,9.2506,5.50167,-2.82433\C,0,9.24576,7.22945,-1.15125\N,0,8.6
 8274,0.39823,-1.336\C,0,8.66299,1.38817,-2.2457\C,0,8.74418,0.83986,-3
 .65039\C,0,9.06763,-0.71764,-3.4856\C,0,9.02744,-0.82285,-1.94524\C,0,
 7.48843,1.01096,-4.50491\C,0,10.31794,-1.2595,-4.23111\C,0,11.57364,-0
 .67516,-3.62518\N,0,9.09414,-1.32457,0.98781\C,0,9.11126,-2.32774,-0.0
 0589\C,0,9.11099,-3.63054,0.69063\C,0,9.07016,-3.29244,2.0517\C,0,9.02
 625,-1.87907,2.19296\C,0,9.09729,-4.90869,0.06432\C,0,9.04349,-3.81002
 ,3.40081\O,0,9.14807,-4.92755,3.90472\C,0,8.68771,-2.61941,4.3919\C,0,
 9.65882,-2.66458,5.53969\O,0,10.86919,-2.44885,5.35241\O,0,8.9727,-2.7
 3885,6.69472\C,0,9.8923,-2.77492,7.86299\H,0,7.08571,4.02563,3.18937\H
 ,0,8.7265,3.26493,-2.78898\H,0,9.22225,-2.93482,-1.92179\H,0,7.39494,-
 0.14242,5.81729\H,0,7.35859,2.63699,5.35833\H,0,5.45838,0.43984,4.6498
 9\H,0,5.4318,1.83179,3.54713\H,0,5.092,2.10876,5.22864\H,0,9.6142,1.90
 995,5.64864\H,0,10.0659,0.18094,5.87598\H,0,8.09106,0.83984,7.8185\H,0
 ,9.00956,2.2882,7.60996\H,0,7.59312,5.99268,2.62903\H,0,7.2941,6.78252
 ,1.1171\H,0,8.94913,6.83663,1.7688\H,0,8.30272,7.553,-0.71714\H,0,9.60
 243,7.78146,-2.023\H,0,9.99417,7.2816,-0.35264\H,0,9.54882,1.30934,-4.
 20288\H,0,8.24863,-1.34624,-3.86499\H,0,7.67427,1.55601,-5.44961\H,0,6
 .73958,1.5203,-3.91302\H,0,6.98165,0.08509,-4.77163\H,0,10.30183,-0.94
 329,-5.27701\H,0,10.39025,-2.34195,-4.22301\H,0,11.65587,0.29801,-4.11
 84\H,0,12.43397,-1.30365,-3.84625\H,0,11.4441,-0.49108,-2.55234\H,0,9.
 80816,-5.52486,0.59864\H,0,9.34762,-4.83651,-0.99204\H,0,8.05269,-5.19
 111,0.22026\H,0,7.65793,-2.76373,4.72099\H,0,9.64371,-3.67249,8.43767\
 H,0,9.76748,-1.80052,8.37163\H,0,10.94605,-2.93462,7.66663\\Version=ES
 64L-G16RevA.03\State=1-A\HF=-2034.9032548\RMSD=5.944e-09\PG=C01 [X(C34
 H36Mg1N4O4)]\\@


 THEORY:  SUPPOSITION WHICH HAS SCIENTIFIC BASIS,
          BUT NOT EXPERIMENTALLY PROVEN.
 FACT:    A THEORY WHICH HAS BEEN PROVEN BY ENOUGH 
          MONEY TO PAY FOR THE EXPERIMENTS.

                          --  THE WIZARD OF ID
 Job cpu time:       0 days  7 hours 24 minutes 22.7 seconds.
 Elapsed time:       0 days  0 hours 18 minutes 48.3 seconds.
 File lengths (MBytes):  RWF=   3340 Int=      0 D2E=      0 Chk=    144 Scr=      1
 Normal termination of Gaussian 16 at Thu May 26 11:02:03 2022.
