 Entering Gaussian System, Link 0=g16
 Initial command:
 /sw/apps/gaussian-16.0/g16/l1.exe "/tmp/Gau-232666.inp" -scrdir="/tmp/"
 Entering Link 1 = /sw/apps/gaussian-16.0/g16/l1.exe PID=    232667.
  
 Copyright (c) 1988,1990,1992,1993,1995,1998,2003,2009,2016,
            Gaussian, Inc.  All Rights Reserved.
  
 This is part of the Gaussian(R) 16 program.  It is based on
 the Gaussian(R) 09 system (copyright 2009, Gaussian, Inc.),
 the Gaussian(R) 03 system (copyright 2003, Gaussian, Inc.),
 the Gaussian(R) 98 system (copyright 1998, Gaussian, Inc.),
 the Gaussian(R) 94 system (copyright 1995, Gaussian, Inc.),
 the Gaussian 92(TM) system (copyright 1992, Gaussian, Inc.),
 the Gaussian 90(TM) system (copyright 1990, Gaussian, Inc.),
 the Gaussian 88(TM) system (copyright 1988, Gaussian, Inc.),
 the Gaussian 86(TM) system (copyright 1986, Carnegie Mellon
 University), and the Gaussian 82(TM) system (copyright 1983,
 Carnegie Mellon University). Gaussian is a federally registered
 trademark of Gaussian, Inc.
  
 This software contains proprietary and confidential information,
 including trade secrets, belonging to Gaussian, Inc.
  
 This software is provided under written license and may be
 used, copied, transmitted, or stored only in accord with that
 written license.
  
 The following legend is applicable only to US Government
 contracts under FAR:
  
                    RESTRICTED RIGHTS LEGEND
  
 Use, reproduction and disclosure by the US Government is
 subject to restrictions as set forth in subparagraphs (a)
 and (c) of the Commercial Computer Software - Restricted
 Rights clause in FAR 52.227-19.
  
 Gaussian, Inc.
 340 Quinnipiac St., Bldg. 40, Wallingford CT 06492
  
  
 ---------------------------------------------------------------
 Warning -- This program may not be used in any manner that
 competes with the business of Gaussian, Inc. or will provide
 assistance to any competitor of Gaussian, Inc.  The licensee
 of this program is prohibited from giving any competitor of
 Gaussian, Inc. access to this program.  By using this program,
 the user acknowledges that Gaussian, Inc. is engaged in the
 business of creating and licensing software in the field of
 computational chemistry and represents and warrants to the
 licensee that it is not a competitor of Gaussian, Inc. and that
 it will not use this program in any manner prohibited above.
 ---------------------------------------------------------------
  

 Cite this work as:
 Gaussian 16, Revision A.03,
 M. J. Frisch, G. W. Trucks, H. B. Schlegel, G. E. Scuseria, 
 M. A. Robb, J. R. Cheeseman, G. Scalmani, V. Barone, 
 G. A. Petersson, H. Nakatsuji, X. Li, M. Caricato, A. V. Marenich, 
 J. Bloino, B. G. Janesko, R. Gomperts, B. Mennucci, H. P. Hratchian, 
 J. V. Ortiz, A. F. Izmaylov, J. L. Sonnenberg, D. Williams-Young, 
 F. Ding, F. Lipparini, F. Egidi, J. Goings, B. Peng, A. Petrone, 
 T. Henderson, D. Ranasinghe, V. G. Zakrzewski, J. Gao, N. Rega, 
 G. Zheng, W. Liang, M. Hada, M. Ehara, K. Toyota, R. Fukuda, 
 J. Hasegawa, M. Ishida, T. Nakajima, Y. Honda, O. Kitao, H. Nakai, 
 T. Vreven, K. Throssell, J. A. Montgomery, Jr., J. E. Peralta, 
 F. Ogliaro, M. J. Bearpark, J. J. Heyd, E. N. Brothers, K. N. Kudin, 
 V. N. Staroverov, T. A. Keith, R. Kobayashi, J. Normand, 
 K. Raghavachari, A. P. Rendell, J. C. Burant, S. S. Iyengar, 
 J. Tomasi, M. Cossi, J. M. Millam, M. Klene, C. Adamo, R. Cammi, 
 J. W. Ochterski, R. L. Martin, K. Morokuma, O. Farkas, 
 J. B. Foresman, and D. J. Fox, Gaussian, Inc., Wallingford CT, 2016.
 
 ******************************************
 Gaussian 16:  ES64L-G16RevA.03 25-Dec-2016
                 4-Sep-2021 
 ******************************************
 %nproc=24
 Will use up to   24 processors via shared memory.
 %mem=175gb
 -----------------------------------
 #p cam-b3lyp/Def2SVP td=(nstates=5)
 -----------------------------------
 1/38=1,172=1/1;
 2/12=2,17=6,18=5,40=1/2;
 3/5=43,7=101,11=9,25=1,30=1,74=-40/1,2,3,8;
 4//1;
 5/5=2,38=5/2;
 8/6=1,10=1,108=5/1;
 9/41=5,42=1,70=2/14;
 6/7=2,8=2,9=2,10=2/1;
 99/5=1,9=1/99;
 Leave Link    1 at Sat Sep  4 04:14:57 2021, MaxMem= 23488102400 cpu:               0.9 elap:               0.0
 (Enter /sw/apps/gaussian-16.0/g16/l101.exe)
 --------------------------------
 TDDFT excited states in gaussian
 --------------------------------
 Symbolic Z-matrix:
 Charge =  0 Multiplicity = 1
 Mg                    0.        0.        0. 
 C                    -0.217    -2.218     2.801 
 C                    -1.255     2.442     2.026 
 C                    -0.245     1.85     -2.564 
 C                     0.146    -2.824    -2.037 
 N                    -0.617    -0.009     2.126 
 C                    -0.594    -0.908     3.105 
 C                    -0.936    -0.309     4.502 
 C                    -1.773     0.964     4.032 
 C                    -1.155     1.168     2.66 
 C                    -3.263     0.685     3.863 
 C                     0.345     0.11      5.299 
 C                     0.124     0.397     6.787 
 H                     1.168     0.033     7.733 
 N                    -0.185     1.961    -0.152 
 C                    -0.703     2.8       0.777 
 C                    -0.62      4.156     0.193 
 C                    -0.187     4.015    -1.225 
 C                    -0.214     2.583    -1.38 
 C                    -0.887     5.406     0.974 
 C                     0.181     5.013    -2.277 
 O                     0.303     4.69     -3.508 
 C                     0.31      6.414    -1.837 
 N                    -0.265    -0.413    -2.029 
 C                    -0.279     0.569    -2.937 
 C                    -0.196     0.024    -4.332 
 C                     0.124    -1.533    -4.18 
 C                     0.086    -1.632    -2.635 
 C                    -1.451     0.205    -5.197 
 C                     1.373    -2.07     -4.923 
 C                     2.626    -1.49     -4.306 
 N                     0.15     -2.144     0.303 
 C                     0.173    -3.136    -0.688 
 C                     0.173    -4.438     0.004 
 C                     0.133    -4.111     1.358 
 C                     0.083    -2.695     1.502 
 C                     0.149    -5.715    -0.623 
 C                     0.096    -4.629     2.716 
 O                     0.208    -5.747     3.221 
 C                    -0.255    -3.428     3.701 
 C                     0.717    -3.482     4.848 
 O                     1.931    -3.255     4.669 
 O                     0.038    -3.556     6.003 
 C                     0.943    -3.583     7.183 
 H                    -1.859     3.22      2.497 
 H                    -0.218     2.453    -3.474 
 H                     0.276    -3.747    -2.605 
 H                    -1.554    -0.949     5.132 
 H                    -1.585     1.831     4.665 
 H                    -3.484    -0.377     3.969 
 H                    -3.511     1.027     2.858 
 H                    -3.852     1.301     4.543 
 H                     0.669     1.096     4.966 
 H                     1.13     -0.639     5.189 
 H                    -0.844     0.026     7.125 
 H                     0.062     1.477     6.921 
 H                    -1.344     5.186     1.938 
 H                    -1.651     5.963     0.432 
 H                     0.007     6.02      1.084 
 H                    -0.635     6.744    -1.405 
 H                     0.665     6.97     -2.704 
 H                     1.048     6.466    -1.036 
 H                     0.608     0.501    -4.891 
 H                    -0.692    -2.156    -4.547 
 H                    -1.267     0.74     -6.129 
 H                    -2.204     0.714    -4.596 
 H                    -1.967    -0.72     -5.453 
 H                     1.356    -1.759    -5.967 
 H                     1.452    -3.157    -4.902 
 H                     2.714    -0.522    -4.798 
 H                     3.487    -2.121    -4.529 
 H                     2.495    -1.303    -3.24 
 H                     0.867    -6.333    -0.084 
 H                     0.404    -5.642    -1.68 
 H                    -0.891    -5.999    -0.463 
 H                    -1.283    -3.581     4.028 
 H                     0.698    -4.478     7.755 
 H                     0.833    -2.619     7.68 
 H                     2.       -3.754     6.976 
 Mg                    10.51731   0.95458   0.79968 
 C                     9.97735   1.72429   4.26306 
 C                     9.40563   4.09839   0.08186 
 C                     10.55329   0.15872  -2.2716 
 C                     10.4842  -2.41551   1.68687 
 N                     9.81158   2.60538   2.0916 
 C                     9.70846   2.80459   3.39698 
 C                     9.37159   4.26527   3.80007 
 C                     8.66797   4.7352    2.43517 
 C                     9.35898   3.78129   1.46294 
 C                     7.17494   4.45421   2.40002 
 C                     10.65648   5.11259   4.10525 
 C                     10.39446   6.45038   4.80053 
 H                     11.36612   6.92743   5.78073 
 N                     10.52148   2.09704  -0.82308 
 C                     10.05102   3.3572   -0.93227 
 C                     10.268    3.74763  -2.33393 
 C                     10.75408   2.5569   -3.08266 
 C                     10.6054   1.53037  -2.07063 
 C                     10.09202   5.15594  -2.82291 
 C                     11.25606   2.37033  -4.48245 
 O                     11.4009   1.205    -4.99613 
 C                     11.48415   3.5935   -5.26561 
 N                     10.30758  -0.86249  -0.18855 
 C                     10.41632  -0.93833  -1.52659 
 C                     10.5056  -2.37404  -1.98611 
 C                     10.67825  -3.24162  -0.65379 
 C                     10.5644  -2.11606   0.39766 
 C                     9.30748  -2.89412  -2.78009 
 C                     11.90383  -4.1936   -0.58775 
 C                     13.18129  -3.38717  -0.53147 
 N                     10.46257  -0.16747   2.64523 
 C                     10.42941  -1.57186   2.78898 
 C                     10.28106  -1.85856   4.23058 
 C                     10.21455  -0.59079   4.82794 
 C                     10.2941   0.41495   3.82712 
 C                     10.17679  -3.15225   4.81505 
 C                     10.08445   0.12528   6.07654 
 O                     10.06539  -0.19569   7.26412 
 C                     9.7979    1.65512   5.75425 
 C                     10.7121   2.4891    6.60938 
 O                     11.94387   2.44977   6.44264 
 O                     9.97448   3.35291   7.33057 
 C                     10.8374   4.20981   8.18667 
 H                     8.86125   4.97612  -0.26761 
 H                     10.67363  -0.17115  -3.3061 
 H                     10.5643  -3.44089   2.05408 
 H                     8.67851   4.35986   4.6274 
 H                     8.91541   5.76666   2.19801 
 H                     6.85363   3.87583   3.25348 
 H                     7.00035   3.90555   1.48376 
 H                     6.61743   5.39009   2.30179 
 H                     11.08108   5.47249   3.15925 
 H                     11.36306   4.54133   4.67537 
 H                     9.37737   6.51176   5.20635 
 H                     10.43224   7.24439   4.05077 
 H                     9.56918   5.77587  -2.08419 
 H                     9.4069    5.11475  -3.6766 
 H                     11.03132   5.61038  -3.14521 
 H                     10.55733   4.15845  -5.33111 
 H                     11.92581   3.25988  -6.20663 
 H                     12.20022   4.22484  -4.72778 
 H                     11.37211  -2.52459  -2.61825 
 H                     9.82179  -3.91214  -0.49035 
 H                     9.58158  -3.28416  -3.7785 
 H                     8.58426  -2.09446  -2.86966 
 H                     8.7298   -3.67387  -2.28666 
 H                     11.96032  -4.80166  -1.49396 
 H                     11.87655  -4.87493   0.25607 
 H                     13.37259  -3.15419  -1.58323 
 H                     13.98908  -3.97844  -0.10493 
 H                     13.02447  -2.43759  -0.00674 
 H                     10.80548  -3.14771   5.69552 
 H                     10.47651  -3.92987   4.11558 
 H                     9.10516  -3.18368   5.02929 
 H                     8.74642   1.8447    5.97337 
 H                     10.48409   4.092     9.21574 
 H                     10.78102   5.22365   7.74769 
 H                     11.87942   3.92966   8.28743 
 
 ITRead=  0  0  0  0  0  0  0  0  0  0  0  0  0  0  0  0  0  0  0  0
 ITRead=  0  0  0  0  0  0  0  0  0  0  0  0  0  0  0  0  0  0  0  0
 ITRead=  0  0  0  0  0  0  0  0  0  0  0  0  0  0  0  0  0  0  0  0
 ITRead=  0  0  0  0  0  0  0  0  0  0  0  0  0  0  0  0  0  0  0  0
 ITRead=  0  0  0  0  0  0  0  0  0  0  0  0  0  0  0  0  0  0  0  0
 ITRead=  0  0  0  0  0  0  0  0  0  0  0  0  0  0  0  0  0  0  0  0
 ITRead=  0  0  0  0  0  0  0  0  0  0  0  0  0  0  0  0  0  0  0  0
 ITRead=  0  0  0  0  0  0  0  0  0  0  0  0  0  0  0  0  0  0
 MicOpt= -1 -1 -1 -1 -1 -1 -1 -1 -1 -1 -1 -1 -1 -1 -1 -1 -1 -1 -1 -1
 MicOpt= -1 -1 -1 -1 -1 -1 -1 -1 -1 -1 -1 -1 -1 -1 -1 -1 -1 -1 -1 -1
 MicOpt= -1 -1 -1 -1 -1 -1 -1 -1 -1 -1 -1 -1 -1 -1 -1 -1 -1 -1 -1 -1
 MicOpt= -1 -1 -1 -1 -1 -1 -1 -1 -1 -1 -1 -1 -1 -1 -1 -1 -1 -1 -1 -1
 MicOpt= -1 -1 -1 -1 -1 -1 -1 -1 -1 -1 -1 -1 -1 -1 -1 -1 -1 -1 -1 -1
 MicOpt= -1 -1 -1 -1 -1 -1 -1 -1 -1 -1 -1 -1 -1 -1 -1 -1 -1 -1 -1 -1
 MicOpt= -1 -1 -1 -1 -1 -1 -1 -1 -1 -1 -1 -1 -1 -1 -1 -1 -1 -1 -1 -1
 MicOpt= -1 -1 -1 -1 -1 -1 -1 -1 -1 -1 -1 -1 -1 -1 -1 -1 -1 -1
 NAtoms=    158 NQM=      158 NQMF=       0 NMMI=      0 NMMIF=      0
                NMic=       0 NMicF=      0.
                    Isotopes and Nuclear Properties:
 (Nuclear quadrupole moments (NQMom) in fm**2, nuclear magnetic moments (NMagM)
  in nuclear magnetons)

  Atom         1           2           3           4           5           6           7           8           9          10
 IAtWgt=          24          12          12          12          12          14          12          12          12          12
 AtmWgt=  23.9850450  12.0000000  12.0000000  12.0000000  12.0000000  14.0030740  12.0000000  12.0000000  12.0000000  12.0000000
 NucSpn=           0           0           0           0           0           2           0           0           0           0
 AtZEff=  -0.0000000  -0.0000000  -0.0000000  -0.0000000  -0.0000000  -0.0000000  -0.0000000  -0.0000000  -0.0000000  -0.0000000
 NQMom=    0.0000000   0.0000000   0.0000000   0.0000000   0.0000000   2.0440000   0.0000000   0.0000000   0.0000000   0.0000000
 NMagM=    0.0000000   0.0000000   0.0000000   0.0000000   0.0000000   0.4037610   0.0000000   0.0000000   0.0000000   0.0000000
 AtZNuc=  12.0000000   6.0000000   6.0000000   6.0000000   6.0000000   7.0000000   6.0000000   6.0000000   6.0000000   6.0000000

  Atom        11          12          13          14          15          16          17          18          19          20
 IAtWgt=          12          12          12           1          14          12          12          12          12          12
 AtmWgt=  12.0000000  12.0000000  12.0000000   1.0078250  14.0030740  12.0000000  12.0000000  12.0000000  12.0000000  12.0000000
 NucSpn=           0           0           0           1           2           0           0           0           0           0
 AtZEff=  -0.0000000  -0.0000000  -0.0000000  -0.0000000  -0.0000000  -0.0000000  -0.0000000  -0.0000000  -0.0000000  -0.0000000
 NQMom=    0.0000000   0.0000000   0.0000000   0.0000000   2.0440000   0.0000000   0.0000000   0.0000000   0.0000000   0.0000000
 NMagM=    0.0000000   0.0000000   0.0000000   2.7928460   0.4037610   0.0000000   0.0000000   0.0000000   0.0000000   0.0000000
 AtZNuc=   6.0000000   6.0000000   6.0000000   1.0000000   7.0000000   6.0000000   6.0000000   6.0000000   6.0000000   6.0000000

  Atom        21          22          23          24          25          26          27          28          29          30
 IAtWgt=          12          16          12          14          12          12          12          12          12          12
 AtmWgt=  12.0000000  15.9949146  12.0000000  14.0030740  12.0000000  12.0000000  12.0000000  12.0000000  12.0000000  12.0000000
 NucSpn=           0           0           0           2           0           0           0           0           0           0
 AtZEff=  -0.0000000  -0.0000000  -0.0000000  -0.0000000  -0.0000000  -0.0000000  -0.0000000  -0.0000000  -0.0000000  -0.0000000
 NQMom=    0.0000000   0.0000000   0.0000000   2.0440000   0.0000000   0.0000000   0.0000000   0.0000000   0.0000000   0.0000000
 NMagM=    0.0000000   0.0000000   0.0000000   0.4037610   0.0000000   0.0000000   0.0000000   0.0000000   0.0000000   0.0000000
 AtZNuc=   6.0000000   8.0000000   6.0000000   7.0000000   6.0000000   6.0000000   6.0000000   6.0000000   6.0000000   6.0000000

  Atom        31          32          33          34          35          36          37          38          39          40
 IAtWgt=          12          14          12          12          12          12          12          12          16          12
 AtmWgt=  12.0000000  14.0030740  12.0000000  12.0000000  12.0000000  12.0000000  12.0000000  12.0000000  15.9949146  12.0000000
 NucSpn=           0           2           0           0           0           0           0           0           0           0
 AtZEff=  -0.0000000  -0.0000000  -0.0000000  -0.0000000  -0.0000000  -0.0000000  -0.0000000  -0.0000000  -0.0000000  -0.0000000
 NQMom=    0.0000000   2.0440000   0.0000000   0.0000000   0.0000000   0.0000000   0.0000000   0.0000000   0.0000000   0.0000000
 NMagM=    0.0000000   0.4037610   0.0000000   0.0000000   0.0000000   0.0000000   0.0000000   0.0000000   0.0000000   0.0000000
 AtZNuc=   6.0000000   7.0000000   6.0000000   6.0000000   6.0000000   6.0000000   6.0000000   6.0000000   8.0000000   6.0000000

  Atom        41          42          43          44          45          46          47          48          49          50
 IAtWgt=          12          16          16          12           1           1           1           1           1           1
 AtmWgt=  12.0000000  15.9949146  15.9949146  12.0000000   1.0078250   1.0078250   1.0078250   1.0078250   1.0078250   1.0078250
 NucSpn=           0           0           0           0           1           1           1           1           1           1
 AtZEff=  -0.0000000  -0.0000000  -0.0000000  -0.0000000  -0.0000000  -0.0000000  -0.0000000  -0.0000000  -0.0000000  -0.0000000
 NQMom=    0.0000000   0.0000000   0.0000000   0.0000000   0.0000000   0.0000000   0.0000000   0.0000000   0.0000000   0.0000000
 NMagM=    0.0000000   0.0000000   0.0000000   0.0000000   2.7928460   2.7928460   2.7928460   2.7928460   2.7928460   2.7928460
 AtZNuc=   6.0000000   8.0000000   8.0000000   6.0000000   1.0000000   1.0000000   1.0000000   1.0000000   1.0000000   1.0000000

  Atom        51          52          53          54          55          56          57          58          59          60
 IAtWgt=           1           1           1           1           1           1           1           1           1           1
 AtmWgt=   1.0078250   1.0078250   1.0078250   1.0078250   1.0078250   1.0078250   1.0078250   1.0078250   1.0078250   1.0078250
 NucSpn=           1           1           1           1           1           1           1           1           1           1
 AtZEff=  -0.0000000  -0.0000000  -0.0000000  -0.0000000  -0.0000000  -0.0000000  -0.0000000  -0.0000000  -0.0000000  -0.0000000
 NQMom=    0.0000000   0.0000000   0.0000000   0.0000000   0.0000000   0.0000000   0.0000000   0.0000000   0.0000000   0.0000000
 NMagM=    2.7928460   2.7928460   2.7928460   2.7928460   2.7928460   2.7928460   2.7928460   2.7928460   2.7928460   2.7928460
 AtZNuc=   1.0000000   1.0000000   1.0000000   1.0000000   1.0000000   1.0000000   1.0000000   1.0000000   1.0000000   1.0000000

  Atom        61          62          63          64          65          66          67          68          69          70
 IAtWgt=           1           1           1           1           1           1           1           1           1           1
 AtmWgt=   1.0078250   1.0078250   1.0078250   1.0078250   1.0078250   1.0078250   1.0078250   1.0078250   1.0078250   1.0078250
 NucSpn=           1           1           1           1           1           1           1           1           1           1
 AtZEff=  -0.0000000  -0.0000000  -0.0000000  -0.0000000  -0.0000000  -0.0000000  -0.0000000  -0.0000000  -0.0000000  -0.0000000
 NQMom=    0.0000000   0.0000000   0.0000000   0.0000000   0.0000000   0.0000000   0.0000000   0.0000000   0.0000000   0.0000000
 NMagM=    2.7928460   2.7928460   2.7928460   2.7928460   2.7928460   2.7928460   2.7928460   2.7928460   2.7928460   2.7928460
 AtZNuc=   1.0000000   1.0000000   1.0000000   1.0000000   1.0000000   1.0000000   1.0000000   1.0000000   1.0000000   1.0000000

  Atom        71          72          73          74          75          76          77          78          79          80
 IAtWgt=           1           1           1           1           1           1           1           1           1          24
 AtmWgt=   1.0078250   1.0078250   1.0078250   1.0078250   1.0078250   1.0078250   1.0078250   1.0078250   1.0078250  23.9850450
 NucSpn=           1           1           1           1           1           1           1           1           1           0
 AtZEff=  -0.0000000  -0.0000000  -0.0000000  -0.0000000  -0.0000000  -0.0000000  -0.0000000  -0.0000000  -0.0000000  -0.0000000
 NQMom=    0.0000000   0.0000000   0.0000000   0.0000000   0.0000000   0.0000000   0.0000000   0.0000000   0.0000000   0.0000000
 NMagM=    2.7928460   2.7928460   2.7928460   2.7928460   2.7928460   2.7928460   2.7928460   2.7928460   2.7928460   0.0000000
 AtZNuc=   1.0000000   1.0000000   1.0000000   1.0000000   1.0000000   1.0000000   1.0000000   1.0000000   1.0000000  12.0000000

  Atom        81          82          83          84          85          86          87          88          89          90
 IAtWgt=          12          12          12          12          14          12          12          12          12          12
 AtmWgt=  12.0000000  12.0000000  12.0000000  12.0000000  14.0030740  12.0000000  12.0000000  12.0000000  12.0000000  12.0000000
 NucSpn=           0           0           0           0           2           0           0           0           0           0
 AtZEff=  -0.0000000  -0.0000000  -0.0000000  -0.0000000  -0.0000000  -0.0000000  -0.0000000  -0.0000000  -0.0000000  -0.0000000
 NQMom=    0.0000000   0.0000000   0.0000000   0.0000000   2.0440000   0.0000000   0.0000000   0.0000000   0.0000000   0.0000000
 NMagM=    0.0000000   0.0000000   0.0000000   0.0000000   0.4037610   0.0000000   0.0000000   0.0000000   0.0000000   0.0000000
 AtZNuc=   6.0000000   6.0000000   6.0000000   6.0000000   7.0000000   6.0000000   6.0000000   6.0000000   6.0000000   6.0000000

  Atom        91          92          93          94          95          96          97          98          99         100
 IAtWgt=          12          12           1          14          12          12          12          12          12          12
 AtmWgt=  12.0000000  12.0000000   1.0078250  14.0030740  12.0000000  12.0000000  12.0000000  12.0000000  12.0000000  12.0000000
 NucSpn=           0           0           1           2           0           0           0           0           0           0
 AtZEff=  -0.0000000  -0.0000000  -0.0000000  -0.0000000  -0.0000000  -0.0000000  -0.0000000  -0.0000000  -0.0000000  -0.0000000
 NQMom=    0.0000000   0.0000000   0.0000000   2.0440000   0.0000000   0.0000000   0.0000000   0.0000000   0.0000000   0.0000000
 NMagM=    0.0000000   0.0000000   2.7928460   0.4037610   0.0000000   0.0000000   0.0000000   0.0000000   0.0000000   0.0000000
 AtZNuc=   6.0000000   6.0000000   1.0000000   7.0000000   6.0000000   6.0000000   6.0000000   6.0000000   6.0000000   6.0000000

  Atom       101         102         103         104         105         106         107         108         109         110
 IAtWgt=          16          12          14          12          12          12          12          12          12          12
 AtmWgt=  15.9949146  12.0000000  14.0030740  12.0000000  12.0000000  12.0000000  12.0000000  12.0000000  12.0000000  12.0000000
 NucSpn=           0           0           2           0           0           0           0           0           0           0
 AtZEff=  -0.0000000  -0.0000000  -0.0000000  -0.0000000  -0.0000000  -0.0000000  -0.0000000  -0.0000000  -0.0000000  -0.0000000
 NQMom=    0.0000000   0.0000000   2.0440000   0.0000000   0.0000000   0.0000000   0.0000000   0.0000000   0.0000000   0.0000000
 NMagM=    0.0000000   0.0000000   0.4037610   0.0000000   0.0000000   0.0000000   0.0000000   0.0000000   0.0000000   0.0000000
 AtZNuc=   8.0000000   6.0000000   7.0000000   6.0000000   6.0000000   6.0000000   6.0000000   6.0000000   6.0000000   6.0000000

  Atom       111         112         113         114         115         116         117         118         119         120
 IAtWgt=          14          12          12          12          12          12          12          16          12          12
 AtmWgt=  14.0030740  12.0000000  12.0000000  12.0000000  12.0000000  12.0000000  12.0000000  15.9949146  12.0000000  12.0000000
 NucSpn=           2           0           0           0           0           0           0           0           0           0
 AtZEff=  -0.0000000  -0.0000000  -0.0000000  -0.0000000  -0.0000000  -0.0000000  -0.0000000  -0.0000000  -0.0000000  -0.0000000
 NQMom=    2.0440000   0.0000000   0.0000000   0.0000000   0.0000000   0.0000000   0.0000000   0.0000000   0.0000000   0.0000000
 NMagM=    0.4037610   0.0000000   0.0000000   0.0000000   0.0000000   0.0000000   0.0000000   0.0000000   0.0000000   0.0000000
 AtZNuc=   7.0000000   6.0000000   6.0000000   6.0000000   6.0000000   6.0000000   6.0000000   8.0000000   6.0000000   6.0000000

  Atom       121         122         123         124         125         126         127         128         129         130
 IAtWgt=          16          16          12           1           1           1           1           1           1           1
 AtmWgt=  15.9949146  15.9949146  12.0000000   1.0078250   1.0078250   1.0078250   1.0078250   1.0078250   1.0078250   1.0078250
 NucSpn=           0           0           0           1           1           1           1           1           1           1
 AtZEff=  -0.0000000  -0.0000000  -0.0000000  -0.0000000  -0.0000000  -0.0000000  -0.0000000  -0.0000000  -0.0000000  -0.0000000
 NQMom=    0.0000000   0.0000000   0.0000000   0.0000000   0.0000000   0.0000000   0.0000000   0.0000000   0.0000000   0.0000000
 NMagM=    0.0000000   0.0000000   0.0000000   2.7928460   2.7928460   2.7928460   2.7928460   2.7928460   2.7928460   2.7928460
 AtZNuc=   8.0000000   8.0000000   6.0000000   1.0000000   1.0000000   1.0000000   1.0000000   1.0000000   1.0000000   1.0000000

  Atom       131         132         133         134         135         136         137         138         139         140
 IAtWgt=           1           1           1           1           1           1           1           1           1           1
 AtmWgt=   1.0078250   1.0078250   1.0078250   1.0078250   1.0078250   1.0078250   1.0078250   1.0078250   1.0078250   1.0078250
 NucSpn=           1           1           1           1           1           1           1           1           1           1
 AtZEff=  -0.0000000  -0.0000000  -0.0000000  -0.0000000  -0.0000000  -0.0000000  -0.0000000  -0.0000000  -0.0000000  -0.0000000
 NQMom=    0.0000000   0.0000000   0.0000000   0.0000000   0.0000000   0.0000000   0.0000000   0.0000000   0.0000000   0.0000000
 NMagM=    2.7928460   2.7928460   2.7928460   2.7928460   2.7928460   2.7928460   2.7928460   2.7928460   2.7928460   2.7928460
 AtZNuc=   1.0000000   1.0000000   1.0000000   1.0000000   1.0000000   1.0000000   1.0000000   1.0000000   1.0000000   1.0000000

  Atom       141         142         143         144         145         146         147         148         149         150
 IAtWgt=           1           1           1           1           1           1           1           1           1           1
 AtmWgt=   1.0078250   1.0078250   1.0078250   1.0078250   1.0078250   1.0078250   1.0078250   1.0078250   1.0078250   1.0078250
 NucSpn=           1           1           1           1           1           1           1           1           1           1
 AtZEff=  -0.0000000  -0.0000000  -0.0000000  -0.0000000  -0.0000000  -0.0000000  -0.0000000  -0.0000000  -0.0000000  -0.0000000
 NQMom=    0.0000000   0.0000000   0.0000000   0.0000000   0.0000000   0.0000000   0.0000000   0.0000000   0.0000000   0.0000000
 NMagM=    2.7928460   2.7928460   2.7928460   2.7928460   2.7928460   2.7928460   2.7928460   2.7928460   2.7928460   2.7928460
 AtZNuc=   1.0000000   1.0000000   1.0000000   1.0000000   1.0000000   1.0000000   1.0000000   1.0000000   1.0000000   1.0000000

  Atom       151         152         153         154         155         156         157         158
 IAtWgt=           1           1           1           1           1           1           1           1
 AtmWgt=   1.0078250   1.0078250   1.0078250   1.0078250   1.0078250   1.0078250   1.0078250   1.0078250
 NucSpn=           1           1           1           1           1           1           1           1
 AtZEff=  -0.0000000  -0.0000000  -0.0000000  -0.0000000  -0.0000000  -0.0000000  -0.0000000  -0.0000000
 NQMom=    0.0000000   0.0000000   0.0000000   0.0000000   0.0000000   0.0000000   0.0000000   0.0000000
 NMagM=    2.7928460   2.7928460   2.7928460   2.7928460   2.7928460   2.7928460   2.7928460   2.7928460
 AtZNuc=   1.0000000   1.0000000   1.0000000   1.0000000   1.0000000   1.0000000   1.0000000   1.0000000
 Leave Link  101 at Sat Sep  4 04:14:57 2021, MaxMem= 23488102400 cpu:               3.2 elap:               0.2
 (Enter /sw/apps/gaussian-16.0/g16/l202.exe)
 Stoichiometry    C68H72Mg2N8O8
 Framework group  C1[X(C68H72Mg2N8O8)]
 Deg. of freedom   468
 Full point group                 C1      NOp   1
 Largest Abelian subgroup         C1      NOp   1
 Largest concise Abelian subgroup C1      NOp   1
                         Standard orientation:                         
 ---------------------------------------------------------------------
 Center     Atomic      Atomic             Coordinates (Angstroms)
 Number     Number       Type             X           Y           Z
 ---------------------------------------------------------------------
      1         12           0       -5.204004    0.672239    0.329356
      2          6           0       -5.520641   -2.466403   -1.362058
      3          6           0       -5.846621   -0.997759    3.234733
      4          6           0       -5.379440    3.486294    1.780885
      5          6           0       -5.714213    2.216954   -2.752722
      6          7           0       -5.613420   -1.461506    0.753806
      7          6           0       -5.647355   -2.572603    0.024777
      8          6           0       -5.754721   -3.870051    0.880624
      9          6           0       -6.411308   -3.250971    2.195018
     10          6           0       -5.898668   -1.826649    2.074879
     11          6           0       -7.936072   -3.228642    2.161869
     12          6           0       -4.353722   -4.500722    1.182599
     13          6           0       -4.385045   -5.931609    1.727517
     14          1           0       -3.331534   -6.854479    1.332835
     15          7           0       -5.077691    1.135429    2.245694
     16          6           0       -5.362043    0.326798    3.294762
     17          6           0       -5.112161    1.132102    4.509557
     18          6           0       -4.842151    2.532254    4.079719
     19          6           0       -5.118337    2.445117    2.668512
     20          6           0       -5.096294    0.553807    5.891249
     21          6           0       -4.414784    3.757237    4.824640
     22          8           0       -4.462664    4.922789    4.301410
     23          6           0       -4.016988    3.565488    6.231065
     24          7           0       -5.721013    2.582663   -0.334434
     25          6           0       -5.657994    3.638278    0.484523
     26          6           0       -5.795912    4.925762   -0.272645
     27          6           0       -5.723288    4.538525   -1.820071
     28          6           0       -5.633004    2.999422   -1.674196
     29          6           0       -7.079146    5.724712   -0.006189
     30          6           0       -4.654156    5.262201   -2.676617
     31          6           0       -3.270967    4.833547   -2.240565
     32          7           0       -5.380690    0.027783   -1.735711
     33          6           0       -5.613340    0.839576   -2.855328
     34          6           0       -5.762787   -0.057585   -4.015861
     35          6           0       -5.622272   -1.338124   -3.484522
     36          6           0       -5.425353   -1.247865   -2.076911
     37          6           0       -6.054515    0.345636   -5.348805
     38          6           0       -5.617249   -2.762770   -3.774722
     39          8           0       -5.643898   -3.438034   -4.804674
     40          6           0       -5.672924   -3.555428   -2.394715
     41          6           0       -4.620478   -4.629288   -2.444598
     42          8           0       -3.407695   -4.335929   -2.466154
     43          8           0       -5.191870   -5.822498   -2.220317
     44          6           0       -4.197710   -6.928733   -2.227054
     45          1           0       -6.268093   -1.371518    4.169937
     46          1           0       -5.338604    4.483605    2.223764
     47          1           0       -5.791065    2.631016   -3.759746
     48          1           0       -6.408075   -4.636724    0.463774
     49          1           0       -6.025324   -3.717459    3.101178
     50          1           0       -8.317684   -3.523830    1.184547
     51          1           0       -8.217010   -2.199229    2.385198
     52          1           0       -8.349965   -3.833970    2.968743
     53          1           0       -3.904585   -3.988059    2.033195
     54          1           0       -3.716127   -4.465486    0.298542
     55          1           0       -5.365103   -6.389218    1.589716
     56          1           0       -4.256037   -5.888112    2.809027
     57          1           0       -5.491449   -0.461182    5.905153
     58          1           0       -5.805518    1.129574    6.485558
     59          1           0       -4.107271    0.606135    6.346690
     60          1           0       -4.850552    3.133343    6.785115
     61          1           0       -3.657770    4.534169    6.576707
     62          1           0       -3.209137    2.834345    6.272971
     63          1           0       -4.980069    5.607684   -0.036406
     64          1           0       -6.661123    4.742682   -2.337235
     65          1           0       -6.897354    6.742659    0.339414
     66          1           0       -7.679022    5.168596    0.713654
     67          1           0       -7.761653    5.789138   -0.853214
     68          1           0       -4.716974    6.339970   -2.530283
     69          1           0       -4.753187    5.066146   -3.744328
     70          1           0       -3.071347    5.484204   -1.389901
     71          1           0       -2.549877    5.004547   -3.040564
     72          1           0       -3.269630    3.807162   -1.873117
     73          1           0       -5.400763   -0.240325   -5.994736
     74          1           0       -5.890533    1.414479   -5.484037
     75          1           0       -7.107561    0.072901   -5.416383
     76          1           0       -6.677116   -3.969931   -2.311598
     77          1           0       -4.532065   -7.656263   -2.966744
     78          1           0       -4.101094   -7.264815   -1.194524
     79          1           0       -3.207091   -6.684222   -2.612057
     80         12           0        5.355375    0.732961   -0.483257
     81          6           0        5.274065   -2.582267    0.888481
     82          6           0        4.713297    1.888655    2.661062
     83          6           0        4.973986    3.625031   -1.731424
     84          6           0        4.851857   -0.701964   -3.619046
     85          7           0        5.053820   -0.310203    1.443690
     86          6           0        5.106831   -1.568267    1.854545
     87          6           0        5.053505   -1.744304    3.395881
     88          6           0        4.312647   -0.369372    3.769454
     89          6           0        4.743995    0.474040    2.571428
     90          6           0        2.797044   -0.479271    3.755301
     91          6           0        6.482889   -1.819654    4.038697
     92          6           0        6.510087   -2.298697    5.491808
     93          1           0        7.633905   -3.120245    5.932924
     94          7           0        5.396041    2.519693    0.379596
     95          6           0        5.130888    2.805641    1.671565
     96          6           0        5.277585    4.263844    1.799199
     97          6           0        5.489598    4.834585    0.441254
     98          6           0        5.269197    3.658558   -0.376339
     99          6           0        5.290586    4.967380    3.125199
    100          6           0        5.821557    6.213769   -0.042335
    101          8           0        5.724528    6.535102   -1.279335
    102          6           0        6.173553    7.202472    0.987265
    103          7           0        4.758903    1.389725   -2.363473
    104          6           0        4.728637    2.700785   -2.660344
    105          6           0        4.537674    2.920275   -4.142150
    106          6           0        4.688758    1.476559   -4.813298
    107          6           0        4.859761    0.621523   -3.538518
    108          6           0        3.201741    3.536613   -4.556626
    109          6           0        5.742055    1.333729   -5.945923
    110          6           0        7.134248    1.495999   -5.379473
    111          7           0        5.289147   -1.272903   -1.283364
    112          6           0        5.039265   -1.649806   -2.621115
    113          6           0        4.980722   -3.125580   -2.653958
    114          6           0        5.179292   -3.507100   -1.318474
    115          6           0        5.329435   -2.350085   -0.507145
    116          6           0        4.720233   -3.922389   -3.804328
    117          6           0        5.285428   -4.625205   -0.408935
    118          8           0        5.324566   -5.848265   -0.536701
    119          6           0        5.225334   -4.072736    1.080212
    120          6           0        6.339713   -4.715697    1.859500
    121          8           0        7.527337   -4.477478    1.577706
    122          8           0        5.824417   -5.330124    2.939924
    123          6           0        6.892295   -5.973592    3.750728
    124          1           0        4.290356    2.342651    3.557666
    125          1           0        4.941645    4.595992   -2.231100
    126          1           0        4.796267   -1.228356   -4.574286
    127          1           0        4.465469   -2.588028    3.736655
    128          1           0        4.702993    0.051528    4.692414
    129          1           0        2.465973   -1.436140    3.379868
    130          1           0        2.450147    0.319685    3.113137
    131          1           0        2.394157   -0.263677    4.749050
    132          1           0        6.870885   -0.801259    4.169303
    133          1           0        7.136002   -2.429219    3.444977
    134          1           0        5.559165   -2.754427    5.793449
    135          1           0        6.607807   -1.426615    6.142917
    136          1           0        4.947776    4.309262    3.933125
    137          1           0        4.531534    5.755625    3.076411
    138          1           0        6.257630    5.421522    3.351605
    139          1           0        5.350113    7.300051    1.690742
    140          1           0        6.464839    8.101881    0.441280
    141          1           0        7.030533    6.825070    1.556265
    142          1           0        5.305002    3.574010   -4.538310
    143          1           0        3.752776    1.148257   -5.288681
    144          1           0        3.313870    4.472140   -5.136539
    145          1           0        2.614554    3.710202   -3.664660
    146          1           0        2.552308    2.883741   -5.137309
    147          1           0        5.613258    2.128066   -6.685236
    148          1           0        5.681914    0.388504   -6.474998
    149          1           0        7.262444    2.582089   -5.347072
    150          1           0        7.870094    1.031013   -6.032451
    151          1           0        7.185100    1.127169   -4.348447
    152          1           0        5.420344   -4.746769   -3.777101
    153          1           0        4.821688   -3.343702   -4.720085
    154          1           0        3.682667   -4.208609   -3.612459
    155          1           0        4.244316   -4.325724    1.484150
    156          1           0        6.621810   -7.028837    3.855545
    157          1           0        6.962600   -5.376946    4.679611
    158          1           0        7.878931   -6.051008    3.309141
 ---------------------------------------------------------------------
 Rotational constants (GHZ):           0.0202655           0.0114033           0.0103494
 Leave Link  202 at Sat Sep  4 04:14:57 2021, MaxMem= 23488102400 cpu:               0.2 elap:               0.0
 (Enter /sw/apps/gaussian-16.0/g16/l301.exe)
 Standard basis: def2SVP (5D, 7F)
 Ernie: Thresh=  0.10000D-02 Tol=  0.10000D-05 Strict=F.
 There are  1658 symmetry adapted cartesian basis functions of A   symmetry.
 There are  1572 symmetry adapted basis functions of A   symmetry.
  1572 basis functions,  2678 primitive gaussians,  1658 cartesian basis functions
   312 alpha electrons      312 beta electrons
       nuclear repulsion energy     14940.7356999660 Hartrees.
 IExCor=20419 DFT=T Ex+Corr=CAM-B3LYP ExCW=0 ScaHFX=  1.000000
 ScaDFX=  1.000000  1.000000  1.000000  0.810000 ScalE2=  1.000000  1.000000
 IRadAn=      5 IRanWt=     -1 IRanGd=            0 ICorTp=0 IEmpDi=  4
 HFx  wShort=  0.000000 wLong=  0.330000 cFull=  0.190000 cShort=  0.000000 cLong=  0.460000
 DFx  wShort=  0.000000 wLong=  0.330000 cFull=  0.190000 cShort=  0.000000 cLong=  0.460000
 NAtoms=  158 NActive=  158 NUniq=  158 SFac= 1.00D+00 NAtFMM=   60 NAOKFM=T Big=T
 Integral buffers will be    131072 words long.
 Raffenetti 1 integral format.
 Two-electron integral symmetry is turned on.
 Leave Link  301 at Sat Sep  4 04:14:57 2021, MaxMem= 23488102400 cpu:               1.3 elap:               0.1
 (Enter /sw/apps/gaussian-16.0/g16/l302.exe)
 NPDir=0 NMtPBC=     1 NCelOv=     1 NCel=       1 NClECP=     1 NCelD=      1
         NCelK=      1 NCelE2=     1 NClLst=     1 CellRange=     0.0.
 One-electron integrals computed using PRISM.
 One-electron integral symmetry used in STVInt
   1 Symmetry operations used in ECPInt.
 ECPInt:  NShTT=  271216 NPrTT=  987664 LenC2=  137534 LenP2D=  286779.
 LDataN:  DoStor=T MaxTD1= 4 Len=   56
 NBasis=  1572 RedAO= T EigKep=  3.36D-04  NBF=  1572
 NBsUse=  1572 1.00D-06 EigRej= -1.00D+00 NBFU=  1572
 Precomputing XC quadrature grid using
 IXCGrd= 4 IRadAn=           5 IRanWt=          -1 IRanGd=           0 AccXCQ= 0.00D+00.
 Generated NRdTot=       0 NPtTot=           0 NUsed=           0 NTot=          32
 NSgBfM=  1143  1132  1133  1139  1143 MxSgAt=   158 MxSgA2=   157.
 Leave Link  302 at Sat Sep  4 04:15:02 2021, MaxMem= 23488102400 cpu:             121.3 elap:               5.1
 (Enter /sw/apps/gaussian-16.0/g16/l303.exe)
 DipDrv:  MaxL=1.
 Leave Link  303 at Sat Sep  4 04:15:03 2021, MaxMem= 23488102400 cpu:               9.6 elap:               0.4
 (Enter /sw/apps/gaussian-16.0/g16/l308.exe)
 Leave Link  308 at Sat Sep  4 04:15:04 2021, MaxMem= 23488102400 cpu:              15.1 elap:               0.7
 (Enter /sw/apps/gaussian-16.0/g16/l401.exe)
 ExpMin= 3.36D-02 ExpMax= 4.95D+03 ExpMxC= 7.45D+02 IAcc=3 IRadAn=         5 AccDes= 0.00D+00
 Harris functional with IExCor=20419 and IRadAn=       5 diagonalized for initial guess.
 HarFok:  IExCor=20419 AccDes= 0.00D+00 IRadAn=         5 IDoV= 1 UseB2=F ITyADJ=14
 ICtDFT=  3500011 ScaDFX=  1.000000  1.000000  1.000000  1.000000
 FoFCou: FMM=F IPFlag=           0 FMFlag=      100000 FMFlg1=        2001
         NFxFlg=           0 DoJE=T BraDBF=F KetDBF=T FulRan=T
         wScrn=  0.000000 ICntrl=       500 IOpCl=  0 I1Cent=   200000004 NGrid=           0
         NMat0=    1 NMatS0=      1 NMatT0=    0 NMatD0=    1 NMtDS0=    0 NMtDT0=    0
 Petite list used in FoFCou.
 Harris En= -3918.65800764306    
 JPrj=0 DoOrth=F DoCkMO=F.
 Leave Link  401 at Sat Sep  4 04:15:11 2021, MaxMem= 23488102400 cpu:             180.6 elap:               7.6
 (Enter /sw/apps/gaussian-16.0/g16/l502.exe)
 Integral symmetry usage will be decided dynamically.
 Closed shell SCF:
 Using DIIS extrapolation, IDIIS=  1040.
 NGot= 23488102400 LenX= 23482547354 LenY= 23479796732
 Requested convergence on RMS density matrix=1.00D-08 within 128 cycles.
 Requested convergence on MAX density matrix=1.00D-06.
 Requested convergence on             energy=1.00D-06.
 No special actions if energy rises.
 Fock matrices will be formed incrementally for  20 cycles.

 Cycle   1  Pass 1  IDiag  1:
 FoFJK:  IHMeth= 1 ICntrl=       0 DoSepK=T KAlg= 0 I1Cent=           0 FoldK=F
 IRaf=         1 NMat=       1 IRICut=       1 DoRegI=T DoRafI=F ISym2E= 0 IDoP0=0 IntGTp=1.
 FoFCou: FMM=T IPFlag=           0 FMFlag=      100000 FMFlg1=        2001
         NFxFlg=           0 DoJE=T BraDBF=F KetDBF=F FulRan=T
         wScrn=  0.000000 ICntrl=       500 IOpCl=  0 I1Cent=           0 NGrid=           0
         NMat0=    1 NMatS0=      1 NMatT0=    0 NMatD0=    1 NMtDS0=    0 NMtDT0=    0
 Symmetry not used in FoFCou.
 FMM levels:  10  Number of levels for PrismC:   9
 E= -4068.94856880670    
 DIIS: error= 2.04D-02 at cycle   1 NSaved=   1.
 NSaved= 1 IEnMin= 1 EnMin= -4068.94856880670     IErMin= 1 ErrMin= 2.04D-02
 ErrMax= 2.04D-02  0.00D+00 EMaxC= 1.00D-01 BMatC= 1.69D+00 BMatP= 1.69D+00
 IDIUse=3 WtCom= 7.96D-01 WtEn= 2.04D-01
 Coeff-Com:  0.100D+01
 Coeff-En:   0.100D+01
 Coeff:      0.100D+01
 Gap=     0.120 Goal=   None    Shift=    0.000
 GapD=    0.120 DampG=1.000 DampE=0.500 DampFc=0.5000 IDamp=-1.
 Damping current iteration by 5.00D-01
 RMSDP=1.57D-03 MaxDP=1.36D-01              OVMax= 2.08D-01

 Cycle   2  Pass 1  IDiag  1:
 RMSU=  7.70D-04    CP:  9.82D-01
 E= -4069.33696658153     Delta-E=       -0.388397774823 Rises=F Damp=T
 DIIS: error= 1.27D-02 at cycle   2 NSaved=   2.
 NSaved= 2 IEnMin= 2 EnMin= -4069.33696658153     IErMin= 2 ErrMin= 1.27D-02
 ErrMax= 1.27D-02  0.00D+00 EMaxC= 1.00D-01 BMatC= 3.07D-01 BMatP= 1.69D+00
 IDIUse=3 WtCom= 8.73D-01 WtEn= 1.27D-01
 Coeff-Com: -0.212D+00 0.121D+01
 Coeff-En:   0.000D+00 0.100D+01
 Coeff:     -0.185D+00 0.118D+01
 Gap=     0.135 Goal=   None    Shift=    0.000
 RMSDP=7.68D-04 MaxDP=9.41D-02 DE=-3.88D-01 OVMax= 1.97D-01

 Cycle   3  Pass 1  IDiag  1:
 RMSU=  7.37D-04    CP:  9.68D-01  1.23D+00
 E= -4069.62400060129     Delta-E=       -0.287034019762 Rises=F Damp=F
 DIIS: error= 1.58D-02 at cycle   3 NSaved=   3.
 NSaved= 3 IEnMin= 3 EnMin= -4069.62400060129     IErMin= 2 ErrMin= 1.27D-02
 ErrMax= 1.58D-02  0.00D+00 EMaxC= 1.00D-01 BMatC= 2.05D-01 BMatP= 3.07D-01
 IDIUse=3 WtCom= 8.42D-01 WtEn= 1.58D-01
 Coeff-Com: -0.267D+00 0.653D+00 0.614D+00
 Coeff-En:   0.000D+00 0.000D+00 0.100D+01
 Coeff:     -0.225D+00 0.550D+00 0.675D+00
 Gap=     0.122 Goal=   None    Shift=    0.000
 RMSDP=5.17D-04 MaxDP=5.00D-02 DE=-2.87D-01 OVMax= 1.54D-01

 Cycle   4  Pass 1  IDiag  1:
 RMSU=  2.69D-04    CP:  9.65D-01  1.55D+00  4.99D-01
 E= -4069.76271479093     Delta-E=       -0.138714189641 Rises=F Damp=F
 DIIS: error= 7.29D-03 at cycle   4 NSaved=   4.
 NSaved= 4 IEnMin= 4 EnMin= -4069.76271479093     IErMin= 4 ErrMin= 7.29D-03
 ErrMax= 7.29D-03  0.00D+00 EMaxC= 1.00D-01 BMatC= 5.19D-02 BMatP= 2.05D-01
 IDIUse=3 WtCom= 9.27D-01 WtEn= 7.29D-02
 Coeff-Com: -0.109D+00 0.228D+00 0.410D+00 0.472D+00
 Coeff-En:   0.000D+00 0.000D+00 0.227D+00 0.773D+00
 Coeff:     -0.102D+00 0.211D+00 0.396D+00 0.494D+00
 Gap=     0.121 Goal=   None    Shift=    0.000
 RMSDP=2.07D-04 MaxDP=2.07D-02 DE=-1.39D-01 OVMax= 7.01D-02

 Cycle   5  Pass 1  IDiag  1:
 RMSU=  7.90D-05    CP:  9.64D-01  1.49D+00  6.87D-01  5.41D-01
 E= -4069.81030254839     Delta-E=       -0.047587757464 Rises=F Damp=F
 DIIS: error= 7.51D-04 at cycle   5 NSaved=   5.
 NSaved= 5 IEnMin= 5 EnMin= -4069.81030254839     IErMin= 5 ErrMin= 7.51D-04
 ErrMax= 7.51D-04  0.00D+00 EMaxC= 1.00D-01 BMatC= 1.31D-03 BMatP= 5.19D-02
 IDIUse=3 WtCom= 9.92D-01 WtEn= 7.51D-03
 Coeff-Com: -0.376D-01 0.741D-01 0.172D+00 0.255D+00 0.536D+00
 Coeff-En:   0.000D+00 0.000D+00 0.000D+00 0.000D+00 0.100D+01
 Coeff:     -0.374D-01 0.735D-01 0.171D+00 0.253D+00 0.540D+00
 Gap=     0.120 Goal=   None    Shift=    0.000
 RMSDP=4.45D-05 MaxDP=4.21D-03 DE=-4.76D-02 OVMax= 2.03D-02

 Cycle   6  Pass 1  IDiag  1:
 RMSU=  3.22D-05    CP:  9.64D-01  1.49D+00  6.78D-01  6.17D-01  7.28D-01
 E= -4069.81149269512     Delta-E=       -0.001190146722 Rises=F Damp=F
 DIIS: error= 2.02D-04 at cycle   6 NSaved=   6.
 NSaved= 6 IEnMin= 6 EnMin= -4069.81149269512     IErMin= 6 ErrMin= 2.02D-04
 ErrMax= 2.02D-04  0.00D+00 EMaxC= 1.00D-01 BMatC= 2.00D-04 BMatP= 1.31D-03
 IDIUse=3 WtCom= 9.98D-01 WtEn= 2.02D-03
 Coeff-Com:  0.197D-02-0.616D-02 0.128D-01 0.423D-01 0.305D+00 0.644D+00
 Coeff-En:   0.000D+00 0.000D+00 0.000D+00 0.000D+00 0.117D+00 0.883D+00
 Coeff:      0.197D-02-0.615D-02 0.128D-01 0.422D-01 0.305D+00 0.644D+00
 Gap=     0.121 Goal=   None    Shift=    0.000
 RMSDP=1.74D-05 MaxDP=1.28D-03 DE=-1.19D-03 OVMax= 8.38D-03

 Cycle   7  Pass 1  IDiag  1:
 RMSU=  1.13D-05    CP:  9.64D-01  1.49D+00  6.84D-01  6.16D-01  8.40D-01
                    CP:  7.39D-01
 E= -4069.81171555245     Delta-E=       -0.000222857328 Rises=F Damp=F
 DIIS: error= 9.79D-05 at cycle   7 NSaved=   7.
 NSaved= 7 IEnMin= 7 EnMin= -4069.81171555245     IErMin= 7 ErrMin= 9.79D-05
 ErrMax= 9.79D-05  0.00D+00 EMaxC= 1.00D-01 BMatC= 2.53D-05 BMatP= 2.00D-04
 IDIUse=1 WtCom= 1.00D+00 WtEn= 0.00D+00
 Coeff-Com:  0.459D-02-0.101D-01-0.887D-02-0.309D-02 0.108D+00 0.339D+00
 Coeff-Com:  0.571D+00
 Coeff:      0.459D-02-0.101D-01-0.887D-02-0.309D-02 0.108D+00 0.339D+00
 Coeff:      0.571D+00
 Gap=     0.121 Goal=   None    Shift=    0.000
 RMSDP=6.75D-06 MaxDP=1.12D-03 DE=-2.23D-04 OVMax= 3.67D-03

 Cycle   8  Pass 1  IDiag  1:
 RMSU=  4.83D-06    CP:  9.64D-01  1.49D+00  6.85D-01  6.21D-01  8.41D-01
                    CP:  8.60D-01  8.13D-01
 E= -4069.81174668904     Delta-E=       -0.000031136595 Rises=F Damp=F
 DIIS: error= 5.45D-05 at cycle   8 NSaved=   8.
 NSaved= 8 IEnMin= 8 EnMin= -4069.81174668904     IErMin= 8 ErrMin= 5.45D-05
 ErrMax= 5.45D-05  0.00D+00 EMaxC= 1.00D-01 BMatC= 4.97D-06 BMatP= 2.53D-05
 IDIUse=1 WtCom= 1.00D+00 WtEn= 0.00D+00
 Coeff-Com:  0.221D-02-0.438D-02-0.783D-02-0.121D-01-0.887D-02 0.327D-01
 Coeff-Com:  0.321D+00 0.677D+00
 Coeff:      0.221D-02-0.438D-02-0.783D-02-0.121D-01-0.887D-02 0.327D-01
 Coeff:      0.321D+00 0.677D+00
 Gap=     0.121 Goal=   None    Shift=    0.000
 RMSDP=3.40D-06 MaxDP=4.27D-04 DE=-3.11D-05 OVMax= 1.17D-03

 Cycle   9  Pass 1  IDiag  1:
 RMSU=  1.97D-06    CP:  9.64D-01  1.49D+00  6.85D-01  6.22D-01  8.58D-01
                    CP:  8.87D-01  1.00D+00  9.70D-01
 E= -4069.81175473674     Delta-E=       -0.000008047704 Rises=F Damp=F
 DIIS: error= 1.98D-05 at cycle   9 NSaved=   9.
 NSaved= 9 IEnMin= 9 EnMin= -4069.81175473674     IErMin= 9 ErrMin= 1.98D-05
 ErrMax= 1.98D-05  0.00D+00 EMaxC= 1.00D-01 BMatC= 7.69D-07 BMatP= 4.97D-06
 IDIUse=1 WtCom= 1.00D+00 WtEn= 0.00D+00
 Coeff-Com:  0.476D-03-0.789D-03-0.272D-02-0.606D-02-0.201D-01-0.407D-01
 Coeff-Com:  0.939D-01 0.338D+00 0.638D+00
 Coeff:      0.476D-03-0.789D-03-0.272D-02-0.606D-02-0.201D-01-0.407D-01
 Coeff:      0.939D-01 0.338D+00 0.638D+00
 Gap=     0.121 Goal=   None    Shift=    0.000
 RMSDP=1.47D-06 MaxDP=1.60D-04 DE=-8.05D-06 OVMax= 7.56D-04

 Cycle  10  Pass 1  IDiag  1:
 RMSU=  9.72D-07    CP:  9.64D-01  1.49D+00  6.85D-01  6.23D-01  8.62D-01
                    CP:  8.99D-01  1.05D+00  1.14D+00  1.06D+00
 E= -4069.81175647960     Delta-E=       -0.000001742857 Rises=F Damp=F
 DIIS: error= 1.02D-05 at cycle  10 NSaved=  10.
 NSaved=10 IEnMin=10 EnMin= -4069.81175647960     IErMin=10 ErrMin= 1.02D-05
 ErrMax= 1.02D-05  0.00D+00 EMaxC= 1.00D-01 BMatC= 1.80D-07 BMatP= 7.69D-07
 IDIUse=1 WtCom= 1.00D+00 WtEn= 0.00D+00
 Coeff-Com: -0.430D-03 0.903D-03 0.123D-02 0.106D-02-0.365D-02-0.315D-01
 Coeff-Com: -0.439D-01-0.725D-01 0.238D+00 0.910D+00
 Coeff:     -0.430D-03 0.903D-03 0.123D-02 0.106D-02-0.365D-02-0.315D-01
 Coeff:     -0.439D-01-0.725D-01 0.238D+00 0.910D+00
 Gap=     0.121 Goal=   None    Shift=    0.000
 RMSDP=1.27D-06 MaxDP=1.29D-04 DE=-1.74D-06 OVMax= 6.51D-04

 Cycle  11  Pass 1  IDiag  1:
 RMSU=  5.50D-07    CP:  9.64D-01  1.49D+00  6.86D-01  6.23D-01  8.64D-01
                    CP:  9.09D-01  1.10D+00  1.25D+00  1.40D+00  1.37D+00
 E= -4069.81175732837     Delta-E=       -0.000000848766 Rises=F Damp=F
 DIIS: error= 4.27D-06 at cycle  11 NSaved=  11.
 NSaved=11 IEnMin=11 EnMin= -4069.81175732837     IErMin=11 ErrMin= 4.27D-06
 ErrMax= 4.27D-06  0.00D+00 EMaxC= 1.00D-01 BMatC= 7.22D-08 BMatP= 1.80D-07
 IDIUse=1 WtCom= 1.00D+00 WtEn= 0.00D+00
 Coeff-Com: -0.342D-03 0.665D-03 0.137D-02 0.213D-02 0.433D-02-0.879D-02
 Coeff-Com: -0.414D-01-0.133D+00-0.366D-01 0.493D+00 0.719D+00
 Coeff:     -0.342D-03 0.665D-03 0.137D-02 0.213D-02 0.433D-02-0.879D-02
 Coeff:     -0.414D-01-0.133D+00-0.366D-01 0.493D+00 0.719D+00
 Gap=     0.121 Goal=   None    Shift=    0.000
 RMSDP=7.25D-07 MaxDP=6.54D-05 DE=-8.49D-07 OVMax= 4.06D-04

 Cycle  12  Pass 1  IDiag  1:
 RMSU=  2.78D-07    CP:  9.64D-01  1.49D+00  6.85D-01  6.23D-01  8.65D-01
                    CP:  9.12D-01  1.12D+00  1.32D+00  1.57D+00  1.76D+00
                    CP:  1.18D+00
 E= -4069.81175762090     Delta-E=       -0.000000292530 Rises=F Damp=F
 DIIS: error= 2.72D-06 at cycle  12 NSaved=  12.
 NSaved=12 IEnMin=12 EnMin= -4069.81175762090     IErMin=12 ErrMin= 2.72D-06
 ErrMax= 2.72D-06  0.00D+00 EMaxC= 1.00D-01 BMatC= 1.76D-08 BMatP= 7.22D-08
 IDIUse=1 WtCom= 1.00D+00 WtEn= 0.00D+00
 Coeff-Com: -0.166D-04 0.153D-04 0.250D-03 0.613D-03 0.357D-02 0.366D-02
 Coeff-Com:  0.923D-03-0.393D-01-0.755D-01-0.426D-01 0.268D+00 0.881D+00
 Coeff:     -0.166D-04 0.153D-04 0.250D-03 0.613D-03 0.357D-02 0.366D-02
 Coeff:      0.923D-03-0.393D-01-0.755D-01-0.426D-01 0.268D+00 0.881D+00
 Gap=     0.121 Goal=   None    Shift=    0.000
 RMSDP=4.49D-07 MaxDP=3.28D-05 DE=-2.93D-07 OVMax= 2.56D-04

 Cycle  13  Pass 1  IDiag  1:
 RMSU=  1.74D-07    CP:  9.64D-01  1.49D+00  6.85D-01  6.23D-01  8.65D-01
                    CP:  9.12D-01  1.12D+00  1.35D+00  1.68D+00  1.98D+00
                    CP:  1.58D+00  1.23D+00
 E= -4069.81175772164     Delta-E=       -0.000000100747 Rises=F Damp=F
 DIIS: error= 1.35D-06 at cycle  13 NSaved=  13.
 NSaved=13 IEnMin=13 EnMin= -4069.81175772164     IErMin=13 ErrMin= 1.35D-06
 ErrMax= 1.35D-06  0.00D+00 EMaxC= 1.00D-01 BMatC= 9.23D-09 BMatP= 1.76D-08
 IDIUse=1 WtCom= 1.00D+00 WtEn= 0.00D+00
 Coeff-Com:  0.121D-03-0.248D-03-0.365D-03-0.441D-03 0.751D-03 0.502D-02
 Coeff-Com:  0.186D-01 0.235D-01-0.341D-01-0.238D+00-0.157D+00 0.576D+00
 Coeff-Com:  0.807D+00
 Coeff:      0.121D-03-0.248D-03-0.365D-03-0.441D-03 0.751D-03 0.502D-02
 Coeff:      0.186D-01 0.235D-01-0.341D-01-0.238D+00-0.157D+00 0.576D+00
 Coeff:      0.807D+00
 Gap=     0.121 Goal=   None    Shift=    0.000
 RMSDP=3.67D-07 MaxDP=2.56D-05 DE=-1.01D-07 OVMax= 2.27D-04

 Cycle  14  Pass 1  IDiag  1:
 RMSU=  8.09D-08    CP:  9.64D-01  1.49D+00  6.85D-01  6.23D-01  8.65D-01
                    CP:  9.12D-01  1.13D+00  1.37D+00  1.76D+00  2.19D+00
                    CP:  1.85D+00  1.75D+00  1.11D+00
 E= -4069.81175776377     Delta-E=       -0.000000042124 Rises=F Damp=F
 DIIS: error= 7.63D-07 at cycle  14 NSaved=  14.
 NSaved=14 IEnMin=14 EnMin= -4069.81175776377     IErMin=14 ErrMin= 7.63D-07
 ErrMax= 7.63D-07  0.00D+00 EMaxC= 1.00D-01 BMatC= 1.47D-09 BMatP= 9.23D-09
 IDIUse=1 WtCom= 1.00D+00 WtEn= 0.00D+00
 Coeff-Com:  0.700D-04-0.138D-03-0.258D-03-0.398D-03-0.427D-03 0.131D-02
 Coeff-Com:  0.104D-01 0.205D-01 0.420D-02-0.105D+00-0.146D+00 0.830D-01
 Coeff-Com:  0.418D+00 0.715D+00
 Coeff:      0.700D-04-0.138D-03-0.258D-03-0.398D-03-0.427D-03 0.131D-02
 Coeff:      0.104D-01 0.205D-01 0.420D-02-0.105D+00-0.146D+00 0.830D-01
 Coeff:      0.418D+00 0.715D+00
 Gap=     0.121 Goal=   None    Shift=    0.000
 RMSDP=1.14D-07 MaxDP=7.71D-06 DE=-4.21D-08 OVMax= 6.23D-05

 Cycle  15  Pass 1  IDiag  1:
 RMSU=  4.04D-08    CP:  9.64D-01  1.49D+00  6.85D-01  6.23D-01  8.65D-01
                    CP:  9.12D-01  1.13D+00  1.38D+00  1.78D+00  2.23D+00
                    CP:  1.96D+00  1.90D+00  1.36D+00  1.03D+00
 E= -4069.81175776858     Delta-E=       -0.000000004809 Rises=F Damp=F
 DIIS: error= 3.61D-07 at cycle  15 NSaved=  15.
 NSaved=15 IEnMin=15 EnMin= -4069.81175776858     IErMin=15 ErrMin= 3.61D-07
 ErrMax= 3.61D-07  0.00D+00 EMaxC= 1.00D-01 BMatC= 2.37D-10 BMatP= 1.47D-09
 IDIUse=1 WtCom= 1.00D+00 WtEn= 0.00D+00
 Coeff-Com:  0.724D-05-0.126D-04-0.397D-04-0.921D-04-0.299D-03-0.506D-03
 Coeff-Com:  0.125D-02 0.321D-02 0.885D-02-0.826D-03-0.315D-01-0.720D-01
 Coeff-Com:  0.417D-01 0.294D+00 0.756D+00
 Coeff:      0.724D-05-0.126D-04-0.397D-04-0.921D-04-0.299D-03-0.506D-03
 Coeff:      0.125D-02 0.321D-02 0.885D-02-0.826D-03-0.315D-01-0.720D-01
 Coeff:      0.417D-01 0.294D+00 0.756D+00
 Gap=     0.121 Goal=   None    Shift=    0.000
 RMSDP=3.93D-08 MaxDP=2.94D-06 DE=-4.81D-09 OVMax= 3.04D-05

 Cycle  16  Pass 1  IDiag  1:
 RMSU=  2.03D-08    CP:  9.64D-01  1.49D+00  6.85D-01  6.23D-01  8.65D-01
                    CP:  9.12D-01  1.13D+00  1.38D+00  1.78D+00  2.25D+00
                    CP:  1.98D+00  1.95D+00  1.43D+00  1.24D+00  1.12D+00
 E= -4069.81175776935     Delta-E=       -0.000000000771 Rises=F Damp=F
 DIIS: error= 2.14D-07 at cycle  16 NSaved=  16.
 NSaved=16 IEnMin=16 EnMin= -4069.81175776935     IErMin=16 ErrMin= 2.14D-07
 ErrMax= 2.14D-07  0.00D+00 EMaxC= 1.00D-01 BMatC= 1.03D-10 BMatP= 2.37D-10
 IDIUse=1 WtCom= 1.00D+00 WtEn= 0.00D+00
 Coeff-Com: -0.139D-04 0.282D-04 0.445D-04 0.477D-04-0.503D-04-0.647D-03
 Coeff-Com: -0.179D-02-0.405D-02 0.440D-02 0.249D-01 0.198D-01-0.654D-01
 Coeff-Com: -0.765D-01-0.362D-01 0.423D+00 0.712D+00
 Coeff:     -0.139D-04 0.282D-04 0.445D-04 0.477D-04-0.503D-04-0.647D-03
 Coeff:     -0.179D-02-0.405D-02 0.440D-02 0.249D-01 0.198D-01-0.654D-01
 Coeff:     -0.765D-01-0.362D-01 0.423D+00 0.712D+00
 Gap=     0.121 Goal=   None    Shift=    0.000
 RMSDP=2.47D-08 MaxDP=1.73D-06 DE=-7.71D-10 OVMax= 1.37D-05

 Cycle  17  Pass 1  IDiag  1:
 RMSU=  1.15D-08    CP:  9.64D-01  1.49D+00  6.85D-01  6.23D-01  8.65D-01
                    CP:  9.12D-01  1.13D+00  1.38D+00  1.78D+00  2.25D+00
                    CP:  1.99D+00  1.97D+00  1.48D+00  1.33D+00  1.42D+00
                    CP:  1.16D+00
 E= -4069.81175776978     Delta-E=       -0.000000000429 Rises=F Damp=F
 DIIS: error= 9.40D-08 at cycle  17 NSaved=  17.
 NSaved=17 IEnMin=17 EnMin= -4069.81175776978     IErMin=17 ErrMin= 9.40D-08
 ErrMax= 9.40D-08  0.00D+00 EMaxC= 1.00D-01 BMatC= 2.09D-11 BMatP= 1.03D-10
 IDIUse=1 WtCom= 1.00D+00 WtEn= 0.00D+00
 Coeff-Com: -0.827D-05 0.162D-04 0.318D-04 0.453D-04 0.739D-04-0.171D-03
 Coeff-Com: -0.101D-02-0.306D-02 0.223D-03 0.113D-01 0.187D-01-0.117D-01
 Coeff-Com: -0.394D-01-0.103D+00 0.831D-02 0.298D+00 0.822D+00
 Coeff:     -0.827D-05 0.162D-04 0.318D-04 0.453D-04 0.739D-04-0.171D-03
 Coeff:     -0.101D-02-0.306D-02 0.223D-03 0.113D-01 0.187D-01-0.117D-01
 Coeff:     -0.394D-01-0.103D+00 0.831D-02 0.298D+00 0.822D+00
 Gap=     0.121 Goal=   None    Shift=    0.000
 RMSDP=1.40D-08 MaxDP=1.12D-06 DE=-4.29D-10 OVMax= 1.05D-05

 Cycle  18  Pass 1  IDiag  1:
 RMSU=  5.98D-09    CP:  9.64D-01  1.49D+00  6.85D-01  6.23D-01  8.65D-01
                    CP:  9.12D-01  1.13D+00  1.38D+00  1.78D+00  2.25D+00
                    CP:  2.00D+00  1.98D+00  1.50D+00  1.39D+00  1.57D+00
                    CP:  1.56D+00  1.29D+00
 E= -4069.81175776972     Delta-E=        0.000000000058 Rises=F Damp=F
 DIIS: error= 8.07D-08 at cycle  18 NSaved=  18.
 NSaved=18 IEnMin=17 EnMin= -4069.81175776978     IErMin=18 ErrMin= 8.07D-08
 ErrMax= 8.07D-08  0.00D+00 EMaxC= 1.00D-01 BMatC= 1.04D-11 BMatP= 2.09D-11
 IDIUse=1 WtCom= 1.00D+00 WtEn= 0.00D+00
 Coeff-Com: -0.206D-07-0.330D-06 0.317D-05 0.909D-05 0.706D-04 0.129D-03
 Coeff-Com:  0.114D-03-0.450D-03-0.117D-02-0.294D-02 0.383D-02 0.148D-01
 Coeff-Com:  0.783D-02-0.502D-01-0.139D+00-0.117D+00 0.475D+00 0.809D+00
 Coeff:     -0.206D-07-0.330D-06 0.317D-05 0.909D-05 0.706D-04 0.129D-03
 Coeff:      0.114D-03-0.450D-03-0.117D-02-0.294D-02 0.383D-02 0.148D-01
 Coeff:      0.783D-02-0.502D-01-0.139D+00-0.117D+00 0.475D+00 0.809D+00
 Gap=     0.121 Goal=   None    Shift=    0.000
 RMSDP=1.07D-08 MaxDP=7.49D-07 DE= 5.82D-11 OVMax= 5.97D-06

 Cycle  19  Pass 1  IDiag  1:
 RMSU=  3.24D-09    CP:  9.64D-01  1.49D+00  6.85D-01  6.23D-01  8.65D-01
                    CP:  9.12D-01  1.13D+00  1.38D+00  1.79D+00  2.25D+00
                    CP:  2.00D+00  1.99D+00  1.51D+00  1.43D+00  1.71D+00
                    CP:  1.80D+00  1.78D+00  1.13D+00
 E= -4069.81175776998     Delta-E=       -0.000000000266 Rises=F Damp=F
 DIIS: error= 3.21D-08 at cycle  19 NSaved=  19.
 NSaved=19 IEnMin=19 EnMin= -4069.81175776998     IErMin=19 ErrMin= 3.21D-08
 ErrMax= 3.21D-08  0.00D+00 EMaxC= 1.00D-01 BMatC= 2.78D-12 BMatP= 1.04D-11
 IDIUse=1 WtCom= 1.00D+00 WtEn= 0.00D+00
 Coeff-Com:  0.323D-05-0.656D-05-0.105D-04-0.121D-04 0.232D-04 0.149D-03
 Coeff-Com:  0.503D-03 0.866D-03-0.761D-03-0.676D-02-0.493D-02 0.142D-01
 Coeff-Com:  0.228D-01 0.759D-02-0.919D-01-0.213D+00 0.378D-02 0.493D+00
 Coeff-Com:  0.774D+00
 Coeff:      0.323D-05-0.656D-05-0.105D-04-0.121D-04 0.232D-04 0.149D-03
 Coeff:      0.503D-03 0.866D-03-0.761D-03-0.676D-02-0.493D-02 0.142D-01
 Coeff:      0.228D-01 0.759D-02-0.919D-01-0.213D+00 0.378D-02 0.493D+00
 Coeff:      0.774D+00
 Gap=     0.121 Goal=   None    Shift=    0.000
 RMSDP=6.82D-09 MaxDP=5.09D-07 DE=-2.66D-10 OVMax= 4.63D-06

 SCF Done:  E(RCAM-B3LYP) =  -4069.81175777     A.U. after   19 cycles
            NFock= 19  Conv=0.68D-08     -V/T= 2.0102
 KE= 4.028801739478D+03 PE=-3.936252732786D+04 EE= 1.632317813064D+04
 Leave Link  502 at Sat Sep  4 04:24:52 2021, MaxMem= 23488102400 cpu:           13372.2 elap:             581.1
 (Enter /sw/apps/gaussian-16.0/g16/l801.exe)
 DoSCS=F DFT=T ScalE2(SS,OS)=  1.000000  1.000000
 ExpMin= 3.36D-02 ExpMax= 4.95D+03 ExpMxC= 7.45D+02 IAcc=3 IRadAn=         5 AccDes= 0.00D+00
 HarFok:  IExCor=  205 AccDes= 0.00D+00 IRadAn=         5 IDoV=-2 UseB2=F ITyADJ=14
 ICtDFT= 12500011 ScaDFX=  1.000000  1.000000  1.000000  1.000000
 GSVD:  LWork=       -9588 too small for GESVD, short by       45590 words or       45590 for optimal perf.
 Largest valence mixing into a core orbital is  2.03D-04
 Largest core mixing into a valence orbital is  5.23D-05
 Range of M.O.s used for correlation:    95  1572
 NBasis=  1572 NAE=   312 NBE=   312 NFC=    94 NFV=     0
 NROrb=   1478 NOA=   218 NOB=   218 NVA=  1260 NVB=  1260
 Leave Link  801 at Sat Sep  4 04:24:53 2021, MaxMem= 23488102400 cpu:               8.8 elap:               0.4
 (Enter /sw/apps/gaussian-16.0/g16/l914.exe)
 RHF ground state
 Two-electron integrals replicated using symmetry.
 MDV= 23488102400 DFT=T DoStab=F Mixed=T DoRPA=T DoScal=F NonHer=T
 Making orbital integer symmetry assigments:
 Orbital symmetries:
       Occupied  (A) (A) (A) (A) (A) (A) (A) (A) (A) (A) (A) (A)
                 (A) (A) (A) (A) (A) (A) (A) (A) (A) (A) (A) (A)
                 (A) (A) (A) (A) (A) (A) (A) (A) (A) (A) (A) (A)
                 (A) (A) (A) (A) (A) (A) (A) (A) (A) (A) (A) (A)
                 (A) (A) (A) (A) (A) (A) (A) (A) (A) (A) (A) (A)
                 (A) (A) (A) (A) (A) (A) (A) (A) (A) (A) (A) (A)
                 (A) (A) (A) (A) (A) (A) (A) (A) (A) (A) (A) (A)
                 (A) (A) (A) (A) (A) (A) (A) (A) (A) (A) (A) (A)
                 (A) (A) (A) (A) (A) (A) (A) (A) (A) (A) (A) (A)
                 (A) (A) (A) (A) (A) (A) (A) (A) (A) (A) (A) (A)
                 (A) (A) (A) (A) (A) (A) (A) (A) (A) (A) (A) (A)
                 (A) (A) (A) (A) (A) (A) (A) (A) (A) (A) (A) (A)
                 (A) (A) (A) (A) (A) (A) (A) (A) (A) (A) (A) (A)
                 (A) (A) (A) (A) (A) (A) (A) (A) (A) (A) (A) (A)
                 (A) (A) (A) (A) (A) (A) (A) (A) (A) (A) (A) (A)
                 (A) (A) (A) (A) (A) (A) (A) (A) (A) (A) (A) (A)
                 (A) (A) (A) (A) (A) (A) (A) (A) (A) (A) (A) (A)
                 (A) (A) (A) (A) (A) (A) (A) (A) (A) (A) (A) (A)
                 (A) (A) (A) (A) (A) (A) (A) (A) (A) (A) (A) (A)
                 (A) (A) (A) (A) (A) (A) (A) (A) (A) (A) (A) (A)
                 (A) (A) (A) (A) (A) (A) (A) (A) (A) (A) (A) (A)
                 (A) (A) (A) (A) (A) (A) (A) (A) (A) (A) (A) (A)
                 (A) (A) (A) (A) (A) (A) (A) (A) (A) (A) (A) (A)
                 (A) (A) (A) (A) (A) (A) (A) (A) (A) (A) (A) (A)
                 (A) (A) (A) (A) (A) (A) (A) (A) (A) (A) (A) (A)
                 (A) (A) (A) (A) (A) (A) (A) (A) (A) (A) (A) (A)
       Virtual   (A) (A) (A) (A) (A) (A) (A) (A) (A) (A) (A) (A)
                 (A) (A) (A) (A) (A) (A) (A) (A) (A) (A) (A) (A)
                 (A) (A) (A) (A) (A) (A) (A) (A) (A) (A) (A) (A)
                 (A) (A) (A) (A) (A) (A) (A) (A) (A) (A) (A) (A)
                 (A) (A) (A) (A) (A) (A) (A) (A) (A) (A) (A) (A)
                 (A) (A) (A) (A) (A) (A) (A) (A) (A) (A) (A) (A)
                 (A) (A) (A) (A) (A) (A) (A) (A) (A) (A) (A) (A)
                 (A) (A) (A) (A) (A) (A) (A) (A) (A) (A) (A) (A)
                 (A) (A) (A) (A) (A) (A) (A) (A) (A) (A) (A) (A)
                 (A) (A) (A) (A) (A) (A) (A) (A) (A) (A) (A) (A)
                 (A) (A) (A) (A) (A) (A) (A) (A) (A) (A) (A) (A)
                 (A) (A) (A) (A) (A) (A) (A) (A) (A) (A) (A) (A)
                 (A) (A) (A) (A) (A) (A) (A) (A) (A) (A) (A) (A)
                 (A) (A) (A) (A) (A) (A) (A) (A) (A) (A) (A) (A)
                 (A) (A) (A) (A) (A) (A) (A) (A) (A) (A) (A) (A)
                 (A) (A) (A) (A) (A) (A) (A) (A) (A) (A) (A) (A)
                 (A) (A) (A) (A) (A) (A) (A) (A) (A) (A) (A) (A)
                 (A) (A) (A) (A) (A) (A) (A) (A) (A) (A) (A) (A)
                 (A) (A) (A) (A) (A) (A) (A) (A) (A) (A) (A) (A)
                 (A) (A) (A) (A) (A) (A) (A) (A) (A) (A) (A) (A)
                 (A) (A) (A) (A) (A) (A) (A) (A) (A) (A) (A) (A)
                 (A) (A) (A) (A) (A) (A) (A) (A) (A) (A) (A) (A)
                 (A) (A) (A) (A) (A) (A) (A) (A) (A) (A) (A) (A)
                 (A) (A) (A) (A) (A) (A) (A) (A) (A) (A) (A) (A)
                 (A) (A) (A) (A) (A) (A) (A) (A) (A) (A) (A) (A)
                 (A) (A) (A) (A) (A) (A) (A) (A) (A) (A) (A) (A)
                 (A) (A) (A) (A) (A) (A) (A) (A) (A) (A) (A) (A)
                 (A) (A) (A) (A) (A) (A) (A) (A) (A) (A) (A) (A)
                 (A) (A) (A) (A) (A) (A) (A) (A) (A) (A) (A) (A)
                 (A) (A) (A) (A) (A) (A) (A) (A) (A) (A) (A) (A)
                 (A) (A) (A) (A) (A) (A) (A) (A) (A) (A) (A) (A)
                 (A) (A) (A) (A) (A) (A) (A) (A) (A) (A) (A) (A)
                 (A) (A) (A) (A) (A) (A) (A) (A) (A) (A) (A) (A)
                 (A) (A) (A) (A) (A) (A) (A) (A) (A) (A) (A) (A)
                 (A) (A) (A) (A) (A) (A) (A) (A) (A) (A) (A) (A)
                 (A) (A) (A) (A) (A) (A) (A) (A) (A) (A) (A) (A)
                 (A) (A) (A) (A) (A) (A) (A) (A) (A) (A) (A) (A)
                 (A) (A) (A) (A) (A) (A) (A) (A) (A) (A) (A) (A)
                 (A) (A) (A) (A) (A) (A) (A) (A) (A) (A) (A) (A)
                 (A) (A) (A) (A) (A) (A) (A) (A) (A) (A) (A) (A)
                 (A) (A) (A) (A) (A) (A) (A) (A) (A) (A) (A) (A)
                 (A) (A) (A) (A) (A) (A) (A) (A) (A) (A) (A) (A)
                 (A) (A) (A) (A) (A) (A) (A) (A) (A) (A) (A) (A)
                 (A) (A) (A) (A) (A) (A) (A) (A) (A) (A) (A) (A)
                 (A) (A) (A) (A) (A) (A) (A) (A) (A) (A) (A) (A)
                 (A) (A) (A) (A) (A) (A) (A) (A) (A) (A) (A) (A)
                 (A) (A) (A) (A) (A) (A) (A) (A) (A) (A) (A) (A)
                 (A) (A) (A) (A) (A) (A) (A) (A) (A) (A) (A) (A)
                 (A) (A) (A) (A) (A) (A) (A) (A) (A) (A) (A) (A)
                 (A) (A) (A) (A) (A) (A) (A) (A) (A) (A) (A) (A)
                 (A) (A) (A) (A) (A) (A) (A) (A) (A) (A) (A) (A)
                 (A) (A) (A) (A) (A) (A) (A) (A) (A) (A) (A) (A)
                 (A) (A) (A) (A) (A) (A) (A) (A) (A) (A) (A) (A)
                 (A) (A) (A) (A) (A) (A) (A) (A) (A) (A) (A) (A)
                 (A) (A) (A) (A) (A) (A) (A) (A) (A) (A) (A) (A)
                 (A) (A) (A) (A) (A) (A) (A) (A) (A) (A) (A) (A)
                 (A) (A) (A) (A) (A) (A) (A) (A) (A) (A) (A) (A)
                 (A) (A) (A) (A) (A) (A) (A) (A) (A) (A) (A) (A)
                 (A) (A) (A) (A) (A) (A) (A) (A) (A) (A) (A) (A)
                 (A) (A) (A) (A) (A) (A) (A) (A) (A) (A) (A) (A)
                 (A) (A) (A) (A) (A) (A) (A) (A) (A) (A) (A) (A)
                 (A) (A) (A) (A) (A) (A) (A) (A) (A) (A) (A) (A)
                 (A) (A) (A) (A) (A) (A) (A) (A) (A) (A) (A) (A)
                 (A) (A) (A) (A) (A) (A) (A) (A) (A) (A) (A) (A)
                 (A) (A) (A) (A) (A) (A) (A) (A) (A) (A) (A) (A)
                 (A) (A) (A) (A) (A) (A) (A) (A) (A) (A) (A) (A)
                 (A) (A) (A) (A) (A) (A) (A) (A) (A) (A) (A) (A)
                 (A) (A) (A) (A) (A) (A) (A) (A) (A) (A) (A) (A)
                 (A) (A) (A) (A) (A) (A) (A) (A) (A) (A) (A) (A)
                 (A) (A) (A) (A) (A) (A) (A) (A) (A) (A) (A) (A)
                 (A) (A) (A) (A) (A) (A) (A) (A) (A) (A) (A) (A)
                 (A) (A) (A) (A) (A) (A) (A) (A) (A) (A) (A) (A)
                 (A) (A) (A) (A) (A) (A) (A) (A) (A) (A) (A) (A)
                 (A) (A) (A) (A) (A) (A) (A) (A) (A) (A) (A) (A)
                 (A) (A) (A) (A) (A) (A) (A) (A) (A) (A) (A) (A)
                 (A) (A) (A) (A) (A) (A) (A) (A) (A) (A) (A) (A)
                 (A) (A) (A) (A) (A) (A) (A) (A) (A) (A) (A) (A)
                 (A) (A) (A) (A) (A) (A) (A) (A) (A) (A) (A) (A)
                 (A) (A) (A) (A) (A) (A) (A) (A) (A) (A) (A) (A)
                 (A) (A) (A) (A) (A) (A) (A) (A) (A) (A) (A) (A)
                 (A) (A) (A) (A) (A) (A) (A) (A) (A) (A) (A) (A)
                 (A) (A) (A) (A) (A) (A) (A) (A) (A) (A) (A) (A)
                 (A) (A) (A) (A) (A) (A) (A) (A) (A) (A) (A) (A)
                 (A) (A) (A) (A) (A) (A) (A) (A) (A) (A) (A) (A)
                 (A) (A) (A) (A) (A) (A) (A) (A) (A) (A) (A) (A)
                 (A) (A) (A) (A) (A) (A) (A) (A) (A) (A) (A) (A)
                 (A) (A) (A) (A) (A) (A) (A) (A) (A) (A) (A) (A)
                 (A) (A) (A) (A) (A) (A) (A) (A) (A) (A) (A) (A)
                 (A) (A) (A) (A) (A) (A) (A) (A) (A) (A) (A) (A)
                 (A) (A) (A) (A) (A) (A) (A) (A) (A) (A) (A) (A)
                 (A) (A) (A) (A) (A) (A) (A) (A) (A) (A) (A) (A)
                 (A) (A) (A) (A) (A) (A) (A) (A) (A) (A) (A) (A)
                 (A) (A) (A) (A) (A) (A) (A) (A) (A) (A) (A) (A)
                 (A) (A) (A) (A) (A) (A) (A) (A) (A) (A) (A) (A)
                 (A) (A) (A) (A) (A) (A) (A) (A) (A) (A) (A) (A)
                 (A) (A) (A) (A) (A) (A) (A) (A) (A) (A) (A) (A)
                 (A) (A) (A) (A) (A) (A) (A) (A) (A) (A) (A) (A)
                 (A) (A) (A) (A) (A) (A) (A) (A) (A) (A) (A) (A)
                 (A) (A) (A) (A) (A) (A) (A) (A) (A) (A) (A) (A)
                 (A) (A) (A) (A) (A) (A) (A) (A) (A) (A) (A) (A)
                 (A) (A) (A) (A) (A) (A) (A) (A) (A) (A) (A) (A)
                 (A) (A) (A) (A) (A) (A) (A) (A) (A) (A) (A) (A)
                 (A) (A) (A) (A) (A) (A) (A) (A) (A) (A) (A) (A)
                 (A) (A) (A) (A) (A) (A) (A) (A) (A) (A) (A) (A)
                 (A) (A) (A) (A) (A) (A) (A) (A) (A) (A) (A) (A)
    20 initial guesses have been made.
 Convergence on wavefunction:    0.001000000000000
 Davidson Disk Diagonalization:  ConvIn= 1.00D-03 SkipCon=T Conv= 1.00D-03.
 Max sub-space:  2000 roots to seek:    20 dimension of matrix:       549360
 Iteration     1 Dimension    20 NMult     0 NNew     20
 CISAX will form    20 AO SS matrices at one time.
 NMat=    20 NSing=    20 JSym2X= 0.
 FoFJK:  IHMeth= 1 ICntrl=       0 DoSepK=T KAlg= 0 I1Cent=           0 FoldK=F
 IRaf=         1 NMat=      40 IRICut=       1 DoRegI=T DoRafI=F ISym2E= 0 IDoP0=3 IntGTp=3.
 FoFCou: FMM=T IPFlag=           0 FMFlag=      100000 FMFlg1=        2001
         NFxFlg=           0 DoJE=F BraDBF=F KetDBF=F FulRan=T
         wScrn=  0.000000 ICntrl=       500 IOpCl=  0 I1Cent=           0 NGrid=           0
         NMat0=   20 NMatS0=     20 NMatT0=    0 NMatD0=   20 NMtDS0=    0 NMtDT0=    0
 Symmetry not used in FoFCou.
 FMM levels:  10  Number of levels for PrismC:   9
 New state      2 was old state      7
 New state      3 was old state      6
 New state      5 was old state      2
 Excitation Energies [eV] at current iteration:
 Root      1 :     2.486032876621538
 Root      2 :     2.609685938413758
 Root      3 :     2.616812886673937
 Root      4 :     2.621243934662398
 Root      5 :     2.658467733647988
 Root      6 :     2.715346455028575
 Root      7 :     3.273022204241025
 Root      8 :     3.417301830438495
 Root      9 :     3.624133114497020
 Root     10 :     3.666493430019337
 Root     11 :     3.738866067088199
 Root     12 :     3.763184627637046
 Root     13 :     4.282533398493442
 Root     14 :     4.325275096792288
 Root     15 :     4.390730543481492
 Root     16 :     4.551220578318204
 Root     17 :     4.705921280145827
 Root     18 :     4.746353418484192
 Root     19 :     4.850935116346606
 Root     20 :     4.859957224573222
 Iteration     2 Dimension    30 NMult    20 NNew     10
 CISAX will form    10 AO SS matrices at one time.
 NMat=    10 NSing=    10 JSym2X= 0.
 New state      1 was old state      5
 Root      1 not converged, maximum delta is    0.218782860209658
 New state      2 was old state      3
 Root      2 not converged, maximum delta is    0.101742709073017
 New state      3 was old state      2
 Root      3 not converged, maximum delta is    0.181825741046772
 New state      4 was old state      1
 Root      4 not converged, maximum delta is    0.002304165347531
 New state      5 was old state      4
 Root      5 not converged, maximum delta is    0.004352029357437
 Excitation Energies [eV] at current iteration:
 Root      1 :     1.787584333084897   Change is   -0.870883400563092
 Root      2 :     2.220579187253931   Change is   -0.396233699420006
 Root      3 :     2.238512329379692   Change is   -0.371173609034066
 Root      4 :     2.485594410009518   Change is   -0.000438466612020
 Root      5 :     2.620709702220814   Change is   -0.000534232441585
 Iteration     3 Dimension    40 NMult    30 NNew     10
 CISAX will form    10 AO SS matrices at one time.
 NMat=    10 NSing=    10 JSym2X= 0.
 Root      1 not converged, maximum delta is    0.054449723912603
 Root      2 not converged, maximum delta is    0.455144150101310
 Root      3 not converged, maximum delta is    0.195872259843359
 No map to state      4
 New state      5 was old state      4
 Root      5 has converged.
 Excitation Energies [eV] at current iteration:
 Root      1 :     1.681640935143420   Change is   -0.105943397941476
 Root      2 :     1.931410000223995   Change is   -0.289169187029936
 Root      3 :     2.197876566620208   Change is   -0.040635762759484
 Root      4 :     2.223848685427691
 Root      5 :     2.485591608430321   Change is   -0.000002801579197
 Iteration     4 Dimension    48 NMult    40 NNew      8
 CISAX will form     8 AO SS matrices at one time.
 NMat=     8 NSing=     8 JSym2X= 0.
 Root      1 not converged, maximum delta is    0.010260161406316
 Root      2 not converged, maximum delta is    0.137920524982001
 New state      3 was old state      4
 Root      3 not converged, maximum delta is    0.433510155160037
 New state      4 was old state      3
 Root      4 not converged, maximum delta is    0.430641471636724
 Root      5 has converged.
 Excitation Energies [eV] at current iteration:
 Root      1 :     1.664967164636635   Change is   -0.016673770506786
 Root      2 :     1.710039934974071   Change is   -0.221370065249924
 Root      3 :     2.186734308416304   Change is   -0.037114377011387
 Root      4 :     2.193133505620916   Change is   -0.004743060999292
 Root      5 :     2.485591602776418   Change is   -0.000000005653902
 Iteration     5 Dimension    56 NMult    48 NNew      8
 CISAX will form     8 AO SS matrices at one time.
 NMat=     8 NSing=     8 JSym2X= 0.
 Root      1 not converged, maximum delta is    0.001707724593286
 Root      2 not converged, maximum delta is    0.010305342788337
 Root      3 not converged, maximum delta is    0.046176639356182
 Root      4 not converged, maximum delta is    0.046239585310636
 Root      5 has converged.
 Excitation Energies [eV] at current iteration:
 Root      1 :     1.663232010702917   Change is   -0.001735153933717
 Root      2 :     1.692498292105148   Change is   -0.017541642868923
 Root      3 :     2.185181600329204   Change is   -0.001552708087099
 Root      4 :     2.191959012043822   Change is   -0.001174493577094
 Root      5 :     2.485591600893736   Change is   -0.000000001882683
 Iteration     6 Dimension    64 NMult    56 NNew      8
 CISAX will form     8 AO SS matrices at one time.
 NMat=     8 NSing=     8 JSym2X= 0.
 Root      1 not converged, maximum delta is    0.001047693292123
 Root      2 not converged, maximum delta is    0.005236534181562
 Root      3 not converged, maximum delta is    0.007211616738099
 Root      4 not converged, maximum delta is    0.007247988388024
 Root      5 has converged.
 Excitation Energies [eV] at current iteration:
 Root      1 :     1.662985184882515   Change is   -0.000246825820403
 Root      2 :     1.689308761071665   Change is   -0.003189531033482
 Root      3 :     2.184930526978007   Change is   -0.000251073351197
 Root      4 :     2.191785573609935   Change is   -0.000173438433888
 Root      5 :     2.485591599215712   Change is   -0.000000001678023
 Iteration     7 Dimension    72 NMult    64 NNew      8
 CISAX will form     8 AO SS matrices at one time.
 NMat=     8 NSing=     8 JSym2X= 0.
 Root      1 has converged.
 Root      2 not converged, maximum delta is    0.001450010529248
 Root      3 has converged.
 Root      4 has converged.
 Root      5 has converged.
 Excitation Energies [eV] at current iteration:
[...]
 Alpha virt. eigenvalues --    1.84423   1.84630   1.84762   1.84873   1.85097
 Alpha virt. eigenvalues --    1.85209   1.85230   1.85381   1.85425   1.85584
 Alpha virt. eigenvalues --    1.85835   1.85999   1.86323   1.86481   1.86507
 Alpha virt. eigenvalues --    1.86736   1.86761   1.86927   1.87044   1.87130
 Alpha virt. eigenvalues --    1.87426   1.87571   1.87665   1.87837   1.87843
 Alpha virt. eigenvalues --    1.88010   1.88113   1.88264   1.88496   1.88653
 Alpha virt. eigenvalues --    1.88800   1.89005   1.89110   1.89168   1.89565
 Alpha virt. eigenvalues --    1.89685   1.89745   1.89978   1.90085   1.90276
 Alpha virt. eigenvalues --    1.90737   1.90977   1.91332   1.91425   1.91518
 Alpha virt. eigenvalues --    1.91648   1.92128   1.92262   1.92627   1.92727
 Alpha virt. eigenvalues --    1.92949   1.93251   1.93306   1.93612   1.94268
 Alpha virt. eigenvalues --    1.94404   1.94645   1.94912   1.95452   1.95700
 Alpha virt. eigenvalues --    1.95715   1.95884   1.95985   1.96125   1.96135
 Alpha virt. eigenvalues --    1.96248   1.96571   1.96580   1.96862   1.97017
 Alpha virt. eigenvalues --    1.97432   1.97623   1.97820   1.97884   1.98149
 Alpha virt. eigenvalues --    1.98244   1.98413   1.98696   1.99125   1.99166
 Alpha virt. eigenvalues --    1.99806   1.99994   2.00628   2.00827   2.00974
 Alpha virt. eigenvalues --    2.01177   2.01477   2.01618   2.01649   2.01669
 Alpha virt. eigenvalues --    2.01707   2.01887   2.02762   2.02792   2.03218
 Alpha virt. eigenvalues --    2.03238   2.03385   2.03456   2.03473   2.03608
 Alpha virt. eigenvalues --    2.04018   2.04112   2.04911   2.05081   2.05468
 Alpha virt. eigenvalues --    2.05727   2.06033   2.06371   2.06900   2.07096
 Alpha virt. eigenvalues --    2.07162   2.07463   2.08513   2.08651   2.08943
 Alpha virt. eigenvalues --    2.09089   2.09564   2.09698   2.10747   2.11147
 Alpha virt. eigenvalues --    2.11149   2.11504   2.11534   2.11585   2.11685
 Alpha virt. eigenvalues --    2.11947   2.12447   2.12526   2.12758   2.12809
 Alpha virt. eigenvalues --    2.12899   2.12957   2.13673   2.13764   2.14107
 Alpha virt. eigenvalues --    2.14364   2.15297   2.15500   2.15908   2.16162
 Alpha virt. eigenvalues --    2.16482   2.16685   2.16719   2.17293   2.17391
 Alpha virt. eigenvalues --    2.17673   2.17751   2.18007   2.18043   2.18112
 Alpha virt. eigenvalues --    2.18307   2.18733   2.18860   2.19296   2.19617
 Alpha virt. eigenvalues --    2.19896   2.20011   2.20191   2.20337   2.20510
 Alpha virt. eigenvalues --    2.21114   2.21281   2.21626   2.21727   2.21863
 Alpha virt. eigenvalues --    2.21961   2.22646   2.22786   2.23287   2.23455
 Alpha virt. eigenvalues --    2.24346   2.24528   2.24923   2.25106   2.26280
 Alpha virt. eigenvalues --    2.26518   2.26746   2.27083   2.27092   2.27289
 Alpha virt. eigenvalues --    2.28110   2.28375   2.29228   2.29526   2.29706
 Alpha virt. eigenvalues --    2.29963   2.30439   2.30672   2.30853   2.31061
 Alpha virt. eigenvalues --    2.31200   2.31308   2.32075   2.32340   2.33106
 Alpha virt. eigenvalues --    2.33303   2.33439   2.33568   2.34122   2.34220
 Alpha virt. eigenvalues --    2.35358   2.35376   2.35763   2.35978   2.36315
 Alpha virt. eigenvalues --    2.36425   2.36558   2.36575   2.37627   2.37795
 Alpha virt. eigenvalues --    2.38190   2.38476   2.38822   2.38841   2.39571
 Alpha virt. eigenvalues --    2.39753   2.40159   2.40359   2.40463   2.40877
 Alpha virt. eigenvalues --    2.41262   2.41265   2.41654   2.41783   2.42032
 Alpha virt. eigenvalues --    2.42203   2.42901   2.42921   2.43070   2.43580
 Alpha virt. eigenvalues --    2.44045   2.44152   2.44691   2.44877   2.44890
 Alpha virt. eigenvalues --    2.45071   2.45507   2.45672   2.46226   2.46363
 Alpha virt. eigenvalues --    2.46442   2.46602   2.46764   2.46884   2.47229
 Alpha virt. eigenvalues --    2.47485   2.47677   2.47977   2.49257   2.49490
 Alpha virt. eigenvalues --    2.49990   2.50028   2.50501   2.50539   2.51102
 Alpha virt. eigenvalues --    2.51331   2.51691   2.51851   2.52425   2.52432
 Alpha virt. eigenvalues --    2.52782   2.53224   2.53876   2.54053   2.54066
 Alpha virt. eigenvalues --    2.54370   2.54754   2.54904   2.55462   2.55756
 Alpha virt. eigenvalues --    2.57807   2.58160   2.58609   2.58981   2.60187
 Alpha virt. eigenvalues --    2.60351   2.60592   2.60968   2.61658   2.61901
 Alpha virt. eigenvalues --    2.62495   2.62508   2.62925   2.63207   2.63899
 Alpha virt. eigenvalues --    2.64217   2.64276   2.64514   2.65051   2.65172
 Alpha virt. eigenvalues --    2.65761   2.65901   2.66742   2.66871   2.66905
 Alpha virt. eigenvalues --    2.67117   2.67872   2.68051   2.68817   2.68886
 Alpha virt. eigenvalues --    2.69007   2.69076   2.69362   2.69657   2.69972
 Alpha virt. eigenvalues --    2.70218   2.70959   2.71113   2.71944   2.72031
 Alpha virt. eigenvalues --    2.72543   2.72626   2.72779   2.72860   2.73239
 Alpha virt. eigenvalues --    2.73375   2.73491   2.73552   2.74479   2.74585
 Alpha virt. eigenvalues --    2.74944   2.75124   2.76554   2.76600   2.77146
 Alpha virt. eigenvalues --    2.77199   2.77400   2.77663   2.78108   2.78361
 Alpha virt. eigenvalues --    2.78708   2.78760   2.79097   2.79203   2.80281
 Alpha virt. eigenvalues --    2.80326   2.80575   2.80727   2.81077   2.81229
 Alpha virt. eigenvalues --    2.81897   2.82042   2.82303   2.82412   2.83681
 Alpha virt. eigenvalues --    2.83738   2.83922   2.83959   2.84498   2.84621
 Alpha virt. eigenvalues --    2.84840   2.84971   2.85604   2.85755   2.86709
 Alpha virt. eigenvalues --    2.86974   2.87195   2.87629   2.88074   2.88303
 Alpha virt. eigenvalues --    2.88481   2.88705   2.88892   2.88957   2.90481
 Alpha virt. eigenvalues --    2.90701   2.91140   2.91156   2.93124   2.93372
 Alpha virt. eigenvalues --    2.93834   2.94159   2.94497   2.94647   2.95361
 Alpha virt. eigenvalues --    2.95479   2.95831   2.96224   2.96424   2.96429
 Alpha virt. eigenvalues --    2.96883   2.97192   2.97813   2.98094   2.98145
 Alpha virt. eigenvalues --    2.98333   2.98370   2.98568   2.98623   2.98830
 Alpha virt. eigenvalues --    2.98886   2.99031   2.99530   2.99867   3.00002
 Alpha virt. eigenvalues --    3.00036   3.00209   3.00399   3.00441   3.01024
 Alpha virt. eigenvalues --    3.01959   3.01967   3.01972   3.02133   3.02737
 Alpha virt. eigenvalues --    3.02839   3.02976   3.03265   3.03353   3.03733
 Alpha virt. eigenvalues --    3.04094   3.04146   3.04411   3.04482   3.04525
 Alpha virt. eigenvalues --    3.04853   3.05247   3.05424   3.06077   3.06218
 Alpha virt. eigenvalues --    3.06791   3.06978   3.07983   3.08079   3.09372
 Alpha virt. eigenvalues --    3.09430   3.09676   3.10415   3.10421   3.10773
 Alpha virt. eigenvalues --    3.11290   3.11551   3.11936   3.11982   3.12152
 Alpha virt. eigenvalues --    3.12321   3.13255   3.13590   3.13680   3.13768
 Alpha virt. eigenvalues --    3.14113   3.14479   3.15887   3.16069   3.17223
 Alpha virt. eigenvalues --    3.17598   3.17946   3.17999   3.19064   3.19108
 Alpha virt. eigenvalues --    3.22321   3.22618   3.23904   3.24508   3.24652
 Alpha virt. eigenvalues --    3.25252   3.26463   3.26734   3.27462   3.27585
 Alpha virt. eigenvalues --    3.29122   3.29234   3.31447   3.31484   3.33260
 Alpha virt. eigenvalues --    3.33373   3.40248   3.40674   3.42741   3.42881
 Alpha virt. eigenvalues --    3.48625   3.48769   3.49981   3.50355   3.50903
 Alpha virt. eigenvalues --    3.51429   3.56500   3.57080   3.59057   3.59423
 Alpha virt. eigenvalues --    3.62587   3.62799   3.66096   3.66175   3.67214
 Alpha virt. eigenvalues --    3.67545   3.73282   3.74047   3.76055   3.76717
          Condensed to atoms (all electrons):
 Mulliken charges:
               1
     1  Mg   0.838650
     2  C   -0.002823
     3  C   -0.094377
     4  C   -0.045975
     5  C   -0.064019
     6  N   -0.256809
     7  C   -0.052245
     8  C   -0.013957
     9  C   -0.086923
    10  C    0.046263
    11  C    0.104805
    12  C    0.053534
    13  C   -0.072505
    14  H    0.038178
    15  N   -0.433052
    16  C    0.168122
    17  C   -0.177616
    18  C   -0.004493
    19  C    0.148607
    20  C    0.110251
    21  C    0.011625
    22  O   -0.249693
    23  C    0.062901
    24  N   -0.341217
    25  C    0.041300
    26  C   -0.028158
    27  C   -0.024087
    28  C    0.075099
    29  C    0.076130
    30  C    0.035055
    31  C   -0.004442
    32  N   -0.310534
    33  C    0.080647
    34  C   -0.169820
    35  C    0.008482
    36  C    0.083087
    37  C    0.127325
    38  C    0.046156
    39  O   -0.187985
    40  C   -0.005259
    41  C    0.212861
    42  O   -0.256910
    43  O   -0.304945
    44  C    0.157350
    45  H   -0.017620
    46  H   -0.016958
    47  H   -0.041365
    48  H    0.001262
    49  H   -0.004083
    50  H    0.025615
    51  H    0.016317
    52  H    0.016774
    53  H    0.010481
    54  H    0.044592
    55  H    0.017890
    56  H    0.017554
    57  H    0.006068
    58  H    0.026896
    59  H    0.038125
    60  H    0.037799
    61  H    0.035011
    62  H    0.029881
    63  H    0.016560
    64  H    0.009599
    65  H    0.023245
    66  H    0.012495
    67  H    0.004905
    68  H    0.006724
    69  H    0.004661
    70  H    0.009073
    71  H    0.018533
    72  H    0.028622
    73  H    0.047468
    74  H    0.009124
    75  H    0.046310
    76  H    0.035341
    77  H    0.043193
    78  H    0.046768
    79  H    0.054552
    80  Mg   0.838218
    81  C   -0.016840
    82  C   -0.087990
    83  C   -0.045379
    84  C   -0.063139
    85  N   -0.254465
    86  C   -0.049701
    87  C   -0.015057
    88  C   -0.090567
    89  C    0.045711
    90  C    0.114599
    91  C    0.062660
    92  C   -0.077494
    93  H    0.034512
    94  N   -0.423422
    95  C    0.162686
    96  C   -0.174607
    97  C   -0.007951
    98  C    0.152003
    99  C    0.099362
   100  C    0.015464
   101  O   -0.253587
   102  C    0.061228
   103  N   -0.349827
   104  C    0.037559
   105  C   -0.019899
   106  C   -0.035163
   107  C    0.088928
   108  C    0.073545
   109  C    0.034673
   110  C   -0.007587
   111  N   -0.324366
   112  C    0.078593
   113  C   -0.161539
   114  C    0.002563
   115  C    0.096481
   116  C    0.131012
   117  C    0.043020
   118  O   -0.188245
   119  C    0.000668
   120  C    0.211057
   121  O   -0.251094
   122  O   -0.305822
   123  C    0.152159
   124  H   -0.020326
   125  H   -0.015884
   126  H   -0.039442
   127  H   -0.001380
   128  H   -0.005034
   129  H    0.022602
   130  H    0.015275
   131  H    0.014050
   132  H    0.013997
   133  H    0.037741
   134  H    0.019991
   135  H    0.019279
   136  H    0.008196
   137  H    0.026514
   138  H    0.039245
   139  H    0.038464
   140  H    0.035985
   141  H    0.033605
   142  H    0.013979
   143  H    0.014010
   144  H    0.024198
   145  H    0.011691
   146  H    0.006466
   147  H    0.005987
   148  H    0.004145
   149  H    0.010601
   150  H    0.017692
   151  H    0.029998
   152  H    0.045169
   153  H    0.008623
   154  H    0.050503
   155  H    0.035033
   156  H    0.043401
   157  H    0.049090
   158  H    0.053574
 Sum of Mulliken charges =  -0.00000
 Mulliken charges with hydrogens summed into heavy atoms:
               1
     1  Mg   0.838650
     2  C   -0.002823
     3  C   -0.111997
     4  C   -0.062933
     5  C   -0.105384
     6  N   -0.256809
     7  C   -0.052245
     8  C   -0.012695
     9  C   -0.091006
    10  C    0.046263
    11  C    0.163511
    12  C    0.108607
    13  C    0.001117
    15  N   -0.433052
    16  C    0.168122
    17  C   -0.177616
    18  C   -0.004493
    19  C    0.148607
    20  C    0.181340
    21  C    0.011625
    22  O   -0.249693
    23  C    0.165592
    24  N   -0.341217
    25  C    0.041300
    26  C   -0.011598
    27  C   -0.014488
    28  C    0.075099
    29  C    0.116775
    30  C    0.046440
    31  C    0.051785
    32  N   -0.310534
    33  C    0.080647
    34  C   -0.169820
    35  C    0.008482
    36  C    0.083087
    37  C    0.230226
    38  C    0.046156
    39  O   -0.187985
    40  C    0.030082
    41  C    0.212861
    42  O   -0.256910
    43  O   -0.304945
    44  C    0.301863
    80  Mg   0.838218
    81  C   -0.016840
    82  C   -0.108316
    83  C   -0.061263
    84  C   -0.102581
    85  N   -0.254465
    86  C   -0.049701
    87  C   -0.016437
    88  C   -0.095600
    89  C    0.045711
    90  C    0.166527
    91  C    0.114398
    92  C   -0.003712
    94  N   -0.423422
    95  C    0.162686
    96  C   -0.174607
    97  C   -0.007951
    98  C    0.152003
    99  C    0.173317
   100  C    0.015464
   101  O   -0.253587
   102  C    0.169282
   103  N   -0.349827
   104  C    0.037559
   105  C   -0.005920
   106  C   -0.021152
   107  C    0.088928
   108  C    0.115901
   109  C    0.044805
   110  C    0.050704
   111  N   -0.324366
   112  C    0.078593
   113  C   -0.161539
   114  C    0.002563
   115  C    0.096481
   116  C    0.235307
   117  C    0.043020
   118  O   -0.188245
   119  C    0.035702
   120  C    0.211057
   121  O   -0.251094
   122  O   -0.305822
   123  C    0.298224
 Electronic spatial extent (au):  <R**2>=         114891.5929
 Charge=             -0.0000 electrons
 Dipole moment (field-independent basis, Debye):
    X=             -3.5501    Y=              1.9595    Z=              6.9645  Tot=              8.0590
 Quadrupole moment (field-independent basis, Debye-Ang):
   XX=           -518.8335   YY=           -532.1885   ZZ=           -467.0270
   XY=             20.0815   XZ=             -1.8925   YZ=            -30.5018
 Traceless Quadrupole moment (field-independent basis, Debye-Ang):
   XX=            -12.8172   YY=            -26.1722   ZZ=             38.9893
   XY=             20.0815   XZ=             -1.8925   YZ=            -30.5018
 Octapole moment (field-independent basis, Debye-Ang**2):
  XXX=           -306.4004  YYY=           -206.8732  ZZZ=            154.2215  XYY=           -184.7591
  XXY=             87.6575  XXZ=            219.0682  XZZ=            195.5354  YZZ=             15.0455
  YYZ=            103.7627  XYZ=            214.5248
 Hexadecapole moment (field-independent basis, Debye-Ang**3):
 XXXX=         -90927.0510 YYYY=         -39067.5449 ZZZZ=         -27074.5164 XXXY=            848.1979
 XXXZ=            304.5348 YYYX=            622.8604 YYYZ=           -142.2698 ZZZX=          -1050.5754
 ZZZY=           -581.1461 XXYY=         -21900.5265 XXZZ=         -18438.5805 YYZZ=         -11167.8598
 XXYZ=          -1089.2126 YYXZ=           1559.2328 ZZXY=           -673.4436
 N-N= 1.494073569997D+04 E-N=-3.936252731971D+04  KE= 4.028801739478D+03
 Leave Link  601 at Sat Sep  4 04:49:41 2021, MaxMem= 23488102400 cpu:              16.2 elap:               0.8
 (Enter /sw/apps/gaussian-16.0/g16/l9999.exe)
 1\1\GINC-BP1-COMPUTE00097\SP\RCAM-B3LYP TD-FC\def2SVP\C68H72Mg2N8O8\OF
 15641\04-Sep-2021\0\\#p cam-b3lyp/Def2SVP td=(nstates=5)\\TDDFT excite
 d states in gaussian\\0,1\Mg,0,0.,0.,0.\C,0,-0.217,-2.218,2.801\C,0,-1
 .255,2.442,2.026\C,0,-0.245,1.85,-2.564\C,0,0.146,-2.824,-2.037\N,0,-0
 .617,-0.009,2.126\C,0,-0.594,-0.908,3.105\C,0,-0.936,-0.309,4.502\C,0,
 -1.773,0.964,4.032\C,0,-1.155,1.168,2.66\C,0,-3.263,0.685,3.863\C,0,0.
 345,0.11,5.299\C,0,0.124,0.397,6.787\H,0,1.168,0.033,7.733\N,0,-0.185,
 1.961,-0.152\C,0,-0.703,2.8,0.777\C,0,-0.62,4.156,0.193\C,0,-0.187,4.0
 15,-1.225\C,0,-0.214,2.583,-1.38\C,0,-0.887,5.406,0.974\C,0,0.181,5.01
 3,-2.277\O,0,0.303,4.69,-3.508\C,0,0.31,6.414,-1.837\N,0,-0.265,-0.413
 ,-2.029\C,0,-0.279,0.569,-2.937\C,0,-0.196,0.024,-4.332\C,0,0.124,-1.5
 33,-4.18\C,0,0.086,-1.632,-2.635\C,0,-1.451,0.205,-5.197\C,0,1.373,-2.
 07,-4.923\C,0,2.626,-1.49,-4.306\N,0,0.15,-2.144,0.303\C,0,0.173,-3.13
 6,-0.688\C,0,0.173,-4.438,0.004\C,0,0.133,-4.111,1.358\C,0,0.083,-2.69
 5,1.502\C,0,0.149,-5.715,-0.623\C,0,0.096,-4.629,2.716\O,0,0.208,-5.74
 7,3.221\C,0,-0.255,-3.428,3.701\C,0,0.717,-3.482,4.848\O,0,1.931,-3.25
 5,4.669\O,0,0.038,-3.556,6.003\C,0,0.943,-3.583,7.183\H,0,-1.859,3.22,
 2.497\H,0,-0.218,2.453,-3.474\H,0,0.276,-3.747,-2.605\H,0,-1.554,-0.94
 9,5.132\H,0,-1.585,1.831,4.665\H,0,-3.484,-0.377,3.969\H,0,-3.511,1.02
 7,2.858\H,0,-3.852,1.301,4.543\H,0,0.669,1.096,4.966\H,0,1.13,-0.639,5
 .189\H,0,-0.844,0.026,7.125\H,0,0.062,1.477,6.921\H,0,-1.344,5.186,1.9
 38\H,0,-1.651,5.963,0.432\H,0,0.007,6.02,1.084\H,0,-0.635,6.744,-1.405
 \H,0,0.665,6.97,-2.704\H,0,1.048,6.466,-1.036\H,0,0.608,0.501,-4.891\H
 ,0,-0.692,-2.156,-4.547\H,0,-1.267,0.74,-6.129\H,0,-2.204,0.714,-4.596
 \H,0,-1.967,-0.72,-5.453\H,0,1.356,-1.759,-5.967\H,0,1.452,-3.157,-4.9
 02\H,0,2.714,-0.522,-4.798\H,0,3.487,-2.121,-4.529\H,0,2.495,-1.303,-3
 .24\H,0,0.867,-6.333,-0.084\H,0,0.404,-5.642,-1.68\H,0,-0.891,-5.999,-
 0.463\H,0,-1.283,-3.581,4.028\H,0,0.698,-4.478,7.755\H,0,0.833,-2.619,
 7.68\H,0,2.,-3.754,6.976\Mg,0,10.51731,0.95458,0.79968\C,0,9.97735,1.7
 2429,4.26306\C,0,9.40563,4.09839,0.08186\C,0,10.55329,0.15872,-2.2716\
 C,0,10.4842,-2.41551,1.68687\N,0,9.81158,2.60538,2.0916\C,0,9.70846,2.
 80459,3.39698\C,0,9.37159,4.26527,3.80007\C,0,8.66797,4.7352,2.43517\C
 ,0,9.35898,3.78129,1.46294\C,0,7.17494,4.45421,2.40002\C,0,10.65648,5.
 11259,4.10525\C,0,10.39446,6.45038,4.80053\H,0,11.36612,6.92743,5.7807
 3\N,0,10.52148,2.09704,-0.82308\C,0,10.05102,3.3572,-0.93227\C,0,10.26
 8,3.74763,-2.33393\C,0,10.75408,2.5569,-3.08266\C,0,10.6054,1.53037,-2
 .07063\C,0,10.09202,5.15594,-2.82291\C,0,11.25606,2.37033,-4.48245\O,0
 ,11.4009,1.205,-4.99613\C,0,11.48415,3.5935,-5.26561\N,0,10.30758,-0.8
 6249,-0.18855\C,0,10.41632,-0.93833,-1.52659\C,0,10.5056,-2.37404,-1.9
 8611\C,0,10.67825,-3.24162,-0.65379\C,0,10.5644,-2.11606,0.39766\C,0,9
 .30748,-2.89412,-2.78009\C,0,11.90383,-4.1936,-0.58775\C,0,13.18129,-3
 .38717,-0.53147\N,0,10.46257,-0.16747,2.64523\C,0,10.42941,-1.57186,2.
 78898\C,0,10.28106,-1.85856,4.23058\C,0,10.21455,-0.59079,4.82794\C,0,
 10.2941,0.41495,3.82712\C,0,10.17679,-3.15225,4.81505\C,0,10.08445,0.1
 2528,6.07654\O,0,10.06539,-0.19569,7.26412\C,0,9.7979,1.65512,5.75425\
 C,0,10.7121,2.4891,6.60938\O,0,11.94387,2.44977,6.44264\O,0,9.97448,3.
 35291,7.33057\C,0,10.8374,4.20981,8.18667\H,0,8.86125,4.97612,-0.26761
 \H,0,10.67363,-0.17115,-3.3061\H,0,10.5643,-3.44089,2.05408\H,0,8.6785
 1,4.35986,4.6274\H,0,8.91541,5.76666,2.19801\H,0,6.85363,3.87583,3.253
 48\H,0,7.00035,3.90555,1.48376\H,0,6.61743,5.39009,2.30179\H,0,11.0810
 8,5.47249,3.15925\H,0,11.36306,4.54133,4.67537\H,0,9.37737,6.51176,5.2
 0635\H,0,10.43224,7.24439,4.05077\H,0,9.56918,5.77587,-2.08419\H,0,9.4
 069,5.11475,-3.6766\H,0,11.03132,5.61038,-3.14521\H,0,10.55733,4.15845
 ,-5.33111\H,0,11.92581,3.25988,-6.20663\H,0,12.20022,4.22484,-4.72778\
 H,0,11.37211,-2.52459,-2.61825\H,0,9.82179,-3.91214,-0.49035\H,0,9.581
 58,-3.28416,-3.7785\H,0,8.58426,-2.09446,-2.86966\H,0,8.7298,-3.67387,
 -2.28666\H,0,11.96032,-4.80166,-1.49396\H,0,11.87655,-4.87493,0.25607\
 H,0,13.37259,-3.15419,-1.58323\H,0,13.98908,-3.97844,-0.10493\H,0,13.0
 2447,-2.43759,-0.00674\H,0,10.80548,-3.14771,5.69552\H,0,10.47651,-3.9
 2987,4.11558\H,0,9.10516,-3.18368,5.02929\H,0,8.74642,1.8447,5.97337\H
 ,0,10.48409,4.092,9.21574\H,0,10.78102,5.22365,7.74769\H,0,11.87942,3.
 92966,8.28743\\Version=ES64L-G16RevA.03\State=1-A\HF=-4069.8117578\RMS
 D=6.823e-09\PG=C01 [X(C68H72Mg2N8O8)]\\@


 SCIENCE AT ITS BEST PROVIDES US WITH BETTER QUESTIONS, 
 NOT ABSOLUTE ANSWERS

                                    -- NORMAN COUSINS, 1976
 Job cpu time:       0 days 13 hours 38 minutes 26.3 seconds.
 Elapsed time:       0 days  0 hours 34 minutes 44.0 seconds.
 File lengths (MBytes):  RWF=  13225 Int=      0 D2E=      0 Chk=    574 Scr=      1
 Normal termination of Gaussian 16 at Sat Sep  4 04:49:42 2021.
