 Entering Gaussian System, Link 0=g16
 Initial command:
 /sw/apps/gaussian-16.0/g16/l1.exe "/tmp/Gau-195089.inp" -scrdir="/tmp/"
 Entering Link 1 = /sw/apps/gaussian-16.0/g16/l1.exe PID=    195090.
  
 Copyright (c) 1988,1990,1992,1993,1995,1998,2003,2009,2016,
            Gaussian, Inc.  All Rights Reserved.
  
 This is part of the Gaussian(R) 16 program.  It is based on
 the Gaussian(R) 09 system (copyright 2009, Gaussian, Inc.),
 the Gaussian(R) 03 system (copyright 2003, Gaussian, Inc.),
 the Gaussian(R) 98 system (copyright 1998, Gaussian, Inc.),
 the Gaussian(R) 94 system (copyright 1995, Gaussian, Inc.),
 the Gaussian 92(TM) system (copyright 1992, Gaussian, Inc.),
 the Gaussian 90(TM) system (copyright 1990, Gaussian, Inc.),
 the Gaussian 88(TM) system (copyright 1988, Gaussian, Inc.),
 the Gaussian 86(TM) system (copyright 1986, Carnegie Mellon
 University), and the Gaussian 82(TM) system (copyright 1983,
 Carnegie Mellon University). Gaussian is a federally registered
 trademark of Gaussian, Inc.
  
 This software contains proprietary and confidential information,
 including trade secrets, belonging to Gaussian, Inc.
  
 This software is provided under written license and may be
 used, copied, transmitted, or stored only in accord with that
 written license.
  
 The following legend is applicable only to US Government
 contracts under FAR:
  
                    RESTRICTED RIGHTS LEGEND
  
 Use, reproduction and disclosure by the US Government is
 subject to restrictions as set forth in subparagraphs (a)
 and (c) of the Commercial Computer Software - Restricted
 Rights clause in FAR 52.227-19.
  
 Gaussian, Inc.
 340 Quinnipiac St., Bldg. 40, Wallingford CT 06492
  
  
 ---------------------------------------------------------------
 Warning -- This program may not be used in any manner that
 competes with the business of Gaussian, Inc. or will provide
 assistance to any competitor of Gaussian, Inc.  The licensee
 of this program is prohibited from giving any competitor of
 Gaussian, Inc. access to this program.  By using this program,
 the user acknowledges that Gaussian, Inc. is engaged in the
 business of creating and licensing software in the field of
 computational chemistry and represents and warrants to the
 licensee that it is not a competitor of Gaussian, Inc. and that
 it will not use this program in any manner prohibited above.
 ---------------------------------------------------------------
  

 Cite this work as:
 Gaussian 16, Revision A.03,
 M. J. Frisch, G. W. Trucks, H. B. Schlegel, G. E. Scuseria, 
 M. A. Robb, J. R. Cheeseman, G. Scalmani, V. Barone, 
 G. A. Petersson, H. Nakatsuji, X. Li, M. Caricato, A. V. Marenich, 
 J. Bloino, B. G. Janesko, R. Gomperts, B. Mennucci, H. P. Hratchian, 
 J. V. Ortiz, A. F. Izmaylov, J. L. Sonnenberg, D. Williams-Young, 
 F. Ding, F. Lipparini, F. Egidi, J. Goings, B. Peng, A. Petrone, 
 T. Henderson, D. Ranasinghe, V. G. Zakrzewski, J. Gao, N. Rega, 
 G. Zheng, W. Liang, M. Hada, M. Ehara, K. Toyota, R. Fukuda, 
 J. Hasegawa, M. Ishida, T. Nakajima, Y. Honda, O. Kitao, H. Nakai, 
 T. Vreven, K. Throssell, J. A. Montgomery, Jr., J. E. Peralta, 
 F. Ogliaro, M. J. Bearpark, J. J. Heyd, E. N. Brothers, K. N. Kudin, 
 V. N. Staroverov, T. A. Keith, R. Kobayashi, J. Normand, 
 K. Raghavachari, A. P. Rendell, J. C. Burant, S. S. Iyengar, 
 J. Tomasi, M. Cossi, J. M. Millam, M. Klene, C. Adamo, R. Cammi, 
 J. W. Ochterski, R. L. Martin, K. Morokuma, O. Farkas, 
 J. B. Foresman, and D. J. Fox, Gaussian, Inc., Wallingford CT, 2016.
 
 ******************************************
 Gaussian 16:  ES64L-G16RevA.03 25-Dec-2016
                10-Sep-2021 
 ******************************************
 %nproc=24
 Will use up to   24 processors via shared memory.
 %mem=175gb
 -----------------------------------
 #p cam-b3lyp/Def2SVP td=(nstates=5)
 -----------------------------------
 1/38=1,172=1/1;
 2/12=2,17=6,18=5,40=1/2;
 3/5=43,7=101,11=9,25=1,30=1,74=-40/1,2,3,8;
 4//1;
 5/5=2,38=5/2;
 8/6=1,10=1,108=5/1;
 9/41=5,42=1,70=2/14;
 6/7=2,8=2,9=2,10=2/1;
 99/5=1,9=1/99;
 Leave Link    1 at Fri Sep 10 07:42:42 2021, MaxMem= 23488102400 cpu:               0.9 elap:               0.0
 (Enter /sw/apps/gaussian-16.0/g16/l101.exe)
 --------------------------------
 TDDFT excited states in gaussian
 --------------------------------
 Symbolic Z-matrix:
 Charge =  0 Multiplicity = 1
 Mg                    0.        0.        0. 
 C                    -0.217    -2.218     2.801 
 C                    -1.255     2.442     2.026 
 C                    -0.245     1.85     -2.564 
 C                     0.146    -2.824    -2.037 
 N                    -0.617    -0.009     2.126 
 C                    -0.594    -0.908     3.105 
 C                    -0.936    -0.309     4.502 
 C                    -1.773     0.964     4.032 
 C                    -1.155     1.168     2.66 
 C                    -3.263     0.685     3.863 
 C                     0.345     0.11      5.299 
 C                     0.124     0.397     6.787 
 H                     1.168     0.033     7.733 
 N                    -0.185     1.961    -0.152 
 C                    -0.703     2.8       0.777 
 C                    -0.62      4.156     0.193 
 C                    -0.187     4.015    -1.225 
 C                    -0.214     2.583    -1.38 
 C                    -0.887     5.406     0.974 
 C                     0.181     5.013    -2.277 
 O                     0.303     4.69     -3.508 
 C                     0.31      6.414    -1.837 
 N                    -0.265    -0.413    -2.029 
 C                    -0.279     0.569    -2.937 
 C                    -0.196     0.024    -4.332 
 C                     0.124    -1.533    -4.18 
 C                     0.086    -1.632    -2.635 
 C                    -1.451     0.205    -5.197 
 C                     1.373    -2.07     -4.923 
 C                     2.626    -1.49     -4.306 
 N                     0.15     -2.144     0.303 
 C                     0.173    -3.136    -0.688 
 C                     0.173    -4.438     0.004 
 C                     0.133    -4.111     1.358 
 C                     0.083    -2.695     1.502 
 C                     0.149    -5.715    -0.623 
 C                     0.096    -4.629     2.716 
 O                     0.208    -5.747     3.221 
 C                    -0.255    -3.428     3.701 
 C                     0.717    -3.482     4.848 
 O                     1.931    -3.255     4.669 
 O                     0.038    -3.556     6.003 
 C                     0.943    -3.583     7.183 
 H                    -1.859     3.22      2.497 
 H                    -0.218     2.453    -3.474 
 H                     0.276    -3.747    -2.605 
 H                    -1.554    -0.949     5.132 
 H                    -1.585     1.831     4.665 
 H                    -3.484    -0.377     3.969 
 H                    -3.511     1.027     2.858 
 H                    -3.852     1.301     4.543 
 H                     0.669     1.096     4.966 
 H                     1.13     -0.639     5.189 
 H                    -0.844     0.026     7.125 
 H                     0.062     1.477     6.921 
 H                    -1.344     5.186     1.938 
 H                    -1.651     5.963     0.432 
 H                     0.007     6.02      1.084 
 H                    -0.635     6.744    -1.405 
 H                     0.665     6.97     -2.704 
 H                     1.048     6.466    -1.036 
 H                     0.608     0.501    -4.891 
 H                    -0.692    -2.156    -4.547 
 H                    -1.267     0.74     -6.129 
 H                    -2.204     0.714    -4.596 
 H                    -1.967    -0.72     -5.453 
 H                     1.356    -1.759    -5.967 
 H                     1.452    -3.157    -4.902 
 H                     2.714    -0.522    -4.798 
 H                     3.487    -2.121    -4.529 
 H                     2.495    -1.303    -3.24 
 H                     0.867    -6.333    -0.084 
 H                     0.404    -5.642    -1.68 
 H                    -0.891    -5.999    -0.463 
 H                    -1.283    -3.581     4.028 
 H                     0.698    -4.478     7.755 
 H                     0.833    -2.619     7.68 
 H                     2.       -3.754     6.976 
 Mg                    8.94169   0.79849   0.68343 
 C                     9.15598  -1.99087  -1.56437 
 C                     8.07343  -1.42394   3.12095 
 C                     8.30695   3.26861   2.57104 
 C                     8.69984   2.85868  -2.11708 
 N                     8.68232  -1.39795   0.65895 
 C                     8.85085  -2.35853  -0.23729 
 C                     8.76197  -3.79759   0.33783 
 C                     7.87008  -3.48319   1.63573 
 C                     8.25356  -2.02001   1.84724 
 C                     6.37543  -3.55158   1.36983 
 C                     10.16802  -4.37151   0.73236 
 C                     10.19366  -5.87622   1.00973 
 H                     11.38031  -6.63493   0.62414 
 N                     8.76682   0.89432   2.65797 
 C                     8.4283   -0.10909   3.49455 
 C                     8.41865   0.47773   4.84351 
 C                     8.61797   1.94711   4.71728 
 C                     8.54935   2.09973   3.27781 
 C                     8.31219  -0.35098   6.09064 
 C                     8.8221    3.0366    5.726 
 O                     8.73581   4.27487   5.40648 
 C                     9.03347   2.61076   7.11722 
 N                     8.34679   2.75261   0.29629 
 C                     8.19137   3.63878   1.29553 
 C                     8.03084   5.04171   0.76038 
 C                     8.35406   4.94484  -0.80286 
 C                     8.56782   3.41997  -0.92306 
 C                     6.65365   5.67508   0.95676 
 C                     9.4556    5.89133  -1.35374 
 C                     10.80276   5.49725  -0.79227 
 N                     9.11164   0.54245  -1.45517 
 C                     8.94923   1.533    -2.44841 
 C                     9.045     0.85617  -3.75805 
 C                     9.23501  -0.49544  -3.43318 
 C                     9.23597  -0.65296  -2.02084 
 C                     8.90895   1.48144  -5.02952 
 C                     9.42436  -1.82628  -3.96393 
 O                     9.59438  -2.29724  -5.08778 
 C                     9.25515  -2.8718   -2.77876 
 C                     10.40206  -3.8425   -2.8484 
 O                     11.56779  -3.459    -2.64689 
 O                     9.91555  -5.09461  -2.92519 
 C                     11.01519  -6.09411  -2.98525 
 H                     7.57455  -2.00274   3.89877 
 H                     8.1918    4.17052   3.17666 
 H                     8.73261   3.44547  -3.03756 
 H                     8.25286  -4.51077  -0.29931 
 H                     8.18211  -4.08572   2.48482 
 H                     6.1586   -3.68481   0.32037 
 H                     5.97043  -2.6125    1.7236 
 H                     5.91776  -4.32916   1.98809 
 H                     10.44367  -3.99276   1.72499 
 H                     10.90117  -4.12875  -0.01207 
 H                     9.28503  -6.37659   0.65338 
 H                     10.17764  -6.03001   2.09144 
 H                     8.01122  -1.38134   5.86445 
 H                     7.47778   0.05401   6.6734 
 H                     9.21846  -0.31495   6.69895 
 H                     8.18017   2.02396   7.44887 
 H                     9.24905   3.52525   7.6732 
 H                     9.90442   1.94677   7.15136 
 H                     8.73979   5.7162    1.22468 
 H                     7.47437   5.18819  -1.41667 
 H                     6.6886    6.63326   1.50879 
 H                     6.0207    4.9634    1.47001 
 H                     6.09609   5.86134   0.04044 
 H                     9.27127   6.91763  -1.02681 
 H                     9.51225   5.9037   -2.43708 
 H                     10.81659   5.98973   0.18464 
 H                     11.60525   5.86263  -1.42988 
 H                     10.85531   4.41638  -0.61732 
 H                     9.68927   1.07704  -5.66044 
 H                     8.98203   2.56408  -4.95002 
 H                     7.90051   1.15682  -5.2996 
 H                     8.29202  -3.36579  -2.91269 
 H                     10.85192  -6.69506  -3.88519 
 H                     10.99069  -6.62393  -2.01446 
 H                     12.01944  -5.72469  -3.15695 
 
 ITRead=  0  0  0  0  0  0  0  0  0  0  0  0  0  0  0  0  0  0  0  0
 ITRead=  0  0  0  0  0  0  0  0  0  0  0  0  0  0  0  0  0  0  0  0
 ITRead=  0  0  0  0  0  0  0  0  0  0  0  0  0  0  0  0  0  0  0  0
 ITRead=  0  0  0  0  0  0  0  0  0  0  0  0  0  0  0  0  0  0  0  0
 ITRead=  0  0  0  0  0  0  0  0  0  0  0  0  0  0  0  0  0  0  0  0
 ITRead=  0  0  0  0  0  0  0  0  0  0  0  0  0  0  0  0  0  0  0  0
 ITRead=  0  0  0  0  0  0  0  0  0  0  0  0  0  0  0  0  0  0  0  0
 ITRead=  0  0  0  0  0  0  0  0  0  0  0  0  0  0  0  0  0  0
 MicOpt= -1 -1 -1 -1 -1 -1 -1 -1 -1 -1 -1 -1 -1 -1 -1 -1 -1 -1 -1 -1
 MicOpt= -1 -1 -1 -1 -1 -1 -1 -1 -1 -1 -1 -1 -1 -1 -1 -1 -1 -1 -1 -1
 MicOpt= -1 -1 -1 -1 -1 -1 -1 -1 -1 -1 -1 -1 -1 -1 -1 -1 -1 -1 -1 -1
 MicOpt= -1 -1 -1 -1 -1 -1 -1 -1 -1 -1 -1 -1 -1 -1 -1 -1 -1 -1 -1 -1
 MicOpt= -1 -1 -1 -1 -1 -1 -1 -1 -1 -1 -1 -1 -1 -1 -1 -1 -1 -1 -1 -1
 MicOpt= -1 -1 -1 -1 -1 -1 -1 -1 -1 -1 -1 -1 -1 -1 -1 -1 -1 -1 -1 -1
 MicOpt= -1 -1 -1 -1 -1 -1 -1 -1 -1 -1 -1 -1 -1 -1 -1 -1 -1 -1 -1 -1
 MicOpt= -1 -1 -1 -1 -1 -1 -1 -1 -1 -1 -1 -1 -1 -1 -1 -1 -1 -1
 NAtoms=    158 NQM=      158 NQMF=       0 NMMI=      0 NMMIF=      0
                NMic=       0 NMicF=      0.
                    Isotopes and Nuclear Properties:
 (Nuclear quadrupole moments (NQMom) in fm**2, nuclear magnetic moments (NMagM)
  in nuclear magnetons)

  Atom         1           2           3           4           5           6           7           8           9          10
 IAtWgt=          24          12          12          12          12          14          12          12          12          12
 AtmWgt=  23.9850450  12.0000000  12.0000000  12.0000000  12.0000000  14.0030740  12.0000000  12.0000000  12.0000000  12.0000000
 NucSpn=           0           0           0           0           0           2           0           0           0           0
 AtZEff=  -0.0000000  -0.0000000  -0.0000000  -0.0000000  -0.0000000  -0.0000000  -0.0000000  -0.0000000  -0.0000000  -0.0000000
 NQMom=    0.0000000   0.0000000   0.0000000   0.0000000   0.0000000   2.0440000   0.0000000   0.0000000   0.0000000   0.0000000
 NMagM=    0.0000000   0.0000000   0.0000000   0.0000000   0.0000000   0.4037610   0.0000000   0.0000000   0.0000000   0.0000000
 AtZNuc=  12.0000000   6.0000000   6.0000000   6.0000000   6.0000000   7.0000000   6.0000000   6.0000000   6.0000000   6.0000000

  Atom        11          12          13          14          15          16          17          18          19          20
 IAtWgt=          12          12          12           1          14          12          12          12          12          12
 AtmWgt=  12.0000000  12.0000000  12.0000000   1.0078250  14.0030740  12.0000000  12.0000000  12.0000000  12.0000000  12.0000000
 NucSpn=           0           0           0           1           2           0           0           0           0           0
 AtZEff=  -0.0000000  -0.0000000  -0.0000000  -0.0000000  -0.0000000  -0.0000000  -0.0000000  -0.0000000  -0.0000000  -0.0000000
 NQMom=    0.0000000   0.0000000   0.0000000   0.0000000   2.0440000   0.0000000   0.0000000   0.0000000   0.0000000   0.0000000
 NMagM=    0.0000000   0.0000000   0.0000000   2.7928460   0.4037610   0.0000000   0.0000000   0.0000000   0.0000000   0.0000000
 AtZNuc=   6.0000000   6.0000000   6.0000000   1.0000000   7.0000000   6.0000000   6.0000000   6.0000000   6.0000000   6.0000000

  Atom        21          22          23          24          25          26          27          28          29          30
 IAtWgt=          12          16          12          14          12          12          12          12          12          12
 AtmWgt=  12.0000000  15.9949146  12.0000000  14.0030740  12.0000000  12.0000000  12.0000000  12.0000000  12.0000000  12.0000000
 NucSpn=           0           0           0           2           0           0           0           0           0           0
 AtZEff=  -0.0000000  -0.0000000  -0.0000000  -0.0000000  -0.0000000  -0.0000000  -0.0000000  -0.0000000  -0.0000000  -0.0000000
 NQMom=    0.0000000   0.0000000   0.0000000   2.0440000   0.0000000   0.0000000   0.0000000   0.0000000   0.0000000   0.0000000
 NMagM=    0.0000000   0.0000000   0.0000000   0.4037610   0.0000000   0.0000000   0.0000000   0.0000000   0.0000000   0.0000000
 AtZNuc=   6.0000000   8.0000000   6.0000000   7.0000000   6.0000000   6.0000000   6.0000000   6.0000000   6.0000000   6.0000000

  Atom        31          32          33          34          35          36          37          38          39          40
 IAtWgt=          12          14          12          12          12          12          12          12          16          12
 AtmWgt=  12.0000000  14.0030740  12.0000000  12.0000000  12.0000000  12.0000000  12.0000000  12.0000000  15.9949146  12.0000000
 NucSpn=           0           2           0           0           0           0           0           0           0           0
 AtZEff=  -0.0000000  -0.0000000  -0.0000000  -0.0000000  -0.0000000  -0.0000000  -0.0000000  -0.0000000  -0.0000000  -0.0000000
 NQMom=    0.0000000   2.0440000   0.0000000   0.0000000   0.0000000   0.0000000   0.0000000   0.0000000   0.0000000   0.0000000
 NMagM=    0.0000000   0.4037610   0.0000000   0.0000000   0.0000000   0.0000000   0.0000000   0.0000000   0.0000000   0.0000000
 AtZNuc=   6.0000000   7.0000000   6.0000000   6.0000000   6.0000000   6.0000000   6.0000000   6.0000000   8.0000000   6.0000000

  Atom        41          42          43          44          45          46          47          48          49          50
 IAtWgt=          12          16          16          12           1           1           1           1           1           1
 AtmWgt=  12.0000000  15.9949146  15.9949146  12.0000000   1.0078250   1.0078250   1.0078250   1.0078250   1.0078250   1.0078250
 NucSpn=           0           0           0           0           1           1           1           1           1           1
 AtZEff=  -0.0000000  -0.0000000  -0.0000000  -0.0000000  -0.0000000  -0.0000000  -0.0000000  -0.0000000  -0.0000000  -0.0000000
 NQMom=    0.0000000   0.0000000   0.0000000   0.0000000   0.0000000   0.0000000   0.0000000   0.0000000   0.0000000   0.0000000
 NMagM=    0.0000000   0.0000000   0.0000000   0.0000000   2.7928460   2.7928460   2.7928460   2.7928460   2.7928460   2.7928460
 AtZNuc=   6.0000000   8.0000000   8.0000000   6.0000000   1.0000000   1.0000000   1.0000000   1.0000000   1.0000000   1.0000000

  Atom        51          52          53          54          55          56          57          58          59          60
 IAtWgt=           1           1           1           1           1           1           1           1           1           1
 AtmWgt=   1.0078250   1.0078250   1.0078250   1.0078250   1.0078250   1.0078250   1.0078250   1.0078250   1.0078250   1.0078250
 NucSpn=           1           1           1           1           1           1           1           1           1           1
 AtZEff=  -0.0000000  -0.0000000  -0.0000000  -0.0000000  -0.0000000  -0.0000000  -0.0000000  -0.0000000  -0.0000000  -0.0000000
 NQMom=    0.0000000   0.0000000   0.0000000   0.0000000   0.0000000   0.0000000   0.0000000   0.0000000   0.0000000   0.0000000
 NMagM=    2.7928460   2.7928460   2.7928460   2.7928460   2.7928460   2.7928460   2.7928460   2.7928460   2.7928460   2.7928460
 AtZNuc=   1.0000000   1.0000000   1.0000000   1.0000000   1.0000000   1.0000000   1.0000000   1.0000000   1.0000000   1.0000000

  Atom        61          62          63          64          65          66          67          68          69          70
 IAtWgt=           1           1           1           1           1           1           1           1           1           1
 AtmWgt=   1.0078250   1.0078250   1.0078250   1.0078250   1.0078250   1.0078250   1.0078250   1.0078250   1.0078250   1.0078250
 NucSpn=           1           1           1           1           1           1           1           1           1           1
 AtZEff=  -0.0000000  -0.0000000  -0.0000000  -0.0000000  -0.0000000  -0.0000000  -0.0000000  -0.0000000  -0.0000000  -0.0000000
 NQMom=    0.0000000   0.0000000   0.0000000   0.0000000   0.0000000   0.0000000   0.0000000   0.0000000   0.0000000   0.0000000
 NMagM=    2.7928460   2.7928460   2.7928460   2.7928460   2.7928460   2.7928460   2.7928460   2.7928460   2.7928460   2.7928460
 AtZNuc=   1.0000000   1.0000000   1.0000000   1.0000000   1.0000000   1.0000000   1.0000000   1.0000000   1.0000000   1.0000000

  Atom        71          72          73          74          75          76          77          78          79          80
 IAtWgt=           1           1           1           1           1           1           1           1           1          24
 AtmWgt=   1.0078250   1.0078250   1.0078250   1.0078250   1.0078250   1.0078250   1.0078250   1.0078250   1.0078250  23.9850450
 NucSpn=           1           1           1           1           1           1           1           1           1           0
 AtZEff=  -0.0000000  -0.0000000  -0.0000000  -0.0000000  -0.0000000  -0.0000000  -0.0000000  -0.0000000  -0.0000000  -0.0000000
 NQMom=    0.0000000   0.0000000   0.0000000   0.0000000   0.0000000   0.0000000   0.0000000   0.0000000   0.0000000   0.0000000
 NMagM=    2.7928460   2.7928460   2.7928460   2.7928460   2.7928460   2.7928460   2.7928460   2.7928460   2.7928460   0.0000000
 AtZNuc=   1.0000000   1.0000000   1.0000000   1.0000000   1.0000000   1.0000000   1.0000000   1.0000000   1.0000000  12.0000000

  Atom        81          82          83          84          85          86          87          88          89          90
 IAtWgt=          12          12          12          12          14          12          12          12          12          12
 AtmWgt=  12.0000000  12.0000000  12.0000000  12.0000000  14.0030740  12.0000000  12.0000000  12.0000000  12.0000000  12.0000000
 NucSpn=           0           0           0           0           2           0           0           0           0           0
 AtZEff=  -0.0000000  -0.0000000  -0.0000000  -0.0000000  -0.0000000  -0.0000000  -0.0000000  -0.0000000  -0.0000000  -0.0000000
 NQMom=    0.0000000   0.0000000   0.0000000   0.0000000   2.0440000   0.0000000   0.0000000   0.0000000   0.0000000   0.0000000
 NMagM=    0.0000000   0.0000000   0.0000000   0.0000000   0.4037610   0.0000000   0.0000000   0.0000000   0.0000000   0.0000000
 AtZNuc=   6.0000000   6.0000000   6.0000000   6.0000000   7.0000000   6.0000000   6.0000000   6.0000000   6.0000000   6.0000000

  Atom        91          92          93          94          95          96          97          98          99         100
 IAtWgt=          12          12           1          14          12          12          12          12          12          12
 AtmWgt=  12.0000000  12.0000000   1.0078250  14.0030740  12.0000000  12.0000000  12.0000000  12.0000000  12.0000000  12.0000000
 NucSpn=           0           0           1           2           0           0           0           0           0           0
 AtZEff=  -0.0000000  -0.0000000  -0.0000000  -0.0000000  -0.0000000  -0.0000000  -0.0000000  -0.0000000  -0.0000000  -0.0000000
 NQMom=    0.0000000   0.0000000   0.0000000   2.0440000   0.0000000   0.0000000   0.0000000   0.0000000   0.0000000   0.0000000
 NMagM=    0.0000000   0.0000000   2.7928460   0.4037610   0.0000000   0.0000000   0.0000000   0.0000000   0.0000000   0.0000000
 AtZNuc=   6.0000000   6.0000000   1.0000000   7.0000000   6.0000000   6.0000000   6.0000000   6.0000000   6.0000000   6.0000000

  Atom       101         102         103         104         105         106         107         108         109         110
 IAtWgt=          16          12          14          12          12          12          12          12          12          12
 AtmWgt=  15.9949146  12.0000000  14.0030740  12.0000000  12.0000000  12.0000000  12.0000000  12.0000000  12.0000000  12.0000000
 NucSpn=           0           0           2           0           0           0           0           0           0           0
 AtZEff=  -0.0000000  -0.0000000  -0.0000000  -0.0000000  -0.0000000  -0.0000000  -0.0000000  -0.0000000  -0.0000000  -0.0000000
 NQMom=    0.0000000   0.0000000   2.0440000   0.0000000   0.0000000   0.0000000   0.0000000   0.0000000   0.0000000   0.0000000
 NMagM=    0.0000000   0.0000000   0.4037610   0.0000000   0.0000000   0.0000000   0.0000000   0.0000000   0.0000000   0.0000000
 AtZNuc=   8.0000000   6.0000000   7.0000000   6.0000000   6.0000000   6.0000000   6.0000000   6.0000000   6.0000000   6.0000000

  Atom       111         112         113         114         115         116         117         118         119         120
 IAtWgt=          14          12          12          12          12          12          12          16          12          12
 AtmWgt=  14.0030740  12.0000000  12.0000000  12.0000000  12.0000000  12.0000000  12.0000000  15.9949146  12.0000000  12.0000000
 NucSpn=           2           0           0           0           0           0           0           0           0           0
 AtZEff=  -0.0000000  -0.0000000  -0.0000000  -0.0000000  -0.0000000  -0.0000000  -0.0000000  -0.0000000  -0.0000000  -0.0000000
 NQMom=    2.0440000   0.0000000   0.0000000   0.0000000   0.0000000   0.0000000   0.0000000   0.0000000   0.0000000   0.0000000
 NMagM=    0.4037610   0.0000000   0.0000000   0.0000000   0.0000000   0.0000000   0.0000000   0.0000000   0.0000000   0.0000000
 AtZNuc=   7.0000000   6.0000000   6.0000000   6.0000000   6.0000000   6.0000000   6.0000000   8.0000000   6.0000000   6.0000000

  Atom       121         122         123         124         125         126         127         128         129         130
 IAtWgt=          16          16          12           1           1           1           1           1           1           1
 AtmWgt=  15.9949146  15.9949146  12.0000000   1.0078250   1.0078250   1.0078250   1.0078250   1.0078250   1.0078250   1.0078250
 NucSpn=           0           0           0           1           1           1           1           1           1           1
 AtZEff=  -0.0000000  -0.0000000  -0.0000000  -0.0000000  -0.0000000  -0.0000000  -0.0000000  -0.0000000  -0.0000000  -0.0000000
 NQMom=    0.0000000   0.0000000   0.0000000   0.0000000   0.0000000   0.0000000   0.0000000   0.0000000   0.0000000   0.0000000
 NMagM=    0.0000000   0.0000000   0.0000000   2.7928460   2.7928460   2.7928460   2.7928460   2.7928460   2.7928460   2.7928460
 AtZNuc=   8.0000000   8.0000000   6.0000000   1.0000000   1.0000000   1.0000000   1.0000000   1.0000000   1.0000000   1.0000000

  Atom       131         132         133         134         135         136         137         138         139         140
 IAtWgt=           1           1           1           1           1           1           1           1           1           1
 AtmWgt=   1.0078250   1.0078250   1.0078250   1.0078250   1.0078250   1.0078250   1.0078250   1.0078250   1.0078250   1.0078250
 NucSpn=           1           1           1           1           1           1           1           1           1           1
 AtZEff=  -0.0000000  -0.0000000  -0.0000000  -0.0000000  -0.0000000  -0.0000000  -0.0000000  -0.0000000  -0.0000000  -0.0000000
 NQMom=    0.0000000   0.0000000   0.0000000   0.0000000   0.0000000   0.0000000   0.0000000   0.0000000   0.0000000   0.0000000
 NMagM=    2.7928460   2.7928460   2.7928460   2.7928460   2.7928460   2.7928460   2.7928460   2.7928460   2.7928460   2.7928460
 AtZNuc=   1.0000000   1.0000000   1.0000000   1.0000000   1.0000000   1.0000000   1.0000000   1.0000000   1.0000000   1.0000000

  Atom       141         142         143         144         145         146         147         148         149         150
 IAtWgt=           1           1           1           1           1           1           1           1           1           1
 AtmWgt=   1.0078250   1.0078250   1.0078250   1.0078250   1.0078250   1.0078250   1.0078250   1.0078250   1.0078250   1.0078250
 NucSpn=           1           1           1           1           1           1           1           1           1           1
 AtZEff=  -0.0000000  -0.0000000  -0.0000000  -0.0000000  -0.0000000  -0.0000000  -0.0000000  -0.0000000  -0.0000000  -0.0000000
 NQMom=    0.0000000   0.0000000   0.0000000   0.0000000   0.0000000   0.0000000   0.0000000   0.0000000   0.0000000   0.0000000
 NMagM=    2.7928460   2.7928460   2.7928460   2.7928460   2.7928460   2.7928460   2.7928460   2.7928460   2.7928460   2.7928460
 AtZNuc=   1.0000000   1.0000000   1.0000000   1.0000000   1.0000000   1.0000000   1.0000000   1.0000000   1.0000000   1.0000000

  Atom       151         152         153         154         155         156         157         158
 IAtWgt=           1           1           1           1           1           1           1           1
 AtmWgt=   1.0078250   1.0078250   1.0078250   1.0078250   1.0078250   1.0078250   1.0078250   1.0078250
 NucSpn=           1           1           1           1           1           1           1           1
 AtZEff=  -0.0000000  -0.0000000  -0.0000000  -0.0000000  -0.0000000  -0.0000000  -0.0000000  -0.0000000
 NQMom=    0.0000000   0.0000000   0.0000000   0.0000000   0.0000000   0.0000000   0.0000000   0.0000000
 NMagM=    2.7928460   2.7928460   2.7928460   2.7928460   2.7928460   2.7928460   2.7928460   2.7928460
 AtZNuc=   1.0000000   1.0000000   1.0000000   1.0000000   1.0000000   1.0000000   1.0000000   1.0000000
 Leave Link  101 at Fri Sep 10 07:42:42 2021, MaxMem= 23488102400 cpu:               3.3 elap:               0.2
 (Enter /sw/apps/gaussian-16.0/g16/l202.exe)
 Stoichiometry    C68H72Mg2N8O8
 Framework group  C1[X(C68H72Mg2N8O8)]
 Deg. of freedom   468
 Full point group                 C1      NOp   1
 Largest Abelian subgroup         C1      NOp   1
 Largest concise Abelian subgroup C1      NOp   1
                         Standard orientation:                         
 ---------------------------------------------------------------------
 Center     Atomic      Atomic             Coordinates (Angstroms)
 Number     Number       Type             X           Y           Z
 ---------------------------------------------------------------------
      1         12           0       -4.285656    0.670484   -0.996486
      2          6           0       -4.960054   -2.534289    0.448101
      3          6           0       -5.842605    2.051388    1.707599
      4          6           0       -4.106779    3.476496   -2.463089
      5          6           0       -3.822734   -0.963052   -4.039991
      6          7           0       -5.237899   -0.231395    0.786908
      7          6           0       -5.376508   -1.469601    1.250379
      8          6           0       -5.937466   -1.526454    2.702779
      9          6           0       -6.683025   -0.117641    2.740000
     10          6           0       -5.850856    0.624868    1.709418
     11          6           0       -8.127167   -0.179519    2.253044
     12          6           0       -4.800490   -1.601475    3.776739
     13          6           0       -5.257848   -1.986550    5.186666
     14          1           0       -4.381622   -2.809277    6.006846
     15          7           0       -4.436666    2.504133   -0.276916
     16          6           0       -5.094881    2.882095    0.845217
     17          6           0       -4.913814    4.345935    0.950426
     18          6           0       -4.258021    4.814480   -0.301970
     19          6           0       -4.264759    3.605408   -1.085217
     20          6           0       -5.298955    5.137671    2.162272
     21          6           0       -3.721403    6.143879   -0.729605
     22          8           0       -3.403375    6.390578   -1.943101
     23          6           0       -3.660138    7.191457    0.305706
     24          7           0       -4.221004    1.219042   -3.009578
     25          6           0       -4.084681    2.499330   -3.371881
     26          6           0       -3.779452    2.623142   -4.835249
     27          6           0       -3.493769    1.140312   -5.354242
     28          6           0       -3.781115    0.371240   -4.041143
     29          6           0       -4.877642    3.262459   -5.696215
     30          6           0       -2.143109    0.894661   -6.072429
     31          6           0       -1.004122    1.045261   -5.089002
     32          7           0       -4.194224   -1.390851   -1.669970
     33          6           0       -4.015045   -1.840677   -2.986111
     34          6           0       -4.131448   -3.310315   -2.959964
     35          6           0       -4.388401   -3.614053   -1.624463
     36          6           0       -4.455933   -2.408589   -0.869090
     37          6           0       -4.058451   -4.172298   -4.089606
     38          6           0       -4.646062   -4.674908   -0.664227
     39          8           0       -4.621081   -5.905863   -0.704485
     40          6           0       -5.147218   -4.010853    0.693603
     41          6           0       -4.373395   -4.640027    1.819945
     42          8           0       -3.145619   -4.449797    1.937178
     43          8           0       -5.230257   -5.165754    2.708732
     44          6           0       -4.527787   -5.780332    3.866741
     45          1           0       -6.511950    2.583953    2.386049
     46          1           0       -3.931027    4.415880   -2.991394
     47          1           0       -3.606020   -1.546436   -4.936736
     48          1           0       -6.651375   -2.330341    2.883122
     49          1           0       -6.596611    0.362896    3.714341
     50          1           0       -8.366181   -1.158737    1.838405
     51          1           0       -8.208397    0.589450    1.484551
     52          1           0       -8.816038    0.114685    3.045305
     53          1           0       -4.423444   -0.597543    3.971718
     54          1           0       -4.010714   -2.281512    3.455600
     55          1           0       -6.269046   -2.394405    5.180184
     56          1           0       -5.336810   -1.076015    5.780713
     57          1           0       -5.906410    4.549179    2.848726
     58          1           0       -5.963406    5.932973    1.825066
     59          1           0       -4.432261    5.570090    2.662458
     60          1           0       -4.661310    7.366716    0.700027
     61          1           0       -3.167805    8.045013   -0.158945
     62          1           0       -3.060991    6.827768    1.140991
     63          1           0       -2.894034    3.235892   -4.999562
     64          1           0       -4.242018    0.807643   -6.074053
     65          1           0       -4.543643    4.138935   -6.252037
     66          1           0       -5.715985    3.508395   -5.045072
     67          1           0       -5.348836    2.588120   -6.410820
     68          1           0       -1.990185    1.635711   -6.856269
     69          1           0       -2.072425   -0.091983   -6.530455
     70          1           0       -0.834365    2.121294   -5.076048
     71          1           0       -0.120674    0.514914   -5.446023
     72          1           0       -1.304874    0.750701   -4.083384
     73          1           0       -3.439130   -5.017306   -3.788988
     74          1           0       -3.635851   -3.658753   -4.952904
     75          1           0       -5.111648   -4.418219   -4.224346
     76          1           0       -6.215071   -4.214493    0.766688
     77          1           0       -4.865139   -6.814646    3.934714
     78          1           0       -4.713151   -5.130413    4.722106
     79          1           0       -3.451851   -5.921508    3.758249
     80         12           0        4.431115    0.405479    1.240959
     81          6           0        4.995595   -1.109013   -1.963215
     82          6           0        3.172689   -2.593205    2.269956
     83          6           0        3.508729    1.825824    3.924107
     84          6           0        4.652045    3.503712   -0.339506
     85          7           0        4.171247   -1.526889    0.196621
     86          6           0        4.478856   -2.001563   -1.001054
     87          6           0        4.293123   -3.535255   -1.152211
     88          6           0        3.204480   -3.761011    0.006560
     89          6           0        3.554004   -2.576033    0.904530
     90          6           0        1.772150   -3.591463   -0.472024
     91          6           0        5.614947   -4.328996   -0.861057
     92          6           0        5.590078   -5.798297   -1.287998
     93          1           0        6.820698   -6.395471   -1.799286
     94          7           0        3.940030   -0.369155    3.000888
     95          6           0        3.467272   -1.610321    3.240265
     96          6           0        3.242014   -1.681941    4.692255
     97          6           0        3.464357   -0.328086    5.268779
     98          6           0        3.629634    0.450282    4.057621
     99          6           0        2.932597   -2.966158    5.405330
    100          6           0        3.506813    0.183844    6.676720
    101          8           0        3.477682    1.438279    6.938247
    102          6           0        3.489226   -0.828133    7.743070
    103          7           0        3.913534    2.367999    1.691505
    104          6           0        3.601964    2.729621    2.948520
    105          6           0        3.534978    4.232206    3.083126
    106          6           0        4.106044    4.812741    1.706741
    107          6           0        4.330953    3.487074    0.946877
    108          6           0        2.146426    4.815484    3.344054
    109          6           0        5.285463    5.818949    1.802756
    110          6           0        6.522856    5.116522    2.313484
    111          7           0        4.943265    1.109893   -0.736300
    112          6           0        4.946923    2.446753   -1.191144
    113          6           0        5.250498    2.414030   -2.636550
    114          6           0        5.380717    1.048100   -2.929420
    115          6           0        5.153033    0.282472   -1.754052
    116          6           0        5.323792    3.545553   -3.497010
    117          6           0        5.648528    0.079289   -3.967865
    118          8           0        5.996113    0.142734   -5.146385
    119          6           0        5.286415   -1.366520   -3.415706
    120          6           0        6.426038   -2.289900   -3.749082
    121          8           0        7.545292   -2.124495   -3.232830
    122          8           0        5.953838   -3.338064   -4.448186
    123          6           0        7.045162   -4.287844   -4.792782
    124          1           0        2.552684   -3.416803    2.625167
    125          1           0        3.300520    2.372596    4.846694
    126          1           0        4.835126    4.432810   -0.883508
    127          1           0        3.891034   -3.852217   -2.107002
    128          1           0        3.373144   -4.698669    0.529731
    129          1           0        1.727161   -3.229864   -1.488564
    130          1           0        1.318700   -2.878141    0.203701
    131          1           0        1.217870   -4.525228   -0.340898
    132          1           0        5.728040   -4.450498    0.223930
    133          1           0        6.459551   -3.838182   -1.304186
    134          1           0        4.749133   -6.019086   -1.956600
    135          1           0        5.399040   -6.413044   -0.405051
    136          1           0        2.668420   -3.764099    4.700428
    137          1           0        2.016487   -2.798943    5.982085
    138          1           0        3.728864   -3.271602    6.087479
    139          1           0        2.591476   -1.434700    7.650509
    140          1           0        3.615465   -0.273171    8.674715
    141          1           0        4.340851   -1.502466    7.599506
    142          1           0        4.162055    4.575941    3.896602
    143          1           0        3.337896    5.368271    1.148914
    144          1           0        2.095201    5.424896    4.266041
    145          1           0        1.436360    4.000320    3.387101
    146          1           0        1.744823    5.429460    2.539717
    147          1           0        5.054431    6.605398    2.525441
    148          1           0        5.516354    6.304966    0.860703
    149          1           0        6.380512    5.123408    3.398275
    150          1           0        7.419079    5.664414    2.029514
    151          1           0        6.542598    4.069252    1.990243
    152          1           0        6.194302    3.404261   -4.123706
    153          1           0        5.386947    4.472341   -2.930577
    154          1           0        4.371046    3.451204   -4.024879
    155          1           0        4.355792   -1.675881   -3.893011
    156          1           0        7.027211   -4.414411   -5.879681
    157          1           0        6.862322   -5.188913   -4.177651
    158          1           0        8.065273   -3.957709   -4.635131
 ---------------------------------------------------------------------
 Rotational constants (GHZ):           0.0206306           0.0134047           0.0132793
 Leave Link  202 at Fri Sep 10 07:42:42 2021, MaxMem= 23488102400 cpu:               0.3 elap:               0.0
 (Enter /sw/apps/gaussian-16.0/g16/l301.exe)
 Standard basis: def2SVP (5D, 7F)
 Ernie: Thresh=  0.10000D-02 Tol=  0.10000D-05 Strict=F.
 There are  1658 symmetry adapted cartesian basis functions of A   symmetry.
 There are  1572 symmetry adapted basis functions of A   symmetry.
  1572 basis functions,  2678 primitive gaussians,  1658 cartesian basis functions
   312 alpha electrons      312 beta electrons
       nuclear repulsion energy     15484.7527902362 Hartrees.
 IExCor=20419 DFT=T Ex+Corr=CAM-B3LYP ExCW=0 ScaHFX=  1.000000
 ScaDFX=  1.000000  1.000000  1.000000  0.810000 ScalE2=  1.000000  1.000000
 IRadAn=      5 IRanWt=     -1 IRanGd=            0 ICorTp=0 IEmpDi=  4
 HFx  wShort=  0.000000 wLong=  0.330000 cFull=  0.190000 cShort=  0.000000 cLong=  0.460000
 DFx  wShort=  0.000000 wLong=  0.330000 cFull=  0.190000 cShort=  0.000000 cLong=  0.460000
 NAtoms=  158 NActive=  158 NUniq=  158 SFac= 1.00D+00 NAtFMM=   60 NAOKFM=T Big=T
 Integral buffers will be    131072 words long.
 Raffenetti 1 integral format.
 Two-electron integral symmetry is turned on.
 Leave Link  301 at Fri Sep 10 07:42:43 2021, MaxMem= 23488102400 cpu:               1.4 elap:               0.1
 (Enter /sw/apps/gaussian-16.0/g16/l302.exe)
 NPDir=0 NMtPBC=     1 NCelOv=     1 NCel=       1 NClECP=     1 NCelD=      1
         NCelK=      1 NCelE2=     1 NClLst=     1 CellRange=     0.0.
 One-electron integrals computed using PRISM.
 One-electron integral symmetry used in STVInt
   1 Symmetry operations used in ECPInt.
 ECPInt:  NShTT=  271216 NPrTT=  987664 LenC2=  153909 LenP2D=  320322.
 LDataN:  DoStor=T MaxTD1= 4 Len=   56
 NBasis=  1572 RedAO= T EigKep=  3.36D-04  NBF=  1572
 NBsUse=  1572 1.00D-06 EigRej= -1.00D+00 NBFU=  1572
 Precomputing XC quadrature grid using
 IXCGrd= 4 IRadAn=           5 IRanWt=          -1 IRanGd=           0 AccXCQ= 0.00D+00.
 Generated NRdTot=       0 NPtTot=           0 NUsed=           0 NTot=          32
 NSgBfM=  1241  1226  1231  1235  1241 MxSgAt=   158 MxSgA2=   158.
 Leave Link  302 at Fri Sep 10 07:42:48 2021, MaxMem= 23488102400 cpu:             127.5 elap:               5.3
 (Enter /sw/apps/gaussian-16.0/g16/l303.exe)
 DipDrv:  MaxL=1.
 Leave Link  303 at Fri Sep 10 07:42:48 2021, MaxMem= 23488102400 cpu:               8.6 elap:               0.4
 (Enter /sw/apps/gaussian-16.0/g16/l308.exe)
 Leave Link  308 at Fri Sep 10 07:42:49 2021, MaxMem= 23488102400 cpu:              16.9 elap:               0.8
 (Enter /sw/apps/gaussian-16.0/g16/l401.exe)
 ExpMin= 3.36D-02 ExpMax= 4.95D+03 ExpMxC= 7.45D+02 IAcc=3 IRadAn=         5 AccDes= 0.00D+00
 Harris functional with IExCor=20419 and IRadAn=       5 diagonalized for initial guess.
 HarFok:  IExCor=20419 AccDes= 0.00D+00 IRadAn=         5 IDoV= 1 UseB2=F ITyADJ=14
 ICtDFT=  3500011 ScaDFX=  1.000000  1.000000  1.000000  1.000000
 FoFCou: FMM=F IPFlag=           0 FMFlag=      100000 FMFlg1=        2001
         NFxFlg=           0 DoJE=T BraDBF=F KetDBF=T FulRan=T
         wScrn=  0.000000 ICntrl=       500 IOpCl=  0 I1Cent=   200000004 NGrid=           0
         NMat0=    1 NMatS0=      1 NMatT0=    0 NMatD0=    1 NMtDS0=    0 NMtDT0=    0
 Petite list used in FoFCou.
 Harris En= -3918.65800912593    
 JPrj=0 DoOrth=F DoCkMO=F.
 Leave Link  401 at Fri Sep 10 07:42:57 2021, MaxMem= 23488102400 cpu:             188.3 elap:               7.9
 (Enter /sw/apps/gaussian-16.0/g16/l502.exe)
 Integral symmetry usage will be decided dynamically.
 Closed shell SCF:
 Using DIIS extrapolation, IDIIS=  1040.
 NGot= 23488102400 LenX= 23482547354 LenY= 23479796732
 Requested convergence on RMS density matrix=1.00D-08 within 128 cycles.
 Requested convergence on MAX density matrix=1.00D-06.
 Requested convergence on             energy=1.00D-06.
 No special actions if energy rises.
 Fock matrices will be formed incrementally for  20 cycles.

 Cycle   1  Pass 1  IDiag  1:
 FoFJK:  IHMeth= 1 ICntrl=       0 DoSepK=T KAlg= 0 I1Cent=           0 FoldK=F
 IRaf=         1 NMat=       1 IRICut=       1 DoRegI=T DoRafI=F ISym2E= 0 IDoP0=0 IntGTp=1.
 FoFCou: FMM=T IPFlag=           0 FMFlag=      100000 FMFlg1=        2001
         NFxFlg=           0 DoJE=T BraDBF=F KetDBF=F FulRan=T
         wScrn=  0.000000 ICntrl=       500 IOpCl=  0 I1Cent=           0 NGrid=           0
         NMat0=    1 NMatS0=      1 NMatT0=    0 NMatD0=    1 NMtDS0=    0 NMtDT0=    0
 Symmetry not used in FoFCou.
 FMM levels:  10  Number of levels for PrismC:   9
 E= -4068.95149605506    
 DIIS: error= 2.04D-02 at cycle   1 NSaved=   1.
 NSaved= 1 IEnMin= 1 EnMin= -4068.95149605506     IErMin= 1 ErrMin= 2.04D-02
 ErrMax= 2.04D-02  0.00D+00 EMaxC= 1.00D-01 BMatC= 1.69D+00 BMatP= 1.69D+00
 IDIUse=3 WtCom= 7.96D-01 WtEn= 2.04D-01
 Coeff-Com:  0.100D+01
 Coeff-En:   0.100D+01
 Coeff:      0.100D+01
 Gap=     0.120 Goal=   None    Shift=    0.000
 GapD=    0.120 DampG=1.000 DampE=0.500 DampFc=0.5000 IDamp=-1.
 Damping current iteration by 5.00D-01
 RMSDP=1.57D-03 MaxDP=1.36D-01              OVMax= 1.96D-01

 Cycle   2  Pass 1  IDiag  1:
 RMSU=  7.69D-04    CP:  9.82D-01
 E= -4069.34034062528     Delta-E=       -0.388844570221 Rises=F Damp=T
 DIIS: error= 1.27D-02 at cycle   2 NSaved=   2.
 NSaved= 2 IEnMin= 2 EnMin= -4069.34034062528     IErMin= 2 ErrMin= 1.27D-02
 ErrMax= 1.27D-02  0.00D+00 EMaxC= 1.00D-01 BMatC= 3.06D-01 BMatP= 1.69D+00
 IDIUse=3 WtCom= 8.73D-01 WtEn= 1.27D-01
 Coeff-Com: -0.214D+00 0.121D+01
 Coeff-En:   0.000D+00 0.100D+01
 Coeff:     -0.187D+00 0.119D+01
 Gap=     0.133 Goal=   None    Shift=    0.000
 RMSDP=7.63D-04 MaxDP=9.46D-02 DE=-3.89D-01 OVMax= 1.86D-01

 Cycle   3  Pass 1  IDiag  1:
 RMSU=  7.30D-04    CP:  9.68D-01  1.24D+00
 E= -4069.63144982999     Delta-E=       -0.291109204711 Rises=F Damp=F
 DIIS: error= 1.54D-02 at cycle   3 NSaved=   3.
 NSaved= 3 IEnMin= 3 EnMin= -4069.63144982999     IErMin= 2 ErrMin= 1.27D-02
 ErrMax= 1.54D-02  0.00D+00 EMaxC= 1.00D-01 BMatC= 1.99D-01 BMatP= 3.06D-01
 IDIUse=3 WtCom= 8.46D-01 WtEn= 1.54D-01
 Coeff-Com: -0.267D+00 0.650D+00 0.617D+00
 Coeff-En:   0.000D+00 0.000D+00 0.100D+01
 Coeff:     -0.226D+00 0.550D+00 0.676D+00
 Gap=     0.119 Goal=   None    Shift=    0.000
 RMSDP=5.03D-04 MaxDP=4.52D-02 DE=-2.91D-01 OVMax= 1.32D-01

 Cycle   4  Pass 1  IDiag  1:
 RMSU=  2.62D-04    CP:  9.65D-01  1.55D+00  5.10D-01
 E= -4069.76828555169     Delta-E=       -0.136835721700 Rises=F Damp=F
 DIIS: error= 6.95D-03 at cycle   4 NSaved=   4.
 NSaved= 4 IEnMin= 4 EnMin= -4069.76828555169     IErMin= 4 ErrMin= 6.95D-03
 ErrMax= 6.95D-03  0.00D+00 EMaxC= 1.00D-01 BMatC= 4.82D-02 BMatP= 1.99D-01
 IDIUse=3 WtCom= 9.30D-01 WtEn= 6.95D-02
 Coeff-Com: -0.108D+00 0.225D+00 0.406D+00 0.477D+00
 Coeff-En:   0.000D+00 0.000D+00 0.214D+00 0.786D+00
 Coeff:     -0.101D+00 0.209D+00 0.393D+00 0.499D+00
 Gap=     0.120 Goal=   None    Shift=    0.000
 RMSDP=1.95D-04 MaxDP=1.91D-02 DE=-1.37D-01 OVMax= 5.52D-02

 Cycle   5  Pass 1  IDiag  1:
 RMSU=  7.39D-05    CP:  9.64D-01  1.49D+00  6.89D-01  5.58D-01
 E= -4069.81169243119     Delta-E=       -0.043406879497 Rises=F Damp=F
 DIIS: error= 7.65D-04 at cycle   5 NSaved=   5.
 NSaved= 5 IEnMin= 5 EnMin= -4069.81169243119     IErMin= 5 ErrMin= 7.65D-04
 ErrMax= 7.65D-04  0.00D+00 EMaxC= 1.00D-01 BMatC= 1.07D-03 BMatP= 4.82D-02
 IDIUse=3 WtCom= 9.92D-01 WtEn= 7.65D-03
 Coeff-Com: -0.353D-01 0.692D-01 0.162D+00 0.246D+00 0.558D+00
 Coeff-En:   0.000D+00 0.000D+00 0.000D+00 0.000D+00 0.100D+01
 Coeff:     -0.350D-01 0.687D-01 0.161D+00 0.244D+00 0.562D+00
 Gap=     0.119 Goal=   None    Shift=    0.000
 RMSDP=3.97D-05 MaxDP=4.36D-03 DE=-4.34D-02 OVMax= 1.51D-02

 Cycle   6  Pass 1  IDiag  1:
 RMSU=  3.00D-05    CP:  9.64D-01  1.50D+00  6.82D-01  6.26D-01  7.65D-01
 E= -4069.81259651426     Delta-E=       -0.000904083077 Rises=F Damp=F
 DIIS: error= 2.16D-04 at cycle   6 NSaved=   6.
 NSaved= 6 IEnMin= 6 EnMin= -4069.81259651426     IErMin= 6 ErrMin= 2.16D-04
 ErrMax= 2.16D-04  0.00D+00 EMaxC= 1.00D-01 BMatC= 1.76D-04 BMatP= 1.07D-03
 IDIUse=3 WtCom= 9.98D-01 WtEn= 2.16D-03
 Coeff-Com:  0.208D-02-0.630D-02 0.112D-01 0.402D-01 0.315D+00 0.638D+00
 Coeff-En:   0.000D+00 0.000D+00 0.000D+00 0.000D+00 0.119D+00 0.881D+00
 Coeff:      0.208D-02-0.628D-02 0.112D-01 0.401D-01 0.314D+00 0.639D+00
 Gap=     0.119 Goal=   None    Shift=    0.000
 RMSDP=1.60D-05 MaxDP=1.25D-03 DE=-9.04D-04 OVMax= 6.66D-03

 Cycle   7  Pass 1  IDiag  1:
 RMSU=  1.06D-05    CP:  9.64D-01  1.50D+00  6.88D-01  6.26D-01  8.68D-01
                    CP:  7.33D-01
 E= -4069.81278399247     Delta-E=       -0.000187478206 Rises=F Damp=F
 DIIS: error= 9.11D-05 at cycle   7 NSaved=   7.
 NSaved= 7 IEnMin= 7 EnMin= -4069.81278399247     IErMin= 7 ErrMin= 9.11D-05
 ErrMax= 9.11D-05  0.00D+00 EMaxC= 1.00D-01 BMatC= 2.13D-05 BMatP= 1.76D-04
 IDIUse=1 WtCom= 1.00D+00 WtEn= 0.00D+00
 Coeff-Com:  0.439D-02-0.962D-02-0.872D-02-0.350D-02 0.107D+00 0.331D+00
 Coeff-Com:  0.579D+00
 Coeff:      0.439D-02-0.962D-02-0.872D-02-0.350D-02 0.107D+00 0.331D+00
 Coeff:      0.579D+00
 Gap=     0.119 Goal=   None    Shift=    0.000
 RMSDP=6.57D-06 MaxDP=1.24D-03 DE=-1.87D-04 OVMax= 3.47D-03

 Cycle   8  Pass 1  IDiag  1:
 RMSU=  4.64D-06    CP:  9.64D-01  1.50D+00  6.88D-01  6.31D-01  8.71D-01
                    CP:  8.63D-01  8.11D-01
 E= -4069.81281018117     Delta-E=       -0.000026188696 Rises=F Damp=F
 DIIS: error= 4.61D-05 at cycle   8 NSaved=   8.
 NSaved= 8 IEnMin= 8 EnMin= -4069.81281018117     IErMin= 8 ErrMin= 4.61D-05
 ErrMax= 4.61D-05  0.00D+00 EMaxC= 1.00D-01 BMatC= 4.70D-06 BMatP= 2.13D-05
 IDIUse=1 WtCom= 1.00D+00 WtEn= 0.00D+00
 Coeff-Com:  0.218D-02-0.431D-02-0.778D-02-0.123D-01-0.120D-01 0.359D-01
 Coeff-Com:  0.339D+00 0.659D+00
 Coeff:      0.218D-02-0.431D-02-0.778D-02-0.123D-01-0.120D-01 0.359D-01
 Coeff:      0.339D+00 0.659D+00
 Gap=     0.120 Goal=   None    Shift=    0.000
 RMSDP=3.26D-06 MaxDP=3.89D-04 DE=-2.62D-05 OVMax= 1.18D-03

 Cycle   9  Pass 1  IDiag  1:
 RMSU=  1.89D-06    CP:  9.64D-01  1.50D+00  6.89D-01  6.32D-01  8.89D-01
                    CP:  8.88D-01  1.01D+00  9.34D-01
 E= -4069.81281764289     Delta-E=       -0.000007461724 Rises=F Damp=F
 DIIS: error= 2.16D-05 at cycle   9 NSaved=   9.
 NSaved= 9 IEnMin= 9 EnMin= -4069.81281764289     IErMin= 9 ErrMin= 2.16D-05
 ErrMax= 2.16D-05  0.00D+00 EMaxC= 1.00D-01 BMatC= 6.84D-07 BMatP= 4.70D-06
 IDIUse=1 WtCom= 1.00D+00 WtEn= 0.00D+00
 Coeff-Com:  0.496D-03-0.837D-03-0.275D-02-0.613D-02-0.222D-01-0.364D-01
 Coeff-Com:  0.104D+00 0.334D+00 0.630D+00
 Coeff:      0.496D-03-0.837D-03-0.275D-02-0.613D-02-0.222D-01-0.364D-01
 Coeff:      0.104D+00 0.334D+00 0.630D+00
 Gap=     0.120 Goal=   None    Shift=    0.000
 RMSDP=1.37D-06 MaxDP=1.55D-04 DE=-7.46D-06 OVMax= 7.51D-04

 Cycle  10  Pass 1  IDiag  1:
 RMSU=  9.17D-07    CP:  9.64D-01  1.50D+00  6.89D-01  6.32D-01  8.92D-01
                    CP:  9.02D-01  1.05D+00  1.10D+00  1.04D+00
 E= -4069.81281914600     Delta-E=       -0.000001503107 Rises=F Damp=F
 DIIS: error= 1.04D-05 at cycle  10 NSaved=  10.
 NSaved=10 IEnMin=10 EnMin= -4069.81281914600     IErMin=10 ErrMin= 1.04D-05
 ErrMax= 1.04D-05  0.00D+00 EMaxC= 1.00D-01 BMatC= 1.57D-07 BMatP= 6.84D-07
 IDIUse=1 WtCom= 1.00D+00 WtEn= 0.00D+00
 Coeff-Com: -0.411D-03 0.863D-03 0.117D-02 0.106D-02-0.415D-02-0.300D-01
 Coeff-Com: -0.450D-01-0.701D-01 0.246D+00 0.901D+00
 Coeff:     -0.411D-03 0.863D-03 0.117D-02 0.106D-02-0.415D-02-0.300D-01
 Coeff:     -0.450D-01-0.701D-01 0.246D+00 0.901D+00
 Gap=     0.120 Goal=   None    Shift=    0.000
 RMSDP=1.17D-06 MaxDP=1.22D-04 DE=-1.50D-06 OVMax= 5.83D-04

 Cycle  11  Pass 1  IDiag  1:
 RMSU=  4.93D-07    CP:  9.64D-01  1.50D+00  6.89D-01  6.33D-01  8.94D-01
                    CP:  9.12D-01  1.10D+00  1.20D+00  1.36D+00  1.36D+00
 E= -4069.81281986274     Delta-E=       -0.000000716744 Rises=F Damp=F
 DIIS: error= 3.96D-06 at cycle  11 NSaved=  11.
 NSaved=11 IEnMin=11 EnMin= -4069.81281986274     IErMin=11 ErrMin= 3.96D-06
 ErrMax= 3.96D-06  0.00D+00 EMaxC= 1.00D-01 BMatC= 5.45D-08 BMatP= 1.57D-07
 IDIUse=1 WtCom= 1.00D+00 WtEn= 0.00D+00
 Coeff-Com: -0.320D-03 0.622D-03 0.128D-02 0.208D-02 0.435D-02-0.817D-02
 Coeff-Com: -0.419D-01-0.127D+00-0.269D-01 0.454D+00 0.742D+00
 Coeff:     -0.320D-03 0.622D-03 0.128D-02 0.208D-02 0.435D-02-0.817D-02
 Coeff:     -0.419D-01-0.127D+00-0.269D-01 0.454D+00 0.742D+00
 Gap=     0.120 Goal=   None    Shift=    0.000
 RMSDP=6.48D-07 MaxDP=5.73D-05 DE=-7.17D-07 OVMax= 3.44D-04

 Cycle  12  Pass 1  IDiag  1:
 RMSU=  2.50D-07    CP:  9.64D-01  1.50D+00  6.89D-01  6.33D-01  8.95D-01
                    CP:  9.14D-01  1.12D+00  1.26D+00  1.52D+00  1.74D+00
                    CP:  1.22D+00
 E= -4069.81282009816     Delta-E=       -0.000000235414 Rises=F Damp=F
 DIIS: error= 2.39D-06 at cycle  12 NSaved=  12.
 NSaved=12 IEnMin=12 EnMin= -4069.81282009816     IErMin=12 ErrMin= 2.39D-06
 ErrMax= 2.39D-06  0.00D+00 EMaxC= 1.00D-01 BMatC= 1.31D-08 BMatP= 5.45D-08
 IDIUse=1 WtCom= 1.00D+00 WtEn= 0.00D+00
 Coeff-Com:  0.157D-05-0.186D-04 0.160D-03 0.474D-03 0.319D-02 0.374D-02
 Coeff-Com:  0.341D-02-0.317D-01-0.648D-01-0.824D-01 0.238D+00 0.930D+00
 Coeff:      0.157D-05-0.186D-04 0.160D-03 0.474D-03 0.319D-02 0.374D-02
 Coeff:      0.341D-02-0.317D-01-0.648D-01-0.824D-01 0.238D+00 0.930D+00
 Gap=     0.120 Goal=   None    Shift=    0.000
 RMSDP=4.12D-07 MaxDP=2.71D-05 DE=-2.35D-07 OVMax= 2.36D-04

 Cycle  13  Pass 1  IDiag  1:
 RMSU=  1.57D-07    CP:  9.64D-01  1.50D+00  6.89D-01  6.33D-01  8.95D-01
                    CP:  9.14D-01  1.13D+00  1.29D+00  1.63D+00  1.96D+00
                    CP:  1.62D+00  1.30D+00
 E= -4069.81282018010     Delta-E=       -0.000000081942 Rises=F Damp=F
 DIIS: error= 1.30D-06 at cycle  13 NSaved=  13.
 NSaved=13 IEnMin=13 EnMin= -4069.81282018010     IErMin=13 ErrMin= 1.30D-06
 ErrMax= 1.30D-06  0.00D+00 EMaxC= 1.00D-01 BMatC= 7.25D-09 BMatP= 1.31D-08
 IDIUse=1 WtCom= 1.00D+00 WtEn= 0.00D+00
 Coeff-Com:  0.117D-03-0.239D-03-0.363D-03-0.456D-03 0.525D-03 0.473D-02
 Coeff-Com:  0.193D-01 0.226D-01-0.308D-01-0.237D+00-0.161D+00 0.602D+00
 Coeff-Com:  0.781D+00
 Coeff:      0.117D-03-0.239D-03-0.363D-03-0.456D-03 0.525D-03 0.473D-02
 Coeff:      0.193D-01 0.226D-01-0.308D-01-0.237D+00-0.161D+00 0.602D+00
 Coeff:      0.781D+00
 Gap=     0.120 Goal=   None    Shift=    0.000
 RMSDP=3.14D-07 MaxDP=2.04D-05 DE=-8.19D-08 OVMax= 1.77D-04

 Cycle  14  Pass 1  IDiag  1:
 RMSU=  7.22D-08    CP:  9.64D-01  1.50D+00  6.89D-01  6.33D-01  8.96D-01
                    CP:  9.15D-01  1.13D+00  1.31D+00  1.69D+00  2.14D+00
                    CP:  1.88D+00  1.81D+00  1.09D+00
 E= -4069.81282021147     Delta-E=       -0.000000031370 Rises=F Damp=F
 DIIS: error= 7.15D-07 at cycle  14 NSaved=  14.
 NSaved=14 IEnMin=14 EnMin= -4069.81282021147     IErMin=14 ErrMin= 7.15D-07
 ErrMax= 7.15D-07  0.00D+00 EMaxC= 1.00D-01 BMatC= 1.14D-09 BMatP= 7.25D-09
 IDIUse=1 WtCom= 1.00D+00 WtEn= 0.00D+00
 Coeff-Com:  0.650D-04-0.128D-03-0.240D-03-0.380D-03-0.491D-03 0.120D-02
 Coeff-Com:  0.105D-01 0.187D-01 0.420D-02-0.965D-01-0.143D+00 0.958D-01
 Coeff-Com:  0.402D+00 0.708D+00
 Coeff:      0.650D-04-0.128D-03-0.240D-03-0.380D-03-0.491D-03 0.120D-02
 Coeff:      0.105D-01 0.187D-01 0.420D-02-0.965D-01-0.143D+00 0.958D-01
 Coeff:      0.402D+00 0.708D+00
 Gap=     0.120 Goal=   None    Shift=    0.000
 RMSDP=9.53D-08 MaxDP=6.94D-06 DE=-3.14D-08 OVMax= 5.23D-05

 Cycle  15  Pass 1  IDiag  1:
 RMSU=  3.70D-08    CP:  9.64D-01  1.50D+00  6.89D-01  6.33D-01  8.96D-01
                    CP:  9.14D-01  1.13D+00  1.31D+00  1.71D+00  2.18D+00
                    CP:  1.99D+00  1.95D+00  1.33D+00  1.02D+00
 E= -4069.81282021496     Delta-E=       -0.000000003492 Rises=F Damp=F
 DIIS: error= 2.96D-07 at cycle  15 NSaved=  15.
 NSaved=15 IEnMin=15 EnMin= -4069.81282021496     IErMin=15 ErrMin= 2.96D-07
 ErrMax= 2.96D-07  0.00D+00 EMaxC= 1.00D-01 BMatC= 2.19D-10 BMatP= 1.14D-09
 IDIUse=1 WtCom= 1.00D+00 WtEn= 0.00D+00
 Coeff-Com:  0.514D-05-0.857D-05-0.308D-04-0.779D-04-0.294D-03-0.499D-03
 Coeff-Com:  0.111D-02 0.239D-02 0.826D-02 0.253D-02-0.310D-01-0.733D-01
 Coeff-Com:  0.234D-01 0.303D+00 0.764D+00
 Coeff:      0.514D-05-0.857D-05-0.308D-04-0.779D-04-0.294D-03-0.499D-03
 Coeff:      0.111D-02 0.239D-02 0.826D-02 0.253D-02-0.310D-01-0.733D-01
 Coeff:      0.234D-01 0.303D+00 0.764D+00
 Gap=     0.120 Goal=   None    Shift=    0.000
 RMSDP=4.06D-08 MaxDP=2.49D-06 DE=-3.49D-09 OVMax= 2.68D-05

 Cycle  16  Pass 1  IDiag  1:
 RMSU=  1.77D-08    CP:  9.64D-01  1.50D+00  6.89D-01  6.33D-01  8.96D-01
                    CP:  9.14D-01  1.13D+00  1.32D+00  1.71D+00  2.19D+00
                    CP:  2.01D+00  2.02D+00  1.40D+00  1.24D+00  1.14D+00
 E= -4069.81282021576     Delta-E=       -0.000000000804 Rises=F Damp=F
 DIIS: error= 1.75D-07 at cycle  16 NSaved=  16.
 NSaved=16 IEnMin=16 EnMin= -4069.81282021576     IErMin=16 ErrMin= 1.75D-07
 ErrMax= 1.75D-07  0.00D+00 EMaxC= 1.00D-01 BMatC= 7.40D-11 BMatP= 2.19D-10
 IDIUse=1 WtCom= 1.00D+00 WtEn= 0.00D+00
 Coeff-Com: -0.138D-04 0.279D-04 0.457D-04 0.531D-04-0.219D-04-0.608D-03
 Coeff-Com: -0.188D-02-0.415D-02 0.411D-02 0.252D-01 0.203D-01-0.636D-01
 Coeff-Com: -0.859D-01-0.283D-01 0.395D+00 0.740D+00
 Coeff:     -0.138D-04 0.279D-04 0.457D-04 0.531D-04-0.219D-04-0.608D-03
 Coeff:     -0.188D-02-0.415D-02 0.411D-02 0.252D-01 0.203D-01-0.636D-01
 Coeff:     -0.859D-01-0.283D-01 0.395D+00 0.740D+00
 Gap=     0.120 Goal=   None    Shift=    0.000
 RMSDP=2.14D-08 MaxDP=1.41D-06 DE=-8.04D-10 OVMax= 1.19D-05

 Cycle  17  Pass 1  IDiag  1:
 RMSU=  1.01D-08    CP:  9.64D-01  1.50D+00  6.89D-01  6.33D-01  8.96D-01
                    CP:  9.14D-01  1.13D+00  1.32D+00  1.72D+00  2.20D+00
                    CP:  2.03D+00  2.04D+00  1.45D+00  1.34D+00  1.43D+00
                    CP:  1.24D+00
 E= -4069.81282021594     Delta-E=       -0.000000000178 Rises=F Damp=F
 DIIS: error= 1.08D-07 at cycle  17 NSaved=  17.
 NSaved=17 IEnMin=17 EnMin= -4069.81282021594     IErMin=17 ErrMin= 1.08D-07
 ErrMax= 1.08D-07  0.00D+00 EMaxC= 1.00D-01 BMatC= 1.73D-11 BMatP= 7.40D-11
 IDIUse=1 WtCom= 1.00D+00 WtEn= 0.00D+00
 Coeff-Com: -0.705D-05 0.137D-04 0.278D-04 0.416D-04 0.844D-04-0.124D-03
 Coeff-Com: -0.919D-03-0.274D-02 0.843D-04 0.909D-02 0.172D-01-0.701D-02
 Coeff-Com: -0.384D-01-0.984D-01-0.330D-01 0.305D+00 0.849D+00
 Coeff:     -0.705D-05 0.137D-04 0.278D-04 0.416D-04 0.844D-04-0.124D-03
 Coeff:     -0.919D-03-0.274D-02 0.843D-04 0.909D-02 0.172D-01-0.701D-02
 Coeff:     -0.384D-01-0.984D-01-0.330D-01 0.305D+00 0.849D+00
 Gap=     0.120 Goal=   None    Shift=    0.000
 RMSDP=1.32D-08 MaxDP=8.99D-07 DE=-1.78D-10 OVMax= 8.41D-06

 Cycle  18  Pass 1  IDiag  1:
 RMSU=  4.64D-09    CP:  9.64D-01  1.50D+00  6.89D-01  6.33D-01  8.96D-01
                    CP:  9.14D-01  1.13D+00  1.32D+00  1.72D+00  2.20D+00
                    CP:  2.03D+00  2.05D+00  1.47D+00  1.41D+00  1.60D+00
                    CP:  1.66D+00  1.38D+00
 E= -4069.81282021617     Delta-E=       -0.000000000229 Rises=F Damp=F
 DIIS: error= 5.45D-08 at cycle  18 NSaved=  18.
 NSaved=18 IEnMin=18 EnMin= -4069.81282021617     IErMin=18 ErrMin= 5.45D-08
 ErrMax= 5.45D-08  0.00D+00 EMaxC= 1.00D-01 BMatC= 6.39D-12 BMatP= 1.73D-11
 IDIUse=1 WtCom= 1.00D+00 WtEn= 0.00D+00
 Coeff-Com:  0.202D-05-0.433D-05-0.457D-05-0.215D-05 0.582D-04 0.171D-03
 Coeff-Com:  0.402D-03 0.211D-03-0.116D-02-0.615D-02-0.189D-03 0.209D-01
 Coeff-Com:  0.190D-01-0.334D-01-0.165D+00-0.184D+00 0.335D+00 0.101D+01
 Coeff:      0.202D-05-0.433D-05-0.457D-05-0.215D-05 0.582D-04 0.171D-03
 Coeff:      0.402D-03 0.211D-03-0.116D-02-0.615D-02-0.189D-03 0.209D-01
 Coeff:      0.190D-01-0.334D-01-0.165D+00-0.184D+00 0.335D+00 0.101D+01
 Gap=     0.120 Goal=   None    Shift=    0.000
 RMSDP=1.13D-08 MaxDP=6.81D-07 DE=-2.29D-10 OVMax= 6.70D-06

 Cycle  19  Pass 1  IDiag  1:
 RMSU=  2.74D-09    CP:  9.64D-01  1.50D+00  6.89D-01  6.33D-01  8.96D-01
                    CP:  9.14D-01  1.13D+00  1.32D+00  1.72D+00  2.20D+00
                    CP:  2.03D+00  2.05D+00  1.48D+00  1.46D+00  1.75D+00
                    CP:  2.00D+00  1.93D+00  1.40D+00
 E= -4069.81282021636     Delta-E=       -0.000000000189 Rises=F Damp=F
 DIIS: error= 3.96D-08 at cycle  19 NSaved=  19.
 NSaved=19 IEnMin=19 EnMin= -4069.81282021636     IErMin=19 ErrMin= 3.96D-08
 ErrMax= 3.96D-08  0.00D+00 EMaxC= 1.00D-01 BMatC= 1.46D-12 BMatP= 6.39D-12
 IDIUse=1 WtCom= 1.00D+00 WtEn= 0.00D+00
 Coeff-Com:  0.293D-05-0.590D-05-0.100D-04-0.128D-04 0.101D-04 0.116D-03
 Coeff-Com:  0.477D-03 0.799D-03-0.534D-03-0.605D-02-0.504D-02 0.124D-01
 Coeff-Com:  0.209D-01 0.106D-01-0.720D-01-0.179D+00-0.452D-01 0.508D+00
 Coeff-Com:  0.754D+00
 Coeff:      0.293D-05-0.590D-05-0.100D-04-0.128D-04 0.101D-04 0.116D-03
 Coeff:      0.477D-03 0.799D-03-0.534D-03-0.605D-02-0.504D-02 0.124D-01
 Coeff:      0.209D-01 0.106D-01-0.720D-01-0.179D+00-0.452D-01 0.508D+00
 Coeff:      0.754D+00
 Gap=     0.120 Goal=   None    Shift=    0.000
 RMSDP=4.72D-09 MaxDP=2.91D-07 DE=-1.89D-10 OVMax= 2.81D-06

 SCF Done:  E(RCAM-B3LYP) =  -4069.81282022     A.U. after   19 cycles
            NFock= 19  Conv=0.47D-08     -V/T= 2.0102
 KE= 4.028801554035D+03 PE=-4.045059372264D+04 EE= 1.686722655815D+04
 Leave Link  502 at Fri Sep 10 07:53:54 2021, MaxMem= 23488102400 cpu:           15142.7 elap:             657.3
 (Enter /sw/apps/gaussian-16.0/g16/l801.exe)
 DoSCS=F DFT=T ScalE2(SS,OS)=  1.000000  1.000000
 ExpMin= 3.36D-02 ExpMax= 4.95D+03 ExpMxC= 7.45D+02 IAcc=3 IRadAn=         5 AccDes= 0.00D+00
 HarFok:  IExCor=  205 AccDes= 0.00D+00 IRadAn=         5 IDoV=-2 UseB2=F ITyADJ=14
 ICtDFT= 12500011 ScaDFX=  1.000000  1.000000  1.000000  1.000000
 GSVD:  LWork=       -9588 too small for GESVD, short by       45590 words or       45590 for optimal perf.
 Largest valence mixing into a core orbital is  2.03D-04
 Largest core mixing into a valence orbital is  5.23D-05
 Range of M.O.s used for correlation:    95  1572
 NBasis=  1572 NAE=   312 NBE=   312 NFC=    94 NFV=     0
 NROrb=   1478 NOA=   218 NOB=   218 NVA=  1260 NVB=  1260
 Leave Link  801 at Fri Sep 10 07:53:55 2021, MaxMem= 23488102400 cpu:               8.3 elap:               0.4
 (Enter /sw/apps/gaussian-16.0/g16/l914.exe)
 RHF ground state
 Two-electron integrals replicated using symmetry.
 MDV= 23488102400 DFT=T DoStab=F Mixed=T DoRPA=T DoScal=F NonHer=T
 Making orbital integer symmetry assigments:
 Orbital symmetries:
       Occupied  (A) (A) (A) (A) (A) (A) (A) (A) (A) (A) (A) (A)
                 (A) (A) (A) (A) (A) (A) (A) (A) (A) (A) (A) (A)
                 (A) (A) (A) (A) (A) (A) (A) (A) (A) (A) (A) (A)
                 (A) (A) (A) (A) (A) (A) (A) (A) (A) (A) (A) (A)
                 (A) (A) (A) (A) (A) (A) (A) (A) (A) (A) (A) (A)
                 (A) (A) (A) (A) (A) (A) (A) (A) (A) (A) (A) (A)
                 (A) (A) (A) (A) (A) (A) (A) (A) (A) (A) (A) (A)
                 (A) (A) (A) (A) (A) (A) (A) (A) (A) (A) (A) (A)
                 (A) (A) (A) (A) (A) (A) (A) (A) (A) (A) (A) (A)
                 (A) (A) (A) (A) (A) (A) (A) (A) (A) (A) (A) (A)
                 (A) (A) (A) (A) (A) (A) (A) (A) (A) (A) (A) (A)
                 (A) (A) (A) (A) (A) (A) (A) (A) (A) (A) (A) (A)
                 (A) (A) (A) (A) (A) (A) (A) (A) (A) (A) (A) (A)
                 (A) (A) (A) (A) (A) (A) (A) (A) (A) (A) (A) (A)
                 (A) (A) (A) (A) (A) (A) (A) (A) (A) (A) (A) (A)
                 (A) (A) (A) (A) (A) (A) (A) (A) (A) (A) (A) (A)
                 (A) (A) (A) (A) (A) (A) (A) (A) (A) (A) (A) (A)
                 (A) (A) (A) (A) (A) (A) (A) (A) (A) (A) (A) (A)
                 (A) (A) (A) (A) (A) (A) (A) (A) (A) (A) (A) (A)
                 (A) (A) (A) (A) (A) (A) (A) (A) (A) (A) (A) (A)
                 (A) (A) (A) (A) (A) (A) (A) (A) (A) (A) (A) (A)
                 (A) (A) (A) (A) (A) (A) (A) (A) (A) (A) (A) (A)
                 (A) (A) (A) (A) (A) (A) (A) (A) (A) (A) (A) (A)
                 (A) (A) (A) (A) (A) (A) (A) (A) (A) (A) (A) (A)
                 (A) (A) (A) (A) (A) (A) (A) (A) (A) (A) (A) (A)
                 (A) (A) (A) (A) (A) (A) (A) (A) (A) (A) (A) (A)
       Virtual   (A) (A) (A) (A) (A) (A) (A) (A) (A) (A) (A) (A)
                 (A) (A) (A) (A) (A) (A) (A) (A) (A) (A) (A) (A)
                 (A) (A) (A) (A) (A) (A) (A) (A) (A) (A) (A) (A)
                 (A) (A) (A) (A) (A) (A) (A) (A) (A) (A) (A) (A)
                 (A) (A) (A) (A) (A) (A) (A) (A) (A) (A) (A) (A)
                 (A) (A) (A) (A) (A) (A) (A) (A) (A) (A) (A) (A)
                 (A) (A) (A) (A) (A) (A) (A) (A) (A) (A) (A) (A)
                 (A) (A) (A) (A) (A) (A) (A) (A) (A) (A) (A) (A)
                 (A) (A) (A) (A) (A) (A) (A) (A) (A) (A) (A) (A)
                 (A) (A) (A) (A) (A) (A) (A) (A) (A) (A) (A) (A)
                 (A) (A) (A) (A) (A) (A) (A) (A) (A) (A) (A) (A)
                 (A) (A) (A) (A) (A) (A) (A) (A) (A) (A) (A) (A)
                 (A) (A) (A) (A) (A) (A) (A) (A) (A) (A) (A) (A)
                 (A) (A) (A) (A) (A) (A) (A) (A) (A) (A) (A) (A)
                 (A) (A) (A) (A) (A) (A) (A) (A) (A) (A) (A) (A)
                 (A) (A) (A) (A) (A) (A) (A) (A) (A) (A) (A) (A)
                 (A) (A) (A) (A) (A) (A) (A) (A) (A) (A) (A) (A)
                 (A) (A) (A) (A) (A) (A) (A) (A) (A) (A) (A) (A)
                 (A) (A) (A) (A) (A) (A) (A) (A) (A) (A) (A) (A)
                 (A) (A) (A) (A) (A) (A) (A) (A) (A) (A) (A) (A)
                 (A) (A) (A) (A) (A) (A) (A) (A) (A) (A) (A) (A)
                 (A) (A) (A) (A) (A) (A) (A) (A) (A) (A) (A) (A)
                 (A) (A) (A) (A) (A) (A) (A) (A) (A) (A) (A) (A)
                 (A) (A) (A) (A) (A) (A) (A) (A) (A) (A) (A) (A)
                 (A) (A) (A) (A) (A) (A) (A) (A) (A) (A) (A) (A)
                 (A) (A) (A) (A) (A) (A) (A) (A) (A) (A) (A) (A)
                 (A) (A) (A) (A) (A) (A) (A) (A) (A) (A) (A) (A)
                 (A) (A) (A) (A) (A) (A) (A) (A) (A) (A) (A) (A)
                 (A) (A) (A) (A) (A) (A) (A) (A) (A) (A) (A) (A)
                 (A) (A) (A) (A) (A) (A) (A) (A) (A) (A) (A) (A)
                 (A) (A) (A) (A) (A) (A) (A) (A) (A) (A) (A) (A)
                 (A) (A) (A) (A) (A) (A) (A) (A) (A) (A) (A) (A)
                 (A) (A) (A) (A) (A) (A) (A) (A) (A) (A) (A) (A)
                 (A) (A) (A) (A) (A) (A) (A) (A) (A) (A) (A) (A)
                 (A) (A) (A) (A) (A) (A) (A) (A) (A) (A) (A) (A)
                 (A) (A) (A) (A) (A) (A) (A) (A) (A) (A) (A) (A)
                 (A) (A) (A) (A) (A) (A) (A) (A) (A) (A) (A) (A)
                 (A) (A) (A) (A) (A) (A) (A) (A) (A) (A) (A) (A)
                 (A) (A) (A) (A) (A) (A) (A) (A) (A) (A) (A) (A)
                 (A) (A) (A) (A) (A) (A) (A) (A) (A) (A) (A) (A)
                 (A) (A) (A) (A) (A) (A) (A) (A) (A) (A) (A) (A)
                 (A) (A) (A) (A) (A) (A) (A) (A) (A) (A) (A) (A)
                 (A) (A) (A) (A) (A) (A) (A) (A) (A) (A) (A) (A)
                 (A) (A) (A) (A) (A) (A) (A) (A) (A) (A) (A) (A)
                 (A) (A) (A) (A) (A) (A) (A) (A) (A) (A) (A) (A)
                 (A) (A) (A) (A) (A) (A) (A) (A) (A) (A) (A) (A)
                 (A) (A) (A) (A) (A) (A) (A) (A) (A) (A) (A) (A)
                 (A) (A) (A) (A) (A) (A) (A) (A) (A) (A) (A) (A)
                 (A) (A) (A) (A) (A) (A) (A) (A) (A) (A) (A) (A)
                 (A) (A) (A) (A) (A) (A) (A) (A) (A) (A) (A) (A)
                 (A) (A) (A) (A) (A) (A) (A) (A) (A) (A) (A) (A)
                 (A) (A) (A) (A) (A) (A) (A) (A) (A) (A) (A) (A)
                 (A) (A) (A) (A) (A) (A) (A) (A) (A) (A) (A) (A)
                 (A) (A) (A) (A) (A) (A) (A) (A) (A) (A) (A) (A)
                 (A) (A) (A) (A) (A) (A) (A) (A) (A) (A) (A) (A)
                 (A) (A) (A) (A) (A) (A) (A) (A) (A) (A) (A) (A)
                 (A) (A) (A) (A) (A) (A) (A) (A) (A) (A) (A) (A)
                 (A) (A) (A) (A) (A) (A) (A) (A) (A) (A) (A) (A)
                 (A) (A) (A) (A) (A) (A) (A) (A) (A) (A) (A) (A)
                 (A) (A) (A) (A) (A) (A) (A) (A) (A) (A) (A) (A)
                 (A) (A) (A) (A) (A) (A) (A) (A) (A) (A) (A) (A)
                 (A) (A) (A) (A) (A) (A) (A) (A) (A) (A) (A) (A)
                 (A) (A) (A) (A) (A) (A) (A) (A) (A) (A) (A) (A)
                 (A) (A) (A) (A) (A) (A) (A) (A) (A) (A) (A) (A)
                 (A) (A) (A) (A) (A) (A) (A) (A) (A) (A) (A) (A)
                 (A) (A) (A) (A) (A) (A) (A) (A) (A) (A) (A) (A)
                 (A) (A) (A) (A) (A) (A) (A) (A) (A) (A) (A) (A)
                 (A) (A) (A) (A) (A) (A) (A) (A) (A) (A) (A) (A)
                 (A) (A) (A) (A) (A) (A) (A) (A) (A) (A) (A) (A)
                 (A) (A) (A) (A) (A) (A) (A) (A) (A) (A) (A) (A)
                 (A) (A) (A) (A) (A) (A) (A) (A) (A) (A) (A) (A)
                 (A) (A) (A) (A) (A) (A) (A) (A) (A) (A) (A) (A)
                 (A) (A) (A) (A) (A) (A) (A) (A) (A) (A) (A) (A)
                 (A) (A) (A) (A) (A) (A) (A) (A) (A) (A) (A) (A)
                 (A) (A) (A) (A) (A) (A) (A) (A) (A) (A) (A) (A)
                 (A) (A) (A) (A) (A) (A) (A) (A) (A) (A) (A) (A)
                 (A) (A) (A) (A) (A) (A) (A) (A) (A) (A) (A) (A)
                 (A) (A) (A) (A) (A) (A) (A) (A) (A) (A) (A) (A)
                 (A) (A) (A) (A) (A) (A) (A) (A) (A) (A) (A) (A)
                 (A) (A) (A) (A) (A) (A) (A) (A) (A) (A) (A) (A)
                 (A) (A) (A) (A) (A) (A) (A) (A) (A) (A) (A) (A)
                 (A) (A) (A) (A) (A) (A) (A) (A) (A) (A) (A) (A)
                 (A) (A) (A) (A) (A) (A) (A) (A) (A) (A) (A) (A)
                 (A) (A) (A) (A) (A) (A) (A) (A) (A) (A) (A) (A)
                 (A) (A) (A) (A) (A) (A) (A) (A) (A) (A) (A) (A)
                 (A) (A) (A) (A) (A) (A) (A) (A) (A) (A) (A) (A)
                 (A) (A) (A) (A) (A) (A) (A) (A) (A) (A) (A) (A)
                 (A) (A) (A) (A) (A) (A) (A) (A) (A) (A) (A) (A)
                 (A) (A) (A) (A) (A) (A) (A) (A) (A) (A) (A) (A)
                 (A) (A) (A) (A) (A) (A) (A) (A) (A) (A) (A) (A)
                 (A) (A) (A) (A) (A) (A) (A) (A) (A) (A) (A) (A)
                 (A) (A) (A) (A) (A) (A) (A) (A) (A) (A) (A) (A)
                 (A) (A) (A) (A) (A) (A) (A) (A) (A) (A) (A) (A)
                 (A) (A) (A) (A) (A) (A) (A) (A) (A) (A) (A) (A)
                 (A) (A) (A) (A) (A) (A) (A) (A) (A) (A) (A) (A)
                 (A) (A) (A) (A) (A) (A) (A) (A) (A) (A) (A) (A)
                 (A) (A) (A) (A) (A) (A) (A) (A) (A) (A) (A) (A)
                 (A) (A) (A) (A) (A) (A) (A) (A) (A) (A) (A) (A)
                 (A) (A) (A) (A) (A) (A) (A) (A) (A) (A) (A) (A)
                 (A) (A) (A) (A) (A) (A) (A) (A) (A) (A) (A) (A)
                 (A) (A) (A) (A) (A) (A) (A) (A) (A) (A) (A) (A)
                 (A) (A) (A) (A) (A) (A) (A) (A) (A) (A) (A) (A)
                 (A) (A) (A) (A) (A) (A) (A) (A) (A) (A) (A) (A)
                 (A) (A) (A) (A) (A) (A) (A) (A) (A) (A) (A) (A)
                 (A) (A) (A) (A) (A) (A) (A) (A) (A) (A) (A) (A)
    20 initial guesses have been made.
 Convergence on wavefunction:    0.001000000000000
 Davidson Disk Diagonalization:  ConvIn= 1.00D-03 SkipCon=T Conv= 1.00D-03.
 Max sub-space:  2000 roots to seek:    20 dimension of matrix:       549360
 Iteration     1 Dimension    20 NMult     0 NNew     20
 CISAX will form    20 AO SS matrices at one time.
 NMat=    20 NSing=    20 JSym2X= 0.
 FoFJK:  IHMeth= 1 ICntrl=       0 DoSepK=T KAlg= 0 I1Cent=           0 FoldK=F
 IRaf=         1 NMat=      40 IRICut=       1 DoRegI=T DoRafI=F ISym2E= 0 IDoP0=3 IntGTp=3.
 FoFCou: FMM=T IPFlag=           0 FMFlag=      100000 FMFlg1=        2001
         NFxFlg=           0 DoJE=F BraDBF=F KetDBF=F FulRan=T
         wScrn=  0.000000 ICntrl=       500 IOpCl=  0 I1Cent=           0 NGrid=           0
         NMat0=   20 NMatS0=     20 NMatT0=    0 NMatD0=   20 NMtDS0=    0 NMtDT0=    0
 Symmetry not used in FoFCou.
 FMM levels:  10  Number of levels for PrismC:   9
 New state      2 was old state      4
 New state      3 was old state      7
 New state      4 was old state      6
 New state      5 was old state      2
 Excitation Energies [eV] at current iteration:
 Root      1 :     2.334160134818985
 Root      2 :     2.541562609961172
 Root      3 :     2.607693535957243
 Root      4 :     2.618944436170179
 Root      5 :     2.681554955063069
 Root      6 :     2.691261645707659
 Root      7 :     3.117197161008796
 Root      8 :     3.337399924028979
 Root      9 :     3.633580487341812
 Root     10 :     3.675965899627327
 Root     11 :     3.736688328526971
 Root     12 :     3.758919641922998
 Root     13 :     4.238297485772480
 Root     14 :     4.295080245546782
 Root     15 :     4.310008972686624
 Root     16 :     4.472632142322981
 Root     17 :     4.576114992095643
 Root     18 :     4.612341523269301
 Root     19 :     4.721996610526116
 Root     20 :     4.853573719656592
 Iteration     2 Dimension    30 NMult    20 NNew     10
 CISAX will form    10 AO SS matrices at one time.
 NMat=    10 NSing=    10 JSym2X= 0.
 New state      1 was old state      5
 Root      1 not converged, maximum delta is    0.186894129903745
 New state      2 was old state      4
 Root      2 not converged, maximum delta is    0.284163262593901
 Root      3 not converged, maximum delta is    0.336162706348924
 New state      4 was old state      1
 Root      4 not converged, maximum delta is    0.003614165451946
 New state      5 was old state      2
 Root      5 not converged, maximum delta is    0.006145871759972
 Excitation Energies [eV] at current iteration:
 Root      1 :     1.796484690375028   Change is   -0.885070264688040
 Root      2 :     2.139335438616393   Change is   -0.479608997553785
 Root      3 :     2.239561496675501   Change is   -0.368132039281742
 Root      4 :     2.333319352100031   Change is   -0.000840782718954
 Root      5 :     2.540552871307094   Change is   -0.001009738654078
 Iteration     3 Dimension    40 NMult    30 NNew     10
 CISAX will form    10 AO SS matrices at one time.
 NMat=    10 NSing=    10 JSym2X= 0.
 Root      1 not converged, maximum delta is    0.071112239686170
 Root      2 not converged, maximum delta is    0.252555846286226
 Root      3 not converged, maximum delta is    0.040235468381259
 Root      4 not converged, maximum delta is    0.003230548052053
 No map to state      5
 Excitation Energies [eV] at current iteration:
 Root      1 :     1.690072020344578   Change is   -0.106412670030450
 Root      2 :     1.860221437253072   Change is   -0.279114001363321
 Root      3 :     2.200037593112163   Change is   -0.039523903563337
 Root      4 :     2.333312543924803   Change is   -0.000006808175228
 Root      5 :     2.353737346212377
 Iteration     4 Dimension    50 NMult    40 NNew     10
 CISAX will form    10 AO SS matrices at one time.
 NMat=    10 NSing=    10 JSym2X= 0.
 Root      1 not converged, maximum delta is    0.014747102299520
 Root      2 not converged, maximum delta is    0.179901271557914
 Root      3 not converged, maximum delta is    0.119468662320851
 New state      4 was old state      5
 Root      4 not converged, maximum delta is    0.141620078070060
 New state      5 was old state      4
 Root      5 not converged, maximum delta is    0.003634526040283
 Excitation Energies [eV] at current iteration:
 Root      1 :     1.673226596145428   Change is   -0.016845424199150
 Root      2 :     1.707011513181894   Change is   -0.153209924071179
 Root      3 :     2.192446013517396   Change is   -0.007591579594768
 Root      4 :     2.203157082969840   Change is   -0.150580263242536
 Root      5 :     2.333313307924556   Change is    0.000000763999752
 Iteration     5 Dimension    60 NMult    50 NNew     10
 CISAX will form    10 AO SS matrices at one time.
 NMat=    10 NSing=    10 JSym2X= 0.
 Root      1 not converged, maximum delta is    0.031890858849504
 Root      2 not converged, maximum delta is    0.031971767559663
 New state      3 was old state      4
 Root      3 not converged, maximum delta is    0.331536601727037
 New state      4 was old state      3
 Root      4 not converged, maximum delta is    0.332371204023840
 Root      5 has converged.
 Excitation Energies [eV] at current iteration:
 Root      1 :     1.671381856195728   Change is   -0.001844739949700
 Root      2 :     1.679972998715088   Change is   -0.027038514466806
 Root      3 :     2.186200507430860   Change is   -0.016956575538980
 Root      4 :     2.192882644309089   Change is    0.000436630791694
 Root      5 :     2.333313259201915   Change is   -0.000000048722641
 Iteration     6 Dimension    68 NMult    60 NNew      8
 CISAX will form     8 AO SS matrices at one time.
 NMat=     8 NSing=     8 JSym2X= 0.
 Root      1 not converged, maximum delta is    0.033387592324046
 Root      2 not converged, maximum delta is    0.033348311429751
 Root      3 not converged, maximum delta is    0.042610590812417
 Root      4 not converged, maximum delta is    0.042412361992625
 Root      5 has converged.
 Excitation Energies [eV] at current iteration:
 Root      1 :     1.671089301677560   Change is   -0.000292554518168
 Root      2 :     1.676329014268175   Change is   -0.003643984446913
 Root      3 :     2.184419629498557   Change is   -0.001780877932303
 Root      4 :     2.192610884601536   Change is   -0.000271759707553
 Root      5 :     2.333313256960061   Change is   -0.000000002241853
 Iteration     7 Dimension    76 NMult    68 NNew      8
 CISAX will form     8 AO SS matrices at one time.
 NMat=     8 NSing=     8 JSym2X= 0.
 Root      1 not converged, maximum delta is    0.007943476549526
 Root      2 not converged, maximum delta is    0.007942918510394
 Root      3 not converged, maximum delta is    0.004644206066472
[...]
 Alpha virt. eigenvalues --    1.82800   1.82923   1.83004   1.83256   1.83409
 Alpha virt. eigenvalues --    1.83680   1.83750   1.83953   1.84088   1.84350
 Alpha virt. eigenvalues --    1.84528   1.84674   1.84714   1.85025   1.85043
 Alpha virt. eigenvalues --    1.85190   1.85289   1.85401   1.85478   1.85697
 Alpha virt. eigenvalues --    1.85783   1.86108   1.86290   1.86476   1.86561
 Alpha virt. eigenvalues --    1.86699   1.86833   1.86935   1.86955   1.87195
 Alpha virt. eigenvalues --    1.87360   1.87559   1.87696   1.87791   1.87935
 Alpha virt. eigenvalues --    1.87967   1.88162   1.88379   1.88451   1.88720
 Alpha virt. eigenvalues --    1.88821   1.89077   1.89136   1.89361   1.89543
 Alpha virt. eigenvalues --    1.89657   1.89856   1.90017   1.90036   1.90407
 Alpha virt. eigenvalues --    1.90639   1.91101   1.91236   1.91371   1.91533
 Alpha virt. eigenvalues --    1.91927   1.92060   1.92449   1.92510   1.92897
 Alpha virt. eigenvalues --    1.92900   1.93278   1.93349   1.93643   1.94224
 Alpha virt. eigenvalues --    1.94449   1.94615   1.94953   1.95436   1.95615
 Alpha virt. eigenvalues --    1.95695   1.95870   1.96035   1.96103   1.96244
 Alpha virt. eigenvalues --    1.96385   1.96513   1.96676   1.96822   1.97166
 Alpha virt. eigenvalues --    1.97367   1.97696   1.97766   1.97994   1.98059
 Alpha virt. eigenvalues --    1.98405   1.98488   1.98557   1.99029   1.99276
 Alpha virt. eigenvalues --    1.99696   2.00215   2.00581   2.00867   2.00927
 Alpha virt. eigenvalues --    2.01288   2.01328   2.01571   2.01610   2.01639
 Alpha virt. eigenvalues --    2.01818   2.02058   2.02684   2.02893   2.03171
 Alpha virt. eigenvalues --    2.03263   2.03282   2.03344   2.03587   2.03715
 Alpha virt. eigenvalues --    2.03931   2.04217   2.04876   2.05145   2.05427
 Alpha virt. eigenvalues --    2.05784   2.05973   2.06443   2.06730   2.07075
 Alpha virt. eigenvalues --    2.07226   2.07528   2.08510   2.08654   2.08873
 Alpha virt. eigenvalues --    2.09224   2.09462   2.09814   2.10747   2.11073
 Alpha virt. eigenvalues --    2.11145   2.11417   2.11590   2.11630   2.11763
 Alpha virt. eigenvalues --    2.12115   2.12354   2.12701   2.12715   2.12745
 Alpha virt. eigenvalues --    2.13007   2.13096   2.13640   2.13990   2.14083
 Alpha virt. eigenvalues --    2.14353   2.15237   2.15571   2.15806   2.16314
 Alpha virt. eigenvalues --    2.16449   2.16629   2.16811   2.17319   2.17354
 Alpha virt. eigenvalues --    2.17618   2.17750   2.17990   2.18106   2.18167
 Alpha virt. eigenvalues --    2.18270   2.18730   2.18875   2.19485   2.19526
 Alpha virt. eigenvalues --    2.19928   2.20069   2.20090   2.20434   2.20692
 Alpha virt. eigenvalues --    2.21120   2.21271   2.21563   2.21599   2.21955
 Alpha virt. eigenvalues --    2.22036   2.22597   2.22945   2.23233   2.23488
 Alpha virt. eigenvalues --    2.24309   2.24554   2.24938   2.25127   2.26155
 Alpha virt. eigenvalues --    2.26649   2.26692   2.26966   2.27187   2.27406
 Alpha virt. eigenvalues --    2.28037   2.28616   2.29182   2.29614   2.29672
 Alpha virt. eigenvalues --    2.30115   2.30333   2.30853   2.30929   2.31032
 Alpha virt. eigenvalues --    2.31070   2.31379   2.32048   2.32381   2.33009
 Alpha virt. eigenvalues --    2.33357   2.33477   2.33631   2.34079   2.34314
 Alpha virt. eigenvalues --    2.35198   2.35471   2.35687   2.36183   2.36314
 Alpha virt. eigenvalues --    2.36514   2.36522   2.36568   2.37601   2.37815
 Alpha virt. eigenvalues --    2.38182   2.38520   2.38730   2.39077   2.39502
 Alpha virt. eigenvalues --    2.39858   2.40115   2.40365   2.40384   2.41092
 Alpha virt. eigenvalues --    2.41147   2.41463   2.41632   2.41837   2.41874
 Alpha virt. eigenvalues --    2.42313   2.42902   2.42924   2.43210   2.43276
 Alpha virt. eigenvalues --    2.44036   2.44163   2.44623   2.44797   2.44988
 Alpha virt. eigenvalues --    2.45205   2.45445   2.45757   2.46197   2.46357
 Alpha virt. eigenvalues --    2.46471   2.46658   2.46664   2.46990   2.47148
 Alpha virt. eigenvalues --    2.47506   2.47620   2.48030   2.49244   2.49502
 Alpha virt. eigenvalues --    2.50020   2.50025   2.50507   2.50625   2.50985
 Alpha virt. eigenvalues --    2.51475   2.51762   2.51785   2.52306   2.52618
 Alpha virt. eigenvalues --    2.52702   2.53435   2.53832   2.54062   2.54142
 Alpha virt. eigenvalues --    2.54374   2.54688   2.54938   2.55417   2.55813
 Alpha virt. eigenvalues --    2.57767   2.58252   2.58566   2.59101   2.60050
 Alpha virt. eigenvalues --    2.60501   2.60513   2.61197   2.61624   2.61998
 Alpha virt. eigenvalues --    2.62424   2.62623   2.62844   2.63301   2.63832
 Alpha virt. eigenvalues --    2.64212   2.64465   2.64525   2.64990   2.65274
 Alpha virt. eigenvalues --    2.65666   2.66113   2.66717   2.66830   2.66965
 Alpha virt. eigenvalues --    2.67309   2.67825   2.68182   2.68737   2.68890
 Alpha virt. eigenvalues --    2.68975   2.69228   2.69333   2.69809   2.69909
 Alpha virt. eigenvalues --    2.70306   2.70871   2.71291   2.71896   2.72045
 Alpha virt. eigenvalues --    2.72490   2.72627   2.72638   2.72963   2.73227
 Alpha virt. eigenvalues --    2.73271   2.73399   2.73607   2.74391   2.74660
 Alpha virt. eigenvalues --    2.74847   2.75230   2.76510   2.76671   2.77086
 Alpha virt. eigenvalues --    2.77220   2.77348   2.77775   2.78090   2.78420
 Alpha virt. eigenvalues --    2.78578   2.78823   2.79023   2.79346   2.80202
 Alpha virt. eigenvalues --    2.80394   2.80420   2.80859   2.80957   2.81290
 Alpha virt. eigenvalues --    2.81805   2.82154   2.82250   2.82492   2.83577
 Alpha virt. eigenvalues --    2.83670   2.83978   2.84043   2.84440   2.84651
 Alpha virt. eigenvalues --    2.84808   2.84982   2.85577   2.85811   2.86770
 Alpha virt. eigenvalues --    2.86856   2.87319   2.87408   2.88051   2.88358
 Alpha virt. eigenvalues --    2.88406   2.88774   2.88826   2.88999   2.90400
 Alpha virt. eigenvalues --    2.90855   2.91133   2.91225   2.93037   2.93525
 Alpha virt. eigenvalues --    2.93949   2.94114   2.94492   2.94670   2.95246
 Alpha virt. eigenvalues --    2.95744   2.95970   2.95996   2.96370   2.96512
 Alpha virt. eigenvalues --    2.96980   2.97017   2.97651   2.98097   2.98145
 Alpha virt. eigenvalues --    2.98263   2.98467   2.98580   2.98771   2.98785
 Alpha virt. eigenvalues --    2.98974   2.99085   2.99544   2.99836   2.99903
 Alpha virt. eigenvalues --    3.00111   3.00178   3.00330   3.00481   3.01230
 Alpha virt. eigenvalues --    3.01910   3.01943   3.02081   3.02350   3.02516
 Alpha virt. eigenvalues --    3.02855   3.02947   3.03243   3.03552   3.03990
 Alpha virt. eigenvalues --    3.04120   3.04310   3.04322   3.04502   3.04596
 Alpha virt. eigenvalues --    3.04871   3.05250   3.05472   3.06027   3.06274
 Alpha virt. eigenvalues --    3.06689   3.07175   3.08056   3.08088   3.09280
 Alpha virt. eigenvalues --    3.09425   3.09594   3.10343   3.10711   3.10998
 Alpha virt. eigenvalues --    3.11286   3.11524   3.11799   3.11964   3.12186
 Alpha virt. eigenvalues --    3.12555   3.13162   3.13579   3.13786   3.13856
 Alpha virt. eigenvalues --    3.13869   3.14609   3.15917   3.16052   3.17134
 Alpha virt. eigenvalues --    3.17655   3.17957   3.17997   3.19034   3.19148
 Alpha virt. eigenvalues --    3.22042   3.22724   3.23820   3.24485   3.24578
 Alpha virt. eigenvalues --    3.25316   3.26387   3.26806   3.27501   3.27548
 Alpha virt. eigenvalues --    3.28818   3.29341   3.31398   3.31527   3.33313
 Alpha virt. eigenvalues --    3.33341   3.40327   3.40373   3.42717   3.42929
 Alpha virt. eigenvalues --    3.48507   3.48827   3.49920   3.50451   3.51008
 Alpha virt. eigenvalues --    3.51369   3.56444   3.57135   3.59015   3.59464
 Alpha virt. eigenvalues --    3.62645   3.62699   3.66085   3.66182   3.66905
 Alpha virt. eigenvalues --    3.67658   3.73004   3.74132   3.75817   3.76789
          Condensed to atoms (all electrons):
 Mulliken charges:
               1
     1  Mg   0.838978
     2  C   -0.003871
     3  C   -0.093766
     4  C   -0.045573
     5  C   -0.063758
     6  N   -0.256923
     7  C   -0.052459
     8  C   -0.014177
     9  C   -0.087128
    10  C    0.046532
    11  C    0.104693
    12  C    0.053407
    13  C   -0.071429
    14  H    0.034050
    15  N   -0.433237
    16  C    0.168852
    17  C   -0.176765
    18  C   -0.003798
    19  C    0.149021
    20  C    0.110032
    21  C    0.012122
    22  O   -0.249231
    23  C    0.062427
    24  N   -0.341265
    25  C    0.041664
    26  C   -0.028308
    27  C   -0.024092
    28  C    0.075023
    29  C    0.076054
    30  C    0.034963
    31  C   -0.004920
    32  N   -0.310117
    33  C    0.079872
    34  C   -0.170643
    35  C    0.007655
    36  C    0.082241
    37  C    0.127600
    38  C    0.044612
    39  O   -0.189740
    40  C   -0.004883
    41  C    0.213248
    42  O   -0.260407
    43  O   -0.303844
    44  C    0.158390
    45  H   -0.017217
    46  H   -0.016376
    47  H   -0.041051
    48  H    0.000762
    49  H   -0.003576
    50  H    0.025446
    51  H    0.016740
    52  H    0.017040
    53  H    0.012413
    54  H    0.042270
    55  H    0.018216
    56  H    0.019136
    57  H    0.006317
    58  H    0.027144
    59  H    0.040200
    60  H    0.037835
    61  H    0.035613
    62  H    0.031237
    63  H    0.017087
    64  H    0.009658
    65  H    0.023712
    66  H    0.012329
    67  H    0.005117
    68  H    0.007460
    69  H    0.004996
    70  H    0.008905
    71  H    0.020789
    72  H    0.027632
    73  H    0.045984
    74  H    0.009770
    75  H    0.046386
    76  H    0.035635
    77  H    0.043377
    78  H    0.047065
    79  H    0.050827
    80  Mg   0.837391
    81  C   -0.016944
    82  C   -0.086502
    83  C   -0.046459
    84  C   -0.064918
    85  N   -0.254951
    86  C   -0.049175
    87  C   -0.015248
    88  C   -0.090151
    89  C    0.044637
    90  C    0.113275
    91  C    0.062398
    92  C   -0.077548
    93  H    0.033160
    94  N   -0.423647
    95  C    0.162372
    96  C   -0.173195
    97  C   -0.008924
    98  C    0.152787
    99  C    0.099286
   100  C    0.015005
   101  O   -0.254546
   102  C    0.061456
   103  N   -0.350181
   104  C    0.037558
   105  C   -0.019568
   106  C   -0.035020
   107  C    0.088723
   108  C    0.074160
   109  C    0.034966
   110  C   -0.007533
   111  N   -0.323980
   112  C    0.078051
   113  C   -0.163483
   114  C    0.001871
   115  C    0.096095
   116  C    0.131650
   117  C    0.041551
   118  O   -0.189232
   119  C    0.001375
   120  C    0.211306
   121  O   -0.251211
   122  O   -0.305598
   123  C    0.152201
   124  H   -0.013565
   125  H   -0.017067
   126  H   -0.040828
   127  H   -0.000775
   128  H   -0.003869
   129  H    0.019558
   130  H    0.018535
   131  H    0.025677
   132  H    0.013519
   133  H    0.036583
   134  H    0.021738
   135  H    0.020164
   136  H    0.011225
   137  H    0.025864
   138  H    0.038755
   139  H    0.037878
   140  H    0.035272
   141  H    0.034076
   142  H    0.013841
   143  H    0.012684
   144  H    0.023421
   145  H    0.010880
   146  H    0.004579
   147  H    0.005202
   148  H    0.003785
   149  H    0.010403
   150  H    0.017555
   151  H    0.030631
   152  H    0.045297
   153  H    0.008350
   154  H    0.046533
   155  H    0.034393
   156  H    0.043151
   157  H    0.050114
   158  H    0.053198
 Sum of Mulliken charges =  -0.00000
 Mulliken charges with hydrogens summed into heavy atoms:
               1
     1  Mg   0.838978
     2  C   -0.003871
     3  C   -0.110983
     4  C   -0.061949
     5  C   -0.104809
     6  N   -0.256923
     7  C   -0.052459
     8  C   -0.013415
     9  C   -0.090704
    10  C    0.046532
    11  C    0.163919
    12  C    0.108090
    13  C   -0.000026
    15  N   -0.433237
    16  C    0.168852
    17  C   -0.176765
    18  C   -0.003798
    19  C    0.149021
    20  C    0.183693
    21  C    0.012122
    22  O   -0.249231
    23  C    0.167113
    24  N   -0.341265
    25  C    0.041664
    26  C   -0.011222
    27  C   -0.014434
    28  C    0.075023
    29  C    0.117212
    30  C    0.047420
    31  C    0.052406
    32  N   -0.310117
    33  C    0.079872
    34  C   -0.170643
    35  C    0.007655
    36  C    0.082241
    37  C    0.229740
    38  C    0.044612
    39  O   -0.189740
    40  C    0.030752
    41  C    0.213248
    42  O   -0.260407
    43  O   -0.303844
    44  C    0.299658
    80  Mg   0.837391
    81  C   -0.016944
    82  C   -0.100068
    83  C   -0.063525
    84  C   -0.105746
    85  N   -0.254951
    86  C   -0.049175
    87  C   -0.016023
    88  C   -0.094019
    89  C    0.044637
    90  C    0.177045
    91  C    0.112500
    92  C   -0.002485
    94  N   -0.423647
    95  C    0.162372
    96  C   -0.173195
    97  C   -0.008924
    98  C    0.152787
    99  C    0.175129
   100  C    0.015005
   101  O   -0.254546
   102  C    0.168682
   103  N   -0.350181
   104  C    0.037558
   105  C   -0.005727
   106  C   -0.022336
   107  C    0.088723
   108  C    0.113040
   109  C    0.043953
   110  C    0.051056
   111  N   -0.323980
   112  C    0.078051
   113  C   -0.163483
   114  C    0.001871
   115  C    0.096095
   116  C    0.231829
   117  C    0.041551
   118  O   -0.189232
   119  C    0.035768
   120  C    0.211306
   121  O   -0.251211
   122  O   -0.305598
   123  C    0.298665
 Electronic spatial extent (au):  <R**2>=          97988.3629
 Charge=             -0.0000 electrons
 Dipole moment (field-independent basis, Debye):
    X=             -5.5419    Y=              0.2553    Z=              4.3571  Tot=              7.0543
 Quadrupole moment (field-independent basis, Debye-Ang):
   XX=           -519.4054   YY=           -499.1314   ZZ=           -501.1693
   XY=            -24.2993   XZ=             -2.9149   YZ=             -2.3440
 Traceless Quadrupole moment (field-independent basis, Debye-Ang):
   XX=            -12.8367   YY=              7.4373   ZZ=              5.3994
   XY=            -24.2993   XZ=             -2.9149   YZ=             -2.3440
 Octapole moment (field-independent basis, Debye-Ang**2):
  XXX=           -430.9819  YYY=             61.7496  ZZZ=            -80.1365  XYY=            279.1376
  XXY=             35.8315  XXZ=            250.4349  XZZ=           -258.1375  YZZ=           -254.9853
  YYZ=            157.3729  XYZ=            -18.3985
 Hexadecapole moment (field-independent basis, Debye-Ang**3):
 XXXX=         -68517.0060 YYYY=         -33809.1624 ZZZZ=         -32883.5830 XXXY=           -623.1962
 XXXZ=           -280.9430 YYYX=           -574.9228 YYYZ=            473.8822 ZZZX=            153.8752
 ZZZY=           -951.3608 XXYY=         -15994.7857 XXZZ=         -16638.9836 YYZZ=         -10371.5050
 XXYZ=            416.9197 YYXZ=          -1217.9115 ZZXY=           -582.0488
 N-N= 1.548475279024D+04 E-N=-4.045059371089D+04  KE= 4.028801554035D+03
 Leave Link  601 at Fri Sep 10 08:22:00 2021, MaxMem= 23488102400 cpu:              19.1 elap:               0.9
 (Enter /sw/apps/gaussian-16.0/g16/l9999.exe)
 1\1\GINC-BP1-COMPUTE00084\SP\RCAM-B3LYP TD-FC\def2SVP\C68H72Mg2N8O8\OF
 15641\10-Sep-2021\0\\#p cam-b3lyp/Def2SVP td=(nstates=5)\\TDDFT excite
 d states in gaussian\\0,1\Mg,0,0.,0.,0.\C,0,-0.217,-2.218,2.801\C,0,-1
 .255,2.442,2.026\C,0,-0.245,1.85,-2.564\C,0,0.146,-2.824,-2.037\N,0,-0
 .617,-0.009,2.126\C,0,-0.594,-0.908,3.105\C,0,-0.936,-0.309,4.502\C,0,
 -1.773,0.964,4.032\C,0,-1.155,1.168,2.66\C,0,-3.263,0.685,3.863\C,0,0.
 345,0.11,5.299\C,0,0.124,0.397,6.787\H,0,1.168,0.033,7.733\N,0,-0.185,
 1.961,-0.152\C,0,-0.703,2.8,0.777\C,0,-0.62,4.156,0.193\C,0,-0.187,4.0
 15,-1.225\C,0,-0.214,2.583,-1.38\C,0,-0.887,5.406,0.974\C,0,0.181,5.01
 3,-2.277\O,0,0.303,4.69,-3.508\C,0,0.31,6.414,-1.837\N,0,-0.265,-0.413
 ,-2.029\C,0,-0.279,0.569,-2.937\C,0,-0.196,0.024,-4.332\C,0,0.124,-1.5
 33,-4.18\C,0,0.086,-1.632,-2.635\C,0,-1.451,0.205,-5.197\C,0,1.373,-2.
 07,-4.923\C,0,2.626,-1.49,-4.306\N,0,0.15,-2.144,0.303\C,0,0.173,-3.13
 6,-0.688\C,0,0.173,-4.438,0.004\C,0,0.133,-4.111,1.358\C,0,0.083,-2.69
 5,1.502\C,0,0.149,-5.715,-0.623\C,0,0.096,-4.629,2.716\O,0,0.208,-5.74
 7,3.221\C,0,-0.255,-3.428,3.701\C,0,0.717,-3.482,4.848\O,0,1.931,-3.25
 5,4.669\O,0,0.038,-3.556,6.003\C,0,0.943,-3.583,7.183\H,0,-1.859,3.22,
 2.497\H,0,-0.218,2.453,-3.474\H,0,0.276,-3.747,-2.605\H,0,-1.554,-0.94
 9,5.132\H,0,-1.585,1.831,4.665\H,0,-3.484,-0.377,3.969\H,0,-3.511,1.02
 7,2.858\H,0,-3.852,1.301,4.543\H,0,0.669,1.096,4.966\H,0,1.13,-0.639,5
 .189\H,0,-0.844,0.026,7.125\H,0,0.062,1.477,6.921\H,0,-1.344,5.186,1.9
 38\H,0,-1.651,5.963,0.432\H,0,0.007,6.02,1.084\H,0,-0.635,6.744,-1.405
 \H,0,0.665,6.97,-2.704\H,0,1.048,6.466,-1.036\H,0,0.608,0.501,-4.891\H
 ,0,-0.692,-2.156,-4.547\H,0,-1.267,0.74,-6.129\H,0,-2.204,0.714,-4.596
 \H,0,-1.967,-0.72,-5.453\H,0,1.356,-1.759,-5.967\H,0,1.452,-3.157,-4.9
 02\H,0,2.714,-0.522,-4.798\H,0,3.487,-2.121,-4.529\H,0,2.495,-1.303,-3
 .24\H,0,0.867,-6.333,-0.084\H,0,0.404,-5.642,-1.68\H,0,-0.891,-5.999,-
 0.463\H,0,-1.283,-3.581,4.028\H,0,0.698,-4.478,7.755\H,0,0.833,-2.619,
 7.68\H,0,2.,-3.754,6.976\Mg,0,8.94169,0.79849,0.68343\C,0,9.15598,-1.9
 9087,-1.56437\C,0,8.07343,-1.42394,3.12095\C,0,8.30695,3.26861,2.57104
 \C,0,8.69984,2.85868,-2.11708\N,0,8.68232,-1.39795,0.65895\C,0,8.85085
 ,-2.35853,-0.23729\C,0,8.76197,-3.79759,0.33783\C,0,7.87008,-3.48319,1
 .63573\C,0,8.25356,-2.02001,1.84724\C,0,6.37543,-3.55158,1.36983\C,0,1
 0.16802,-4.37151,0.73236\C,0,10.19366,-5.87622,1.00973\H,0,11.38031,-6
 .63493,0.62414\N,0,8.76682,0.89432,2.65797\C,0,8.4283,-0.10909,3.49455
 \C,0,8.41865,0.47773,4.84351\C,0,8.61797,1.94711,4.71728\C,0,8.54935,2
 .09973,3.27781\C,0,8.31219,-0.35098,6.09064\C,0,8.8221,3.0366,5.726\O,
 0,8.73581,4.27487,5.40648\C,0,9.03347,2.61076,7.11722\N,0,8.34679,2.75
 261,0.29629\C,0,8.19137,3.63878,1.29553\C,0,8.03084,5.04171,0.76038\C,
 0,8.35406,4.94484,-0.80286\C,0,8.56782,3.41997,-0.92306\C,0,6.65365,5.
 67508,0.95676\C,0,9.4556,5.89133,-1.35374\C,0,10.80276,5.49725,-0.7922
 7\N,0,9.11164,0.54245,-1.45517\C,0,8.94923,1.533,-2.44841\C,0,9.045,0.
 85617,-3.75805\C,0,9.23501,-0.49544,-3.43318\C,0,9.23597,-0.65296,-2.0
 2084\C,0,8.90895,1.48144,-5.02952\C,0,9.42436,-1.82628,-3.96393\O,0,9.
 59438,-2.29724,-5.08778\C,0,9.25515,-2.8718,-2.77876\C,0,10.40206,-3.8
 425,-2.8484\O,0,11.56779,-3.459,-2.64689\O,0,9.91555,-5.09461,-2.92519
 \C,0,11.01519,-6.09411,-2.98525\H,0,7.57455,-2.00274,3.89877\H,0,8.191
 8,4.17052,3.17666\H,0,8.73261,3.44547,-3.03756\H,0,8.25286,-4.51077,-0
 .29931\H,0,8.18211,-4.08572,2.48482\H,0,6.1586,-3.68481,0.32037\H,0,5.
 97043,-2.6125,1.7236\H,0,5.91776,-4.32916,1.98809\H,0,10.44367,-3.9927
 6,1.72499\H,0,10.90117,-4.12875,-0.01207\H,0,9.28503,-6.37659,0.65338\
 H,0,10.17764,-6.03001,2.09144\H,0,8.01122,-1.38134,5.86445\H,0,7.47778
 ,0.05401,6.6734\H,0,9.21846,-0.31495,6.69895\H,0,8.18017,2.02396,7.448
 87\H,0,9.24905,3.52525,7.6732\H,0,9.90442,1.94677,7.15136\H,0,8.73979,
 5.7162,1.22468\H,0,7.47437,5.18819,-1.41667\H,0,6.6886,6.63326,1.50879
 \H,0,6.0207,4.9634,1.47001\H,0,6.09609,5.86134,0.04044\H,0,9.27127,6.9
 1763,-1.02681\H,0,9.51225,5.9037,-2.43708\H,0,10.81659,5.98973,0.18464
 \H,0,11.60525,5.86263,-1.42988\H,0,10.85531,4.41638,-0.61732\H,0,9.689
 27,1.07704,-5.66044\H,0,8.98203,2.56408,-4.95002\H,0,7.90051,1.15682,-
 5.2996\H,0,8.29202,-3.36579,-2.91269\H,0,10.85192,-6.69506,-3.88519\H,
 0,10.99069,-6.62393,-2.01446\H,0,12.01944,-5.72469,-3.15695\\Version=E
 S64L-G16RevA.03\State=1-A\HF=-4069.8128202\RMSD=4.719e-09\PG=C01 [X(C6
 8H72Mg2N8O8)]\\@


 MAN IS THE MEASURE OF ALL THINGS.
  -- PROTAGORAS (5TH CENTURY B.C.)
 Job cpu time:       0 days 15 hours 26 minutes 41.4 seconds.
 Elapsed time:       0 days  0 hours 39 minutes 17.6 seconds.
 File lengths (MBytes):  RWF=  13225 Int=      0 D2E=      0 Chk=    574 Scr=      1
 Normal termination of Gaussian 16 at Fri Sep 10 08:22:00 2021.
