 Entering Gaussian System, Link 0=g16
 Initial command:
 /sw/apps/gaussian-16.0/g16/l1.exe "/tmp/Gau-195436.inp" -scrdir="/tmp/"
 Entering Link 1 = /sw/apps/gaussian-16.0/g16/l1.exe PID=    195437.
  
 Copyright (c) 1988,1990,1992,1993,1995,1998,2003,2009,2016,
            Gaussian, Inc.  All Rights Reserved.
  
 This is part of the Gaussian(R) 16 program.  It is based on
 the Gaussian(R) 09 system (copyright 2009, Gaussian, Inc.),
 the Gaussian(R) 03 system (copyright 2003, Gaussian, Inc.),
 the Gaussian(R) 98 system (copyright 1998, Gaussian, Inc.),
 the Gaussian(R) 94 system (copyright 1995, Gaussian, Inc.),
 the Gaussian 92(TM) system (copyright 1992, Gaussian, Inc.),
 the Gaussian 90(TM) system (copyright 1990, Gaussian, Inc.),
 the Gaussian 88(TM) system (copyright 1988, Gaussian, Inc.),
 the Gaussian 86(TM) system (copyright 1986, Carnegie Mellon
 University), and the Gaussian 82(TM) system (copyright 1983,
 Carnegie Mellon University). Gaussian is a federally registered
 trademark of Gaussian, Inc.
  
 This software contains proprietary and confidential information,
 including trade secrets, belonging to Gaussian, Inc.
  
 This software is provided under written license and may be
 used, copied, transmitted, or stored only in accord with that
 written license.
  
 The following legend is applicable only to US Government
 contracts under FAR:
  
                    RESTRICTED RIGHTS LEGEND
  
 Use, reproduction and disclosure by the US Government is
 subject to restrictions as set forth in subparagraphs (a)
 and (c) of the Commercial Computer Software - Restricted
 Rights clause in FAR 52.227-19.
  
 Gaussian, Inc.
 340 Quinnipiac St., Bldg. 40, Wallingford CT 06492
  
  
 ---------------------------------------------------------------
 Warning -- This program may not be used in any manner that
 competes with the business of Gaussian, Inc. or will provide
 assistance to any competitor of Gaussian, Inc.  The licensee
 of this program is prohibited from giving any competitor of
 Gaussian, Inc. access to this program.  By using this program,
 the user acknowledges that Gaussian, Inc. is engaged in the
 business of creating and licensing software in the field of
 computational chemistry and represents and warrants to the
 licensee that it is not a competitor of Gaussian, Inc. and that
 it will not use this program in any manner prohibited above.
 ---------------------------------------------------------------
  

 Cite this work as:
 Gaussian 16, Revision A.03,
 M. J. Frisch, G. W. Trucks, H. B. Schlegel, G. E. Scuseria, 
 M. A. Robb, J. R. Cheeseman, G. Scalmani, V. Barone, 
 G. A. Petersson, H. Nakatsuji, X. Li, M. Caricato, A. V. Marenich, 
 J. Bloino, B. G. Janesko, R. Gomperts, B. Mennucci, H. P. Hratchian, 
 J. V. Ortiz, A. F. Izmaylov, J. L. Sonnenberg, D. Williams-Young, 
 F. Ding, F. Lipparini, F. Egidi, J. Goings, B. Peng, A. Petrone, 
 T. Henderson, D. Ranasinghe, V. G. Zakrzewski, J. Gao, N. Rega, 
 G. Zheng, W. Liang, M. Hada, M. Ehara, K. Toyota, R. Fukuda, 
 J. Hasegawa, M. Ishida, T. Nakajima, Y. Honda, O. Kitao, H. Nakai, 
 T. Vreven, K. Throssell, J. A. Montgomery, Jr., J. E. Peralta, 
 F. Ogliaro, M. J. Bearpark, J. J. Heyd, E. N. Brothers, K. N. Kudin, 
 V. N. Staroverov, T. A. Keith, R. Kobayashi, J. Normand, 
 K. Raghavachari, A. P. Rendell, J. C. Burant, S. S. Iyengar, 
 J. Tomasi, M. Cossi, J. M. Millam, M. Klene, C. Adamo, R. Cammi, 
 J. W. Ochterski, R. L. Martin, K. Morokuma, O. Farkas, 
 J. B. Foresman, and D. J. Fox, Gaussian, Inc., Wallingford CT, 2016.
 
 ******************************************
 Gaussian 16:  ES64L-G16RevA.03 25-Dec-2016
                11-Sep-2021 
 ******************************************
 %nproc=24
 Will use up to   24 processors via shared memory.
 %mem=175gb
 -----------------------------------
 #p cam-b3lyp/Def2SVP td=(nstates=5)
 -----------------------------------
 1/38=1,172=1/1;
 2/12=2,17=6,18=5,40=1/2;
 3/5=43,7=101,11=9,25=1,30=1,74=-40/1,2,3,8;
 4//1;
 5/5=2,38=5/2;
 8/6=1,10=1,108=5/1;
 9/41=5,42=1,70=2/14;
 6/7=2,8=2,9=2,10=2/1;
 99/5=1,9=1/99;
 Leave Link    1 at Sat Sep 11 00:02:15 2021, MaxMem= 23488102400 cpu:               0.9 elap:               0.0
 (Enter /sw/apps/gaussian-16.0/g16/l101.exe)
 --------------------------------
 TDDFT excited states in gaussian
 --------------------------------
 Symbolic Z-matrix:
 Charge =  0 Multiplicity = 1
 Mg                    0.        0.        0. 
 C                    -0.217    -2.218     2.801 
 C                    -1.255     2.442     2.026 
 C                    -0.245     1.85     -2.564 
 C                     0.146    -2.824    -2.037 
 N                    -0.617    -0.009     2.126 
 C                    -0.594    -0.908     3.105 
 C                    -0.936    -0.309     4.502 
 C                    -1.773     0.964     4.032 
 C                    -1.155     1.168     2.66 
 C                    -3.263     0.685     3.863 
 C                     0.345     0.11      5.299 
 C                     0.124     0.397     6.787 
 H                     1.168     0.033     7.733 
 N                    -0.185     1.961    -0.152 
 C                    -0.703     2.8       0.777 
 C                    -0.62      4.156     0.193 
 C                    -0.187     4.015    -1.225 
 C                    -0.214     2.583    -1.38 
 C                    -0.887     5.406     0.974 
 C                     0.181     5.013    -2.277 
 O                     0.303     4.69     -3.508 
 C                     0.31      6.414    -1.837 
 N                    -0.265    -0.413    -2.029 
 C                    -0.279     0.569    -2.937 
 C                    -0.196     0.024    -4.332 
 C                     0.124    -1.533    -4.18 
 C                     0.086    -1.632    -2.635 
 C                    -1.451     0.205    -5.197 
 C                     1.373    -2.07     -4.923 
 C                     2.626    -1.49     -4.306 
 N                     0.15     -2.144     0.303 
 C                     0.173    -3.136    -0.688 
 C                     0.173    -4.438     0.004 
 C                     0.133    -4.111     1.358 
 C                     0.083    -2.695     1.502 
 C                     0.149    -5.715    -0.623 
 C                     0.096    -4.629     2.716 
 O                     0.208    -5.747     3.221 
 C                    -0.255    -3.428     3.701 
 C                     0.717    -3.482     4.848 
 O                     1.931    -3.255     4.669 
 O                     0.038    -3.556     6.003 
 C                     0.943    -3.583     7.183 
 H                    -1.859     3.22      2.497 
 H                    -0.218     2.453    -3.474 
 H                     0.276    -3.747    -2.605 
 H                    -1.554    -0.949     5.132 
 H                    -1.585     1.831     4.665 
 H                    -3.484    -0.377     3.969 
 H                    -3.511     1.027     2.858 
 H                    -3.852     1.301     4.543 
 H                     0.669     1.096     4.966 
 H                     1.13     -0.639     5.189 
 H                    -0.844     0.026     7.125 
 H                     0.062     1.477     6.921 
 H                    -1.344     5.186     1.938 
 H                    -1.651     5.963     0.432 
 H                     0.007     6.02      1.084 
 H                    -0.635     6.744    -1.405 
 H                     0.665     6.97     -2.704 
 H                     1.048     6.466    -1.036 
 H                     0.608     0.501    -4.891 
 H                    -0.692    -2.156    -4.547 
 H                    -1.267     0.74     -6.129 
 H                    -2.204     0.714    -4.596 
 H                    -1.967    -0.72     -5.453 
 H                     1.356    -1.759    -5.967 
 H                     1.452    -3.157    -4.902 
 H                     2.714    -0.522    -4.798 
 H                     3.487    -2.121    -4.529 
 H                     2.495    -1.303    -3.24 
 H                     0.867    -6.333    -0.084 
 H                     0.404    -5.642    -1.68 
 H                    -0.891    -5.999    -0.463 
 H                    -1.283    -3.581     4.028 
 H                     0.698    -4.478     7.755 
 H                     0.833    -2.619     7.68 
 H                     2.       -3.754     6.976 
 Mg                    10.51775   0.94416   0.80621 
 C                     10.64484  -2.63879   0.64693 
 C                     9.42031   0.61337   4.01881 
 C                     9.96538   4.06851   0.83418 
 C                     10.51192   0.96029  -2.67882 
 N                     10.12379  -0.83532   2.0594 
 C                     10.26673  -2.14388   1.91245 
 C                     10.06673  -2.96311   3.21568 
 C                     9.14685  -1.91901   4.01727 
 C                     9.61194  -0.62418   3.3541 
 C                     7.66216  -2.0901    3.742 
 C                     11.41829  -3.23191   3.96606 
 C                     11.33987  -4.28297   5.07551 
 H                     12.49113  -5.15523   5.29056 
 N                     10.27342   2.19155   2.33032 
 C                     9.84143   1.88497   3.57155 
 C                     9.81638   3.15479   4.3139 
 C                     10.11114   4.26035   3.3623 
 C                     10.10748   3.53587   2.10723 
 C                     9.61088   3.22508   5.79925 
 C                     10.34355   5.72909   3.5494 
 O                     10.34656   6.54195   2.55841 
 C                     10.47449   6.20073   4.93573 
 N                     10.06051   2.30865  -0.69428 
 C                     9.92208   3.6176   -0.41966 
 C                     9.86955   4.43811  -1.68631 
 C                     10.24596   3.42854  -2.86811 
 C                     10.3692   2.12143  -2.05468 
 C                     8.52776   5.10281  -1.99317 
 C                     11.42443   3.83686  -3.79394 
 C                     12.72198   3.81329  -3.01859 
 N                     10.75354  -0.52918  -0.75639 
 C                     10.69116  -0.31168  -2.15027 
 C                     10.79502  -1.63328  -2.80221 
 C                     10.8882  -2.53728  -1.73329 
 C                     10.82513  -1.83092  -0.5018 
 C                     10.74696  -1.87542  -4.20405 
 C                     11.0149  -3.92947  -1.36658 
 O                     11.19844  -4.97735  -1.98464 
 C                     10.73576  -4.06894   0.19195 
 C                     11.82209  -4.9247    0.78363 
 O                     13.00076  -4.52835   0.79962 
 O                     11.26217  -5.96691   1.42447 
 C                     12.2992  -6.83895   2.0376 
 H                     8.85698   0.6191    4.95235 
 H                     9.88321   5.15676   0.78486 
 H                     10.61637   0.8896   -3.76361 
 H                     9.53923  -3.90056   3.0865 
 H                     9.38806  -1.91262   5.07705 
 H                     7.47797  -2.81099   2.95935 
 H                     7.3029   -1.11254   3.44815 
 H                     7.13373  -2.34005   4.66645 
 H                     11.67855  -2.34809   4.56261 
 H                     12.19314  -3.49549   3.2727 
 H                     10.41632  -4.87204   5.02072 
 H                     11.2728  -3.76824   6.03706 
 H                     9.2555    2.26852   6.20188 
 H                     8.78143   3.91865   5.97483 
 H                     10.4936   3.58827   6.32988 
 H                     9.57433   5.94642   5.49025 
 H                     10.72485   7.26076   4.86136 
 H                     11.30063   5.66126   5.41225 
 H                     10.6006   5.23685  -1.66026 
 H                     9.40729   3.28678  -3.56551 
 H                     8.60083   6.20072  -2.10862 
 H                     7.83263   4.84887  -1.20396 
 H                     8.01845   4.72762  -2.87919 
 H                     11.29169   4.8629   -4.14575 
 H                     11.52332   3.20595  -4.67096 
 H                     12.72879   4.78678  -2.51923 
 H                     13.5695   3.70979  -3.69315 
 H                     12.70063   3.04303  -2.23892 
 H                     11.52436  -2.59545  -4.42246 
 H                     10.88394  -0.95701  -4.77109 
 H                     9.73145  -2.26905  -4.29929 
 H                     9.74971  -4.52012   0.30906 
 H                     12.13366  -7.85043   1.65394 
 H                     12.2046  -6.69283   3.13005 
 H                     13.33027  -6.66977   1.74999 
 
 ITRead=  0  0  0  0  0  0  0  0  0  0  0  0  0  0  0  0  0  0  0  0
 ITRead=  0  0  0  0  0  0  0  0  0  0  0  0  0  0  0  0  0  0  0  0
 ITRead=  0  0  0  0  0  0  0  0  0  0  0  0  0  0  0  0  0  0  0  0
 ITRead=  0  0  0  0  0  0  0  0  0  0  0  0  0  0  0  0  0  0  0  0
 ITRead=  0  0  0  0  0  0  0  0  0  0  0  0  0  0  0  0  0  0  0  0
 ITRead=  0  0  0  0  0  0  0  0  0  0  0  0  0  0  0  0  0  0  0  0
 ITRead=  0  0  0  0  0  0  0  0  0  0  0  0  0  0  0  0  0  0  0  0
 ITRead=  0  0  0  0  0  0  0  0  0  0  0  0  0  0  0  0  0  0
 MicOpt= -1 -1 -1 -1 -1 -1 -1 -1 -1 -1 -1 -1 -1 -1 -1 -1 -1 -1 -1 -1
 MicOpt= -1 -1 -1 -1 -1 -1 -1 -1 -1 -1 -1 -1 -1 -1 -1 -1 -1 -1 -1 -1
 MicOpt= -1 -1 -1 -1 -1 -1 -1 -1 -1 -1 -1 -1 -1 -1 -1 -1 -1 -1 -1 -1
 MicOpt= -1 -1 -1 -1 -1 -1 -1 -1 -1 -1 -1 -1 -1 -1 -1 -1 -1 -1 -1 -1
 MicOpt= -1 -1 -1 -1 -1 -1 -1 -1 -1 -1 -1 -1 -1 -1 -1 -1 -1 -1 -1 -1
 MicOpt= -1 -1 -1 -1 -1 -1 -1 -1 -1 -1 -1 -1 -1 -1 -1 -1 -1 -1 -1 -1
 MicOpt= -1 -1 -1 -1 -1 -1 -1 -1 -1 -1 -1 -1 -1 -1 -1 -1 -1 -1 -1 -1
 MicOpt= -1 -1 -1 -1 -1 -1 -1 -1 -1 -1 -1 -1 -1 -1 -1 -1 -1 -1
 NAtoms=    158 NQM=      158 NQMF=       0 NMMI=      0 NMMIF=      0
                NMic=       0 NMicF=      0.
                    Isotopes and Nuclear Properties:
 (Nuclear quadrupole moments (NQMom) in fm**2, nuclear magnetic moments (NMagM)
  in nuclear magnetons)

  Atom         1           2           3           4           5           6           7           8           9          10
 IAtWgt=          24          12          12          12          12          14          12          12          12          12
 AtmWgt=  23.9850450  12.0000000  12.0000000  12.0000000  12.0000000  14.0030740  12.0000000  12.0000000  12.0000000  12.0000000
 NucSpn=           0           0           0           0           0           2           0           0           0           0
 AtZEff=  -0.0000000  -0.0000000  -0.0000000  -0.0000000  -0.0000000  -0.0000000  -0.0000000  -0.0000000  -0.0000000  -0.0000000
 NQMom=    0.0000000   0.0000000   0.0000000   0.0000000   0.0000000   2.0440000   0.0000000   0.0000000   0.0000000   0.0000000
 NMagM=    0.0000000   0.0000000   0.0000000   0.0000000   0.0000000   0.4037610   0.0000000   0.0000000   0.0000000   0.0000000
 AtZNuc=  12.0000000   6.0000000   6.0000000   6.0000000   6.0000000   7.0000000   6.0000000   6.0000000   6.0000000   6.0000000

  Atom        11          12          13          14          15          16          17          18          19          20
 IAtWgt=          12          12          12           1          14          12          12          12          12          12
 AtmWgt=  12.0000000  12.0000000  12.0000000   1.0078250  14.0030740  12.0000000  12.0000000  12.0000000  12.0000000  12.0000000
 NucSpn=           0           0           0           1           2           0           0           0           0           0
 AtZEff=  -0.0000000  -0.0000000  -0.0000000  -0.0000000  -0.0000000  -0.0000000  -0.0000000  -0.0000000  -0.0000000  -0.0000000
 NQMom=    0.0000000   0.0000000   0.0000000   0.0000000   2.0440000   0.0000000   0.0000000   0.0000000   0.0000000   0.0000000
 NMagM=    0.0000000   0.0000000   0.0000000   2.7928460   0.4037610   0.0000000   0.0000000   0.0000000   0.0000000   0.0000000
 AtZNuc=   6.0000000   6.0000000   6.0000000   1.0000000   7.0000000   6.0000000   6.0000000   6.0000000   6.0000000   6.0000000

  Atom        21          22          23          24          25          26          27          28          29          30
 IAtWgt=          12          16          12          14          12          12          12          12          12          12
 AtmWgt=  12.0000000  15.9949146  12.0000000  14.0030740  12.0000000  12.0000000  12.0000000  12.0000000  12.0000000  12.0000000
 NucSpn=           0           0           0           2           0           0           0           0           0           0
 AtZEff=  -0.0000000  -0.0000000  -0.0000000  -0.0000000  -0.0000000  -0.0000000  -0.0000000  -0.0000000  -0.0000000  -0.0000000
 NQMom=    0.0000000   0.0000000   0.0000000   2.0440000   0.0000000   0.0000000   0.0000000   0.0000000   0.0000000   0.0000000
 NMagM=    0.0000000   0.0000000   0.0000000   0.4037610   0.0000000   0.0000000   0.0000000   0.0000000   0.0000000   0.0000000
 AtZNuc=   6.0000000   8.0000000   6.0000000   7.0000000   6.0000000   6.0000000   6.0000000   6.0000000   6.0000000   6.0000000

  Atom        31          32          33          34          35          36          37          38          39          40
 IAtWgt=          12          14          12          12          12          12          12          12          16          12
 AtmWgt=  12.0000000  14.0030740  12.0000000  12.0000000  12.0000000  12.0000000  12.0000000  12.0000000  15.9949146  12.0000000
 NucSpn=           0           2           0           0           0           0           0           0           0           0
 AtZEff=  -0.0000000  -0.0000000  -0.0000000  -0.0000000  -0.0000000  -0.0000000  -0.0000000  -0.0000000  -0.0000000  -0.0000000
 NQMom=    0.0000000   2.0440000   0.0000000   0.0000000   0.0000000   0.0000000   0.0000000   0.0000000   0.0000000   0.0000000
 NMagM=    0.0000000   0.4037610   0.0000000   0.0000000   0.0000000   0.0000000   0.0000000   0.0000000   0.0000000   0.0000000
 AtZNuc=   6.0000000   7.0000000   6.0000000   6.0000000   6.0000000   6.0000000   6.0000000   6.0000000   8.0000000   6.0000000

  Atom        41          42          43          44          45          46          47          48          49          50
 IAtWgt=          12          16          16          12           1           1           1           1           1           1
 AtmWgt=  12.0000000  15.9949146  15.9949146  12.0000000   1.0078250   1.0078250   1.0078250   1.0078250   1.0078250   1.0078250
 NucSpn=           0           0           0           0           1           1           1           1           1           1
 AtZEff=  -0.0000000  -0.0000000  -0.0000000  -0.0000000  -0.0000000  -0.0000000  -0.0000000  -0.0000000  -0.0000000  -0.0000000
 NQMom=    0.0000000   0.0000000   0.0000000   0.0000000   0.0000000   0.0000000   0.0000000   0.0000000   0.0000000   0.0000000
 NMagM=    0.0000000   0.0000000   0.0000000   0.0000000   2.7928460   2.7928460   2.7928460   2.7928460   2.7928460   2.7928460
 AtZNuc=   6.0000000   8.0000000   8.0000000   6.0000000   1.0000000   1.0000000   1.0000000   1.0000000   1.0000000   1.0000000

  Atom        51          52          53          54          55          56          57          58          59          60
 IAtWgt=           1           1           1           1           1           1           1           1           1           1
 AtmWgt=   1.0078250   1.0078250   1.0078250   1.0078250   1.0078250   1.0078250   1.0078250   1.0078250   1.0078250   1.0078250
 NucSpn=           1           1           1           1           1           1           1           1           1           1
 AtZEff=  -0.0000000  -0.0000000  -0.0000000  -0.0000000  -0.0000000  -0.0000000  -0.0000000  -0.0000000  -0.0000000  -0.0000000
 NQMom=    0.0000000   0.0000000   0.0000000   0.0000000   0.0000000   0.0000000   0.0000000   0.0000000   0.0000000   0.0000000
 NMagM=    2.7928460   2.7928460   2.7928460   2.7928460   2.7928460   2.7928460   2.7928460   2.7928460   2.7928460   2.7928460
 AtZNuc=   1.0000000   1.0000000   1.0000000   1.0000000   1.0000000   1.0000000   1.0000000   1.0000000   1.0000000   1.0000000

  Atom        61          62          63          64          65          66          67          68          69          70
 IAtWgt=           1           1           1           1           1           1           1           1           1           1
 AtmWgt=   1.0078250   1.0078250   1.0078250   1.0078250   1.0078250   1.0078250   1.0078250   1.0078250   1.0078250   1.0078250
 NucSpn=           1           1           1           1           1           1           1           1           1           1
 AtZEff=  -0.0000000  -0.0000000  -0.0000000  -0.0000000  -0.0000000  -0.0000000  -0.0000000  -0.0000000  -0.0000000  -0.0000000
 NQMom=    0.0000000   0.0000000   0.0000000   0.0000000   0.0000000   0.0000000   0.0000000   0.0000000   0.0000000   0.0000000
 NMagM=    2.7928460   2.7928460   2.7928460   2.7928460   2.7928460   2.7928460   2.7928460   2.7928460   2.7928460   2.7928460
 AtZNuc=   1.0000000   1.0000000   1.0000000   1.0000000   1.0000000   1.0000000   1.0000000   1.0000000   1.0000000   1.0000000

  Atom        71          72          73          74          75          76          77          78          79          80
 IAtWgt=           1           1           1           1           1           1           1           1           1          24
 AtmWgt=   1.0078250   1.0078250   1.0078250   1.0078250   1.0078250   1.0078250   1.0078250   1.0078250   1.0078250  23.9850450
 NucSpn=           1           1           1           1           1           1           1           1           1           0
 AtZEff=  -0.0000000  -0.0000000  -0.0000000  -0.0000000  -0.0000000  -0.0000000  -0.0000000  -0.0000000  -0.0000000  -0.0000000
 NQMom=    0.0000000   0.0000000   0.0000000   0.0000000   0.0000000   0.0000000   0.0000000   0.0000000   0.0000000   0.0000000
 NMagM=    2.7928460   2.7928460   2.7928460   2.7928460   2.7928460   2.7928460   2.7928460   2.7928460   2.7928460   0.0000000
 AtZNuc=   1.0000000   1.0000000   1.0000000   1.0000000   1.0000000   1.0000000   1.0000000   1.0000000   1.0000000  12.0000000

  Atom        81          82          83          84          85          86          87          88          89          90
 IAtWgt=          12          12          12          12          14          12          12          12          12          12
 AtmWgt=  12.0000000  12.0000000  12.0000000  12.0000000  14.0030740  12.0000000  12.0000000  12.0000000  12.0000000  12.0000000
 NucSpn=           0           0           0           0           2           0           0           0           0           0
 AtZEff=  -0.0000000  -0.0000000  -0.0000000  -0.0000000  -0.0000000  -0.0000000  -0.0000000  -0.0000000  -0.0000000  -0.0000000
 NQMom=    0.0000000   0.0000000   0.0000000   0.0000000   2.0440000   0.0000000   0.0000000   0.0000000   0.0000000   0.0000000
 NMagM=    0.0000000   0.0000000   0.0000000   0.0000000   0.4037610   0.0000000   0.0000000   0.0000000   0.0000000   0.0000000
 AtZNuc=   6.0000000   6.0000000   6.0000000   6.0000000   7.0000000   6.0000000   6.0000000   6.0000000   6.0000000   6.0000000

  Atom        91          92          93          94          95          96          97          98          99         100
 IAtWgt=          12          12           1          14          12          12          12          12          12          12
 AtmWgt=  12.0000000  12.0000000   1.0078250  14.0030740  12.0000000  12.0000000  12.0000000  12.0000000  12.0000000  12.0000000
 NucSpn=           0           0           1           2           0           0           0           0           0           0
 AtZEff=  -0.0000000  -0.0000000  -0.0000000  -0.0000000  -0.0000000  -0.0000000  -0.0000000  -0.0000000  -0.0000000  -0.0000000
 NQMom=    0.0000000   0.0000000   0.0000000   2.0440000   0.0000000   0.0000000   0.0000000   0.0000000   0.0000000   0.0000000
 NMagM=    0.0000000   0.0000000   2.7928460   0.4037610   0.0000000   0.0000000   0.0000000   0.0000000   0.0000000   0.0000000
 AtZNuc=   6.0000000   6.0000000   1.0000000   7.0000000   6.0000000   6.0000000   6.0000000   6.0000000   6.0000000   6.0000000

  Atom       101         102         103         104         105         106         107         108         109         110
 IAtWgt=          16          12          14          12          12          12          12          12          12          12
 AtmWgt=  15.9949146  12.0000000  14.0030740  12.0000000  12.0000000  12.0000000  12.0000000  12.0000000  12.0000000  12.0000000
 NucSpn=           0           0           2           0           0           0           0           0           0           0
 AtZEff=  -0.0000000  -0.0000000  -0.0000000  -0.0000000  -0.0000000  -0.0000000  -0.0000000  -0.0000000  -0.0000000  -0.0000000
 NQMom=    0.0000000   0.0000000   2.0440000   0.0000000   0.0000000   0.0000000   0.0000000   0.0000000   0.0000000   0.0000000
 NMagM=    0.0000000   0.0000000   0.4037610   0.0000000   0.0000000   0.0000000   0.0000000   0.0000000   0.0000000   0.0000000
 AtZNuc=   8.0000000   6.0000000   7.0000000   6.0000000   6.0000000   6.0000000   6.0000000   6.0000000   6.0000000   6.0000000

  Atom       111         112         113         114         115         116         117         118         119         120
 IAtWgt=          14          12          12          12          12          12          12          16          12          12
 AtmWgt=  14.0030740  12.0000000  12.0000000  12.0000000  12.0000000  12.0000000  12.0000000  15.9949146  12.0000000  12.0000000
 NucSpn=           2           0           0           0           0           0           0           0           0           0
 AtZEff=  -0.0000000  -0.0000000  -0.0000000  -0.0000000  -0.0000000  -0.0000000  -0.0000000  -0.0000000  -0.0000000  -0.0000000
 NQMom=    2.0440000   0.0000000   0.0000000   0.0000000   0.0000000   0.0000000   0.0000000   0.0000000   0.0000000   0.0000000
 NMagM=    0.4037610   0.0000000   0.0000000   0.0000000   0.0000000   0.0000000   0.0000000   0.0000000   0.0000000   0.0000000
 AtZNuc=   7.0000000   6.0000000   6.0000000   6.0000000   6.0000000   6.0000000   6.0000000   8.0000000   6.0000000   6.0000000

  Atom       121         122         123         124         125         126         127         128         129         130
 IAtWgt=          16          16          12           1           1           1           1           1           1           1
 AtmWgt=  15.9949146  15.9949146  12.0000000   1.0078250   1.0078250   1.0078250   1.0078250   1.0078250   1.0078250   1.0078250
 NucSpn=           0           0           0           1           1           1           1           1           1           1
 AtZEff=  -0.0000000  -0.0000000  -0.0000000  -0.0000000  -0.0000000  -0.0000000  -0.0000000  -0.0000000  -0.0000000  -0.0000000
 NQMom=    0.0000000   0.0000000   0.0000000   0.0000000   0.0000000   0.0000000   0.0000000   0.0000000   0.0000000   0.0000000
 NMagM=    0.0000000   0.0000000   0.0000000   2.7928460   2.7928460   2.7928460   2.7928460   2.7928460   2.7928460   2.7928460
 AtZNuc=   8.0000000   8.0000000   6.0000000   1.0000000   1.0000000   1.0000000   1.0000000   1.0000000   1.0000000   1.0000000

  Atom       131         132         133         134         135         136         137         138         139         140
 IAtWgt=           1           1           1           1           1           1           1           1           1           1
 AtmWgt=   1.0078250   1.0078250   1.0078250   1.0078250   1.0078250   1.0078250   1.0078250   1.0078250   1.0078250   1.0078250
 NucSpn=           1           1           1           1           1           1           1           1           1           1
 AtZEff=  -0.0000000  -0.0000000  -0.0000000  -0.0000000  -0.0000000  -0.0000000  -0.0000000  -0.0000000  -0.0000000  -0.0000000
 NQMom=    0.0000000   0.0000000   0.0000000   0.0000000   0.0000000   0.0000000   0.0000000   0.0000000   0.0000000   0.0000000
 NMagM=    2.7928460   2.7928460   2.7928460   2.7928460   2.7928460   2.7928460   2.7928460   2.7928460   2.7928460   2.7928460
 AtZNuc=   1.0000000   1.0000000   1.0000000   1.0000000   1.0000000   1.0000000   1.0000000   1.0000000   1.0000000   1.0000000

  Atom       141         142         143         144         145         146         147         148         149         150
 IAtWgt=           1           1           1           1           1           1           1           1           1           1
 AtmWgt=   1.0078250   1.0078250   1.0078250   1.0078250   1.0078250   1.0078250   1.0078250   1.0078250   1.0078250   1.0078250
 NucSpn=           1           1           1           1           1           1           1           1           1           1
 AtZEff=  -0.0000000  -0.0000000  -0.0000000  -0.0000000  -0.0000000  -0.0000000  -0.0000000  -0.0000000  -0.0000000  -0.0000000
 NQMom=    0.0000000   0.0000000   0.0000000   0.0000000   0.0000000   0.0000000   0.0000000   0.0000000   0.0000000   0.0000000
 NMagM=    2.7928460   2.7928460   2.7928460   2.7928460   2.7928460   2.7928460   2.7928460   2.7928460   2.7928460   2.7928460
 AtZNuc=   1.0000000   1.0000000   1.0000000   1.0000000   1.0000000   1.0000000   1.0000000   1.0000000   1.0000000   1.0000000

  Atom       151         152         153         154         155         156         157         158
 IAtWgt=           1           1           1           1           1           1           1           1
 AtmWgt=   1.0078250   1.0078250   1.0078250   1.0078250   1.0078250   1.0078250   1.0078250   1.0078250
 NucSpn=           1           1           1           1           1           1           1           1
 AtZEff=  -0.0000000  -0.0000000  -0.0000000  -0.0000000  -0.0000000  -0.0000000  -0.0000000  -0.0000000
 NQMom=    0.0000000   0.0000000   0.0000000   0.0000000   0.0000000   0.0000000   0.0000000   0.0000000
 NMagM=    2.7928460   2.7928460   2.7928460   2.7928460   2.7928460   2.7928460   2.7928460   2.7928460
 AtZNuc=   1.0000000   1.0000000   1.0000000   1.0000000   1.0000000   1.0000000   1.0000000   1.0000000
 Leave Link  101 at Sat Sep 11 00:02:15 2021, MaxMem= 23488102400 cpu:               3.3 elap:               0.2
 (Enter /sw/apps/gaussian-16.0/g16/l202.exe)
 Stoichiometry    C68H72Mg2N8O8
 Framework group  C1[X(C68H72Mg2N8O8)]
 Deg. of freedom   468
 Full point group                 C1      NOp   1
 Largest Abelian subgroup         C1      NOp   1
 Largest concise Abelian subgroup C1      NOp   1
                         Standard orientation:                         
 ---------------------------------------------------------------------
 Center     Atomic      Atomic             Coordinates (Angstroms)
 Number     Number       Type             X           Y           Z
 ---------------------------------------------------------------------
      1         12           0       -5.190419    0.557092   -0.618019
      2          6           0       -5.453994   -2.734674    0.762931
      3          6           0       -6.420334    1.734797    2.338903
      4          6           0       -5.395345    3.419213   -1.968162
      5          6           0       -5.074852   -0.932852   -3.766411
      6          7           0       -5.818448   -0.468740    1.240447
      7          6           0       -5.813533   -1.729115    1.663059
      8          6           0       -6.154020   -1.874632    3.176421
      9          6           0       -6.970046   -0.520468    3.382187
     10          6           0       -6.342082    0.311699    2.278066
     11          6           0       -8.463041   -0.660410    3.103110
     12          6           0       -4.871212   -1.912425    4.073476
     13          6           0       -5.095706   -2.376867    5.515437
     14          1           0       -4.061987   -3.168475    6.165151
     15          7           0       -5.346192    2.349947    0.196999
     16          6           0       -5.856765    2.643337    1.417049
     17          6           0       -5.751108    4.111276    1.560831
     18          6           0       -5.312885    4.666477    0.250180
     19          6           0       -5.359836    3.488258   -0.577451
     20          6           0       -6.003991    4.832148    2.849297
     21          6           0       -4.925035    6.042853   -0.189473
     22          8           0       -4.801378    6.353098   -1.423584
     23          6           0       -4.778016    7.054670    0.872438
     24          7           0       -5.450902    1.180036   -2.593297
     25          6           0       -5.445982    2.478622   -2.913662
     26          6           0       -5.363691    2.674374   -4.398535
     27          6           0       -5.067079    1.233118   -5.018659
     28          6           0       -5.114483    0.400462   -3.713781
     29          6           0       -6.611455    3.269853   -5.065244
     30          6           0       -3.822175    1.103113   -5.931749
     31          6           0       -2.564102    1.293658   -5.114411
     32          7           0       -5.073073   -1.468391   -1.389183
     33          6           0       -5.059339   -1.858237   -2.736219
     34          6           0       -5.081780   -3.332354   -2.759560
     35          6           0       -5.124024   -3.699778   -1.416035
     36          6           0       -5.154239   -2.529080   -0.605574
     37          6           0       -5.121049   -4.146858   -3.925525
     38          6           0       -5.175535   -4.808866   -0.477351
     39          8           0       -5.082358   -6.033254   -0.575771
     40          6           0       -5.514171   -4.228189    0.966244
     41          6           0       -4.548988   -4.844466    1.941914
     42          8           0       -3.330918   -4.577693    1.891880
     43          8           0       -5.234941   -5.457051    2.919028
     44          6           0       -4.336529   -6.064623    3.936803
     45          1           0       -7.015418    2.197409    3.128717
     46          1           0       -5.354913    4.386378   -2.473528
     47          1           0       -4.955313   -1.468324   -4.710039
     48          1           0       -6.784474   -2.729912    3.420240
     49          1           0       -6.772769   -0.070254    4.354869
     50          1           0       -8.699954   -1.637917    2.683261
     51          1           0       -8.700868    0.128365    2.389131
     52          1           0       -9.046553   -0.440828    3.997579
     53          1           0       -4.531242   -0.893319    4.257607
     54          1           0       -4.096593   -2.526841    3.613275
     55          1           0       -6.070713   -2.850260    5.634475
     56          1           0       -5.142738   -1.495278    6.154803
     57          1           0       -6.469100    4.180683    3.588088
     58          1           0       -6.757031    5.593231    2.645847
     59          1           0       -5.101765    5.302897    3.240087
     60          1           0       -5.720351    7.149139    1.412465
     61          1           0       -4.410526    7.954935    0.381190
     62          1           0       -4.043484    6.701928    1.596995
     63          1           0       -4.549988    3.349837   -4.659425
     64          1           0       -5.890118    0.877493   -5.638992
     65          1           0       -6.414913    4.185741   -5.623121
     66          1           0       -7.360091    3.436434   -4.291237
     67          1           0       -7.139479    2.591675   -5.735081
     68          1           0       -3.829278    1.880090   -6.695426
     69          1           0       -3.759047    0.140240   -6.438840
     70          1           0       -2.459544    2.377422   -5.077593
     71          1           0       -1.711198    0.835986   -5.616708
     72          1           0       -2.697878    0.944231   -4.090452
     73          1           0       -4.414873   -4.959191   -3.754065
     74          1           0       -4.859567   -3.576067   -4.816270
     75          1           0       -6.165868   -4.456988   -3.920102
     76          1           0       -6.545954   -4.504525    1.181147
     77          1           0       -4.597423   -7.120758    4.005691
     78          1           0       -4.435110   -5.459256    4.838035
     79          1           0       -3.281064   -6.130333    3.670316
     80         12           0        5.335610    0.834320    0.517917
     81          6           0        5.411578   -2.227045   -1.353266
     82          6           0        4.216926   -0.990966    3.173378
     83          6           0        4.828442    3.564149    2.053584
     84          6           0        5.348000    2.532556   -2.525366
     85          7           0        4.909439   -1.322963    0.756132
     86          6           0        5.034155   -2.399597   -0.005223
     87          6           0        4.815580   -3.743432    0.740349
     88          6           0        3.906804   -3.202836    1.948965
     89          6           0        4.394028   -1.755988    1.992926
     90          6           0        2.421231   -3.197046    1.628984
     91          6           0        6.159211   -4.361848    1.264041
     92          6           0        6.059842   -5.816828    1.727630
     93          1           0        7.197214   -6.701772    1.491532
     94          7           0        5.101521    1.193479    2.455647
     95          6           0        4.658733    0.331883    3.395248
     96          6           0        4.648259    1.085108    4.658852
     97          6           0        4.963918    2.508235    4.359257
     98          6           0        4.956236    2.480575    2.910375
     99          6           0        4.436136    0.432010    5.993732
    100          6           0        5.216622    3.699986    5.232235
    101          8           0        5.236526    4.890356    4.757436
    102          6           0        5.347227    3.440958    6.673535
    103          7           0        4.905943    2.760757   -0.135229
    104          6           0        4.785083    3.775972    0.738076
    105          6           0        4.750988    5.107085    0.025776
    106          6           0        5.118820    4.788691   -1.497672
    107          6           0        5.218904    3.249553   -1.417478
    108          6           0        3.420574    5.857595    0.081668
    109          6           0        6.307847    5.575607   -2.113835
    110          6           0        7.600900    5.160612   -1.449643
    111          7           0        5.558083    0.296100   -1.562677
    112          6           0        5.506056    1.160987   -2.677739
    113          6           0        5.594114    0.317552   -3.887409
    114          6           0        5.668665   -0.991717   -3.388665
    115          6           0        5.609484   -0.967511   -1.969017
    116          6           0        5.549785    0.783714   -5.231591
    117          6           0        5.773280   -2.389520   -3.740691
    118          8           0        5.944801   -3.010931   -4.788626
    119          6           0        5.484108   -3.260479   -2.442924
    120          6           0        6.554854   -4.311988   -2.341154
    121          8           0        7.739046   -3.990657   -2.138553
    122          8           0        5.976588   -5.525470   -2.282353
    123          6           0        6.997692   -6.600846   -2.169548
    124          1           0        3.648928   -1.428500    3.994847
    125          1           0        4.762308    4.541849    2.536494
    126          1           0        5.457011    2.993280   -3.509503
    127          1           0        4.275222   -4.493616    0.175553
    128          1           0        4.142609   -3.713009    2.879275
    129          1           0        2.230654   -3.447104    0.595881
    130          1           0        2.077698   -2.193873    1.845010
    131          1           0        1.884470   -3.854532    2.318854
    132          1           0        6.429171   -3.880394    2.212761
    133          1           0        6.933728   -4.269298    0.527717
    134          1           0        5.128147   -6.291984    1.397297
    135          1           0        5.995278   -5.829869    2.818357
    136          1           0        4.064857   -0.594495    5.884865
    137          1           0        3.615930    0.966890    6.484671
    138          1           0        5.321277    0.480124    6.631604
    139          1           0        4.440626    2.964055    7.038355
    140          1           0        5.613304    4.401010    7.120051
    141          1           0        6.162991    2.725917    6.827975
    142          1           0        5.493393    5.782590    0.432747
    143          1           0        4.281794    5.014328   -2.174654
    144          1           0        3.510143    6.873349    0.510964
    145          1           0        2.717773    5.264497    0.651624
    146          1           0        2.910459    5.965038   -0.874069
    147          1           0        6.191809    6.645786   -1.925688
    148          1           0        6.402107    5.445618   -3.186779
    149          1           0        7.619241    5.771372   -0.542050
    150          1           0        8.450301    5.383103   -2.092332
    151          1           0        7.564366    4.109924   -1.139220
    152          1           0        6.317785    0.247159   -5.772685
    153          1           0        5.702986    1.859585   -5.284556
    154          1           0        4.529182    0.500582   -5.502665
    155          1           0        4.491032   -3.697047   -2.555973
    156          1           0        6.819492   -7.298360   -2.993811
    157          1           0        6.899583   -6.999392   -1.142278
    158          1           0        8.032577   -6.329427   -2.342154
 ---------------------------------------------------------------------
 Rotational constants (GHZ):           0.0203639           0.0113499           0.0103632
 Leave Link  202 at Sat Sep 11 00:02:15 2021, MaxMem= 23488102400 cpu:               0.2 elap:               0.0
 (Enter /sw/apps/gaussian-16.0/g16/l301.exe)
 Standard basis: def2SVP (5D, 7F)
 Ernie: Thresh=  0.10000D-02 Tol=  0.10000D-05 Strict=F.
 There are  1658 symmetry adapted cartesian basis functions of A   symmetry.
 There are  1572 symmetry adapted basis functions of A   symmetry.
  1572 basis functions,  2678 primitive gaussians,  1658 cartesian basis functions
   312 alpha electrons      312 beta electrons
       nuclear repulsion energy     14947.1478001446 Hartrees.
 IExCor=20419 DFT=T Ex+Corr=CAM-B3LYP ExCW=0 ScaHFX=  1.000000
 ScaDFX=  1.000000  1.000000  1.000000  0.810000 ScalE2=  1.000000  1.000000
 IRadAn=      5 IRanWt=     -1 IRanGd=            0 ICorTp=0 IEmpDi=  4
 HFx  wShort=  0.000000 wLong=  0.330000 cFull=  0.190000 cShort=  0.000000 cLong=  0.460000
 DFx  wShort=  0.000000 wLong=  0.330000 cFull=  0.190000 cShort=  0.000000 cLong=  0.460000
 NAtoms=  158 NActive=  158 NUniq=  158 SFac= 1.00D+00 NAtFMM=   60 NAOKFM=T Big=T
 Integral buffers will be    131072 words long.
 Raffenetti 1 integral format.
 Two-electron integral symmetry is turned on.
 Leave Link  301 at Sat Sep 11 00:02:15 2021, MaxMem= 23488102400 cpu:               1.3 elap:               0.1
 (Enter /sw/apps/gaussian-16.0/g16/l302.exe)
 NPDir=0 NMtPBC=     1 NCelOv=     1 NCel=       1 NClECP=     1 NCelD=      1
         NCelK=      1 NCelE2=     1 NClLst=     1 CellRange=     0.0.
 One-electron integrals computed using PRISM.
 One-electron integral symmetry used in STVInt
   1 Symmetry operations used in ECPInt.
 ECPInt:  NShTT=  271216 NPrTT=  987664 LenC2=  137567 LenP2D=  286787.
 LDataN:  DoStor=T MaxTD1= 4 Len=   56
 NBasis=  1572 RedAO= T EigKep=  3.36D-04  NBF=  1572
 NBsUse=  1572 1.00D-06 EigRej= -1.00D+00 NBFU=  1572
 Precomputing XC quadrature grid using
 IXCGrd= 4 IRadAn=           5 IRanWt=          -1 IRanGd=           0 AccXCQ= 0.00D+00.
 Generated NRdTot=       0 NPtTot=           0 NUsed=           0 NTot=          32
 NSgBfM=  1150  1135  1137  1143  1150 MxSgAt=   158 MxSgA2=   157.
 Leave Link  302 at Sat Sep 11 00:02:21 2021, MaxMem= 23488102400 cpu:             128.1 elap:               5.4
 (Enter /sw/apps/gaussian-16.0/g16/l303.exe)
 DipDrv:  MaxL=1.
 Leave Link  303 at Sat Sep 11 00:02:21 2021, MaxMem= 23488102400 cpu:               8.8 elap:               0.4
 (Enter /sw/apps/gaussian-16.0/g16/l308.exe)
 Leave Link  308 at Sat Sep 11 00:02:22 2021, MaxMem= 23488102400 cpu:              15.5 elap:               0.7
 (Enter /sw/apps/gaussian-16.0/g16/l401.exe)
 ExpMin= 3.36D-02 ExpMax= 4.95D+03 ExpMxC= 7.45D+02 IAcc=3 IRadAn=         5 AccDes= 0.00D+00
 Harris functional with IExCor=20419 and IRadAn=       5 diagonalized for initial guess.
 HarFok:  IExCor=20419 AccDes= 0.00D+00 IRadAn=         5 IDoV= 1 UseB2=F ITyADJ=14
 ICtDFT=  3500011 ScaDFX=  1.000000  1.000000  1.000000  1.000000
 FoFCou: FMM=F IPFlag=           0 FMFlag=      100000 FMFlg1=        2001
         NFxFlg=           0 DoJE=T BraDBF=F KetDBF=T FulRan=T
         wScrn=  0.000000 ICntrl=       500 IOpCl=  0 I1Cent=   200000004 NGrid=           0
         NMat0=    1 NMatS0=      1 NMatT0=    0 NMatD0=    1 NMtDS0=    0 NMtDT0=    0
 Petite list used in FoFCou.
 Harris En= -3918.65801630826    
 JPrj=0 DoOrth=F DoCkMO=F.
 Leave Link  401 at Sat Sep 11 00:02:29 2021, MaxMem= 23488102400 cpu:             176.7 elap:               7.4
 (Enter /sw/apps/gaussian-16.0/g16/l502.exe)
 Integral symmetry usage will be decided dynamically.
 Closed shell SCF:
 Using DIIS extrapolation, IDIIS=  1040.
 NGot= 23488102400 LenX= 23482547354 LenY= 23479796732
 Requested convergence on RMS density matrix=1.00D-08 within 128 cycles.
 Requested convergence on MAX density matrix=1.00D-06.
 Requested convergence on             energy=1.00D-06.
 No special actions if energy rises.
 Fock matrices will be formed incrementally for  20 cycles.

 Cycle   1  Pass 1  IDiag  1:
 FoFJK:  IHMeth= 1 ICntrl=       0 DoSepK=T KAlg= 0 I1Cent=           0 FoldK=F
 IRaf=         1 NMat=       1 IRICut=       1 DoRegI=T DoRafI=F ISym2E= 0 IDoP0=0 IntGTp=1.
 FoFCou: FMM=T IPFlag=           0 FMFlag=      100000 FMFlg1=        2001
         NFxFlg=           0 DoJE=T BraDBF=F KetDBF=F FulRan=T
         wScrn=  0.000000 ICntrl=       500 IOpCl=  0 I1Cent=           0 NGrid=           0
         NMat0=    1 NMatS0=      1 NMatT0=    0 NMatD0=    1 NMtDS0=    0 NMtDT0=    0
 Symmetry not used in FoFCou.
 FMM levels:  10  Number of levels for PrismC:   9
 E= -4068.95005917420    
 DIIS: error= 2.04D-02 at cycle   1 NSaved=   1.
 NSaved= 1 IEnMin= 1 EnMin= -4068.95005917420     IErMin= 1 ErrMin= 2.04D-02
 ErrMax= 2.04D-02  0.00D+00 EMaxC= 1.00D-01 BMatC= 1.69D+00 BMatP= 1.69D+00
 IDIUse=3 WtCom= 7.96D-01 WtEn= 2.04D-01
 Coeff-Com:  0.100D+01
 Coeff-En:   0.100D+01
 Coeff:      0.100D+01
 Gap=     0.120 Goal=   None    Shift=    0.000
 GapD=    0.120 DampG=1.000 DampE=0.500 DampFc=0.5000 IDamp=-1.
 Damping current iteration by 5.00D-01
 RMSDP=1.57D-03 MaxDP=1.36D-01              OVMax= 2.02D-01

 Cycle   2  Pass 1  IDiag  1:
 RMSU=  7.69D-04    CP:  9.82D-01
 E= -4069.33886575670     Delta-E=       -0.388806582501 Rises=F Damp=T
 DIIS: error= 1.27D-02 at cycle   2 NSaved=   2.
 NSaved= 2 IEnMin= 2 EnMin= -4069.33886575670     IErMin= 2 ErrMin= 1.27D-02
 ErrMax= 1.27D-02  0.00D+00 EMaxC= 1.00D-01 BMatC= 3.06D-01 BMatP= 1.69D+00
 IDIUse=3 WtCom= 8.73D-01 WtEn= 1.27D-01
 Coeff-Com: -0.214D+00 0.121D+01
 Coeff-En:   0.000D+00 0.100D+01
 Coeff:     -0.186D+00 0.119D+01
 Gap=     0.134 Goal=   None    Shift=    0.000
 RMSDP=7.65D-04 MaxDP=9.44D-02 DE=-3.89D-01 OVMax= 1.89D-01

 Cycle   3  Pass 1  IDiag  1:
 RMSU=  7.33D-04    CP:  9.68D-01  1.24D+00
 E= -4069.62836047337     Delta-E=       -0.289494716671 Rises=F Damp=F
 DIIS: error= 1.55D-02 at cycle   3 NSaved=   3.
 NSaved= 3 IEnMin= 3 EnMin= -4069.62836047337     IErMin= 2 ErrMin= 1.27D-02
 ErrMax= 1.55D-02  0.00D+00 EMaxC= 1.00D-01 BMatC= 2.01D-01 BMatP= 3.06D-01
 IDIUse=3 WtCom= 8.45D-01 WtEn= 1.55D-01
 Coeff-Com: -0.267D+00 0.651D+00 0.616D+00
 Coeff-En:   0.000D+00 0.000D+00 0.100D+01
 Coeff:     -0.226D+00 0.550D+00 0.676D+00
 Gap=     0.121 Goal=   None    Shift=    0.000
 RMSDP=5.09D-04 MaxDP=4.75D-02 DE=-2.89D-01 OVMax= 1.42D-01

 Cycle   4  Pass 1  IDiag  1:
 RMSU=  2.65D-04    CP:  9.65D-01  1.55D+00  5.05D-01
 E= -4069.76576095915     Delta-E=       -0.137400485775 Rises=F Damp=F
 DIIS: error= 7.04D-03 at cycle   4 NSaved=   4.
 NSaved= 4 IEnMin= 4 EnMin= -4069.76576095915     IErMin= 4 ErrMin= 7.04D-03
 ErrMax= 7.04D-03  0.00D+00 EMaxC= 1.00D-01 BMatC= 4.96D-02 BMatP= 2.01D-01
 IDIUse=3 WtCom= 9.30D-01 WtEn= 7.04D-02
 Coeff-Com: -0.109D+00 0.226D+00 0.408D+00 0.475D+00
 Coeff-En:   0.000D+00 0.000D+00 0.219D+00 0.781D+00
 Coeff:     -0.101D+00 0.210D+00 0.395D+00 0.496D+00
 Gap=     0.120 Goal=   None    Shift=    0.000
 RMSDP=2.00D-04 MaxDP=1.96D-02 DE=-1.37D-01 OVMax= 6.17D-02

 Cycle   5  Pass 1  IDiag  1:
 RMSU=  7.65D-05    CP:  9.64D-01  1.49D+00  6.89D-01  5.49D-01
 E= -4069.81088490694     Delta-E=       -0.045123947795 Rises=F Damp=F
 DIIS: error= 7.34D-04 at cycle   5 NSaved=   5.
 NSaved= 5 IEnMin= 5 EnMin= -4069.81088490694     IErMin= 5 ErrMin= 7.34D-04
 ErrMax= 7.34D-04  0.00D+00 EMaxC= 1.00D-01 BMatC= 1.19D-03 BMatP= 4.96D-02
 IDIUse=3 WtCom= 9.93D-01 WtEn= 7.34D-03
 Coeff-Com: -0.368D-01 0.723D-01 0.168D+00 0.251D+00 0.545D+00
 Coeff-En:   0.000D+00 0.000D+00 0.000D+00 0.000D+00 0.100D+01
 Coeff:     -0.365D-01 0.718D-01 0.166D+00 0.250D+00 0.549D+00
 Gap=     0.120 Goal=   None    Shift=    0.000
 RMSDP=4.26D-05 MaxDP=4.42D-03 DE=-4.51D-02 OVMax= 1.75D-02

 Cycle   6  Pass 1  IDiag  1:
 RMSU=  3.14D-05    CP:  9.64D-01  1.49D+00  6.80D-01  6.23D-01  7.42D-01
 E= -4069.81193410499     Delta-E=       -0.001049198050 Rises=F Damp=F
 DIIS: error= 1.93D-04 at cycle   6 NSaved=   6.
 NSaved= 6 IEnMin= 6 EnMin= -4069.81193410499     IErMin= 6 ErrMin= 1.93D-04
 ErrMax= 1.93D-04  0.00D+00 EMaxC= 1.00D-01 BMatC= 1.90D-04 BMatP= 1.19D-03
 IDIUse=3 WtCom= 9.98D-01 WtEn= 1.93D-03
 Coeff-Com:  0.189D-02-0.597D-02 0.125D-01 0.420D-01 0.311D+00 0.639D+00
 Coeff-En:   0.000D+00 0.000D+00 0.000D+00 0.000D+00 0.122D+00 0.878D+00
 Coeff:      0.189D-02-0.595D-02 0.125D-01 0.419D-01 0.310D+00 0.639D+00
 Gap=     0.120 Goal=   None    Shift=    0.000
 RMSDP=1.69D-05 MaxDP=1.18D-03 DE=-1.05D-03 OVMax= 7.27D-03

 Cycle   7  Pass 1  IDiag  1:
 RMSU=  1.11D-05    CP:  9.64D-01  1.50D+00  6.86D-01  6.21D-01  8.51D-01
                    CP:  7.32D-01
 E= -4069.81214354854     Delta-E=       -0.000209443548 Rises=F Damp=F
 DIIS: error= 9.68D-05 at cycle   7 NSaved=   7.
 NSaved= 7 IEnMin= 7 EnMin= -4069.81214354854     IErMin= 7 ErrMin= 9.68D-05
 ErrMax= 9.68D-05  0.00D+00 EMaxC= 1.00D-01 BMatC= 2.41D-05 BMatP= 1.90D-04
 IDIUse=1 WtCom= 1.00D+00 WtEn= 0.00D+00
 Coeff-Com:  0.449D-02-0.987D-02-0.869D-02-0.304D-02 0.109D+00 0.337D+00
 Coeff-Com:  0.571D+00
 Coeff:      0.449D-02-0.987D-02-0.869D-02-0.304D-02 0.109D+00 0.337D+00
 Coeff:      0.571D+00
 Gap=     0.121 Goal=   None    Shift=    0.000
 RMSDP=6.72D-06 MaxDP=1.17D-03 DE=-2.09D-04 OVMax= 3.51D-03

 Cycle   8  Pass 1  IDiag  1:
 RMSU=  4.75D-06    CP:  9.64D-01  1.50D+00  6.87D-01  6.26D-01  8.53D-01
                    CP:  8.57D-01  8.08D-01
 E= -4069.81217319076     Delta-E=       -0.000029642222 Rises=F Damp=F
 DIIS: error= 5.42D-05 at cycle   8 NSaved=   8.
 NSaved= 8 IEnMin= 8 EnMin= -4069.81217319076     IErMin= 8 ErrMin= 5.42D-05
 ErrMax= 5.42D-05  0.00D+00 EMaxC= 1.00D-01 BMatC= 4.87D-06 BMatP= 2.41D-05
 IDIUse=1 WtCom= 1.00D+00 WtEn= 0.00D+00
 Coeff-Com:  0.221D-02-0.439D-02-0.785D-02-0.122D-01-0.102D-01 0.341D-01
 Coeff-Com:  0.326D+00 0.672D+00
 Coeff:      0.221D-02-0.439D-02-0.785D-02-0.122D-01-0.102D-01 0.341D-01
 Coeff:      0.326D+00 0.672D+00
 Gap=     0.121 Goal=   None    Shift=    0.000
 RMSDP=3.34D-06 MaxDP=3.93D-04 DE=-2.96D-05 OVMax= 1.16D-03

 Cycle   9  Pass 1  IDiag  1:
 RMSU=  1.93D-06    CP:  9.64D-01  1.50D+00  6.87D-01  6.27D-01  8.70D-01
                    CP:  8.85D-01  1.00D+00  9.58D-01
 E= -4069.81218099715     Delta-E=       -0.000007806389 Rises=F Damp=F
 DIIS: error= 2.09D-05 at cycle   9 NSaved=   9.
 NSaved= 9 IEnMin= 9 EnMin= -4069.81218099715     IErMin= 9 ErrMin= 2.09D-05
 ErrMax= 2.09D-05  0.00D+00 EMaxC= 1.00D-01 BMatC= 7.30D-07 BMatP= 4.87D-06
 IDIUse=1 WtCom= 1.00D+00 WtEn= 0.00D+00
 Coeff-Com:  0.497D-03-0.834D-03-0.277D-02-0.614D-02-0.211D-01-0.389D-01
 Coeff-Com:  0.976D-01 0.337D+00 0.635D+00
 Coeff:      0.497D-03-0.834D-03-0.277D-02-0.614D-02-0.211D-01-0.389D-01
 Coeff:      0.976D-01 0.337D+00 0.635D+00
 Gap=     0.121 Goal=   None    Shift=    0.000
 RMSDP=1.42D-06 MaxDP=1.48D-04 DE=-7.81D-06 OVMax= 7.58D-04

 Cycle  10  Pass 1  IDiag  1:
 RMSU=  9.45D-07    CP:  9.64D-01  1.50D+00  6.87D-01  6.28D-01  8.74D-01
                    CP:  8.97D-01  1.05D+00  1.12D+00  1.05D+00
 E= -4069.81218262335     Delta-E=       -0.000001626198 Rises=F Damp=F
 DIIS: error= 1.05D-05 at cycle  10 NSaved=  10.
 NSaved=10 IEnMin=10 EnMin= -4069.81218262335     IErMin=10 ErrMin= 1.05D-05
 ErrMax= 1.05D-05  0.00D+00 EMaxC= 1.00D-01 BMatC= 1.67D-07 BMatP= 7.30D-07
 IDIUse=1 WtCom= 1.00D+00 WtEn= 0.00D+00
 Coeff-Com: -0.420D-03 0.883D-03 0.120D-02 0.105D-02-0.382D-02-0.308D-01
 Coeff-Com: -0.435D-01-0.714D-01 0.237D+00 0.909D+00
 Coeff:     -0.420D-03 0.883D-03 0.120D-02 0.105D-02-0.382D-02-0.308D-01
 Coeff:     -0.435D-01-0.714D-01 0.237D+00 0.909D+00
 Gap=     0.121 Goal=   None    Shift=    0.000
 RMSDP=1.22D-06 MaxDP=1.19D-04 DE=-1.63D-06 OVMax= 6.23D-04

 Cycle  11  Pass 1  IDiag  1:
 RMSU=  5.24D-07    CP:  9.64D-01  1.50D+00  6.87D-01  6.28D-01  8.76D-01
                    CP:  9.07D-01  1.09D+00  1.23D+00  1.39D+00  1.36D+00
 E= -4069.81218340393     Delta-E=       -0.000000780579 Rises=F Damp=F
 DIIS: error= 4.27D-06 at cycle  11 NSaved=  11.
 NSaved=11 IEnMin=11 EnMin= -4069.81218340393     IErMin=11 ErrMin= 4.27D-06
 ErrMax= 4.27D-06  0.00D+00 EMaxC= 1.00D-01 BMatC= 6.53D-08 BMatP= 1.67D-07
 IDIUse=1 WtCom= 1.00D+00 WtEn= 0.00D+00
 Coeff-Com: -0.336D-03 0.655D-03 0.134D-02 0.212D-02 0.436D-02-0.872D-02
 Coeff-Com: -0.412D-01-0.131D+00-0.340D-01 0.484D+00 0.722D+00
 Coeff:     -0.336D-03 0.655D-03 0.134D-02 0.212D-02 0.436D-02-0.872D-02
 Coeff:     -0.412D-01-0.131D+00-0.340D-01 0.484D+00 0.722D+00
 Gap=     0.121 Goal=   None    Shift=    0.000
 RMSDP=6.85D-07 MaxDP=6.14D-05 DE=-7.81D-07 OVMax= 3.70D-04

 Cycle  12  Pass 1  IDiag  1:
 RMSU=  2.66D-07    CP:  9.64D-01  1.50D+00  6.87D-01  6.28D-01  8.77D-01
                    CP:  9.09D-01  1.11D+00  1.30D+00  1.55D+00  1.75D+00
                    CP:  1.19D+00
 E= -4069.81218366773     Delta-E=       -0.000000263804 Rises=F Damp=F
 DIIS: error= 2.60D-06 at cycle  12 NSaved=  12.
 NSaved=12 IEnMin=12 EnMin= -4069.81218366773     IErMin=12 ErrMin= 2.60D-06
 ErrMax= 2.60D-06  0.00D+00 EMaxC= 1.00D-01 BMatC= 1.56D-08 BMatP= 6.53D-08
 IDIUse=1 WtCom= 1.00D+00 WtEn= 0.00D+00
 Coeff-Com: -0.137D-04 0.106D-04 0.227D-03 0.574D-03 0.345D-02 0.342D-02
 Coeff-Com:  0.160D-02-0.369D-01-0.709D-01-0.497D-01 0.255D+00 0.893D+00
 Coeff:     -0.137D-04 0.106D-04 0.227D-03 0.574D-03 0.345D-02 0.342D-02
 Coeff:      0.160D-02-0.369D-01-0.709D-01-0.497D-01 0.255D+00 0.893D+00
 Gap=     0.121 Goal=   None    Shift=    0.000
 RMSDP=4.27D-07 MaxDP=2.97D-05 DE=-2.64D-07 OVMax= 2.48D-04

 Cycle  13  Pass 1  IDiag  1:
 RMSU=  1.67D-07    CP:  9.64D-01  1.50D+00  6.87D-01  6.28D-01  8.77D-01
                    CP:  9.09D-01  1.12D+00  1.32D+00  1.65D+00  1.97D+00
                    CP:  1.59D+00  1.24D+00
 E= -4069.81218375853     Delta-E=       -0.000000090793 Rises=F Damp=F
 DIIS: error= 1.37D-06 at cycle  13 NSaved=  13.
 NSaved=13 IEnMin=13 EnMin= -4069.81218375853     IErMin=13 ErrMin= 1.37D-06
 ErrMax= 1.37D-06  0.00D+00 EMaxC= 1.00D-01 BMatC= 8.76D-09 BMatP= 1.56D-08
 IDIUse=1 WtCom= 1.00D+00 WtEn= 0.00D+00
 Coeff-Com:  0.119D-03-0.243D-03-0.361D-03-0.442D-03 0.692D-03 0.483D-02
 Coeff-Com:  0.187D-01 0.227D-01-0.330D-01-0.237D+00-0.162D+00 0.593D+00
 Coeff-Com:  0.794D+00
 Coeff:      0.119D-03-0.243D-03-0.361D-03-0.442D-03 0.692D-03 0.483D-02
 Coeff:      0.187D-01 0.227D-01-0.330D-01-0.237D+00-0.162D+00 0.593D+00
 Coeff:      0.794D+00
 Gap=     0.121 Goal=   None    Shift=    0.000
 RMSDP=3.46D-07 MaxDP=2.27D-05 DE=-9.08D-08 OVMax= 2.00D-04

 Cycle  14  Pass 1  IDiag  1:
 RMSU=  7.70D-08    CP:  9.64D-01  1.50D+00  6.87D-01  6.28D-01  8.77D-01
                    CP:  9.10D-01  1.13D+00  1.35D+00  1.73D+00  2.16D+00
                    CP:  1.85D+00  1.76D+00  1.10D+00
 E= -4069.81218379665     Delta-E=       -0.000000038122 Rises=F Damp=F
 DIIS: error= 7.07D-07 at cycle  14 NSaved=  14.
 NSaved=14 IEnMin=14 EnMin= -4069.81218379665     IErMin=14 ErrMin= 7.07D-07
 ErrMax= 7.07D-07  0.00D+00 EMaxC= 1.00D-01 BMatC= 1.31D-09 BMatP= 8.76D-09
 IDIUse=1 WtCom= 1.00D+00 WtEn= 0.00D+00
 Coeff-Com:  0.684D-04-0.135D-03-0.251D-03-0.393D-03-0.451D-03 0.123D-02
 Coeff-Com:  0.104D-01 0.198D-01 0.448D-02-0.102D+00-0.147D+00 0.901D-01
 Coeff-Com:  0.404D+00 0.720D+00
 Coeff:      0.684D-04-0.135D-03-0.251D-03-0.393D-03-0.451D-03 0.123D-02
 Coeff:      0.104D-01 0.198D-01 0.448D-02-0.102D+00-0.147D+00 0.901D-01
 Coeff:      0.404D+00 0.720D+00
 Gap=     0.121 Goal=   None    Shift=    0.000
 RMSDP=1.07D-07 MaxDP=6.96D-06 DE=-3.81D-08 OVMax= 5.86D-05

 Cycle  15  Pass 1  IDiag  1:
 RMSU=  3.86D-08    CP:  9.64D-01  1.50D+00  6.87D-01  6.28D-01  8.77D-01
                    CP:  9.10D-01  1.13D+00  1.35D+00  1.74D+00  2.21D+00
                    CP:  1.96D+00  1.91D+00  1.34D+00  1.03D+00
 E= -4069.81218380110     Delta-E=       -0.000000004449 Rises=F Damp=F
 DIIS: error= 3.86D-07 at cycle  15 NSaved=  15.
 NSaved=15 IEnMin=15 EnMin= -4069.81218380110     IErMin=15 ErrMin= 3.86D-07
 ErrMax= 3.86D-07  0.00D+00 EMaxC= 1.00D-01 BMatC= 2.34D-10 BMatP= 1.31D-09
 IDIUse=1 WtCom= 1.00D+00 WtEn= 0.00D+00
 Coeff-Com:  0.696D-05-0.121D-04-0.380D-04-0.893D-04-0.298D-03-0.497D-03
 Coeff-Com:  0.128D-02 0.299D-02 0.862D-02-0.358D-03-0.326D-01-0.708D-01
 Coeff-Com:  0.327D-01 0.302D+00 0.757D+00
 Coeff:      0.696D-05-0.121D-04-0.380D-04-0.893D-04-0.298D-03-0.497D-03
 Coeff:      0.128D-02 0.299D-02 0.862D-02-0.358D-03-0.326D-01-0.708D-01
 Coeff:      0.327D-01 0.302D+00 0.757D+00
 Gap=     0.121 Goal=   None    Shift=    0.000
 RMSDP=3.99D-08 MaxDP=2.52D-06 DE=-4.45D-09 OVMax= 2.57D-05

 Cycle  16  Pass 1  IDiag  1:
 RMSU=  1.86D-08    CP:  9.64D-01  1.50D+00  6.87D-01  6.28D-01  8.77D-01
                    CP:  9.10D-01  1.13D+00  1.35D+00  1.75D+00  2.22D+00
                    CP:  1.98D+00  1.97D+00  1.42D+00  1.24D+00  1.14D+00
 E= -4069.81218380179     Delta-E=       -0.000000000695 Rises=F Damp=F
 DIIS: error= 1.86D-07 at cycle  16 NSaved=  16.
 NSaved=16 IEnMin=16 EnMin= -4069.81218380179     IErMin=16 ErrMin= 1.86D-07
 ErrMax= 1.86D-07  0.00D+00 EMaxC= 1.00D-01 BMatC= 8.47D-11 BMatP= 2.34D-10
 IDIUse=1 WtCom= 1.00D+00 WtEn= 0.00D+00
 Coeff-Com: -0.137D-04 0.278D-04 0.448D-04 0.502D-04-0.322D-04-0.619D-03
 Coeff-Com: -0.177D-02-0.411D-02 0.414D-02 0.248D-01 0.206D-01-0.629D-01
 Coeff-Com: -0.802D-01-0.352D-01 0.394D+00 0.741D+00
 Coeff:     -0.137D-04 0.278D-04 0.448D-04 0.502D-04-0.322D-04-0.619D-03
 Coeff:     -0.177D-02-0.411D-02 0.414D-02 0.248D-01 0.206D-01-0.629D-01
 Coeff:     -0.802D-01-0.352D-01 0.394D+00 0.741D+00
 Gap=     0.121 Goal=   None    Shift=    0.000
 RMSDP=2.29D-08 MaxDP=1.63D-06 DE=-6.95D-10 OVMax= 1.41D-05

 Cycle  17  Pass 1  IDiag  1:
 RMSU=  1.05D-08    CP:  9.64D-01  1.50D+00  6.87D-01  6.28D-01  8.77D-01
                    CP:  9.10D-01  1.13D+00  1.35D+00  1.75D+00  2.23D+00
                    CP:  2.00D+00  1.99D+00  1.47D+00  1.34D+00  1.43D+00
                    CP:  1.23D+00
 E= -4069.81218380192     Delta-E=       -0.000000000124 Rises=F Damp=F
 DIIS: error= 1.21D-07 at cycle  17 NSaved=  17.
 NSaved=17 IEnMin=17 EnMin= -4069.81218380192     IErMin=17 ErrMin= 1.21D-07
 ErrMax= 1.21D-07  0.00D+00 EMaxC= 1.00D-01 BMatC= 1.94D-11 BMatP= 8.47D-11
 IDIUse=1 WtCom= 1.00D+00 WtEn= 0.00D+00
 Coeff-Com: -0.773D-05 0.151D-04 0.300D-04 0.438D-04 0.805D-04-0.146D-03
 Coeff-Com: -0.947D-03-0.292D-02 0.767D-04 0.101D-01 0.182D-01-0.934D-02
 Coeff-Com: -0.380D-01-0.101D+00-0.211D-01 0.311D+00 0.833D+00
 Coeff:     -0.773D-05 0.151D-04 0.300D-04 0.438D-04 0.805D-04-0.146D-03
 Coeff:     -0.947D-03-0.292D-02 0.767D-04 0.101D-01 0.182D-01-0.934D-02
 Coeff:     -0.380D-01-0.101D+00-0.211D-01 0.311D+00 0.833D+00
 Gap=     0.121 Goal=   None    Shift=    0.000
 RMSDP=1.35D-08 MaxDP=9.66D-07 DE=-1.24D-10 OVMax= 7.96D-06

 Cycle  18  Pass 1  IDiag  1:
 RMSU=  5.12D-09    CP:  9.64D-01  1.50D+00  6.87D-01  6.28D-01  8.77D-01
                    CP:  9.10D-01  1.13D+00  1.35D+00  1.75D+00  2.23D+00
                    CP:  2.00D+00  2.00D+00  1.49D+00  1.40D+00  1.60D+00
                    CP:  1.63D+00  1.36D+00
 E= -4069.81218380211     Delta-E=       -0.000000000196 Rises=F Damp=F
 DIIS: error= 5.80D-08 at cycle  18 NSaved=  18.
 NSaved=18 IEnMin=18 EnMin= -4069.81218380211     IErMin=18 ErrMin= 5.80D-08
 ErrMax= 5.80D-08  0.00D+00 EMaxC= 1.00D-01 BMatC= 7.54D-12 BMatP= 1.94D-11
 IDIUse=1 WtCom= 1.00D+00 WtEn= 0.00D+00
 Coeff-Com:  0.980D-06-0.229D-05-0.677D-06 0.341D-05 0.642D-04 0.144D-03
 Coeff-Com:  0.253D-03-0.118D-03-0.112D-02-0.438D-02 0.169D-02 0.170D-01
 Coeff-Com:  0.134D-01-0.391D-01-0.150D+00-0.139D+00 0.389D+00 0.912D+00
 Coeff:      0.980D-06-0.229D-05-0.677D-06 0.341D-05 0.642D-04 0.144D-03
 Coeff:      0.253D-03-0.118D-03-0.112D-02-0.438D-02 0.169D-02 0.170D-01
 Coeff:      0.134D-01-0.391D-01-0.150D+00-0.139D+00 0.389D+00 0.912D+00
 Gap=     0.121 Goal=   None    Shift=    0.000
 RMSDP=1.07D-08 MaxDP=7.27D-07 DE=-1.96D-10 OVMax= 6.98D-06

 Cycle  19  Pass 1  IDiag  1:
 RMSU=  3.13D-09    CP:  9.64D-01  1.50D+00  6.87D-01  6.28D-01  8.77D-01
                    CP:  9.10D-01  1.13D+00  1.35D+00  1.75D+00  2.23D+00
                    CP:  2.00D+00  2.00D+00  1.50D+00  1.44D+00  1.73D+00
                    CP:  1.92D+00  1.87D+00  1.24D+00
 E= -4069.81218380213     Delta-E=       -0.000000000022 Rises=F Damp=F
 DIIS: error= 4.34D-08 at cycle  19 NSaved=  19.
 NSaved=19 IEnMin=19 EnMin= -4069.81218380213     IErMin=19 ErrMin= 4.34D-08
 ErrMax= 4.34D-08  0.00D+00 EMaxC= 1.00D-01 BMatC= 2.42D-12 BMatP= 7.54D-12
 IDIUse=1 WtCom= 1.00D+00 WtEn= 0.00D+00
 Coeff-Com:  0.317D-05-0.643D-05-0.105D-04-0.127D-04 0.183D-04 0.137D-03
 Coeff-Com:  0.499D-03 0.853D-03-0.678D-03-0.660D-02-0.518D-02 0.139D-01
 Coeff-Com:  0.225D-01 0.898D-02-0.877D-01-0.202D+00-0.275D-01 0.563D+00
 Coeff-Com:  0.720D+00
 Coeff:      0.317D-05-0.643D-05-0.105D-04-0.127D-04 0.183D-04 0.137D-03
 Coeff:      0.499D-03 0.853D-03-0.678D-03-0.660D-02-0.518D-02 0.139D-01
 Coeff:      0.225D-01 0.898D-02-0.877D-01-0.202D+00-0.275D-01 0.563D+00
 Coeff:      0.720D+00
 Gap=     0.121 Goal=   None    Shift=    0.000
 RMSDP=5.86D-09 MaxDP=3.87D-07 DE=-2.18D-11 OVMax= 3.36D-06

 SCF Done:  E(RCAM-B3LYP) =  -4069.81218380     A.U. after   19 cycles
            NFock= 19  Conv=0.59D-08     -V/T= 2.0102
 KE= 4.028802179502D+03 PE=-3.937538109534D+04 EE= 1.632961893189D+04
 Leave Link  502 at Sat Sep 11 00:12:25 2021, MaxMem= 23488102400 cpu:           13724.4 elap:             596.1
 (Enter /sw/apps/gaussian-16.0/g16/l801.exe)
 DoSCS=F DFT=T ScalE2(SS,OS)=  1.000000  1.000000
 ExpMin= 3.36D-02 ExpMax= 4.95D+03 ExpMxC= 7.45D+02 IAcc=3 IRadAn=         5 AccDes= 0.00D+00
 HarFok:  IExCor=  205 AccDes= 0.00D+00 IRadAn=         5 IDoV=-2 UseB2=F ITyADJ=14
 ICtDFT= 12500011 ScaDFX=  1.000000  1.000000  1.000000  1.000000
 GSVD:  LWork=       -9588 too small for GESVD, short by       45590 words or       45590 for optimal perf.
 Largest valence mixing into a core orbital is  2.03D-04
 Largest core mixing into a valence orbital is  5.24D-05
 Range of M.O.s used for correlation:    95  1572
 NBasis=  1572 NAE=   312 NBE=   312 NFC=    94 NFV=     0
 NROrb=   1478 NOA=   218 NOB=   218 NVA=  1260 NVB=  1260
 Leave Link  801 at Sat Sep 11 00:12:26 2021, MaxMem= 23488102400 cpu:               8.4 elap:               0.4
 (Enter /sw/apps/gaussian-16.0/g16/l914.exe)
 RHF ground state
 Two-electron integrals replicated using symmetry.
 MDV= 23488102400 DFT=T DoStab=F Mixed=T DoRPA=T DoScal=F NonHer=T
 Making orbital integer symmetry assigments:
 Orbital symmetries:
       Occupied  (A) (A) (A) (A) (A) (A) (A) (A) (A) (A) (A) (A)
                 (A) (A) (A) (A) (A) (A) (A) (A) (A) (A) (A) (A)
                 (A) (A) (A) (A) (A) (A) (A) (A) (A) (A) (A) (A)
                 (A) (A) (A) (A) (A) (A) (A) (A) (A) (A) (A) (A)
                 (A) (A) (A) (A) (A) (A) (A) (A) (A) (A) (A) (A)
                 (A) (A) (A) (A) (A) (A) (A) (A) (A) (A) (A) (A)
                 (A) (A) (A) (A) (A) (A) (A) (A) (A) (A) (A) (A)
                 (A) (A) (A) (A) (A) (A) (A) (A) (A) (A) (A) (A)
                 (A) (A) (A) (A) (A) (A) (A) (A) (A) (A) (A) (A)
                 (A) (A) (A) (A) (A) (A) (A) (A) (A) (A) (A) (A)
                 (A) (A) (A) (A) (A) (A) (A) (A) (A) (A) (A) (A)
                 (A) (A) (A) (A) (A) (A) (A) (A) (A) (A) (A) (A)
                 (A) (A) (A) (A) (A) (A) (A) (A) (A) (A) (A) (A)
                 (A) (A) (A) (A) (A) (A) (A) (A) (A) (A) (A) (A)
                 (A) (A) (A) (A) (A) (A) (A) (A) (A) (A) (A) (A)
                 (A) (A) (A) (A) (A) (A) (A) (A) (A) (A) (A) (A)
                 (A) (A) (A) (A) (A) (A) (A) (A) (A) (A) (A) (A)
                 (A) (A) (A) (A) (A) (A) (A) (A) (A) (A) (A) (A)
                 (A) (A) (A) (A) (A) (A) (A) (A) (A) (A) (A) (A)
                 (A) (A) (A) (A) (A) (A) (A) (A) (A) (A) (A) (A)
                 (A) (A) (A) (A) (A) (A) (A) (A) (A) (A) (A) (A)
                 (A) (A) (A) (A) (A) (A) (A) (A) (A) (A) (A) (A)
                 (A) (A) (A) (A) (A) (A) (A) (A) (A) (A) (A) (A)
                 (A) (A) (A) (A) (A) (A) (A) (A) (A) (A) (A) (A)
                 (A) (A) (A) (A) (A) (A) (A) (A) (A) (A) (A) (A)
                 (A) (A) (A) (A) (A) (A) (A) (A) (A) (A) (A) (A)
       Virtual   (A) (A) (A) (A) (A) (A) (A) (A) (A) (A) (A) (A)
                 (A) (A) (A) (A) (A) (A) (A) (A) (A) (A) (A) (A)
                 (A) (A) (A) (A) (A) (A) (A) (A) (A) (A) (A) (A)
                 (A) (A) (A) (A) (A) (A) (A) (A) (A) (A) (A) (A)
                 (A) (A) (A) (A) (A) (A) (A) (A) (A) (A) (A) (A)
                 (A) (A) (A) (A) (A) (A) (A) (A) (A) (A) (A) (A)
                 (A) (A) (A) (A) (A) (A) (A) (A) (A) (A) (A) (A)
                 (A) (A) (A) (A) (A) (A) (A) (A) (A) (A) (A) (A)
                 (A) (A) (A) (A) (A) (A) (A) (A) (A) (A) (A) (A)
                 (A) (A) (A) (A) (A) (A) (A) (A) (A) (A) (A) (A)
                 (A) (A) (A) (A) (A) (A) (A) (A) (A) (A) (A) (A)
                 (A) (A) (A) (A) (A) (A) (A) (A) (A) (A) (A) (A)
                 (A) (A) (A) (A) (A) (A) (A) (A) (A) (A) (A) (A)
                 (A) (A) (A) (A) (A) (A) (A) (A) (A) (A) (A) (A)
                 (A) (A) (A) (A) (A) (A) (A) (A) (A) (A) (A) (A)
                 (A) (A) (A) (A) (A) (A) (A) (A) (A) (A) (A) (A)
                 (A) (A) (A) (A) (A) (A) (A) (A) (A) (A) (A) (A)
                 (A) (A) (A) (A) (A) (A) (A) (A) (A) (A) (A) (A)
                 (A) (A) (A) (A) (A) (A) (A) (A) (A) (A) (A) (A)
                 (A) (A) (A) (A) (A) (A) (A) (A) (A) (A) (A) (A)
                 (A) (A) (A) (A) (A) (A) (A) (A) (A) (A) (A) (A)
                 (A) (A) (A) (A) (A) (A) (A) (A) (A) (A) (A) (A)
                 (A) (A) (A) (A) (A) (A) (A) (A) (A) (A) (A) (A)
                 (A) (A) (A) (A) (A) (A) (A) (A) (A) (A) (A) (A)
                 (A) (A) (A) (A) (A) (A) (A) (A) (A) (A) (A) (A)
                 (A) (A) (A) (A) (A) (A) (A) (A) (A) (A) (A) (A)
                 (A) (A) (A) (A) (A) (A) (A) (A) (A) (A) (A) (A)
                 (A) (A) (A) (A) (A) (A) (A) (A) (A) (A) (A) (A)
                 (A) (A) (A) (A) (A) (A) (A) (A) (A) (A) (A) (A)
                 (A) (A) (A) (A) (A) (A) (A) (A) (A) (A) (A) (A)
                 (A) (A) (A) (A) (A) (A) (A) (A) (A) (A) (A) (A)
                 (A) (A) (A) (A) (A) (A) (A) (A) (A) (A) (A) (A)
                 (A) (A) (A) (A) (A) (A) (A) (A) (A) (A) (A) (A)
                 (A) (A) (A) (A) (A) (A) (A) (A) (A) (A) (A) (A)
                 (A) (A) (A) (A) (A) (A) (A) (A) (A) (A) (A) (A)
                 (A) (A) (A) (A) (A) (A) (A) (A) (A) (A) (A) (A)
                 (A) (A) (A) (A) (A) (A) (A) (A) (A) (A) (A) (A)
                 (A) (A) (A) (A) (A) (A) (A) (A) (A) (A) (A) (A)
                 (A) (A) (A) (A) (A) (A) (A) (A) (A) (A) (A) (A)
                 (A) (A) (A) (A) (A) (A) (A) (A) (A) (A) (A) (A)
                 (A) (A) (A) (A) (A) (A) (A) (A) (A) (A) (A) (A)
                 (A) (A) (A) (A) (A) (A) (A) (A) (A) (A) (A) (A)
                 (A) (A) (A) (A) (A) (A) (A) (A) (A) (A) (A) (A)
                 (A) (A) (A) (A) (A) (A) (A) (A) (A) (A) (A) (A)
                 (A) (A) (A) (A) (A) (A) (A) (A) (A) (A) (A) (A)
                 (A) (A) (A) (A) (A) (A) (A) (A) (A) (A) (A) (A)
                 (A) (A) (A) (A) (A) (A) (A) (A) (A) (A) (A) (A)
                 (A) (A) (A) (A) (A) (A) (A) (A) (A) (A) (A) (A)
                 (A) (A) (A) (A) (A) (A) (A) (A) (A) (A) (A) (A)
                 (A) (A) (A) (A) (A) (A) (A) (A) (A) (A) (A) (A)
                 (A) (A) (A) (A) (A) (A) (A) (A) (A) (A) (A) (A)
                 (A) (A) (A) (A) (A) (A) (A) (A) (A) (A) (A) (A)
                 (A) (A) (A) (A) (A) (A) (A) (A) (A) (A) (A) (A)
                 (A) (A) (A) (A) (A) (A) (A) (A) (A) (A) (A) (A)
                 (A) (A) (A) (A) (A) (A) (A) (A) (A) (A) (A) (A)
                 (A) (A) (A) (A) (A) (A) (A) (A) (A) (A) (A) (A)
                 (A) (A) (A) (A) (A) (A) (A) (A) (A) (A) (A) (A)
                 (A) (A) (A) (A) (A) (A) (A) (A) (A) (A) (A) (A)
                 (A) (A) (A) (A) (A) (A) (A) (A) (A) (A) (A) (A)
                 (A) (A) (A) (A) (A) (A) (A) (A) (A) (A) (A) (A)
                 (A) (A) (A) (A) (A) (A) (A) (A) (A) (A) (A) (A)
                 (A) (A) (A) (A) (A) (A) (A) (A) (A) (A) (A) (A)
                 (A) (A) (A) (A) (A) (A) (A) (A) (A) (A) (A) (A)
                 (A) (A) (A) (A) (A) (A) (A) (A) (A) (A) (A) (A)
                 (A) (A) (A) (A) (A) (A) (A) (A) (A) (A) (A) (A)
                 (A) (A) (A) (A) (A) (A) (A) (A) (A) (A) (A) (A)
                 (A) (A) (A) (A) (A) (A) (A) (A) (A) (A) (A) (A)
                 (A) (A) (A) (A) (A) (A) (A) (A) (A) (A) (A) (A)
                 (A) (A) (A) (A) (A) (A) (A) (A) (A) (A) (A) (A)
                 (A) (A) (A) (A) (A) (A) (A) (A) (A) (A) (A) (A)
                 (A) (A) (A) (A) (A) (A) (A) (A) (A) (A) (A) (A)
                 (A) (A) (A) (A) (A) (A) (A) (A) (A) (A) (A) (A)
                 (A) (A) (A) (A) (A) (A) (A) (A) (A) (A) (A) (A)
                 (A) (A) (A) (A) (A) (A) (A) (A) (A) (A) (A) (A)
                 (A) (A) (A) (A) (A) (A) (A) (A) (A) (A) (A) (A)
                 (A) (A) (A) (A) (A) (A) (A) (A) (A) (A) (A) (A)
                 (A) (A) (A) (A) (A) (A) (A) (A) (A) (A) (A) (A)
                 (A) (A) (A) (A) (A) (A) (A) (A) (A) (A) (A) (A)
                 (A) (A) (A) (A) (A) (A) (A) (A) (A) (A) (A) (A)
                 (A) (A) (A) (A) (A) (A) (A) (A) (A) (A) (A) (A)
                 (A) (A) (A) (A) (A) (A) (A) (A) (A) (A) (A) (A)
                 (A) (A) (A) (A) (A) (A) (A) (A) (A) (A) (A) (A)
                 (A) (A) (A) (A) (A) (A) (A) (A) (A) (A) (A) (A)
                 (A) (A) (A) (A) (A) (A) (A) (A) (A) (A) (A) (A)
                 (A) (A) (A) (A) (A) (A) (A) (A) (A) (A) (A) (A)
                 (A) (A) (A) (A) (A) (A) (A) (A) (A) (A) (A) (A)
                 (A) (A) (A) (A) (A) (A) (A) (A) (A) (A) (A) (A)
                 (A) (A) (A) (A) (A) (A) (A) (A) (A) (A) (A) (A)
                 (A) (A) (A) (A) (A) (A) (A) (A) (A) (A) (A) (A)
                 (A) (A) (A) (A) (A) (A) (A) (A) (A) (A) (A) (A)
                 (A) (A) (A) (A) (A) (A) (A) (A) (A) (A) (A) (A)
                 (A) (A) (A) (A) (A) (A) (A) (A) (A) (A) (A) (A)
                 (A) (A) (A) (A) (A) (A) (A) (A) (A) (A) (A) (A)
                 (A) (A) (A) (A) (A) (A) (A) (A) (A) (A) (A) (A)
                 (A) (A) (A) (A) (A) (A) (A) (A) (A) (A) (A) (A)
                 (A) (A) (A) (A) (A) (A) (A) (A) (A) (A) (A) (A)
                 (A) (A) (A) (A) (A) (A) (A) (A) (A) (A) (A) (A)
                 (A) (A) (A) (A) (A) (A) (A) (A) (A) (A) (A) (A)
                 (A) (A) (A) (A) (A) (A) (A) (A) (A) (A) (A) (A)
                 (A) (A) (A) (A) (A) (A) (A) (A) (A) (A) (A) (A)
                 (A) (A) (A) (A) (A) (A) (A) (A) (A) (A) (A) (A)
                 (A) (A) (A) (A) (A) (A) (A) (A) (A) (A) (A) (A)
                 (A) (A) (A) (A) (A) (A) (A) (A) (A) (A) (A) (A)
                 (A) (A) (A) (A) (A) (A) (A) (A) (A) (A) (A) (A)
                 (A) (A) (A) (A) (A) (A) (A) (A) (A) (A) (A) (A)
    20 initial guesses have been made.
 Convergence on wavefunction:    0.001000000000000
 Davidson Disk Diagonalization:  ConvIn= 1.00D-03 SkipCon=T Conv= 1.00D-03.
 Max sub-space:  2000 roots to seek:    20 dimension of matrix:       549360
 Iteration     1 Dimension    20 NMult     0 NNew     20
 CISAX will form    20 AO SS matrices at one time.
 NMat=    20 NSing=    20 JSym2X= 0.
 FoFJK:  IHMeth= 1 ICntrl=       0 DoSepK=T KAlg= 0 I1Cent=           0 FoldK=F
 IRaf=         1 NMat=      40 IRICut=       1 DoRegI=T DoRafI=F ISym2E= 0 IDoP0=3 IntGTp=3.
 FoFCou: FMM=T IPFlag=           0 FMFlag=      100000 FMFlg1=        2001
         NFxFlg=           0 DoJE=F BraDBF=F KetDBF=F FulRan=T
         wScrn=  0.000000 ICntrl=       500 IOpCl=  0 I1Cent=           0 NGrid=           0
         NMat0=   20 NMatS0=     20 NMatT0=    0 NMatD0=   20 NMtDS0=    0 NMtDT0=    0
 Symmetry not used in FoFCou.
 FMM levels:  10  Number of levels for PrismC:   9
 New state      2 was old state      7
 New state      3 was old state      6
 New state      5 was old state      2
 Excitation Energies [eV] at current iteration:
 Root      1 :     2.476351214781770
 Root      2 :     2.611276970679514
 Root      3 :     2.620299825174848
 Root      4 :     2.628739195644895
 Root      5 :     2.657909317516778
 Root      6 :     2.712992854349678
 Root      7 :     3.261890671536566
 Root      8 :     3.428427215673170
 Root      9 :     3.627996220154224
 Root     10 :     3.671025553688609
 Root     11 :     3.740447746395386
 Root     12 :     3.758116436104007
 Root     13 :     4.277761824474551
 Root     14 :     4.327635301418737
 Root     15 :     4.380837438922169
 Root     16 :     4.563172372266159
 Root     17 :     4.706543797508486
 Root     18 :     4.744011256750592
 Root     19 :     4.854527891659082
 Root     20 :     4.858683550923935
 Iteration     2 Dimension    30 NMult    20 NNew     10
 CISAX will form    10 AO SS matrices at one time.
 NMat=    10 NSing=    10 JSym2X= 0.
 New state      1 was old state      5
 Root      1 not converged, maximum delta is    0.192282993784227
 Root      2 not converged, maximum delta is    0.118644538315991
 Root      3 not converged, maximum delta is    0.125693006032342
 New state      4 was old state      1
 Root      4 not converged, maximum delta is    0.002252238046211
 New state      5 was old state      4
 Root      5 not converged, maximum delta is    0.004228721456494
 Excitation Energies [eV] at current iteration:
 Root      1 :     1.789221484427281   Change is   -0.868687833089496
 Root      2 :     2.212314054389203   Change is   -0.398962916290311
 Root      3 :     2.239096664144112   Change is   -0.381203161030736
 Root      4 :     2.475925184376448   Change is   -0.000426030405323
 Root      5 :     2.628197578899367   Change is   -0.000541616745528
 Iteration     3 Dimension    40 NMult    30 NNew     10
 CISAX will form    10 AO SS matrices at one time.
 NMat=    10 NSing=    10 JSym2X= 0.
 Root      1 not converged, maximum delta is    0.056399741771146
 Root      2 not converged, maximum delta is    0.272981110443635
 Root      3 not converged, maximum delta is    0.126160124796285
 No map to state      4
 New state      5 was old state      4
 Root      5 has converged.
 Excitation Energies [eV] at current iteration:
 Root      1 :     1.682999817892930   Change is   -0.106221666534352
 Root      2 :     1.989059113920665   Change is   -0.223254940468537
 Root      3 :     2.195011780795348   Change is   -0.044084883348764
 Root      4 :     2.280687655537980
 Root      5 :     2.475922636379284   Change is   -0.000002547997164
 Iteration     4 Dimension    48 NMult    40 NNew      8
 CISAX will form     8 AO SS matrices at one time.
 NMat=     8 NSing=     8 JSym2X= 0.
 Root      1 not converged, maximum delta is    0.012241576427776
 Root      2 not converged, maximum delta is    0.244835792970494
 Root      3 not converged, maximum delta is    0.283344159718693
 Root      4 not converged, maximum delta is    0.249409523992806
 Root      5 has converged.
 Excitation Energies [eV] at current iteration:
 Root      1 :     1.666280583502983   Change is   -0.016719234389946
 Root      2 :     1.718858225162924   Change is   -0.270200888757741
 Root      3 :     2.184567544679547   Change is   -0.010444236115800
 Root      4 :     2.197518786917417   Change is   -0.083168868620563
 Root      5 :     2.475922635720507   Change is   -0.000000000658777
 Iteration     5 Dimension    56 NMult    48 NNew      8
 CISAX will form     8 AO SS matrices at one time.
 NMat=     8 NSing=     8 JSym2X= 0.
 Root      1 not converged, maximum delta is    0.002702283529844
 Root      2 not converged, maximum delta is    0.016996184927350
 Root      3 not converged, maximum delta is    0.054187790915015
 Root      4 not converged, maximum delta is    0.053040568271443
 Root      5 has converged.
 Excitation Energies [eV] at current iteration:
 Root      1 :     1.664512192969653   Change is   -0.001768390533331
 Root      2 :     1.690654641609394   Change is   -0.028203583553530
 Root      3 :     2.183086078731400   Change is   -0.001481465948147
 Root      4 :     2.194661870206022   Change is   -0.002856916711395
 Root      5 :     2.475922635446352   Change is   -0.000000000274155
 Iteration     6 Dimension    64 NMult    56 NNew      8
 CISAX will form     8 AO SS matrices at one time.
 NMat=     8 NSing=     8 JSym2X= 0.
 Root      1 not converged, maximum delta is    0.002460841767894
 Root      2 not converged, maximum delta is    0.004004932437718
 Root      3 not converged, maximum delta is    0.005275799122064
 Root      4 not converged, maximum delta is    0.005339457512999
 Root      5 has converged.
 Excitation Energies [eV] at current iteration:
 Root      1 :     1.664258819611210   Change is   -0.000253373358443
 Root      2 :     1.687555177268532   Change is   -0.003099464340862
 Root      3 :     2.182884444018604   Change is   -0.000201634712797
 Root      4 :     2.194365709230327   Change is   -0.000296160975695
 Root      5 :     2.475922635154732   Change is   -0.000000000291620
 Iteration     7 Dimension    72 NMult    64 NNew      8
 CISAX will form     8 AO SS matrices at one time.
 NMat=     8 NSing=     8 JSym2X= 0.
 Root      1 has converged.
 Root      2 not converged, maximum delta is    0.001470543589744
 Root      3 has converged.
 Root      4 has converged.
 Root      5 has converged.
 Excitation Energies [eV] at current iteration:
 Root      1 :     1.664233858887358   Change is   -0.000024960723852
 Root      2 :     1.687179281587891   Change is   -0.000375895680641
 Root      3 :     2.182853557282959   Change is   -0.000030886735645
[...]
 Alpha virt. eigenvalues --    1.84441   1.84639   1.84753   1.84969   1.85032
 Alpha virt. eigenvalues --    1.85215   1.85252   1.85427   1.85462   1.85645
 Alpha virt. eigenvalues --    1.85809   1.86050   1.86311   1.86501   1.86512
 Alpha virt. eigenvalues --    1.86723   1.86787   1.86935   1.86957   1.87173
 Alpha virt. eigenvalues --    1.87374   1.87595   1.87640   1.87808   1.87920
 Alpha virt. eigenvalues --    1.87980   1.88140   1.88323   1.88474   1.88743
 Alpha virt. eigenvalues --    1.88753   1.89078   1.89118   1.89293   1.89578
 Alpha virt. eigenvalues --    1.89699   1.89798   1.89981   1.90054   1.90350
 Alpha virt. eigenvalues --    1.90670   1.91068   1.91267   1.91380   1.91548
 Alpha virt. eigenvalues --    1.91846   1.92087   1.92381   1.92513   1.92844
 Alpha virt. eigenvalues --    1.92926   1.93294   1.93301   1.93618   1.94224
 Alpha virt. eigenvalues --    1.94428   1.94640   1.94933   1.95436   1.95639
 Alpha virt. eigenvalues --    1.95699   1.95898   1.95996   1.96105   1.96207
 Alpha virt. eigenvalues --    1.96343   1.96529   1.96631   1.96838   1.97101
 Alpha virt. eigenvalues --    1.97385   1.97679   1.97776   1.97962   1.98088
 Alpha virt. eigenvalues --    1.98358   1.98524   1.98538   1.99052   1.99231
 Alpha virt. eigenvalues --    1.99723   2.00128   2.00606   2.00869   2.00911
 Alpha virt. eigenvalues --    2.01247   2.01354   2.01611   2.01615   2.01630
 Alpha virt. eigenvalues --    2.01769   2.02009   2.02706   2.02859   2.03175
 Alpha virt. eigenvalues --    2.03271   2.03315   2.03382   2.03537   2.03673
 Alpha virt. eigenvalues --    2.03955   2.04173   2.04905   2.05094   2.05459
 Alpha virt. eigenvalues --    2.05741   2.06017   2.06408   2.06784   2.07119
 Alpha virt. eigenvalues --    2.07204   2.07485   2.08551   2.08622   2.08911
 Alpha virt. eigenvalues --    2.09161   2.09499   2.09757   2.10746   2.11115
 Alpha virt. eigenvalues --    2.11133   2.11426   2.11541   2.11662   2.11715
 Alpha virt. eigenvalues --    2.12032   2.12378   2.12651   2.12745   2.12773
 Alpha virt. eigenvalues --    2.12940   2.13046   2.13647   2.13888   2.14097
 Alpha virt. eigenvalues --    2.14365   2.15272   2.15529   2.15842   2.16269
 Alpha virt. eigenvalues --    2.16476   2.16691   2.16749   2.17304   2.17345
 Alpha virt. eigenvalues --    2.17643   2.17751   2.18020   2.18105   2.18161
 Alpha virt. eigenvalues --    2.18222   2.18760   2.18844   2.19438   2.19553
 Alpha virt. eigenvalues --    2.19955   2.19996   2.20136   2.20389   2.20613
 Alpha virt. eigenvalues --    2.21122   2.21264   2.21606   2.21657   2.21901
 Alpha virt. eigenvalues --    2.22007   2.22619   2.22868   2.23258   2.23461
 Alpha virt. eigenvalues --    2.24346   2.24524   2.24933   2.25094   2.26200
 Alpha virt. eigenvalues --    2.26604   2.26717   2.27011   2.27150   2.27360
 Alpha virt. eigenvalues --    2.28059   2.28539   2.29209   2.29605   2.29649
 Alpha virt. eigenvalues --    2.30054   2.30355   2.30818   2.30972   2.31017
 Alpha virt. eigenvalues --    2.31080   2.31337   2.32071   2.32350   2.33047
 Alpha virt. eigenvalues --    2.33384   2.33410   2.33618   2.34078   2.34292
 Alpha virt. eigenvalues --    2.35246   2.35460   2.35716   2.36102   2.36317
 Alpha virt. eigenvalues --    2.36462   2.36543   2.36558   2.37620   2.37785
 Alpha virt. eigenvalues --    2.38217   2.38474   2.38748   2.38993   2.39539
 Alpha virt. eigenvalues --    2.39811   2.40121   2.40378   2.40391   2.41024
 Alpha virt. eigenvalues --    2.41156   2.41402   2.41637   2.41805   2.41929
 Alpha virt. eigenvalues --    2.42280   2.42907   2.42911   2.43234   2.43347
 Alpha virt. eigenvalues --    2.44073   2.44109   2.44660   2.44825   2.44938
 Alpha virt. eigenvalues --    2.45154   2.45491   2.45698   2.46255   2.46406
 Alpha virt. eigenvalues --    2.46409   2.46607   2.46716   2.46941   2.47188
 Alpha virt. eigenvalues --    2.47486   2.47648   2.48001   2.49267   2.49475
 Alpha virt. eigenvalues --    2.49991   2.50031   2.50512   2.50559   2.51017
 Alpha virt. eigenvalues --    2.51436   2.51720   2.51791   2.52326   2.52573
 Alpha virt. eigenvalues --    2.52726   2.53358   2.53859   2.54090   2.54113
 Alpha virt. eigenvalues --    2.54350   2.54724   2.54920   2.55464   2.55781
 Alpha virt. eigenvalues --    2.57806   2.58200   2.58585   2.59053   2.60098
 Alpha virt. eigenvalues --    2.60473   2.60512   2.61118   2.61654   2.61947
 Alpha virt. eigenvalues --    2.62443   2.62569   2.62879   2.63261   2.63858
 Alpha virt. eigenvalues --    2.64206   2.64409   2.64517   2.65008   2.65236
 Alpha virt. eigenvalues --    2.65685   2.66046   2.66727   2.66845   2.66924
 Alpha virt. eigenvalues --    2.67238   2.67846   2.68133   2.68772   2.68926
 Alpha virt. eigenvalues --    2.68927   2.69195   2.69335   2.69748   2.69926
 Alpha virt. eigenvalues --    2.70261   2.70897   2.71239   2.71948   2.72016
 Alpha virt. eigenvalues --    2.72552   2.72621   2.72679   2.72912   2.73235
 Alpha virt. eigenvalues --    2.73358   2.73373   2.73609   2.74433   2.74623
 Alpha virt. eigenvalues --    2.74891   2.75183   2.76533   2.76636   2.77145
 Alpha virt. eigenvalues --    2.77183   2.77386   2.77718   2.78138   2.78370
 Alpha virt. eigenvalues --    2.78625   2.78798   2.79056   2.79298   2.80263
 Alpha virt. eigenvalues --    2.80332   2.80470   2.80823   2.81033   2.81252
 Alpha virt. eigenvalues --    2.81849   2.82119   2.82280   2.82453   2.83647
 Alpha virt. eigenvalues --    2.83716   2.83917   2.84028   2.84488   2.84609
 Alpha virt. eigenvalues --    2.84833   2.84971   2.85613   2.85772   2.86760
 Alpha virt. eigenvalues --    2.86903   2.87314   2.87462   2.88102   2.88306
 Alpha virt. eigenvalues --    2.88444   2.88730   2.88868   2.88960   2.90407
 Alpha virt. eigenvalues --    2.90813   2.91140   2.91190   2.93066   2.93468
 Alpha virt. eigenvalues --    2.93896   2.94130   2.94515   2.94640   2.95249
 Alpha virt. eigenvalues --    2.95677   2.96001   2.96038   2.96374   2.96480
 Alpha virt. eigenvalues --    2.97019   2.97030   2.97682   2.98094   2.98139
 Alpha virt. eigenvalues --    2.98307   2.98535   2.98537   2.98711   2.98826
 Alpha virt. eigenvalues --    2.98904   2.99022   2.99551   2.99859   2.99900
 Alpha virt. eigenvalues --    3.00141   3.00159   3.00363   3.00413   3.01178
 Alpha virt. eigenvalues --    3.01938   3.01955   3.02040   3.02291   3.02586
 Alpha virt. eigenvalues --    3.02868   3.02926   3.03275   3.03469   3.03928
 Alpha virt. eigenvalues --    3.04120   3.04245   3.04394   3.04493   3.04549
 Alpha virt. eigenvalues --    3.04813   3.05260   3.05431   3.06040   3.06277
 Alpha virt. eigenvalues --    3.06694   3.07113   3.08000   3.08104   3.09286
 Alpha virt. eigenvalues --    3.09417   3.09601   3.10353   3.10634   3.10920
 Alpha virt. eigenvalues --    3.11291   3.11551   3.11821   3.11961   3.12157
 Alpha virt. eigenvalues --    3.12496   3.13181   3.13598   3.13753   3.13806
 Alpha virt. eigenvalues --    3.13931   3.14622   3.15899   3.16039   3.17194
 Alpha virt. eigenvalues --    3.17617   3.17920   3.18037   3.19077   3.19101
 Alpha virt. eigenvalues --    3.22137   3.22725   3.23875   3.24540   3.24571
 Alpha virt. eigenvalues --    3.25296   3.26437   3.26757   3.27506   3.27545
 Alpha virt. eigenvalues --    3.28921   3.29352   3.31450   3.31482   3.33288
 Alpha virt. eigenvalues --    3.33354   3.40402   3.40429   3.42765   3.42880
 Alpha virt. eigenvalues --    3.48579   3.48796   3.49955   3.50390   3.50951
 Alpha virt. eigenvalues --    3.51409   3.56490   3.57091   3.59045   3.59428
 Alpha virt. eigenvalues --    3.62610   3.62760   3.66140   3.66146   3.67003
 Alpha virt. eigenvalues --    3.67678   3.73109   3.74140   3.75919   3.76792
          Condensed to atoms (all electrons):
 Mulliken charges:
               1
     1  Mg   0.838622
     2  C   -0.003627
     3  C   -0.094306
     4  C   -0.045700
     5  C   -0.063489
     6  N   -0.256764
     7  C   -0.052736
     8  C   -0.014013
     9  C   -0.086974
    10  C    0.046151
    11  C    0.104748
    12  C    0.053624
    13  C   -0.071231
    14  H    0.033884
    15  N   -0.433197
    16  C    0.168509
    17  C   -0.176942
    18  C   -0.003723
    19  C    0.148709
    20  C    0.110063
    21  C    0.012378
    22  O   -0.249610
    23  C    0.062336
    24  N   -0.341082
    25  C    0.041331
    26  C   -0.028235
    27  C   -0.024028
    28  C    0.074699
    29  C    0.076116
    30  C    0.035032
    31  C   -0.004599
    32  N   -0.310399
    33  C    0.080207
    34  C   -0.169423
    35  C    0.008173
    36  C    0.082752
    37  C    0.127310
    38  C    0.045757
    39  O   -0.188722
    40  C   -0.005292
    41  C    0.213148
    42  O   -0.258898
    43  O   -0.304220
    44  C    0.158176
    45  H   -0.017496
    46  H   -0.016644
    47  H   -0.040865
    48  H    0.000934
    49  H   -0.004207
    50  H    0.025549
    51  H    0.016800
    52  H    0.016780
    53  H    0.011128
    54  H    0.042769
    55  H    0.018535
    56  H    0.018203
    57  H    0.005738
    58  H    0.027066
    59  H    0.040105
    60  H    0.037436
    61  H    0.035845
    62  H    0.032077
    63  H    0.016544
    64  H    0.009731
    65  H    0.023351
    66  H    0.012533
    67  H    0.005026
    68  H    0.006523
    69  H    0.005429
    70  H    0.008233
    71  H    0.019066
    72  H    0.028764
    73  H    0.047686
    74  H    0.009835
    75  H    0.046109
    76  H    0.035408
    77  H    0.043382
    78  H    0.046329
    79  H    0.051789
    80  Mg   0.837831
    81  C   -0.016802
    82  C   -0.087524
    83  C   -0.046217
    84  C   -0.065195
    85  N   -0.254889
    86  C   -0.048729
    87  C   -0.015315
    88  C   -0.090730
    89  C    0.046201
    90  C    0.114825
    91  C    0.062436
    92  C   -0.077711
    93  H    0.033679
    94  N   -0.423454
    95  C    0.162896
    96  C   -0.174914
    97  C   -0.008539
    98  C    0.152301
    99  C    0.099638
   100  C    0.014998
   101  O   -0.253920
   102  C    0.061405
   103  N   -0.350120
   104  C    0.037662
   105  C   -0.019804
   106  C   -0.034787
   107  C    0.089032
   108  C    0.073659
   109  C    0.034838
   110  C   -0.007567
   111  N   -0.324121
   112  C    0.078661
   113  C   -0.163501
   114  C    0.002354
   115  C    0.096197
   116  C    0.131525
   117  C    0.042171
   118  O   -0.188169
   119  C    0.001065
   120  C    0.211111
   121  O   -0.251574
   122  O   -0.304924
   123  C    0.152273
   124  H   -0.019086
   125  H   -0.016445
   126  H   -0.040962
   127  H    0.001183
   128  H   -0.005262
   129  H    0.025265
   130  H    0.014054
   131  H    0.020750
   132  H    0.013169
   133  H    0.036995
   134  H    0.022415
   135  H    0.019144
   136  H    0.009023
   137  H    0.024932
   138  H    0.039238
   139  H    0.037542
   140  H    0.035656
   141  H    0.033974
   142  H    0.013892
   143  H    0.012596
   144  H    0.024320
   145  H    0.011150
   146  H    0.006621
   147  H    0.005952
   148  H    0.003448
   149  H    0.010649
   150  H    0.017560
   151  H    0.030306
   152  H    0.045706
   153  H    0.008181
   154  H    0.046427
   155  H    0.036738
   156  H    0.043842
   157  H    0.049832
   158  H    0.052942
 Sum of Mulliken charges =  -0.00000
 Mulliken charges with hydrogens summed into heavy atoms:
               1
     1  Mg   0.838622
     2  C   -0.003627
     3  C   -0.111802
     4  C   -0.062344
     5  C   -0.104353
     6  N   -0.256764
     7  C   -0.052736
     8  C   -0.013079
     9  C   -0.091180
    10  C    0.046151
    11  C    0.163877
    12  C    0.107520
    13  C   -0.000609
    15  N   -0.433197
    16  C    0.168509
    17  C   -0.176942
    18  C   -0.003723
    19  C    0.148709
    20  C    0.182971
    21  C    0.012378
    22  O   -0.249610
    23  C    0.167694
    24  N   -0.341082
    25  C    0.041331
    26  C   -0.011691
    27  C   -0.014297
    28  C    0.074699
    29  C    0.117026
    30  C    0.046983
    31  C    0.051464
    32  N   -0.310399
    33  C    0.080207
    34  C   -0.169423
    35  C    0.008173
    36  C    0.082752
    37  C    0.230940
    38  C    0.045757
    39  O   -0.188722
    40  C    0.030116
    41  C    0.213148
    42  O   -0.258898
    43  O   -0.304220
    44  C    0.299675
    80  Mg   0.837831
    81  C   -0.016802
    82  C   -0.106610
    83  C   -0.062662
    84  C   -0.106157
    85  N   -0.254889
    86  C   -0.048729
    87  C   -0.014132
    88  C   -0.095992
    89  C    0.046201
    90  C    0.174894
    91  C    0.112601
    92  C   -0.002473
    94  N   -0.423454
    95  C    0.162896
    96  C   -0.174914
    97  C   -0.008539
    98  C    0.152301
    99  C    0.172830
   100  C    0.014998
   101  O   -0.253920
   102  C    0.168577
   103  N   -0.350120
   104  C    0.037662
   105  C   -0.005912
   106  C   -0.022191
   107  C    0.089032
   108  C    0.115750
   109  C    0.044238
   110  C    0.050949
   111  N   -0.324121
   112  C    0.078661
   113  C   -0.163501
   114  C    0.002354
   115  C    0.096197
   116  C    0.231840
   117  C    0.042171
   118  O   -0.188169
   119  C    0.037803
   120  C    0.211111
   121  O   -0.251574
   122  O   -0.304924
   123  C    0.298889
 Electronic spatial extent (au):  <R**2>=         114912.6372
 Charge=             -0.0000 electrons
 Dipole moment (field-independent basis, Debye):
    X=             -4.9754    Y=              1.8773    Z=              6.2014  Tot=              8.1692
 Quadrupole moment (field-independent basis, Debye-Ang):
   XX=           -518.3281   YY=           -529.6550   ZZ=           -470.4709
   XY=            -12.3587   XZ=              1.2711   YZ=            -29.1478
 Traceless Quadrupole moment (field-independent basis, Debye-Ang):
   XX=            -12.1768   YY=            -23.5037   ZZ=             35.6804
   XY=            -12.3587   XZ=              1.2711   YZ=            -29.1478
 Octapole moment (field-independent basis, Debye-Ang**2):
  XXX=           -447.2423  YYY=           -156.8944  ZZZ=            140.3117  XYY=            216.6330
  XXY=             80.8463  XXZ=            268.3707  XZZ=           -220.0342  YZZ=            -27.8122
  YYZ=             82.8980  XYZ=           -223.1276
 Hexadecapole moment (field-independent basis, Debye-Ang**3):
 XXXX=         -91317.1072 YYYY=         -38771.2760 ZZZZ=         -27151.1182 XXXY=             -7.9215
 XXXZ=           -169.8148 YYYX=          -1808.6261 YYYZ=           -310.8846 ZZZX=           1095.5534
 ZZZY=           -683.4284 XXYY=         -21410.6117 XXZZ=         -18905.9267 YYZZ=         -11142.3169
 XXYZ=           -681.0880 YYXZ=          -1581.7987 ZZXY=            398.7861
 N-N= 1.494714780014D+04 E-N=-3.937538108570D+04  KE= 4.028802179502D+03
 Leave Link  601 at Sat Sep 11 00:37:50 2021, MaxMem= 23488102400 cpu:              14.5 elap:               0.7
 (Enter /sw/apps/gaussian-16.0/g16/l9999.exe)
 1\1\GINC-BP1-COMPUTE00090\SP\RCAM-B3LYP TD-FC\def2SVP\C68H72Mg2N8O8\OF
 15641\11-Sep-2021\0\\#p cam-b3lyp/Def2SVP td=(nstates=5)\\TDDFT excite
 d states in gaussian\\0,1\Mg,0,0.,0.,0.\C,0,-0.217,-2.218,2.801\C,0,-1
 .255,2.442,2.026\C,0,-0.245,1.85,-2.564\C,0,0.146,-2.824,-2.037\N,0,-0
 .617,-0.009,2.126\C,0,-0.594,-0.908,3.105\C,0,-0.936,-0.309,4.502\C,0,
 -1.773,0.964,4.032\C,0,-1.155,1.168,2.66\C,0,-3.263,0.685,3.863\C,0,0.
 345,0.11,5.299\C,0,0.124,0.397,6.787\H,0,1.168,0.033,7.733\N,0,-0.185,
 1.961,-0.152\C,0,-0.703,2.8,0.777\C,0,-0.62,4.156,0.193\C,0,-0.187,4.0
 15,-1.225\C,0,-0.214,2.583,-1.38\C,0,-0.887,5.406,0.974\C,0,0.181,5.01
 3,-2.277\O,0,0.303,4.69,-3.508\C,0,0.31,6.414,-1.837\N,0,-0.265,-0.413
 ,-2.029\C,0,-0.279,0.569,-2.937\C,0,-0.196,0.024,-4.332\C,0,0.124,-1.5
 33,-4.18\C,0,0.086,-1.632,-2.635\C,0,-1.451,0.205,-5.197\C,0,1.373,-2.
 07,-4.923\C,0,2.626,-1.49,-4.306\N,0,0.15,-2.144,0.303\C,0,0.173,-3.13
 6,-0.688\C,0,0.173,-4.438,0.004\C,0,0.133,-4.111,1.358\C,0,0.083,-2.69
 5,1.502\C,0,0.149,-5.715,-0.623\C,0,0.096,-4.629,2.716\O,0,0.208,-5.74
 7,3.221\C,0,-0.255,-3.428,3.701\C,0,0.717,-3.482,4.848\O,0,1.931,-3.25
 5,4.669\O,0,0.038,-3.556,6.003\C,0,0.943,-3.583,7.183\H,0,-1.859,3.22,
 2.497\H,0,-0.218,2.453,-3.474\H,0,0.276,-3.747,-2.605\H,0,-1.554,-0.94
 9,5.132\H,0,-1.585,1.831,4.665\H,0,-3.484,-0.377,3.969\H,0,-3.511,1.02
 7,2.858\H,0,-3.852,1.301,4.543\H,0,0.669,1.096,4.966\H,0,1.13,-0.639,5
 .189\H,0,-0.844,0.026,7.125\H,0,0.062,1.477,6.921\H,0,-1.344,5.186,1.9
 38\H,0,-1.651,5.963,0.432\H,0,0.007,6.02,1.084\H,0,-0.635,6.744,-1.405
 \H,0,0.665,6.97,-2.704\H,0,1.048,6.466,-1.036\H,0,0.608,0.501,-4.891\H
 ,0,-0.692,-2.156,-4.547\H,0,-1.267,0.74,-6.129\H,0,-2.204,0.714,-4.596
 \H,0,-1.967,-0.72,-5.453\H,0,1.356,-1.759,-5.967\H,0,1.452,-3.157,-4.9
 02\H,0,2.714,-0.522,-4.798\H,0,3.487,-2.121,-4.529\H,0,2.495,-1.303,-3
 .24\H,0,0.867,-6.333,-0.084\H,0,0.404,-5.642,-1.68\H,0,-0.891,-5.999,-
 0.463\H,0,-1.283,-3.581,4.028\H,0,0.698,-4.478,7.755\H,0,0.833,-2.619,
 7.68\H,0,2.,-3.754,6.976\Mg,0,10.51775,0.94416,0.80621\C,0,10.64484,-2
 .63879,0.64693\C,0,9.42031,0.61337,4.01881\C,0,9.96538,4.06851,0.83418
 \C,0,10.51192,0.96029,-2.67882\N,0,10.12379,-0.83532,2.0594\C,0,10.266
 73,-2.14388,1.91245\C,0,10.06673,-2.96311,3.21568\C,0,9.14685,-1.91901
 ,4.01727\C,0,9.61194,-0.62418,3.3541\C,0,7.66216,-2.0901,3.742\C,0,11.
 41829,-3.23191,3.96606\C,0,11.33987,-4.28297,5.07551\H,0,12.49113,-5.1
 5523,5.29056\N,0,10.27342,2.19155,2.33032\C,0,9.84143,1.88497,3.57155\
 C,0,9.81638,3.15479,4.3139\C,0,10.11114,4.26035,3.3623\C,0,10.10748,3.
 53587,2.10723\C,0,9.61088,3.22508,5.79925\C,0,10.34355,5.72909,3.5494\
 O,0,10.34656,6.54195,2.55841\C,0,10.47449,6.20073,4.93573\N,0,10.06051
 ,2.30865,-0.69428\C,0,9.92208,3.6176,-0.41966\C,0,9.86955,4.43811,-1.6
 8631\C,0,10.24596,3.42854,-2.86811\C,0,10.3692,2.12143,-2.05468\C,0,8.
 52776,5.10281,-1.99317\C,0,11.42443,3.83686,-3.79394\C,0,12.72198,3.81
 329,-3.01859\N,0,10.75354,-0.52918,-0.75639\C,0,10.69116,-0.31168,-2.1
 5027\C,0,10.79502,-1.63328,-2.80221\C,0,10.8882,-2.53728,-1.73329\C,0,
 10.82513,-1.83092,-0.5018\C,0,10.74696,-1.87542,-4.20405\C,0,11.0149,-
 3.92947,-1.36658\O,0,11.19844,-4.97735,-1.98464\C,0,10.73576,-4.06894,
 0.19195\C,0,11.82209,-4.9247,0.78363\O,0,13.00076,-4.52835,0.79962\O,0
 ,11.26217,-5.96691,1.42447\C,0,12.2992,-6.83895,2.0376\H,0,8.85698,0.6
 191,4.95235\H,0,9.88321,5.15676,0.78486\H,0,10.61637,0.8896,-3.76361\H
 ,0,9.53923,-3.90056,3.0865\H,0,9.38806,-1.91262,5.07705\H,0,7.47797,-2
 .81099,2.95935\H,0,7.3029,-1.11254,3.44815\H,0,7.13373,-2.34005,4.6664
 5\H,0,11.67855,-2.34809,4.56261\H,0,12.19314,-3.49549,3.2727\H,0,10.41
 632,-4.87204,5.02072\H,0,11.2728,-3.76824,6.03706\H,0,9.2555,2.26852,6
 .20188\H,0,8.78143,3.91865,5.97483\H,0,10.4936,3.58827,6.32988\H,0,9.5
 7433,5.94642,5.49025\H,0,10.72485,7.26076,4.86136\H,0,11.30063,5.66126
 ,5.41225\H,0,10.6006,5.23685,-1.66026\H,0,9.40729,3.28678,-3.56551\H,0
 ,8.60083,6.20072,-2.10862\H,0,7.83263,4.84887,-1.20396\H,0,8.01845,4.7
 2762,-2.87919\H,0,11.29169,4.8629,-4.14575\H,0,11.52332,3.20595,-4.670
 96\H,0,12.72879,4.78678,-2.51923\H,0,13.5695,3.70979,-3.69315\H,0,12.7
 0063,3.04303,-2.23892\H,0,11.52436,-2.59545,-4.42246\H,0,10.88394,-0.9
 5701,-4.77109\H,0,9.73145,-2.26905,-4.29929\H,0,9.74971,-4.52012,0.309
 06\H,0,12.13366,-7.85043,1.65394\H,0,12.2046,-6.69283,3.13005\H,0,13.3
 3027,-6.66977,1.74999\\Version=ES64L-G16RevA.03\State=1-A\HF=-4069.812
 1838\RMSD=5.865e-09\PG=C01 [X(C68H72Mg2N8O8)]\\@


 THE GREAT THING ABOUT BEING IMPERFECT IS THE JOY IT BRINGS OTHERS.
   -- SIGN OUTSIDE LAKE AGASSIZ JR. HIGH SCHOOL, FARGO, N.D.
 Job cpu time:       0 days 13 hours 58 minutes 35.0 seconds.
 Elapsed time:       0 days  0 hours 35 minutes 35.0 seconds.
 File lengths (MBytes):  RWF=  13225 Int=      0 D2E=      0 Chk=    574 Scr=      1
 Normal termination of Gaussian 16 at Sat Sep 11 00:37:51 2021.
