 Entering Gaussian System, Link 0=g16
 Initial command:
 /sw/apps/gaussian-16.0/g16/l1.exe "/tmp/Gau-165521.inp" -scrdir="/tmp/"
 Entering Link 1 = /sw/apps/gaussian-16.0/g16/l1.exe PID=    165522.
  
 Copyright (c) 1988,1990,1992,1993,1995,1998,2003,2009,2016,
            Gaussian, Inc.  All Rights Reserved.
  
 This is part of the Gaussian(R) 16 program.  It is based on
 the Gaussian(R) 09 system (copyright 2009, Gaussian, Inc.),
 the Gaussian(R) 03 system (copyright 2003, Gaussian, Inc.),
 the Gaussian(R) 98 system (copyright 1998, Gaussian, Inc.),
 the Gaussian(R) 94 system (copyright 1995, Gaussian, Inc.),
 the Gaussian 92(TM) system (copyright 1992, Gaussian, Inc.),
 the Gaussian 90(TM) system (copyright 1990, Gaussian, Inc.),
 the Gaussian 88(TM) system (copyright 1988, Gaussian, Inc.),
 the Gaussian 86(TM) system (copyright 1986, Carnegie Mellon
 University), and the Gaussian 82(TM) system (copyright 1983,
 Carnegie Mellon University). Gaussian is a federally registered
 trademark of Gaussian, Inc.
  
 This software contains proprietary and confidential information,
 including trade secrets, belonging to Gaussian, Inc.
  
 This software is provided under written license and may be
 used, copied, transmitted, or stored only in accord with that
 written license.
  
 The following legend is applicable only to US Government
 contracts under FAR:
  
                    RESTRICTED RIGHTS LEGEND
  
 Use, reproduction and disclosure by the US Government is
 subject to restrictions as set forth in subparagraphs (a)
 and (c) of the Commercial Computer Software - Restricted
 Rights clause in FAR 52.227-19.
  
 Gaussian, Inc.
 340 Quinnipiac St., Bldg. 40, Wallingford CT 06492
  
  
 ---------------------------------------------------------------
 Warning -- This program may not be used in any manner that
 competes with the business of Gaussian, Inc. or will provide
 assistance to any competitor of Gaussian, Inc.  The licensee
 of this program is prohibited from giving any competitor of
 Gaussian, Inc. access to this program.  By using this program,
 the user acknowledges that Gaussian, Inc. is engaged in the
 business of creating and licensing software in the field of
 computational chemistry and represents and warrants to the
 licensee that it is not a competitor of Gaussian, Inc. and that
 it will not use this program in any manner prohibited above.
 ---------------------------------------------------------------
  

 Cite this work as:
 Gaussian 16, Revision A.03,
 M. J. Frisch, G. W. Trucks, H. B. Schlegel, G. E. Scuseria, 
 M. A. Robb, J. R. Cheeseman, G. Scalmani, V. Barone, 
 G. A. Petersson, H. Nakatsuji, X. Li, M. Caricato, A. V. Marenich, 
 J. Bloino, B. G. Janesko, R. Gomperts, B. Mennucci, H. P. Hratchian, 
 J. V. Ortiz, A. F. Izmaylov, J. L. Sonnenberg, D. Williams-Young, 
 F. Ding, F. Lipparini, F. Egidi, J. Goings, B. Peng, A. Petrone, 
 T. Henderson, D. Ranasinghe, V. G. Zakrzewski, J. Gao, N. Rega, 
 G. Zheng, W. Liang, M. Hada, M. Ehara, K. Toyota, R. Fukuda, 
 J. Hasegawa, M. Ishida, T. Nakajima, Y. Honda, O. Kitao, H. Nakai, 
 T. Vreven, K. Throssell, J. A. Montgomery, Jr., J. E. Peralta, 
 F. Ogliaro, M. J. Bearpark, J. J. Heyd, E. N. Brothers, K. N. Kudin, 
 V. N. Staroverov, T. A. Keith, R. Kobayashi, J. Normand, 
 K. Raghavachari, A. P. Rendell, J. C. Burant, S. S. Iyengar, 
 J. Tomasi, M. Cossi, J. M. Millam, M. Klene, C. Adamo, R. Cammi, 
 J. W. Ochterski, R. L. Martin, K. Morokuma, O. Farkas, 
 J. B. Foresman, and D. J. Fox, Gaussian, Inc., Wallingford CT, 2016.
 
 ******************************************
 Gaussian 16:  ES64L-G16RevA.03 25-Dec-2016
                12-Sep-2021 
 ******************************************
 %nproc=24
 Will use up to   24 processors via shared memory.
 %mem=175gb
 -----------------------------------
 #p cam-b3lyp/Def2SVP td=(nstates=5)
 -----------------------------------
 1/38=1,172=1/1;
 2/12=2,17=6,18=5,40=1/2;
 3/5=43,7=101,11=9,25=1,30=1,74=-40/1,2,3,8;
 4//1;
 5/5=2,38=5/2;
 8/6=1,10=1,108=5/1;
 9/41=5,42=1,70=2/14;
 6/7=2,8=2,9=2,10=2/1;
 99/5=1,9=1/99;
 Leave Link    1 at Sun Sep 12 02:23:52 2021, MaxMem= 23488102400 cpu:               0.9 elap:               0.0
 (Enter /sw/apps/gaussian-16.0/g16/l101.exe)
 --------------------------------
 TDDFT excited states in gaussian
 --------------------------------
 Symbolic Z-matrix:
 Charge =  0 Multiplicity = 1
 Mg                    0.        0.        0. 
 C                    -0.217    -2.218     2.801 
 C                    -1.255     2.442     2.026 
 C                    -0.245     1.85     -2.564 
 C                     0.146    -2.824    -2.037 
 N                    -0.617    -0.009     2.126 
 C                    -0.594    -0.908     3.105 
 C                    -0.936    -0.309     4.502 
 C                    -1.773     0.964     4.032 
 C                    -1.155     1.168     2.66 
 C                    -3.263     0.685     3.863 
 C                     0.345     0.11      5.299 
 C                     0.124     0.397     6.787 
 H                     1.168     0.033     7.733 
 N                    -0.185     1.961    -0.152 
 C                    -0.703     2.8       0.777 
 C                    -0.62      4.156     0.193 
 C                    -0.187     4.015    -1.225 
 C                    -0.214     2.583    -1.38 
 C                    -0.887     5.406     0.974 
 C                     0.181     5.013    -2.277 
 O                     0.303     4.69     -3.508 
 C                     0.31      6.414    -1.837 
 N                    -0.265    -0.413    -2.029 
 C                    -0.279     0.569    -2.937 
 C                    -0.196     0.024    -4.332 
 C                     0.124    -1.533    -4.18 
 C                     0.086    -1.632    -2.635 
 C                    -1.451     0.205    -5.197 
 C                     1.373    -2.07     -4.923 
 C                     2.626    -1.49     -4.306 
 N                     0.15     -2.144     0.303 
 C                     0.173    -3.136    -0.688 
 C                     0.173    -4.438     0.004 
 C                     0.133    -4.111     1.358 
 C                     0.083    -2.695     1.502 
 C                     0.149    -5.715    -0.623 
 C                     0.096    -4.629     2.716 
 O                     0.208    -5.747     3.221 
 C                    -0.255    -3.428     3.701 
 C                     0.717    -3.482     4.848 
 O                     1.931    -3.255     4.669 
 O                     0.038    -3.556     6.003 
 C                     0.943    -3.583     7.183 
 H                    -1.859     3.22      2.497 
 H                    -0.218     2.453    -3.474 
 H                     0.276    -3.747    -2.605 
 H                    -1.554    -0.949     5.132 
 H                    -1.585     1.831     4.665 
 H                    -3.484    -0.377     3.969 
 H                    -3.511     1.027     2.858 
 H                    -3.852     1.301     4.543 
 H                     0.669     1.096     4.966 
 H                     1.13     -0.639     5.189 
 H                    -0.844     0.026     7.125 
 H                     0.062     1.477     6.921 
 H                    -1.344     5.186     1.938 
 H                    -1.651     5.963     0.432 
 H                     0.007     6.02      1.084 
 H                    -0.635     6.744    -1.405 
 H                     0.665     6.97     -2.704 
 H                     1.048     6.466    -1.036 
 H                     0.608     0.501    -4.891 
 H                    -0.692    -2.156    -4.547 
 H                    -1.267     0.74     -6.129 
 H                    -2.204     0.714    -4.596 
 H                    -1.967    -0.72     -5.453 
 H                     1.356    -1.759    -5.967 
 H                     1.452    -3.157    -4.902 
 H                     2.714    -0.522    -4.798 
 H                     3.487    -2.121    -4.529 
 H                     2.495    -1.303    -3.24 
 H                     0.867    -6.333    -0.084 
 H                     0.404    -5.642    -1.68 
 H                    -0.891    -5.999    -0.463 
 H                    -1.283    -3.581     4.028 
 H                     0.698    -4.478     7.755 
 H                     0.833    -2.619     7.68 
 H                     2.       -3.754     6.976 
 Mg                    15.76034   1.42341   1.20548 
 C                     13.39526  -1.23197   1.68962 
 C                     13.11356   3.44592   0.47162 
 C                     17.83723   3.65878   0.33538 
 C                     18.22095  -1.01938   0.85346 
 N                     13.58333   1.04074   1.12532 
 C                     12.79585   0.00887   1.38889 
 C                     11.28029   0.34409   1.40536 
 C                     11.31167   1.64567   0.46527 
 C                     12.74655   2.10006   0.72475 
 C                     11.17266   1.32359  -1.01334 
 C                     10.75977   0.68784   2.84512 
 C                     9.23648   0.72255   2.98697 
 H                     8.64326   0.25995   4.2386 
 N                     15.52241   3.3812    0.98413 
 C                     14.37413   4.03567   0.71136 
 C                     14.73297   5.45987   0.62738 
 C                     16.21435   5.57599   0.70955 
 C                     16.59166   4.17778   0.65749 
 C                     13.70809   6.55484   0.56353 
 C                     17.1391   6.75158   0.80468 
 O                     18.40238   6.63083   0.6248 
 C                     16.51171   8.0633    1.02208 
 N                     17.69986   1.3334    0.46216 
 C                     18.3985   2.45548   0.21564 
 C                     19.85294   2.14579  -0.04725 
 C                     20.03481   0.59849   0.31382 
 C                     18.57029   0.24387   0.65268 
 C                     20.33876   2.3955   -1.47484 
 C                     21.13948   0.24177   1.34586 
 C                     20.76444   0.77697   2.70906 
 N                     15.86675  -0.72196   1.43816 
 C                     16.98925  -1.54941   1.21591 
 C                     16.54211  -2.94634   1.39223 
 C                     15.17439  -2.83499   1.68452 
 C                     14.79145  -1.46654   1.6701 
 C                     17.35216  -4.10568   1.23135 
 C                     13.9652  -3.56458   1.99153 
 O                     13.69632  -4.74295   2.22147 
 C                     12.73219  -2.56733   1.88394 
 C                     11.87634  -2.75327   3.10684 
 O                     12.31055  -2.45525   4.23345 
 O                     10.61947  -3.04448   2.72492 
 C                     9.73012  -3.2271    3.90285 
 H                     12.38023   4.10484   0.00584 
 H                     18.618    4.39631   0.13555 
 H                     18.94941  -1.83301   0.85695 
 H                     10.64241  -0.41485   0.96845 
 H                     10.60569   2.39762   0.80808 
 H                     11.19438   0.25979  -1.19772 
 H                     12.00843   1.80907  -1.5 
 H                     10.27268   1.79474  -1.41878 
 H                     10.9933   1.73661   3.06938 
 H                     11.17505   0.01596   3.5709 
 H                     8.73201   0.26153   2.12911 
 H                     8.90929   1.76482   2.96191 
 H                     12.70775   6.15763   0.35153 
 H                     13.94846   7.16712  -0.31237 
 H                     13.71483   7.19039   1.45162 
 H                     15.81535   8.26914   0.21265 
 H                     17.33824   8.76466   1.1518 
 H                     15.9197   8.01963   1.94308 
 H                     20.49597   2.73455   0.59537 
 H                     20.30586   0.00291  -0.57029 
 H                     21.19506   3.09402  -1.52858 
 H                     19.50712   2.76782  -2.0582 
 H                     20.62719   1.50285  -2.02729 
 H                     22.08234   0.72188   1.07258 
 H                     21.33091  -0.82331   1.4229 
 H                     21.09232   1.8198    2.66351 
 H                     21.28843   0.2323    3.49188 
 H                     19.67676   0.77906   2.84544 
 H                     17.11598  -4.76715   2.05426 
 H                     18.41013  -3.85232   1.21494 
 H                     16.99902  -4.45683   0.25808 
 H                     12.1939  -2.80967   0.96683 
 H                     9.27162  -4.21615   3.80672 
 H                     9.05021  -2.35447   3.90199 
 H                     10.19834  -3.30483   4.87711 
 
 ITRead=  0  0  0  0  0  0  0  0  0  0  0  0  0  0  0  0  0  0  0  0
 ITRead=  0  0  0  0  0  0  0  0  0  0  0  0  0  0  0  0  0  0  0  0
 ITRead=  0  0  0  0  0  0  0  0  0  0  0  0  0  0  0  0  0  0  0  0
 ITRead=  0  0  0  0  0  0  0  0  0  0  0  0  0  0  0  0  0  0  0  0
 ITRead=  0  0  0  0  0  0  0  0  0  0  0  0  0  0  0  0  0  0  0  0
 ITRead=  0  0  0  0  0  0  0  0  0  0  0  0  0  0  0  0  0  0  0  0
 ITRead=  0  0  0  0  0  0  0  0  0  0  0  0  0  0  0  0  0  0  0  0
 ITRead=  0  0  0  0  0  0  0  0  0  0  0  0  0  0  0  0  0  0
 MicOpt= -1 -1 -1 -1 -1 -1 -1 -1 -1 -1 -1 -1 -1 -1 -1 -1 -1 -1 -1 -1
 MicOpt= -1 -1 -1 -1 -1 -1 -1 -1 -1 -1 -1 -1 -1 -1 -1 -1 -1 -1 -1 -1
 MicOpt= -1 -1 -1 -1 -1 -1 -1 -1 -1 -1 -1 -1 -1 -1 -1 -1 -1 -1 -1 -1
 MicOpt= -1 -1 -1 -1 -1 -1 -1 -1 -1 -1 -1 -1 -1 -1 -1 -1 -1 -1 -1 -1
 MicOpt= -1 -1 -1 -1 -1 -1 -1 -1 -1 -1 -1 -1 -1 -1 -1 -1 -1 -1 -1 -1
 MicOpt= -1 -1 -1 -1 -1 -1 -1 -1 -1 -1 -1 -1 -1 -1 -1 -1 -1 -1 -1 -1
 MicOpt= -1 -1 -1 -1 -1 -1 -1 -1 -1 -1 -1 -1 -1 -1 -1 -1 -1 -1 -1 -1
 MicOpt= -1 -1 -1 -1 -1 -1 -1 -1 -1 -1 -1 -1 -1 -1 -1 -1 -1 -1
 NAtoms=    158 NQM=      158 NQMF=       0 NMMI=      0 NMMIF=      0
                NMic=       0 NMicF=      0.
                    Isotopes and Nuclear Properties:
 (Nuclear quadrupole moments (NQMom) in fm**2, nuclear magnetic moments (NMagM)
  in nuclear magnetons)

  Atom         1           2           3           4           5           6           7           8           9          10
 IAtWgt=          24          12          12          12          12          14          12          12          12          12
 AtmWgt=  23.9850450  12.0000000  12.0000000  12.0000000  12.0000000  14.0030740  12.0000000  12.0000000  12.0000000  12.0000000
 NucSpn=           0           0           0           0           0           2           0           0           0           0
 AtZEff=  -0.0000000  -0.0000000  -0.0000000  -0.0000000  -0.0000000  -0.0000000  -0.0000000  -0.0000000  -0.0000000  -0.0000000
 NQMom=    0.0000000   0.0000000   0.0000000   0.0000000   0.0000000   2.0440000   0.0000000   0.0000000   0.0000000   0.0000000
 NMagM=    0.0000000   0.0000000   0.0000000   0.0000000   0.0000000   0.4037610   0.0000000   0.0000000   0.0000000   0.0000000
 AtZNuc=  12.0000000   6.0000000   6.0000000   6.0000000   6.0000000   7.0000000   6.0000000   6.0000000   6.0000000   6.0000000

  Atom        11          12          13          14          15          16          17          18          19          20
 IAtWgt=          12          12          12           1          14          12          12          12          12          12
 AtmWgt=  12.0000000  12.0000000  12.0000000   1.0078250  14.0030740  12.0000000  12.0000000  12.0000000  12.0000000  12.0000000
 NucSpn=           0           0           0           1           2           0           0           0           0           0
 AtZEff=  -0.0000000  -0.0000000  -0.0000000  -0.0000000  -0.0000000  -0.0000000  -0.0000000  -0.0000000  -0.0000000  -0.0000000
 NQMom=    0.0000000   0.0000000   0.0000000   0.0000000   2.0440000   0.0000000   0.0000000   0.0000000   0.0000000   0.0000000
 NMagM=    0.0000000   0.0000000   0.0000000   2.7928460   0.4037610   0.0000000   0.0000000   0.0000000   0.0000000   0.0000000
 AtZNuc=   6.0000000   6.0000000   6.0000000   1.0000000   7.0000000   6.0000000   6.0000000   6.0000000   6.0000000   6.0000000

  Atom        21          22          23          24          25          26          27          28          29          30
 IAtWgt=          12          16          12          14          12          12          12          12          12          12
 AtmWgt=  12.0000000  15.9949146  12.0000000  14.0030740  12.0000000  12.0000000  12.0000000  12.0000000  12.0000000  12.0000000
 NucSpn=           0           0           0           2           0           0           0           0           0           0
 AtZEff=  -0.0000000  -0.0000000  -0.0000000  -0.0000000  -0.0000000  -0.0000000  -0.0000000  -0.0000000  -0.0000000  -0.0000000
 NQMom=    0.0000000   0.0000000   0.0000000   2.0440000   0.0000000   0.0000000   0.0000000   0.0000000   0.0000000   0.0000000
 NMagM=    0.0000000   0.0000000   0.0000000   0.4037610   0.0000000   0.0000000   0.0000000   0.0000000   0.0000000   0.0000000
 AtZNuc=   6.0000000   8.0000000   6.0000000   7.0000000   6.0000000   6.0000000   6.0000000   6.0000000   6.0000000   6.0000000

  Atom        31          32          33          34          35          36          37          38          39          40
 IAtWgt=          12          14          12          12          12          12          12          12          16          12
 AtmWgt=  12.0000000  14.0030740  12.0000000  12.0000000  12.0000000  12.0000000  12.0000000  12.0000000  15.9949146  12.0000000
 NucSpn=           0           2           0           0           0           0           0           0           0           0
 AtZEff=  -0.0000000  -0.0000000  -0.0000000  -0.0000000  -0.0000000  -0.0000000  -0.0000000  -0.0000000  -0.0000000  -0.0000000
 NQMom=    0.0000000   2.0440000   0.0000000   0.0000000   0.0000000   0.0000000   0.0000000   0.0000000   0.0000000   0.0000000
 NMagM=    0.0000000   0.4037610   0.0000000   0.0000000   0.0000000   0.0000000   0.0000000   0.0000000   0.0000000   0.0000000
 AtZNuc=   6.0000000   7.0000000   6.0000000   6.0000000   6.0000000   6.0000000   6.0000000   6.0000000   8.0000000   6.0000000

  Atom        41          42          43          44          45          46          47          48          49          50
 IAtWgt=          12          16          16          12           1           1           1           1           1           1
 AtmWgt=  12.0000000  15.9949146  15.9949146  12.0000000   1.0078250   1.0078250   1.0078250   1.0078250   1.0078250   1.0078250
 NucSpn=           0           0           0           0           1           1           1           1           1           1
 AtZEff=  -0.0000000  -0.0000000  -0.0000000  -0.0000000  -0.0000000  -0.0000000  -0.0000000  -0.0000000  -0.0000000  -0.0000000
 NQMom=    0.0000000   0.0000000   0.0000000   0.0000000   0.0000000   0.0000000   0.0000000   0.0000000   0.0000000   0.0000000
 NMagM=    0.0000000   0.0000000   0.0000000   0.0000000   2.7928460   2.7928460   2.7928460   2.7928460   2.7928460   2.7928460
 AtZNuc=   6.0000000   8.0000000   8.0000000   6.0000000   1.0000000   1.0000000   1.0000000   1.0000000   1.0000000   1.0000000

  Atom        51          52          53          54          55          56          57          58          59          60
 IAtWgt=           1           1           1           1           1           1           1           1           1           1
 AtmWgt=   1.0078250   1.0078250   1.0078250   1.0078250   1.0078250   1.0078250   1.0078250   1.0078250   1.0078250   1.0078250
 NucSpn=           1           1           1           1           1           1           1           1           1           1
 AtZEff=  -0.0000000  -0.0000000  -0.0000000  -0.0000000  -0.0000000  -0.0000000  -0.0000000  -0.0000000  -0.0000000  -0.0000000
 NQMom=    0.0000000   0.0000000   0.0000000   0.0000000   0.0000000   0.0000000   0.0000000   0.0000000   0.0000000   0.0000000
 NMagM=    2.7928460   2.7928460   2.7928460   2.7928460   2.7928460   2.7928460   2.7928460   2.7928460   2.7928460   2.7928460
 AtZNuc=   1.0000000   1.0000000   1.0000000   1.0000000   1.0000000   1.0000000   1.0000000   1.0000000   1.0000000   1.0000000

  Atom        61          62          63          64          65          66          67          68          69          70
 IAtWgt=           1           1           1           1           1           1           1           1           1           1
 AtmWgt=   1.0078250   1.0078250   1.0078250   1.0078250   1.0078250   1.0078250   1.0078250   1.0078250   1.0078250   1.0078250
 NucSpn=           1           1           1           1           1           1           1           1           1           1
 AtZEff=  -0.0000000  -0.0000000  -0.0000000  -0.0000000  -0.0000000  -0.0000000  -0.0000000  -0.0000000  -0.0000000  -0.0000000
 NQMom=    0.0000000   0.0000000   0.0000000   0.0000000   0.0000000   0.0000000   0.0000000   0.0000000   0.0000000   0.0000000
 NMagM=    2.7928460   2.7928460   2.7928460   2.7928460   2.7928460   2.7928460   2.7928460   2.7928460   2.7928460   2.7928460
 AtZNuc=   1.0000000   1.0000000   1.0000000   1.0000000   1.0000000   1.0000000   1.0000000   1.0000000   1.0000000   1.0000000

  Atom        71          72          73          74          75          76          77          78          79          80
 IAtWgt=           1           1           1           1           1           1           1           1           1          24
 AtmWgt=   1.0078250   1.0078250   1.0078250   1.0078250   1.0078250   1.0078250   1.0078250   1.0078250   1.0078250  23.9850450
 NucSpn=           1           1           1           1           1           1           1           1           1           0
 AtZEff=  -0.0000000  -0.0000000  -0.0000000  -0.0000000  -0.0000000  -0.0000000  -0.0000000  -0.0000000  -0.0000000  -0.0000000
 NQMom=    0.0000000   0.0000000   0.0000000   0.0000000   0.0000000   0.0000000   0.0000000   0.0000000   0.0000000   0.0000000
 NMagM=    2.7928460   2.7928460   2.7928460   2.7928460   2.7928460   2.7928460   2.7928460   2.7928460   2.7928460   0.0000000
 AtZNuc=   1.0000000   1.0000000   1.0000000   1.0000000   1.0000000   1.0000000   1.0000000   1.0000000   1.0000000  12.0000000

  Atom        81          82          83          84          85          86          87          88          89          90
 IAtWgt=          12          12          12          12          14          12          12          12          12          12
 AtmWgt=  12.0000000  12.0000000  12.0000000  12.0000000  14.0030740  12.0000000  12.0000000  12.0000000  12.0000000  12.0000000
 NucSpn=           0           0           0           0           2           0           0           0           0           0
 AtZEff=  -0.0000000  -0.0000000  -0.0000000  -0.0000000  -0.0000000  -0.0000000  -0.0000000  -0.0000000  -0.0000000  -0.0000000
 NQMom=    0.0000000   0.0000000   0.0000000   0.0000000   2.0440000   0.0000000   0.0000000   0.0000000   0.0000000   0.0000000
 NMagM=    0.0000000   0.0000000   0.0000000   0.0000000   0.4037610   0.0000000   0.0000000   0.0000000   0.0000000   0.0000000
 AtZNuc=   6.0000000   6.0000000   6.0000000   6.0000000   7.0000000   6.0000000   6.0000000   6.0000000   6.0000000   6.0000000

  Atom        91          92          93          94          95          96          97          98          99         100
 IAtWgt=          12          12           1          14          12          12          12          12          12          12
 AtmWgt=  12.0000000  12.0000000   1.0078250  14.0030740  12.0000000  12.0000000  12.0000000  12.0000000  12.0000000  12.0000000
 NucSpn=           0           0           1           2           0           0           0           0           0           0
 AtZEff=  -0.0000000  -0.0000000  -0.0000000  -0.0000000  -0.0000000  -0.0000000  -0.0000000  -0.0000000  -0.0000000  -0.0000000
 NQMom=    0.0000000   0.0000000   0.0000000   2.0440000   0.0000000   0.0000000   0.0000000   0.0000000   0.0000000   0.0000000
 NMagM=    0.0000000   0.0000000   2.7928460   0.4037610   0.0000000   0.0000000   0.0000000   0.0000000   0.0000000   0.0000000
 AtZNuc=   6.0000000   6.0000000   1.0000000   7.0000000   6.0000000   6.0000000   6.0000000   6.0000000   6.0000000   6.0000000

  Atom       101         102         103         104         105         106         107         108         109         110
 IAtWgt=          16          12          14          12          12          12          12          12          12          12
 AtmWgt=  15.9949146  12.0000000  14.0030740  12.0000000  12.0000000  12.0000000  12.0000000  12.0000000  12.0000000  12.0000000
 NucSpn=           0           0           2           0           0           0           0           0           0           0
 AtZEff=  -0.0000000  -0.0000000  -0.0000000  -0.0000000  -0.0000000  -0.0000000  -0.0000000  -0.0000000  -0.0000000  -0.0000000
 NQMom=    0.0000000   0.0000000   2.0440000   0.0000000   0.0000000   0.0000000   0.0000000   0.0000000   0.0000000   0.0000000
 NMagM=    0.0000000   0.0000000   0.4037610   0.0000000   0.0000000   0.0000000   0.0000000   0.0000000   0.0000000   0.0000000
 AtZNuc=   8.0000000   6.0000000   7.0000000   6.0000000   6.0000000   6.0000000   6.0000000   6.0000000   6.0000000   6.0000000

  Atom       111         112         113         114         115         116         117         118         119         120
 IAtWgt=          14          12          12          12          12          12          12          16          12          12
 AtmWgt=  14.0030740  12.0000000  12.0000000  12.0000000  12.0000000  12.0000000  12.0000000  15.9949146  12.0000000  12.0000000
 NucSpn=           2           0           0           0           0           0           0           0           0           0
 AtZEff=  -0.0000000  -0.0000000  -0.0000000  -0.0000000  -0.0000000  -0.0000000  -0.0000000  -0.0000000  -0.0000000  -0.0000000
 NQMom=    2.0440000   0.0000000   0.0000000   0.0000000   0.0000000   0.0000000   0.0000000   0.0000000   0.0000000   0.0000000
 NMagM=    0.4037610   0.0000000   0.0000000   0.0000000   0.0000000   0.0000000   0.0000000   0.0000000   0.0000000   0.0000000
 AtZNuc=   7.0000000   6.0000000   6.0000000   6.0000000   6.0000000   6.0000000   6.0000000   8.0000000   6.0000000   6.0000000

  Atom       121         122         123         124         125         126         127         128         129         130
 IAtWgt=          16          16          12           1           1           1           1           1           1           1
 AtmWgt=  15.9949146  15.9949146  12.0000000   1.0078250   1.0078250   1.0078250   1.0078250   1.0078250   1.0078250   1.0078250
 NucSpn=           0           0           0           1           1           1           1           1           1           1
 AtZEff=  -0.0000000  -0.0000000  -0.0000000  -0.0000000  -0.0000000  -0.0000000  -0.0000000  -0.0000000  -0.0000000  -0.0000000
 NQMom=    0.0000000   0.0000000   0.0000000   0.0000000   0.0000000   0.0000000   0.0000000   0.0000000   0.0000000   0.0000000
 NMagM=    0.0000000   0.0000000   0.0000000   2.7928460   2.7928460   2.7928460   2.7928460   2.7928460   2.7928460   2.7928460
 AtZNuc=   8.0000000   8.0000000   6.0000000   1.0000000   1.0000000   1.0000000   1.0000000   1.0000000   1.0000000   1.0000000

  Atom       131         132         133         134         135         136         137         138         139         140
 IAtWgt=           1           1           1           1           1           1           1           1           1           1
 AtmWgt=   1.0078250   1.0078250   1.0078250   1.0078250   1.0078250   1.0078250   1.0078250   1.0078250   1.0078250   1.0078250
 NucSpn=           1           1           1           1           1           1           1           1           1           1
 AtZEff=  -0.0000000  -0.0000000  -0.0000000  -0.0000000  -0.0000000  -0.0000000  -0.0000000  -0.0000000  -0.0000000  -0.0000000
 NQMom=    0.0000000   0.0000000   0.0000000   0.0000000   0.0000000   0.0000000   0.0000000   0.0000000   0.0000000   0.0000000
 NMagM=    2.7928460   2.7928460   2.7928460   2.7928460   2.7928460   2.7928460   2.7928460   2.7928460   2.7928460   2.7928460
 AtZNuc=   1.0000000   1.0000000   1.0000000   1.0000000   1.0000000   1.0000000   1.0000000   1.0000000   1.0000000   1.0000000

  Atom       141         142         143         144         145         146         147         148         149         150
 IAtWgt=           1           1           1           1           1           1           1           1           1           1
 AtmWgt=   1.0078250   1.0078250   1.0078250   1.0078250   1.0078250   1.0078250   1.0078250   1.0078250   1.0078250   1.0078250
 NucSpn=           1           1           1           1           1           1           1           1           1           1
 AtZEff=  -0.0000000  -0.0000000  -0.0000000  -0.0000000  -0.0000000  -0.0000000  -0.0000000  -0.0000000  -0.0000000  -0.0000000
 NQMom=    0.0000000   0.0000000   0.0000000   0.0000000   0.0000000   0.0000000   0.0000000   0.0000000   0.0000000   0.0000000
 NMagM=    2.7928460   2.7928460   2.7928460   2.7928460   2.7928460   2.7928460   2.7928460   2.7928460   2.7928460   2.7928460
 AtZNuc=   1.0000000   1.0000000   1.0000000   1.0000000   1.0000000   1.0000000   1.0000000   1.0000000   1.0000000   1.0000000

  Atom       151         152         153         154         155         156         157         158
 IAtWgt=           1           1           1           1           1           1           1           1
 AtmWgt=   1.0078250   1.0078250   1.0078250   1.0078250   1.0078250   1.0078250   1.0078250   1.0078250
 NucSpn=           1           1           1           1           1           1           1           1
 AtZEff=  -0.0000000  -0.0000000  -0.0000000  -0.0000000  -0.0000000  -0.0000000  -0.0000000  -0.0000000
 NQMom=    0.0000000   0.0000000   0.0000000   0.0000000   0.0000000   0.0000000   0.0000000   0.0000000
 NMagM=    2.7928460   2.7928460   2.7928460   2.7928460   2.7928460   2.7928460   2.7928460   2.7928460
 AtZNuc=   1.0000000   1.0000000   1.0000000   1.0000000   1.0000000   1.0000000   1.0000000   1.0000000
 Leave Link  101 at Sun Sep 12 02:23:52 2021, MaxMem= 23488102400 cpu:               3.2 elap:               0.2
 (Enter /sw/apps/gaussian-16.0/g16/l202.exe)
 Stoichiometry    C68H72Mg2N8O8
 Framework group  C1[X(C68H72Mg2N8O8)]
 Deg. of freedom   468
 Full point group                 C1      NOp   1
 Largest Abelian subgroup         C1      NOp   1
 Largest concise Abelian subgroup C1      NOp   1
                         Standard orientation:                         
 ---------------------------------------------------------------------
 Center     Atomic      Atomic             Coordinates (Angstroms)
 Number     Number       Type             X           Y           Z
 ---------------------------------------------------------------------
      1         12           0        7.524304    0.879627    0.511815
      2          6           0        7.935915   -2.361200   -0.951001
      3          6           0        8.480271    2.191905   -2.489371
      4          6           0        7.607871    3.726532    1.906366
      5          6           0        7.711911   -0.666237    3.629630
      6          7           0        8.107026   -0.067251   -1.402473
      7          6           0        8.165882   -1.317551   -1.850199
      8          6           0        8.420944   -1.413103   -3.384209
      9          6           0        9.123689   -0.000059   -3.611044
     10          6           0        8.507872    0.766076   -2.453577
     11          6           0       10.637348   -0.035768   -3.426480
     12          6           0        7.090724   -1.529232   -4.201987
     13          6           0        7.257557   -1.952419   -5.664325
     14          1           0        6.244590   -2.806240   -6.266187
     15          7           0        7.500457    2.692194   -0.273605
     16          6           0        7.911744    3.041869   -1.516125
     17          6           0        7.692690    4.500420   -1.622545
     18          6           0        7.298422    5.000748   -0.276322
     19          6           0        7.480937    3.815628    0.522149
     20          6           0        7.812632    5.258798   -2.908712
     21          6           0        6.841342    6.337923    0.214773
     22          8           0        6.772962    6.618075    1.460330
     23          6           0        6.556506    7.353680   -0.814861
     24          7           0        7.862164    1.487346    2.480105
     25          6           0        7.784416    2.776714    2.827193
     26          6           0        7.781022    2.941581    4.318081
     27          6           0        7.627393    1.472608    4.924933
     28          6           0        7.652791    0.667118    3.602507
     29          6           0        9.022146    3.615082    4.919762
     30          6           0        6.454280    1.237572    5.909304
     31          6           0        5.137331    1.349637    5.174332
     32          7           0        7.600299   -1.161410    1.246279
     33          6           0        7.698418   -1.573276    2.583220
     34          6           0        7.827569   -3.042054    2.574394
     35          6           0        7.812172   -3.383344    1.223420
     36          6           0        7.708084   -2.200402    0.437224
     37          6           0        7.997522   -3.870579    3.718552
     38          6           0        7.884233   -4.470210    0.260412
     39          8           0        7.885116   -5.699581    0.338765
     40          6           0        8.089896   -3.842863   -1.188714
     41          6           0        7.112317   -4.511514   -2.116375
     42          8           0        5.883786   -4.334761   -1.986625
     43          8           0        7.778081   -5.056549   -3.146053
     44          6           0        6.863727   -5.710977   -4.119620
     45          1           0        8.990400    2.709409   -3.304171
     46          1           0        7.529985    4.679784    2.433322
     47          1           0        7.689976   -1.224388    4.567414
     48          1           0        9.094493   -2.216224   -3.683796
     49          1           0        8.834520    0.450540   -4.560288
     50          1           0       10.969216   -1.000247   -3.042338
     51          1           0       10.862215    0.756373   -2.712029
     52          1           0       11.146806    0.240258   -4.350082
     53          1           0        6.667976   -0.534622   -4.343752
     54          1           0        6.392181   -2.205748   -3.708338
     55          1           0        8.254588   -2.351738   -5.852429
     56          1           0        7.201532   -1.059370   -6.286840
     57          1           0        8.276175    4.655043   -3.687912
     58          1           0        8.520560    6.069119   -2.735714
     59          1           0        6.856478    5.669132   -3.233870
     60          1           0        7.454197    7.525183   -1.409241
     61          1           0        6.156937    8.216697   -0.283452
     62          1           0        5.805349    6.960463   -1.500494
     63          1           0        6.938965    3.551795    4.642123
     64          1           0        8.510791    1.167561    5.486385
     65          1           0        8.795790    4.504999    5.507567
     66          1           0        9.707277    3.848269    4.105201
     67          1           0        9.637996    2.966140    5.541872
     68          1           0        6.453402    2.000377    6.687169
     69          1           0        6.491849    0.264467    6.399104
     70          1           0        4.953492    2.423404    5.166573
     71          1           0        4.352276    0.823053    5.718032
     72          1           0        5.231678    1.027697    4.137057
     73          1           0        7.341902   -4.729128    3.573551
     74          1           0        7.751922   -3.334978    4.635293
     75          1           0        9.059461   -4.103882    3.642978
     76          1           0        9.123391   -4.039975   -1.471834
     77          1           0        7.194636   -6.744105   -4.226301
     78          1           0        6.862444   -5.085343   -5.012360
     79          1           0        5.834317   -5.857528   -3.790716
     80         12           0       -8.314011    0.185171   -0.218318
     81          6           0       -5.685608   -2.169593    0.434076
     82          6           0       -5.888444    2.539794   -0.673204
     83          6           0      -10.605190    2.376001   -0.353188
     84          6           0      -10.493335   -2.015623    1.379429
     85          7           0       -6.107589    0.077067   -0.107648
     86          6           0       -5.218133   -0.884775    0.087485
     87          6           0       -3.747606   -0.464479   -0.177970
     88          6           0       -3.904218    1.117067    0.052357
     89          6           0       -5.383210    1.269660   -0.296896
     90          6           0       -3.709534    1.536611    1.499917
     91          6           0       -3.288370   -0.788906   -1.642847
     92          6           0       -1.779838   -0.690894   -1.880471
     93          1           0       -1.159169   -1.630496   -2.810205
     94          7           0       -8.283863    2.031956   -0.944283
     95          6           0       -7.208352    2.836003   -1.078693
     96          6           0       -7.716371    4.096763   -1.641334
     97          6           0       -9.202724    4.030486   -1.674250
     98          6           0       -9.427299    2.791511   -0.956913
     99          6           0       -6.813822    5.179941   -2.156644
    100          6           0      -10.249373    4.939162   -2.244388
    101          8           0      -11.489639    4.806044   -1.949710
    102          6           0       -9.769381    6.046761   -3.083627
    103          7           0      -10.221463    0.282931    0.602922
    104          6           0      -11.032515    1.323976    0.345333
    105          6           0      -12.441349    1.046619    0.812958
    106          6           0      -12.461807   -0.499356    1.221770
    107          6           0      -10.972935   -0.841073    0.993981
    108          6           0      -12.929829    1.890543    1.990060
    109          6           0      -13.537147   -1.392291    0.544301
    110          6           0      -13.241904   -1.525285   -0.932368
    111          7           0       -8.193489   -1.820395    0.576195
    112          6           0       -9.217482   -2.543128    1.226711
    113          6           0       -8.625975   -3.815279    1.689517
    114          6           0       -7.282547   -3.733772    1.293222
    115          6           0       -7.048199   -2.489431    0.648084
    116          6           0       -9.304717   -4.831250    2.419752
    117          6           0       -6.006874   -4.412932    1.283352
    118          8           0       -5.616787   -5.533488    1.608792
    119          6           0       -4.886299   -3.377024    0.838827
    120          6           0       -4.033743   -4.036738   -0.210203
    121          8           0       -4.514083   -4.338936   -1.316799
    122          8           0       -2.747372   -4.004194    0.182964
    123          6           0       -1.861199   -4.637039   -0.829962
    124          1           0       -5.223056    3.401487   -0.612852
    125          1           0      -11.457400    3.049692   -0.468789
    126          1           0      -11.130436   -2.797053    1.799107
    127          1           0       -3.025684   -0.872108    0.519481
    128          1           0       -3.288010    1.680487   -0.643488
    129          1           0       -3.614450    0.684886    2.156926
    130          1           0       -4.585159    2.117704    1.758084
    131          1           0       -2.859260    2.219545    1.583361
    132          1           0       -3.636190    0.008557   -2.312042
    133          1           0       -3.640052   -1.755533   -1.947128
    134          1           0       -1.216190   -0.651480   -0.940417
    135          1           0       -1.565821    0.266544   -2.361633
    136          1           0       -5.773652    5.017326   -1.848418
    137          1           0       -7.105329    6.106696   -1.650665
    138          1           0       -6.901800    5.323659   -3.235662
    139          1           0       -9.087109    6.667113   -2.507317
    140          1           0      -10.668110    6.530668   -3.470932
    141          1           0       -9.189865    5.630083   -3.914990
    142          1           0      -13.153224    1.207975    0.012780
    143          1           0      -12.654331   -0.634155    2.296292
    144          1           0      -13.855121    2.455038    1.768139
    145          1           0      -12.134263    2.563638    2.280877
    146          1           0      -13.112748    1.337922    2.910042
    147          1           0      -14.521834   -0.925002    0.623074
    148          1           0      -13.614531   -2.382160    0.981504
    149          1           0      -13.678871   -0.615295   -1.354329
    150          1           0      -13.716132   -2.416181   -1.339124
    151          1           0      -12.162853   -1.491662   -1.122556
    152          1           0       -9.011319   -5.776897    1.983663
    153          1           0      -10.383375   -4.693558    2.383707
    154          1           0       -8.901562   -4.654545    3.420507
    155          1           0       -4.311568   -3.114565    1.727858
    156          1           0       -1.298030   -5.422062   -0.315897
    157          1           0       -1.278722   -3.809191   -1.276222
    158          1           0       -2.332841   -5.201646   -1.625718
 ---------------------------------------------------------------------
 Rotational constants (GHZ):           0.0262922           0.0061706           0.0056909
 Leave Link  202 at Sun Sep 12 02:23:52 2021, MaxMem= 23488102400 cpu:               0.2 elap:               0.0
 (Enter /sw/apps/gaussian-16.0/g16/l301.exe)
 Standard basis: def2SVP (5D, 7F)
 Ernie: Thresh=  0.10000D-02 Tol=  0.10000D-05 Strict=F.
 There are  1658 symmetry adapted cartesian basis functions of A   symmetry.
 There are  1572 symmetry adapted basis functions of A   symmetry.
  1572 basis functions,  2678 primitive gaussians,  1658 cartesian basis functions
   312 alpha electrons      312 beta electrons
       nuclear repulsion energy     13994.9013369985 Hartrees.
 IExCor=20419 DFT=T Ex+Corr=CAM-B3LYP ExCW=0 ScaHFX=  1.000000
 ScaDFX=  1.000000  1.000000  1.000000  0.810000 ScalE2=  1.000000  1.000000
 IRadAn=      5 IRanWt=     -1 IRanGd=            0 ICorTp=0 IEmpDi=  4
 HFx  wShort=  0.000000 wLong=  0.330000 cFull=  0.190000 cShort=  0.000000 cLong=  0.460000
 DFx  wShort=  0.000000 wLong=  0.330000 cFull=  0.190000 cShort=  0.000000 cLong=  0.460000
 NAtoms=  158 NActive=  158 NUniq=  158 SFac= 1.00D+00 NAtFMM=   60 NAOKFM=T Big=T
 Integral buffers will be    131072 words long.
 Raffenetti 1 integral format.
 Two-electron integral symmetry is turned on.
 Leave Link  301 at Sun Sep 12 02:23:52 2021, MaxMem= 23488102400 cpu:               1.4 elap:               0.1
 (Enter /sw/apps/gaussian-16.0/g16/l302.exe)
 NPDir=0 NMtPBC=     1 NCelOv=     1 NCel=       1 NClECP=     1 NCelD=      1
         NCelK=      1 NCelE2=     1 NClLst=     1 CellRange=     0.0.
 One-electron integrals computed using PRISM.
 One-electron integral symmetry used in STVInt
   1 Symmetry operations used in ECPInt.
 ECPInt:  NShTT=  271216 NPrTT=  987664 LenC2=  116682 LenP2D=  257119.
 LDataN:  DoStor=T MaxTD1= 4 Len=   56
 NBasis=  1572 RedAO= T EigKep=  3.36D-04  NBF=  1572
 NBsUse=  1572 1.00D-06 EigRej= -1.00D+00 NBFU=  1572
 Precomputing XC quadrature grid using
 IXCGrd= 4 IRadAn=           5 IRanWt=          -1 IRanGd=           0 AccXCQ= 0.00D+00.
 Generated NRdTot=       0 NPtTot=           0 NUsed=           0 NTot=          32
 NSgBfM=  1153  1117  1141  1147  1153 MxSgAt=   158 MxSgA2=   158.
 Leave Link  302 at Sun Sep 12 02:23:57 2021, MaxMem= 23488102400 cpu:             120.6 elap:               5.0
 (Enter /sw/apps/gaussian-16.0/g16/l303.exe)
 DipDrv:  MaxL=1.
 Leave Link  303 at Sun Sep 12 02:23:57 2021, MaxMem= 23488102400 cpu:               9.4 elap:               0.4
 (Enter /sw/apps/gaussian-16.0/g16/l308.exe)
 Leave Link  308 at Sun Sep 12 02:23:58 2021, MaxMem= 23488102400 cpu:              13.5 elap:               0.6
 (Enter /sw/apps/gaussian-16.0/g16/l401.exe)
 ExpMin= 3.36D-02 ExpMax= 4.95D+03 ExpMxC= 7.45D+02 IAcc=3 IRadAn=         5 AccDes= 0.00D+00
 Harris functional with IExCor=20419 and IRadAn=       5 diagonalized for initial guess.
 HarFok:  IExCor=20419 AccDes= 0.00D+00 IRadAn=         5 IDoV= 1 UseB2=F ITyADJ=14
 ICtDFT=  3500011 ScaDFX=  1.000000  1.000000  1.000000  1.000000
 FoFCou: FMM=F IPFlag=           0 FMFlag=      100000 FMFlg1=        2001
         NFxFlg=           0 DoJE=T BraDBF=F KetDBF=T FulRan=T
         wScrn=  0.000000 ICntrl=       500 IOpCl=  0 I1Cent=   200000004 NGrid=           0
         NMat0=    1 NMatS0=      1 NMatT0=    0 NMatD0=    1 NMtDS0=    0 NMtDT0=    0
 Petite list used in FoFCou.
 Harris En= -3918.65801576317    
 JPrj=0 DoOrth=F DoCkMO=F.
 Leave Link  401 at Sun Sep 12 02:24:05 2021, MaxMem= 23488102400 cpu:             162.8 elap:               6.8
 (Enter /sw/apps/gaussian-16.0/g16/l502.exe)
 Integral symmetry usage will be decided dynamically.
 Closed shell SCF:
 Using DIIS extrapolation, IDIIS=  1040.
 NGot= 23488102400 LenX= 23482547354 LenY= 23479796732
 Requested convergence on RMS density matrix=1.00D-08 within 128 cycles.
 Requested convergence on MAX density matrix=1.00D-06.
 Requested convergence on             energy=1.00D-06.
 No special actions if energy rises.
 Fock matrices will be formed incrementally for  20 cycles.

 Cycle   1  Pass 1  IDiag  1:
 FoFJK:  IHMeth= 1 ICntrl=       0 DoSepK=T KAlg= 0 I1Cent=           0 FoldK=F
 IRaf=         1 NMat=       1 IRICut=       1 DoRegI=T DoRafI=F ISym2E= 0 IDoP0=0 IntGTp=1.
 FoFCou: FMM=T IPFlag=           0 FMFlag=      100000 FMFlg1=        2001
         NFxFlg=           0 DoJE=T BraDBF=F KetDBF=F FulRan=T
         wScrn=  0.000000 ICntrl=       500 IOpCl=  0 I1Cent=           0 NGrid=           0
         NMat0=    1 NMatS0=      1 NMatT0=    0 NMatD0=    1 NMtDS0=    0 NMtDT0=    0
 Symmetry not used in FoFCou.
 FMM levels:  10  Number of levels for PrismC:   9
 E= -4068.94942220860    
 DIIS: error= 2.04D-02 at cycle   1 NSaved=   1.
 NSaved= 1 IEnMin= 1 EnMin= -4068.94942220860     IErMin= 1 ErrMin= 2.04D-02
 ErrMax= 2.04D-02  0.00D+00 EMaxC= 1.00D-01 BMatC= 1.69D+00 BMatP= 1.69D+00
 IDIUse=3 WtCom= 7.96D-01 WtEn= 2.04D-01
 Coeff-Com:  0.100D+01
 Coeff-En:   0.100D+01
 Coeff:      0.100D+01
 Gap=     0.120 Goal=   None    Shift=    0.000
 GapD=    0.120 DampG=1.000 DampE=0.500 DampFc=0.5000 IDamp=-1.
 Damping current iteration by 5.00D-01
 RMSDP=1.57D-03 MaxDP=1.35D-01              OVMax= 2.05D-01

 Cycle   2  Pass 1  IDiag  1:
 RMSU=  7.69D-04    CP:  9.82D-01
 E= -4069.33837598570     Delta-E=       -0.388953777103 Rises=F Damp=T
 DIIS: error= 1.27D-02 at cycle   2 NSaved=   2.
 NSaved= 2 IEnMin= 2 EnMin= -4069.33837598570     IErMin= 2 ErrMin= 1.27D-02
 ErrMax= 1.27D-02  0.00D+00 EMaxC= 1.00D-01 BMatC= 3.07D-01 BMatP= 1.69D+00
 IDIUse=3 WtCom= 8.73D-01 WtEn= 1.27D-01
 Coeff-Com: -0.213D+00 0.121D+01
 Coeff-En:   0.000D+00 0.100D+01
 Coeff:     -0.186D+00 0.119D+01
 Gap=     0.134 Goal=   None    Shift=    0.000
 RMSDP=7.65D-04 MaxDP=9.45D-02 DE=-3.89D-01 OVMax= 1.88D-01

 Cycle   3  Pass 1  IDiag  1:
 RMSU=  7.32D-04    CP:  9.68D-01  1.24D+00
 E= -4069.62821533947     Delta-E=       -0.289839353765 Rises=F Damp=F
 DIIS: error= 1.56D-02 at cycle   3 NSaved=   3.
 NSaved= 3 IEnMin= 3 EnMin= -4069.62821533947     IErMin= 2 ErrMin= 1.27D-02
 ErrMax= 1.56D-02  0.00D+00 EMaxC= 1.00D-01 BMatC= 2.01D-01 BMatP= 3.07D-01
 IDIUse=3 WtCom= 8.44D-01 WtEn= 1.56D-01
 Coeff-Com: -0.267D+00 0.651D+00 0.616D+00
 Coeff-En:   0.000D+00 0.000D+00 0.100D+01
 Coeff:     -0.225D+00 0.549D+00 0.676D+00
 Gap=     0.122 Goal=   None    Shift=    0.000
 RMSDP=5.08D-04 MaxDP=4.91D-02 DE=-2.90D-01 OVMax= 1.44D-01

 Cycle   4  Pass 1  IDiag  1:
 RMSU=  2.65D-04    CP:  9.65D-01  1.54D+00  5.06D-01
 E= -4069.76544964352     Delta-E=       -0.137234304053 Rises=F Damp=F
 DIIS: error= 7.20D-03 at cycle   4 NSaved=   4.
 NSaved= 4 IEnMin= 4 EnMin= -4069.76544964352     IErMin= 4 ErrMin= 7.20D-03
 ErrMax= 7.20D-03  0.00D+00 EMaxC= 1.00D-01 BMatC= 4.99D-02 BMatP= 2.01D-01
 IDIUse=3 WtCom= 9.28D-01 WtEn= 7.20D-02
 Coeff-Com: -0.109D+00 0.226D+00 0.408D+00 0.475D+00
 Coeff-En:   0.000D+00 0.000D+00 0.220D+00 0.780D+00
 Coeff:     -0.101D+00 0.210D+00 0.395D+00 0.497D+00
 Gap=     0.121 Goal=   None    Shift=    0.000
 RMSDP=2.00D-04 MaxDP=1.97D-02 DE=-1.37D-01 OVMax= 6.22D-02

 Cycle   5  Pass 1  IDiag  1:
 RMSU=  7.58D-05    CP:  9.65D-01  1.49D+00  6.89D-01  5.50D-01
 E= -4069.81065457404     Delta-E=       -0.045204930517 Rises=F Damp=F
 DIIS: error= 7.58D-04 at cycle   5 NSaved=   5.
 NSaved= 5 IEnMin= 5 EnMin= -4069.81065457404     IErMin= 5 ErrMin= 7.58D-04
 ErrMax= 7.58D-04  0.00D+00 EMaxC= 1.00D-01 BMatC= 1.16D-03 BMatP= 4.99D-02
 IDIUse=3 WtCom= 9.92D-01 WtEn= 7.58D-03
 Coeff-Com: -0.359D-01 0.705D-01 0.165D+00 0.249D+00 0.551D+00
 Coeff-En:   0.000D+00 0.000D+00 0.000D+00 0.000D+00 0.100D+01
 Coeff:     -0.357D-01 0.700D-01 0.164D+00 0.247D+00 0.554D+00
 Gap=     0.120 Goal=   None    Shift=    0.000
 RMSDP=4.12D-05 MaxDP=4.16D-03 DE=-4.52D-02 OVMax= 1.68D-02

 Cycle   6  Pass 1  IDiag  1:
 RMSU=  3.05D-05    CP:  9.64D-01  1.49D+00  6.81D-01  6.22D-01  7.56D-01
 E= -4069.81166312814     Delta-E=       -0.001008554107 Rises=F Damp=F
 DIIS: error= 2.10D-04 at cycle   6 NSaved=   6.
 NSaved= 6 IEnMin= 6 EnMin= -4069.81166312814     IErMin= 6 ErrMin= 2.10D-04
 ErrMax= 2.10D-04  0.00D+00 EMaxC= 1.00D-01 BMatC= 1.81D-04 BMatP= 1.16D-03
 IDIUse=3 WtCom= 9.98D-01 WtEn= 2.10D-03
 Coeff-Com:  0.218D-02-0.652D-02 0.114D-01 0.405D-01 0.309D+00 0.643D+00
 Coeff-En:   0.000D+00 0.000D+00 0.000D+00 0.000D+00 0.111D+00 0.889D+00
 Coeff:      0.217D-02-0.651D-02 0.114D-01 0.404D-01 0.309D+00 0.644D+00
 Gap=     0.121 Goal=   None    Shift=    0.000
 RMSDP=1.62D-05 MaxDP=1.21D-03 DE=-1.01D-03 OVMax= 7.31D-03

 Cycle   7  Pass 1  IDiag  1:
 RMSU=  1.08D-05    CP:  9.64D-01  1.50D+00  6.87D-01  6.21D-01  8.60D-01
                    CP:  7.41D-01
 E= -4069.81185895179     Delta-E=       -0.000195823646 Rises=F Damp=F
 DIIS: error= 8.54D-05 at cycle   7 NSaved=   7.
 NSaved= 7 IEnMin= 7 EnMin= -4069.81185895179     IErMin= 7 ErrMin= 8.54D-05
 ErrMax= 8.54D-05  0.00D+00 EMaxC= 1.00D-01 BMatC= 2.19D-05 BMatP= 1.81D-04
 IDIUse=1 WtCom= 1.00D+00 WtEn= 0.00D+00
 Coeff-Com:  0.448D-02-0.980D-02-0.889D-02-0.357D-02 0.105D+00 0.332D+00
 Coeff-Com:  0.581D+00
 Coeff:      0.448D-02-0.980D-02-0.889D-02-0.357D-02 0.105D+00 0.332D+00
 Coeff:      0.581D+00
 Gap=     0.121 Goal=   None    Shift=    0.000
 RMSDP=6.63D-06 MaxDP=1.10D-03 DE=-1.96D-04 OVMax= 3.40D-03

 Cycle   8  Pass 1  IDiag  1:
 RMSU=  4.73D-06    CP:  9.64D-01  1.50D+00  6.88D-01  6.26D-01  8.63D-01
                    CP:  8.69D-01  8.17D-01
 E= -4069.81188616624     Delta-E=       -0.000027214446 Rises=F Damp=F
 DIIS: error= 5.00D-05 at cycle   8 NSaved=   8.
 NSaved= 8 IEnMin= 8 EnMin= -4069.81188616624     IErMin= 8 ErrMin= 5.00D-05
 ErrMax= 5.00D-05  0.00D+00 EMaxC= 1.00D-01 BMatC= 4.93D-06 BMatP= 2.19D-05
 IDIUse=1 WtCom= 1.00D+00 WtEn= 0.00D+00
 Coeff-Com:  0.218D-02-0.431D-02-0.780D-02-0.122D-01-0.111D-01 0.333D-01
 Coeff-Com:  0.340D+00 0.660D+00
 Coeff:      0.218D-02-0.431D-02-0.780D-02-0.122D-01-0.111D-01 0.333D-01
 Coeff:      0.340D+00 0.660D+00
 Gap=     0.121 Goal=   None    Shift=    0.000
 RMSDP=3.31D-06 MaxDP=3.46D-04 DE=-2.72D-05 OVMax= 1.06D-03

 Cycle   9  Pass 1  IDiag  1:
 RMSU=  1.93D-06    CP:  9.64D-01  1.50D+00  6.88D-01  6.27D-01  8.80D-01
                    CP:  8.95D-01  1.01D+00  9.48D-01
 E= -4069.81189409134     Delta-E=       -0.000007925104 Rises=F Damp=F
 DIIS: error= 2.01D-05 at cycle   9 NSaved=   9.
 NSaved= 9 IEnMin= 9 EnMin= -4069.81189409134     IErMin= 9 ErrMin= 2.01D-05
 ErrMax= 2.01D-05  0.00D+00 EMaxC= 1.00D-01 BMatC= 7.09D-07 BMatP= 4.93D-06
 IDIUse=1 WtCom= 1.00D+00 WtEn= 0.00D+00
 Coeff-Com:  0.469D-03-0.779D-03-0.268D-02-0.605D-02-0.212D-01-0.394D-01
 Coeff-Com:  0.103D+00 0.327D+00 0.640D+00
 Coeff:      0.469D-03-0.779D-03-0.268D-02-0.605D-02-0.212D-01-0.394D-01
 Coeff:      0.103D+00 0.327D+00 0.640D+00
 Gap=     0.121 Goal=   None    Shift=    0.000
 RMSDP=1.44D-06 MaxDP=1.45D-04 DE=-7.93D-06 OVMax= 7.59D-04

 Cycle  10  Pass 1  IDiag  1:
 RMSU=  9.49D-07    CP:  9.64D-01  1.50D+00  6.88D-01  6.28D-01  8.84D-01
                    CP:  9.09D-01  1.06D+00  1.11D+00  1.06D+00
 E= -4069.81189573840     Delta-E=       -0.000001647059 Rises=F Damp=F
 DIIS: error= 1.05D-05 at cycle  10 NSaved=  10.
 NSaved=10 IEnMin=10 EnMin= -4069.81189573840     IErMin=10 ErrMin= 1.05D-05
 ErrMax= 1.05D-05  0.00D+00 EMaxC= 1.00D-01 BMatC= 1.77D-07 BMatP= 7.09D-07
 IDIUse=1 WtCom= 1.00D+00 WtEn= 0.00D+00
 Coeff-Com: -0.435D-03 0.911D-03 0.126D-02 0.115D-02-0.368D-02-0.314D-01
 Coeff-Com: -0.460D-01-0.787D-01 0.249D+00 0.908D+00
 Coeff:     -0.435D-03 0.911D-03 0.126D-02 0.115D-02-0.368D-02-0.314D-01
 Coeff:     -0.460D-01-0.787D-01 0.249D+00 0.908D+00
 Gap=     0.121 Goal=   None    Shift=    0.000
 RMSDP=1.25D-06 MaxDP=1.25D-04 DE=-1.65D-06 OVMax= 6.27D-04

 Cycle  11  Pass 1  IDiag  1:
 RMSU=  5.25D-07    CP:  9.64D-01  1.50D+00  6.88D-01  6.28D-01  8.86D-01
                    CP:  9.19D-01  1.11D+00  1.23D+00  1.40D+00  1.38D+00
 E= -4069.81189656413     Delta-E=       -0.000000825727 Rises=F Damp=F
 DIIS: error= 4.27D-06 at cycle  11 NSaved=  11.
 NSaved=11 IEnMin=11 EnMin= -4069.81189656413     IErMin=11 ErrMin= 4.27D-06
 ErrMax= 4.27D-06  0.00D+00 EMaxC= 1.00D-01 BMatC= 6.53D-08 BMatP= 1.77D-07
 IDIUse=1 WtCom= 1.00D+00 WtEn= 0.00D+00
 Coeff-Com: -0.335D-03 0.651D-03 0.135D-02 0.216D-02 0.457D-02-0.854D-02
 Coeff-Com: -0.429D-01-0.134D+00-0.287D-01 0.473D+00 0.733D+00
 Coeff:     -0.335D-03 0.651D-03 0.135D-02 0.216D-02 0.457D-02-0.854D-02
 Coeff:     -0.429D-01-0.134D+00-0.287D-01 0.473D+00 0.733D+00
 Gap=     0.121 Goal=   None    Shift=    0.000
 RMSDP=7.05D-07 MaxDP=6.00D-05 DE=-8.26D-07 OVMax= 3.86D-04

 Cycle  12  Pass 1  IDiag  1:
 RMSU=  2.67D-07    CP:  9.64D-01  1.50D+00  6.88D-01  6.28D-01  8.87D-01
                    CP:  9.21D-01  1.13D+00  1.29D+00  1.57D+00  1.77D+00
                    CP:  1.20D+00
 E= -4069.81189684201     Delta-E=       -0.000000277887 Rises=F Damp=F
 DIIS: error= 2.50D-06 at cycle  12 NSaved=  12.
 NSaved=12 IEnMin=12 EnMin= -4069.81189684201     IErMin=12 ErrMin= 2.50D-06
 ErrMax= 2.50D-06  0.00D+00 EMaxC= 1.00D-01 BMatC= 1.59D-08 BMatP= 6.53D-08
 IDIUse=1 WtCom= 1.00D+00 WtEn= 0.00D+00
 Coeff-Com: -0.124D-05-0.146D-04 0.187D-03 0.524D-03 0.344D-02 0.404D-02
 Coeff-Com:  0.302D-02-0.355D-01-0.702D-01-0.724D-01 0.249D+00 0.918D+00
 Coeff:     -0.124D-05-0.146D-04 0.187D-03 0.524D-03 0.344D-02 0.404D-02
 Coeff:      0.302D-02-0.355D-01-0.702D-01-0.724D-01 0.249D+00 0.918D+00
 Gap=     0.121 Goal=   None    Shift=    0.000
 RMSDP=4.51D-07 MaxDP=3.07D-05 DE=-2.78D-07 OVMax= 2.56D-04

 Cycle  13  Pass 1  IDiag  1:
 RMSU=  1.68D-07    CP:  9.64D-01  1.50D+00  6.88D-01  6.28D-01  8.87D-01
                    CP:  9.22D-01  1.14D+00  1.32D+00  1.69D+00  2.01D+00
                    CP:  1.62D+00  1.27D+00
 E= -4069.81189693937     Delta-E=       -0.000000097356 Rises=F Damp=F
 DIIS: error= 1.35D-06 at cycle  13 NSaved=  13.
 NSaved=13 IEnMin=13 EnMin= -4069.81189693937     IErMin=13 ErrMin= 1.35D-06
 ErrMax= 1.35D-06  0.00D+00 EMaxC= 1.00D-01 BMatC= 8.71D-09 BMatP= 1.59D-08
 IDIUse=1 WtCom= 1.00D+00 WtEn= 0.00D+00
 Coeff-Com:  0.122D-03-0.249D-03-0.376D-03-0.466D-03 0.615D-03 0.508D-02
 Coeff-Com:  0.197D-01 0.231D-01-0.334D-01-0.242D+00-0.160D+00 0.602D+00
 Coeff-Com:  0.786D+00
 Coeff:      0.122D-03-0.249D-03-0.376D-03-0.466D-03 0.615D-03 0.508D-02
 Coeff:      0.197D-01 0.231D-01-0.334D-01-0.242D+00-0.160D+00 0.602D+00
 Coeff:      0.786D+00
 Gap=     0.121 Goal=   None    Shift=    0.000
 RMSDP=3.50D-07 MaxDP=2.28D-05 DE=-9.74D-08 OVMax= 2.06D-04

 Cycle  14  Pass 1  IDiag  1:
 RMSU=  7.76D-08    CP:  9.64D-01  1.50D+00  6.88D-01  6.28D-01  8.87D-01
                    CP:  9.22D-01  1.15D+00  1.35D+00  1.77D+00  2.20D+00
                    CP:  1.88D+00  1.79D+00  1.09D+00
 E= -4069.81189697733     Delta-E=       -0.000000037966 Rises=F Damp=F
 DIIS: error= 6.83D-07 at cycle  14 NSaved=  14.
 NSaved=14 IEnMin=14 EnMin= -4069.81189697733     IErMin=14 ErrMin= 6.83D-07
 ErrMax= 6.83D-07  0.00D+00 EMaxC= 1.00D-01 BMatC= 1.33D-09 BMatP= 8.71D-09
 IDIUse=1 WtCom= 1.00D+00 WtEn= 0.00D+00
 Coeff-Com:  0.678D-04-0.134D-03-0.251D-03-0.395D-03-0.484D-03 0.128D-02
 Coeff-Com:  0.107D-01 0.195D-01 0.430D-02-0.101D+00-0.144D+00 0.953D-01
 Coeff-Com:  0.406D+00 0.709D+00
 Coeff:      0.678D-04-0.134D-03-0.251D-03-0.395D-03-0.484D-03 0.128D-02
 Coeff:      0.107D-01 0.195D-01 0.430D-02-0.101D+00-0.144D+00 0.953D-01
 Coeff:      0.406D+00 0.709D+00
 Gap=     0.121 Goal=   None    Shift=    0.000
 RMSDP=1.04D-07 MaxDP=7.37D-06 DE=-3.80D-08 OVMax= 5.58D-05

 Cycle  15  Pass 1  IDiag  1:
 RMSU=  3.88D-08    CP:  9.64D-01  1.50D+00  6.88D-01  6.28D-01  8.87D-01
                    CP:  9.22D-01  1.15D+00  1.35D+00  1.78D+00  2.24D+00
                    CP:  1.99D+00  1.93D+00  1.32D+00  1.03D+00
 E= -4069.81189698157     Delta-E=       -0.000000004238 Rises=F Damp=F
 DIIS: error= 3.26D-07 at cycle  15 NSaved=  15.
 NSaved=15 IEnMin=15 EnMin= -4069.81189698157     IErMin=15 ErrMin= 3.26D-07
 ErrMax= 3.26D-07  0.00D+00 EMaxC= 1.00D-01 BMatC= 2.32D-10 BMatP= 1.33D-09
 IDIUse=1 WtCom= 1.00D+00 WtEn= 0.00D+00
 Coeff-Com:  0.542D-05-0.901D-05-0.330D-04-0.829D-04-0.302D-03-0.526D-03
 Coeff-Com:  0.114D-02 0.254D-02 0.885D-02 0.159D-02-0.308D-01-0.719D-01
 Coeff-Com:  0.311D-01 0.294D+00 0.764D+00
 Coeff:      0.542D-05-0.901D-05-0.330D-04-0.829D-04-0.302D-03-0.526D-03
 Coeff:      0.114D-02 0.254D-02 0.885D-02 0.159D-02-0.308D-01-0.719D-01
 Coeff:      0.311D-01 0.294D+00 0.764D+00
 Gap=     0.121 Goal=   None    Shift=    0.000
 RMSDP=4.05D-08 MaxDP=2.76D-06 DE=-4.24D-09 OVMax= 2.78D-05

 Cycle  16  Pass 1  IDiag  1:
 RMSU=  1.89D-08    CP:  9.64D-01  1.50D+00  6.88D-01  6.28D-01  8.87D-01
                    CP:  9.22D-01  1.15D+00  1.35D+00  1.79D+00  2.26D+00
                    CP:  2.01D+00  1.99D+00  1.40D+00  1.24D+00  1.14D+00
 E= -4069.81189698242     Delta-E=       -0.000000000851 Rises=F Damp=F
 DIIS: error= 1.80D-07 at cycle  16 NSaved=  16.
 NSaved=16 IEnMin=16 EnMin= -4069.81189698242     IErMin=16 ErrMin= 1.80D-07
 ErrMax= 1.80D-07  0.00D+00 EMaxC= 1.00D-01 BMatC= 8.55D-11 BMatP= 2.32D-10
 IDIUse=1 WtCom= 1.00D+00 WtEn= 0.00D+00
 Coeff-Com: -0.144D-04 0.291D-04 0.474D-04 0.541D-04-0.285D-04-0.637D-03
 Coeff-Com: -0.195D-02-0.429D-02 0.441D-02 0.255D-01 0.208D-01-0.648D-01
 Coeff-Com: -0.816D-01-0.385D-01 0.399D+00 0.742D+00
 Coeff:     -0.144D-04 0.291D-04 0.474D-04 0.541D-04-0.285D-04-0.637D-03
 Coeff:     -0.195D-02-0.429D-02 0.441D-02 0.255D-01 0.208D-01-0.648D-01
 Coeff:     -0.816D-01-0.385D-01 0.399D+00 0.742D+00
 Gap=     0.121 Goal=   None    Shift=    0.000
 RMSDP=2.33D-08 MaxDP=1.63D-06 DE=-8.51D-10 OVMax= 1.23D-05

 Cycle  17  Pass 1  IDiag  1:
 RMSU=  1.06D-08    CP:  9.64D-01  1.50D+00  6.88D-01  6.28D-01  8.87D-01
                    CP:  9.22D-01  1.15D+00  1.35D+00  1.79D+00  2.26D+00
                    CP:  2.03D+00  2.01D+00  1.44D+00  1.34D+00  1.44D+00
                    CP:  1.24D+00
 E= -4069.81189698271     Delta-E=       -0.000000000287 Rises=F Damp=F
 DIIS: error= 9.60D-08 at cycle  17 NSaved=  17.
 NSaved=17 IEnMin=17 EnMin= -4069.81189698271     IErMin=17 ErrMin= 9.60D-08
 ErrMax= 9.60D-08  0.00D+00 EMaxC= 1.00D-01 BMatC= 1.83D-11 BMatP= 8.55D-11
 IDIUse=1 WtCom= 1.00D+00 WtEn= 0.00D+00
 Coeff-Com: -0.734D-05 0.143D-04 0.290D-04 0.431D-04 0.847D-04-0.126D-03
 Coeff-Com: -0.948D-03-0.283D-02 0.752D-04 0.937D-02 0.176D-01-0.782D-02
 Coeff-Com: -0.363D-01-0.101D+00-0.279D-01 0.294D+00 0.855D+00
 Coeff:     -0.734D-05 0.143D-04 0.290D-04 0.431D-04 0.847D-04-0.126D-03
 Coeff:     -0.948D-03-0.283D-02 0.752D-04 0.937D-02 0.176D-01-0.782D-02
 Coeff:     -0.363D-01-0.101D+00-0.279D-01 0.294D+00 0.855D+00
 Gap=     0.121 Goal=   None    Shift=    0.000
 RMSDP=1.37D-08 MaxDP=1.04D-06 DE=-2.87D-10 OVMax= 9.23D-06

 Cycle  18  Pass 1  IDiag  1:
 RMSU=  5.03D-09    CP:  9.64D-01  1.50D+00  6.88D-01  6.28D-01  8.87D-01
                    CP:  9.22D-01  1.15D+00  1.35D+00  1.79D+00  2.27D+00
                    CP:  2.03D+00  2.02D+00  1.46D+00  1.40D+00  1.61D+00
                    CP:  1.65D+00  1.37D+00
 E= -4069.81189698284     Delta-E=       -0.000000000131 Rises=F Damp=F
 DIIS: error= 5.96D-08 at cycle  18 NSaved=  18.
 NSaved=18 IEnMin=18 EnMin= -4069.81189698284     IErMin=18 ErrMin= 5.96D-08
 ErrMax= 5.96D-08  0.00D+00 EMaxC= 1.00D-01 BMatC= 7.42D-12 BMatP= 1.83D-11
 IDIUse=1 WtCom= 1.00D+00 WtEn= 0.00D+00
 Coeff-Com:  0.177D-05-0.386D-05-0.354D-05-0.214D-06 0.616D-04 0.175D-03
 Coeff-Com:  0.359D-03 0.135D-03-0.127D-02-0.569D-02 0.382D-03 0.192D-01
 Coeff-Com:  0.165D-01-0.352D-01-0.160D+00-0.178D+00 0.372D+00 0.971D+00
 Coeff:      0.177D-05-0.386D-05-0.354D-05-0.214D-06 0.616D-04 0.175D-03
 Coeff:      0.359D-03 0.135D-03-0.127D-02-0.569D-02 0.382D-03 0.192D-01
 Coeff:      0.165D-01-0.352D-01-0.160D+00-0.178D+00 0.372D+00 0.971D+00
 Gap=     0.121 Goal=   None    Shift=    0.000
 RMSDP=1.16D-08 MaxDP=7.91D-07 DE=-1.31D-10 OVMax= 6.09D-06

 Cycle  19  Pass 1  IDiag  1:
 RMSU=  2.96D-09    CP:  9.64D-01  1.50D+00  6.88D-01  6.28D-01  8.87D-01
                    CP:  9.22D-01  1.15D+00  1.35D+00  1.79D+00  2.27D+00
                    CP:  2.04D+00  2.02D+00  1.47D+00  1.45D+00  1.75D+00
                    CP:  1.96D+00  1.91D+00  1.31D+00
 E= -4069.81189698296     Delta-E=       -0.000000000116 Rises=F Damp=F
 DIIS: error= 3.12D-08 at cycle  19 NSaved=  19.
 NSaved=19 IEnMin=19 EnMin= -4069.81189698296     IErMin=19 ErrMin= 3.12D-08
 ErrMax= 3.12D-08  0.00D+00 EMaxC= 1.00D-01 BMatC= 1.67D-12 BMatP= 7.42D-12
 IDIUse=1 WtCom= 1.00D+00 WtEn= 0.00D+00
 Coeff-Com:  0.297D-05-0.600D-05-0.100D-04-0.124D-04 0.138D-04 0.125D-03
 Coeff-Com:  0.481D-03 0.802D-03-0.619D-03-0.607D-02-0.479D-02 0.127D-01
 Coeff-Com:  0.204D-01 0.981D-02-0.746D-01-0.182D+00-0.164D-01 0.512D+00
 Coeff-Com:  0.728D+00
 Coeff:      0.297D-05-0.600D-05-0.100D-04-0.124D-04 0.138D-04 0.125D-03
 Coeff:      0.481D-03 0.802D-03-0.619D-03-0.607D-02-0.479D-02 0.127D-01
 Coeff:      0.204D-01 0.981D-02-0.746D-01-0.182D+00-0.164D-01 0.512D+00
 Coeff:      0.728D+00
 Gap=     0.121 Goal=   None    Shift=    0.000
 RMSDP=4.66D-09 MaxDP=3.40D-07 DE=-1.16D-10 OVMax= 3.32D-06

 SCF Done:  E(RCAM-B3LYP) =  -4069.81189698     A.U. after   19 cycles
            NFock= 19  Conv=0.47D-08     -V/T= 2.0102
 KE= 4.028802353528D+03 PE=-3.747056945855D+04 EE= 1.537705387104D+04
 Leave Link  502 at Sun Sep 12 02:33:07 2021, MaxMem= 23488102400 cpu:           12443.9 elap:             542.2
 (Enter /sw/apps/gaussian-16.0/g16/l801.exe)
 DoSCS=F DFT=T ScalE2(SS,OS)=  1.000000  1.000000
 ExpMin= 3.36D-02 ExpMax= 4.95D+03 ExpMxC= 7.45D+02 IAcc=3 IRadAn=         5 AccDes= 0.00D+00
 HarFok:  IExCor=  205 AccDes= 0.00D+00 IRadAn=         5 IDoV=-2 UseB2=F ITyADJ=14
 ICtDFT= 12500011 ScaDFX=  1.000000  1.000000  1.000000  1.000000
 GSVD:  LWork=       -9588 too small for GESVD, short by       45590 words or       45590 for optimal perf.
 Largest valence mixing into a core orbital is  2.03D-04
 Largest core mixing into a valence orbital is  5.24D-05
 Range of M.O.s used for correlation:    95  1572
 NBasis=  1572 NAE=   312 NBE=   312 NFC=    94 NFV=     0
 NROrb=   1478 NOA=   218 NOB=   218 NVA=  1260 NVB=  1260
 Leave Link  801 at Sun Sep 12 02:33:07 2021, MaxMem= 23488102400 cpu:               9.2 elap:               0.4
 (Enter /sw/apps/gaussian-16.0/g16/l914.exe)
 RHF ground state
 Two-electron integrals replicated using symmetry.
 MDV= 23488102400 DFT=T DoStab=F Mixed=T DoRPA=T DoScal=F NonHer=T
 Making orbital integer symmetry assigments:
 Orbital symmetries:
       Occupied  (A) (A) (A) (A) (A) (A) (A) (A) (A) (A) (A) (A)
                 (A) (A) (A) (A) (A) (A) (A) (A) (A) (A) (A) (A)
                 (A) (A) (A) (A) (A) (A) (A) (A) (A) (A) (A) (A)
                 (A) (A) (A) (A) (A) (A) (A) (A) (A) (A) (A) (A)
                 (A) (A) (A) (A) (A) (A) (A) (A) (A) (A) (A) (A)
                 (A) (A) (A) (A) (A) (A) (A) (A) (A) (A) (A) (A)
                 (A) (A) (A) (A) (A) (A) (A) (A) (A) (A) (A) (A)
                 (A) (A) (A) (A) (A) (A) (A) (A) (A) (A) (A) (A)
                 (A) (A) (A) (A) (A) (A) (A) (A) (A) (A) (A) (A)
                 (A) (A) (A) (A) (A) (A) (A) (A) (A) (A) (A) (A)
                 (A) (A) (A) (A) (A) (A) (A) (A) (A) (A) (A) (A)
                 (A) (A) (A) (A) (A) (A) (A) (A) (A) (A) (A) (A)
                 (A) (A) (A) (A) (A) (A) (A) (A) (A) (A) (A) (A)
                 (A) (A) (A) (A) (A) (A) (A) (A) (A) (A) (A) (A)
                 (A) (A) (A) (A) (A) (A) (A) (A) (A) (A) (A) (A)
                 (A) (A) (A) (A) (A) (A) (A) (A) (A) (A) (A) (A)
                 (A) (A) (A) (A) (A) (A) (A) (A) (A) (A) (A) (A)
                 (A) (A) (A) (A) (A) (A) (A) (A) (A) (A) (A) (A)
                 (A) (A) (A) (A) (A) (A) (A) (A) (A) (A) (A) (A)
                 (A) (A) (A) (A) (A) (A) (A) (A) (A) (A) (A) (A)
                 (A) (A) (A) (A) (A) (A) (A) (A) (A) (A) (A) (A)
                 (A) (A) (A) (A) (A) (A) (A) (A) (A) (A) (A) (A)
                 (A) (A) (A) (A) (A) (A) (A) (A) (A) (A) (A) (A)
                 (A) (A) (A) (A) (A) (A) (A) (A) (A) (A) (A) (A)
                 (A) (A) (A) (A) (A) (A) (A) (A) (A) (A) (A) (A)
                 (A) (A) (A) (A) (A) (A) (A) (A) (A) (A) (A) (A)
       Virtual   (A) (A) (A) (A) (A) (A) (A) (A) (A) (A) (A) (A)
                 (A) (A) (A) (A) (A) (A) (A) (A) (A) (A) (A) (A)
                 (A) (A) (A) (A) (A) (A) (A) (A) (A) (A) (A) (A)
                 (A) (A) (A) (A) (A) (A) (A) (A) (A) (A) (A) (A)
                 (A) (A) (A) (A) (A) (A) (A) (A) (A) (A) (A) (A)
                 (A) (A) (A) (A) (A) (A) (A) (A) (A) (A) (A) (A)
                 (A) (A) (A) (A) (A) (A) (A) (A) (A) (A) (A) (A)
                 (A) (A) (A) (A) (A) (A) (A) (A) (A) (A) (A) (A)
                 (A) (A) (A) (A) (A) (A) (A) (A) (A) (A) (A) (A)
                 (A) (A) (A) (A) (A) (A) (A) (A) (A) (A) (A) (A)
                 (A) (A) (A) (A) (A) (A) (A) (A) (A) (A) (A) (A)
                 (A) (A) (A) (A) (A) (A) (A) (A) (A) (A) (A) (A)
                 (A) (A) (A) (A) (A) (A) (A) (A) (A) (A) (A) (A)
                 (A) (A) (A) (A) (A) (A) (A) (A) (A) (A) (A) (A)
                 (A) (A) (A) (A) (A) (A) (A) (A) (A) (A) (A) (A)
                 (A) (A) (A) (A) (A) (A) (A) (A) (A) (A) (A) (A)
                 (A) (A) (A) (A) (A) (A) (A) (A) (A) (A) (A) (A)
                 (A) (A) (A) (A) (A) (A) (A) (A) (A) (A) (A) (A)
                 (A) (A) (A) (A) (A) (A) (A) (A) (A) (A) (A) (A)
                 (A) (A) (A) (A) (A) (A) (A) (A) (A) (A) (A) (A)
                 (A) (A) (A) (A) (A) (A) (A) (A) (A) (A) (A) (A)
                 (A) (A) (A) (A) (A) (A) (A) (A) (A) (A) (A) (A)
                 (A) (A) (A) (A) (A) (A) (A) (A) (A) (A) (A) (A)
                 (A) (A) (A) (A) (A) (A) (A) (A) (A) (A) (A) (A)
                 (A) (A) (A) (A) (A) (A) (A) (A) (A) (A) (A) (A)
                 (A) (A) (A) (A) (A) (A) (A) (A) (A) (A) (A) (A)
                 (A) (A) (A) (A) (A) (A) (A) (A) (A) (A) (A) (A)
                 (A) (A) (A) (A) (A) (A) (A) (A) (A) (A) (A) (A)
                 (A) (A) (A) (A) (A) (A) (A) (A) (A) (A) (A) (A)
                 (A) (A) (A) (A) (A) (A) (A) (A) (A) (A) (A) (A)
                 (A) (A) (A) (A) (A) (A) (A) (A) (A) (A) (A) (A)
                 (A) (A) (A) (A) (A) (A) (A) (A) (A) (A) (A) (A)
                 (A) (A) (A) (A) (A) (A) (A) (A) (A) (A) (A) (A)
                 (A) (A) (A) (A) (A) (A) (A) (A) (A) (A) (A) (A)
                 (A) (A) (A) (A) (A) (A) (A) (A) (A) (A) (A) (A)
                 (A) (A) (A) (A) (A) (A) (A) (A) (A) (A) (A) (A)
                 (A) (A) (A) (A) (A) (A) (A) (A) (A) (A) (A) (A)
                 (A) (A) (A) (A) (A) (A) (A) (A) (A) (A) (A) (A)
                 (A) (A) (A) (A) (A) (A) (A) (A) (A) (A) (A) (A)
                 (A) (A) (A) (A) (A) (A) (A) (A) (A) (A) (A) (A)
                 (A) (A) (A) (A) (A) (A) (A) (A) (A) (A) (A) (A)
                 (A) (A) (A) (A) (A) (A) (A) (A) (A) (A) (A) (A)
                 (A) (A) (A) (A) (A) (A) (A) (A) (A) (A) (A) (A)
                 (A) (A) (A) (A) (A) (A) (A) (A) (A) (A) (A) (A)
                 (A) (A) (A) (A) (A) (A) (A) (A) (A) (A) (A) (A)
                 (A) (A) (A) (A) (A) (A) (A) (A) (A) (A) (A) (A)
                 (A) (A) (A) (A) (A) (A) (A) (A) (A) (A) (A) (A)
                 (A) (A) (A) (A) (A) (A) (A) (A) (A) (A) (A) (A)
                 (A) (A) (A) (A) (A) (A) (A) (A) (A) (A) (A) (A)
                 (A) (A) (A) (A) (A) (A) (A) (A) (A) (A) (A) (A)
                 (A) (A) (A) (A) (A) (A) (A) (A) (A) (A) (A) (A)
                 (A) (A) (A) (A) (A) (A) (A) (A) (A) (A) (A) (A)
                 (A) (A) (A) (A) (A) (A) (A) (A) (A) (A) (A) (A)
                 (A) (A) (A) (A) (A) (A) (A) (A) (A) (A) (A) (A)
                 (A) (A) (A) (A) (A) (A) (A) (A) (A) (A) (A) (A)
                 (A) (A) (A) (A) (A) (A) (A) (A) (A) (A) (A) (A)
                 (A) (A) (A) (A) (A) (A) (A) (A) (A) (A) (A) (A)
                 (A) (A) (A) (A) (A) (A) (A) (A) (A) (A) (A) (A)
                 (A) (A) (A) (A) (A) (A) (A) (A) (A) (A) (A) (A)
                 (A) (A) (A) (A) (A) (A) (A) (A) (A) (A) (A) (A)
                 (A) (A) (A) (A) (A) (A) (A) (A) (A) (A) (A) (A)
                 (A) (A) (A) (A) (A) (A) (A) (A) (A) (A) (A) (A)
                 (A) (A) (A) (A) (A) (A) (A) (A) (A) (A) (A) (A)
                 (A) (A) (A) (A) (A) (A) (A) (A) (A) (A) (A) (A)
                 (A) (A) (A) (A) (A) (A) (A) (A) (A) (A) (A) (A)
                 (A) (A) (A) (A) (A) (A) (A) (A) (A) (A) (A) (A)
                 (A) (A) (A) (A) (A) (A) (A) (A) (A) (A) (A) (A)
                 (A) (A) (A) (A) (A) (A) (A) (A) (A) (A) (A) (A)
                 (A) (A) (A) (A) (A) (A) (A) (A) (A) (A) (A) (A)
                 (A) (A) (A) (A) (A) (A) (A) (A) (A) (A) (A) (A)
                 (A) (A) (A) (A) (A) (A) (A) (A) (A) (A) (A) (A)
                 (A) (A) (A) (A) (A) (A) (A) (A) (A) (A) (A) (A)
                 (A) (A) (A) (A) (A) (A) (A) (A) (A) (A) (A) (A)
                 (A) (A) (A) (A) (A) (A) (A) (A) (A) (A) (A) (A)
                 (A) (A) (A) (A) (A) (A) (A) (A) (A) (A) (A) (A)
                 (A) (A) (A) (A) (A) (A) (A) (A) (A) (A) (A) (A)
                 (A) (A) (A) (A) (A) (A) (A) (A) (A) (A) (A) (A)
                 (A) (A) (A) (A) (A) (A) (A) (A) (A) (A) (A) (A)
                 (A) (A) (A) (A) (A) (A) (A) (A) (A) (A) (A) (A)
                 (A) (A) (A) (A) (A) (A) (A) (A) (A) (A) (A) (A)
                 (A) (A) (A) (A) (A) (A) (A) (A) (A) (A) (A) (A)
                 (A) (A) (A) (A) (A) (A) (A) (A) (A) (A) (A) (A)
                 (A) (A) (A) (A) (A) (A) (A) (A) (A) (A) (A) (A)
                 (A) (A) (A) (A) (A) (A) (A) (A) (A) (A) (A) (A)
                 (A) (A) (A) (A) (A) (A) (A) (A) (A) (A) (A) (A)
                 (A) (A) (A) (A) (A) (A) (A) (A) (A) (A) (A) (A)
                 (A) (A) (A) (A) (A) (A) (A) (A) (A) (A) (A) (A)
                 (A) (A) (A) (A) (A) (A) (A) (A) (A) (A) (A) (A)
                 (A) (A) (A) (A) (A) (A) (A) (A) (A) (A) (A) (A)
                 (A) (A) (A) (A) (A) (A) (A) (A) (A) (A) (A) (A)
                 (A) (A) (A) (A) (A) (A) (A) (A) (A) (A) (A) (A)
                 (A) (A) (A) (A) (A) (A) (A) (A) (A) (A) (A) (A)
                 (A) (A) (A) (A) (A) (A) (A) (A) (A) (A) (A) (A)
                 (A) (A) (A) (A) (A) (A) (A) (A) (A) (A) (A) (A)
                 (A) (A) (A) (A) (A) (A) (A) (A) (A) (A) (A) (A)
                 (A) (A) (A) (A) (A) (A) (A) (A) (A) (A) (A) (A)
                 (A) (A) (A) (A) (A) (A) (A) (A) (A) (A) (A) (A)
                 (A) (A) (A) (A) (A) (A) (A) (A) (A) (A) (A) (A)
                 (A) (A) (A) (A) (A) (A) (A) (A) (A) (A) (A) (A)
                 (A) (A) (A) (A) (A) (A) (A) (A) (A) (A) (A) (A)
                 (A) (A) (A) (A) (A) (A) (A) (A) (A) (A) (A) (A)
                 (A) (A) (A) (A) (A) (A) (A) (A) (A) (A) (A) (A)
                 (A) (A) (A) (A) (A) (A) (A) (A) (A) (A) (A) (A)
                 (A) (A) (A) (A) (A) (A) (A) (A) (A) (A) (A) (A)
                 (A) (A) (A) (A) (A) (A) (A) (A) (A) (A) (A) (A)
    20 initial guesses have been made.
 Convergence on wavefunction:    0.001000000000000
 Davidson Disk Diagonalization:  ConvIn= 1.00D-03 SkipCon=T Conv= 1.00D-03.
 Max sub-space:  2000 roots to seek:    20 dimension of matrix:       549360
 Iteration     1 Dimension    20 NMult     0 NNew     20
 CISAX will form    20 AO SS matrices at one time.
 NMat=    20 NSing=    20 JSym2X= 0.
 FoFJK:  IHMeth= 1 ICntrl=       0 DoSepK=T KAlg= 0 I1Cent=           0 FoldK=F
 IRaf=         1 NMat=      40 IRICut=       1 DoRegI=T DoRafI=F ISym2E= 0 IDoP0=3 IntGTp=3.
 FoFCou: FMM=T IPFlag=           0 FMFlag=      100000 FMFlg1=        2001
         NFxFlg=           0 DoJE=F BraDBF=F KetDBF=F FulRan=T
         wScrn=  0.000000 ICntrl=       500 IOpCl=  0 I1Cent=           0 NGrid=           0
         NMat0=   20 NMatS0=     20 NMatT0=    0 NMatD0=   20 NMtDS0=    0 NMtDT0=    0
 Symmetry not used in FoFCou.
 FMM levels:  10  Number of levels for PrismC:   9
 New state      1 was old state      7
 New state      2 was old state      6
 New state      3 was old state      2
 New state      4 was old state      3
 New state      5 was old state      1
 Excitation Energies [eV] at current iteration:
 Root      1 :     2.614260324742439
 Root      2 :     2.620442471416500
 Root      3 :     2.667481456495017
 Root      4 :     2.703362381360685
 Root      5 :     2.716299939848316
 Root      6 :     2.855916013489209
 Root      7 :     3.503460482854803
 Root      8 :     3.625842405299706
 Root      9 :     3.657803475250232
 Root     10 :     3.667351772375912
 Root     11 :     3.738154499170319
 Root     12 :     3.761049468127717
 Root     13 :     4.301919381661592
 Root     14 :     4.304134238430867
 Root     15 :     4.623569763726002
 Root     16 :     4.804958666877267
 Root     17 :     4.926421616716053
 Root     18 :     4.975415354238068
 Root     19 :     5.081160586342181
 Root     20 :     5.088350799178151
 Iteration     2 Dimension    30 NMult    20 NNew     10
 CISAX will form    10 AO SS matrices at one time.
 NMat=    10 NSing=    10 JSym2X= 0.
 New state      1 was old state      3
 Root      1 not converged, maximum delta is    0.150234193534982
 New state      2 was old state      4
 Root      2 not converged, maximum delta is    0.154627051576662
 New state      3 was old state      2
 Root      3 not converged, maximum delta is    0.185228992889202
 New state      4 was old state      1
 Root      4 not converged, maximum delta is    0.172757120955468
 Root      5 not converged, maximum delta is    0.013435419202550
 Excitation Energies [eV] at current iteration:
 Root      1 :     1.794433620159837   Change is   -0.873047836335180
 Root      2 :     1.813355347471379   Change is   -0.890007033889306
 Root      3 :     2.235670871589049   Change is   -0.384771599827452
 Root      4 :     2.239323389423508   Change is   -0.374936935318931
 Root      5 :     2.714994661901528   Change is   -0.001305277946788
 Iteration     3 Dimension    40 NMult    30 NNew     10
 CISAX will form    10 AO SS matrices at one time.
 NMat=    10 NSing=    10 JSym2X= 0.
 Root      1 not converged, maximum delta is    0.054591910917616
 Root      2 not converged, maximum delta is    0.055573134994103
 Root      3 not converged, maximum delta is    0.048449516418994
 Root      4 not converged, maximum delta is    0.048157556453667
 Root      5 has converged.
 Excitation Energies [eV] at current iteration:
 Root      1 :     1.687687804617252   Change is   -0.106745815542586
 Root      2 :     1.704600657581816   Change is   -0.108754689889563
 Root      3 :     2.193679585751604   Change is   -0.041991285837444
 Root      4 :     2.200229753473771   Change is   -0.039093635949738
 Root      5 :     2.714992932006000   Change is   -0.000001729895527
 Iteration     4 Dimension    48 NMult    40 NNew      8
 CISAX will form     8 AO SS matrices at one time.
 NMat=     8 NSing=     8 JSym2X= 0.
 Root      1 not converged, maximum delta is    0.010564162100224
 Root      2 not converged, maximum delta is    0.010484687147377
 Root      3 not converged, maximum delta is    0.009948463134844
 Root      4 not converged, maximum delta is    0.009002779598551
 Root      5 has converged.
 Excitation Energies [eV] at current iteration:
 Root      1 :     1.670933500982996   Change is   -0.016754303634256
 Root      2 :     1.687767711716163   Change is   -0.016832945865652
 Root      3 :     2.186302348326660   Change is   -0.007377237424945
 Root      4 :     2.193430715871997   Change is   -0.006799037601774
 Root      5 :     2.714992932003396   Change is   -0.000000000002604
 Iteration     5 Dimension    56 NMult    48 NNew      8
 CISAX will form     8 AO SS matrices at one time.
 NMat=     8 NSing=     8 JSym2X= 0.
 Root      1 not converged, maximum delta is    0.001711691706494
 Root      2 not converged, maximum delta is    0.001741363088957
 Root      3 not converged, maximum delta is    0.002525269414231
 Root      4 not converged, maximum delta is    0.002380711828749
 Root      5 has converged.
 Excitation Energies [eV] at current iteration:
 Root      1 :     1.669167258409926   Change is   -0.001766242573070
 Root      2 :     1.685980413429863   Change is   -0.001787298286301
 Root      3 :     2.185443711053653   Change is   -0.000858637273007
 Root      4 :     2.192651146297025   Change is   -0.000779569574971
 Root      5 :     2.714992932000974   Change is   -0.000000000002422
 Iteration     6 Dimension    64 NMult    56 NNew      8
 CISAX will form     8 AO SS matrices at one time.
 NMat=     8 NSing=     8 JSym2X= 0.
 Root      1 not converged, maximum delta is    0.001079816805063
 Root      2 not converged, maximum delta is    0.001084672980382
 Root      3 not converged, maximum delta is    0.001089852151353
 Root      4 not converged, maximum delta is    0.001019310211078
 Root      5 has converged.
 Excitation Energies [eV] at current iteration:
 Root      1 :     1.668916086619985   Change is   -0.000251171789941
 Root      2 :     1.685723460846872   Change is   -0.000256952582991
 Root      3 :     2.185313670283734   Change is   -0.000130040769919
 Root      4 :     2.192532594289354   Change is   -0.000118552007672
 Root      5 :     2.714992932000005   Change is   -0.000000000000969
 Iteration     7 Dimension    72 NMult    64 NNew      8
 CISAX will form     8 AO SS matrices at one time.
 NMat=     8 NSing=     8 JSym2X= 0.
 Root      1 has converged.
 Root      2 has converged.
 Root      3 has converged.
 Root      4 has converged.
 Root      5 has converged.
 Excitation Energies [eV] at current iteration:
 Root      1 :     1.668891695627304   Change is   -0.000024390992682
[...]
 Alpha virt. eigenvalues --    1.83650   1.83653   1.83912   1.83942   1.84299
 Alpha virt. eigenvalues --    1.84340   1.84582   1.84698   1.84853   1.84988
 Alpha virt. eigenvalues --    1.85162   1.85195   1.85348   1.85399   1.85559
 Alpha virt. eigenvalues --    1.85757   1.85967   1.86248   1.86435   1.86439
 Alpha virt. eigenvalues --    1.86675   1.86724   1.86872   1.86935   1.87162
 Alpha virt. eigenvalues --    1.87337   1.87560   1.87574   1.87757   1.87889
 Alpha virt. eigenvalues --    1.87929   1.88073   1.88266   1.88425   1.88642
 Alpha virt. eigenvalues --    1.88722   1.89006   1.89019   1.89151   1.89510
 Alpha virt. eigenvalues --    1.89627   1.89720   1.89932   1.90010   1.90269
 Alpha virt. eigenvalues --    1.90647   1.90984   1.91247   1.91338   1.91489
 Alpha virt. eigenvalues --    1.91691   1.92051   1.92268   1.92521   1.92765
 Alpha virt. eigenvalues --    1.92874   1.93215   1.93227   1.93552   1.94172
 Alpha virt. eigenvalues --    1.94370   1.94577   1.94872   1.95366   1.95622
 Alpha virt. eigenvalues --    1.95632   1.95890   1.95915   1.96041   1.96115
 Alpha virt. eigenvalues --    1.96281   1.96488   1.96563   1.96788   1.97001
 Alpha virt. eigenvalues --    1.97343   1.97644   1.97731   1.97897   1.98064
 Alpha virt. eigenvalues --    1.98258   1.98508   1.98580   1.99032   1.99141
 Alpha virt. eigenvalues --    1.99717   2.00027   2.00552   2.00793   2.00889
 Alpha virt. eigenvalues --    2.01190   2.01373   2.01549   2.01563   2.01611
 Alpha virt. eigenvalues --    2.01722   2.01928   2.02677   2.02793   2.03130
 Alpha virt. eigenvalues --    2.03204   2.03295   2.03379   2.03474   2.03616
 Alpha virt. eigenvalues --    2.03928   2.04114   2.04844   2.05029   2.05400
 Alpha virt. eigenvalues --    2.05683   2.05964   2.06359   2.06800   2.07085
 Alpha virt. eigenvalues --    2.07170   2.07421   2.08463   2.08585   2.08870
 Alpha virt. eigenvalues --    2.09084   2.09479   2.09694   2.10664   2.11072
 Alpha virt. eigenvalues --    2.11074   2.11432   2.11469   2.11615   2.11640
 Alpha virt. eigenvalues --    2.11929   2.12357   2.12559   2.12691   2.12730
 Alpha virt. eigenvalues --    2.12855   2.12942   2.13662   2.13734   2.14031
 Alpha virt. eigenvalues --    2.14294   2.15222   2.15461   2.15824   2.16162
 Alpha virt. eigenvalues --    2.16411   2.16649   2.16657   2.17237   2.17308
 Alpha virt. eigenvalues --    2.17595   2.17693   2.17962   2.18017   2.18054
 Alpha virt. eigenvalues --    2.18217   2.18763   2.18788   2.19344   2.19534
 Alpha virt. eigenvalues --    2.19902   2.19927   2.20111   2.20332   2.20521
 Alpha virt. eigenvalues --    2.21036   2.21204   2.21556   2.21643   2.21837
 Alpha virt. eigenvalues --    2.21978   2.22569   2.22763   2.23206   2.23398
 Alpha virt. eigenvalues --    2.24280   2.24469   2.24840   2.25041   2.26190
 Alpha virt. eigenvalues --    2.26526   2.26666   2.26996   2.27083   2.27296
 Alpha virt. eigenvalues --    2.28028   2.28389   2.29156   2.29488   2.29624
 Alpha virt. eigenvalues --    2.29951   2.30346   2.30734   2.30976   2.30995
 Alpha virt. eigenvalues --    2.31083   2.31258   2.32003   2.32281   2.33022
 Alpha virt. eigenvalues --    2.33313   2.33349   2.33550   2.34030   2.34205
 Alpha virt. eigenvalues --    2.35269   2.35433   2.35688   2.35979   2.36236
 Alpha virt. eigenvalues --    2.36393   2.36484   2.36508   2.37549   2.37721
 Alpha virt. eigenvalues --    2.38133   2.38415   2.38749   2.38881   2.39498
 Alpha virt. eigenvalues --    2.39733   2.40068   2.40314   2.40376   2.40921
 Alpha virt. eigenvalues --    2.41163   2.41315   2.41568   2.41751   2.41937
 Alpha virt. eigenvalues --    2.42235   2.42824   2.42851   2.43326   2.43440
 Alpha virt. eigenvalues --    2.44051   2.44060   2.44619   2.44793   2.44867
 Alpha virt. eigenvalues --    2.45058   2.45441   2.45621   2.46180   2.46334
 Alpha virt. eigenvalues --    2.46370   2.46550   2.46689   2.46876   2.47148
 Alpha virt. eigenvalues --    2.47441   2.47599   2.47936   2.49192   2.49419
 Alpha virt. eigenvalues --    2.49922   2.49948   2.50425   2.50490   2.51010
 Alpha virt. eigenvalues --    2.51355   2.51662   2.51770   2.52327   2.52513
 Alpha virt. eigenvalues --    2.52699   2.53230   2.53803   2.54009   2.54023
 Alpha virt. eigenvalues --    2.54305   2.54676   2.54859   2.55399   2.55711
 Alpha virt. eigenvalues --    2.57744   2.58115   2.58532   2.58943   2.60096
 Alpha virt. eigenvalues --    2.60392   2.60501   2.60992   2.61592   2.61855
 Alpha virt. eigenvalues --    2.62421   2.62491   2.62845   2.63180   2.63823
 Alpha virt. eigenvalues --    2.64130   2.64273   2.64447   2.64966   2.65148
 Alpha virt. eigenvalues --    2.65674   2.65938   2.66657   2.66796   2.66847
 Alpha virt. eigenvalues --    2.67097   2.67792   2.68025   2.68738   2.68856
 Alpha virt. eigenvalues --    2.68912   2.69139   2.69272   2.69643   2.69883
 Alpha virt. eigenvalues --    2.70173   2.70867   2.71143   2.71939   2.71978
 Alpha virt. eigenvalues --    2.72546   2.72598   2.72727   2.72866   2.73155
 Alpha virt. eigenvalues --    2.73304   2.73421   2.73611   2.74398   2.74558
 Alpha virt. eigenvalues --    2.74862   2.75114   2.76476   2.76555   2.77116
 Alpha virt. eigenvalues --    2.77121   2.77332   2.77639   2.78056   2.78315
 Alpha virt. eigenvalues --    2.78615   2.78732   2.79016   2.79221   2.80217
 Alpha virt. eigenvalues --    2.80289   2.80473   2.80784   2.81008   2.81193
 Alpha virt. eigenvalues --    2.81821   2.82060   2.82226   2.82370   2.83631
 Alpha virt. eigenvalues --    2.83653   2.83864   2.83984   2.84432   2.84552
 Alpha virt. eigenvalues --    2.84766   2.84905   2.85540   2.85721   2.86729
 Alpha virt. eigenvalues --    2.86882   2.87342   2.87505   2.88023   2.88256
 Alpha virt. eigenvalues --    2.88406   2.88649   2.88817   2.88903   2.90386
 Alpha virt. eigenvalues --    2.90709   2.91074   2.91099   2.93042   2.93368
 Alpha virt. eigenvalues --    2.93809   2.94082   2.94430   2.94580   2.95257
 Alpha virt. eigenvalues --    2.95550   2.96025   2.96098   2.96322   2.96415
 Alpha virt. eigenvalues --    2.97024   2.97070   2.97706   2.98045   2.98083
 Alpha virt. eigenvalues --    2.98262   2.98457   2.98506   2.98618   2.98768
 Alpha virt. eigenvalues --    2.98810   2.98949   2.99458   2.99806   2.99917
 Alpha virt. eigenvalues --    3.00109   3.00145   3.00350   3.00358   3.01048
 Alpha virt. eigenvalues --    3.01872   3.01912   3.01924   3.02181   3.02626
 Alpha virt. eigenvalues --    3.02873   3.02938   3.03203   3.03341   3.03761
 Alpha virt. eigenvalues --    3.04053   3.04101   3.04356   3.04431   3.04478
 Alpha virt. eigenvalues --    3.04756   3.05185   3.05362   3.05999   3.06195
 Alpha virt. eigenvalues --    3.06693   3.06975   3.07926   3.08021   3.09283
 Alpha virt. eigenvalues --    3.09359   3.09577   3.10330   3.10528   3.10788
 Alpha virt. eigenvalues --    3.11217   3.11482   3.11833   3.11900   3.12056
 Alpha virt. eigenvalues --    3.12378   3.13166   3.13518   3.13692   3.13718
 Alpha virt. eigenvalues --    3.13990   3.14633   3.15798   3.15983   3.17154
 Alpha virt. eigenvalues --    3.17556   3.17881   3.17946   3.19003   3.19046
 Alpha virt. eigenvalues --    3.22197   3.22720   3.23832   3.24480   3.24570
 Alpha virt. eigenvalues --    3.25257   3.26390   3.26686   3.27434   3.27506
 Alpha virt. eigenvalues --    3.28991   3.29359   3.31409   3.31414   3.33210
 Alpha virt. eigenvalues --    3.33301   3.40449   3.40529   3.42687   3.42828
 Alpha virt. eigenvalues --    3.48552   3.48738   3.49906   3.50307   3.50865
 Alpha virt. eigenvalues --    3.51356   3.56431   3.57027   3.58982   3.59357
 Alpha virt. eigenvalues --    3.62551   3.62725   3.66051   3.66117   3.67079
 Alpha virt. eigenvalues --    3.67700   3.73166   3.74138   3.75953   3.76780
          Condensed to atoms (all electrons):
 Mulliken charges:
               1
     1  Mg   0.837786
     2  C   -0.003221
     3  C   -0.094173
     4  C   -0.046094
     5  C   -0.063862
     6  N   -0.256798
     7  C   -0.052460
     8  C   -0.013936
     9  C   -0.086957
    10  C    0.046094
    11  C    0.104743
    12  C    0.053521
    13  C   -0.071953
    14  H    0.036282
    15  N   -0.433149
    16  C    0.168070
    17  C   -0.177305
    18  C   -0.004269
    19  C    0.148419
    20  C    0.110141
    21  C    0.011777
    22  O   -0.249715
    23  C    0.062707
    24  N   -0.341095
    25  C    0.041188
    26  C   -0.028177
    27  C   -0.024071
    28  C    0.074723
    29  C    0.076088
    30  C    0.035139
    31  C   -0.004557
    32  N   -0.310526
    33  C    0.080336
    34  C   -0.169458
    35  C    0.008561
    36  C    0.082803
    37  C    0.127266
    38  C    0.046138
    39  O   -0.187754
    40  C   -0.005312
    41  C    0.213171
    42  O   -0.257913
    43  O   -0.304569
    44  C    0.157644
    45  H   -0.017390
    46  H   -0.016862
    47  H   -0.041077
    48  H    0.001288
    49  H   -0.004005
    50  H    0.025678
    51  H    0.016522
    52  H    0.016935
    53  H    0.010755
    54  H    0.043654
    55  H    0.018301
    56  H    0.017999
    57  H    0.006066
    58  H    0.027073
    59  H    0.038960
    60  H    0.037769
    61  H    0.035472
    62  H    0.030696
    63  H    0.016252
    64  H    0.009874
    65  H    0.023291
    66  H    0.012694
    67  H    0.005075
    68  H    0.006629
    69  H    0.005255
    70  H    0.008341
    71  H    0.018310
    72  H    0.028420
    73  H    0.048031
    74  H    0.009377
    75  H    0.046376
    76  H    0.035553
    77  H    0.043580
    78  H    0.046506
    79  H    0.053331
    80  Mg   0.837543
    81  C   -0.016709
    82  C   -0.087857
    83  C   -0.045706
    84  C   -0.065154
    85  N   -0.254541
    86  C   -0.049795
    87  C   -0.014953
    88  C   -0.090419
    89  C    0.045742
    90  C    0.114426
    91  C    0.062687
    92  C   -0.078402
    93  H    0.036706
    94  N   -0.423445
    95  C    0.162790
    96  C   -0.174795
    97  C   -0.008054
    98  C    0.152056
    99  C    0.099452
   100  C    0.015397
   101  O   -0.253447
   102  C    0.061279
   103  N   -0.350110
   104  C    0.037444
   105  C   -0.019751
   106  C   -0.034805
   107  C    0.089022
   108  C    0.073739
   109  C    0.034784
   110  C   -0.007633
   111  N   -0.324143
   112  C    0.078554
   113  C   -0.163281
   114  C    0.002436
   115  C    0.096135
   116  C    0.131507
   117  C    0.042278
   118  O   -0.187193
   119  C    0.001130
   120  C    0.211378
   121  O   -0.251619
   122  O   -0.305466
   123  C    0.151606
   124  H   -0.019803
   125  H   -0.015871
   126  H   -0.040647
   127  H    0.000252
   128  H   -0.004476
   129  H    0.022620
   130  H    0.014026
   131  H    0.016431
   132  H    0.013058
   133  H    0.037722
   134  H    0.022107
   135  H    0.018348
   136  H    0.008625
   137  H    0.025892
   138  H    0.039312
   139  H    0.038128
   140  H    0.036090
   141  H    0.033694
   142  H    0.014199
   143  H    0.012287
   144  H    0.024898
   145  H    0.011616
   146  H    0.005515
   147  H    0.006055
   148  H    0.003592
   149  H    0.010802
   150  H    0.017790
   151  H    0.030248
   152  H    0.046115
   153  H    0.008291
   154  H    0.046931
   155  H    0.035356
   156  H    0.046093
   157  H    0.051201
   158  H    0.052692
 Sum of Mulliken charges =  -0.00000
 Mulliken charges with hydrogens summed into heavy atoms:
               1
     1  Mg   0.837786
     2  C   -0.003221
     3  C   -0.111563
     4  C   -0.062956
     5  C   -0.104939
     6  N   -0.256798
     7  C   -0.052460
     8  C   -0.012648
     9  C   -0.090962
    10  C    0.046094
    11  C    0.163878
    12  C    0.107930
    13  C    0.000629
    15  N   -0.433149
    16  C    0.168070
    17  C   -0.177305
    18  C   -0.004269
    19  C    0.148419
    20  C    0.182241
    21  C    0.011777
    22  O   -0.249715
    23  C    0.166643
    24  N   -0.341095
    25  C    0.041188
    26  C   -0.011925
    27  C   -0.014197
    28  C    0.074723
    29  C    0.117147
    30  C    0.047023
    31  C    0.050513
    32  N   -0.310526
    33  C    0.080336
    34  C   -0.169458
    35  C    0.008561
    36  C    0.082803
    37  C    0.231049
    38  C    0.046138
    39  O   -0.187754
    40  C    0.030242
    41  C    0.213171
    42  O   -0.257913
    43  O   -0.304569
    44  C    0.301061
    80  Mg   0.837543
    81  C   -0.016709
    82  C   -0.107660
    83  C   -0.061576
    84  C   -0.105800
    85  N   -0.254541
    86  C   -0.049795
    87  C   -0.014701
    88  C   -0.094895
    89  C    0.045742
    90  C    0.167502
    91  C    0.113468
    92  C   -0.001241
    94  N   -0.423445
    95  C    0.162790
    96  C   -0.174795
    97  C   -0.008054
    98  C    0.152056
    99  C    0.173281
   100  C    0.015397
   101  O   -0.253447
   102  C    0.169191
   103  N   -0.350110
   104  C    0.037444
   105  C   -0.005552
   106  C   -0.022517
   107  C    0.089022
   108  C    0.115768
   109  C    0.044431
   110  C    0.051207
   111  N   -0.324143
   112  C    0.078554
   113  C   -0.163281
   114  C    0.002436
   115  C    0.096135
   116  C    0.232844
   117  C    0.042278
   118  O   -0.187193
   119  C    0.036486
   120  C    0.211378
   121  O   -0.251619
   122  O   -0.305466
   123  C    0.301591
 Electronic spatial extent (au):  <R**2>=         182958.8401
 Charge=             -0.0000 electrons
 Dipole moment (field-independent basis, Debye):
    X=              4.1554    Y=              6.8571    Z=             -2.5535  Tot=              8.4147
 Quadrupole moment (field-independent basis, Debye-Ang):
   XX=           -488.7171   YY=           -557.2235   ZZ=           -470.4268
   XY=             17.7258   XZ=            -39.2905   YZ=            -10.7438
 Traceless Quadrupole moment (field-independent basis, Debye-Ang):
   XX=             16.7387   YY=            -51.7677   ZZ=             35.0290
   XY=             17.7258   XZ=            -39.2905   YZ=            -10.7438
 Octapole moment (field-independent basis, Debye-Ang**2):
  XXX=            214.3828  YYY=            181.8083  ZZZ=             11.4904  XYY=             -9.4840
  XXY=           -143.4682  XXZ=             35.6295  XZZ=            304.9777  YZZ=            -26.4208
  YYZ=           -255.0111  XYZ=            -32.4223
 Hexadecapole moment (field-independent basis, Debye-Ang**3):
 XXXX=        -193766.0982 YYYY=         -35715.5039 ZZZZ=         -16775.1028 XXXY=           6953.9278
 XXXZ=          -5323.9761 YYYX=           -514.2033 YYYZ=           -225.7593 ZZZX=            237.6600
 ZZZY=            259.6104 XXYY=         -42157.1725 XXZZ=         -33704.6644 YYZZ=          -8130.9204
 XXYZ=           -553.9039 YYXZ=          -1144.7213 ZZXY=           -442.7284
 N-N= 1.399490133700D+04 E-N=-3.747056944992D+04  KE= 4.028802353528D+03
 Leave Link  601 at Sun Sep 12 02:54:42 2021, MaxMem= 23488102400 cpu:              13.9 elap:               0.7
 (Enter /sw/apps/gaussian-16.0/g16/l9999.exe)
 1\1\GINC-BP1-COMPUTE00092\SP\RCAM-B3LYP TD-FC\def2SVP\C68H72Mg2N8O8\OF
 15641\12-Sep-2021\0\\#p cam-b3lyp/Def2SVP td=(nstates=5)\\TDDFT excite
 d states in gaussian\\0,1\Mg,0,0.,0.,0.\C,0,-0.217,-2.218,2.801\C,0,-1
 .255,2.442,2.026\C,0,-0.245,1.85,-2.564\C,0,0.146,-2.824,-2.037\N,0,-0
 .617,-0.009,2.126\C,0,-0.594,-0.908,3.105\C,0,-0.936,-0.309,4.502\C,0,
 -1.773,0.964,4.032\C,0,-1.155,1.168,2.66\C,0,-3.263,0.685,3.863\C,0,0.
 345,0.11,5.299\C,0,0.124,0.397,6.787\H,0,1.168,0.033,7.733\N,0,-0.185,
 1.961,-0.152\C,0,-0.703,2.8,0.777\C,0,-0.62,4.156,0.193\C,0,-0.187,4.0
 15,-1.225\C,0,-0.214,2.583,-1.38\C,0,-0.887,5.406,0.974\C,0,0.181,5.01
 3,-2.277\O,0,0.303,4.69,-3.508\C,0,0.31,6.414,-1.837\N,0,-0.265,-0.413
 ,-2.029\C,0,-0.279,0.569,-2.937\C,0,-0.196,0.024,-4.332\C,0,0.124,-1.5
 33,-4.18\C,0,0.086,-1.632,-2.635\C,0,-1.451,0.205,-5.197\C,0,1.373,-2.
 07,-4.923\C,0,2.626,-1.49,-4.306\N,0,0.15,-2.144,0.303\C,0,0.173,-3.13
 6,-0.688\C,0,0.173,-4.438,0.004\C,0,0.133,-4.111,1.358\C,0,0.083,-2.69
 5,1.502\C,0,0.149,-5.715,-0.623\C,0,0.096,-4.629,2.716\O,0,0.208,-5.74
 7,3.221\C,0,-0.255,-3.428,3.701\C,0,0.717,-3.482,4.848\O,0,1.931,-3.25
 5,4.669\O,0,0.038,-3.556,6.003\C,0,0.943,-3.583,7.183\H,0,-1.859,3.22,
 2.497\H,0,-0.218,2.453,-3.474\H,0,0.276,-3.747,-2.605\H,0,-1.554,-0.94
 9,5.132\H,0,-1.585,1.831,4.665\H,0,-3.484,-0.377,3.969\H,0,-3.511,1.02
 7,2.858\H,0,-3.852,1.301,4.543\H,0,0.669,1.096,4.966\H,0,1.13,-0.639,5
 .189\H,0,-0.844,0.026,7.125\H,0,0.062,1.477,6.921\H,0,-1.344,5.186,1.9
 38\H,0,-1.651,5.963,0.432\H,0,0.007,6.02,1.084\H,0,-0.635,6.744,-1.405
 \H,0,0.665,6.97,-2.704\H,0,1.048,6.466,-1.036\H,0,0.608,0.501,-4.891\H
 ,0,-0.692,-2.156,-4.547\H,0,-1.267,0.74,-6.129\H,0,-2.204,0.714,-4.596
 \H,0,-1.967,-0.72,-5.453\H,0,1.356,-1.759,-5.967\H,0,1.452,-3.157,-4.9
 02\H,0,2.714,-0.522,-4.798\H,0,3.487,-2.121,-4.529\H,0,2.495,-1.303,-3
 .24\H,0,0.867,-6.333,-0.084\H,0,0.404,-5.642,-1.68\H,0,-0.891,-5.999,-
 0.463\H,0,-1.283,-3.581,4.028\H,0,0.698,-4.478,7.755\H,0,0.833,-2.619,
 7.68\H,0,2.,-3.754,6.976\Mg,0,15.76034,1.42341,1.20548\C,0,13.39526,-1
 .23197,1.68962\C,0,13.11356,3.44592,0.47162\C,0,17.83723,3.65878,0.335
 38\C,0,18.22095,-1.01938,0.85346\N,0,13.58333,1.04074,1.12532\C,0,12.7
 9585,0.00887,1.38889\C,0,11.28029,0.34409,1.40536\C,0,11.31167,1.64567
 ,0.46527\C,0,12.74655,2.10006,0.72475\C,0,11.17266,1.32359,-1.01334\C,
 0,10.75977,0.68784,2.84512\C,0,9.23648,0.72255,2.98697\H,0,8.64326,0.2
 5995,4.2386\N,0,15.52241,3.3812,0.98413\C,0,14.37413,4.03567,0.71136\C
 ,0,14.73297,5.45987,0.62738\C,0,16.21435,5.57599,0.70955\C,0,16.59166,
 4.17778,0.65749\C,0,13.70809,6.55484,0.56353\C,0,17.1391,6.75158,0.804
 68\O,0,18.40238,6.63083,0.6248\C,0,16.51171,8.0633,1.02208\N,0,17.6998
 6,1.3334,0.46216\C,0,18.3985,2.45548,0.21564\C,0,19.85294,2.14579,-0.0
 4725\C,0,20.03481,0.59849,0.31382\C,0,18.57029,0.24387,0.65268\C,0,20.
 33876,2.3955,-1.47484\C,0,21.13948,0.24177,1.34586\C,0,20.76444,0.7769
 7,2.70906\N,0,15.86675,-0.72196,1.43816\C,0,16.98925,-1.54941,1.21591\
 C,0,16.54211,-2.94634,1.39223\C,0,15.17439,-2.83499,1.68452\C,0,14.791
 45,-1.46654,1.6701\C,0,17.35216,-4.10568,1.23135\C,0,13.9652,-3.56458,
 1.99153\O,0,13.69632,-4.74295,2.22147\C,0,12.73219,-2.56733,1.88394\C,
 0,11.87634,-2.75327,3.10684\O,0,12.31055,-2.45525,4.23345\O,0,10.61947
 ,-3.04448,2.72492\C,0,9.73012,-3.2271,3.90285\H,0,12.38023,4.10484,0.0
 0584\H,0,18.618,4.39631,0.13555\H,0,18.94941,-1.83301,0.85695\H,0,10.6
 4241,-0.41485,0.96845\H,0,10.60569,2.39762,0.80808\H,0,11.19438,0.2597
 9,-1.19772\H,0,12.00843,1.80907,-1.5\H,0,10.27268,1.79474,-1.41878\H,0
 ,10.9933,1.73661,3.06938\H,0,11.17505,0.01596,3.5709\H,0,8.73201,0.261
 53,2.12911\H,0,8.90929,1.76482,2.96191\H,0,12.70775,6.15763,0.35153\H,
 0,13.94846,7.16712,-0.31237\H,0,13.71483,7.19039,1.45162\H,0,15.81535,
 8.26914,0.21265\H,0,17.33824,8.76466,1.1518\H,0,15.9197,8.01963,1.9430
 8\H,0,20.49597,2.73455,0.59537\H,0,20.30586,0.00291,-0.57029\H,0,21.19
 506,3.09402,-1.52858\H,0,19.50712,2.76782,-2.0582\H,0,20.62719,1.50285
 ,-2.02729\H,0,22.08234,0.72188,1.07258\H,0,21.33091,-0.82331,1.4229\H,
 0,21.09232,1.8198,2.66351\H,0,21.28843,0.2323,3.49188\H,0,19.67676,0.7
 7906,2.84544\H,0,17.11598,-4.76715,2.05426\H,0,18.41013,-3.85232,1.214
 94\H,0,16.99902,-4.45683,0.25808\H,0,12.1939,-2.80967,0.96683\H,0,9.27
 162,-4.21615,3.80672\H,0,9.05021,-2.35447,3.90199\H,0,10.19834,-3.3048
 3,4.87711\\Version=ES64L-G16RevA.03\State=1-A\HF=-4069.811897\RMSD=4.6
 59e-09\PG=C01 [X(C68H72Mg2N8O8)]\\@


 LIVE PURE, SPEAK TRUE, RIGHT WRONG, FOLLOW THE KING...
 ELSE, WHEREFORE BORN......
           IDYLLS OF THE KING, TENNYSON
 Job cpu time:       0 days 12 hours  6 minutes 13.1 seconds.
 Elapsed time:       0 days  0 hours 30 minutes 51.2 seconds.
 File lengths (MBytes):  RWF=  13225 Int=      0 D2E=      0 Chk=    574 Scr=      1
 Normal termination of Gaussian 16 at Sun Sep 12 02:54:43 2021.
