 Entering Gaussian System, Link 0=g16
 Initial command:
 /sw/apps/gaussian-16.0/g16/l1.exe "/tmp/Gau-222552.inp" -scrdir="/tmp/"
 Entering Link 1 = /sw/apps/gaussian-16.0/g16/l1.exe PID=    222553.
  
 Copyright (c) 1988,1990,1992,1993,1995,1998,2003,2009,2016,
            Gaussian, Inc.  All Rights Reserved.
  
 This is part of the Gaussian(R) 16 program.  It is based on
 the Gaussian(R) 09 system (copyright 2009, Gaussian, Inc.),
 the Gaussian(R) 03 system (copyright 2003, Gaussian, Inc.),
 the Gaussian(R) 98 system (copyright 1998, Gaussian, Inc.),
 the Gaussian(R) 94 system (copyright 1995, Gaussian, Inc.),
 the Gaussian 92(TM) system (copyright 1992, Gaussian, Inc.),
 the Gaussian 90(TM) system (copyright 1990, Gaussian, Inc.),
 the Gaussian 88(TM) system (copyright 1988, Gaussian, Inc.),
 the Gaussian 86(TM) system (copyright 1986, Carnegie Mellon
 University), and the Gaussian 82(TM) system (copyright 1983,
 Carnegie Mellon University). Gaussian is a federally registered
 trademark of Gaussian, Inc.
  
 This software contains proprietary and confidential information,
 including trade secrets, belonging to Gaussian, Inc.
  
 This software is provided under written license and may be
 used, copied, transmitted, or stored only in accord with that
 written license.
  
 The following legend is applicable only to US Government
 contracts under FAR:
  
                    RESTRICTED RIGHTS LEGEND
  
 Use, reproduction and disclosure by the US Government is
 subject to restrictions as set forth in subparagraphs (a)
 and (c) of the Commercial Computer Software - Restricted
 Rights clause in FAR 52.227-19.
  
 Gaussian, Inc.
 340 Quinnipiac St., Bldg. 40, Wallingford CT 06492
  
  
 ---------------------------------------------------------------
 Warning -- This program may not be used in any manner that
 competes with the business of Gaussian, Inc. or will provide
 assistance to any competitor of Gaussian, Inc.  The licensee
 of this program is prohibited from giving any competitor of
 Gaussian, Inc. access to this program.  By using this program,
 the user acknowledges that Gaussian, Inc. is engaged in the
 business of creating and licensing software in the field of
 computational chemistry and represents and warrants to the
 licensee that it is not a competitor of Gaussian, Inc. and that
 it will not use this program in any manner prohibited above.
 ---------------------------------------------------------------
  

 Cite this work as:
 Gaussian 16, Revision A.03,
 M. J. Frisch, G. W. Trucks, H. B. Schlegel, G. E. Scuseria, 
 M. A. Robb, J. R. Cheeseman, G. Scalmani, V. Barone, 
 G. A. Petersson, H. Nakatsuji, X. Li, M. Caricato, A. V. Marenich, 
 J. Bloino, B. G. Janesko, R. Gomperts, B. Mennucci, H. P. Hratchian, 
 J. V. Ortiz, A. F. Izmaylov, J. L. Sonnenberg, D. Williams-Young, 
 F. Ding, F. Lipparini, F. Egidi, J. Goings, B. Peng, A. Petrone, 
 T. Henderson, D. Ranasinghe, V. G. Zakrzewski, J. Gao, N. Rega, 
 G. Zheng, W. Liang, M. Hada, M. Ehara, K. Toyota, R. Fukuda, 
 J. Hasegawa, M. Ishida, T. Nakajima, Y. Honda, O. Kitao, H. Nakai, 
 T. Vreven, K. Throssell, J. A. Montgomery, Jr., J. E. Peralta, 
 F. Ogliaro, M. J. Bearpark, J. J. Heyd, E. N. Brothers, K. N. Kudin, 
 V. N. Staroverov, T. A. Keith, R. Kobayashi, J. Normand, 
 K. Raghavachari, A. P. Rendell, J. C. Burant, S. S. Iyengar, 
 J. Tomasi, M. Cossi, J. M. Millam, M. Klene, C. Adamo, R. Cammi, 
 J. W. Ochterski, R. L. Martin, K. Morokuma, O. Farkas, 
 J. B. Foresman, and D. J. Fox, Gaussian, Inc., Wallingford CT, 2016.
 
 ******************************************
 Gaussian 16:  ES64L-G16RevA.03 25-Dec-2016
                11-Sep-2021 
 ******************************************
 %nproc=24
 Will use up to   24 processors via shared memory.
 %mem=175gb
 -----------------------------------
 #p cam-b3lyp/Def2SVP td=(nstates=5)
 -----------------------------------
 1/38=1,172=1/1;
 2/12=2,17=6,18=5,40=1/2;
 3/5=43,7=101,11=9,25=1,30=1,74=-40/1,2,3,8;
 4//1;
 5/5=2,38=5/2;
 8/6=1,10=1,108=5/1;
 9/41=5,42=1,70=2/14;
 6/7=2,8=2,9=2,10=2/1;
 99/5=1,9=1/99;
 Leave Link    1 at Sat Sep 11 15:49:12 2021, MaxMem= 23488102400 cpu:               0.6 elap:               0.0
 (Enter /sw/apps/gaussian-16.0/g16/l101.exe)
 --------------------------------
 TDDFT excited states in gaussian
 --------------------------------
 Symbolic Z-matrix:
 Charge =  0 Multiplicity = 1
 Mg                    0.        0.        0. 
 C                    -0.217    -2.218     2.801 
 C                    -1.255     2.442     2.026 
 C                    -0.245     1.85     -2.564 
 C                     0.146    -2.824    -2.037 
 N                    -0.617    -0.009     2.126 
 C                    -0.594    -0.908     3.105 
 C                    -0.936    -0.309     4.502 
 C                    -1.773     0.964     4.032 
 C                    -1.155     1.168     2.66 
 C                    -3.263     0.685     3.863 
 C                     0.345     0.11      5.299 
 C                     0.124     0.397     6.787 
 H                     1.168     0.033     7.733 
 N                    -0.185     1.961    -0.152 
 C                    -0.703     2.8       0.777 
 C                    -0.62      4.156     0.193 
 C                    -0.187     4.015    -1.225 
 C                    -0.214     2.583    -1.38 
 C                    -0.887     5.406     0.974 
 C                     0.181     5.013    -2.277 
 O                     0.303     4.69     -3.508 
 C                     0.31      6.414    -1.837 
 N                    -0.265    -0.413    -2.029 
 C                    -0.279     0.569    -2.937 
 C                    -0.196     0.024    -4.332 
 C                     0.124    -1.533    -4.18 
 C                     0.086    -1.632    -2.635 
 C                    -1.451     0.205    -5.197 
 C                     1.373    -2.07     -4.923 
 C                     2.626    -1.49     -4.306 
 N                     0.15     -2.144     0.303 
 C                     0.173    -3.136    -0.688 
 C                     0.173    -4.438     0.004 
 C                     0.133    -4.111     1.358 
 C                     0.083    -2.695     1.502 
 C                     0.149    -5.715    -0.623 
 C                     0.096    -4.629     2.716 
 O                     0.208    -5.747     3.221 
 C                    -0.255    -3.428     3.701 
 C                     0.717    -3.482     4.848 
 O                     1.931    -3.255     4.669 
 O                     0.038    -3.556     6.003 
 C                     0.943    -3.583     7.183 
 H                    -1.859     3.22      2.497 
 H                    -0.218     2.453    -3.474 
 H                     0.276    -3.747    -2.605 
 H                    -1.554    -0.949     5.132 
 H                    -1.585     1.831     4.665 
 H                    -3.484    -0.377     3.969 
 H                    -3.511     1.027     2.858 
 H                    -3.852     1.301     4.543 
 H                     0.669     1.096     4.966 
 H                     1.13     -0.639     5.189 
 H                    -0.844     0.026     7.125 
 H                     0.062     1.477     6.921 
 H                    -1.344     5.186     1.938 
 H                    -1.651     5.963     0.432 
 H                     0.007     6.02      1.084 
 H                    -0.635     6.744    -1.405 
 H                     0.665     6.97     -2.704 
 H                     1.048     6.466    -1.036 
 H                     0.608     0.501    -4.891 
 H                    -0.692    -2.156    -4.547 
 H                    -1.267     0.74     -6.129 
 H                    -2.204     0.714    -4.596 
 H                    -1.967    -0.72     -5.453 
 H                     1.356    -1.759    -5.967 
 H                     1.452    -3.157    -4.902 
 H                     2.714    -0.522    -4.798 
 H                     3.487    -2.121    -4.529 
 H                     2.495    -1.303    -3.24 
 H                     0.867    -6.333    -0.084 
 H                     0.404    -5.642    -1.68 
 H                    -0.891    -5.999    -0.463 
 H                    -1.283    -3.581     4.028 
 H                     0.698    -4.478     7.755 
 H                     0.833    -2.619     7.68 
 H                     2.       -3.754     6.976 
 Mg                    13.1482   1.18714   0.99711 
 C                     15.05371  -0.93159   3.17864 
 C                     14.05101   3.80187   2.99279 
 C                     11.12176   3.00323  -0.63469 
 C                     11.50202  -1.67531  -0.11741 
 N                     14.39522   1.29492   2.82073 
 C                     15.11792   0.43485   3.52239 
 C                     16.01926   1.08556   4.60577 
 C                     15.19244   2.44522   4.82155 
 C                     14.52805   2.54753   3.45013 
 C                     14.10174   2.3259    5.87296 
 C                     17.47039   1.37262   4.08248 
 C                     18.48934   1.71964   5.17018 
 H                     19.86597   1.26089   5.00616 
 N                     13.03146   3.1623    0.84315 
 C                     13.46893   4.07531   1.73551 
 C                     13.12927   5.38876   1.16661 
 C                     12.30885   5.17242  -0.05602 
 C                     12.10015   3.7402    0.0166 
 C                     13.64283   6.67944   1.73568 
 C                     11.78641   6.10269  -1.10857 
 O                     10.89522   5.73256  -1.95214 
 C                     12.2802   7.48677  -1.06386 
 N                     11.4011   0.76295  -0.04694 
 C                     10.74123   1.72783  -0.71139 
 C                     9.67745   1.14228  -1.6091 
 C                     9.92277  -0.43794  -1.59177 
 C                     11.08091  -0.50307  -0.57203 
 C                     8.23228   1.4371   -1.20791 
 C                     10.10837  -1.13645  -2.96666 
 C                     11.40358  -0.68663  -3.60342 
 N                     13.36005  -0.94283   1.29106 
 C                     12.54776  -1.96349   0.7502 
 C                     13.01295  -3.2416    1.32681 
 C                     14.0569  -2.87043   2.18756 
 C                     14.21682  -1.45854   2.16539 
 C                     12.44954  -4.52352   1.07116 
 C                     15.05297  -3.35095   3.11795 
 O                     15.4461  -4.46145   3.4729 
 C                     15.65931  -2.10532   3.89713 
 C                     17.15778  -2.23578   3.88714 
 O                     17.79129  -2.16472   2.81933 
 O                     17.61124  -2.20471   5.15354 
 C                     19.09342  -2.31975   5.19505 
 H                     14.08643   4.65088   3.67602 
 H                     10.46634   3.57215  -1.29819 
 H                     11.10483  -2.62237  -0.48889 
 H                     16.07949   0.53524   5.53706 
 H                     15.85672   3.28938   4.98735 
 H                     13.98467   1.30951   6.21848 
 H                     13.19376   2.67007   5.39529 
 H                     14.29251   3.02209   6.69471 
 H                     17.46817   2.31491   3.5196 
 H                     17.83343   0.55104   3.49611 
 H                     18.12005   1.47598   6.17377 
 H                     18.62098   2.80423   5.18904 
 H                     14.08437   6.53352   2.72924 
 H                     12.77156   7.31816   1.91678 
 H                     14.32538   7.19658   1.05793 
 H                     12.03649   7.92616  -0.0995 
 H                     11.86352   7.97437  -1.94733 
 H                     13.37349   7.47065  -1.13511 
 H                     9.78626   1.50368  -2.6243 
 H                     9.07644  -0.97675  -1.14094 
 H                     7.65076   1.93576  -2.00619 
 H                     8.24366   2.04227  -0.31115 
 H                     7.65403   0.56976  -0.89398 
 H                     9.30814  -0.84416  -3.65103 
 H                     10.10017  -2.21959  -2.90545 
 H                     11.12892   0.25929  -4.07975 
 H                     11.74247  -1.41457  -4.33779 
 H                     12.16025  -0.46474  -2.84193 
 H                     13.27781  -5.20503   0.92963 
 H                     11.79631  -4.50441   0.20127 
 H                     11.89304  -4.68055   1.99902 
 H                     15.25358  -2.12299   4.90938 
 H                     19.32989  -3.16965   5.8427 
 H                     19.46139  -1.32624   5.51331 
 H                     19.5999  -2.60377   4.28003 
 
 ITRead=  0  0  0  0  0  0  0  0  0  0  0  0  0  0  0  0  0  0  0  0
 ITRead=  0  0  0  0  0  0  0  0  0  0  0  0  0  0  0  0  0  0  0  0
 ITRead=  0  0  0  0  0  0  0  0  0  0  0  0  0  0  0  0  0  0  0  0
 ITRead=  0  0  0  0  0  0  0  0  0  0  0  0  0  0  0  0  0  0  0  0
 ITRead=  0  0  0  0  0  0  0  0  0  0  0  0  0  0  0  0  0  0  0  0
 ITRead=  0  0  0  0  0  0  0  0  0  0  0  0  0  0  0  0  0  0  0  0
 ITRead=  0  0  0  0  0  0  0  0  0  0  0  0  0  0  0  0  0  0  0  0
 ITRead=  0  0  0  0  0  0  0  0  0  0  0  0  0  0  0  0  0  0
 MicOpt= -1 -1 -1 -1 -1 -1 -1 -1 -1 -1 -1 -1 -1 -1 -1 -1 -1 -1 -1 -1
 MicOpt= -1 -1 -1 -1 -1 -1 -1 -1 -1 -1 -1 -1 -1 -1 -1 -1 -1 -1 -1 -1
 MicOpt= -1 -1 -1 -1 -1 -1 -1 -1 -1 -1 -1 -1 -1 -1 -1 -1 -1 -1 -1 -1
 MicOpt= -1 -1 -1 -1 -1 -1 -1 -1 -1 -1 -1 -1 -1 -1 -1 -1 -1 -1 -1 -1
 MicOpt= -1 -1 -1 -1 -1 -1 -1 -1 -1 -1 -1 -1 -1 -1 -1 -1 -1 -1 -1 -1
 MicOpt= -1 -1 -1 -1 -1 -1 -1 -1 -1 -1 -1 -1 -1 -1 -1 -1 -1 -1 -1 -1
 MicOpt= -1 -1 -1 -1 -1 -1 -1 -1 -1 -1 -1 -1 -1 -1 -1 -1 -1 -1 -1 -1
 MicOpt= -1 -1 -1 -1 -1 -1 -1 -1 -1 -1 -1 -1 -1 -1 -1 -1 -1 -1
 NAtoms=    158 NQM=      158 NQMF=       0 NMMI=      0 NMMIF=      0
                NMic=       0 NMicF=      0.
                    Isotopes and Nuclear Properties:
 (Nuclear quadrupole moments (NQMom) in fm**2, nuclear magnetic moments (NMagM)
  in nuclear magnetons)

  Atom         1           2           3           4           5           6           7           8           9          10
 IAtWgt=          24          12          12          12          12          14          12          12          12          12
 AtmWgt=  23.9850450  12.0000000  12.0000000  12.0000000  12.0000000  14.0030740  12.0000000  12.0000000  12.0000000  12.0000000
 NucSpn=           0           0           0           0           0           2           0           0           0           0
 AtZEff=  -0.0000000  -0.0000000  -0.0000000  -0.0000000  -0.0000000  -0.0000000  -0.0000000  -0.0000000  -0.0000000  -0.0000000
 NQMom=    0.0000000   0.0000000   0.0000000   0.0000000   0.0000000   2.0440000   0.0000000   0.0000000   0.0000000   0.0000000
 NMagM=    0.0000000   0.0000000   0.0000000   0.0000000   0.0000000   0.4037610   0.0000000   0.0000000   0.0000000   0.0000000
 AtZNuc=  12.0000000   6.0000000   6.0000000   6.0000000   6.0000000   7.0000000   6.0000000   6.0000000   6.0000000   6.0000000

  Atom        11          12          13          14          15          16          17          18          19          20
 IAtWgt=          12          12          12           1          14          12          12          12          12          12
 AtmWgt=  12.0000000  12.0000000  12.0000000   1.0078250  14.0030740  12.0000000  12.0000000  12.0000000  12.0000000  12.0000000
 NucSpn=           0           0           0           1           2           0           0           0           0           0
 AtZEff=  -0.0000000  -0.0000000  -0.0000000  -0.0000000  -0.0000000  -0.0000000  -0.0000000  -0.0000000  -0.0000000  -0.0000000
 NQMom=    0.0000000   0.0000000   0.0000000   0.0000000   2.0440000   0.0000000   0.0000000   0.0000000   0.0000000   0.0000000
 NMagM=    0.0000000   0.0000000   0.0000000   2.7928460   0.4037610   0.0000000   0.0000000   0.0000000   0.0000000   0.0000000
 AtZNuc=   6.0000000   6.0000000   6.0000000   1.0000000   7.0000000   6.0000000   6.0000000   6.0000000   6.0000000   6.0000000

  Atom        21          22          23          24          25          26          27          28          29          30
 IAtWgt=          12          16          12          14          12          12          12          12          12          12
 AtmWgt=  12.0000000  15.9949146  12.0000000  14.0030740  12.0000000  12.0000000  12.0000000  12.0000000  12.0000000  12.0000000
 NucSpn=           0           0           0           2           0           0           0           0           0           0
 AtZEff=  -0.0000000  -0.0000000  -0.0000000  -0.0000000  -0.0000000  -0.0000000  -0.0000000  -0.0000000  -0.0000000  -0.0000000
 NQMom=    0.0000000   0.0000000   0.0000000   2.0440000   0.0000000   0.0000000   0.0000000   0.0000000   0.0000000   0.0000000
 NMagM=    0.0000000   0.0000000   0.0000000   0.4037610   0.0000000   0.0000000   0.0000000   0.0000000   0.0000000   0.0000000
 AtZNuc=   6.0000000   8.0000000   6.0000000   7.0000000   6.0000000   6.0000000   6.0000000   6.0000000   6.0000000   6.0000000

  Atom        31          32          33          34          35          36          37          38          39          40
 IAtWgt=          12          14          12          12          12          12          12          12          16          12
 AtmWgt=  12.0000000  14.0030740  12.0000000  12.0000000  12.0000000  12.0000000  12.0000000  12.0000000  15.9949146  12.0000000
 NucSpn=           0           2           0           0           0           0           0           0           0           0
 AtZEff=  -0.0000000  -0.0000000  -0.0000000  -0.0000000  -0.0000000  -0.0000000  -0.0000000  -0.0000000  -0.0000000  -0.0000000
 NQMom=    0.0000000   2.0440000   0.0000000   0.0000000   0.0000000   0.0000000   0.0000000   0.0000000   0.0000000   0.0000000
 NMagM=    0.0000000   0.4037610   0.0000000   0.0000000   0.0000000   0.0000000   0.0000000   0.0000000   0.0000000   0.0000000
 AtZNuc=   6.0000000   7.0000000   6.0000000   6.0000000   6.0000000   6.0000000   6.0000000   6.0000000   8.0000000   6.0000000

  Atom        41          42          43          44          45          46          47          48          49          50
 IAtWgt=          12          16          16          12           1           1           1           1           1           1
 AtmWgt=  12.0000000  15.9949146  15.9949146  12.0000000   1.0078250   1.0078250   1.0078250   1.0078250   1.0078250   1.0078250
 NucSpn=           0           0           0           0           1           1           1           1           1           1
 AtZEff=  -0.0000000  -0.0000000  -0.0000000  -0.0000000  -0.0000000  -0.0000000  -0.0000000  -0.0000000  -0.0000000  -0.0000000
 NQMom=    0.0000000   0.0000000   0.0000000   0.0000000   0.0000000   0.0000000   0.0000000   0.0000000   0.0000000   0.0000000
 NMagM=    0.0000000   0.0000000   0.0000000   0.0000000   2.7928460   2.7928460   2.7928460   2.7928460   2.7928460   2.7928460
 AtZNuc=   6.0000000   8.0000000   8.0000000   6.0000000   1.0000000   1.0000000   1.0000000   1.0000000   1.0000000   1.0000000

  Atom        51          52          53          54          55          56          57          58          59          60
 IAtWgt=           1           1           1           1           1           1           1           1           1           1
 AtmWgt=   1.0078250   1.0078250   1.0078250   1.0078250   1.0078250   1.0078250   1.0078250   1.0078250   1.0078250   1.0078250
 NucSpn=           1           1           1           1           1           1           1           1           1           1
 AtZEff=  -0.0000000  -0.0000000  -0.0000000  -0.0000000  -0.0000000  -0.0000000  -0.0000000  -0.0000000  -0.0000000  -0.0000000
 NQMom=    0.0000000   0.0000000   0.0000000   0.0000000   0.0000000   0.0000000   0.0000000   0.0000000   0.0000000   0.0000000
 NMagM=    2.7928460   2.7928460   2.7928460   2.7928460   2.7928460   2.7928460   2.7928460   2.7928460   2.7928460   2.7928460
 AtZNuc=   1.0000000   1.0000000   1.0000000   1.0000000   1.0000000   1.0000000   1.0000000   1.0000000   1.0000000   1.0000000

  Atom        61          62          63          64          65          66          67          68          69          70
 IAtWgt=           1           1           1           1           1           1           1           1           1           1
 AtmWgt=   1.0078250   1.0078250   1.0078250   1.0078250   1.0078250   1.0078250   1.0078250   1.0078250   1.0078250   1.0078250
 NucSpn=           1           1           1           1           1           1           1           1           1           1
 AtZEff=  -0.0000000  -0.0000000  -0.0000000  -0.0000000  -0.0000000  -0.0000000  -0.0000000  -0.0000000  -0.0000000  -0.0000000
 NQMom=    0.0000000   0.0000000   0.0000000   0.0000000   0.0000000   0.0000000   0.0000000   0.0000000   0.0000000   0.0000000
 NMagM=    2.7928460   2.7928460   2.7928460   2.7928460   2.7928460   2.7928460   2.7928460   2.7928460   2.7928460   2.7928460
 AtZNuc=   1.0000000   1.0000000   1.0000000   1.0000000   1.0000000   1.0000000   1.0000000   1.0000000   1.0000000   1.0000000

  Atom        71          72          73          74          75          76          77          78          79          80
 IAtWgt=           1           1           1           1           1           1           1           1           1          24
 AtmWgt=   1.0078250   1.0078250   1.0078250   1.0078250   1.0078250   1.0078250   1.0078250   1.0078250   1.0078250  23.9850450
 NucSpn=           1           1           1           1           1           1           1           1           1           0
 AtZEff=  -0.0000000  -0.0000000  -0.0000000  -0.0000000  -0.0000000  -0.0000000  -0.0000000  -0.0000000  -0.0000000  -0.0000000
 NQMom=    0.0000000   0.0000000   0.0000000   0.0000000   0.0000000   0.0000000   0.0000000   0.0000000   0.0000000   0.0000000
 NMagM=    2.7928460   2.7928460   2.7928460   2.7928460   2.7928460   2.7928460   2.7928460   2.7928460   2.7928460   0.0000000
 AtZNuc=   1.0000000   1.0000000   1.0000000   1.0000000   1.0000000   1.0000000   1.0000000   1.0000000   1.0000000  12.0000000

  Atom        81          82          83          84          85          86          87          88          89          90
 IAtWgt=          12          12          12          12          14          12          12          12          12          12
 AtmWgt=  12.0000000  12.0000000  12.0000000  12.0000000  14.0030740  12.0000000  12.0000000  12.0000000  12.0000000  12.0000000
 NucSpn=           0           0           0           0           2           0           0           0           0           0
 AtZEff=  -0.0000000  -0.0000000  -0.0000000  -0.0000000  -0.0000000  -0.0000000  -0.0000000  -0.0000000  -0.0000000  -0.0000000
 NQMom=    0.0000000   0.0000000   0.0000000   0.0000000   2.0440000   0.0000000   0.0000000   0.0000000   0.0000000   0.0000000
 NMagM=    0.0000000   0.0000000   0.0000000   0.0000000   0.4037610   0.0000000   0.0000000   0.0000000   0.0000000   0.0000000
 AtZNuc=   6.0000000   6.0000000   6.0000000   6.0000000   7.0000000   6.0000000   6.0000000   6.0000000   6.0000000   6.0000000

  Atom        91          92          93          94          95          96          97          98          99         100
 IAtWgt=          12          12           1          14          12          12          12          12          12          12
 AtmWgt=  12.0000000  12.0000000   1.0078250  14.0030740  12.0000000  12.0000000  12.0000000  12.0000000  12.0000000  12.0000000
 NucSpn=           0           0           1           2           0           0           0           0           0           0
 AtZEff=  -0.0000000  -0.0000000  -0.0000000  -0.0000000  -0.0000000  -0.0000000  -0.0000000  -0.0000000  -0.0000000  -0.0000000
 NQMom=    0.0000000   0.0000000   0.0000000   2.0440000   0.0000000   0.0000000   0.0000000   0.0000000   0.0000000   0.0000000
 NMagM=    0.0000000   0.0000000   2.7928460   0.4037610   0.0000000   0.0000000   0.0000000   0.0000000   0.0000000   0.0000000
 AtZNuc=   6.0000000   6.0000000   1.0000000   7.0000000   6.0000000   6.0000000   6.0000000   6.0000000   6.0000000   6.0000000

  Atom       101         102         103         104         105         106         107         108         109         110
 IAtWgt=          16          12          14          12          12          12          12          12          12          12
 AtmWgt=  15.9949146  12.0000000  14.0030740  12.0000000  12.0000000  12.0000000  12.0000000  12.0000000  12.0000000  12.0000000
 NucSpn=           0           0           2           0           0           0           0           0           0           0
 AtZEff=  -0.0000000  -0.0000000  -0.0000000  -0.0000000  -0.0000000  -0.0000000  -0.0000000  -0.0000000  -0.0000000  -0.0000000
 NQMom=    0.0000000   0.0000000   2.0440000   0.0000000   0.0000000   0.0000000   0.0000000   0.0000000   0.0000000   0.0000000
 NMagM=    0.0000000   0.0000000   0.4037610   0.0000000   0.0000000   0.0000000   0.0000000   0.0000000   0.0000000   0.0000000
 AtZNuc=   8.0000000   6.0000000   7.0000000   6.0000000   6.0000000   6.0000000   6.0000000   6.0000000   6.0000000   6.0000000

  Atom       111         112         113         114         115         116         117         118         119         120
 IAtWgt=          14          12          12          12          12          12          12          16          12          12
 AtmWgt=  14.0030740  12.0000000  12.0000000  12.0000000  12.0000000  12.0000000  12.0000000  15.9949146  12.0000000  12.0000000
 NucSpn=           2           0           0           0           0           0           0           0           0           0
 AtZEff=  -0.0000000  -0.0000000  -0.0000000  -0.0000000  -0.0000000  -0.0000000  -0.0000000  -0.0000000  -0.0000000  -0.0000000
 NQMom=    2.0440000   0.0000000   0.0000000   0.0000000   0.0000000   0.0000000   0.0000000   0.0000000   0.0000000   0.0000000
 NMagM=    0.4037610   0.0000000   0.0000000   0.0000000   0.0000000   0.0000000   0.0000000   0.0000000   0.0000000   0.0000000
 AtZNuc=   7.0000000   6.0000000   6.0000000   6.0000000   6.0000000   6.0000000   6.0000000   8.0000000   6.0000000   6.0000000

  Atom       121         122         123         124         125         126         127         128         129         130
 IAtWgt=          16          16          12           1           1           1           1           1           1           1
 AtmWgt=  15.9949146  15.9949146  12.0000000   1.0078250   1.0078250   1.0078250   1.0078250   1.0078250   1.0078250   1.0078250
 NucSpn=           0           0           0           1           1           1           1           1           1           1
 AtZEff=  -0.0000000  -0.0000000  -0.0000000  -0.0000000  -0.0000000  -0.0000000  -0.0000000  -0.0000000  -0.0000000  -0.0000000
 NQMom=    0.0000000   0.0000000   0.0000000   0.0000000   0.0000000   0.0000000   0.0000000   0.0000000   0.0000000   0.0000000
 NMagM=    0.0000000   0.0000000   0.0000000   2.7928460   2.7928460   2.7928460   2.7928460   2.7928460   2.7928460   2.7928460
 AtZNuc=   8.0000000   8.0000000   6.0000000   1.0000000   1.0000000   1.0000000   1.0000000   1.0000000   1.0000000   1.0000000

  Atom       131         132         133         134         135         136         137         138         139         140
 IAtWgt=           1           1           1           1           1           1           1           1           1           1
 AtmWgt=   1.0078250   1.0078250   1.0078250   1.0078250   1.0078250   1.0078250   1.0078250   1.0078250   1.0078250   1.0078250
 NucSpn=           1           1           1           1           1           1           1           1           1           1
 AtZEff=  -0.0000000  -0.0000000  -0.0000000  -0.0000000  -0.0000000  -0.0000000  -0.0000000  -0.0000000  -0.0000000  -0.0000000
 NQMom=    0.0000000   0.0000000   0.0000000   0.0000000   0.0000000   0.0000000   0.0000000   0.0000000   0.0000000   0.0000000
 NMagM=    2.7928460   2.7928460   2.7928460   2.7928460   2.7928460   2.7928460   2.7928460   2.7928460   2.7928460   2.7928460
 AtZNuc=   1.0000000   1.0000000   1.0000000   1.0000000   1.0000000   1.0000000   1.0000000   1.0000000   1.0000000   1.0000000

  Atom       141         142         143         144         145         146         147         148         149         150
 IAtWgt=           1           1           1           1           1           1           1           1           1           1
 AtmWgt=   1.0078250   1.0078250   1.0078250   1.0078250   1.0078250   1.0078250   1.0078250   1.0078250   1.0078250   1.0078250
 NucSpn=           1           1           1           1           1           1           1           1           1           1
 AtZEff=  -0.0000000  -0.0000000  -0.0000000  -0.0000000  -0.0000000  -0.0000000  -0.0000000  -0.0000000  -0.0000000  -0.0000000
 NQMom=    0.0000000   0.0000000   0.0000000   0.0000000   0.0000000   0.0000000   0.0000000   0.0000000   0.0000000   0.0000000
 NMagM=    2.7928460   2.7928460   2.7928460   2.7928460   2.7928460   2.7928460   2.7928460   2.7928460   2.7928460   2.7928460
 AtZNuc=   1.0000000   1.0000000   1.0000000   1.0000000   1.0000000   1.0000000   1.0000000   1.0000000   1.0000000   1.0000000

  Atom       151         152         153         154         155         156         157         158
 IAtWgt=           1           1           1           1           1           1           1           1
 AtmWgt=   1.0078250   1.0078250   1.0078250   1.0078250   1.0078250   1.0078250   1.0078250   1.0078250
 NucSpn=           1           1           1           1           1           1           1           1
 AtZEff=  -0.0000000  -0.0000000  -0.0000000  -0.0000000  -0.0000000  -0.0000000  -0.0000000  -0.0000000
 NQMom=    0.0000000   0.0000000   0.0000000   0.0000000   0.0000000   0.0000000   0.0000000   0.0000000
 NMagM=    2.7928460   2.7928460   2.7928460   2.7928460   2.7928460   2.7928460   2.7928460   2.7928460
 AtZNuc=   1.0000000   1.0000000   1.0000000   1.0000000   1.0000000   1.0000000   1.0000000   1.0000000
 Leave Link  101 at Sat Sep 11 15:49:12 2021, MaxMem= 23488102400 cpu:               3.6 elap:               0.2
 (Enter /sw/apps/gaussian-16.0/g16/l202.exe)
 Stoichiometry    C68H72Mg2N8O8
 Framework group  C1[X(C68H72Mg2N8O8)]
 Deg. of freedom   468
 Full point group                 C1      NOp   1
 Largest Abelian subgroup         C1      NOp   1
 Largest concise Abelian subgroup C1      NOp   1
                         Standard orientation:                         
 ---------------------------------------------------------------------
 Center     Atomic      Atomic             Coordinates (Angstroms)
 Number     Number       Type             X           Y           Z
 ---------------------------------------------------------------------
      1         12           0        6.829080    0.279772    0.096180
      2          6           0        6.813945   -3.175946   -0.836557
      3          6           0        7.676001    0.993579   -3.131244
      4          6           0        7.292487    3.284863    0.996903
      5          6           0        7.103437   -0.767825    3.408722
      6          7           0        7.170516   -1.013306   -1.667911
      7          6           0        7.074361   -2.317442   -1.906978
      8          6           0        7.201595   -2.679795   -3.416907
      9          6           0        8.017961   -1.403724   -3.914088
     10          6           0        7.568692   -0.403508   -2.863541
     11          6           0        9.530765   -1.572318   -3.816597
     12          6           0        5.808042   -2.779506   -4.123870
     13          6           0        5.821588   -3.442759   -5.504184
     14          1           0        4.688211   -4.266796   -5.896315
     15          7           0        6.920368    1.938273   -0.973348
     16          6           0        7.267730    2.042051   -2.278666
     17          6           0        7.182817    3.480719   -2.609885
     18          6           0        6.942160    4.225872   -1.343029
     19          6           0        7.069806    3.168353   -0.373113
     20          6           0        7.277111    4.010152   -4.007941
     21          6           0        6.654775    5.664878   -1.051820
     22          8           0        6.708660    6.143059    0.132669
     23          6           0        6.391673    6.530780   -2.215449
     24          7           0        7.372679    1.149520    1.914331
     25          6           0        7.446194    2.478218    2.049017
     26          6           0        7.572125    2.874811    3.490126
     27          6           0        7.324236    1.544607    4.337982
     28          6           0        7.171213    0.543228    3.166617
     29          6           0        8.914539    3.497297    3.898104
     30          6           0        6.212225    1.594601    5.415642
     31          6           0        4.860134    1.730501    4.751956
     32          7           0        6.763648   -1.616633    1.149942
     33          6           0        6.923026   -1.821327    2.528120
     34          6           0        6.908964   -3.278497    2.752894
     35          6           0        6.758024   -3.824273    1.479634
     36          6           0        6.708934   -2.775384    0.517493
     37          6           0        7.084809   -3.930250    4.005384
     38          6           0        6.651532   -5.050389    0.705584
     39          8           0        6.539878   -6.245052    0.984526
     40          6           0        6.805872   -4.684415   -0.836515
     41          6           0        5.700679   -5.381687   -1.581947
     42          8           0        4.508349   -5.055837   -1.410084
     43          8           0        6.230549   -6.150122   -2.545942
     44          6           0        5.185981   -6.847439   -3.342673
     45          1           0        8.170169    1.318743   -4.048854
     46          1           0        7.347150    4.311885    1.363886
     47          1           0        7.099206   -1.165985    4.425040
     48          1           0        7.769853   -3.587655   -3.620121
     49          1           0        7.702203   -1.079540   -4.905513
     50          1           0        9.796383   -2.494405   -3.299758
     51          1           0        9.884625   -0.706498   -3.256570
     52          1           0        9.992716   -1.501248   -4.801649
     53          1           0        5.473572   -1.779976   -4.401594
     54          1           0        5.087130   -3.291027   -3.485153
     55          1           0        6.758279   -3.971416   -5.683182
     56          1           0        5.804708   -2.657891   -6.260424
     57          1           0        7.619684    3.245164   -4.703629
     58          1           0        8.070942    4.756823   -4.012784
     59          1           0        6.343007    4.464546   -4.338558
     60          1           0        7.253888    6.509303   -2.882287
     61          1           0        6.118730    7.504463   -1.810118
     62          1           0        5.556147    6.117636   -2.781272
     63          1           0        6.819901    3.615235    3.759123
     64          1           0        8.214257    1.238535    4.888306
     65          1           0        8.820381    4.487653    4.344237
     66          1           0        9.555000    3.524589    3.016993
     67          1           0        9.510505    2.891888    4.580542
     68          1           0        6.344045    2.465833    6.056363
     69          1           0        6.192977    0.712259    6.055449
     70          1           0        4.780589    2.803150    4.578961
     71          1           0        4.071624    1.383329    5.420488
     72          1           0        4.843836    1.241251    3.777864
     73          1           0        6.340371   -4.725483    4.042599
     74          1           0        6.962423   -3.233952    4.834718
     75          1           0        8.110477   -4.285208    3.906066
     76          1           0        7.791013   -5.033418   -1.144439
     77          1           0        5.406696   -7.913978   -3.297786
     78          1           0        5.177100   -6.373455   -4.324338
     79          1           0        4.175254   -6.829055   -2.933488
     80         12           0       -6.385258    1.039058    0.385057
     81          6           0       -8.429199   -1.903090    0.172624
     82          6           0       -7.681108    1.975340   -2.628043
     83          6           0       -4.274233    3.407048    0.324982
     84          6           0       -4.451155   -0.643817    2.745747
     85          7           0       -7.857926    0.076741   -0.955637
     86          6           0       -8.613953   -1.009533   -0.902954
     87          6           0       -9.681060   -1.105568   -2.026167
     88          6           0       -8.966808   -0.168356   -3.117196
     89          6           0       -8.140464    0.710811   -2.180768
     90          6           0       -8.013512   -0.923974   -4.028017
     91          6           0      -11.067884   -0.519105   -1.584811
     92          6           0      -12.234782   -0.857816   -2.515078
     93          1           0      -13.551170   -1.086197   -1.925646
     94          7           0       -6.362120    2.712171   -0.682063
     95          6           0       -6.960479    2.926310   -1.872603
     96          6           0       -6.626348    4.308947   -2.247889
     97          6           0       -5.646320    4.838987   -1.261320
     98          6           0       -5.367643    3.640095   -0.496415
     99          6           0       -7.280408    5.021130   -3.396122
    100          6           0       -5.048013    6.196820   -1.050305
    101          8           0       -4.037334    6.375387   -0.282536
    102          6           0       -5.621181    7.295851   -1.840945
    103          7           0       -4.498459    1.267627    1.227720
    104          6           0       -3.815323    2.417743    1.091799
    105          6           0       -2.614637    2.450456    2.007039
    106          6           0       -2.770148    1.179601    2.965330
    107          6           0       -4.042873    0.554917    2.352680
    108          6           0       -1.251207    2.403858    1.317637
    109          6           0       -2.739668    1.444157    4.495613
    110          6           0       -3.966905    2.224093    4.909087
    111          7           0       -6.511584   -0.838809    1.446055
    112          6           0       -5.580597   -1.360243    2.370966
    113          6           0       -6.042022   -2.715289    2.736184
    114          6           0       -7.206216   -2.898603    1.974911
    115          6           0       -7.441843   -1.747578    1.175460
    116          6           0       -5.378908   -3.608753    3.623938
    117          6           0       -8.283537   -3.808297    1.657870
    118          8           0       -8.654951   -4.898942    2.089490
    119          6           0       -9.053612   -3.254654    0.382398
    120          6           0      -10.528842   -3.307689    0.671217
    121          8           0      -11.024573   -2.594964    1.561653
    122          8           0      -11.140530   -4.023671   -0.289807
    123          6           0      -12.607045   -4.095523   -0.053193
    124          1           0       -7.851130    2.250499   -3.669318
    125          1           0       -3.573167    4.239006    0.424133
    126          1           0       -3.956922   -1.194481    3.548980
    127          1           0       -9.827798   -2.100346   -2.429485
    128          1           0       -9.693569    0.430464   -3.659965
    129          1           0       -7.883827   -1.949041   -3.714079
    130          1           0       -7.073202   -0.390813   -3.976978
    131          1           0       -8.346303   -0.849258   -5.067254
    132          1           0      -11.047625    0.572406   -1.698579
    133          1           0      -11.306307   -0.817829   -0.582543
    134          1           0      -11.982754   -1.662709   -3.216196
    135          1           0      -12.429053    0.005260   -3.156466
    136          1           0       -7.835595    4.325369   -4.037290
    137          1           0       -6.476843    5.399155   -4.037411
    138          1           0       -7.899554    5.860831   -3.073300
    139          1           0       -5.527269    7.066264   -2.899679
    140          1           0       -5.123978    8.200932   -1.486668
    141          1           0       -6.693874    7.358719   -1.626475
    142          1           0       -2.613922    3.348803    2.612062
    143          1           0       -1.958759    0.452755    2.813073
    144          1           0       -0.602216    3.262016    1.575423
    145          1           0       -1.410719    2.355363    0.248645
    146          1           0       -0.669267    1.503155    1.505479
    147          1           0       -1.876859    2.062162    4.755988
    148          1           0       -2.677891    0.538289    5.089409
    149          1           0       -3.688055    3.258627    4.687558
    150          1           0       -4.167922    2.087976    5.969797
    151          1           0       -4.825536    1.971389    4.276202
    152          1           0       -6.142491   -4.046008    4.253436
    153          1           0       -4.622608   -3.094907    4.213647
    154          1           0       -4.936783   -4.304708    2.905992
    155          1           0       -8.779416   -3.884480   -0.464782
    156          1           0      -12.875286   -5.156275   -0.029727
    157          1           0      -13.068216   -3.476759   -0.845788
    158          1           0      -12.976252   -3.762655    0.909790
 ---------------------------------------------------------------------
 Rotational constants (GHZ):           0.0238370           0.0074308           0.0068202
 Leave Link  202 at Sat Sep 11 15:49:12 2021, MaxMem= 23488102400 cpu:               0.2 elap:               0.0
 (Enter /sw/apps/gaussian-16.0/g16/l301.exe)
 Standard basis: def2SVP (5D, 7F)
 Ernie: Thresh=  0.10000D-02 Tol=  0.10000D-05 Strict=F.
 There are  1658 symmetry adapted cartesian basis functions of A   symmetry.
 There are  1572 symmetry adapted basis functions of A   symmetry.
  1572 basis functions,  2678 primitive gaussians,  1658 cartesian basis functions
   312 alpha electrons      312 beta electrons
       nuclear repulsion energy     14255.3343436701 Hartrees.
 IExCor=20419 DFT=T Ex+Corr=CAM-B3LYP ExCW=0 ScaHFX=  1.000000
 ScaDFX=  1.000000  1.000000  1.000000  0.810000 ScalE2=  1.000000  1.000000
 IRadAn=      5 IRanWt=     -1 IRanGd=            0 ICorTp=0 IEmpDi=  4
 HFx  wShort=  0.000000 wLong=  0.330000 cFull=  0.190000 cShort=  0.000000 cLong=  0.460000
 DFx  wShort=  0.000000 wLong=  0.330000 cFull=  0.190000 cShort=  0.000000 cLong=  0.460000
 NAtoms=  158 NActive=  158 NUniq=  158 SFac= 1.00D+00 NAtFMM=   60 NAOKFM=T Big=T
 Integral buffers will be    131072 words long.
 Raffenetti 1 integral format.
 Two-electron integral symmetry is turned on.
 Leave Link  301 at Sat Sep 11 15:49:12 2021, MaxMem= 23488102400 cpu:               1.4 elap:               0.1
 (Enter /sw/apps/gaussian-16.0/g16/l302.exe)
 NPDir=0 NMtPBC=     1 NCelOv=     1 NCel=       1 NClECP=     1 NCelD=      1
         NCelK=      1 NCelE2=     1 NClLst=     1 CellRange=     0.0.
 One-electron integrals computed using PRISM.
 One-electron integral symmetry used in STVInt
   1 Symmetry operations used in ECPInt.
 ECPInt:  NShTT=  271216 NPrTT=  987664 LenC2=  120257 LenP2D=  262563.
 LDataN:  DoStor=T MaxTD1= 4 Len=   56
 NBasis=  1572 RedAO= T EigKep=  3.36D-04  NBF=  1572
 NBsUse=  1572 1.00D-06 EigRej= -1.00D+00 NBFU=  1572
 Precomputing XC quadrature grid using
 IXCGrd= 4 IRadAn=           5 IRanWt=          -1 IRanGd=           0 AccXCQ= 0.00D+00.
 Generated NRdTot=       0 NPtTot=           0 NUsed=           0 NTot=          32
 NSgBfM=  1279  1265  1269  1273  1279 MxSgAt=   158 MxSgA2=   158.
 Leave Link  302 at Sat Sep 11 15:49:18 2021, MaxMem= 23488102400 cpu:             122.1 elap:               5.1
 (Enter /sw/apps/gaussian-16.0/g16/l303.exe)
 DipDrv:  MaxL=1.
 Leave Link  303 at Sat Sep 11 15:49:18 2021, MaxMem= 23488102400 cpu:               8.0 elap:               0.4
 (Enter /sw/apps/gaussian-16.0/g16/l308.exe)
 Leave Link  308 at Sat Sep 11 15:49:19 2021, MaxMem= 23488102400 cpu:              16.3 elap:               0.8
 (Enter /sw/apps/gaussian-16.0/g16/l401.exe)
 ExpMin= 3.36D-02 ExpMax= 4.95D+03 ExpMxC= 7.45D+02 IAcc=3 IRadAn=         5 AccDes= 0.00D+00
 Harris functional with IExCor=20419 and IRadAn=       5 diagonalized for initial guess.
 HarFok:  IExCor=20419 AccDes= 0.00D+00 IRadAn=         5 IDoV= 1 UseB2=F ITyADJ=14
 ICtDFT=  3500011 ScaDFX=  1.000000  1.000000  1.000000  1.000000
 FoFCou: FMM=F IPFlag=           0 FMFlag=      100000 FMFlg1=        2001
         NFxFlg=           0 DoJE=T BraDBF=F KetDBF=T FulRan=T
         wScrn=  0.000000 ICntrl=       500 IOpCl=  0 I1Cent=   200000004 NGrid=           0
         NMat0=    1 NMatS0=      1 NMatT0=    0 NMatD0=    1 NMtDS0=    0 NMtDT0=    0
 Petite list used in FoFCou.
 Harris En= -3918.65801182170    
 JPrj=0 DoOrth=F DoCkMO=F.
 Leave Link  401 at Sat Sep 11 15:49:26 2021, MaxMem= 23488102400 cpu:             166.0 elap:               6.9
 (Enter /sw/apps/gaussian-16.0/g16/l502.exe)
 Integral symmetry usage will be decided dynamically.
 Closed shell SCF:
 Using DIIS extrapolation, IDIIS=  1040.
 NGot= 23488102400 LenX= 23482547354 LenY= 23479796732
 Requested convergence on RMS density matrix=1.00D-08 within 128 cycles.
 Requested convergence on MAX density matrix=1.00D-06.
 Requested convergence on             energy=1.00D-06.
 No special actions if energy rises.
 Fock matrices will be formed incrementally for  20 cycles.

 Cycle   1  Pass 1  IDiag  1:
 FoFJK:  IHMeth= 1 ICntrl=       0 DoSepK=T KAlg= 0 I1Cent=           0 FoldK=F
 IRaf=         1 NMat=       1 IRICut=       1 DoRegI=T DoRafI=F ISym2E= 0 IDoP0=0 IntGTp=1.
 FoFCou: FMM=T IPFlag=           0 FMFlag=      100000 FMFlg1=        2001
         NFxFlg=           0 DoJE=T BraDBF=F KetDBF=F FulRan=T
         wScrn=  0.000000 ICntrl=       500 IOpCl=  0 I1Cent=           0 NGrid=           0
         NMat0=    1 NMatS0=      1 NMatT0=    0 NMatD0=    1 NMtDS0=    0 NMtDT0=    0
 Symmetry not used in FoFCou.
 FMM levels:  10  Number of levels for PrismC:   9
 E= -4068.94901801628    
 DIIS: error= 2.04D-02 at cycle   1 NSaved=   1.
 NSaved= 1 IEnMin= 1 EnMin= -4068.94901801628     IErMin= 1 ErrMin= 2.04D-02
 ErrMax= 2.04D-02  0.00D+00 EMaxC= 1.00D-01 BMatC= 1.69D+00 BMatP= 1.69D+00
 IDIUse=3 WtCom= 7.96D-01 WtEn= 2.04D-01
 Coeff-Com:  0.100D+01
 Coeff-En:   0.100D+01
 Coeff:      0.100D+01
 Gap=     0.120 Goal=   None    Shift=    0.000
 GapD=    0.120 DampG=1.000 DampE=0.500 DampFc=0.5000 IDamp=-1.
 Damping current iteration by 5.00D-01
 RMSDP=1.57D-03 MaxDP=1.35D-01              OVMax= 2.02D-01

 Cycle   2  Pass 1  IDiag  1:
 RMSU=  7.70D-04    CP:  9.82D-01
 E= -4069.33772684378     Delta-E=       -0.388708827501 Rises=F Damp=T
 DIIS: error= 1.27D-02 at cycle   2 NSaved=   2.
 NSaved= 2 IEnMin= 2 EnMin= -4069.33772684378     IErMin= 2 ErrMin= 1.27D-02
 ErrMax= 1.27D-02  0.00D+00 EMaxC= 1.00D-01 BMatC= 3.07D-01 BMatP= 1.69D+00
 IDIUse=3 WtCom= 8.73D-01 WtEn= 1.27D-01
 Coeff-Com: -0.213D+00 0.121D+01
 Coeff-En:   0.000D+00 0.100D+01
 Coeff:     -0.186D+00 0.119D+01
 Gap=     0.135 Goal=   None    Shift=    0.000
 RMSDP=7.66D-04 MaxDP=9.43D-02 DE=-3.89D-01 OVMax= 1.91D-01

 Cycle   3  Pass 1  IDiag  1:
 RMSU=  7.34D-04    CP:  9.68D-01  1.24D+00
 E= -4069.62620265939     Delta-E=       -0.288475815614 Rises=F Damp=F
 DIIS: error= 1.58D-02 at cycle   3 NSaved=   3.
 NSaved= 3 IEnMin= 3 EnMin= -4069.62620265939     IErMin= 2 ErrMin= 1.27D-02
 ErrMax= 1.58D-02  0.00D+00 EMaxC= 1.00D-01 BMatC= 2.03D-01 BMatP= 3.07D-01
 IDIUse=3 WtCom= 8.42D-01 WtEn= 1.58D-01
 Coeff-Com: -0.267D+00 0.652D+00 0.615D+00
 Coeff-En:   0.000D+00 0.000D+00 0.100D+01
 Coeff:     -0.225D+00 0.550D+00 0.676D+00
 Gap=     0.123 Goal=   None    Shift=    0.000
 RMSDP=5.12D-04 MaxDP=4.76D-02 DE=-2.88D-01 OVMax= 1.46D-01

 Cycle   4  Pass 1  IDiag  1:
 RMSU=  2.68D-04    CP:  9.65D-01  1.55D+00  5.02D-01
 E= -4069.76388609046     Delta-E=       -0.137683431065 Rises=F Damp=F
 DIIS: error= 7.31D-03 at cycle   4 NSaved=   4.
 NSaved= 4 IEnMin= 4 EnMin= -4069.76388609046     IErMin= 4 ErrMin= 7.31D-03
 ErrMax= 7.31D-03  0.00D+00 EMaxC= 1.00D-01 BMatC= 5.11D-02 BMatP= 2.03D-01
 IDIUse=3 WtCom= 9.27D-01 WtEn= 7.31D-02
 Coeff-Com: -0.109D+00 0.227D+00 0.409D+00 0.473D+00
 Coeff-En:   0.000D+00 0.000D+00 0.224D+00 0.776D+00
 Coeff:     -0.101D+00 0.210D+00 0.396D+00 0.495D+00
 Gap=     0.122 Goal=   None    Shift=    0.000
 RMSDP=2.04D-04 MaxDP=1.92D-02 DE=-1.38D-01 OVMax= 6.49D-02

 Cycle   5  Pass 1  IDiag  1:
 RMSU=  7.74D-05    CP:  9.64D-01  1.49D+00  6.88D-01  5.45D-01
 E= -4069.81039928058     Delta-E=       -0.046513190118 Rises=F Damp=F
 DIIS: error= 7.58D-04 at cycle   5 NSaved=   5.
 NSaved= 5 IEnMin= 5 EnMin= -4069.81039928058     IErMin= 5 ErrMin= 7.58D-04
 ErrMax= 7.58D-04  0.00D+00 EMaxC= 1.00D-01 BMatC= 1.25D-03 BMatP= 5.11D-02
 IDIUse=3 WtCom= 9.92D-01 WtEn= 7.58D-03
 Coeff-Com: -0.369D-01 0.725D-01 0.169D+00 0.253D+00 0.542D+00
 Coeff-En:   0.000D+00 0.000D+00 0.000D+00 0.000D+00 0.100D+01
 Coeff:     -0.366D-01 0.720D-01 0.168D+00 0.251D+00 0.546D+00
 Gap=     0.121 Goal=   None    Shift=    0.000
 RMSDP=4.30D-05 MaxDP=4.10D-03 DE=-4.65D-02 OVMax= 1.77D-02

 Cycle   6  Pass 1  IDiag  1:
 RMSU=  3.14D-05    CP:  9.64D-01  1.49D+00  6.80D-01  6.19D-01  7.41D-01
 E= -4069.81150727650     Delta-E=       -0.001107995926 Rises=F Damp=F
 DIIS: error= 2.01D-04 at cycle   6 NSaved=   6.
 NSaved= 6 IEnMin= 6 EnMin= -4069.81150727650     IErMin= 6 ErrMin= 2.01D-04
 ErrMax= 2.01D-04  0.00D+00 EMaxC= 1.00D-01 BMatC= 1.89D-04 BMatP= 1.25D-03
 IDIUse=3 WtCom= 9.98D-01 WtEn= 2.01D-03
 Coeff-Com:  0.207D-02-0.634D-02 0.121D-01 0.415D-01 0.305D+00 0.645D+00
 Coeff-En:   0.000D+00 0.000D+00 0.000D+00 0.000D+00 0.111D+00 0.889D+00
 Coeff:      0.207D-02-0.632D-02 0.121D-01 0.414D-01 0.305D+00 0.646D+00
 Gap=     0.122 Goal=   None    Shift=    0.000
 RMSDP=1.68D-05 MaxDP=1.16D-03 DE=-1.11D-03 OVMax= 7.69D-03

 Cycle   7  Pass 1  IDiag  1:
 RMSU=  1.11D-05    CP:  9.64D-01  1.50D+00  6.86D-01  6.18D-01  8.48D-01
                    CP:  7.41D-01
 E= -4069.81171431500     Delta-E=       -0.000207038494 Rises=F Damp=F
 DIIS: error= 8.71D-05 at cycle   7 NSaved=   7.
 NSaved= 7 IEnMin= 7 EnMin= -4069.81171431500     IErMin= 7 ErrMin= 8.71D-05
 ErrMax= 8.71D-05  0.00D+00 EMaxC= 1.00D-01 BMatC= 2.36D-05 BMatP= 1.89D-04
 IDIUse=1 WtCom= 1.00D+00 WtEn= 0.00D+00
 Coeff-Com:  0.453D-02-0.993D-02-0.885D-02-0.320D-02 0.106D+00 0.337D+00
 Coeff-Com:  0.575D+00
 Coeff:      0.453D-02-0.993D-02-0.885D-02-0.320D-02 0.106D+00 0.337D+00
 Coeff:      0.575D+00
 Gap=     0.122 Goal=   None    Shift=    0.000
 RMSDP=6.69D-06 MaxDP=1.06D-03 DE=-2.07D-04 OVMax= 3.35D-03

 Cycle   8  Pass 1  IDiag  1:
 RMSU=  4.76D-06    CP:  9.64D-01  1.50D+00  6.86D-01  6.23D-01  8.50D-01
                    CP:  8.65D-01  8.11D-01
 E= -4069.81174348773     Delta-E=       -0.000029172734 Rises=F Damp=F
 DIIS: error= 5.27D-05 at cycle   8 NSaved=   8.
 NSaved= 8 IEnMin= 8 EnMin= -4069.81174348773     IErMin= 8 ErrMin= 5.27D-05
 ErrMax= 5.27D-05  0.00D+00 EMaxC= 1.00D-01 BMatC= 4.91D-06 BMatP= 2.36D-05
 IDIUse=1 WtCom= 1.00D+00 WtEn= 0.00D+00
 Coeff-Com:  0.219D-02-0.436D-02-0.782D-02-0.121D-01-0.100D-01 0.342D-01
 Coeff-Com:  0.329D+00 0.669D+00
 Coeff:      0.219D-02-0.436D-02-0.782D-02-0.121D-01-0.100D-01 0.342D-01
 Coeff:      0.329D+00 0.669D+00
 Gap=     0.122 Goal=   None    Shift=    0.000
 RMSDP=3.34D-06 MaxDP=3.74D-04 DE=-2.92D-05 OVMax= 1.06D-03

 Cycle   9  Pass 1  IDiag  1:
 RMSU=  1.94D-06    CP:  9.64D-01  1.50D+00  6.87D-01  6.24D-01  8.67D-01
                    CP:  8.92D-01  1.00D+00  9.56D-01
 E= -4069.81175136083     Delta-E=       -0.000007873103 Rises=F Damp=F
 DIIS: error= 2.00D-05 at cycle   9 NSaved=   9.
 NSaved= 9 IEnMin= 9 EnMin= -4069.81175136083     IErMin= 9 ErrMin= 2.00D-05
 ErrMax= 2.00D-05  0.00D+00 EMaxC= 1.00D-01 BMatC= 7.30D-07 BMatP= 4.91D-06
 IDIUse=1 WtCom= 1.00D+00 WtEn= 0.00D+00
 Coeff-Com:  0.480D-03-0.800D-03-0.273D-02-0.606D-02-0.207D-01-0.393D-01
 Coeff-Com:  0.981D-01 0.334D+00 0.637D+00
 Coeff:      0.480D-03-0.800D-03-0.273D-02-0.606D-02-0.207D-01-0.393D-01
 Coeff:      0.981D-01 0.334D+00 0.637D+00
 Gap=     0.122 Goal=   None    Shift=    0.000
 RMSDP=1.43D-06 MaxDP=1.45D-04 DE=-7.87D-06 OVMax= 7.62D-04

 Cycle  10  Pass 1  IDiag  1:
 RMSU=  9.50D-07    CP:  9.64D-01  1.50D+00  6.87D-01  6.25D-01  8.71D-01
                    CP:  9.04D-01  1.05D+00  1.12D+00  1.05D+00
 E= -4069.81175300461     Delta-E=       -0.000001643777 Rises=F Damp=F
 DIIS: error= 1.01D-05 at cycle  10 NSaved=  10.
 NSaved=10 IEnMin=10 EnMin= -4069.81175300461     IErMin=10 ErrMin= 1.01D-05
 ErrMax= 1.01D-05  0.00D+00 EMaxC= 1.00D-01 BMatC= 1.71D-07 BMatP= 7.30D-07
 IDIUse=1 WtCom= 1.00D+00 WtEn= 0.00D+00
 Coeff-Com: -0.420D-03 0.884D-03 0.120D-02 0.104D-02-0.380D-02-0.311D-01
 Coeff-Com: -0.439D-01-0.708D-01 0.243D+00 0.904D+00
 Coeff:     -0.420D-03 0.884D-03 0.120D-02 0.104D-02-0.380D-02-0.311D-01
 Coeff:     -0.439D-01-0.708D-01 0.243D+00 0.904D+00
 Gap=     0.122 Goal=   None    Shift=    0.000
 RMSDP=1.23D-06 MaxDP=1.22D-04 DE=-1.64D-06 OVMax= 6.37D-04

 Cycle  11  Pass 1  IDiag  1:
 RMSU=  5.31D-07    CP:  9.64D-01  1.50D+00  6.87D-01  6.25D-01  8.73D-01
                    CP:  9.14D-01  1.10D+00  1.23D+00  1.39D+00  1.36D+00
 E= -4069.81175379698     Delta-E=       -0.000000792366 Rises=F Damp=F
 DIIS: error= 4.04D-06 at cycle  11 NSaved=  11.
 NSaved=11 IEnMin=11 EnMin= -4069.81175379698     IErMin=11 ErrMin= 4.04D-06
 ErrMax= 4.04D-06  0.00D+00 EMaxC= 1.00D-01 BMatC= 6.60D-08 BMatP= 1.71D-07
 IDIUse=1 WtCom= 1.00D+00 WtEn= 0.00D+00
 Coeff-Com: -0.334D-03 0.652D-03 0.134D-02 0.211D-02 0.428D-02-0.872D-02
 Coeff-Com: -0.418D-01-0.131D+00-0.318D-01 0.482D+00 0.723D+00
 Coeff:     -0.334D-03 0.652D-03 0.134D-02 0.211D-02 0.428D-02-0.872D-02
 Coeff:     -0.418D-01-0.131D+00-0.318D-01 0.482D+00 0.723D+00
 Gap=     0.122 Goal=   None    Shift=    0.000
 RMSDP=6.95D-07 MaxDP=6.53D-05 DE=-7.92D-07 OVMax= 3.94D-04

 Cycle  12  Pass 1  IDiag  1:
 RMSU=  2.69D-07    CP:  9.64D-01  1.50D+00  6.87D-01  6.25D-01  8.74D-01
                    CP:  9.16D-01  1.12D+00  1.29D+00  1.55D+00  1.75D+00
                    CP:  1.18D+00
 E= -4069.81175406734     Delta-E=       -0.000000270367 Rises=F Damp=F
 DIIS: error= 2.60D-06 at cycle  12 NSaved=  12.
 NSaved=12 IEnMin=12 EnMin= -4069.81175406734     IErMin=12 ErrMin= 2.60D-06
 ErrMax= 2.60D-06  0.00D+00 EMaxC= 1.00D-01 BMatC= 1.58D-08 BMatP= 6.60D-08
 IDIUse=1 WtCom= 1.00D+00 WtEn= 0.00D+00
 Coeff-Com: -0.125D-04 0.785D-05 0.227D-03 0.579D-03 0.343D-02 0.364D-02
 Coeff-Com:  0.133D-02-0.375D-01-0.714D-01-0.514D-01 0.260D+00 0.891D+00
 Coeff:     -0.125D-04 0.785D-05 0.227D-03 0.579D-03 0.343D-02 0.364D-02
 Coeff:      0.133D-02-0.375D-01-0.714D-01-0.514D-01 0.260D+00 0.891D+00
 Gap=     0.122 Goal=   None    Shift=    0.000
 RMSDP=4.32D-07 MaxDP=2.89D-05 DE=-2.70D-07 OVMax= 2.57D-04

 Cycle  13  Pass 1  IDiag  1:
 RMSU=  1.68D-07    CP:  9.64D-01  1.50D+00  6.87D-01  6.25D-01  8.74D-01
                    CP:  9.17D-01  1.12D+00  1.32D+00  1.66D+00  1.97D+00
                    CP:  1.59D+00  1.24D+00
 E= -4069.81175416014     Delta-E=       -0.000000092790 Rises=F Damp=F
 DIIS: error= 1.26D-06 at cycle  13 NSaved=  13.
 NSaved=13 IEnMin=13 EnMin= -4069.81175416014     IErMin=13 ErrMin= 1.26D-06
 ErrMax= 1.26D-06  0.00D+00 EMaxC= 1.00D-01 BMatC= 8.58D-09 BMatP= 1.58D-08
 IDIUse=1 WtCom= 1.00D+00 WtEn= 0.00D+00
 Coeff-Com:  0.119D-03-0.243D-03-0.361D-03-0.438D-03 0.675D-03 0.497D-02
 Coeff-Com:  0.187D-01 0.227D-01-0.332D-01-0.238D+00-0.159D+00 0.583D+00
 Coeff-Com:  0.801D+00
 Coeff:      0.119D-03-0.243D-03-0.361D-03-0.438D-03 0.675D-03 0.497D-02
 Coeff:      0.187D-01 0.227D-01-0.332D-01-0.238D+00-0.159D+00 0.583D+00
 Coeff:      0.801D+00
 Gap=     0.122 Goal=   None    Shift=    0.000
 RMSDP=3.50D-07 MaxDP=2.22D-05 DE=-9.28D-08 OVMax= 2.16D-04

 Cycle  14  Pass 1  IDiag  1:
 RMSU=  7.76D-08    CP:  9.64D-01  1.50D+00  6.87D-01  6.25D-01  8.74D-01
                    CP:  9.17D-01  1.13D+00  1.35D+00  1.73D+00  2.17D+00
                    CP:  1.85D+00  1.76D+00  1.11D+00
 E= -4069.81175419851     Delta-E=       -0.000000038373 Rises=F Damp=F
 DIIS: error= 7.37D-07 at cycle  14 NSaved=  14.
 NSaved=14 IEnMin=14 EnMin= -4069.81175419851     IErMin=14 ErrMin= 7.37D-07
 ErrMax= 7.37D-07  0.00D+00 EMaxC= 1.00D-01 BMatC= 1.32D-09 BMatP= 8.58D-09
 IDIUse=1 WtCom= 1.00D+00 WtEn= 0.00D+00
 Coeff-Com:  0.679D-04-0.134D-03-0.250D-03-0.389D-03-0.445D-03 0.128D-02
 Coeff-Com:  0.104D-01 0.197D-01 0.432D-02-0.102D+00-0.145D+00 0.854D-01
 Coeff-Com:  0.409D+00 0.718D+00
 Coeff:      0.679D-04-0.134D-03-0.250D-03-0.389D-03-0.445D-03 0.128D-02
 Coeff:      0.104D-01 0.197D-01 0.432D-02-0.102D+00-0.145D+00 0.854D-01
 Coeff:      0.409D+00 0.718D+00
 Gap=     0.122 Goal=   None    Shift=    0.000
 RMSDP=1.07D-07 MaxDP=6.98D-06 DE=-3.84D-08 OVMax= 6.07D-05

 Cycle  15  Pass 1  IDiag  1:
 RMSU=  3.86D-08    CP:  9.64D-01  1.50D+00  6.87D-01  6.25D-01  8.74D-01
                    CP:  9.17D-01  1.13D+00  1.35D+00  1.75D+00  2.21D+00
                    CP:  1.95D+00  1.91D+00  1.35D+00  1.04D+00
 E= -4069.81175420295     Delta-E=       -0.000000004446 Rises=F Damp=F
 DIIS: error= 3.26D-07 at cycle  15 NSaved=  15.
 NSaved=15 IEnMin=15 EnMin= -4069.81175420295     IErMin=15 ErrMin= 3.26D-07
 ErrMax= 3.26D-07  0.00D+00 EMaxC= 1.00D-01 BMatC= 2.26D-10 BMatP= 1.32D-09
 IDIUse=1 WtCom= 1.00D+00 WtEn= 0.00D+00
 Coeff-Com:  0.644D-05-0.111D-04-0.365D-04-0.869D-04-0.294D-03-0.502D-03
 Coeff-Com:  0.122D-02 0.287D-02 0.868D-02 0.154D-03-0.310D-01-0.718D-01
 Coeff-Com:  0.334D-01 0.296D+00 0.761D+00
 Coeff:      0.644D-05-0.111D-04-0.365D-04-0.869D-04-0.294D-03-0.502D-03
 Coeff:      0.122D-02 0.287D-02 0.868D-02 0.154D-03-0.310D-01-0.718D-01
 Coeff:      0.334D-01 0.296D+00 0.761D+00
 Gap=     0.122 Goal=   None    Shift=    0.000
 RMSDP=3.93D-08 MaxDP=2.17D-06 DE=-4.45D-09 OVMax= 2.91D-05

 Cycle  16  Pass 1  IDiag  1:
 RMSU=  1.89D-08    CP:  9.64D-01  1.50D+00  6.87D-01  6.25D-01  8.74D-01
                    CP:  9.17D-01  1.13D+00  1.35D+00  1.75D+00  2.23D+00
                    CP:  1.98D+00  1.96D+00  1.42D+00  1.24D+00  1.14D+00
 E= -4069.81175420345     Delta-E=       -0.000000000495 Rises=F Damp=F
 DIIS: error= 1.93D-07 at cycle  16 NSaved=  16.
 NSaved=16 IEnMin=16 EnMin= -4069.81175420345     IErMin=16 ErrMin= 1.93D-07
 ErrMax= 1.93D-07  0.00D+00 EMaxC= 1.00D-01 BMatC= 8.68D-11 BMatP= 2.26D-10
 IDIUse=1 WtCom= 1.00D+00 WtEn= 0.00D+00
 Coeff-Com: -0.137D-04 0.279D-04 0.448D-04 0.497D-04-0.358D-04-0.627D-03
 Coeff-Com: -0.181D-02-0.409D-02 0.423D-02 0.248D-01 0.205D-01-0.630D-01
 Coeff-Com: -0.802D-01-0.379D-01 0.403D+00 0.735D+00
 Coeff:     -0.137D-04 0.279D-04 0.448D-04 0.497D-04-0.358D-04-0.627D-03
 Coeff:     -0.181D-02-0.409D-02 0.423D-02 0.248D-01 0.205D-01-0.630D-01
 Coeff:     -0.802D-01-0.379D-01 0.403D+00 0.735D+00
 Gap=     0.122 Goal=   None    Shift=    0.000
 RMSDP=2.32D-08 MaxDP=1.18D-06 DE=-4.95D-10 OVMax= 1.29D-05

 Cycle  17  Pass 1  IDiag  1:
 RMSU=  1.05D-08    CP:  9.64D-01  1.50D+00  6.87D-01  6.25D-01  8.74D-01
                    CP:  9.17D-01  1.13D+00  1.35D+00  1.76D+00  2.23D+00
                    CP:  1.99D+00  1.99D+00  1.47D+00  1.34D+00  1.43D+00
                    CP:  1.23D+00
 E= -4069.81175420402     Delta-E=       -0.000000000575 Rises=F Damp=F
 DIIS: error= 9.06D-08 at cycle  17 NSaved=  17.
 NSaved=17 IEnMin=17 EnMin= -4069.81175420402     IErMin=17 ErrMin= 9.06D-08
 ErrMax= 9.06D-08  0.00D+00 EMaxC= 1.00D-01 BMatC= 1.78D-11 BMatP= 8.68D-11
 IDIUse=1 WtCom= 1.00D+00 WtEn= 0.00D+00
 Coeff-Com: -0.732D-05 0.143D-04 0.287D-04 0.420D-04 0.785D-04-0.134D-03
 Coeff-Com: -0.909D-03-0.280D-02 0.515D-04 0.956D-02 0.175D-01-0.768D-02
 Coeff-Com: -0.359D-01-0.999D-01-0.203D-01 0.284D+00 0.856D+00
 Coeff:     -0.732D-05 0.143D-04 0.287D-04 0.420D-04 0.785D-04-0.134D-03
 Coeff:     -0.909D-03-0.280D-02 0.515D-04 0.956D-02 0.175D-01-0.768D-02
 Coeff:     -0.359D-01-0.999D-01-0.203D-01 0.284D+00 0.856D+00
 Gap=     0.122 Goal=   None    Shift=    0.000
 RMSDP=1.35D-08 MaxDP=7.45D-07 DE=-5.75D-10 OVMax= 9.89D-06

 Cycle  18  Pass 1  IDiag  1:
 RMSU=  5.14D-09    CP:  9.64D-01  1.50D+00  6.87D-01  6.25D-01  8.74D-01
                    CP:  9.17D-01  1.13D+00  1.35D+00  1.76D+00  2.23D+00
                    CP:  1.99D+00  1.99D+00  1.49D+00  1.40D+00  1.60D+00
                    CP:  1.63D+00  1.37D+00
 E= -4069.81175420431     Delta-E=       -0.000000000287 Rises=F Damp=F
 DIIS: error= 6.82D-08 at cycle  18 NSaved=  18.
 NSaved=18 IEnMin=18 EnMin= -4069.81175420431     IErMin=18 ErrMin= 6.82D-08
 ErrMax= 6.82D-08  0.00D+00 EMaxC= 1.00D-01 BMatC= 7.88D-12 BMatP= 1.78D-11
 IDIUse=1 WtCom= 1.00D+00 WtEn= 0.00D+00
 Coeff-Com:  0.127D-05-0.286D-05-0.168D-05 0.227D-05 0.627D-04 0.159D-03
 Coeff-Com:  0.288D-03-0.164D-04-0.120D-02-0.492D-02 0.108D-02 0.177D-01
 Coeff-Com:  0.147D-01-0.377D-01-0.153D+00-0.169D+00 0.404D+00 0.929D+00
 Coeff:      0.127D-05-0.286D-05-0.168D-05 0.227D-05 0.627D-04 0.159D-03
 Coeff:      0.288D-03-0.164D-04-0.120D-02-0.492D-02 0.108D-02 0.177D-01
 Coeff:      0.147D-01-0.377D-01-0.153D+00-0.169D+00 0.404D+00 0.929D+00
 Gap=     0.122 Goal=   None    Shift=    0.000
 RMSDP=1.12D-08 MaxDP=6.03D-07 DE=-2.87D-10 OVMax= 6.13D-06

 Cycle  19  Pass 1  IDiag  1:
 RMSU=  3.05D-09    CP:  9.64D-01  1.50D+00  6.87D-01  6.25D-01  8.74D-01
                    CP:  9.17D-01  1.13D+00  1.35D+00  1.76D+00  2.23D+00
                    CP:  2.00D+00  2.00D+00  1.50D+00  1.44D+00  1.74D+00
                    CP:  1.92D+00  1.91D+00  1.26D+00
 E= -4069.81175420427     Delta-E=        0.000000000044 Rises=F Damp=F
 DIIS: error= 3.03D-08 at cycle  19 NSaved=  19.
 NSaved=19 IEnMin=18 EnMin= -4069.81175420431     IErMin=19 ErrMin= 3.03D-08
 ErrMax= 3.03D-08  0.00D+00 EMaxC= 1.00D-01 BMatC= 1.96D-12 BMatP= 7.88D-12
 IDIUse=1 WtCom= 1.00D+00 WtEn= 0.00D+00
 Coeff-Com:  0.300D-05-0.607D-05-0.995D-05-0.120D-04 0.172D-04 0.131D-03
 Coeff-Com:  0.479D-03 0.807D-03-0.634D-03-0.624D-02-0.488D-02 0.129D-01
 Coeff-Com:  0.215D-01 0.958D-02-0.800D-01-0.197D+00-0.699D-02 0.526D+00
 Coeff-Com:  0.725D+00
 Coeff:      0.300D-05-0.607D-05-0.995D-05-0.120D-04 0.172D-04 0.131D-03
 Coeff:      0.479D-03 0.807D-03-0.634D-03-0.624D-02-0.488D-02 0.129D-01
 Coeff:      0.215D-01 0.958D-02-0.800D-01-0.197D+00-0.699D-02 0.526D+00
 Coeff:      0.725D+00
 Gap=     0.122 Goal=   None    Shift=    0.000
 RMSDP=5.17D-09 MaxDP=3.86D-07 DE= 4.37D-11 OVMax= 3.88D-06

 SCF Done:  E(RCAM-B3LYP) =  -4069.81175420     A.U. after   19 cycles
            NFock= 19  Conv=0.52D-08     -V/T= 2.0102
 KE= 4.028802062312D+03 PE=-3.799174076720D+04 EE= 1.563779260702D+04
 Leave Link  502 at Sat Sep 11 15:58:51 2021, MaxMem= 23488102400 cpu:           12961.1 elap:             565.4
 (Enter /sw/apps/gaussian-16.0/g16/l801.exe)
 DoSCS=F DFT=T ScalE2(SS,OS)=  1.000000  1.000000
 ExpMin= 3.36D-02 ExpMax= 4.95D+03 ExpMxC= 7.45D+02 IAcc=3 IRadAn=         5 AccDes= 0.00D+00
 HarFok:  IExCor=  205 AccDes= 0.00D+00 IRadAn=         5 IDoV=-2 UseB2=F ITyADJ=14
 ICtDFT= 12500011 ScaDFX=  1.000000  1.000000  1.000000  1.000000
 GSVD:  LWork=       -9588 too small for GESVD, short by       45590 words or       45590 for optimal perf.
 Largest valence mixing into a core orbital is  2.03D-04
 Largest core mixing into a valence orbital is  5.24D-05
 Range of M.O.s used for correlation:    95  1572
 NBasis=  1572 NAE=   312 NBE=   312 NFC=    94 NFV=     0
 NROrb=   1478 NOA=   218 NOB=   218 NVA=  1260 NVB=  1260
 Leave Link  801 at Sat Sep 11 15:58:52 2021, MaxMem= 23488102400 cpu:               9.5 elap:               0.4
 (Enter /sw/apps/gaussian-16.0/g16/l914.exe)
 RHF ground state
 Two-electron integrals replicated using symmetry.
 MDV= 23488102400 DFT=T DoStab=F Mixed=T DoRPA=T DoScal=F NonHer=T
 Making orbital integer symmetry assigments:
 Orbital symmetries:
       Occupied  (A) (A) (A) (A) (A) (A) (A) (A) (A) (A) (A) (A)
                 (A) (A) (A) (A) (A) (A) (A) (A) (A) (A) (A) (A)
                 (A) (A) (A) (A) (A) (A) (A) (A) (A) (A) (A) (A)
                 (A) (A) (A) (A) (A) (A) (A) (A) (A) (A) (A) (A)
                 (A) (A) (A) (A) (A) (A) (A) (A) (A) (A) (A) (A)
                 (A) (A) (A) (A) (A) (A) (A) (A) (A) (A) (A) (A)
                 (A) (A) (A) (A) (A) (A) (A) (A) (A) (A) (A) (A)
                 (A) (A) (A) (A) (A) (A) (A) (A) (A) (A) (A) (A)
                 (A) (A) (A) (A) (A) (A) (A) (A) (A) (A) (A) (A)
                 (A) (A) (A) (A) (A) (A) (A) (A) (A) (A) (A) (A)
                 (A) (A) (A) (A) (A) (A) (A) (A) (A) (A) (A) (A)
                 (A) (A) (A) (A) (A) (A) (A) (A) (A) (A) (A) (A)
                 (A) (A) (A) (A) (A) (A) (A) (A) (A) (A) (A) (A)
                 (A) (A) (A) (A) (A) (A) (A) (A) (A) (A) (A) (A)
                 (A) (A) (A) (A) (A) (A) (A) (A) (A) (A) (A) (A)
                 (A) (A) (A) (A) (A) (A) (A) (A) (A) (A) (A) (A)
                 (A) (A) (A) (A) (A) (A) (A) (A) (A) (A) (A) (A)
                 (A) (A) (A) (A) (A) (A) (A) (A) (A) (A) (A) (A)
                 (A) (A) (A) (A) (A) (A) (A) (A) (A) (A) (A) (A)
                 (A) (A) (A) (A) (A) (A) (A) (A) (A) (A) (A) (A)
                 (A) (A) (A) (A) (A) (A) (A) (A) (A) (A) (A) (A)
                 (A) (A) (A) (A) (A) (A) (A) (A) (A) (A) (A) (A)
                 (A) (A) (A) (A) (A) (A) (A) (A) (A) (A) (A) (A)
                 (A) (A) (A) (A) (A) (A) (A) (A) (A) (A) (A) (A)
                 (A) (A) (A) (A) (A) (A) (A) (A) (A) (A) (A) (A)
                 (A) (A) (A) (A) (A) (A) (A) (A) (A) (A) (A) (A)
       Virtual   (A) (A) (A) (A) (A) (A) (A) (A) (A) (A) (A) (A)
                 (A) (A) (A) (A) (A) (A) (A) (A) (A) (A) (A) (A)
                 (A) (A) (A) (A) (A) (A) (A) (A) (A) (A) (A) (A)
                 (A) (A) (A) (A) (A) (A) (A) (A) (A) (A) (A) (A)
                 (A) (A) (A) (A) (A) (A) (A) (A) (A) (A) (A) (A)
                 (A) (A) (A) (A) (A) (A) (A) (A) (A) (A) (A) (A)
                 (A) (A) (A) (A) (A) (A) (A) (A) (A) (A) (A) (A)
                 (A) (A) (A) (A) (A) (A) (A) (A) (A) (A) (A) (A)
                 (A) (A) (A) (A) (A) (A) (A) (A) (A) (A) (A) (A)
                 (A) (A) (A) (A) (A) (A) (A) (A) (A) (A) (A) (A)
                 (A) (A) (A) (A) (A) (A) (A) (A) (A) (A) (A) (A)
                 (A) (A) (A) (A) (A) (A) (A) (A) (A) (A) (A) (A)
                 (A) (A) (A) (A) (A) (A) (A) (A) (A) (A) (A) (A)
                 (A) (A) (A) (A) (A) (A) (A) (A) (A) (A) (A) (A)
                 (A) (A) (A) (A) (A) (A) (A) (A) (A) (A) (A) (A)
                 (A) (A) (A) (A) (A) (A) (A) (A) (A) (A) (A) (A)
                 (A) (A) (A) (A) (A) (A) (A) (A) (A) (A) (A) (A)
                 (A) (A) (A) (A) (A) (A) (A) (A) (A) (A) (A) (A)
                 (A) (A) (A) (A) (A) (A) (A) (A) (A) (A) (A) (A)
                 (A) (A) (A) (A) (A) (A) (A) (A) (A) (A) (A) (A)
                 (A) (A) (A) (A) (A) (A) (A) (A) (A) (A) (A) (A)
                 (A) (A) (A) (A) (A) (A) (A) (A) (A) (A) (A) (A)
                 (A) (A) (A) (A) (A) (A) (A) (A) (A) (A) (A) (A)
                 (A) (A) (A) (A) (A) (A) (A) (A) (A) (A) (A) (A)
                 (A) (A) (A) (A) (A) (A) (A) (A) (A) (A) (A) (A)
                 (A) (A) (A) (A) (A) (A) (A) (A) (A) (A) (A) (A)
                 (A) (A) (A) (A) (A) (A) (A) (A) (A) (A) (A) (A)
                 (A) (A) (A) (A) (A) (A) (A) (A) (A) (A) (A) (A)
                 (A) (A) (A) (A) (A) (A) (A) (A) (A) (A) (A) (A)
                 (A) (A) (A) (A) (A) (A) (A) (A) (A) (A) (A) (A)
                 (A) (A) (A) (A) (A) (A) (A) (A) (A) (A) (A) (A)
                 (A) (A) (A) (A) (A) (A) (A) (A) (A) (A) (A) (A)
                 (A) (A) (A) (A) (A) (A) (A) (A) (A) (A) (A) (A)
                 (A) (A) (A) (A) (A) (A) (A) (A) (A) (A) (A) (A)
                 (A) (A) (A) (A) (A) (A) (A) (A) (A) (A) (A) (A)
                 (A) (A) (A) (A) (A) (A) (A) (A) (A) (A) (A) (A)
                 (A) (A) (A) (A) (A) (A) (A) (A) (A) (A) (A) (A)
                 (A) (A) (A) (A) (A) (A) (A) (A) (A) (A) (A) (A)
                 (A) (A) (A) (A) (A) (A) (A) (A) (A) (A) (A) (A)
                 (A) (A) (A) (A) (A) (A) (A) (A) (A) (A) (A) (A)
                 (A) (A) (A) (A) (A) (A) (A) (A) (A) (A) (A) (A)
                 (A) (A) (A) (A) (A) (A) (A) (A) (A) (A) (A) (A)
                 (A) (A) (A) (A) (A) (A) (A) (A) (A) (A) (A) (A)
                 (A) (A) (A) (A) (A) (A) (A) (A) (A) (A) (A) (A)
                 (A) (A) (A) (A) (A) (A) (A) (A) (A) (A) (A) (A)
                 (A) (A) (A) (A) (A) (A) (A) (A) (A) (A) (A) (A)
                 (A) (A) (A) (A) (A) (A) (A) (A) (A) (A) (A) (A)
                 (A) (A) (A) (A) (A) (A) (A) (A) (A) (A) (A) (A)
                 (A) (A) (A) (A) (A) (A) (A) (A) (A) (A) (A) (A)
                 (A) (A) (A) (A) (A) (A) (A) (A) (A) (A) (A) (A)
                 (A) (A) (A) (A) (A) (A) (A) (A) (A) (A) (A) (A)
                 (A) (A) (A) (A) (A) (A) (A) (A) (A) (A) (A) (A)
                 (A) (A) (A) (A) (A) (A) (A) (A) (A) (A) (A) (A)
                 (A) (A) (A) (A) (A) (A) (A) (A) (A) (A) (A) (A)
                 (A) (A) (A) (A) (A) (A) (A) (A) (A) (A) (A) (A)
                 (A) (A) (A) (A) (A) (A) (A) (A) (A) (A) (A) (A)
                 (A) (A) (A) (A) (A) (A) (A) (A) (A) (A) (A) (A)
                 (A) (A) (A) (A) (A) (A) (A) (A) (A) (A) (A) (A)
                 (A) (A) (A) (A) (A) (A) (A) (A) (A) (A) (A) (A)
                 (A) (A) (A) (A) (A) (A) (A) (A) (A) (A) (A) (A)
                 (A) (A) (A) (A) (A) (A) (A) (A) (A) (A) (A) (A)
                 (A) (A) (A) (A) (A) (A) (A) (A) (A) (A) (A) (A)
                 (A) (A) (A) (A) (A) (A) (A) (A) (A) (A) (A) (A)
                 (A) (A) (A) (A) (A) (A) (A) (A) (A) (A) (A) (A)
                 (A) (A) (A) (A) (A) (A) (A) (A) (A) (A) (A) (A)
                 (A) (A) (A) (A) (A) (A) (A) (A) (A) (A) (A) (A)
                 (A) (A) (A) (A) (A) (A) (A) (A) (A) (A) (A) (A)
                 (A) (A) (A) (A) (A) (A) (A) (A) (A) (A) (A) (A)
                 (A) (A) (A) (A) (A) (A) (A) (A) (A) (A) (A) (A)
                 (A) (A) (A) (A) (A) (A) (A) (A) (A) (A) (A) (A)
                 (A) (A) (A) (A) (A) (A) (A) (A) (A) (A) (A) (A)
                 (A) (A) (A) (A) (A) (A) (A) (A) (A) (A) (A) (A)
                 (A) (A) (A) (A) (A) (A) (A) (A) (A) (A) (A) (A)
                 (A) (A) (A) (A) (A) (A) (A) (A) (A) (A) (A) (A)
                 (A) (A) (A) (A) (A) (A) (A) (A) (A) (A) (A) (A)
                 (A) (A) (A) (A) (A) (A) (A) (A) (A) (A) (A) (A)
                 (A) (A) (A) (A) (A) (A) (A) (A) (A) (A) (A) (A)
                 (A) (A) (A) (A) (A) (A) (A) (A) (A) (A) (A) (A)
                 (A) (A) (A) (A) (A) (A) (A) (A) (A) (A) (A) (A)
                 (A) (A) (A) (A) (A) (A) (A) (A) (A) (A) (A) (A)
                 (A) (A) (A) (A) (A) (A) (A) (A) (A) (A) (A) (A)
                 (A) (A) (A) (A) (A) (A) (A) (A) (A) (A) (A) (A)
                 (A) (A) (A) (A) (A) (A) (A) (A) (A) (A) (A) (A)
                 (A) (A) (A) (A) (A) (A) (A) (A) (A) (A) (A) (A)
                 (A) (A) (A) (A) (A) (A) (A) (A) (A) (A) (A) (A)
                 (A) (A) (A) (A) (A) (A) (A) (A) (A) (A) (A) (A)
                 (A) (A) (A) (A) (A) (A) (A) (A) (A) (A) (A) (A)
                 (A) (A) (A) (A) (A) (A) (A) (A) (A) (A) (A) (A)
                 (A) (A) (A) (A) (A) (A) (A) (A) (A) (A) (A) (A)
                 (A) (A) (A) (A) (A) (A) (A) (A) (A) (A) (A) (A)
                 (A) (A) (A) (A) (A) (A) (A) (A) (A) (A) (A) (A)
                 (A) (A) (A) (A) (A) (A) (A) (A) (A) (A) (A) (A)
                 (A) (A) (A) (A) (A) (A) (A) (A) (A) (A) (A) (A)
                 (A) (A) (A) (A) (A) (A) (A) (A) (A) (A) (A) (A)
                 (A) (A) (A) (A) (A) (A) (A) (A) (A) (A) (A) (A)
                 (A) (A) (A) (A) (A) (A) (A) (A) (A) (A) (A) (A)
                 (A) (A) (A) (A) (A) (A) (A) (A) (A) (A) (A) (A)
                 (A) (A) (A) (A) (A) (A) (A) (A) (A) (A) (A) (A)
                 (A) (A) (A) (A) (A) (A) (A) (A) (A) (A) (A) (A)
                 (A) (A) (A) (A) (A) (A) (A) (A) (A) (A) (A) (A)
                 (A) (A) (A) (A) (A) (A) (A) (A) (A) (A) (A) (A)
                 (A) (A) (A) (A) (A) (A) (A) (A) (A) (A) (A) (A)
                 (A) (A) (A) (A) (A) (A) (A) (A) (A) (A) (A) (A)
                 (A) (A) (A) (A) (A) (A) (A) (A) (A) (A) (A) (A)
                 (A) (A) (A) (A) (A) (A) (A) (A) (A) (A) (A) (A)
    20 initial guesses have been made.
 Convergence on wavefunction:    0.001000000000000
 Davidson Disk Diagonalization:  ConvIn= 1.00D-03 SkipCon=T Conv= 1.00D-03.
 Max sub-space:  2000 roots to seek:    20 dimension of matrix:       549360
 Iteration     1 Dimension    20 NMult     0 NNew     20
 CISAX will form    20 AO SS matrices at one time.
 NMat=    20 NSing=    20 JSym2X= 0.
 FoFJK:  IHMeth= 1 ICntrl=       0 DoSepK=T KAlg= 0 I1Cent=           0 FoldK=F
 IRaf=         1 NMat=      40 IRICut=       1 DoRegI=T DoRafI=F ISym2E= 0 IDoP0=3 IntGTp=3.
 FoFCou: FMM=T IPFlag=           0 FMFlag=      100000 FMFlg1=        2001
         NFxFlg=           0 DoJE=F BraDBF=F KetDBF=F FulRan=T
         wScrn=  0.000000 ICntrl=       500 IOpCl=  0 I1Cent=           0 NGrid=           0
         NMat0=   20 NMatS0=     20 NMatT0=    0 NMatD0=   20 NMtDS0=    0 NMtDT0=    0
 Symmetry not used in FoFCou.
 FMM levels:  10  Number of levels for PrismC:   9
 New state      1 was old state      7
 New state      2 was old state      6
 New state      3 was old state      1
 New state      4 was old state      2
 New state      5 was old state      3
 Excitation Energies [eV] at current iteration:
 Root      1 :     2.613194600162339
 Root      2 :     2.618998693010641
 Root      3 :     2.651799946508112
 Root      4 :     2.657511028702377
 Root      5 :     2.713795756357750
 Root      6 :     2.735419405343495
 Root      7 :     3.446044774309903
 Root      8 :     3.536238955752288
 Root      9 :     3.625810781404026
 Root     10 :     3.670525307207809
 Root     11 :     3.739556051916888
 Root     12 :     3.757226316810498
 Root     13 :     4.288885347802852
 Root     14 :     4.321874355400596
 Root     15 :     4.557355488633896
 Root     16 :     4.642947329502326
 Root     17 :     4.876803345415082
 Root     18 :     4.904035740728522
 Root     19 :     4.960053811787286
 Root     20 :     4.991477693029837
 Iteration     2 Dimension    30 NMult    20 NNew     10
 CISAX will form    10 AO SS matrices at one time.
 NMat=    10 NSing=    10 JSym2X= 0.
 New state      1 was old state      4
 Root      1 not converged, maximum delta is    0.147485986171405
 New state      2 was old state      5
 Root      2 not converged, maximum delta is    0.153773371439519
 New state      3 was old state      2
 Root      3 not converged, maximum delta is    0.423773517550852
 New state      4 was old state      1
 Root      4 not converged, maximum delta is    0.409555276121267
 New state      5 was old state      3
 Root      5 not converged, maximum delta is    0.012975808007836
 Excitation Energies [eV] at current iteration:
 Root      1 :     1.790197670903142   Change is   -0.867313357799235
 Root      2 :     1.817568557206623   Change is   -0.896227199151126
 Root      3 :     2.234337839254469   Change is   -0.384660853756172
 Root      4 :     2.240336695017980   Change is   -0.372857905144359
 Root      5 :     2.650349737577216   Change is   -0.001450208930897
 Iteration     3 Dimension    40 NMult    30 NNew     10
 CISAX will form    10 AO SS matrices at one time.
 NMat=    10 NSing=    10 JSym2X= 0.
 Root      1 not converged, maximum delta is    0.055007576615097
 Root      2 not converged, maximum delta is    0.055881322298509
 Root      3 not converged, maximum delta is    0.074157815649425
 Root      4 not converged, maximum delta is    0.073797148664516
 Root      5 has converged.
 Excitation Energies [eV] at current iteration:
 Root      1 :     1.683778136856711   Change is   -0.106419534046431
 Root      2 :     1.708623071435442   Change is   -0.108945485771181
 Root      3 :     2.193193465414220   Change is   -0.041144373840249
 Root      4 :     2.201429519779402   Change is   -0.038907175238578
 Root      5 :     2.650346175394658   Change is   -0.000003562182557
 Iteration     4 Dimension    48 NMult    40 NNew      8
 CISAX will form     8 AO SS matrices at one time.
 NMat=     8 NSing=     8 JSym2X= 0.
 Root      1 not converged, maximum delta is    0.010546224268454
 Root      2 not converged, maximum delta is    0.010364843823197
 Root      3 not converged, maximum delta is    0.011928286410018
 Root      4 not converged, maximum delta is    0.011803388815063
 Root      5 has converged.
 Excitation Energies [eV] at current iteration:
 Root      1 :     1.667074552678609   Change is   -0.016703584178102
 Root      2 :     1.691740595609683   Change is   -0.016882475825758
 Root      3 :     2.185927602837658   Change is   -0.007265862576562
 Root      4 :     2.194653322194503   Change is   -0.006776197584899
 Root      5 :     2.650346169300031   Change is   -0.000000006094627
 Iteration     5 Dimension    56 NMult    48 NNew      8
 CISAX will form     8 AO SS matrices at one time.
 NMat=     8 NSing=     8 JSym2X= 0.
 Root      1 not converged, maximum delta is    0.001732127801110
 Root      2 not converged, maximum delta is    0.001748043733283
 Root      3 not converged, maximum delta is    0.002449542128664
 Root      4 not converged, maximum delta is    0.002306363867695
 Root      5 has converged.
 Excitation Energies [eV] at current iteration:
 Root      1 :     1.665320520539707   Change is   -0.001754032138902
 Root      2 :     1.689945251467463   Change is   -0.001795344142220
 Root      3 :     2.185087770513767   Change is   -0.000839832323891
 Root      4 :     2.193878713091294   Change is   -0.000774609103209
 Root      5 :     2.650346165347141   Change is   -0.000000003952890
 Iteration     6 Dimension    64 NMult    56 NNew      8
 CISAX will form     8 AO SS matrices at one time.
 NMat=     8 NSing=     8 JSym2X= 0.
 Root      1 not converged, maximum delta is    0.001061275145145
 Root      2 not converged, maximum delta is    0.001074308865608
 Root      3 not converged, maximum delta is    0.001039806047200
 Root      4 has converged.
 Root      5 has converged.
 Excitation Energies [eV] at current iteration:
 Root      1 :     1.665071601996696   Change is   -0.000248918543011
 Root      2 :     1.689686946964304   Change is   -0.000258304503159
 Root      3 :     2.184959918129969   Change is   -0.000127852383798
 Root      4 :     2.193761136754381   Change is   -0.000117576336913
 Root      5 :     2.650346164208452   Change is   -0.000000001138689
 Iteration     7 Dimension    70 NMult    64 NNew      6
 CISAX will form     6 AO SS matrices at one time.
 NMat=     6 NSing=     6 JSym2X= 0.
 Root      1 has converged.
 Root      2 has converged.
 Root      3 has converged.
 Root      4 has converged.
 Root      5 has converged.
 Excitation Energies [eV] at current iteration:
 Root      1 :     1.665047343093490   Change is   -0.000024258903206
[...]
 Alpha virt. eigenvalues --    1.85184   1.85281   1.85381   1.85527   1.85547
 Alpha virt. eigenvalues --    1.85870   1.85964   1.86358   1.86448   1.86572
 Alpha virt. eigenvalues --    1.86710   1.86784   1.86896   1.87028   1.87107
 Alpha virt. eigenvalues --    1.87443   1.87543   1.87689   1.87831   1.87872
 Alpha virt. eigenvalues --    1.88043   1.88084   1.88237   1.88546   1.88630
 Alpha virt. eigenvalues --    1.88835   1.88993   1.89117   1.89151   1.89647
 Alpha virt. eigenvalues --    1.89712   1.89764   1.89933   1.90130   1.90246
 Alpha virt. eigenvalues --    1.90755   1.90961   1.91353   1.91446   1.91506
 Alpha virt. eigenvalues --    1.91642   1.92157   1.92242   1.92629   1.92716
 Alpha virt. eigenvalues --    1.92987   1.93218   1.93336   1.93578   1.94270
 Alpha virt. eigenvalues --    1.94378   1.94701   1.94883   1.95466   1.95675
 Alpha virt. eigenvalues --    1.95731   1.95871   1.95999   1.96110   1.96142
 Alpha virt. eigenvalues --    1.96231   1.96549   1.96591   1.96907   1.96991
 Alpha virt. eigenvalues --    1.97447   1.97606   1.97828   1.97865   1.98174
 Alpha virt. eigenvalues --    1.98226   1.98405   1.98686   1.99138   1.99146
 Alpha virt. eigenvalues --    1.99830   1.99980   2.00660   2.00796   2.01005
 Alpha virt. eigenvalues --    2.01154   2.01487   2.01582   2.01655   2.01668
 Alpha virt. eigenvalues --    2.01730   2.01875   2.02771   2.02792   2.03222
 Alpha virt. eigenvalues --    2.03236   2.03414   2.03433   2.03490   2.03580
 Alpha virt. eigenvalues --    2.04040   2.04089   2.04968   2.05039   2.05525
 Alpha virt. eigenvalues --    2.05689   2.06095   2.06338   2.06913   2.07084
 Alpha virt. eigenvalues --    2.07187   2.07423   2.08604   2.08608   2.08992
 Alpha virt. eigenvalues --    2.09062   2.09599   2.09666   2.10767   2.11112
 Alpha virt. eigenvalues --    2.11189   2.11468   2.11542   2.11579   2.11738
 Alpha virt. eigenvalues --    2.11914   2.12470   2.12514   2.12813   2.12836
 Alpha virt. eigenvalues --    2.12863   2.12932   2.13673   2.13773   2.14137
 Alpha virt. eigenvalues --    2.14341   2.15343   2.15464   2.15931   2.16144
 Alpha virt. eigenvalues --    2.16524   2.16654   2.16762   2.17245   2.17420
 Alpha virt. eigenvalues --    2.17712   2.17726   2.17990   2.18062   2.18079
 Alpha virt. eigenvalues --    2.18337   2.18720   2.18874   2.19286   2.19647
 Alpha virt. eigenvalues --    2.19871   2.20046   2.20214   2.20307   2.20486
 Alpha virt. eigenvalues --    2.21141   2.21249   2.21683   2.21751   2.21824
 Alpha virt. eigenvalues --    2.21931   2.22681   2.22757   2.23308   2.23417
 Alpha virt. eigenvalues --    2.24400   2.24487   2.24945   2.25066   2.26305
 Alpha virt. eigenvalues --    2.26494   2.26782   2.27066   2.27108   2.27259
 Alpha virt. eigenvalues --    2.28141   2.28362   2.29272   2.29496   2.29741
 Alpha virt. eigenvalues --    2.29934   2.30458   2.30666   2.30863   2.31082
 Alpha virt. eigenvalues --    2.31189   2.31272   2.32125   2.32304   2.33142
 Alpha virt. eigenvalues --    2.33280   2.33457   2.33544   2.34131   2.34206
 Alpha virt. eigenvalues --    2.35348   2.35375   2.35804   2.35955   2.36345
 Alpha virt. eigenvalues --    2.36383   2.36520   2.36633   2.37647   2.37752
 Alpha virt. eigenvalues --    2.38273   2.38430   2.38817   2.38863   2.39618
 Alpha virt. eigenvalues --    2.39722   2.40171   2.40335   2.40489   2.40869
 Alpha virt. eigenvalues --    2.41255   2.41268   2.41676   2.41750   2.42045
 Alpha virt. eigenvalues --    2.42179   2.42887   2.42936   2.43097   2.43544
 Alpha virt. eigenvalues --    2.44019   2.44182   2.44739   2.44856   2.44907
 Alpha virt. eigenvalues --    2.45046   2.45548   2.45629   2.46322   2.46325
 Alpha virt. eigenvalues --    2.46483   2.46552   2.46809   2.46850   2.47251
 Alpha virt. eigenvalues --    2.47447   2.47715   2.47944   2.49316   2.49451
 Alpha virt. eigenvalues --    2.49951   2.50052   2.50496   2.50543   2.51123
 Alpha virt. eigenvalues --    2.51313   2.51652   2.51891   2.52428   2.52442
 Alpha virt. eigenvalues --    2.52811   2.53204   2.53920   2.54018   2.54175
 Alpha virt. eigenvalues --    2.54326   2.54787   2.54868   2.55531   2.55719
 Alpha virt. eigenvalues --    2.57874   2.58123   2.58643   2.58957   2.60210
 Alpha virt. eigenvalues --    2.60336   2.60615   2.60957   2.61716   2.61867
 Alpha virt. eigenvalues --    2.62472   2.62534   2.62955   2.63177   2.63940
 Alpha virt. eigenvalues --    2.64227   2.64253   2.64495   2.65074   2.65149
 Alpha virt. eigenvalues --    2.65792   2.65891   2.66762   2.66868   2.66909
 Alpha virt. eigenvalues --    2.67096   2.67903   2.68026   2.68856   2.68859
 Alpha virt. eigenvalues --    2.69025   2.69062   2.69372   2.69633   2.69987
 Alpha virt. eigenvalues --    2.70185   2.70973   2.71100   2.71926   2.72056
 Alpha virt. eigenvalues --    2.72527   2.72657   2.72767   2.72833   2.73259
 Alpha virt. eigenvalues --    2.73339   2.73493   2.73534   2.74508   2.74551
 Alpha virt. eigenvalues --    2.74976   2.75094   2.76567   2.76584   2.77108
 Alpha virt. eigenvalues --    2.77233   2.77467   2.77630   2.78215   2.78318
 Alpha virt. eigenvalues --    2.78729   2.78733   2.79137   2.79183   2.80281
 Alpha virt. eigenvalues --    2.80360   2.80593   2.80714   2.81120   2.81189
 Alpha virt. eigenvalues --    2.81937   2.82018   2.82337   2.82379   2.83756
 Alpha virt. eigenvalues --    2.83783   2.83872   2.83937   2.84545   2.84573
 Alpha virt. eigenvalues --    2.84875   2.84937   2.85677   2.85717   2.86691
 Alpha virt. eigenvalues --    2.86994   2.87194   2.87609   2.88176   2.88256
 Alpha virt. eigenvalues --    2.88500   2.88667   2.88911   2.88933   2.90487
 Alpha virt. eigenvalues --    2.90688   2.91116   2.91177   2.93155   2.93349
 Alpha virt. eigenvalues --    2.93805   2.94197   2.94558   2.94608   2.95365
 Alpha virt. eigenvalues --    2.95485   2.95849   2.96199   2.96401   2.96424
 Alpha virt. eigenvalues --    2.96889   2.97175   2.97819   2.98053   2.98223
 Alpha virt. eigenvalues --    2.98358   2.98371   2.98601   2.98602   2.98833
 Alpha virt. eigenvalues --    2.98890   2.98969   2.99571   2.99823   3.00035
 Alpha virt. eigenvalues --    3.00039   3.00222   3.00355   3.00461   3.01014
 Alpha virt. eigenvalues --    3.01940   3.01965   3.02052   3.02126   3.02748
 Alpha virt. eigenvalues --    3.02828   3.02975   3.03325   3.03340   3.03731
 Alpha virt. eigenvalues --    3.04081   3.04145   3.04444   3.04463   3.04529
 Alpha virt. eigenvalues --    3.04789   3.05300   3.05385   3.06114   3.06210
 Alpha virt. eigenvalues --    3.06803   3.06967   3.07944   3.08152   3.09394
 Alpha virt. eigenvalues --    3.09410   3.09696   3.10435   3.10443   3.10758
 Alpha virt. eigenvalues --    3.11331   3.11539   3.11943   3.11953   3.12139
 Alpha virt. eigenvalues --    3.12320   3.13285   3.13635   3.13666   3.13724
 Alpha virt. eigenvalues --    3.14099   3.14486   3.15891   3.16029   3.17265
 Alpha virt. eigenvalues --    3.17555   3.17898   3.18097   3.19059   3.19136
 Alpha virt. eigenvalues --    3.22310   3.22613   3.23950   3.24469   3.24680
 Alpha virt. eigenvalues --    3.25221   3.26505   3.26690   3.27426   3.27622
 Alpha virt. eigenvalues --    3.29106   3.29235   3.31408   3.31529   3.33217
 Alpha virt. eigenvalues --    3.33421   3.40267   3.40639   3.42835   3.42839
 Alpha virt. eigenvalues --    3.48664   3.48729   3.50023   3.50313   3.50864
 Alpha virt. eigenvalues --    3.51480   3.56557   3.57036   3.59098   3.59380
 Alpha virt. eigenvalues --    3.62546   3.62842   3.66128   3.66220   3.67193
 Alpha virt. eigenvalues --    3.67553   3.73278   3.74039   3.76063   3.76701
          Condensed to atoms (all electrons):
 Mulliken charges:
               1
     1  Mg   0.838164
     2  C   -0.003011
     3  C   -0.094042
     4  C   -0.045892
     5  C   -0.064205
     6  N   -0.256781
     7  C   -0.052561
     8  C   -0.013968
     9  C   -0.087023
    10  C    0.046353
    11  C    0.104787
    12  C    0.053461
    13  C   -0.071797
    14  H    0.036094
    15  N   -0.433249
    16  C    0.168495
    17  C   -0.176985
    18  C   -0.003750
    19  C    0.148710
    20  C    0.110173
    21  C    0.012663
    22  O   -0.249329
    23  C    0.062304
    24  N   -0.341045
    25  C    0.041105
    26  C   -0.028248
    27  C   -0.023934
    28  C    0.074550
    29  C    0.076106
    30  C    0.035229
    31  C   -0.004580
    32  N   -0.310389
    33  C    0.080031
    34  C   -0.170048
    35  C    0.008388
    36  C    0.082661
    37  C    0.127370
    38  C    0.045994
    39  O   -0.188302
    40  C   -0.005264
    41  C    0.212962
    42  O   -0.257332
    43  O   -0.304754
    44  C    0.157623
    45  H   -0.017484
    46  H   -0.016615
    47  H   -0.041646
    48  H    0.001015
    49  H   -0.004010
    50  H    0.025548
    51  H    0.016489
    52  H    0.016729
    53  H    0.011158
    54  H    0.044034
    55  H    0.017961
    56  H    0.017911
    57  H    0.005797
    58  H    0.026962
    59  H    0.039886
    60  H    0.037128
    61  H    0.036286
    62  H    0.031969
    63  H    0.016576
    64  H    0.009645
    65  H    0.023433
    66  H    0.012693
    67  H    0.004825
    68  H    0.006634
    69  H    0.004718
    70  H    0.009046
    71  H    0.016897
    72  H    0.028638
    73  H    0.047452
    74  H    0.008888
    75  H    0.046181
    76  H    0.035264
    77  H    0.043140
    78  H    0.046359
    79  H    0.053756
    80  Mg   0.837842
    81  C   -0.016922
    82  C   -0.088048
    83  C   -0.045656
    84  C   -0.063972
    85  N   -0.254535
    86  C   -0.049757
    87  C   -0.015114
    88  C   -0.090506
    89  C    0.045770
    90  C    0.114453
    91  C    0.062585
    92  C   -0.077737
    93  H    0.034664
    94  N   -0.423387
    95  C    0.162834
    96  C   -0.175059
    97  C   -0.008039
    98  C    0.152031
    99  C    0.099573
   100  C    0.015248
   101  O   -0.253185
   102  C    0.061267
   103  N   -0.349977
   104  C    0.037584
   105  C   -0.019960
   106  C   -0.035060
   107  C    0.088984
   108  C    0.073177
   109  C    0.034633
   110  C   -0.007623
   111  N   -0.324206
   112  C    0.078471
   113  C   -0.162606
   114  C    0.002313
   115  C    0.096306
   116  C    0.131545
   117  C    0.042603
   118  O   -0.187758
   119  C    0.000850
   120  C    0.211192
   121  O   -0.251137
   122  O   -0.305594
   123  C    0.152093
   124  H   -0.020178
   125  H   -0.015583
   126  H   -0.039693
   127  H   -0.000715
   128  H   -0.004652
   129  H    0.022631
   130  H    0.014466
   131  H    0.015797
   132  H    0.013842
   133  H    0.037669
   134  H    0.020708
   135  H    0.019399
   136  H    0.008489
   137  H    0.025502
   138  H    0.039472
   139  H    0.037797
   140  H    0.036154
   141  H    0.033828
   142  H    0.014218
   143  H    0.013995
   144  H    0.025478
   145  H    0.011285
   146  H    0.006916
   147  H    0.006106
   148  H    0.003824
   149  H    0.010823
   150  H    0.017573
   151  H    0.029999
   152  H    0.045743
   153  H    0.008820
   154  H    0.048310
   155  H    0.035146
   156  H    0.043842
   157  H    0.049326
   158  H    0.053491
 Sum of Mulliken charges =  -0.00000
 Mulliken charges with hydrogens summed into heavy atoms:
               1
     1  Mg   0.838164
     2  C   -0.003011
     3  C   -0.111525
     4  C   -0.062506
     5  C   -0.105851
     6  N   -0.256781
     7  C   -0.052561
     8  C   -0.012953
     9  C   -0.091033
    10  C    0.046353
    11  C    0.163552
    12  C    0.108653
    13  C    0.000169
    15  N   -0.433249
    16  C    0.168495
    17  C   -0.176985
    18  C   -0.003750
    19  C    0.148710
    20  C    0.182818
    21  C    0.012663
    22  O   -0.249329
    23  C    0.167686
    24  N   -0.341045
    25  C    0.041105
    26  C   -0.011672
    27  C   -0.014289
    28  C    0.074550
    29  C    0.117058
    30  C    0.046581
    31  C    0.050001
    32  N   -0.310389
    33  C    0.080031
    34  C   -0.170048
    35  C    0.008388
    36  C    0.082661
    37  C    0.229890
    38  C    0.045994
    39  O   -0.188302
    40  C    0.030000
    41  C    0.212962
    42  O   -0.257332
    43  O   -0.304754
    44  C    0.300878
    80  Mg   0.837842
    81  C   -0.016922
    82  C   -0.108226
    83  C   -0.061239
    84  C   -0.103665
    85  N   -0.254535
    86  C   -0.049757
    87  C   -0.015828
    88  C   -0.095159
    89  C    0.045770
    90  C    0.167347
    91  C    0.114096
    92  C   -0.002966
    94  N   -0.423387
    95  C    0.162834
    96  C   -0.175059
    97  C   -0.008039
    98  C    0.152031
    99  C    0.173035
   100  C    0.015248
   101  O   -0.253185
   102  C    0.169046
   103  N   -0.349977
   104  C    0.037584
   105  C   -0.005742
   106  C   -0.021065
   107  C    0.088984
   108  C    0.116855
   109  C    0.044563
   110  C    0.050771
   111  N   -0.324206
   112  C    0.078471
   113  C   -0.162606
   114  C    0.002313
   115  C    0.096306
   116  C    0.234418
   117  C    0.042603
   118  O   -0.187758
   119  C    0.035996
   120  C    0.211192
   121  O   -0.251137
   122  O   -0.305594
   123  C    0.298752
 Electronic spatial extent (au):  <R**2>=         157737.1419
 Charge=             -0.0000 electrons
 Dipole moment (field-independent basis, Debye):
    X=              2.2178    Y=              4.1418    Z=             -7.3833  Tot=              8.7513
 Quadrupole moment (field-independent basis, Debye-Ang):
   XX=           -475.3641   YY=           -561.9562   ZZ=           -452.5107
   XY=            -15.6713   XZ=             29.1550   YZ=              4.8937
 Traceless Quadrupole moment (field-independent basis, Debye-Ang):
   XX=             21.2462   YY=            -65.3458   ZZ=             44.0996
   XY=            -15.6713   XZ=             29.1550   YZ=              4.8937
 Octapole moment (field-independent basis, Debye-Ang**2):
  XXX=            -88.9750  YYY=             15.5240  ZZZ=            -14.7297  XYY=           -178.4238
  XXY=            235.5904  XXZ=           -694.8736  XZZ=            233.0439  YZZ=             42.9660
  YYZ=           -303.2127  XYZ=            -12.5568
 Hexadecapole moment (field-independent basis, Debye-Ang**3):
 XXXX=        -150744.1692 YYYY=         -37503.9403 ZZZZ=         -20696.2631 XXXY=            -59.0001
 XXXZ=           3572.8368 YYYX=           -581.5243 YYYZ=            260.3190 ZZZX=            169.4749
 ZZZY=             41.5715 XXYY=         -33524.8432 XXZZ=         -27735.3949 YYZZ=          -8820.6573
 XXYZ=            480.9955 YYXZ=           -207.1068 ZZXY=           -308.9896
 N-N= 1.425533434367D+04 E-N=-3.799174076000D+04  KE= 4.028802062312D+03
 Leave Link  601 at Sat Sep 11 16:24:24 2021, MaxMem= 23488102400 cpu:              16.1 elap:               0.8
 (Enter /sw/apps/gaussian-16.0/g16/l9999.exe)
 1\1\GINC-BP1-COMPUTE00105\SP\RCAM-B3LYP TD-FC\def2SVP\C68H72Mg2N8O8\OF
 15641\11-Sep-2021\0\\#p cam-b3lyp/Def2SVP td=(nstates=5)\\TDDFT excite
 d states in gaussian\\0,1\Mg,0,0.,0.,0.\C,0,-0.217,-2.218,2.801\C,0,-1
 .255,2.442,2.026\C,0,-0.245,1.85,-2.564\C,0,0.146,-2.824,-2.037\N,0,-0
 .617,-0.009,2.126\C,0,-0.594,-0.908,3.105\C,0,-0.936,-0.309,4.502\C,0,
 -1.773,0.964,4.032\C,0,-1.155,1.168,2.66\C,0,-3.263,0.685,3.863\C,0,0.
 345,0.11,5.299\C,0,0.124,0.397,6.787\H,0,1.168,0.033,7.733\N,0,-0.185,
 1.961,-0.152\C,0,-0.703,2.8,0.777\C,0,-0.62,4.156,0.193\C,0,-0.187,4.0
 15,-1.225\C,0,-0.214,2.583,-1.38\C,0,-0.887,5.406,0.974\C,0,0.181,5.01
 3,-2.277\O,0,0.303,4.69,-3.508\C,0,0.31,6.414,-1.837\N,0,-0.265,-0.413
 ,-2.029\C,0,-0.279,0.569,-2.937\C,0,-0.196,0.024,-4.332\C,0,0.124,-1.5
 33,-4.18\C,0,0.086,-1.632,-2.635\C,0,-1.451,0.205,-5.197\C,0,1.373,-2.
 07,-4.923\C,0,2.626,-1.49,-4.306\N,0,0.15,-2.144,0.303\C,0,0.173,-3.13
 6,-0.688\C,0,0.173,-4.438,0.004\C,0,0.133,-4.111,1.358\C,0,0.083,-2.69
 5,1.502\C,0,0.149,-5.715,-0.623\C,0,0.096,-4.629,2.716\O,0,0.208,-5.74
 7,3.221\C,0,-0.255,-3.428,3.701\C,0,0.717,-3.482,4.848\O,0,1.931,-3.25
 5,4.669\O,0,0.038,-3.556,6.003\C,0,0.943,-3.583,7.183\H,0,-1.859,3.22,
 2.497\H,0,-0.218,2.453,-3.474\H,0,0.276,-3.747,-2.605\H,0,-1.554,-0.94
 9,5.132\H,0,-1.585,1.831,4.665\H,0,-3.484,-0.377,3.969\H,0,-3.511,1.02
 7,2.858\H,0,-3.852,1.301,4.543\H,0,0.669,1.096,4.966\H,0,1.13,-0.639,5
 .189\H,0,-0.844,0.026,7.125\H,0,0.062,1.477,6.921\H,0,-1.344,5.186,1.9
 38\H,0,-1.651,5.963,0.432\H,0,0.007,6.02,1.084\H,0,-0.635,6.744,-1.405
 \H,0,0.665,6.97,-2.704\H,0,1.048,6.466,-1.036\H,0,0.608,0.501,-4.891\H
 ,0,-0.692,-2.156,-4.547\H,0,-1.267,0.74,-6.129\H,0,-2.204,0.714,-4.596
 \H,0,-1.967,-0.72,-5.453\H,0,1.356,-1.759,-5.967\H,0,1.452,-3.157,-4.9
 02\H,0,2.714,-0.522,-4.798\H,0,3.487,-2.121,-4.529\H,0,2.495,-1.303,-3
 .24\H,0,0.867,-6.333,-0.084\H,0,0.404,-5.642,-1.68\H,0,-0.891,-5.999,-
 0.463\H,0,-1.283,-3.581,4.028\H,0,0.698,-4.478,7.755\H,0,0.833,-2.619,
 7.68\H,0,2.,-3.754,6.976\Mg,0,13.1482,1.18714,0.99711\C,0,15.05371,-0.
 93159,3.17864\C,0,14.05101,3.80187,2.99279\C,0,11.12176,3.00323,-0.634
 69\C,0,11.50202,-1.67531,-0.11741\N,0,14.39522,1.29492,2.82073\C,0,15.
 11792,0.43485,3.52239\C,0,16.01926,1.08556,4.60577\C,0,15.19244,2.4452
 2,4.82155\C,0,14.52805,2.54753,3.45013\C,0,14.10174,2.3259,5.87296\C,0
 ,17.47039,1.37262,4.08248\C,0,18.48934,1.71964,5.17018\H,0,19.86597,1.
 26089,5.00616\N,0,13.03146,3.1623,0.84315\C,0,13.46893,4.07531,1.73551
 \C,0,13.12927,5.38876,1.16661\C,0,12.30885,5.17242,-0.05602\C,0,12.100
 15,3.7402,0.0166\C,0,13.64283,6.67944,1.73568\C,0,11.78641,6.10269,-1.
 10857\O,0,10.89522,5.73256,-1.95214\C,0,12.2802,7.48677,-1.06386\N,0,1
 1.4011,0.76295,-0.04694\C,0,10.74123,1.72783,-0.71139\C,0,9.67745,1.14
 228,-1.6091\C,0,9.92277,-0.43794,-1.59177\C,0,11.08091,-0.50307,-0.572
 03\C,0,8.23228,1.4371,-1.20791\C,0,10.10837,-1.13645,-2.96666\C,0,11.4
 0358,-0.68663,-3.60342\N,0,13.36005,-0.94283,1.29106\C,0,12.54776,-1.9
 6349,0.7502\C,0,13.01295,-3.2416,1.32681\C,0,14.0569,-2.87043,2.18756\
 C,0,14.21682,-1.45854,2.16539\C,0,12.44954,-4.52352,1.07116\C,0,15.052
 97,-3.35095,3.11795\O,0,15.4461,-4.46145,3.4729\C,0,15.65931,-2.10532,
 3.89713\C,0,17.15778,-2.23578,3.88714\O,0,17.79129,-2.16472,2.81933\O,
 0,17.61124,-2.20471,5.15354\C,0,19.09342,-2.31975,5.19505\H,0,14.08643
 ,4.65088,3.67602\H,0,10.46634,3.57215,-1.29819\H,0,11.10483,-2.62237,-
 0.48889\H,0,16.07949,0.53524,5.53706\H,0,15.85672,3.28938,4.98735\H,0,
 13.98467,1.30951,6.21848\H,0,13.19376,2.67007,5.39529\H,0,14.29251,3.0
 2209,6.69471\H,0,17.46817,2.31491,3.5196\H,0,17.83343,0.55104,3.49611\
 H,0,18.12005,1.47598,6.17377\H,0,18.62098,2.80423,5.18904\H,0,14.08437
 ,6.53352,2.72924\H,0,12.77156,7.31816,1.91678\H,0,14.32538,7.19658,1.0
 5793\H,0,12.03649,7.92616,-0.0995\H,0,11.86352,7.97437,-1.94733\H,0,13
 .37349,7.47065,-1.13511\H,0,9.78626,1.50368,-2.6243\H,0,9.07644,-0.976
 75,-1.14094\H,0,7.65076,1.93576,-2.00619\H,0,8.24366,2.04227,-0.31115\
 H,0,7.65403,0.56976,-0.89398\H,0,9.30814,-0.84416,-3.65103\H,0,10.1001
 7,-2.21959,-2.90545\H,0,11.12892,0.25929,-4.07975\H,0,11.74247,-1.4145
 7,-4.33779\H,0,12.16025,-0.46474,-2.84193\H,0,13.27781,-5.20503,0.9296
 3\H,0,11.79631,-4.50441,0.20127\H,0,11.89304,-4.68055,1.99902\H,0,15.2
 5358,-2.12299,4.90938\H,0,19.32989,-3.16965,5.8427\H,0,19.46139,-1.326
 24,5.51331\H,0,19.5999,-2.60377,4.28003\\Version=ES64L-G16RevA.03\Stat
 e=1-A\HF=-4069.8117542\RMSD=5.172e-09\PG=C01 [X(C68H72Mg2N8O8)]\\@


 THE MOST SERIOUS THREAT TO THE SURVIVAL OF MANKIND IS NOT NOW
 IGNORANCE IN THE TRADITIONAL SENSE,
 BUT A MORALLY NEUTRAL, AN INSENSITIVE OR INHIBITED HUMAN INTELLIGENCE.

                     -- MARGO JEFFERSON IN NEWSWEEK, SEPTEMBER 2, 1974
 Job cpu time:       0 days 13 hours 49 minutes 26.0 seconds.
 Elapsed time:       0 days  0 hours 35 minutes 11.0 seconds.
 File lengths (MBytes):  RWF=  13225 Int=      0 D2E=      0 Chk=    574 Scr=      1
 Normal termination of Gaussian 16 at Sat Sep 11 16:24:24 2021.
