 Entering Gaussian System, Link 0=g16
 Initial command:
 /sw/apps/gaussian-16.0/g16/l1.exe "/tmp/Gau-109064.inp" -scrdir="/tmp/"
 Entering Link 1 = /sw/apps/gaussian-16.0/g16/l1.exe PID=    109065.
  
 Copyright (c) 1988,1990,1992,1993,1995,1998,2003,2009,2016,
            Gaussian, Inc.  All Rights Reserved.
  
 This is part of the Gaussian(R) 16 program.  It is based on
 the Gaussian(R) 09 system (copyright 2009, Gaussian, Inc.),
 the Gaussian(R) 03 system (copyright 2003, Gaussian, Inc.),
 the Gaussian(R) 98 system (copyright 1998, Gaussian, Inc.),
 the Gaussian(R) 94 system (copyright 1995, Gaussian, Inc.),
 the Gaussian 92(TM) system (copyright 1992, Gaussian, Inc.),
 the Gaussian 90(TM) system (copyright 1990, Gaussian, Inc.),
 the Gaussian 88(TM) system (copyright 1988, Gaussian, Inc.),
 the Gaussian 86(TM) system (copyright 1986, Carnegie Mellon
 University), and the Gaussian 82(TM) system (copyright 1983,
 Carnegie Mellon University). Gaussian is a federally registered
 trademark of Gaussian, Inc.
  
 This software contains proprietary and confidential information,
 including trade secrets, belonging to Gaussian, Inc.
  
 This software is provided under written license and may be
 used, copied, transmitted, or stored only in accord with that
 written license.
  
 The following legend is applicable only to US Government
 contracts under FAR:
  
                    RESTRICTED RIGHTS LEGEND
  
 Use, reproduction and disclosure by the US Government is
 subject to restrictions as set forth in subparagraphs (a)
 and (c) of the Commercial Computer Software - Restricted
 Rights clause in FAR 52.227-19.
  
 Gaussian, Inc.
 340 Quinnipiac St., Bldg. 40, Wallingford CT 06492
  
  
 ---------------------------------------------------------------
 Warning -- This program may not be used in any manner that
 competes with the business of Gaussian, Inc. or will provide
 assistance to any competitor of Gaussian, Inc.  The licensee
 of this program is prohibited from giving any competitor of
 Gaussian, Inc. access to this program.  By using this program,
 the user acknowledges that Gaussian, Inc. is engaged in the
 business of creating and licensing software in the field of
 computational chemistry and represents and warrants to the
 licensee that it is not a competitor of Gaussian, Inc. and that
 it will not use this program in any manner prohibited above.
 ---------------------------------------------------------------
  

 Cite this work as:
 Gaussian 16, Revision A.03,
 M. J. Frisch, G. W. Trucks, H. B. Schlegel, G. E. Scuseria, 
 M. A. Robb, J. R. Cheeseman, G. Scalmani, V. Barone, 
 G. A. Petersson, H. Nakatsuji, X. Li, M. Caricato, A. V. Marenich, 
 J. Bloino, B. G. Janesko, R. Gomperts, B. Mennucci, H. P. Hratchian, 
 J. V. Ortiz, A. F. Izmaylov, J. L. Sonnenberg, D. Williams-Young, 
 F. Ding, F. Lipparini, F. Egidi, J. Goings, B. Peng, A. Petrone, 
 T. Henderson, D. Ranasinghe, V. G. Zakrzewski, J. Gao, N. Rega, 
 G. Zheng, W. Liang, M. Hada, M. Ehara, K. Toyota, R. Fukuda, 
 J. Hasegawa, M. Ishida, T. Nakajima, Y. Honda, O. Kitao, H. Nakai, 
 T. Vreven, K. Throssell, J. A. Montgomery, Jr., J. E. Peralta, 
 F. Ogliaro, M. J. Bearpark, J. J. Heyd, E. N. Brothers, K. N. Kudin, 
 V. N. Staroverov, T. A. Keith, R. Kobayashi, J. Normand, 
 K. Raghavachari, A. P. Rendell, J. C. Burant, S. S. Iyengar, 
 J. Tomasi, M. Cossi, J. M. Millam, M. Klene, C. Adamo, R. Cammi, 
 J. W. Ochterski, R. L. Martin, K. Morokuma, O. Farkas, 
 J. B. Foresman, and D. J. Fox, Gaussian, Inc., Wallingford CT, 2016.
 
 ******************************************
 Gaussian 16:  ES64L-G16RevA.03 25-Dec-2016
                10-Sep-2021 
 ******************************************
 %nproc=24
 Will use up to   24 processors via shared memory.
 %mem=175gb
 -----------------------------------
 #p cam-b3lyp/Def2SVP td=(nstates=5)
 -----------------------------------
 1/38=1,172=1/1;
 2/12=2,17=6,18=5,40=1/2;
 3/5=43,7=101,11=9,25=1,30=1,74=-40/1,2,3,8;
 4//1;
 5/5=2,38=5/2;
 8/6=1,10=1,108=5/1;
 9/41=5,42=1,70=2/14;
 6/7=2,8=2,9=2,10=2/1;
 99/5=1,9=1/99;
 Leave Link    1 at Fri Sep 10 18:02:56 2021, MaxMem= 23488102400 cpu:               0.6 elap:               0.0
 (Enter /sw/apps/gaussian-16.0/g16/l101.exe)
 --------------------------------
 TDDFT excited states in gaussian
 --------------------------------
 Symbolic Z-matrix:
 Charge =  0 Multiplicity = 1
 Mg                    0.        0.        0. 
 C                    -0.217    -2.218     2.801 
 C                    -1.255     2.442     2.026 
 C                    -0.245     1.85     -2.564 
 C                     0.146    -2.824    -2.037 
 N                    -0.617    -0.009     2.126 
 C                    -0.594    -0.908     3.105 
 C                    -0.936    -0.309     4.502 
 C                    -1.773     0.964     4.032 
 C                    -1.155     1.168     2.66 
 C                    -3.263     0.685     3.863 
 C                     0.345     0.11      5.299 
 C                     0.124     0.397     6.787 
 H                     1.168     0.033     7.733 
 N                    -0.185     1.961    -0.152 
 C                    -0.703     2.8       0.777 
 C                    -0.62      4.156     0.193 
 C                    -0.187     4.015    -1.225 
 C                    -0.214     2.583    -1.38 
 C                    -0.887     5.406     0.974 
 C                     0.181     5.013    -2.277 
 O                     0.303     4.69     -3.508 
 C                     0.31      6.414    -1.837 
 N                    -0.265    -0.413    -2.029 
 C                    -0.279     0.569    -2.937 
 C                    -0.196     0.024    -4.332 
 C                     0.124    -1.533    -4.18 
 C                     0.086    -1.632    -2.635 
 C                    -1.451     0.205    -5.197 
 C                     1.373    -2.07     -4.923 
 C                     2.626    -1.49     -4.306 
 N                     0.15     -2.144     0.303 
 C                     0.173    -3.136    -0.688 
 C                     0.173    -4.438     0.004 
 C                     0.133    -4.111     1.358 
 C                     0.083    -2.695     1.502 
 C                     0.149    -5.715    -0.623 
 C                     0.096    -4.629     2.716 
 O                     0.208    -5.747     3.221 
 C                    -0.255    -3.428     3.701 
 C                     0.717    -3.482     4.848 
 O                     1.931    -3.255     4.669 
 O                     0.038    -3.556     6.003 
 C                     0.943    -3.583     7.183 
 H                    -1.859     3.22      2.497 
 H                    -0.218     2.453    -3.474 
 H                     0.276    -3.747    -2.605 
 H                    -1.554    -0.949     5.132 
 H                    -1.585     1.831     4.665 
 H                    -3.484    -0.377     3.969 
 H                    -3.511     1.027     2.858 
 H                    -3.852     1.301     4.543 
 H                     0.669     1.096     4.966 
 H                     1.13     -0.639     5.189 
 H                    -0.844     0.026     7.125 
 H                     0.062     1.477     6.921 
 H                    -1.344     5.186     1.938 
 H                    -1.651     5.963     0.432 
 H                     0.007     6.02      1.084 
 H                    -0.635     6.744    -1.405 
 H                     0.665     6.97     -2.704 
 H                     1.048     6.466    -1.036 
 H                     0.608     0.501    -4.891 
 H                    -0.692    -2.156    -4.547 
 H                    -1.267     0.74     -6.129 
 H                    -2.204     0.714    -4.596 
 H                    -1.967    -0.72     -5.453 
 H                     1.356    -1.759    -5.967 
 H                     1.452    -3.157    -4.902 
 H                     2.714    -0.522    -4.798 
 H                     3.487    -2.121    -4.529 
 H                     2.495    -1.303    -3.24 
 H                     0.867    -6.333    -0.084 
 H                     0.404    -5.642    -1.68 
 H                    -0.891    -5.999    -0.463 
 H                    -1.283    -3.581     4.028 
 H                     0.698    -4.478     7.755 
 H                     0.833    -2.619     7.68 
 H                     2.       -3.754     6.976 
 Mg                    10.51776   0.95353   0.79499 
 C                     9.89391   3.63329   3.09906 
 C                     9.63161   3.09692  -1.70605 
 C                     10.62229  -1.5021   -1.2116 
 C                     10.24164  -1.24107   3.48817 
 N                     9.86666   3.06723   0.81918 
 C                     9.72601   4.00116   1.7478 
 C                     9.46515   5.4268    1.19188 
 C                     8.84499   5.01977  -0.23241 
 C                     9.51235   3.6574   -0.40923 
 C                     7.33986   4.81328  -0.19659 
 C                     10.78744   6.25529   1.02702 
 C                     10.58238   7.75216   0.78398 
 H                     11.54337   8.68886   1.3598 
 N                     10.65512   0.9175   -1.18451 
 C                     10.26827   1.88272  -2.04473 
 C                     10.56274   1.36458  -3.38971 
 C                     11.00245  -0.05134  -3.26104 
 C                     10.75161  -0.27824  -1.8519 
 C                     10.49337   2.21709  -4.62334 
 C                     11.5453  -1.04173  -4.24625 
 O                     11.63722  -2.28907  -3.96602 
 C                     11.87873  -0.52329  -5.58099 
 N                     10.23387  -1.08999   1.0515 
 C                     10.38902  -1.9438    0.02444 
 C                     10.40668  -3.37581   0.50344 
 C                     10.47386  -3.29426   2.09919 
 C                     10.38972  -1.7625    2.27807 
 C                     9.20999  -4.23112   0.08776 
 C                     11.6346  -4.05699   2.79461 
 C                     12.95651  -3.40819   2.45256 
 N                     10.32267   1.13888   2.93873 
 C                     10.19697   0.09152   3.87752 
 C                     9.97585   0.71504   5.19842 
 C                     9.96519   2.09226   4.93077 
 C                     10.14535   2.31091   3.53821 
 C                     9.76916   0.01904   6.42274 
 C                     9.83188   3.41045   5.50811 
 O                     9.74733   3.85285   6.65304 
 C                     9.65336   4.46242   4.33003 
 C                     10.58398   5.61487   4.59141 
 O                     11.81644   5.45094   4.56333 
 O                     9.8742    6.75767   4.61559 
 C                     10.75507   7.93059   4.86081 
 H                     9.15654   3.61379  -2.54034 
 H                     10.7616  -2.38206  -1.84386 
 H                     10.24381  -1.85386   4.39214 
 H                     8.74799   6.01039   1.75659 
 H                     9.16486   5.70522  -1.01292 
 H                     6.95075   4.85911   0.80971 
 H                     7.16692   3.83466  -0.62489 
 H                     6.84566   5.52569  -0.86334 
 H                     11.26958   5.97573   0.08143 
 H                     11.4348   6.11144   1.87014 
 H                     9.55621   8.06909   1.00641 
 H                     10.69811   7.94928  -0.28456 
 H                     9.98198   3.16758  -4.42721 
 H                     9.84032   1.69886  -5.33385 
 H                     11.47073   2.36777  -5.08672 
 H                     10.99193  -0.08069  -6.02839 
 H                     12.33468  -1.35992  -6.11395 
 H                     12.61139   0.28385  -5.46982 
 H                     11.28583  -3.89411   0.14072 
 H                     9.57182  -3.7153    2.56703 
 H                     9.49754  -5.14254  -0.46965 
 H                     8.54174  -3.61894  -0.50319 
 H                     8.56654  -4.55319   0.90472 
 H                     11.68804  -5.08395   2.42493 
 H                     11.53271  -4.10799   3.8735 
 H                     13.20216  -3.84617   1.48049 
 H                     13.70908  -3.65568   3.1985 
 H                     12.83884  -2.32807   2.30718 
 H                     10.36263   0.52506   7.17257 
 H                     10.04673  -1.02938   6.33583 
 H                     8.69021   0.14952   6.54152 
 H                     8.60801   4.77354   4.32426 
 H                     10.35586   8.45254   5.73597 
 H                     10.77858   8.49106   3.90737 
 H                     11.77307   7.73543   5.17711 
 
 ITRead=  0  0  0  0  0  0  0  0  0  0  0  0  0  0  0  0  0  0  0  0
 ITRead=  0  0  0  0  0  0  0  0  0  0  0  0  0  0  0  0  0  0  0  0
 ITRead=  0  0  0  0  0  0  0  0  0  0  0  0  0  0  0  0  0  0  0  0
 ITRead=  0  0  0  0  0  0  0  0  0  0  0  0  0  0  0  0  0  0  0  0
 ITRead=  0  0  0  0  0  0  0  0  0  0  0  0  0  0  0  0  0  0  0  0
 ITRead=  0  0  0  0  0  0  0  0  0  0  0  0  0  0  0  0  0  0  0  0
 ITRead=  0  0  0  0  0  0  0  0  0  0  0  0  0  0  0  0  0  0  0  0
 ITRead=  0  0  0  0  0  0  0  0  0  0  0  0  0  0  0  0  0  0
 MicOpt= -1 -1 -1 -1 -1 -1 -1 -1 -1 -1 -1 -1 -1 -1 -1 -1 -1 -1 -1 -1
 MicOpt= -1 -1 -1 -1 -1 -1 -1 -1 -1 -1 -1 -1 -1 -1 -1 -1 -1 -1 -1 -1
 MicOpt= -1 -1 -1 -1 -1 -1 -1 -1 -1 -1 -1 -1 -1 -1 -1 -1 -1 -1 -1 -1
 MicOpt= -1 -1 -1 -1 -1 -1 -1 -1 -1 -1 -1 -1 -1 -1 -1 -1 -1 -1 -1 -1
 MicOpt= -1 -1 -1 -1 -1 -1 -1 -1 -1 -1 -1 -1 -1 -1 -1 -1 -1 -1 -1 -1
 MicOpt= -1 -1 -1 -1 -1 -1 -1 -1 -1 -1 -1 -1 -1 -1 -1 -1 -1 -1 -1 -1
 MicOpt= -1 -1 -1 -1 -1 -1 -1 -1 -1 -1 -1 -1 -1 -1 -1 -1 -1 -1 -1 -1
 MicOpt= -1 -1 -1 -1 -1 -1 -1 -1 -1 -1 -1 -1 -1 -1 -1 -1 -1 -1
 NAtoms=    158 NQM=      158 NQMF=       0 NMMI=      0 NMMIF=      0
                NMic=       0 NMicF=      0.
                    Isotopes and Nuclear Properties:
 (Nuclear quadrupole moments (NQMom) in fm**2, nuclear magnetic moments (NMagM)
  in nuclear magnetons)

  Atom         1           2           3           4           5           6           7           8           9          10
 IAtWgt=          24          12          12          12          12          14          12          12          12          12
 AtmWgt=  23.9850450  12.0000000  12.0000000  12.0000000  12.0000000  14.0030740  12.0000000  12.0000000  12.0000000  12.0000000
 NucSpn=           0           0           0           0           0           2           0           0           0           0
 AtZEff=  -0.0000000  -0.0000000  -0.0000000  -0.0000000  -0.0000000  -0.0000000  -0.0000000  -0.0000000  -0.0000000  -0.0000000
 NQMom=    0.0000000   0.0000000   0.0000000   0.0000000   0.0000000   2.0440000   0.0000000   0.0000000   0.0000000   0.0000000
 NMagM=    0.0000000   0.0000000   0.0000000   0.0000000   0.0000000   0.4037610   0.0000000   0.0000000   0.0000000   0.0000000
 AtZNuc=  12.0000000   6.0000000   6.0000000   6.0000000   6.0000000   7.0000000   6.0000000   6.0000000   6.0000000   6.0000000

  Atom        11          12          13          14          15          16          17          18          19          20
 IAtWgt=          12          12          12           1          14          12          12          12          12          12
 AtmWgt=  12.0000000  12.0000000  12.0000000   1.0078250  14.0030740  12.0000000  12.0000000  12.0000000  12.0000000  12.0000000
 NucSpn=           0           0           0           1           2           0           0           0           0           0
 AtZEff=  -0.0000000  -0.0000000  -0.0000000  -0.0000000  -0.0000000  -0.0000000  -0.0000000  -0.0000000  -0.0000000  -0.0000000
 NQMom=    0.0000000   0.0000000   0.0000000   0.0000000   2.0440000   0.0000000   0.0000000   0.0000000   0.0000000   0.0000000
 NMagM=    0.0000000   0.0000000   0.0000000   2.7928460   0.4037610   0.0000000   0.0000000   0.0000000   0.0000000   0.0000000
 AtZNuc=   6.0000000   6.0000000   6.0000000   1.0000000   7.0000000   6.0000000   6.0000000   6.0000000   6.0000000   6.0000000

  Atom        21          22          23          24          25          26          27          28          29          30
 IAtWgt=          12          16          12          14          12          12          12          12          12          12
 AtmWgt=  12.0000000  15.9949146  12.0000000  14.0030740  12.0000000  12.0000000  12.0000000  12.0000000  12.0000000  12.0000000
 NucSpn=           0           0           0           2           0           0           0           0           0           0
 AtZEff=  -0.0000000  -0.0000000  -0.0000000  -0.0000000  -0.0000000  -0.0000000  -0.0000000  -0.0000000  -0.0000000  -0.0000000
 NQMom=    0.0000000   0.0000000   0.0000000   2.0440000   0.0000000   0.0000000   0.0000000   0.0000000   0.0000000   0.0000000
 NMagM=    0.0000000   0.0000000   0.0000000   0.4037610   0.0000000   0.0000000   0.0000000   0.0000000   0.0000000   0.0000000
 AtZNuc=   6.0000000   8.0000000   6.0000000   7.0000000   6.0000000   6.0000000   6.0000000   6.0000000   6.0000000   6.0000000

  Atom        31          32          33          34          35          36          37          38          39          40
 IAtWgt=          12          14          12          12          12          12          12          12          16          12
 AtmWgt=  12.0000000  14.0030740  12.0000000  12.0000000  12.0000000  12.0000000  12.0000000  12.0000000  15.9949146  12.0000000
 NucSpn=           0           2           0           0           0           0           0           0           0           0
 AtZEff=  -0.0000000  -0.0000000  -0.0000000  -0.0000000  -0.0000000  -0.0000000  -0.0000000  -0.0000000  -0.0000000  -0.0000000
 NQMom=    0.0000000   2.0440000   0.0000000   0.0000000   0.0000000   0.0000000   0.0000000   0.0000000   0.0000000   0.0000000
 NMagM=    0.0000000   0.4037610   0.0000000   0.0000000   0.0000000   0.0000000   0.0000000   0.0000000   0.0000000   0.0000000
 AtZNuc=   6.0000000   7.0000000   6.0000000   6.0000000   6.0000000   6.0000000   6.0000000   6.0000000   8.0000000   6.0000000

  Atom        41          42          43          44          45          46          47          48          49          50
 IAtWgt=          12          16          16          12           1           1           1           1           1           1
 AtmWgt=  12.0000000  15.9949146  15.9949146  12.0000000   1.0078250   1.0078250   1.0078250   1.0078250   1.0078250   1.0078250
 NucSpn=           0           0           0           0           1           1           1           1           1           1
 AtZEff=  -0.0000000  -0.0000000  -0.0000000  -0.0000000  -0.0000000  -0.0000000  -0.0000000  -0.0000000  -0.0000000  -0.0000000
 NQMom=    0.0000000   0.0000000   0.0000000   0.0000000   0.0000000   0.0000000   0.0000000   0.0000000   0.0000000   0.0000000
 NMagM=    0.0000000   0.0000000   0.0000000   0.0000000   2.7928460   2.7928460   2.7928460   2.7928460   2.7928460   2.7928460
 AtZNuc=   6.0000000   8.0000000   8.0000000   6.0000000   1.0000000   1.0000000   1.0000000   1.0000000   1.0000000   1.0000000

  Atom        51          52          53          54          55          56          57          58          59          60
 IAtWgt=           1           1           1           1           1           1           1           1           1           1
 AtmWgt=   1.0078250   1.0078250   1.0078250   1.0078250   1.0078250   1.0078250   1.0078250   1.0078250   1.0078250   1.0078250
 NucSpn=           1           1           1           1           1           1           1           1           1           1
 AtZEff=  -0.0000000  -0.0000000  -0.0000000  -0.0000000  -0.0000000  -0.0000000  -0.0000000  -0.0000000  -0.0000000  -0.0000000
 NQMom=    0.0000000   0.0000000   0.0000000   0.0000000   0.0000000   0.0000000   0.0000000   0.0000000   0.0000000   0.0000000
 NMagM=    2.7928460   2.7928460   2.7928460   2.7928460   2.7928460   2.7928460   2.7928460   2.7928460   2.7928460   2.7928460
 AtZNuc=   1.0000000   1.0000000   1.0000000   1.0000000   1.0000000   1.0000000   1.0000000   1.0000000   1.0000000   1.0000000

  Atom        61          62          63          64          65          66          67          68          69          70
 IAtWgt=           1           1           1           1           1           1           1           1           1           1
 AtmWgt=   1.0078250   1.0078250   1.0078250   1.0078250   1.0078250   1.0078250   1.0078250   1.0078250   1.0078250   1.0078250
 NucSpn=           1           1           1           1           1           1           1           1           1           1
 AtZEff=  -0.0000000  -0.0000000  -0.0000000  -0.0000000  -0.0000000  -0.0000000  -0.0000000  -0.0000000  -0.0000000  -0.0000000
 NQMom=    0.0000000   0.0000000   0.0000000   0.0000000   0.0000000   0.0000000   0.0000000   0.0000000   0.0000000   0.0000000
 NMagM=    2.7928460   2.7928460   2.7928460   2.7928460   2.7928460   2.7928460   2.7928460   2.7928460   2.7928460   2.7928460
 AtZNuc=   1.0000000   1.0000000   1.0000000   1.0000000   1.0000000   1.0000000   1.0000000   1.0000000   1.0000000   1.0000000

  Atom        71          72          73          74          75          76          77          78          79          80
 IAtWgt=           1           1           1           1           1           1           1           1           1          24
 AtmWgt=   1.0078250   1.0078250   1.0078250   1.0078250   1.0078250   1.0078250   1.0078250   1.0078250   1.0078250  23.9850450
 NucSpn=           1           1           1           1           1           1           1           1           1           0
 AtZEff=  -0.0000000  -0.0000000  -0.0000000  -0.0000000  -0.0000000  -0.0000000  -0.0000000  -0.0000000  -0.0000000  -0.0000000
 NQMom=    0.0000000   0.0000000   0.0000000   0.0000000   0.0000000   0.0000000   0.0000000   0.0000000   0.0000000   0.0000000
 NMagM=    2.7928460   2.7928460   2.7928460   2.7928460   2.7928460   2.7928460   2.7928460   2.7928460   2.7928460   0.0000000
 AtZNuc=   1.0000000   1.0000000   1.0000000   1.0000000   1.0000000   1.0000000   1.0000000   1.0000000   1.0000000  12.0000000

  Atom        81          82          83          84          85          86          87          88          89          90
 IAtWgt=          12          12          12          12          14          12          12          12          12          12
 AtmWgt=  12.0000000  12.0000000  12.0000000  12.0000000  14.0030740  12.0000000  12.0000000  12.0000000  12.0000000  12.0000000
 NucSpn=           0           0           0           0           2           0           0           0           0           0
 AtZEff=  -0.0000000  -0.0000000  -0.0000000  -0.0000000  -0.0000000  -0.0000000  -0.0000000  -0.0000000  -0.0000000  -0.0000000
 NQMom=    0.0000000   0.0000000   0.0000000   0.0000000   2.0440000   0.0000000   0.0000000   0.0000000   0.0000000   0.0000000
 NMagM=    0.0000000   0.0000000   0.0000000   0.0000000   0.4037610   0.0000000   0.0000000   0.0000000   0.0000000   0.0000000
 AtZNuc=   6.0000000   6.0000000   6.0000000   6.0000000   7.0000000   6.0000000   6.0000000   6.0000000   6.0000000   6.0000000

  Atom        91          92          93          94          95          96          97          98          99         100
 IAtWgt=          12          12           1          14          12          12          12          12          12          12
 AtmWgt=  12.0000000  12.0000000   1.0078250  14.0030740  12.0000000  12.0000000  12.0000000  12.0000000  12.0000000  12.0000000
 NucSpn=           0           0           1           2           0           0           0           0           0           0
 AtZEff=  -0.0000000  -0.0000000  -0.0000000  -0.0000000  -0.0000000  -0.0000000  -0.0000000  -0.0000000  -0.0000000  -0.0000000
 NQMom=    0.0000000   0.0000000   0.0000000   2.0440000   0.0000000   0.0000000   0.0000000   0.0000000   0.0000000   0.0000000
 NMagM=    0.0000000   0.0000000   2.7928460   0.4037610   0.0000000   0.0000000   0.0000000   0.0000000   0.0000000   0.0000000
 AtZNuc=   6.0000000   6.0000000   1.0000000   7.0000000   6.0000000   6.0000000   6.0000000   6.0000000   6.0000000   6.0000000

  Atom       101         102         103         104         105         106         107         108         109         110
 IAtWgt=          16          12          14          12          12          12          12          12          12          12
 AtmWgt=  15.9949146  12.0000000  14.0030740  12.0000000  12.0000000  12.0000000  12.0000000  12.0000000  12.0000000  12.0000000
 NucSpn=           0           0           2           0           0           0           0           0           0           0
 AtZEff=  -0.0000000  -0.0000000  -0.0000000  -0.0000000  -0.0000000  -0.0000000  -0.0000000  -0.0000000  -0.0000000  -0.0000000
 NQMom=    0.0000000   0.0000000   2.0440000   0.0000000   0.0000000   0.0000000   0.0000000   0.0000000   0.0000000   0.0000000
 NMagM=    0.0000000   0.0000000   0.4037610   0.0000000   0.0000000   0.0000000   0.0000000   0.0000000   0.0000000   0.0000000
 AtZNuc=   8.0000000   6.0000000   7.0000000   6.0000000   6.0000000   6.0000000   6.0000000   6.0000000   6.0000000   6.0000000

  Atom       111         112         113         114         115         116         117         118         119         120
 IAtWgt=          14          12          12          12          12          12          12          16          12          12
 AtmWgt=  14.0030740  12.0000000  12.0000000  12.0000000  12.0000000  12.0000000  12.0000000  15.9949146  12.0000000  12.0000000
 NucSpn=           2           0           0           0           0           0           0           0           0           0
 AtZEff=  -0.0000000  -0.0000000  -0.0000000  -0.0000000  -0.0000000  -0.0000000  -0.0000000  -0.0000000  -0.0000000  -0.0000000
 NQMom=    2.0440000   0.0000000   0.0000000   0.0000000   0.0000000   0.0000000   0.0000000   0.0000000   0.0000000   0.0000000
 NMagM=    0.4037610   0.0000000   0.0000000   0.0000000   0.0000000   0.0000000   0.0000000   0.0000000   0.0000000   0.0000000
 AtZNuc=   7.0000000   6.0000000   6.0000000   6.0000000   6.0000000   6.0000000   6.0000000   8.0000000   6.0000000   6.0000000

  Atom       121         122         123         124         125         126         127         128         129         130
 IAtWgt=          16          16          12           1           1           1           1           1           1           1
 AtmWgt=  15.9949146  15.9949146  12.0000000   1.0078250   1.0078250   1.0078250   1.0078250   1.0078250   1.0078250   1.0078250
 NucSpn=           0           0           0           1           1           1           1           1           1           1
 AtZEff=  -0.0000000  -0.0000000  -0.0000000  -0.0000000  -0.0000000  -0.0000000  -0.0000000  -0.0000000  -0.0000000  -0.0000000
 NQMom=    0.0000000   0.0000000   0.0000000   0.0000000   0.0000000   0.0000000   0.0000000   0.0000000   0.0000000   0.0000000
 NMagM=    0.0000000   0.0000000   0.0000000   2.7928460   2.7928460   2.7928460   2.7928460   2.7928460   2.7928460   2.7928460
 AtZNuc=   8.0000000   8.0000000   6.0000000   1.0000000   1.0000000   1.0000000   1.0000000   1.0000000   1.0000000   1.0000000

  Atom       131         132         133         134         135         136         137         138         139         140
 IAtWgt=           1           1           1           1           1           1           1           1           1           1
 AtmWgt=   1.0078250   1.0078250   1.0078250   1.0078250   1.0078250   1.0078250   1.0078250   1.0078250   1.0078250   1.0078250
 NucSpn=           1           1           1           1           1           1           1           1           1           1
 AtZEff=  -0.0000000  -0.0000000  -0.0000000  -0.0000000  -0.0000000  -0.0000000  -0.0000000  -0.0000000  -0.0000000  -0.0000000
 NQMom=    0.0000000   0.0000000   0.0000000   0.0000000   0.0000000   0.0000000   0.0000000   0.0000000   0.0000000   0.0000000
 NMagM=    2.7928460   2.7928460   2.7928460   2.7928460   2.7928460   2.7928460   2.7928460   2.7928460   2.7928460   2.7928460
 AtZNuc=   1.0000000   1.0000000   1.0000000   1.0000000   1.0000000   1.0000000   1.0000000   1.0000000   1.0000000   1.0000000

  Atom       141         142         143         144         145         146         147         148         149         150
 IAtWgt=           1           1           1           1           1           1           1           1           1           1
 AtmWgt=   1.0078250   1.0078250   1.0078250   1.0078250   1.0078250   1.0078250   1.0078250   1.0078250   1.0078250   1.0078250
 NucSpn=           1           1           1           1           1           1           1           1           1           1
 AtZEff=  -0.0000000  -0.0000000  -0.0000000  -0.0000000  -0.0000000  -0.0000000  -0.0000000  -0.0000000  -0.0000000  -0.0000000
 NQMom=    0.0000000   0.0000000   0.0000000   0.0000000   0.0000000   0.0000000   0.0000000   0.0000000   0.0000000   0.0000000
 NMagM=    2.7928460   2.7928460   2.7928460   2.7928460   2.7928460   2.7928460   2.7928460   2.7928460   2.7928460   2.7928460
 AtZNuc=   1.0000000   1.0000000   1.0000000   1.0000000   1.0000000   1.0000000   1.0000000   1.0000000   1.0000000   1.0000000

  Atom       151         152         153         154         155         156         157         158
 IAtWgt=           1           1           1           1           1           1           1           1
 AtmWgt=   1.0078250   1.0078250   1.0078250   1.0078250   1.0078250   1.0078250   1.0078250   1.0078250
 NucSpn=           1           1           1           1           1           1           1           1
 AtZEff=  -0.0000000  -0.0000000  -0.0000000  -0.0000000  -0.0000000  -0.0000000  -0.0000000  -0.0000000
 NQMom=    0.0000000   0.0000000   0.0000000   0.0000000   0.0000000   0.0000000   0.0000000   0.0000000
 NMagM=    2.7928460   2.7928460   2.7928460   2.7928460   2.7928460   2.7928460   2.7928460   2.7928460
 AtZNuc=   1.0000000   1.0000000   1.0000000   1.0000000   1.0000000   1.0000000   1.0000000   1.0000000
 Leave Link  101 at Fri Sep 10 18:02:57 2021, MaxMem= 23488102400 cpu:               3.2 elap:               0.2
 (Enter /sw/apps/gaussian-16.0/g16/l202.exe)
 Stoichiometry    C68H72Mg2N8O8
 Framework group  C1[X(C68H72Mg2N8O8)]
 Deg. of freedom   468
 Full point group                 C1      NOp   1
 Largest Abelian subgroup         C1      NOp   1
 Largest concise Abelian subgroup C1      NOp   1
                         Standard orientation:                         
 ---------------------------------------------------------------------
 Center     Atomic      Atomic             Coordinates (Angstroms)
 Number     Number       Type             X           Y           Z
 ---------------------------------------------------------------------
      1         12           0       -5.161398    0.612273    0.668643
      2          6           0       -5.749205   -1.937518   -1.773747
      3          6           0       -5.722236   -1.756763    3.059500
      4          6           0       -5.096044    2.932947    2.828925
      5          6           0       -5.766940    2.951260   -1.842953
      6          7           0       -5.661644   -1.540052    0.534859
      7          6           0       -5.799515   -2.410329   -0.460520
      8          6           0       -5.927304   -3.886092    0.022356
      9          6           0       -6.470198   -3.622000    1.497998
     10          6           0       -5.888077   -2.238297    1.726963
     11          6           0       -7.990729   -3.535142    1.581329
     12          6           0       -4.547692   -4.626332    0.043414
     13          6           0       -4.625360   -6.149120    0.186375
     14          1           0       -3.649258   -6.969047   -0.515262
     15          7           0       -4.896986    0.534529    2.624888
     16          6           0       -5.162935   -0.516754    3.436898
     17          6           0       -4.797957   -0.080098    4.801743
     18          6           0       -4.477276    1.373149    4.744040
     19          6           0       -4.840612    1.681478    3.384519
     20          6           0       -4.732386   -1.010932    5.973493
     21          6           0       -3.940061    2.334126    5.756984
     22          8           0       -3.954632    3.598731    5.569536
     23          6           0       -3.471112    1.754313    7.028576
     24          7           0       -5.610948    2.648817    0.579050
     25          6           0       -5.441830    3.440308    1.643909
     26          6           0       -5.553251    4.888852    1.270753
     27          6           0       -5.593434    4.932458   -0.324940
     28          6           0       -5.579380    3.409069   -0.603074
     29          6           0       -6.772701    5.632773    1.832476
     30          6           0       -4.538568    5.820879   -1.030903
     31          6           0       -3.157698    5.239345   -0.825682
     32          7           0       -5.494749    0.557761   -1.475407
     33          6           0       -5.748108    1.650304   -2.317329
     34          6           0       -6.014823    1.106883   -3.661809
     35          6           0       -5.913756   -0.273956   -3.503974
     36          6           0       -5.629470   -0.575377   -2.141395
     37          6           0       -6.362098    1.866315   -4.813807
     38          6           0       -6.004127   -1.566066   -4.164385
     39          8           0       -6.128549   -1.935912   -5.332814
     40          6           0       -6.021740   -2.700009   -3.046490
     41          6           0       -5.034649   -3.758462   -3.457146
     42          8           0       -3.810971   -3.515290   -3.486224
     43          8           0       -5.656492   -4.945855   -3.519995
     44          6           0       -4.726731   -6.044971   -3.893681
     45          1           0       -6.107689   -2.353824    3.888285
     46          1           0       -4.974429    3.770956    3.518410
     47          1           0       -5.880213    3.624963   -2.694274
     48          1           0       -6.645240   -4.486619   -0.536535
     49          1           0       -6.057630   -4.330272    2.216231
     50          1           0       -8.444976   -3.540481    0.590596
     51          1           0       -8.201031   -2.594930    2.091492
     52          1           0       -8.388920   -4.320514    2.224301
     53          1           0       -4.021670   -4.379990    0.965736
     54          1           0       -3.962396   -4.376758   -0.842288
     55          1           0       -5.635495   -6.515776    0.001714
     56          1           0       -4.430573   -6.404754    1.227964
     57          1           0       -5.181189   -1.976465    5.743564
     58          1           0       -5.372611   -0.591673    6.749408
     59          1           0       -3.716836   -1.120444    6.354277
     60          1           0       -4.293011    1.219489    7.505015
     61          1           0       -3.039460    2.579320    7.594164
     62          1           0       -2.703579    1.009750    6.815341
     63          1           0       -4.688667    5.450722    1.621783
     64          1           0       -6.547516    5.303510   -0.700068
     65          1           0       -6.515194    6.511745    2.423918
     66          1           0       -7.358702    4.925177    2.418311
     67          1           0       -7.499424    5.949239    1.084718
     68          1           0       -4.533345    6.820378   -0.597405
     69          1           0       -4.711041    5.924914   -2.102202
     70          1           0       -2.872797    5.627645    0.151501
     71          1           0       -2.476763    5.593681   -1.600268
     72          1           0       -3.191066    4.152497   -0.747349
     73          1           0       -5.780771    1.453272   -5.638078
     74          1           0       -6.147917    2.925041   -4.669490
     75          1           0       -7.430685    1.661197   -4.876296
     76          1           0       -7.040528   -3.084095   -3.005615
     77          1           0       -5.143603   -6.532270   -4.775152
     78          1           0       -4.587970   -6.651294   -2.998403
     79          1           0       -3.748620   -5.742207   -4.269144
     80         12           0        5.318978    0.504787   -0.852761
     81          6           0        5.439614   -2.118790    1.592915
     82          6           0        4.831711    2.683107    1.726401
     83          6           0        4.759391    2.770226   -3.002668
     84          6           0        4.673947   -1.945105   -3.246021
     85          7           0        5.173928    0.200915    1.333300
     86          6           0        5.296587   -0.832222    2.153011
     87          6           0        5.344720   -0.456678    3.658400
     88          6           0        4.580219    0.953328    3.579063
     89          6           0        4.906764    1.327478    2.134741
     90          6           0        3.071458    0.828106    3.710578
     91          6           0        6.812809   -0.285265    4.185047
     92          6           0        6.946518   -0.223476    5.708215
     93          1           0        8.123721   -0.825018    6.328552
     94          7           0        5.349661    2.481039   -0.673671
     95          6           0        5.154801    3.199185    0.452197
     96          6           0        5.257494    4.610991    0.051681
     97          6           0        5.365032    4.671215   -1.431404
     98          6           0        5.136278    3.280603   -1.768969
     99          6           0        5.327431    5.735282    1.043904
    100          6           0        5.617595    5.796635   -2.388399
    101          8           0        5.433143    5.662234   -3.649648
    102          6           0        5.997297    7.087761   -1.796533
    103          7           0        4.584815    0.452983   -2.797160
    104          6           0        4.489995    1.576007   -3.530469
    105          6           0        4.200341    1.259255   -4.978286
    106          6           0        4.360617   -0.326347   -5.111557
    107          6           0        4.640038   -0.677555   -3.633740
    108          6           0        2.820432    1.675573   -5.487150
    109          6           0        5.346420   -0.845555   -6.193823
    110          6           0        6.764307   -0.478877   -5.818954
    111          7           0        5.274405   -1.654906   -0.894884
    112          6           0        4.955927   -2.480188   -1.995597
    113          6           0        4.947639   -3.874184   -1.506563
    114          6           0        5.241575   -3.760402   -0.139398
    115          6           0        5.400523   -2.390595    0.203901
    116          6           0        4.644970   -5.026974   -2.284742
    117          6           0        5.443062   -4.486857    1.093640
    118          8           0        5.517413   -5.676422    1.398827
    119          6           0        5.455485   -3.447599    2.296209
    120          6           0        6.637825   -3.763348    3.170787
    121          8           0        7.796649   -3.625609    2.740932
    122          8           0        6.212208   -3.965341    4.431110
    123          6           0        7.350135   -4.271025    5.338571
    124          1           0        4.449119    3.418033    2.435198
    125          1           0        4.662007    3.503608   -3.806507
    126          1           0        4.578142   -2.773889   -3.950732
    127          1           0        4.808995   -1.133793    4.312852
    128          1           0        5.011660    1.675819    4.266973
    129          1           0        2.751864   -0.203379    3.717332
    130          1           0        2.657604    1.346821    2.855765
    131          1           0        2.723292    1.374142    4.592021
    132          1           0        7.171911    0.718565    3.924040
    133          1           0        7.449163   -1.056907    3.797440
    134          1           0        6.032707   -0.555203    6.216007
    135          1           0        7.053358    0.822714    6.005032
    136          1           0        5.058578    5.398704    2.052790
    137          1           0        4.539448    6.447512    0.776190
    138          1           0        6.289952    6.251021    1.028926
    139          1           0        5.215895    7.416609   -1.115545
    140          1           0        6.222394    7.741604   -2.641344
    141          1           0        6.900554    6.943914   -1.193159
    142          1           0        4.918192    1.741102   -5.630680
    143          1           0        3.409272   -0.811300   -5.375353
    144          1           0        2.863464    2.349269   -6.363711
    145          1           0        2.283639    2.144458   -4.673181
    146          1           0        2.159885    0.853042   -5.756037
    147          1           0        5.144269   -0.362761   -7.153099
    148          1           0        5.287167   -1.916961   -6.353711
    149          1           0        6.855813    0.550889   -6.177144
    150          1           0        7.474420   -1.135003   -6.318231
    151          1           0        6.891671   -0.461760   -4.730319
    152          1           0        5.374111   -5.781288   -2.020407
    153          1           0        4.669229   -4.805385   -3.349680
    154          1           0        3.631983   -5.239499   -1.932666
    155          1           0        4.510796   -3.553932    2.830852
    156          1           0        7.124080   -5.225383    5.824170
    157          1           0        7.456492   -3.385566    5.993076
    158          1           0        8.309767   -4.487217    4.883790
 ---------------------------------------------------------------------
 Rotational constants (GHZ):           0.0203526           0.0108412           0.0107342
 Leave Link  202 at Fri Sep 10 18:02:57 2021, MaxMem= 23488102400 cpu:               0.2 elap:               0.0
 (Enter /sw/apps/gaussian-16.0/g16/l301.exe)
 Standard basis: def2SVP (5D, 7F)
 Ernie: Thresh=  0.10000D-02 Tol=  0.10000D-05 Strict=F.
 There are  1658 symmetry adapted cartesian basis functions of A   symmetry.
 There are  1572 symmetry adapted basis functions of A   symmetry.
  1572 basis functions,  2678 primitive gaussians,  1658 cartesian basis functions
   312 alpha electrons      312 beta electrons
       nuclear repulsion energy     14931.4262591265 Hartrees.
 IExCor=20419 DFT=T Ex+Corr=CAM-B3LYP ExCW=0 ScaHFX=  1.000000
 ScaDFX=  1.000000  1.000000  1.000000  0.810000 ScalE2=  1.000000  1.000000
 IRadAn=      5 IRanWt=     -1 IRanGd=            0 ICorTp=0 IEmpDi=  4
 HFx  wShort=  0.000000 wLong=  0.330000 cFull=  0.190000 cShort=  0.000000 cLong=  0.460000
 DFx  wShort=  0.000000 wLong=  0.330000 cFull=  0.190000 cShort=  0.000000 cLong=  0.460000
 NAtoms=  158 NActive=  158 NUniq=  158 SFac= 1.00D+00 NAtFMM=   60 NAOKFM=T Big=T
 Integral buffers will be    131072 words long.
 Raffenetti 1 integral format.
 Two-electron integral symmetry is turned on.
 Leave Link  301 at Fri Sep 10 18:02:57 2021, MaxMem= 23488102400 cpu:               1.3 elap:               0.1
 (Enter /sw/apps/gaussian-16.0/g16/l302.exe)
 NPDir=0 NMtPBC=     1 NCelOv=     1 NCel=       1 NClECP=     1 NCelD=      1
         NCelK=      1 NCelE2=     1 NClLst=     1 CellRange=     0.0.
 One-electron integrals computed using PRISM.
 One-electron integral symmetry used in STVInt
   1 Symmetry operations used in ECPInt.
 ECPInt:  NShTT=  271216 NPrTT=  987664 LenC2=  137058 LenP2D=  286060.
 LDataN:  DoStor=T MaxTD1= 4 Len=   56
 NBasis=  1572 RedAO= T EigKep=  3.36D-04  NBF=  1572
 NBsUse=  1572 1.00D-06 EigRej= -1.00D+00 NBFU=  1572
 Precomputing XC quadrature grid using
 IXCGrd= 4 IRadAn=           5 IRanWt=          -1 IRanGd=           0 AccXCQ= 0.00D+00.
 Generated NRdTot=       0 NPtTot=           0 NUsed=           0 NTot=          32
 NSgBfM=  1123  1106  1110  1116  1123 MxSgAt=   158 MxSgA2=   156.
 Leave Link  302 at Fri Sep 10 18:03:02 2021, MaxMem= 23488102400 cpu:             121.1 elap:               5.1
 (Enter /sw/apps/gaussian-16.0/g16/l303.exe)
 DipDrv:  MaxL=1.
 Leave Link  303 at Fri Sep 10 18:03:02 2021, MaxMem= 23488102400 cpu:               9.5 elap:               0.4
 (Enter /sw/apps/gaussian-16.0/g16/l308.exe)
 Leave Link  308 at Fri Sep 10 18:03:03 2021, MaxMem= 23488102400 cpu:              16.1 elap:               0.8
 (Enter /sw/apps/gaussian-16.0/g16/l401.exe)
 ExpMin= 3.36D-02 ExpMax= 4.95D+03 ExpMxC= 7.45D+02 IAcc=3 IRadAn=         5 AccDes= 0.00D+00
 Harris functional with IExCor=20419 and IRadAn=       5 diagonalized for initial guess.
 HarFok:  IExCor=20419 AccDes= 0.00D+00 IRadAn=         5 IDoV= 1 UseB2=F ITyADJ=14
 ICtDFT=  3500011 ScaDFX=  1.000000  1.000000  1.000000  1.000000
 FoFCou: FMM=F IPFlag=           0 FMFlag=      100000 FMFlg1=        2001
         NFxFlg=           0 DoJE=T BraDBF=F KetDBF=T FulRan=T
         wScrn=  0.000000 ICntrl=       500 IOpCl=  0 I1Cent=   200000004 NGrid=           0
         NMat0=    1 NMatS0=      1 NMatT0=    0 NMatD0=    1 NMtDS0=    0 NMtDT0=    0
 Petite list used in FoFCou.
 Harris En= -3918.65801733876    
 JPrj=0 DoOrth=F DoCkMO=F.
 Leave Link  401 at Fri Sep 10 18:03:10 2021, MaxMem= 23488102400 cpu:             176.6 elap:               7.4
 (Enter /sw/apps/gaussian-16.0/g16/l502.exe)
 Integral symmetry usage will be decided dynamically.
 Closed shell SCF:
 Using DIIS extrapolation, IDIIS=  1040.
 NGot= 23488102400 LenX= 23482547354 LenY= 23479796732
 Requested convergence on RMS density matrix=1.00D-08 within 128 cycles.
 Requested convergence on MAX density matrix=1.00D-06.
 Requested convergence on             energy=1.00D-06.
 No special actions if energy rises.
 Fock matrices will be formed incrementally for  20 cycles.

 Cycle   1  Pass 1  IDiag  1:
 FoFJK:  IHMeth= 1 ICntrl=       0 DoSepK=T KAlg= 0 I1Cent=           0 FoldK=F
 IRaf=         1 NMat=       1 IRICut=       1 DoRegI=T DoRafI=F ISym2E= 0 IDoP0=0 IntGTp=1.
 FoFCou: FMM=T IPFlag=           0 FMFlag=      100000 FMFlg1=        2001
         NFxFlg=           0 DoJE=T BraDBF=F KetDBF=F FulRan=T
         wScrn=  0.000000 ICntrl=       500 IOpCl=  0 I1Cent=           0 NGrid=           0
         NMat0=    1 NMatS0=      1 NMatT0=    0 NMatD0=    1 NMtDS0=    0 NMtDT0=    0
 Symmetry not used in FoFCou.
 FMM levels:  10  Number of levels for PrismC:   9
 E= -4068.94942327674    
 DIIS: error= 2.04D-02 at cycle   1 NSaved=   1.
 NSaved= 1 IEnMin= 1 EnMin= -4068.94942327674     IErMin= 1 ErrMin= 2.04D-02
 ErrMax= 2.04D-02  0.00D+00 EMaxC= 1.00D-01 BMatC= 1.69D+00 BMatP= 1.69D+00
 IDIUse=3 WtCom= 7.96D-01 WtEn= 2.04D-01
 Coeff-Com:  0.100D+01
 Coeff-En:   0.100D+01
 Coeff:      0.100D+01
 Gap=     0.120 Goal=   None    Shift=    0.000
 GapD=    0.120 DampG=1.000 DampE=0.500 DampFc=0.5000 IDamp=-1.
 Damping current iteration by 5.00D-01
 RMSDP=1.57D-03 MaxDP=1.35D-01              OVMax= 2.07D-01

 Cycle   2  Pass 1  IDiag  1:
 RMSU=  7.70D-04    CP:  9.82D-01
 E= -4069.33790342717     Delta-E=       -0.388480150432 Rises=F Damp=T
 DIIS: error= 1.27D-02 at cycle   2 NSaved=   2.
 NSaved= 2 IEnMin= 2 EnMin= -4069.33790342717     IErMin= 2 ErrMin= 1.27D-02
 ErrMax= 1.27D-02  0.00D+00 EMaxC= 1.00D-01 BMatC= 3.07D-01 BMatP= 1.69D+00
 IDIUse=3 WtCom= 8.73D-01 WtEn= 1.27D-01
 Coeff-Com: -0.212D+00 0.121D+01
 Coeff-En:   0.000D+00 0.100D+01
 Coeff:     -0.185D+00 0.119D+01
 Gap=     0.135 Goal=   None    Shift=    0.000
 RMSDP=7.66D-04 MaxDP=9.39D-02 DE=-3.88D-01 OVMax= 1.95D-01

 Cycle   3  Pass 1  IDiag  1:
 RMSU=  7.35D-04    CP:  9.68D-01  1.24D+00
 E= -4069.62609518165     Delta-E=       -0.288191754473 Rises=F Damp=F
 DIIS: error= 1.58D-02 at cycle   3 NSaved=   3.
 NSaved= 3 IEnMin= 3 EnMin= -4069.62609518165     IErMin= 2 ErrMin= 1.27D-02
 ErrMax= 1.58D-02  0.00D+00 EMaxC= 1.00D-01 BMatC= 2.03D-01 BMatP= 3.07D-01
 IDIUse=3 WtCom= 8.42D-01 WtEn= 1.58D-01
 Coeff-Com: -0.267D+00 0.653D+00 0.615D+00
 Coeff-En:   0.000D+00 0.000D+00 0.100D+01
 Coeff:     -0.225D+00 0.550D+00 0.675D+00
 Gap=     0.122 Goal=   None    Shift=    0.000
 RMSDP=5.13D-04 MaxDP=5.04D-02 DE=-2.88D-01 OVMax= 1.51D-01

 Cycle   4  Pass 1  IDiag  1:
 RMSU=  2.67D-04    CP:  9.65D-01  1.55D+00  5.02D-01
 E= -4069.76413954866     Delta-E=       -0.138044367017 Rises=F Damp=F
 DIIS: error= 7.31D-03 at cycle   4 NSaved=   4.
 NSaved= 4 IEnMin= 4 EnMin= -4069.76413954866     IErMin= 4 ErrMin= 7.31D-03
 ErrMax= 7.31D-03  0.00D+00 EMaxC= 1.00D-01 BMatC= 5.13D-02 BMatP= 2.03D-01
 IDIUse=3 WtCom= 9.27D-01 WtEn= 7.31D-02
 Coeff-Com: -0.109D+00 0.227D+00 0.409D+00 0.473D+00
 Coeff-En:   0.000D+00 0.000D+00 0.224D+00 0.776D+00
 Coeff:     -0.101D+00 0.210D+00 0.396D+00 0.495D+00
 Gap=     0.121 Goal=   None    Shift=    0.000
 RMSDP=2.03D-04 MaxDP=2.08D-02 DE=-1.38D-01 OVMax= 6.78D-02

 Cycle   5  Pass 1  IDiag  1:
 RMSU=  7.76D-05    CP:  9.64D-01  1.49D+00  6.88D-01  5.46D-01
 E= -4069.81071506630     Delta-E=       -0.046575517641 Rises=F Damp=F
 DIIS: error= 7.86D-04 at cycle   5 NSaved=   5.
 NSaved= 5 IEnMin= 5 EnMin= -4069.81071506630     IErMin= 5 ErrMin= 7.86D-04
 ErrMax= 7.86D-04  0.00D+00 EMaxC= 1.00D-01 BMatC= 1.24D-03 BMatP= 5.13D-02
 IDIUse=3 WtCom= 9.92D-01 WtEn= 7.86D-03
 Coeff-Com: -0.368D-01 0.724D-01 0.169D+00 0.253D+00 0.543D+00
 Coeff-En:   0.000D+00 0.000D+00 0.000D+00 0.000D+00 0.100D+01
 Coeff:     -0.365D-01 0.718D-01 0.168D+00 0.251D+00 0.546D+00
 Gap=     0.120 Goal=   None    Shift=    0.000
 RMSDP=4.27D-05 MaxDP=4.27D-03 DE=-4.66D-02 OVMax= 1.95D-02

 Cycle   6  Pass 1  IDiag  1:
 RMSU=  3.12D-05    CP:  9.64D-01  1.49D+00  6.80D-01  6.19D-01  7.41D-01
 E= -4069.81181630065     Delta-E=       -0.001101234349 Rises=F Damp=F
 DIIS: error= 2.06D-04 at cycle   6 NSaved=   6.
 NSaved= 6 IEnMin= 6 EnMin= -4069.81181630065     IErMin= 6 ErrMin= 2.06D-04
 ErrMax= 2.06D-04  0.00D+00 EMaxC= 1.00D-01 BMatC= 1.89D-04 BMatP= 1.24D-03
 IDIUse=3 WtCom= 9.98D-01 WtEn= 2.06D-03
 Coeff-Com:  0.212D-02-0.643D-02 0.119D-01 0.411D-01 0.306D+00 0.646D+00
 Coeff-En:   0.000D+00 0.000D+00 0.000D+00 0.000D+00 0.111D+00 0.889D+00
 Coeff:      0.212D-02-0.642D-02 0.119D-01 0.410D-01 0.305D+00 0.646D+00
 Gap=     0.121 Goal=   None    Shift=    0.000
 RMSDP=1.67D-05 MaxDP=1.23D-03 DE=-1.10D-03 OVMax= 8.27D-03

 Cycle   7  Pass 1  IDiag  1:
 RMSU=  1.10D-05    CP:  9.64D-01  1.49D+00  6.85D-01  6.18D-01  8.48D-01
                    CP:  7.44D-01
 E= -4069.81202331676     Delta-E=       -0.000207016110 Rises=F Damp=F
 DIIS: error= 9.95D-05 at cycle   7 NSaved=   7.
 NSaved= 7 IEnMin= 7 EnMin= -4069.81202331676     IErMin= 7 ErrMin= 9.95D-05
 ErrMax= 9.95D-05  0.00D+00 EMaxC= 1.00D-01 BMatC= 2.31D-05 BMatP= 1.89D-04
 IDIUse=1 WtCom= 1.00D+00 WtEn= 0.00D+00
 Coeff-Com:  0.452D-02-0.990D-02-0.889D-02-0.340D-02 0.105D+00 0.334D+00
 Coeff-Com:  0.578D+00
 Coeff:      0.452D-02-0.990D-02-0.889D-02-0.340D-02 0.105D+00 0.334D+00
 Coeff:      0.578D+00
 Gap=     0.121 Goal=   None    Shift=    0.000
 RMSDP=6.57D-06 MaxDP=1.18D-03 DE=-2.07D-04 OVMax= 3.78D-03

 Cycle   8  Pass 1  IDiag  1:
 RMSU=  4.72D-06    CP:  9.64D-01  1.49D+00  6.86D-01  6.23D-01  8.50D-01
                    CP:  8.66D-01  8.19D-01
 E= -4069.81205176667     Delta-E=       -0.000028449907 Rises=F Damp=F
 DIIS: error= 5.33D-05 at cycle   8 NSaved=   8.
 NSaved= 8 IEnMin= 8 EnMin= -4069.81205176667     IErMin= 8 ErrMin= 5.33D-05
 ErrMax= 5.33D-05  0.00D+00 EMaxC= 1.00D-01 BMatC= 4.81D-06 BMatP= 2.31D-05
 IDIUse=1 WtCom= 1.00D+00 WtEn= 0.00D+00
 Coeff-Com:  0.217D-02-0.430D-02-0.777D-02-0.121D-01-0.104D-01 0.326D-01
 Coeff-Com:  0.329D+00 0.671D+00
 Coeff:      0.217D-02-0.430D-02-0.777D-02-0.121D-01-0.104D-01 0.326D-01
 Coeff:      0.329D+00 0.671D+00
 Gap=     0.121 Goal=   None    Shift=    0.000
 RMSDP=3.34D-06 MaxDP=4.56D-04 DE=-2.84D-05 OVMax= 1.17D-03

 Cycle   9  Pass 1  IDiag  1:
 RMSU=  1.94D-06    CP:  9.64D-01  1.49D+00  6.87D-01  6.24D-01  8.68D-01
                    CP:  8.93D-01  1.01D+00  9.59D-01
 E= -4069.81205953018     Delta-E=       -0.000007763509 Rises=F Damp=F
 DIIS: error= 1.85D-05 at cycle   9 NSaved=   9.
 NSaved= 9 IEnMin= 9 EnMin= -4069.81205953018     IErMin= 9 ErrMin= 1.85D-05
 ErrMax= 1.85D-05  0.00D+00 EMaxC= 1.00D-01 BMatC= 7.21D-07 BMatP= 4.81D-06
 IDIUse=1 WtCom= 1.00D+00 WtEn= 0.00D+00
 Coeff-Com:  0.465D-03-0.770D-03-0.267D-02-0.600D-02-0.207D-01-0.396D-01
 Coeff-Com:  0.971D-01 0.334D+00 0.638D+00
 Coeff:      0.465D-03-0.770D-03-0.267D-02-0.600D-02-0.207D-01-0.396D-01
 Coeff:      0.971D-01 0.334D+00 0.638D+00
 Gap=     0.121 Goal=   None    Shift=    0.000
 RMSDP=1.43D-06 MaxDP=1.68D-04 DE=-7.76D-06 OVMax= 7.73D-04

 Cycle  10  Pass 1  IDiag  1:
 RMSU=  9.47D-07    CP:  9.64D-01  1.49D+00  6.87D-01  6.25D-01  8.71D-01
                    CP:  9.05D-01  1.06D+00  1.12D+00  1.06D+00
 E= -4069.81206117750     Delta-E=       -0.000001647324 Rises=F Damp=F
 DIIS: error= 1.03D-05 at cycle  10 NSaved=  10.
 NSaved=10 IEnMin=10 EnMin= -4069.81206117750     IErMin=10 ErrMin= 1.03D-05
 ErrMax= 1.03D-05  0.00D+00 EMaxC= 1.00D-01 BMatC= 1.70D-07 BMatP= 7.21D-07
 IDIUse=1 WtCom= 1.00D+00 WtEn= 0.00D+00
 Coeff-Com: -0.429D-03 0.899D-03 0.124D-02 0.112D-02-0.365D-02-0.308D-01
 Coeff-Com: -0.461D-01-0.745D-01 0.242D+00 0.910D+00
 Coeff:     -0.429D-03 0.899D-03 0.124D-02 0.112D-02-0.365D-02-0.308D-01
 Coeff:     -0.461D-01-0.745D-01 0.242D+00 0.910D+00
 Gap=     0.121 Goal=   None    Shift=    0.000
 RMSDP=1.25D-06 MaxDP=1.41D-04 DE=-1.65D-06 OVMax= 6.32D-04

 Cycle  11  Pass 1  IDiag  1:
 RMSU=  5.28D-07    CP:  9.64D-01  1.49D+00  6.87D-01  6.25D-01  8.73D-01
                    CP:  9.15D-01  1.11D+00  1.24D+00  1.40D+00  1.37D+00
 E= -4069.81206198744     Delta-E=       -0.000000809934 Rises=F Damp=F
 DIIS: error= 3.94D-06 at cycle  11 NSaved=  11.
 NSaved=11 IEnMin=11 EnMin= -4069.81206198744     IErMin=11 ErrMin= 3.94D-06
 ErrMax= 3.94D-06  0.00D+00 EMaxC= 1.00D-01 BMatC= 6.41D-08 BMatP= 1.70D-07
 IDIUse=1 WtCom= 1.00D+00 WtEn= 0.00D+00
 Coeff-Com: -0.330D-03 0.642D-03 0.134D-02 0.212D-02 0.436D-02-0.821D-02
 Coeff-Com: -0.423D-01-0.131D+00-0.345D-01 0.478D+00 0.730D+00
 Coeff:     -0.330D-03 0.642D-03 0.134D-02 0.212D-02 0.436D-02-0.821D-02
 Coeff:     -0.423D-01-0.131D+00-0.345D-01 0.478D+00 0.730D+00
 Gap=     0.121 Goal=   None    Shift=    0.000
 RMSDP=6.98D-07 MaxDP=6.41D-05 DE=-8.10D-07 OVMax= 3.62D-04

 Cycle  12  Pass 1  IDiag  1:
 RMSU=  2.65D-07    CP:  9.64D-01  1.49D+00  6.87D-01  6.25D-01  8.74D-01
                    CP:  9.18D-01  1.13D+00  1.30D+00  1.57D+00  1.76D+00
                    CP:  1.20D+00
 E= -4069.81206225977     Delta-E=       -0.000000272335 Rises=F Damp=F
 DIIS: error= 2.61D-06 at cycle  12 NSaved=  12.
 NSaved=12 IEnMin=12 EnMin= -4069.81206225977     IErMin=12 ErrMin= 2.61D-06
 ErrMax= 2.61D-06  0.00D+00 EMaxC= 1.00D-01 BMatC= 1.48D-08 BMatP= 6.41D-08
 IDIUse=1 WtCom= 1.00D+00 WtEn= 0.00D+00
 Coeff-Com: -0.187D-07-0.168D-04 0.182D-03 0.511D-03 0.332D-02 0.410D-02
 Coeff-Com:  0.272D-02-0.332D-01-0.731D-01-0.678D-01 0.243D+00 0.921D+00
 Coeff:     -0.187D-07-0.168D-04 0.182D-03 0.511D-03 0.332D-02 0.410D-02
 Coeff:      0.272D-02-0.332D-01-0.731D-01-0.678D-01 0.243D+00 0.921D+00
 Gap=     0.121 Goal=   None    Shift=    0.000
 RMSDP=4.46D-07 MaxDP=3.24D-05 DE=-2.72D-07 OVMax= 2.57D-04

 Cycle  13  Pass 1  IDiag  1:
 RMSU=  1.68D-07    CP:  9.64D-01  1.49D+00  6.87D-01  6.25D-01  8.74D-01
                    CP:  9.18D-01  1.13D+00  1.33D+00  1.68D+00  2.00D+00
                    CP:  1.61D+00  1.27D+00
 E= -4069.81206235459     Delta-E=       -0.000000094820 Rises=F Damp=F
 DIIS: error= 1.34D-06 at cycle  13 NSaved=  13.
 NSaved=13 IEnMin=13 EnMin= -4069.81206235459     IErMin=13 ErrMin= 1.34D-06
 ErrMax= 1.34D-06  0.00D+00 EMaxC= 1.00D-01 BMatC= 8.38D-09 BMatP= 1.48D-08
 IDIUse=1 WtCom= 1.00D+00 WtEn= 0.00D+00
 Coeff-Com:  0.121D-03-0.247D-03-0.371D-03-0.457D-03 0.606D-03 0.500D-02
 Coeff-Com:  0.190D-01 0.243D-01-0.345D-01-0.239D+00-0.164D+00 0.604D+00
 Coeff-Com:  0.785D+00
 Coeff:      0.121D-03-0.247D-03-0.371D-03-0.457D-03 0.606D-03 0.500D-02
 Coeff:      0.190D-01 0.243D-01-0.345D-01-0.239D+00-0.164D+00 0.604D+00
 Coeff:      0.785D+00
 Gap=     0.121 Goal=   None    Shift=    0.000
 RMSDP=3.45D-07 MaxDP=2.32D-05 DE=-9.48D-08 OVMax= 1.91D-04

 Cycle  14  Pass 1  IDiag  1:
 RMSU=  7.69D-08    CP:  9.64D-01  1.49D+00  6.87D-01  6.25D-01  8.75D-01
                    CP:  9.19D-01  1.14D+00  1.36D+00  1.75D+00  2.19D+00
                    CP:  1.87D+00  1.79D+00  1.09D+00
 E= -4069.81206239182     Delta-E=       -0.000000037227 Rises=F Damp=F
 DIIS: error= 8.48D-07 at cycle  14 NSaved=  14.
 NSaved=14 IEnMin=14 EnMin= -4069.81206239182     IErMin=14 ErrMin= 8.48D-07
 ErrMax= 8.48D-07  0.00D+00 EMaxC= 1.00D-01 BMatC= 1.23D-09 BMatP= 8.38D-09
 IDIUse=1 WtCom= 1.00D+00 WtEn= 0.00D+00
 Coeff-Com:  0.664D-04-0.131D-03-0.246D-03-0.385D-03-0.462D-03 0.123D-02
 Coeff-Com:  0.102D-01 0.198D-01 0.385D-02-0.981D-01-0.145D+00 0.965D-01
 Coeff-Com:  0.397D+00 0.716D+00
 Coeff:      0.664D-04-0.131D-03-0.246D-03-0.385D-03-0.462D-03 0.123D-02
 Coeff:      0.102D-01 0.198D-01 0.385D-02-0.981D-01-0.145D+00 0.965D-01
 Coeff:      0.397D+00 0.716D+00
 Gap=     0.121 Goal=   None    Shift=    0.000
 RMSDP=1.03D-07 MaxDP=6.93D-06 DE=-3.72D-08 OVMax= 6.18D-05

 Cycle  15  Pass 1  IDiag  1:
 RMSU=  3.89D-08    CP:  9.64D-01  1.49D+00  6.87D-01  6.25D-01  8.75D-01
                    CP:  9.18D-01  1.14D+00  1.36D+00  1.77D+00  2.23D+00
                    CP:  1.98D+00  1.93D+00  1.33D+00  1.03D+00
 E= -4069.81206239592     Delta-E=       -0.000000004100 Rises=F Damp=F
 DIIS: error= 4.55D-07 at cycle  15 NSaved=  15.
 NSaved=15 IEnMin=15 EnMin= -4069.81206239592     IErMin=15 ErrMin= 4.55D-07
 ErrMax= 4.55D-07  0.00D+00 EMaxC= 1.00D-01 BMatC= 2.34D-10 BMatP= 1.23D-09
 IDIUse=1 WtCom= 1.00D+00 WtEn= 0.00D+00
 Coeff-Com:  0.522D-05-0.860D-05-0.325D-04-0.817D-04-0.301D-03-0.534D-03
 Coeff-Com:  0.999D-03 0.273D-02 0.866D-02 0.259D-02-0.317D-01-0.717D-01
 Coeff-Com:  0.233D-01 0.308D+00 0.758D+00
 Coeff:      0.522D-05-0.860D-05-0.325D-04-0.817D-04-0.301D-03-0.534D-03
 Coeff:      0.999D-03 0.273D-02 0.866D-02 0.259D-02-0.317D-01-0.717D-01
 Coeff:      0.233D-01 0.308D+00 0.758D+00
 Gap=     0.121 Goal=   None    Shift=    0.000
 RMSDP=4.10D-08 MaxDP=2.71D-06 DE=-4.10D-09 OVMax= 2.38D-05

 Cycle  16  Pass 1  IDiag  1:
 RMSU=  1.87D-08    CP:  9.64D-01  1.49D+00  6.87D-01  6.25D-01  8.75D-01
                    CP:  9.18D-01  1.14D+00  1.36D+00  1.77D+00  2.25D+00
                    CP:  2.00D+00  1.99D+00  1.40D+00  1.25D+00  1.15D+00
 E= -4069.81206239680     Delta-E=       -0.000000000884 Rises=F Damp=F
 DIIS: error= 2.53D-07 at cycle  16 NSaved=  16.
 NSaved=16 IEnMin=16 EnMin= -4069.81206239680     IErMin=16 ErrMin= 2.53D-07
 ErrMax= 2.53D-07  0.00D+00 EMaxC= 1.00D-01 BMatC= 7.75D-11 BMatP= 2.34D-10
 IDIUse=1 WtCom= 1.00D+00 WtEn= 0.00D+00
 Coeff-Com: -0.143D-04 0.290D-04 0.472D-04 0.536D-04-0.303D-04-0.626D-03
 Coeff-Com: -0.194D-02-0.426D-02 0.419D-02 0.260D-01 0.206D-01-0.633D-01
 Coeff-Com: -0.865D-01-0.284D-01 0.386D+00 0.748D+00
 Coeff:     -0.143D-04 0.290D-04 0.472D-04 0.536D-04-0.303D-04-0.626D-03
 Coeff:     -0.194D-02-0.426D-02 0.419D-02 0.260D-01 0.206D-01-0.633D-01
 Coeff:     -0.865D-01-0.284D-01 0.386D+00 0.748D+00
 Gap=     0.121 Goal=   None    Shift=    0.000
 RMSDP=2.32D-08 MaxDP=1.61D-06 DE=-8.84D-10 OVMax= 1.54D-05

 Cycle  17  Pass 1  IDiag  1:
 RMSU=  1.09D-08    CP:  9.64D-01  1.49D+00  6.87D-01  6.25D-01  8.75D-01
                    CP:  9.18D-01  1.14D+00  1.36D+00  1.78D+00  2.25D+00
                    CP:  2.01D+00  2.02D+00  1.45D+00  1.35D+00  1.45D+00
                    CP:  1.25D+00
 E= -4069.81206239719     Delta-E=       -0.000000000386 Rises=F Damp=F
 DIIS: error= 1.28D-07 at cycle  17 NSaved=  17.
 NSaved=17 IEnMin=17 EnMin= -4069.81206239719     IErMin=17 ErrMin= 1.28D-07
 ErrMax= 1.28D-07  0.00D+00 EMaxC= 1.00D-01 BMatC= 1.97D-11 BMatP= 7.75D-11
 IDIUse=1 WtCom= 1.00D+00 WtEn= 0.00D+00
 Coeff-Com: -0.780D-05 0.152D-04 0.305D-04 0.448D-04 0.811D-04-0.138D-03
 Coeff-Com: -0.101D-02-0.293D-02 0.415D-04 0.104D-01 0.181D-01-0.882D-02
 Coeff-Com: -0.416D-01-0.100D+00-0.361D-01 0.335D+00 0.827D+00
 Coeff:     -0.780D-05 0.152D-04 0.305D-04 0.448D-04 0.811D-04-0.138D-03
 Coeff:     -0.101D-02-0.293D-02 0.415D-04 0.104D-01 0.181D-01-0.882D-02
 Coeff:     -0.416D-01-0.100D+00-0.361D-01 0.335D+00 0.827D+00
 Gap=     0.121 Goal=   None    Shift=    0.000
 RMSDP=1.41D-08 MaxDP=1.06D-06 DE=-3.86D-10 OVMax= 7.92D-06

 Cycle  18  Pass 1  IDiag  1:
 RMSU=  5.07D-09    CP:  9.64D-01  1.49D+00  6.87D-01  6.25D-01  8.75D-01
                    CP:  9.18D-01  1.14D+00  1.36D+00  1.78D+00  2.25D+00
                    CP:  2.02D+00  2.03D+00  1.47D+00  1.42D+00  1.62D+00
                    CP:  1.66D+00  1.35D+00
 E= -4069.81206239731     Delta-E=       -0.000000000120 Rises=F Damp=F
 DIIS: error= 5.93D-08 at cycle  18 NSaved=  18.
 NSaved=18 IEnMin=18 EnMin= -4069.81206239731     IErMin=18 ErrMin= 5.93D-08
 ErrMax= 5.93D-08  0.00D+00 EMaxC= 1.00D-01 BMatC= 6.52D-12 BMatP= 1.97D-11
 IDIUse=1 WtCom= 1.00D+00 WtEn= 0.00D+00
 Coeff-Com:  0.137D-05-0.308D-05-0.201D-05 0.180D-05 0.631D-04 0.165D-03
 Coeff-Com:  0.300D-03 0.175D-04-0.126D-02-0.503D-02 0.104D-02 0.189D-01
 Coeff-Com:  0.145D-01-0.374D-01-0.159D+00-0.127D+00 0.359D+00 0.936D+00
 Coeff:      0.137D-05-0.308D-05-0.201D-05 0.180D-05 0.631D-04 0.165D-03
 Coeff:      0.300D-03 0.175D-04-0.126D-02-0.503D-02 0.104D-02 0.189D-01
 Coeff:      0.145D-01-0.374D-01-0.159D+00-0.127D+00 0.359D+00 0.936D+00
 Gap=     0.121 Goal=   None    Shift=    0.000
 RMSDP=1.10D-08 MaxDP=8.45D-07 DE=-1.20D-10 OVMax= 7.40D-06

 Cycle  19  Pass 1  IDiag  1:
 RMSU=  3.19D-09    CP:  9.64D-01  1.49D+00  6.87D-01  6.25D-01  8.75D-01
                    CP:  9.18D-01  1.14D+00  1.36D+00  1.78D+00  2.25D+00
                    CP:  2.02D+00  2.03D+00  1.48D+00  1.46D+00  1.76D+00
                    CP:  1.97D+00  1.86D+00  1.26D+00
 E= -4069.81206239710     Delta-E=        0.000000000211 Rises=F Damp=F
 DIIS: error= 4.50D-08 at cycle  19 NSaved=  19.
 NSaved=19 IEnMin=18 EnMin= -4069.81206239731     IErMin=19 ErrMin= 4.50D-08
 ErrMax= 4.50D-08  0.00D+00 EMaxC= 1.00D-01 BMatC= 2.52D-12 BMatP= 6.52D-12
 IDIUse=1 WtCom= 1.00D+00 WtEn= 0.00D+00
 Coeff-Com:  0.321D-05-0.650D-05-0.107D-04-0.128D-04 0.178D-04 0.142D-03
 Coeff-Com:  0.508D-03 0.888D-03-0.750D-03-0.669D-02-0.511D-02 0.145D-01
 Coeff-Com:  0.226D-01 0.739D-02-0.920D-01-0.193D+00-0.387D-01 0.587D+00
 Coeff-Com:  0.703D+00
 Coeff:      0.321D-05-0.650D-05-0.107D-04-0.128D-04 0.178D-04 0.142D-03
 Coeff:      0.508D-03 0.888D-03-0.750D-03-0.669D-02-0.511D-02 0.145D-01
 Coeff:      0.226D-01 0.739D-02-0.920D-01-0.193D+00-0.387D-01 0.587D+00
 Coeff:      0.703D+00
 Gap=     0.121 Goal=   None    Shift=    0.000
 RMSDP=5.98D-09 MaxDP=4.09D-07 DE= 2.11D-10 OVMax= 3.34D-06

 SCF Done:  E(RCAM-B3LYP) =  -4069.81206240     A.U. after   19 cycles
            NFock= 19  Conv=0.60D-08     -V/T= 2.0102
 KE= 4.028801679973D+03 PE=-3.934385907486D+04 EE= 1.631381907337D+04
 Leave Link  502 at Fri Sep 10 18:12:55 2021, MaxMem= 23488102400 cpu:           13459.7 elap:             585.0
 (Enter /sw/apps/gaussian-16.0/g16/l801.exe)
 DoSCS=F DFT=T ScalE2(SS,OS)=  1.000000  1.000000
 ExpMin= 3.36D-02 ExpMax= 4.95D+03 ExpMxC= 7.45D+02 IAcc=3 IRadAn=         5 AccDes= 0.00D+00
 HarFok:  IExCor=  205 AccDes= 0.00D+00 IRadAn=         5 IDoV=-2 UseB2=F ITyADJ=14
 ICtDFT= 12500011 ScaDFX=  1.000000  1.000000  1.000000  1.000000
 GSVD:  LWork=       -9588 too small for GESVD, short by       45590 words or       45590 for optimal perf.
 Largest valence mixing into a core orbital is  2.03D-04
 Largest core mixing into a valence orbital is  5.24D-05
 Range of M.O.s used for correlation:    95  1572
 NBasis=  1572 NAE=   312 NBE=   312 NFC=    94 NFV=     0
 NROrb=   1478 NOA=   218 NOB=   218 NVA=  1260 NVB=  1260
 Leave Link  801 at Fri Sep 10 18:12:56 2021, MaxMem= 23488102400 cpu:               7.8 elap:               0.4
 (Enter /sw/apps/gaussian-16.0/g16/l914.exe)
 RHF ground state
 Two-electron integrals replicated using symmetry.
 MDV= 23488102400 DFT=T DoStab=F Mixed=T DoRPA=T DoScal=F NonHer=T
 Making orbital integer symmetry assigments:
 Orbital symmetries:
       Occupied  (A) (A) (A) (A) (A) (A) (A) (A) (A) (A) (A) (A)
                 (A) (A) (A) (A) (A) (A) (A) (A) (A) (A) (A) (A)
                 (A) (A) (A) (A) (A) (A) (A) (A) (A) (A) (A) (A)
                 (A) (A) (A) (A) (A) (A) (A) (A) (A) (A) (A) (A)
                 (A) (A) (A) (A) (A) (A) (A) (A) (A) (A) (A) (A)
                 (A) (A) (A) (A) (A) (A) (A) (A) (A) (A) (A) (A)
                 (A) (A) (A) (A) (A) (A) (A) (A) (A) (A) (A) (A)
                 (A) (A) (A) (A) (A) (A) (A) (A) (A) (A) (A) (A)
                 (A) (A) (A) (A) (A) (A) (A) (A) (A) (A) (A) (A)
                 (A) (A) (A) (A) (A) (A) (A) (A) (A) (A) (A) (A)
                 (A) (A) (A) (A) (A) (A) (A) (A) (A) (A) (A) (A)
                 (A) (A) (A) (A) (A) (A) (A) (A) (A) (A) (A) (A)
                 (A) (A) (A) (A) (A) (A) (A) (A) (A) (A) (A) (A)
                 (A) (A) (A) (A) (A) (A) (A) (A) (A) (A) (A) (A)
                 (A) (A) (A) (A) (A) (A) (A) (A) (A) (A) (A) (A)
                 (A) (A) (A) (A) (A) (A) (A) (A) (A) (A) (A) (A)
                 (A) (A) (A) (A) (A) (A) (A) (A) (A) (A) (A) (A)
                 (A) (A) (A) (A) (A) (A) (A) (A) (A) (A) (A) (A)
                 (A) (A) (A) (A) (A) (A) (A) (A) (A) (A) (A) (A)
                 (A) (A) (A) (A) (A) (A) (A) (A) (A) (A) (A) (A)
                 (A) (A) (A) (A) (A) (A) (A) (A) (A) (A) (A) (A)
                 (A) (A) (A) (A) (A) (A) (A) (A) (A) (A) (A) (A)
                 (A) (A) (A) (A) (A) (A) (A) (A) (A) (A) (A) (A)
                 (A) (A) (A) (A) (A) (A) (A) (A) (A) (A) (A) (A)
                 (A) (A) (A) (A) (A) (A) (A) (A) (A) (A) (A) (A)
                 (A) (A) (A) (A) (A) (A) (A) (A) (A) (A) (A) (A)
       Virtual   (A) (A) (A) (A) (A) (A) (A) (A) (A) (A) (A) (A)
                 (A) (A) (A) (A) (A) (A) (A) (A) (A) (A) (A) (A)
                 (A) (A) (A) (A) (A) (A) (A) (A) (A) (A) (A) (A)
                 (A) (A) (A) (A) (A) (A) (A) (A) (A) (A) (A) (A)
                 (A) (A) (A) (A) (A) (A) (A) (A) (A) (A) (A) (A)
                 (A) (A) (A) (A) (A) (A) (A) (A) (A) (A) (A) (A)
                 (A) (A) (A) (A) (A) (A) (A) (A) (A) (A) (A) (A)
                 (A) (A) (A) (A) (A) (A) (A) (A) (A) (A) (A) (A)
                 (A) (A) (A) (A) (A) (A) (A) (A) (A) (A) (A) (A)
                 (A) (A) (A) (A) (A) (A) (A) (A) (A) (A) (A) (A)
                 (A) (A) (A) (A) (A) (A) (A) (A) (A) (A) (A) (A)
                 (A) (A) (A) (A) (A) (A) (A) (A) (A) (A) (A) (A)
                 (A) (A) (A) (A) (A) (A) (A) (A) (A) (A) (A) (A)
                 (A) (A) (A) (A) (A) (A) (A) (A) (A) (A) (A) (A)
                 (A) (A) (A) (A) (A) (A) (A) (A) (A) (A) (A) (A)
                 (A) (A) (A) (A) (A) (A) (A) (A) (A) (A) (A) (A)
                 (A) (A) (A) (A) (A) (A) (A) (A) (A) (A) (A) (A)
                 (A) (A) (A) (A) (A) (A) (A) (A) (A) (A) (A) (A)
                 (A) (A) (A) (A) (A) (A) (A) (A) (A) (A) (A) (A)
                 (A) (A) (A) (A) (A) (A) (A) (A) (A) (A) (A) (A)
                 (A) (A) (A) (A) (A) (A) (A) (A) (A) (A) (A) (A)
                 (A) (A) (A) (A) (A) (A) (A) (A) (A) (A) (A) (A)
                 (A) (A) (A) (A) (A) (A) (A) (A) (A) (A) (A) (A)
                 (A) (A) (A) (A) (A) (A) (A) (A) (A) (A) (A) (A)
                 (A) (A) (A) (A) (A) (A) (A) (A) (A) (A) (A) (A)
                 (A) (A) (A) (A) (A) (A) (A) (A) (A) (A) (A) (A)
                 (A) (A) (A) (A) (A) (A) (A) (A) (A) (A) (A) (A)
                 (A) (A) (A) (A) (A) (A) (A) (A) (A) (A) (A) (A)
                 (A) (A) (A) (A) (A) (A) (A) (A) (A) (A) (A) (A)
                 (A) (A) (A) (A) (A) (A) (A) (A) (A) (A) (A) (A)
                 (A) (A) (A) (A) (A) (A) (A) (A) (A) (A) (A) (A)
                 (A) (A) (A) (A) (A) (A) (A) (A) (A) (A) (A) (A)
                 (A) (A) (A) (A) (A) (A) (A) (A) (A) (A) (A) (A)
                 (A) (A) (A) (A) (A) (A) (A) (A) (A) (A) (A) (A)
                 (A) (A) (A) (A) (A) (A) (A) (A) (A) (A) (A) (A)
                 (A) (A) (A) (A) (A) (A) (A) (A) (A) (A) (A) (A)
                 (A) (A) (A) (A) (A) (A) (A) (A) (A) (A) (A) (A)
                 (A) (A) (A) (A) (A) (A) (A) (A) (A) (A) (A) (A)
                 (A) (A) (A) (A) (A) (A) (A) (A) (A) (A) (A) (A)
                 (A) (A) (A) (A) (A) (A) (A) (A) (A) (A) (A) (A)
                 (A) (A) (A) (A) (A) (A) (A) (A) (A) (A) (A) (A)
                 (A) (A) (A) (A) (A) (A) (A) (A) (A) (A) (A) (A)
                 (A) (A) (A) (A) (A) (A) (A) (A) (A) (A) (A) (A)
                 (A) (A) (A) (A) (A) (A) (A) (A) (A) (A) (A) (A)
                 (A) (A) (A) (A) (A) (A) (A) (A) (A) (A) (A) (A)
                 (A) (A) (A) (A) (A) (A) (A) (A) (A) (A) (A) (A)
                 (A) (A) (A) (A) (A) (A) (A) (A) (A) (A) (A) (A)
                 (A) (A) (A) (A) (A) (A) (A) (A) (A) (A) (A) (A)
                 (A) (A) (A) (A) (A) (A) (A) (A) (A) (A) (A) (A)
                 (A) (A) (A) (A) (A) (A) (A) (A) (A) (A) (A) (A)
                 (A) (A) (A) (A) (A) (A) (A) (A) (A) (A) (A) (A)
                 (A) (A) (A) (A) (A) (A) (A) (A) (A) (A) (A) (A)
                 (A) (A) (A) (A) (A) (A) (A) (A) (A) (A) (A) (A)
                 (A) (A) (A) (A) (A) (A) (A) (A) (A) (A) (A) (A)
                 (A) (A) (A) (A) (A) (A) (A) (A) (A) (A) (A) (A)
                 (A) (A) (A) (A) (A) (A) (A) (A) (A) (A) (A) (A)
                 (A) (A) (A) (A) (A) (A) (A) (A) (A) (A) (A) (A)
                 (A) (A) (A) (A) (A) (A) (A) (A) (A) (A) (A) (A)
                 (A) (A) (A) (A) (A) (A) (A) (A) (A) (A) (A) (A)
                 (A) (A) (A) (A) (A) (A) (A) (A) (A) (A) (A) (A)
                 (A) (A) (A) (A) (A) (A) (A) (A) (A) (A) (A) (A)
                 (A) (A) (A) (A) (A) (A) (A) (A) (A) (A) (A) (A)
                 (A) (A) (A) (A) (A) (A) (A) (A) (A) (A) (A) (A)
                 (A) (A) (A) (A) (A) (A) (A) (A) (A) (A) (A) (A)
                 (A) (A) (A) (A) (A) (A) (A) (A) (A) (A) (A) (A)
                 (A) (A) (A) (A) (A) (A) (A) (A) (A) (A) (A) (A)
                 (A) (A) (A) (A) (A) (A) (A) (A) (A) (A) (A) (A)
                 (A) (A) (A) (A) (A) (A) (A) (A) (A) (A) (A) (A)
                 (A) (A) (A) (A) (A) (A) (A) (A) (A) (A) (A) (A)
                 (A) (A) (A) (A) (A) (A) (A) (A) (A) (A) (A) (A)
                 (A) (A) (A) (A) (A) (A) (A) (A) (A) (A) (A) (A)
                 (A) (A) (A) (A) (A) (A) (A) (A) (A) (A) (A) (A)
                 (A) (A) (A) (A) (A) (A) (A) (A) (A) (A) (A) (A)
                 (A) (A) (A) (A) (A) (A) (A) (A) (A) (A) (A) (A)
                 (A) (A) (A) (A) (A) (A) (A) (A) (A) (A) (A) (A)
                 (A) (A) (A) (A) (A) (A) (A) (A) (A) (A) (A) (A)
                 (A) (A) (A) (A) (A) (A) (A) (A) (A) (A) (A) (A)
                 (A) (A) (A) (A) (A) (A) (A) (A) (A) (A) (A) (A)
                 (A) (A) (A) (A) (A) (A) (A) (A) (A) (A) (A) (A)
                 (A) (A) (A) (A) (A) (A) (A) (A) (A) (A) (A) (A)
                 (A) (A) (A) (A) (A) (A) (A) (A) (A) (A) (A) (A)
                 (A) (A) (A) (A) (A) (A) (A) (A) (A) (A) (A) (A)
                 (A) (A) (A) (A) (A) (A) (A) (A) (A) (A) (A) (A)
                 (A) (A) (A) (A) (A) (A) (A) (A) (A) (A) (A) (A)
                 (A) (A) (A) (A) (A) (A) (A) (A) (A) (A) (A) (A)
                 (A) (A) (A) (A) (A) (A) (A) (A) (A) (A) (A) (A)
                 (A) (A) (A) (A) (A) (A) (A) (A) (A) (A) (A) (A)
                 (A) (A) (A) (A) (A) (A) (A) (A) (A) (A) (A) (A)
                 (A) (A) (A) (A) (A) (A) (A) (A) (A) (A) (A) (A)
                 (A) (A) (A) (A) (A) (A) (A) (A) (A) (A) (A) (A)
                 (A) (A) (A) (A) (A) (A) (A) (A) (A) (A) (A) (A)
                 (A) (A) (A) (A) (A) (A) (A) (A) (A) (A) (A) (A)
                 (A) (A) (A) (A) (A) (A) (A) (A) (A) (A) (A) (A)
                 (A) (A) (A) (A) (A) (A) (A) (A) (A) (A) (A) (A)
                 (A) (A) (A) (A) (A) (A) (A) (A) (A) (A) (A) (A)
                 (A) (A) (A) (A) (A) (A) (A) (A) (A) (A) (A) (A)
                 (A) (A) (A) (A) (A) (A) (A) (A) (A) (A) (A) (A)
                 (A) (A) (A) (A) (A) (A) (A) (A) (A) (A) (A) (A)
                 (A) (A) (A) (A) (A) (A) (A) (A) (A) (A) (A) (A)
                 (A) (A) (A) (A) (A) (A) (A) (A) (A) (A) (A) (A)
                 (A) (A) (A) (A) (A) (A) (A) (A) (A) (A) (A) (A)
                 (A) (A) (A) (A) (A) (A) (A) (A) (A) (A) (A) (A)
                 (A) (A) (A) (A) (A) (A) (A) (A) (A) (A) (A) (A)
                 (A) (A) (A) (A) (A) (A) (A) (A) (A) (A) (A) (A)
                 (A) (A) (A) (A) (A) (A) (A) (A) (A) (A) (A) (A)
    20 initial guesses have been made.
 Convergence on wavefunction:    0.001000000000000
 Davidson Disk Diagonalization:  ConvIn= 1.00D-03 SkipCon=T Conv= 1.00D-03.
 Max sub-space:  2000 roots to seek:    20 dimension of matrix:       549360
 Iteration     1 Dimension    20 NMult     0 NNew     20
 CISAX will form    20 AO SS matrices at one time.
 NMat=    20 NSing=    20 JSym2X= 0.
 FoFJK:  IHMeth= 1 ICntrl=       0 DoSepK=T KAlg= 0 I1Cent=           0 FoldK=F
 IRaf=         1 NMat=      40 IRICut=       1 DoRegI=T DoRafI=F ISym2E= 0 IDoP0=3 IntGTp=3.
 FoFCou: FMM=T IPFlag=           0 FMFlag=      100000 FMFlg1=        2001
         NFxFlg=           0 DoJE=F BraDBF=F KetDBF=F FulRan=T
         wScrn=  0.000000 ICntrl=       500 IOpCl=  0 I1Cent=           0 NGrid=           0
         NMat0=   20 NMatS0=     20 NMatT0=    0 NMatD0=   20 NMtDS0=    0 NMtDT0=    0
 Symmetry not used in FoFCou.
 FMM levels:  10  Number of levels for PrismC:   9
 New state      2 was old state      7
 New state      3 was old state      6
 New state      5 was old state      2
 Excitation Energies [eV] at current iteration:
 Root      1 :     2.485571716209020
 Root      2 :     2.611830882821567
 Root      3 :     2.615733880954930
 Root      4 :     2.620181970237747
 Root      5 :     2.680800997068289
 Root      6 :     2.690077292387660
 Root      7 :     3.271736226656987
 Root      8 :     3.417159885673810
 Root      9 :     3.630401286252262
 Root     10 :     3.667572591434390
 Root     11 :     3.738923921760480
 Root     12 :     3.762060768776206
 Root     13 :     4.301725533175000
 Root     14 :     4.306255185708014
 Root     15 :     4.388589320140190
 Root     16 :     4.553735733417816
 Root     17 :     4.713380608717229
 Root     18 :     4.751546853221065
 Root     19 :     4.852157571404457
 Root     20 :     4.859612690825816
 Iteration     2 Dimension    30 NMult    20 NNew     10
 CISAX will form    10 AO SS matrices at one time.
 NMat=    10 NSing=    10 JSym2X= 0.
 New state      1 was old state      5
 Root      1 not converged, maximum delta is    0.188453492511462
 Root      2 not converged, maximum delta is    0.189358642425451
 Root      3 not converged, maximum delta is    0.235293180155220
 New state      4 was old state      1
 Root      4 not converged, maximum delta is    0.002498214686534
 New state      5 was old state      4
 Root      5 not converged, maximum delta is    0.004556500440285
 Excitation Energies [eV] at current iteration:
 Root      1 :     1.798534138514986   Change is   -0.882266858553303
 Root      2 :     2.183033104123984   Change is   -0.428797778697583
 Root      3 :     2.238299270307836   Change is   -0.377434610647094
 Root      4 :     2.485119318666579   Change is   -0.000452397542441
 Root      5 :     2.619642459235843   Change is   -0.000539511001905
 Iteration     3 Dimension    40 NMult    30 NNew     10
 CISAX will form    10 AO SS matrices at one time.
 NMat=    10 NSing=    10 JSym2X= 0.
 Root      1 not converged, maximum delta is    0.071319176675764
 Root      2 not converged, maximum delta is    0.287773975709460
 Root      3 not converged, maximum delta is    0.039751262208375
 No map to state      4
 New state      5 was old state      4
 Root      5 has converged.
 Excitation Energies [eV] at current iteration:
 Root      1 :     1.691722109326632   Change is   -0.106812029188354
 Root      2 :     1.920356617964011   Change is   -0.262676486159973
 Root      3 :     2.197735561073532   Change is   -0.040563709234304
 Root      4 :     2.326037953721890
 Root      5 :     2.485116351798910   Change is   -0.000002966867669
 Iteration     4 Dimension    48 NMult    40 NNew      8
 CISAX will form     8 AO SS matrices at one time.
 NMat=     8 NSing=     8 JSym2X= 0.
 Root      1 not converged, maximum delta is    0.013186364756327
 Root      2 not converged, maximum delta is    0.190248271047987
 Root      3 not converged, maximum delta is    0.158566052398584
 Root      4 not converged, maximum delta is    0.191285104701701
 Root      5 has converged.
 Excitation Energies [eV] at current iteration:
 Root      1 :     1.674961929013136   Change is   -0.016760180313496
 Root      2 :     1.713935109965973   Change is   -0.206421507998038
 Root      3 :     2.189373127272711   Change is   -0.008362433800821
 Root      4 :     2.198472061831761   Change is   -0.127565891890129
 Root      5 :     2.485116350146203   Change is   -0.000000001652707
 Iteration     5 Dimension    56 NMult    48 NNew      8
 CISAX will form     8 AO SS matrices at one time.
 NMat=     8 NSing=     8 JSym2X= 0.
 Root      1 not converged, maximum delta is    0.028894358744786
 Root      2 not converged, maximum delta is    0.029110654071736
 Root      3 not converged, maximum delta is    0.340049640298134
 Root      4 not converged, maximum delta is    0.335604969267482
 Root      5 has converged.
 Excitation Energies [eV] at current iteration:
 Root      1 :     1.673142136643188   Change is   -0.001819792369948
 Root      2 :     1.682949786195371   Change is   -0.030985323770601
 Root      3 :     2.185899253629515   Change is   -0.003473873643196
 Root      4 :     2.191809075062153   Change is   -0.006662986769608
 Root      5 :     2.485116349936376   Change is   -0.000000000209826
 Iteration     6 Dimension    64 NMult    56 NNew      8
 CISAX will form     8 AO SS matrices at one time.
 NMat=     8 NSing=     8 JSym2X= 0.
 Root      1 not converged, maximum delta is    0.034375548911735
 Root      2 not converged, maximum delta is    0.034378182823201
 Root      3 not converged, maximum delta is    0.054157251892594
 Root      4 not converged, maximum delta is    0.054099660299117
 Root      5 has converged.
 Excitation Energies [eV] at current iteration:
 Root      1 :     1.672850755473086   Change is   -0.000291381170102
 Root      2 :     1.678371439487436   Change is   -0.004578346707936
 Root      3 :     2.185012424057524   Change is   -0.000886829571991
 Root      4 :     2.191325478361942   Change is   -0.000483596700211
 Root      5 :     2.485116349274248   Change is   -0.000000000662128
 Iteration     7 Dimension    72 NMult    64 NNew      8
 CISAX will form     8 AO SS matrices at one time.
 NMat=     8 NSing=     8 JSym2X= 0.
 Root      1 not converged, maximum delta is    0.008170866140563
 Root      2 not converged, maximum delta is    0.008172001064460
 Root      3 not converged, maximum delta is    0.005825258062232
 Root      4 not converged, maximum delta is    0.006048559528459
 Root      5 has converged.
 Excitation Energies [eV] at current iteration:
 Root      1 :     1.672816297124046   Change is   -0.000034458349040
[...]
 Alpha virt. eigenvalues --    1.83576   1.83719   1.83980   1.84008   1.84271
 Alpha virt. eigenvalues --    1.84402   1.84640   1.84759   1.84871   1.85065
 Alpha virt. eigenvalues --    1.85221   1.85225   1.85378   1.85414   1.85580
 Alpha virt. eigenvalues --    1.85823   1.86001   1.86312   1.86490   1.86501
 Alpha virt. eigenvalues --    1.86738   1.86744   1.86963   1.87005   1.87134
 Alpha virt. eigenvalues --    1.87414   1.87569   1.87639   1.87824   1.87849
 Alpha virt. eigenvalues --    1.87998   1.88138   1.88272   1.88492   1.88668
 Alpha virt. eigenvalues --    1.88799   1.89016   1.89088   1.89212   1.89559
 Alpha virt. eigenvalues --    1.89682   1.89748   1.89969   1.90073   1.90276
 Alpha virt. eigenvalues --    1.90717   1.90990   1.91318   1.91401   1.91573
 Alpha virt. eigenvalues --    1.91658   1.92118   1.92256   1.92625   1.92741
 Alpha virt. eigenvalues --    1.92936   1.93262   1.93287   1.93637   1.94245
 Alpha virt. eigenvalues --    1.94431   1.94632   1.94936   1.95424   1.95701
 Alpha virt. eigenvalues --    1.95749   1.95891   1.95971   1.96109   1.96152
 Alpha virt. eigenvalues --    1.96245   1.96557   1.96588   1.96858   1.97031
 Alpha virt. eigenvalues --    1.97411   1.97640   1.97802   1.97885   1.98141
 Alpha virt. eigenvalues --    1.98251   1.98410   1.98657   1.99104   1.99183
 Alpha virt. eigenvalues --    1.99801   2.00000   2.00617   2.00835   2.00960
 Alpha virt. eigenvalues --    2.01176   2.01466   2.01630   2.01644   2.01664
 Alpha virt. eigenvalues --    2.01682   2.01887   2.02749   2.02799   2.03199
 Alpha virt. eigenvalues --    2.03289   2.03365   2.03453   2.03460   2.03598
 Alpha virt. eigenvalues --    2.04000   2.04121   2.04905   2.05086   2.05458
 Alpha virt. eigenvalues --    2.05733   2.06019   2.06367   2.06875   2.07077
 Alpha virt. eigenvalues --    2.07146   2.07452   2.08500   2.08657   2.08940
 Alpha virt. eigenvalues --    2.09084   2.09558   2.09690   2.10720   2.11138
 Alpha virt. eigenvalues --    2.11183   2.11499   2.11530   2.11586   2.11683
 Alpha virt. eigenvalues --    2.11946   2.12438   2.12530   2.12753   2.12801
 Alpha virt. eigenvalues --    2.12912   2.12960   2.13682   2.13770   2.14082
 Alpha virt. eigenvalues --    2.14416   2.15286   2.15504   2.15896   2.16171
 Alpha virt. eigenvalues --    2.16469   2.16697   2.16712   2.17261   2.17372
 Alpha virt. eigenvalues --    2.17655   2.17790   2.18015   2.18020   2.18135
 Alpha virt. eigenvalues --    2.18286   2.18723   2.18847   2.19289   2.19608
 Alpha virt. eigenvalues --    2.19886   2.20011   2.20174   2.20328   2.20510
 Alpha virt. eigenvalues --    2.21090   2.21324   2.21611   2.21707   2.21843
 Alpha virt. eigenvalues --    2.21943   2.22639   2.22795   2.23268   2.23464
 Alpha virt. eigenvalues --    2.24336   2.24538   2.24897   2.25128   2.26266
 Alpha virt. eigenvalues --    2.26511   2.26729   2.27068   2.27097   2.27279
 Alpha virt. eigenvalues --    2.28105   2.28384   2.29222   2.29538   2.29700
 Alpha virt. eigenvalues --    2.29957   2.30434   2.30664   2.30850   2.31047
 Alpha virt. eigenvalues --    2.31162   2.31323   2.32059   2.32358   2.33097
 Alpha virt. eigenvalues --    2.33300   2.33423   2.33577   2.34102   2.34255
 Alpha virt. eigenvalues --    2.35345   2.35347   2.35765   2.35978   2.36290
 Alpha virt. eigenvalues --    2.36417   2.36570   2.36586   2.37607   2.37811
 Alpha virt. eigenvalues --    2.38180   2.38479   2.38827   2.38843   2.39565
 Alpha virt. eigenvalues --    2.39748   2.40137   2.40393   2.40461   2.40877
 Alpha virt. eigenvalues --    2.41263   2.41266   2.41637   2.41793   2.42012
 Alpha virt. eigenvalues --    2.42181   2.42882   2.42956   2.43051   2.43518
 Alpha virt. eigenvalues --    2.44052   2.44125   2.44686   2.44866   2.44889
 Alpha virt. eigenvalues --    2.45072   2.45497   2.45662   2.46222   2.46351
 Alpha virt. eigenvalues --    2.46433   2.46581   2.46755   2.46860   2.47206
 Alpha virt. eigenvalues --    2.47486   2.47663   2.47993   2.49243   2.49522
 Alpha virt. eigenvalues --    2.50010   2.50011   2.50485   2.50545   2.51093
 Alpha virt. eigenvalues --    2.51323   2.51689   2.51845   2.52422   2.52431
 Alpha virt. eigenvalues --    2.52777   2.53230   2.53865   2.54056   2.54068
 Alpha virt. eigenvalues --    2.54379   2.54734   2.54904   2.55449   2.55758
 Alpha virt. eigenvalues --    2.57802   2.58166   2.58595   2.59010   2.60174
 Alpha virt. eigenvalues --    2.60337   2.60592   2.60981   2.61652   2.61915
 Alpha virt. eigenvalues --    2.62504   2.62505   2.62914   2.63209   2.63900
 Alpha virt. eigenvalues --    2.64190   2.64280   2.64577   2.65038   2.65195
 Alpha virt. eigenvalues --    2.65763   2.65907   2.66724   2.66868   2.66924
 Alpha virt. eigenvalues --    2.67137   2.67858   2.68072   2.68806   2.68891
 Alpha virt. eigenvalues --    2.68988   2.69069   2.69345   2.69670   2.69959
 Alpha virt. eigenvalues --    2.70229   2.70939   2.71119   2.71941   2.72004
 Alpha virt. eigenvalues --    2.72526   2.72612   2.72772   2.72806   2.73217
 Alpha virt. eigenvalues --    2.73405   2.73471   2.73498   2.74462   2.74580
 Alpha virt. eigenvalues --    2.74929   2.75117   2.76538   2.76610   2.77126
 Alpha virt. eigenvalues --    2.77186   2.77390   2.77661   2.78093   2.78355
 Alpha virt. eigenvalues --    2.78687   2.78775   2.79082   2.79203   2.80267
 Alpha virt. eigenvalues --    2.80319   2.80552   2.80717   2.81060   2.81210
 Alpha virt. eigenvalues --    2.81888   2.82022   2.82287   2.82421   2.83680
 Alpha virt. eigenvalues --    2.83716   2.83912   2.83932   2.84487   2.84614
 Alpha virt. eigenvalues --    2.84822   2.84994   2.85591   2.85757   2.86707
 Alpha virt. eigenvalues --    2.86942   2.87184   2.87583   2.88066   2.88290
 Alpha virt. eigenvalues --    2.88469   2.88696   2.88876   2.88944   2.90474
 Alpha virt. eigenvalues --    2.90716   2.91132   2.91172   2.93121   2.93376
 Alpha virt. eigenvalues --    2.93844   2.94150   2.94480   2.94667   2.95361
 Alpha virt. eigenvalues --    2.95495   2.95810   2.96178   2.96396   2.96438
 Alpha virt. eigenvalues --    2.96878   2.97154   2.97797   2.98107   2.98143
 Alpha virt. eigenvalues --    2.98318   2.98365   2.98559   2.98628   2.98818
 Alpha virt. eigenvalues --    2.98845   2.99002   2.99519   2.99879   2.99987
 Alpha virt. eigenvalues --    3.00023   3.00184   3.00403   3.00429   3.01037
 Alpha virt. eigenvalues --    3.01939   3.01966   3.01997   3.02138   3.02695
 Alpha virt. eigenvalues --    3.02827   3.02962   3.03259   3.03360   3.03743
 Alpha virt. eigenvalues --    3.04114   3.04122   3.04405   3.04504   3.04506
 Alpha virt. eigenvalues --    3.04804   3.05232   3.05446   3.06068   3.06270
 Alpha virt. eigenvalues --    3.06792   3.07014   3.08002   3.08073   3.09365
 Alpha virt. eigenvalues --    3.09471   3.09673   3.10415   3.10431   3.10783
 Alpha virt. eigenvalues --    3.11260   3.11627   3.11929   3.12031   3.12118
 Alpha virt. eigenvalues --    3.12336   3.13254   3.13572   3.13678   3.13780
 Alpha virt. eigenvalues --    3.14068   3.14452   3.15858   3.16108   3.17209
 Alpha virt. eigenvalues --    3.17575   3.17943   3.17982   3.19053   3.19099
 Alpha virt. eigenvalues --    3.22272   3.22592   3.23894   3.24484   3.24626
 Alpha virt. eigenvalues --    3.25219   3.26452   3.26721   3.27454   3.27572
 Alpha virt. eigenvalues --    3.29068   3.29203   3.31436   3.31471   3.33254
 Alpha virt. eigenvalues --    3.33364   3.40218   3.40609   3.42729   3.42873
 Alpha virt. eigenvalues --    3.48608   3.48741   3.49975   3.50353   3.50897
 Alpha virt. eigenvalues --    3.51419   3.56487   3.57072   3.59042   3.59431
 Alpha virt. eigenvalues --    3.62568   3.62783   3.66076   3.66165   3.67157
 Alpha virt. eigenvalues --    3.67515   3.73235   3.74008   3.76015   3.76675
          Condensed to atoms (all electrons):
 Mulliken charges:
               1
     1  Mg   0.838671
     2  C   -0.002909
     3  C   -0.093749
     4  C   -0.046327
     5  C   -0.063913
     6  N   -0.256825
     7  C   -0.052130
     8  C   -0.014096
     9  C   -0.087015
    10  C    0.046303
    11  C    0.104759
    12  C    0.053327
    13  C   -0.072356
    14  H    0.037385
    15  N   -0.433050
    16  C    0.168194
    17  C   -0.177200
    18  C   -0.004513
    19  C    0.148592
    20  C    0.110112
    21  C    0.011391
    22  O   -0.250325
    23  C    0.062812
    24  N   -0.341175
    25  C    0.041357
    26  C   -0.028067
    27  C   -0.024023
    28  C    0.074931
    29  C    0.076190
    30  C    0.035145
    31  C   -0.004546
    32  N   -0.310513
    33  C    0.080554
    34  C   -0.169689
    35  C    0.008344
    36  C    0.083037
    37  C    0.127332
    38  C    0.046017
    39  O   -0.188316
    40  C   -0.005246
    41  C    0.212937
    42  O   -0.257427
    43  O   -0.304664
    44  C    0.157739
    45  H   -0.017322
    46  H   -0.017317
    47  H   -0.041268
    48  H    0.001097
    49  H   -0.003539
    50  H    0.025498
    51  H    0.016284
    52  H    0.016980
    53  H    0.011528
    54  H    0.043993
    55  H    0.017731
    56  H    0.018564
    57  H    0.006462
    58  H    0.026843
    59  H    0.039057
    60  H    0.038043
    61  H    0.034685
    62  H    0.030533
    63  H    0.015843
    64  H    0.009663
    65  H    0.022903
    66  H    0.012668
    67  H    0.004979
    68  H    0.006168
    69  H    0.005240
    70  H    0.007515
    71  H    0.019297
    72  H    0.028995
    73  H    0.047487
    74  H    0.009360
    75  H    0.046226
    76  H    0.035415
    77  H    0.043037
    78  H    0.047007
    79  H    0.053289
    80  Mg   0.838160
    81  C   -0.017130
    82  C   -0.088058
    83  C   -0.045464
    84  C   -0.062825
    85  N   -0.254546
    86  C   -0.049976
    87  C   -0.015060
    88  C   -0.090471
    89  C    0.045609
    90  C    0.114390
    91  C    0.062636
    92  C   -0.077563
    93  H    0.034411
    94  N   -0.423469
    95  C    0.162887
    96  C   -0.174671
    97  C   -0.007968
    98  C    0.152234
    99  C    0.099401
   100  C    0.015295
   101  O   -0.253262
   102  C    0.061280
   103  N   -0.349932
   104  C    0.038118
   105  C   -0.020301
   106  C   -0.035216
   107  C    0.088983
   108  C    0.072851
   109  C    0.034590
   110  C   -0.007565
   111  N   -0.324152
   112  C    0.078343
   113  C   -0.162490
   114  C    0.001846
   115  C    0.096447
   116  C    0.131566
   117  C    0.042152
   118  O   -0.188970
   119  C    0.000986
   120  C    0.211145
   121  O   -0.250955
   122  O   -0.305980
   123  C    0.152138
   124  H   -0.019422
   125  H   -0.015546
   126  H   -0.039535
   127  H   -0.001755
   128  H   -0.004517
   129  H    0.021229
   130  H    0.015600
   131  H    0.015921
   132  H    0.014094
   133  H    0.037585
   134  H    0.020009
   135  H    0.019658
   136  H    0.008891
   137  H    0.026044
   138  H    0.039381
   139  H    0.038059
   140  H    0.036036
   141  H    0.033777
   142  H    0.013849
   143  H    0.015465
   144  H    0.024375
   145  H    0.011768
   146  H    0.009331
   147  H    0.006561
   148  H    0.003875
   149  H    0.010662
   150  H    0.017453
   151  H    0.029633
   152  H    0.045145
   153  H    0.008988
   154  H    0.047763
   155  H    0.033986
   156  H    0.043249
   157  H    0.049332
   158  H    0.053617
 Sum of Mulliken charges =  -0.00000
 Mulliken charges with hydrogens summed into heavy atoms:
               1
     1  Mg   0.838671
     2  C   -0.002909
     3  C   -0.111071
     4  C   -0.063644
     5  C   -0.105180
     6  N   -0.256825
     7  C   -0.052130
     8  C   -0.012999
     9  C   -0.090554
    10  C    0.046303
    11  C    0.163521
    12  C    0.108848
    13  C    0.001324
    15  N   -0.433050
    16  C    0.168194
    17  C   -0.177200
    18  C   -0.004513
    19  C    0.148592
    20  C    0.182475
    21  C    0.011391
    22  O   -0.250325
    23  C    0.166073
    24  N   -0.341175
    25  C    0.041357
    26  C   -0.012225
    27  C   -0.014360
    28  C    0.074931
    29  C    0.116741
    30  C    0.046554
    31  C    0.051260
    32  N   -0.310513
    33  C    0.080554
    34  C   -0.169689
    35  C    0.008344
    36  C    0.083037
    37  C    0.230405
    38  C    0.046017
    39  O   -0.188316
    40  C    0.030170
    41  C    0.212937
    42  O   -0.257427
    43  O   -0.304664
    44  C    0.301071
    80  Mg   0.838160
    81  C   -0.017130
    82  C   -0.107480
    83  C   -0.061010
    84  C   -0.102360
    85  N   -0.254546
    86  C   -0.049976
    87  C   -0.016815
    88  C   -0.094989
    89  C    0.045609
    90  C    0.167140
    91  C    0.114314
    92  C   -0.003485
    94  N   -0.423469
    95  C    0.162887
    96  C   -0.174671
    97  C   -0.007968
    98  C    0.152234
    99  C    0.173717
   100  C    0.015295
   101  O   -0.253262
   102  C    0.169151
   103  N   -0.349932
   104  C    0.038118
   105  C   -0.006452
   106  C   -0.019751
   107  C    0.088983
   108  C    0.118324
   109  C    0.045026
   110  C    0.050182
   111  N   -0.324152
   112  C    0.078343
   113  C   -0.162490
   114  C    0.001846
   115  C    0.096447
   116  C    0.233462
   117  C    0.042152
   118  O   -0.188970
   119  C    0.034972
   120  C    0.211145
   121  O   -0.250955
   122  O   -0.305980
   123  C    0.298336
 Electronic spatial extent (au):  <R**2>=         115293.4532
 Charge=             -0.0000 electrons
 Dipole moment (field-independent basis, Debye):
    X=             -3.2844    Y=              1.8885    Z=              5.8063  Tot=              6.9330
 Quadrupole moment (field-independent basis, Debye-Ang):
   XX=           -519.9459   YY=           -502.2464   ZZ=           -496.6640
   XY=             32.2619   XZ=             -7.8565   YZ=             -3.6467
 Traceless Quadrupole moment (field-independent basis, Debye-Ang):
   XX=            -13.6605   YY=              4.0390   ZZ=              9.6215
   XY=             32.2619   XZ=             -7.8565   YZ=             -3.6467
 Octapole moment (field-independent basis, Debye-Ang**2):
  XXX=           -278.5847  YYY=             58.7325  ZZZ=            238.8668  XYY=           -243.0428
  XXY=            130.1715  XXZ=            224.4127  XZZ=            247.6068  YZZ=           -219.7732
  YYZ=            -49.9842  XYZ=            269.1003
 Hexadecapole moment (field-independent basis, Debye-Ang**3):
 XXXX=         -91744.5058 YYYY=         -33250.6154 ZZZZ=         -32155.1889 XXXY=           1265.8395
 XXXZ=            127.1938 YYYX=           1445.3610 YYYZ=            859.9791 ZZZX=           -279.8560
 ZZZY=           -716.0090 XXYY=         -20297.9718 XXZZ=         -20137.2115 YYZZ=         -11407.2774
 XXYZ=           -465.0150 YYXZ=           1018.8126 ZZXY=           -778.9843
 N-N= 1.493142625913D+04 E-N=-3.934385907382D+04  KE= 4.028801679973D+03
 Leave Link  601 at Fri Sep 10 18:39:00 2021, MaxMem= 23488102400 cpu:              13.8 elap:               0.7
 (Enter /sw/apps/gaussian-16.0/g16/l9999.exe)
 1\1\GINC-BP1-COMPUTE00114\SP\RCAM-B3LYP TD-FC\def2SVP\C68H72Mg2N8O8\OF
 15641\10-Sep-2021\0\\#p cam-b3lyp/Def2SVP td=(nstates=5)\\TDDFT excite
 d states in gaussian\\0,1\Mg,0,0.,0.,0.\C,0,-0.217,-2.218,2.801\C,0,-1
 .255,2.442,2.026\C,0,-0.245,1.85,-2.564\C,0,0.146,-2.824,-2.037\N,0,-0
 .617,-0.009,2.126\C,0,-0.594,-0.908,3.105\C,0,-0.936,-0.309,4.502\C,0,
 -1.773,0.964,4.032\C,0,-1.155,1.168,2.66\C,0,-3.263,0.685,3.863\C,0,0.
 345,0.11,5.299\C,0,0.124,0.397,6.787\H,0,1.168,0.033,7.733\N,0,-0.185,
 1.961,-0.152\C,0,-0.703,2.8,0.777\C,0,-0.62,4.156,0.193\C,0,-0.187,4.0
 15,-1.225\C,0,-0.214,2.583,-1.38\C,0,-0.887,5.406,0.974\C,0,0.181,5.01
 3,-2.277\O,0,0.303,4.69,-3.508\C,0,0.31,6.414,-1.837\N,0,-0.265,-0.413
 ,-2.029\C,0,-0.279,0.569,-2.937\C,0,-0.196,0.024,-4.332\C,0,0.124,-1.5
 33,-4.18\C,0,0.086,-1.632,-2.635\C,0,-1.451,0.205,-5.197\C,0,1.373,-2.
 07,-4.923\C,0,2.626,-1.49,-4.306\N,0,0.15,-2.144,0.303\C,0,0.173,-3.13
 6,-0.688\C,0,0.173,-4.438,0.004\C,0,0.133,-4.111,1.358\C,0,0.083,-2.69
 5,1.502\C,0,0.149,-5.715,-0.623\C,0,0.096,-4.629,2.716\O,0,0.208,-5.74
 7,3.221\C,0,-0.255,-3.428,3.701\C,0,0.717,-3.482,4.848\O,0,1.931,-3.25
 5,4.669\O,0,0.038,-3.556,6.003\C,0,0.943,-3.583,7.183\H,0,-1.859,3.22,
 2.497\H,0,-0.218,2.453,-3.474\H,0,0.276,-3.747,-2.605\H,0,-1.554,-0.94
 9,5.132\H,0,-1.585,1.831,4.665\H,0,-3.484,-0.377,3.969\H,0,-3.511,1.02
 7,2.858\H,0,-3.852,1.301,4.543\H,0,0.669,1.096,4.966\H,0,1.13,-0.639,5
 .189\H,0,-0.844,0.026,7.125\H,0,0.062,1.477,6.921\H,0,-1.344,5.186,1.9
 38\H,0,-1.651,5.963,0.432\H,0,0.007,6.02,1.084\H,0,-0.635,6.744,-1.405
 \H,0,0.665,6.97,-2.704\H,0,1.048,6.466,-1.036\H,0,0.608,0.501,-4.891\H
 ,0,-0.692,-2.156,-4.547\H,0,-1.267,0.74,-6.129\H,0,-2.204,0.714,-4.596
 \H,0,-1.967,-0.72,-5.453\H,0,1.356,-1.759,-5.967\H,0,1.452,-3.157,-4.9
 02\H,0,2.714,-0.522,-4.798\H,0,3.487,-2.121,-4.529\H,0,2.495,-1.303,-3
 .24\H,0,0.867,-6.333,-0.084\H,0,0.404,-5.642,-1.68\H,0,-0.891,-5.999,-
 0.463\H,0,-1.283,-3.581,4.028\H,0,0.698,-4.478,7.755\H,0,0.833,-2.619,
 7.68\H,0,2.,-3.754,6.976\Mg,0,10.51776,0.95353,0.79499\C,0,9.89391,3.6
 3329,3.09906\C,0,9.63161,3.09692,-1.70605\C,0,10.62229,-1.5021,-1.2116
 \C,0,10.24164,-1.24107,3.48817\N,0,9.86666,3.06723,0.81918\C,0,9.72601
 ,4.00116,1.7478\C,0,9.46515,5.4268,1.19188\C,0,8.84499,5.01977,-0.2324
 1\C,0,9.51235,3.6574,-0.40923\C,0,7.33986,4.81328,-0.19659\C,0,10.7874
 4,6.25529,1.02702\C,0,10.58238,7.75216,0.78398\H,0,11.54337,8.68886,1.
 3598\N,0,10.65512,0.9175,-1.18451\C,0,10.26827,1.88272,-2.04473\C,0,10
 .56274,1.36458,-3.38971\C,0,11.00245,-0.05134,-3.26104\C,0,10.75161,-0
 .27824,-1.8519\C,0,10.49337,2.21709,-4.62334\C,0,11.5453,-1.04173,-4.2
 4625\O,0,11.63722,-2.28907,-3.96602\C,0,11.87873,-0.52329,-5.58099\N,0
 ,10.23387,-1.08999,1.0515\C,0,10.38902,-1.9438,0.02444\C,0,10.40668,-3
 .37581,0.50344\C,0,10.47386,-3.29426,2.09919\C,0,10.38972,-1.7625,2.27
 807\C,0,9.20999,-4.23112,0.08776\C,0,11.6346,-4.05699,2.79461\C,0,12.9
 5651,-3.40819,2.45256\N,0,10.32267,1.13888,2.93873\C,0,10.19697,0.0915
 2,3.87752\C,0,9.97585,0.71504,5.19842\C,0,9.96519,2.09226,4.93077\C,0,
 10.14535,2.31091,3.53821\C,0,9.76916,0.01904,6.42274\C,0,9.83188,3.410
 45,5.50811\O,0,9.74733,3.85285,6.65304\C,0,9.65336,4.46242,4.33003\C,0
 ,10.58398,5.61487,4.59141\O,0,11.81644,5.45094,4.56333\O,0,9.8742,6.75
 767,4.61559\C,0,10.75507,7.93059,4.86081\H,0,9.15654,3.61379,-2.54034\
 H,0,10.7616,-2.38206,-1.84386\H,0,10.24381,-1.85386,4.39214\H,0,8.7479
 9,6.01039,1.75659\H,0,9.16486,5.70522,-1.01292\H,0,6.95075,4.85911,0.8
 0971\H,0,7.16692,3.83466,-0.62489\H,0,6.84566,5.52569,-0.86334\H,0,11.
 26958,5.97573,0.08143\H,0,11.4348,6.11144,1.87014\H,0,9.55621,8.06909,
 1.00641\H,0,10.69811,7.94928,-0.28456\H,0,9.98198,3.16758,-4.42721\H,0
 ,9.84032,1.69886,-5.33385\H,0,11.47073,2.36777,-5.08672\H,0,10.99193,-
 0.08069,-6.02839\H,0,12.33468,-1.35992,-6.11395\H,0,12.61139,0.28385,-
 5.46982\H,0,11.28583,-3.89411,0.14072\H,0,9.57182,-3.7153,2.56703\H,0,
 9.49754,-5.14254,-0.46965\H,0,8.54174,-3.61894,-0.50319\H,0,8.56654,-4
 .55319,0.90472\H,0,11.68804,-5.08395,2.42493\H,0,11.53271,-4.10799,3.8
 735\H,0,13.20216,-3.84617,1.48049\H,0,13.70908,-3.65568,3.1985\H,0,12.
 83884,-2.32807,2.30718\H,0,10.36263,0.52506,7.17257\H,0,10.04673,-1.02
 938,6.33583\H,0,8.69021,0.14952,6.54152\H,0,8.60801,4.77354,4.32426\H,
 0,10.35586,8.45254,5.73597\H,0,10.77858,8.49106,3.90737\H,0,11.77307,7
 .73543,5.17711\\Version=ES64L-G16RevA.03\State=1-A\HF=-4069.8120624\RM
 SD=5.980e-09\PG=C01 [X(C68H72Mg2N8O8)]\\@


 HE THAT FOLLOWS NATURE IS NEVER LOST.

                             -- BACON
 Job cpu time:       0 days 14 hours 10 minutes 22.3 seconds.
 Elapsed time:       0 days  0 hours 36 minutes  3.7 seconds.
 File lengths (MBytes):  RWF=  13225 Int=      0 D2E=      0 Chk=    574 Scr=      1
 Normal termination of Gaussian 16 at Fri Sep 10 18:39:01 2021.
