 Entering Gaussian System, Link 0=g16
 Initial command:
 /sw/apps/gaussian-16.0/g16/l1.exe "/tmp/Gau-261018.inp" -scrdir="/tmp/"
 Entering Link 1 = /sw/apps/gaussian-16.0/g16/l1.exe PID=    261019.
  
 Copyright (c) 1988,1990,1992,1993,1995,1998,2003,2009,2016,
            Gaussian, Inc.  All Rights Reserved.
  
 This is part of the Gaussian(R) 16 program.  It is based on
 the Gaussian(R) 09 system (copyright 2009, Gaussian, Inc.),
 the Gaussian(R) 03 system (copyright 2003, Gaussian, Inc.),
 the Gaussian(R) 98 system (copyright 1998, Gaussian, Inc.),
 the Gaussian(R) 94 system (copyright 1995, Gaussian, Inc.),
 the Gaussian 92(TM) system (copyright 1992, Gaussian, Inc.),
 the Gaussian 90(TM) system (copyright 1990, Gaussian, Inc.),
 the Gaussian 88(TM) system (copyright 1988, Gaussian, Inc.),
 the Gaussian 86(TM) system (copyright 1986, Carnegie Mellon
 University), and the Gaussian 82(TM) system (copyright 1983,
 Carnegie Mellon University). Gaussian is a federally registered
 trademark of Gaussian, Inc.
  
 This software contains proprietary and confidential information,
 including trade secrets, belonging to Gaussian, Inc.
  
 This software is provided under written license and may be
 used, copied, transmitted, or stored only in accord with that
 written license.
  
 The following legend is applicable only to US Government
 contracts under FAR:
  
                    RESTRICTED RIGHTS LEGEND
  
 Use, reproduction and disclosure by the US Government is
 subject to restrictions as set forth in subparagraphs (a)
 and (c) of the Commercial Computer Software - Restricted
 Rights clause in FAR 52.227-19.
  
 Gaussian, Inc.
 340 Quinnipiac St., Bldg. 40, Wallingford CT 06492
  
  
 ---------------------------------------------------------------
 Warning -- This program may not be used in any manner that
 competes with the business of Gaussian, Inc. or will provide
 assistance to any competitor of Gaussian, Inc.  The licensee
 of this program is prohibited from giving any competitor of
 Gaussian, Inc. access to this program.  By using this program,
 the user acknowledges that Gaussian, Inc. is engaged in the
 business of creating and licensing software in the field of
 computational chemistry and represents and warrants to the
 licensee that it is not a competitor of Gaussian, Inc. and that
 it will not use this program in any manner prohibited above.
 ---------------------------------------------------------------
  

 Cite this work as:
 Gaussian 16, Revision A.03,
 M. J. Frisch, G. W. Trucks, H. B. Schlegel, G. E. Scuseria, 
 M. A. Robb, J. R. Cheeseman, G. Scalmani, V. Barone, 
 G. A. Petersson, H. Nakatsuji, X. Li, M. Caricato, A. V. Marenich, 
 J. Bloino, B. G. Janesko, R. Gomperts, B. Mennucci, H. P. Hratchian, 
 J. V. Ortiz, A. F. Izmaylov, J. L. Sonnenberg, D. Williams-Young, 
 F. Ding, F. Lipparini, F. Egidi, J. Goings, B. Peng, A. Petrone, 
 T. Henderson, D. Ranasinghe, V. G. Zakrzewski, J. Gao, N. Rega, 
 G. Zheng, W. Liang, M. Hada, M. Ehara, K. Toyota, R. Fukuda, 
 J. Hasegawa, M. Ishida, T. Nakajima, Y. Honda, O. Kitao, H. Nakai, 
 T. Vreven, K. Throssell, J. A. Montgomery, Jr., J. E. Peralta, 
 F. Ogliaro, M. J. Bearpark, J. J. Heyd, E. N. Brothers, K. N. Kudin, 
 V. N. Staroverov, T. A. Keith, R. Kobayashi, J. Normand, 
 K. Raghavachari, A. P. Rendell, J. C. Burant, S. S. Iyengar, 
 J. Tomasi, M. Cossi, J. M. Millam, M. Klene, C. Adamo, R. Cammi, 
 J. W. Ochterski, R. L. Martin, K. Morokuma, O. Farkas, 
 J. B. Foresman, and D. J. Fox, Gaussian, Inc., Wallingford CT, 2016.
 
 ******************************************
 Gaussian 16:  ES64L-G16RevA.03 25-Dec-2016
                 3-Sep-2021 
 ******************************************
 %nproc=24
 Will use up to   24 processors via shared memory.
 %mem=175gb
 -----------------------------------
 #p cam-b3lyp/Def2SVP td=(nstates=5)
 -----------------------------------
 1/38=1,172=1/1;
 2/12=2,17=6,18=5,40=1/2;
 3/5=43,7=101,11=9,25=1,30=1,74=-40/1,2,3,8;
 4//1;
 5/5=2,38=5/2;
 8/6=1,10=1,108=5/1;
 9/41=5,42=1,70=2/14;
 6/7=2,8=2,9=2,10=2/1;
 99/5=1,9=1/99;
 Leave Link    1 at Fri Sep  3 23:32:16 2021, MaxMem= 23488102400 cpu:               0.9 elap:               0.0
 (Enter /sw/apps/gaussian-16.0/g16/l101.exe)
 --------------------------------
 TDDFT excited states in gaussian
 --------------------------------
 Symbolic Z-matrix:
 Charge =  0 Multiplicity = 1
 Mg                    0.        0.        0. 
 C                    -0.217    -2.218     2.801 
 C                    -1.255     2.442     2.026 
 C                    -0.245     1.85     -2.564 
 C                     0.146    -2.824    -2.037 
 N                    -0.617    -0.009     2.126 
 C                    -0.594    -0.908     3.105 
 C                    -0.936    -0.309     4.502 
 C                    -1.773     0.964     4.032 
 C                    -1.155     1.168     2.66 
 C                    -3.263     0.685     3.863 
 C                     0.345     0.11      5.299 
 C                     0.124     0.397     6.787 
 H                     1.168     0.033     7.733 
 N                    -0.185     1.961    -0.152 
 C                    -0.703     2.8       0.777 
 C                    -0.62      4.156     0.193 
 C                    -0.187     4.015    -1.225 
 C                    -0.214     2.583    -1.38 
 C                    -0.887     5.406     0.974 
 C                     0.181     5.013    -2.277 
 O                     0.303     4.69     -3.508 
 C                     0.31      6.414    -1.837 
 N                    -0.265    -0.413    -2.029 
 C                    -0.279     0.569    -2.937 
 C                    -0.196     0.024    -4.332 
 C                     0.124    -1.533    -4.18 
 C                     0.086    -1.632    -2.635 
 C                    -1.451     0.205    -5.197 
 C                     1.373    -2.07     -4.923 
 C                     2.626    -1.49     -4.306 
 N                     0.15     -2.144     0.303 
 C                     0.173    -3.136    -0.688 
 C                     0.173    -4.438     0.004 
 C                     0.133    -4.111     1.358 
 C                     0.083    -2.695     1.502 
 C                     0.149    -5.715    -0.623 
 C                     0.096    -4.629     2.716 
 O                     0.208    -5.747     3.221 
 C                    -0.255    -3.428     3.701 
 C                     0.717    -3.482     4.848 
 O                     1.931    -3.255     4.669 
 O                     0.038    -3.556     6.003 
 C                     0.943    -3.583     7.183 
 H                    -1.859     3.22      2.497 
 H                    -0.218     2.453    -3.474 
 H                     0.276    -3.747    -2.605 
 H                    -1.554    -0.949     5.132 
 H                    -1.585     1.831     4.665 
 H                    -3.484    -0.377     3.969 
 H                    -3.511     1.027     2.858 
 H                    -3.852     1.301     4.543 
 H                     0.669     1.096     4.966 
 H                     1.13     -0.639     5.189 
 H                    -0.844     0.026     7.125 
 H                     0.062     1.477     6.921 
 H                    -1.344     5.186     1.938 
 H                    -1.651     5.963     0.432 
 H                     0.007     6.02      1.084 
 H                    -0.635     6.744    -1.405 
 H                     0.665     6.97     -2.704 
 H                     1.048     6.466    -1.036 
 H                     0.608     0.501    -4.891 
 H                    -0.692    -2.156    -4.547 
 H                    -1.267     0.74     -6.129 
 H                    -2.204     0.714    -4.596 
 H                    -1.967    -0.72     -5.453 
 H                     1.356    -1.759    -5.967 
 H                     1.452    -3.157    -4.902 
 H                     2.714    -0.522    -4.798 
 H                     3.487    -2.121    -4.529 
 H                     2.495    -1.303    -3.24 
 H                     0.867    -6.333    -0.084 
 H                     0.404    -5.642    -1.68 
 H                    -0.891    -5.999    -0.463 
 H                    -1.283    -3.581     4.028 
 H                     0.698    -4.478     7.755 
 H                     0.833    -2.619     7.68 
 H                     2.       -3.754     6.976 
 Mg                    8.94112   0.80222   0.68644 
 C                     9.06821  -2.78073   0.52716 
 C                     7.84368   0.47143   3.89904 
 C                     8.38875   3.92657   0.71441 
 C                     8.93529   0.81835  -2.79858 
 N                     8.54716  -0.97726   1.93963 
 C                     8.6901   -2.28582   1.79268 
 C                     8.49011  -3.10505   3.09592 
 C                     7.57022  -2.06095   3.8975 
 C                     8.03531  -0.76612   3.23433 
 C                     6.08554  -2.23204   3.62223 
 C                     9.84166  -3.37385   3.8463 
 C                     9.76325  -4.42491   4.95575 
 H                     10.9145  -5.29717   5.1708 
 N                     8.6968    2.04961   2.21055 
 C                     8.2648    1.74303   3.45179 
 C                     8.23975   3.01285   4.19414 
 C                     8.53452   4.11841   3.24253 
 C                     8.53085   3.39393   1.98746 
 C                     8.03426   3.08314   5.67948 
 C                     8.76693   5.58715   3.42964 
 O                     8.76993   6.40001   2.43864 
 C                     8.89786   6.05879   4.81596 
 N                     8.48388   2.16671  -0.81404 
 C                     8.34545   3.47566  -0.53943 
 C                     8.29292   4.29617  -1.80607 
 C                     8.66933   3.2866   -2.98787 
 C                     8.79257   1.97949  -2.17444 
 C                     6.95113   4.96087  -2.11294 
 C                     9.8478    3.69492  -3.91371 
 C                     11.14536   3.67135  -3.13835 
 N                     9.17691  -0.67112  -0.87616 
 C                     9.11453  -0.45362  -2.27004 
 C                     9.21839  -1.77522  -2.92197 
 C                     9.31158  -2.67922  -1.85306 
 C                     9.2485   -1.97286  -0.62157 
 C                     9.17033  -2.01736  -4.32382 
 C                     9.43827  -4.07141  -1.48635 
 O                     9.62181  -5.11929  -2.1044 
 C                     9.15913  -4.21088   0.07218 
 C                     10.24546  -5.06664   0.66387 
 O                     11.42413  -4.67029   0.67985 
 O                     9.68554  -6.10885   1.3047 
 C                     10.72257  -6.98089   1.91783 
 H                     7.28035   0.47716   4.83259 
 H                     8.30658   5.01482   0.66509 
 H                     9.03974   0.74766  -3.88337 
 H                     7.9626   -4.0425    2.96673 
 H                     7.81143  -2.05456   4.95728 
 H                     5.90134  -2.95293   2.83958 
 H                     5.72627  -1.25448   3.32839 
 H                     5.5571   -2.48199   4.54668 
 H                     10.10192  -2.49003   4.44285 
 H                     10.61651  -3.63743   3.15294 
 H                     8.8397   -5.01398   4.90095 
 H                     9.69617  -3.91018   5.91729 
 H                     7.67887   2.12658   6.08211 
 H                     7.2048    3.7767    5.85507 
 H                     8.91698   3.44633   6.21011 
 H                     7.9977    5.80448   5.37048 
 H                     9.14823   7.11882   4.74159 
 H                     9.724     5.51932   5.29249 
 H                     9.02397   5.09491  -1.78002 
 H                     7.83066   3.14484  -3.68528 
 H                     7.0242    6.05878  -2.22838 
 H                     6.25601   4.70693  -1.32372 
 H                     6.44182   4.58568  -2.99896 
 H                     9.71506   4.72096  -4.26552 
 H                     9.94669   3.06401  -4.79073 
 H                     11.15216   4.64484  -2.63899 
 H                     11.99287   3.56785  -3.81292 
 H                     11.124    2.90109  -2.35868 
 H                     9.94773  -2.73739  -4.54223 
 H                     9.30731  -1.09895  -4.89085 
 H                     8.15482  -2.41099  -4.41905 
 H                     8.17308  -4.66206   0.1893 
 H                     10.55704  -7.99237   1.53418 
 H                     10.62797  -6.83477   3.01028 
 H                     11.75365  -6.81171   1.63023 
 
 ITRead=  0  0  0  0  0  0  0  0  0  0  0  0  0  0  0  0  0  0  0  0
 ITRead=  0  0  0  0  0  0  0  0  0  0  0  0  0  0  0  0  0  0  0  0
 ITRead=  0  0  0  0  0  0  0  0  0  0  0  0  0  0  0  0  0  0  0  0
 ITRead=  0  0  0  0  0  0  0  0  0  0  0  0  0  0  0  0  0  0  0  0
 ITRead=  0  0  0  0  0  0  0  0  0  0  0  0  0  0  0  0  0  0  0  0
 ITRead=  0  0  0  0  0  0  0  0  0  0  0  0  0  0  0  0  0  0  0  0
 ITRead=  0  0  0  0  0  0  0  0  0  0  0  0  0  0  0  0  0  0  0  0
 ITRead=  0  0  0  0  0  0  0  0  0  0  0  0  0  0  0  0  0  0
 MicOpt= -1 -1 -1 -1 -1 -1 -1 -1 -1 -1 -1 -1 -1 -1 -1 -1 -1 -1 -1 -1
 MicOpt= -1 -1 -1 -1 -1 -1 -1 -1 -1 -1 -1 -1 -1 -1 -1 -1 -1 -1 -1 -1
 MicOpt= -1 -1 -1 -1 -1 -1 -1 -1 -1 -1 -1 -1 -1 -1 -1 -1 -1 -1 -1 -1
 MicOpt= -1 -1 -1 -1 -1 -1 -1 -1 -1 -1 -1 -1 -1 -1 -1 -1 -1 -1 -1 -1
 MicOpt= -1 -1 -1 -1 -1 -1 -1 -1 -1 -1 -1 -1 -1 -1 -1 -1 -1 -1 -1 -1
 MicOpt= -1 -1 -1 -1 -1 -1 -1 -1 -1 -1 -1 -1 -1 -1 -1 -1 -1 -1 -1 -1
 MicOpt= -1 -1 -1 -1 -1 -1 -1 -1 -1 -1 -1 -1 -1 -1 -1 -1 -1 -1 -1 -1
 MicOpt= -1 -1 -1 -1 -1 -1 -1 -1 -1 -1 -1 -1 -1 -1 -1 -1 -1 -1
 NAtoms=    158 NQM=      158 NQMF=       0 NMMI=      0 NMMIF=      0
                NMic=       0 NMicF=      0.
                    Isotopes and Nuclear Properties:
 (Nuclear quadrupole moments (NQMom) in fm**2, nuclear magnetic moments (NMagM)
  in nuclear magnetons)

  Atom         1           2           3           4           5           6           7           8           9          10
 IAtWgt=          24          12          12          12          12          14          12          12          12          12
 AtmWgt=  23.9850450  12.0000000  12.0000000  12.0000000  12.0000000  14.0030740  12.0000000  12.0000000  12.0000000  12.0000000
 NucSpn=           0           0           0           0           0           2           0           0           0           0
 AtZEff=  -0.0000000  -0.0000000  -0.0000000  -0.0000000  -0.0000000  -0.0000000  -0.0000000  -0.0000000  -0.0000000  -0.0000000
 NQMom=    0.0000000   0.0000000   0.0000000   0.0000000   0.0000000   2.0440000   0.0000000   0.0000000   0.0000000   0.0000000
 NMagM=    0.0000000   0.0000000   0.0000000   0.0000000   0.0000000   0.4037610   0.0000000   0.0000000   0.0000000   0.0000000
 AtZNuc=  12.0000000   6.0000000   6.0000000   6.0000000   6.0000000   7.0000000   6.0000000   6.0000000   6.0000000   6.0000000

  Atom        11          12          13          14          15          16          17          18          19          20
 IAtWgt=          12          12          12           1          14          12          12          12          12          12
 AtmWgt=  12.0000000  12.0000000  12.0000000   1.0078250  14.0030740  12.0000000  12.0000000  12.0000000  12.0000000  12.0000000
 NucSpn=           0           0           0           1           2           0           0           0           0           0
 AtZEff=  -0.0000000  -0.0000000  -0.0000000  -0.0000000  -0.0000000  -0.0000000  -0.0000000  -0.0000000  -0.0000000  -0.0000000
 NQMom=    0.0000000   0.0000000   0.0000000   0.0000000   2.0440000   0.0000000   0.0000000   0.0000000   0.0000000   0.0000000
 NMagM=    0.0000000   0.0000000   0.0000000   2.7928460   0.4037610   0.0000000   0.0000000   0.0000000   0.0000000   0.0000000
 AtZNuc=   6.0000000   6.0000000   6.0000000   1.0000000   7.0000000   6.0000000   6.0000000   6.0000000   6.0000000   6.0000000

  Atom        21          22          23          24          25          26          27          28          29          30
 IAtWgt=          12          16          12          14          12          12          12          12          12          12
 AtmWgt=  12.0000000  15.9949146  12.0000000  14.0030740  12.0000000  12.0000000  12.0000000  12.0000000  12.0000000  12.0000000
 NucSpn=           0           0           0           2           0           0           0           0           0           0
 AtZEff=  -0.0000000  -0.0000000  -0.0000000  -0.0000000  -0.0000000  -0.0000000  -0.0000000  -0.0000000  -0.0000000  -0.0000000
 NQMom=    0.0000000   0.0000000   0.0000000   2.0440000   0.0000000   0.0000000   0.0000000   0.0000000   0.0000000   0.0000000
 NMagM=    0.0000000   0.0000000   0.0000000   0.4037610   0.0000000   0.0000000   0.0000000   0.0000000   0.0000000   0.0000000
 AtZNuc=   6.0000000   8.0000000   6.0000000   7.0000000   6.0000000   6.0000000   6.0000000   6.0000000   6.0000000   6.0000000

  Atom        31          32          33          34          35          36          37          38          39          40
 IAtWgt=          12          14          12          12          12          12          12          12          16          12
 AtmWgt=  12.0000000  14.0030740  12.0000000  12.0000000  12.0000000  12.0000000  12.0000000  12.0000000  15.9949146  12.0000000
 NucSpn=           0           2           0           0           0           0           0           0           0           0
 AtZEff=  -0.0000000  -0.0000000  -0.0000000  -0.0000000  -0.0000000  -0.0000000  -0.0000000  -0.0000000  -0.0000000  -0.0000000
 NQMom=    0.0000000   2.0440000   0.0000000   0.0000000   0.0000000   0.0000000   0.0000000   0.0000000   0.0000000   0.0000000
 NMagM=    0.0000000   0.4037610   0.0000000   0.0000000   0.0000000   0.0000000   0.0000000   0.0000000   0.0000000   0.0000000
 AtZNuc=   6.0000000   7.0000000   6.0000000   6.0000000   6.0000000   6.0000000   6.0000000   6.0000000   8.0000000   6.0000000

  Atom        41          42          43          44          45          46          47          48          49          50
 IAtWgt=          12          16          16          12           1           1           1           1           1           1
 AtmWgt=  12.0000000  15.9949146  15.9949146  12.0000000   1.0078250   1.0078250   1.0078250   1.0078250   1.0078250   1.0078250
 NucSpn=           0           0           0           0           1           1           1           1           1           1
 AtZEff=  -0.0000000  -0.0000000  -0.0000000  -0.0000000  -0.0000000  -0.0000000  -0.0000000  -0.0000000  -0.0000000  -0.0000000
 NQMom=    0.0000000   0.0000000   0.0000000   0.0000000   0.0000000   0.0000000   0.0000000   0.0000000   0.0000000   0.0000000
 NMagM=    0.0000000   0.0000000   0.0000000   0.0000000   2.7928460   2.7928460   2.7928460   2.7928460   2.7928460   2.7928460
 AtZNuc=   6.0000000   8.0000000   8.0000000   6.0000000   1.0000000   1.0000000   1.0000000   1.0000000   1.0000000   1.0000000

  Atom        51          52          53          54          55          56          57          58          59          60
 IAtWgt=           1           1           1           1           1           1           1           1           1           1
 AtmWgt=   1.0078250   1.0078250   1.0078250   1.0078250   1.0078250   1.0078250   1.0078250   1.0078250   1.0078250   1.0078250
 NucSpn=           1           1           1           1           1           1           1           1           1           1
 AtZEff=  -0.0000000  -0.0000000  -0.0000000  -0.0000000  -0.0000000  -0.0000000  -0.0000000  -0.0000000  -0.0000000  -0.0000000
 NQMom=    0.0000000   0.0000000   0.0000000   0.0000000   0.0000000   0.0000000   0.0000000   0.0000000   0.0000000   0.0000000
 NMagM=    2.7928460   2.7928460   2.7928460   2.7928460   2.7928460   2.7928460   2.7928460   2.7928460   2.7928460   2.7928460
 AtZNuc=   1.0000000   1.0000000   1.0000000   1.0000000   1.0000000   1.0000000   1.0000000   1.0000000   1.0000000   1.0000000

  Atom        61          62          63          64          65          66          67          68          69          70
 IAtWgt=           1           1           1           1           1           1           1           1           1           1
 AtmWgt=   1.0078250   1.0078250   1.0078250   1.0078250   1.0078250   1.0078250   1.0078250   1.0078250   1.0078250   1.0078250
 NucSpn=           1           1           1           1           1           1           1           1           1           1
 AtZEff=  -0.0000000  -0.0000000  -0.0000000  -0.0000000  -0.0000000  -0.0000000  -0.0000000  -0.0000000  -0.0000000  -0.0000000
 NQMom=    0.0000000   0.0000000   0.0000000   0.0000000   0.0000000   0.0000000   0.0000000   0.0000000   0.0000000   0.0000000
 NMagM=    2.7928460   2.7928460   2.7928460   2.7928460   2.7928460   2.7928460   2.7928460   2.7928460   2.7928460   2.7928460
 AtZNuc=   1.0000000   1.0000000   1.0000000   1.0000000   1.0000000   1.0000000   1.0000000   1.0000000   1.0000000   1.0000000

  Atom        71          72          73          74          75          76          77          78          79          80
 IAtWgt=           1           1           1           1           1           1           1           1           1          24
 AtmWgt=   1.0078250   1.0078250   1.0078250   1.0078250   1.0078250   1.0078250   1.0078250   1.0078250   1.0078250  23.9850450
 NucSpn=           1           1           1           1           1           1           1           1           1           0
 AtZEff=  -0.0000000  -0.0000000  -0.0000000  -0.0000000  -0.0000000  -0.0000000  -0.0000000  -0.0000000  -0.0000000  -0.0000000
 NQMom=    0.0000000   0.0000000   0.0000000   0.0000000   0.0000000   0.0000000   0.0000000   0.0000000   0.0000000   0.0000000
 NMagM=    2.7928460   2.7928460   2.7928460   2.7928460   2.7928460   2.7928460   2.7928460   2.7928460   2.7928460   0.0000000
 AtZNuc=   1.0000000   1.0000000   1.0000000   1.0000000   1.0000000   1.0000000   1.0000000   1.0000000   1.0000000  12.0000000

  Atom        81          82          83          84          85          86          87          88          89          90
 IAtWgt=          12          12          12          12          14          12          12          12          12          12
 AtmWgt=  12.0000000  12.0000000  12.0000000  12.0000000  14.0030740  12.0000000  12.0000000  12.0000000  12.0000000  12.0000000
 NucSpn=           0           0           0           0           2           0           0           0           0           0
 AtZEff=  -0.0000000  -0.0000000  -0.0000000  -0.0000000  -0.0000000  -0.0000000  -0.0000000  -0.0000000  -0.0000000  -0.0000000
 NQMom=    0.0000000   0.0000000   0.0000000   0.0000000   2.0440000   0.0000000   0.0000000   0.0000000   0.0000000   0.0000000
 NMagM=    0.0000000   0.0000000   0.0000000   0.0000000   0.4037610   0.0000000   0.0000000   0.0000000   0.0000000   0.0000000
 AtZNuc=   6.0000000   6.0000000   6.0000000   6.0000000   7.0000000   6.0000000   6.0000000   6.0000000   6.0000000   6.0000000

  Atom        91          92          93          94          95          96          97          98          99         100
 IAtWgt=          12          12           1          14          12          12          12          12          12          12
 AtmWgt=  12.0000000  12.0000000   1.0078250  14.0030740  12.0000000  12.0000000  12.0000000  12.0000000  12.0000000  12.0000000
 NucSpn=           0           0           1           2           0           0           0           0           0           0
 AtZEff=  -0.0000000  -0.0000000  -0.0000000  -0.0000000  -0.0000000  -0.0000000  -0.0000000  -0.0000000  -0.0000000  -0.0000000
 NQMom=    0.0000000   0.0000000   0.0000000   2.0440000   0.0000000   0.0000000   0.0000000   0.0000000   0.0000000   0.0000000
 NMagM=    0.0000000   0.0000000   2.7928460   0.4037610   0.0000000   0.0000000   0.0000000   0.0000000   0.0000000   0.0000000
 AtZNuc=   6.0000000   6.0000000   1.0000000   7.0000000   6.0000000   6.0000000   6.0000000   6.0000000   6.0000000   6.0000000

  Atom       101         102         103         104         105         106         107         108         109         110
 IAtWgt=          16          12          14          12          12          12          12          12          12          12
 AtmWgt=  15.9949146  12.0000000  14.0030740  12.0000000  12.0000000  12.0000000  12.0000000  12.0000000  12.0000000  12.0000000
 NucSpn=           0           0           2           0           0           0           0           0           0           0
 AtZEff=  -0.0000000  -0.0000000  -0.0000000  -0.0000000  -0.0000000  -0.0000000  -0.0000000  -0.0000000  -0.0000000  -0.0000000
 NQMom=    0.0000000   0.0000000   2.0440000   0.0000000   0.0000000   0.0000000   0.0000000   0.0000000   0.0000000   0.0000000
 NMagM=    0.0000000   0.0000000   0.4037610   0.0000000   0.0000000   0.0000000   0.0000000   0.0000000   0.0000000   0.0000000
 AtZNuc=   8.0000000   6.0000000   7.0000000   6.0000000   6.0000000   6.0000000   6.0000000   6.0000000   6.0000000   6.0000000

  Atom       111         112         113         114         115         116         117         118         119         120
 IAtWgt=          14          12          12          12          12          12          12          16          12          12
 AtmWgt=  14.0030740  12.0000000  12.0000000  12.0000000  12.0000000  12.0000000  12.0000000  15.9949146  12.0000000  12.0000000
 NucSpn=           2           0           0           0           0           0           0           0           0           0
 AtZEff=  -0.0000000  -0.0000000  -0.0000000  -0.0000000  -0.0000000  -0.0000000  -0.0000000  -0.0000000  -0.0000000  -0.0000000
 NQMom=    2.0440000   0.0000000   0.0000000   0.0000000   0.0000000   0.0000000   0.0000000   0.0000000   0.0000000   0.0000000
 NMagM=    0.4037610   0.0000000   0.0000000   0.0000000   0.0000000   0.0000000   0.0000000   0.0000000   0.0000000   0.0000000
 AtZNuc=   7.0000000   6.0000000   6.0000000   6.0000000   6.0000000   6.0000000   6.0000000   8.0000000   6.0000000   6.0000000

  Atom       121         122         123         124         125         126         127         128         129         130
 IAtWgt=          16          16          12           1           1           1           1           1           1           1
 AtmWgt=  15.9949146  15.9949146  12.0000000   1.0078250   1.0078250   1.0078250   1.0078250   1.0078250   1.0078250   1.0078250
 NucSpn=           0           0           0           1           1           1           1           1           1           1
 AtZEff=  -0.0000000  -0.0000000  -0.0000000  -0.0000000  -0.0000000  -0.0000000  -0.0000000  -0.0000000  -0.0000000  -0.0000000
 NQMom=    0.0000000   0.0000000   0.0000000   0.0000000   0.0000000   0.0000000   0.0000000   0.0000000   0.0000000   0.0000000
 NMagM=    0.0000000   0.0000000   0.0000000   2.7928460   2.7928460   2.7928460   2.7928460   2.7928460   2.7928460   2.7928460
 AtZNuc=   8.0000000   8.0000000   6.0000000   1.0000000   1.0000000   1.0000000   1.0000000   1.0000000   1.0000000   1.0000000

  Atom       131         132         133         134         135         136         137         138         139         140
 IAtWgt=           1           1           1           1           1           1           1           1           1           1
 AtmWgt=   1.0078250   1.0078250   1.0078250   1.0078250   1.0078250   1.0078250   1.0078250   1.0078250   1.0078250   1.0078250
 NucSpn=           1           1           1           1           1           1           1           1           1           1
 AtZEff=  -0.0000000  -0.0000000  -0.0000000  -0.0000000  -0.0000000  -0.0000000  -0.0000000  -0.0000000  -0.0000000  -0.0000000
 NQMom=    0.0000000   0.0000000   0.0000000   0.0000000   0.0000000   0.0000000   0.0000000   0.0000000   0.0000000   0.0000000
 NMagM=    2.7928460   2.7928460   2.7928460   2.7928460   2.7928460   2.7928460   2.7928460   2.7928460   2.7928460   2.7928460
 AtZNuc=   1.0000000   1.0000000   1.0000000   1.0000000   1.0000000   1.0000000   1.0000000   1.0000000   1.0000000   1.0000000

  Atom       141         142         143         144         145         146         147         148         149         150
 IAtWgt=           1           1           1           1           1           1           1           1           1           1
 AtmWgt=   1.0078250   1.0078250   1.0078250   1.0078250   1.0078250   1.0078250   1.0078250   1.0078250   1.0078250   1.0078250
 NucSpn=           1           1           1           1           1           1           1           1           1           1
 AtZEff=  -0.0000000  -0.0000000  -0.0000000  -0.0000000  -0.0000000  -0.0000000  -0.0000000  -0.0000000  -0.0000000  -0.0000000
 NQMom=    0.0000000   0.0000000   0.0000000   0.0000000   0.0000000   0.0000000   0.0000000   0.0000000   0.0000000   0.0000000
 NMagM=    2.7928460   2.7928460   2.7928460   2.7928460   2.7928460   2.7928460   2.7928460   2.7928460   2.7928460   2.7928460
 AtZNuc=   1.0000000   1.0000000   1.0000000   1.0000000   1.0000000   1.0000000   1.0000000   1.0000000   1.0000000   1.0000000

  Atom       151         152         153         154         155         156         157         158
 IAtWgt=           1           1           1           1           1           1           1           1
 AtmWgt=   1.0078250   1.0078250   1.0078250   1.0078250   1.0078250   1.0078250   1.0078250   1.0078250
 NucSpn=           1           1           1           1           1           1           1           1
 AtZEff=  -0.0000000  -0.0000000  -0.0000000  -0.0000000  -0.0000000  -0.0000000  -0.0000000  -0.0000000
 NQMom=    0.0000000   0.0000000   0.0000000   0.0000000   0.0000000   0.0000000   0.0000000   0.0000000
 NMagM=    2.7928460   2.7928460   2.7928460   2.7928460   2.7928460   2.7928460   2.7928460   2.7928460
 AtZNuc=   1.0000000   1.0000000   1.0000000   1.0000000   1.0000000   1.0000000   1.0000000   1.0000000
 Leave Link  101 at Fri Sep  3 23:32:16 2021, MaxMem= 23488102400 cpu:               3.4 elap:               0.2
 (Enter /sw/apps/gaussian-16.0/g16/l202.exe)
 Stoichiometry    C68H72Mg2N8O8
 Framework group  C1[X(C68H72Mg2N8O8)]
 Deg. of freedom   468
 Full point group                 C1      NOp   1
 Largest Abelian subgroup         C1      NOp   1
 Largest concise Abelian subgroup C1      NOp   1
                         Standard orientation:                         
 ---------------------------------------------------------------------
 Center     Atomic      Atomic             Coordinates (Angstroms)
 Number     Number       Type             X           Y           Z
 ---------------------------------------------------------------------
      1         12           0       -4.384308    0.492222   -0.726211
      2          6           0       -4.641331   -2.813196    0.622998
      3          6           0       -5.768806    1.625294    2.179366
      4          6           0       -4.587746    3.358371   -2.068010
      5          6           0       -4.097847   -0.974408   -3.874638
      6          7           0       -5.073298   -0.558313    1.096511
      7          6           0       -5.061270   -1.821070    1.511808
      8          6           0       -5.465812   -1.983387    3.007593
      9          6           0       -6.317915   -0.647463    3.184304
     10          6           0       -5.658628    0.204509    2.114067
     11          6           0       -7.793786   -0.815887    2.837982
     12          6           0       -4.223762   -2.000978    3.960868
     13          6           0       -4.502699   -2.479322    5.388710
     14          1           0       -3.482887   -3.253998    6.079513
     15          7           0       -4.613148    2.276165    0.091122
     16          6           0       -5.183535    2.551119    1.288763
     17          6           0       -5.114647    4.019928    1.445397
     18          6           0       -4.629961    4.592495    0.158797
     19          6           0       -4.615696    3.419012   -0.676734
     20          6           0       -5.439508    4.727056    2.725314
     21          6           0       -4.251327    5.979319   -0.255313
     22          8           0       -4.079195    6.300091   -1.480895
     23          6           0       -4.172662    6.986937    0.817795
     24          7           0       -4.569253    1.122671   -2.707615
     25          6           0       -4.576802    2.423160   -3.020115
     26          6           0       -4.432450    2.630267   -4.498698
     27          6           0       -4.078870    1.199430   -5.113058
     28          6           0       -4.167236    0.357452   -3.816318
     29          6           0       -5.661253    3.204620   -5.217151
     30          6           0       -2.792087    1.100736   -5.970303
     31          6           0       -1.575890    1.311451   -5.096482
     32          7           0       -4.191012   -1.525362   -1.502764
     33          6           0       -4.109218   -1.906016   -2.850016
     34          6           0       -4.100232   -3.380099   -2.882646
     35          6           0       -4.194749   -3.757099   -1.544445
     36          6           0       -4.285167   -2.592592   -0.729559
     37          6           0       -4.070703   -4.187578   -4.053774
     38          6           0       -4.265201   -4.873131   -0.615269
     39          8           0       -4.142533   -6.094701   -0.716325
     40          6           0       -4.679739   -4.308925    0.814995
     41          6           0       -3.746521   -4.911838    1.829347
     42          8           0       -2.533185   -4.620044    1.835317
     43          8           0       -4.462588   -5.544625    2.771351
     44          6           0       -3.598117   -6.140467    3.824829
     45          1           0       -6.407908    2.070532    2.944385
     46          1           0       -4.544753    4.329449   -2.565603
     47          1           0       -3.925360   -1.501146   -4.814983
     48          1           0       -6.088760   -2.852882    3.218160
     49          1           0       -6.173509   -0.199715    4.167356
     50          1           0       -7.991566   -1.795236    2.402458
     51          1           0       -8.015744   -0.027448    2.118543
     52          1           0       -8.420990   -0.614074    3.706696
     53          1           0       -3.913399   -0.976401    4.165754
     54          1           0       -3.416909   -2.596496    3.532298
     55          1           0       -5.472086   -2.973202    5.461374
     56          1           0       -4.596332   -1.603079    6.030295
     57          1           0       -5.923573    4.061448    3.438891
     58          1           0       -6.198244    5.473995    2.492698
     59          1           0       -4.565486    5.213473    3.158692
     60          1           0       -5.139878    7.058696    1.315681
     61          1           0       -3.802257    7.897683    0.348549
     62          1           0       -3.464049    6.644456    1.572463
     63          1           0       -3.622010    3.323822   -4.719141
     64          1           0       -4.865938    0.831223   -5.771557
     65          1           0       -5.458942    4.127947   -5.760513
     66          1           0       -6.446919    3.350878   -4.476457
     67          1           0       -6.144813    2.520253   -5.913735
     68          1           0       -2.781140    1.882394   -6.729142
     69          1           0       -2.686600    0.142687   -6.479485
     70          1           0       -1.495420    2.396851   -5.048918
     71          1           0       -0.692199    0.874507   -5.562722
     72          1           0       -1.747954    0.952677   -4.081513
     73          1           0       -3.356292   -4.986497   -3.855499
     74          1           0       -3.781584   -3.605767   -4.928708
     75          1           0       -5.108116   -4.518906   -4.096811
     76          1           0       -5.714166   -4.607574    0.981999
     77          1           0       -3.840016   -7.202115    3.876031
     78          1           0       -3.749221   -5.543146    4.724151
     79          1           0       -2.530693   -6.182966    3.605424
     80         12           0        4.505128    0.902480    0.640541
     81          6           0        4.727467   -2.144385   -1.242603
     82          6           0        3.307011   -0.962520    3.233008
     83          6           0        3.873895    3.611320    2.167365
     84          6           0        4.618189    2.620512   -2.389515
     85          7           0        4.113281   -1.264532    0.847303
     86          6           0        4.293960   -2.333399    0.086227
     87          6           0        4.070098   -3.686259    0.813705
     88          6           0        3.097398   -3.172167    1.983508
     89          6           0        3.552277   -1.716036    2.057359
     90          6           0        1.627772   -3.194474    1.597475
     91          6           0        5.401490   -4.280658    1.393443
     92          6           0        5.311550   -5.740362    1.843917
     93          1           0        6.476291   -6.600443    1.653913
     94          7           0        4.177556    1.244106    2.567864
     95          6           0        3.711151    0.367548    3.481869
     96          6           0        3.628848    1.112110    4.747968
     97          6           0        3.928182    2.543295    4.470802
     98          6           0        3.985657    2.524977    3.022891
     99          6           0        3.370936    0.446111    6.068319
    100          6           0        4.117121    3.734186    5.360916
    101          8           0        4.133642    4.927805    4.894190
    102          6           0        4.188645    3.468434    6.805122
    103          7           0        4.065420    2.824020   -0.020280
    104          6           0        3.884868    3.830830    0.852449
    105          6           0        3.855152    5.165609    0.146861
    106          6           0        4.297010    4.864743   -1.360391
    107          6           0        4.425096    3.327465   -1.284482
    108          6           0        2.508395    5.888548    0.147446
    109          6           0        5.495862    5.679685   -1.918350
    110          6           0        6.766304    5.286707   -1.199360
    111          7           0        4.831165    0.382534   -1.431029
    112          6           0        4.811095    1.253472   -2.542408
    113          6           0        4.970342    0.419938   -3.751659
    114          6           0        5.049544   -0.890780   -3.257478
    115          6           0        4.926642   -0.877083   -1.841781
    116          6           0        4.976386    0.893903   -5.093839
    117          6           0        5.198504   -2.283833   -3.612350
    118          8           0        5.429330   -2.894756   -4.655047
    119          6           0        4.869767   -3.168971   -2.333738
    120          6           0        5.956339   -4.199151   -2.190124
    121          8           0        7.123454   -3.855150   -1.932991
    122          8           0        5.401142   -5.424489   -2.164082
    123          6           0        6.438133   -6.479607   -2.011808
    124          1           0        2.712090   -1.416884    4.025795
    125          1           0        3.766178    4.584289    2.652340
    126          1           0        4.761451    3.089794   -3.365183
    127          1           0        3.571010   -4.443548    0.221089
    128          1           0        3.301955   -3.683526    2.920538
    129          1           0        1.488618   -3.441580    0.555493
    130          1           0        1.254353   -2.199931    1.803589
    131          1           0        1.074437   -3.867238    2.258944
    132          1           0        5.618917   -3.800043    2.355981
    133          1           0        6.205990   -4.167565    0.693010
    134          1           0        4.405491   -6.232176    1.469583
    135          1           0        5.198701   -5.761853    2.930568
    136          1           0        3.026089   -0.586993    5.937179
    137          1           0        2.518809    0.960969    6.525114
    138          1           0        4.225584    0.508023    6.745383
    139          1           0        3.276696    2.970826    7.126355
    140          1           0        4.414734    4.430751    7.268490
    141          1           0        5.011266    2.769119    6.991849
    142          1           0        4.564607    5.853382    0.590414
    143          1           0        3.486525    5.077757   -2.072840
    144          1           0        2.557799    6.903074    0.586045
    145          1           0        1.793259    5.277565    0.682072
    146          1           0        2.039287    5.991861   -0.829519
    147          1           0        5.349537    6.746030   -1.729548
    148          1           0        5.640516    5.558670   -2.986723
    149          1           0        6.731576    5.891755   -0.288426
    150          1           0        7.638738    5.530625   -1.802181
    151          1           0        6.737605    4.233483   -0.896809
    152          1           0        5.778630    0.376623   -5.603076
    153          1           0        5.109605    1.972984   -5.133828
    154          1           0        3.974929    0.591865   -5.411848
    155          1           0        3.891919   -3.624886   -2.493516
    156          1           0        6.311267   -7.175188   -2.847123
    157          1           0        6.302558   -6.886786   -0.992213
    158          1           0        7.473883   -6.186093   -2.136438
 ---------------------------------------------------------------------
 Rotational constants (GHZ):           0.0204199           0.0142819           0.0127382
 Leave Link  202 at Fri Sep  3 23:32:16 2021, MaxMem= 23488102400 cpu:               0.2 elap:               0.0
 (Enter /sw/apps/gaussian-16.0/g16/l301.exe)
 Standard basis: def2SVP (5D, 7F)
 Ernie: Thresh=  0.10000D-02 Tol=  0.10000D-05 Strict=F.
 There are  1658 symmetry adapted cartesian basis functions of A   symmetry.
 There are  1572 symmetry adapted basis functions of A   symmetry.
  1572 basis functions,  2678 primitive gaussians,  1658 cartesian basis functions
   312 alpha electrons      312 beta electrons
       nuclear repulsion energy     15499.6524611821 Hartrees.
 IExCor=20419 DFT=T Ex+Corr=CAM-B3LYP ExCW=0 ScaHFX=  1.000000
 ScaDFX=  1.000000  1.000000  1.000000  0.810000 ScalE2=  1.000000  1.000000
 IRadAn=      5 IRanWt=     -1 IRanGd=            0 ICorTp=0 IEmpDi=  4
 HFx  wShort=  0.000000 wLong=  0.330000 cFull=  0.190000 cShort=  0.000000 cLong=  0.460000
 DFx  wShort=  0.000000 wLong=  0.330000 cFull=  0.190000 cShort=  0.000000 cLong=  0.460000
 NAtoms=  158 NActive=  158 NUniq=  158 SFac= 1.00D+00 NAtFMM=   60 NAOKFM=T Big=T
 Integral buffers will be    131072 words long.
 Raffenetti 1 integral format.
 Two-electron integral symmetry is turned on.
 Leave Link  301 at Fri Sep  3 23:32:16 2021, MaxMem= 23488102400 cpu:               1.3 elap:               0.1
 (Enter /sw/apps/gaussian-16.0/g16/l302.exe)
 NPDir=0 NMtPBC=     1 NCelOv=     1 NCel=       1 NClECP=     1 NCelD=      1
         NCelK=      1 NCelE2=     1 NClLst=     1 CellRange=     0.0.
 One-electron integrals computed using PRISM.
 One-electron integral symmetry used in STVInt
   1 Symmetry operations used in ECPInt.
 ECPInt:  NShTT=  271216 NPrTT=  987664 LenC2=  154260 LenP2D=  321129.
 LDataN:  DoStor=T MaxTD1= 4 Len=   56
 NBasis=  1572 RedAO= T EigKep=  3.36D-04  NBF=  1572
 NBsUse=  1572 1.00D-06 EigRej= -1.00D+00 NBFU=  1572
 Precomputing XC quadrature grid using
 IXCGrd= 4 IRadAn=           5 IRanWt=          -1 IRanGd=           0 AccXCQ= 0.00D+00.
 Generated NRdTot=       0 NPtTot=           0 NUsed=           0 NTot=          32
 NSgBfM=  1241  1236  1237  1240  1241 MxSgAt=   158 MxSgA2=   158.
 Leave Link  302 at Fri Sep  3 23:32:21 2021, MaxMem= 23488102400 cpu:             125.2 elap:               5.2
 (Enter /sw/apps/gaussian-16.0/g16/l303.exe)
 DipDrv:  MaxL=1.
 Leave Link  303 at Fri Sep  3 23:32:22 2021, MaxMem= 23488102400 cpu:              10.1 elap:               0.5
 (Enter /sw/apps/gaussian-16.0/g16/l308.exe)
 Leave Link  308 at Fri Sep  3 23:32:22 2021, MaxMem= 23488102400 cpu:              13.0 elap:               0.6
 (Enter /sw/apps/gaussian-16.0/g16/l401.exe)
 ExpMin= 3.36D-02 ExpMax= 4.95D+03 ExpMxC= 7.45D+02 IAcc=3 IRadAn=         5 AccDes= 0.00D+00
 Harris functional with IExCor=20419 and IRadAn=       5 diagonalized for initial guess.
 HarFok:  IExCor=20419 AccDes= 0.00D+00 IRadAn=         5 IDoV= 1 UseB2=F ITyADJ=14
 ICtDFT=  3500011 ScaDFX=  1.000000  1.000000  1.000000  1.000000
 FoFCou: FMM=F IPFlag=           0 FMFlag=      100000 FMFlg1=        2001
         NFxFlg=           0 DoJE=T BraDBF=F KetDBF=T FulRan=T
         wScrn=  0.000000 ICntrl=       500 IOpCl=  0 I1Cent=   200000004 NGrid=           0
         NMat0=    1 NMatS0=      1 NMatT0=    0 NMatD0=    1 NMtDS0=    0 NMtDT0=    0
 Petite list used in FoFCou.
 Harris En= -3918.65861074536    
 JPrj=0 DoOrth=F DoCkMO=F.
 Leave Link  401 at Fri Sep  3 23:32:30 2021, MaxMem= 23488102400 cpu:             188.9 elap:               7.9
 (Enter /sw/apps/gaussian-16.0/g16/l502.exe)
 Integral symmetry usage will be decided dynamically.
 Closed shell SCF:
 Using DIIS extrapolation, IDIIS=  1040.
 NGot= 23488102400 LenX= 23482547354 LenY= 23479796732
 Requested convergence on RMS density matrix=1.00D-08 within 128 cycles.
 Requested convergence on MAX density matrix=1.00D-06.
 Requested convergence on             energy=1.00D-06.
 No special actions if energy rises.
 Fock matrices will be formed incrementally for  20 cycles.

 Cycle   1  Pass 1  IDiag  1:
 FoFJK:  IHMeth= 1 ICntrl=       0 DoSepK=T KAlg= 0 I1Cent=           0 FoldK=F
 IRaf=         1 NMat=       1 IRICut=       1 DoRegI=T DoRafI=F ISym2E= 0 IDoP0=0 IntGTp=1.
 FoFCou: FMM=T IPFlag=           0 FMFlag=      100000 FMFlg1=        2001
         NFxFlg=           0 DoJE=T BraDBF=F KetDBF=F FulRan=T
         wScrn=  0.000000 ICntrl=       500 IOpCl=  0 I1Cent=           0 NGrid=           0
         NMat0=    1 NMatS0=      1 NMatT0=    0 NMatD0=    1 NMtDS0=    0 NMtDT0=    0
 Symmetry not used in FoFCou.
 FMM levels:  10  Number of levels for PrismC:   9
 E= -4068.95070666830    
 DIIS: error= 2.04D-02 at cycle   1 NSaved=   1.
 NSaved= 1 IEnMin= 1 EnMin= -4068.95070666830     IErMin= 1 ErrMin= 2.04D-02
 ErrMax= 2.04D-02  0.00D+00 EMaxC= 1.00D-01 BMatC= 1.69D+00 BMatP= 1.69D+00
 IDIUse=3 WtCom= 7.96D-01 WtEn= 2.04D-01
 Coeff-Com:  0.100D+01
 Coeff-En:   0.100D+01
 Coeff:      0.100D+01
 Gap=     0.120 Goal=   None    Shift=    0.000
 GapD=    0.120 DampG=1.000 DampE=0.500 DampFc=0.5000 IDamp=-1.
 Damping current iteration by 5.00D-01
 RMSDP=1.57D-03 MaxDP=1.36D-01              OVMax= 2.02D-01

 Cycle   2  Pass 1  IDiag  1:
 RMSU=  7.71D-04    CP:  9.82D-01
 E= -4069.33962399559     Delta-E=       -0.388917327287 Rises=F Damp=T
 DIIS: error= 1.27D-02 at cycle   2 NSaved=   2.
 NSaved= 2 IEnMin= 2 EnMin= -4069.33962399559     IErMin= 2 ErrMin= 1.27D-02
 ErrMax= 1.27D-02  0.00D+00 EMaxC= 1.00D-01 BMatC= 3.06D-01 BMatP= 1.69D+00
 IDIUse=3 WtCom= 8.73D-01 WtEn= 1.27D-01
 Coeff-Com: -0.214D+00 0.121D+01
 Coeff-En:   0.000D+00 0.100D+01
 Coeff:     -0.187D+00 0.119D+01
 Gap=     0.133 Goal=   None    Shift=    0.000
 RMSDP=7.67D-04 MaxDP=9.44D-02 DE=-3.89D-01 OVMax= 1.91D-01

 Cycle   3  Pass 1  IDiag  1:
 RMSU=  7.34D-04    CP:  9.68D-01  1.24D+00
 E= -4069.62880880646     Delta-E=       -0.289184810874 Rises=F Damp=F
 DIIS: error= 1.53D-02 at cycle   3 NSaved=   3.
 NSaved= 3 IEnMin= 3 EnMin= -4069.62880880646     IErMin= 2 ErrMin= 1.27D-02
 ErrMax= 1.53D-02  0.00D+00 EMaxC= 1.00D-01 BMatC= 2.01D-01 BMatP= 3.06D-01
 IDIUse=3 WtCom= 8.47D-01 WtEn= 1.53D-01
 Coeff-Com: -0.267D+00 0.651D+00 0.616D+00
 Coeff-En:   0.000D+00 0.000D+00 0.100D+01
 Coeff:     -0.226D+00 0.552D+00 0.675D+00
 Gap=     0.119 Goal=   None    Shift=    0.000
 RMSDP=5.11D-04 MaxDP=4.71D-02 DE=-2.89D-01 OVMax= 1.43D-01

 Cycle   4  Pass 1  IDiag  1:
 RMSU=  2.66D-04    CP:  9.65D-01  1.55D+00  5.04D-01
 E= -4069.76654200458     Delta-E=       -0.137733198117 Rises=F Damp=F
 DIIS: error= 6.85D-03 at cycle   4 NSaved=   4.
 NSaved= 4 IEnMin= 4 EnMin= -4069.76654200458     IErMin= 4 ErrMin= 6.85D-03
 ErrMax= 6.85D-03  0.00D+00 EMaxC= 1.00D-01 BMatC= 4.91D-02 BMatP= 2.01D-01
 IDIUse=3 WtCom= 9.31D-01 WtEn= 6.85D-02
 Coeff-Com: -0.109D+00 0.227D+00 0.407D+00 0.475D+00
 Coeff-En:   0.000D+00 0.000D+00 0.219D+00 0.781D+00
 Coeff:     -0.102D+00 0.212D+00 0.394D+00 0.496D+00
 Gap=     0.119 Goal=   None    Shift=    0.000
 RMSDP=2.02D-04 MaxDP=1.91D-02 DE=-1.38D-01 OVMax= 6.46D-02

 Cycle   5  Pass 1  IDiag  1:
 RMSU=  7.75D-05    CP:  9.64D-01  1.49D+00  6.88D-01  5.48D-01
 E= -4069.81155888283     Delta-E=       -0.045016878252 Rises=F Damp=F
 DIIS: error= 6.92D-04 at cycle   5 NSaved=   5.
 NSaved= 5 IEnMin= 5 EnMin= -4069.81155888283     IErMin= 5 ErrMin= 6.92D-04
 ErrMax= 6.92D-04  0.00D+00 EMaxC= 1.00D-01 BMatC= 1.23D-03 BMatP= 4.91D-02
 IDIUse=3 WtCom= 9.93D-01 WtEn= 6.92D-03
 Coeff-Com: -0.379D-01 0.746D-01 0.171D+00 0.254D+00 0.539D+00
 Coeff-En:   0.000D+00 0.000D+00 0.000D+00 0.000D+00 0.100D+01
 Coeff:     -0.376D-01 0.740D-01 0.169D+00 0.252D+00 0.542D+00
 Gap=     0.119 Goal=   None    Shift=    0.000
 RMSDP=4.42D-05 MaxDP=4.74D-03 DE=-4.50D-02 OVMax= 2.01D-02

 Cycle   6  Pass 1  IDiag  1:
 RMSU=  3.23D-05    CP:  9.64D-01  1.49D+00  6.79D-01  6.22D-01  7.26D-01
 E= -4069.81266333364     Delta-E=       -0.001104450806 Rises=F Damp=F
 DIIS: error= 2.08D-04 at cycle   6 NSaved=   6.
 NSaved= 6 IEnMin= 6 EnMin= -4069.81266333364     IErMin= 6 ErrMin= 2.08D-04
 ErrMax= 2.08D-04  0.00D+00 EMaxC= 1.00D-01 BMatC= 2.03D-04 BMatP= 1.23D-03
 IDIUse=3 WtCom= 9.98D-01 WtEn= 2.08D-03
 Coeff-Com:  0.153D-02-0.527D-02 0.140D-01 0.437D-01 0.312D+00 0.634D+00
 Coeff-En:   0.000D+00 0.000D+00 0.000D+00 0.000D+00 0.134D+00 0.866D+00
 Coeff:      0.153D-02-0.526D-02 0.140D-01 0.436D-01 0.312D+00 0.634D+00
 Gap=     0.119 Goal=   None    Shift=    0.000
 RMSDP=1.77D-05 MaxDP=1.21D-03 DE=-1.10D-03 OVMax= 8.23D-03

 Cycle   7  Pass 1  IDiag  1:
 RMSU=  1.13D-05    CP:  9.64D-01  1.50D+00  6.85D-01  6.20D-01  8.42D-01
                    CP:  7.22D-01
 E= -4069.81289017553     Delta-E=       -0.000226841898 Rises=F Damp=F
 DIIS: error= 1.12D-04 at cycle   7 NSaved=   7.
 NSaved= 7 IEnMin= 7 EnMin= -4069.81289017553     IErMin= 7 ErrMin= 1.12D-04
 ErrMax= 1.12D-04  0.00D+00 EMaxC= 1.00D-01 BMatC= 2.66D-05 BMatP= 2.03D-04
 IDIUse=3 WtCom= 9.99D-01 WtEn= 1.12D-03
 Coeff-Com:  0.451D-02-0.994D-02-0.849D-02-0.259D-02 0.112D+00 0.341D+00
 Coeff-Com:  0.563D+00
 Coeff-En:   0.000D+00 0.000D+00 0.000D+00 0.000D+00 0.000D+00 0.000D+00
 Coeff-En:   0.100D+01
 Coeff:      0.450D-02-0.993D-02-0.848D-02-0.259D-02 0.112D+00 0.341D+00
 Coeff:      0.563D+00
 Gap=     0.119 Goal=   None    Shift=    0.000
 RMSDP=6.83D-06 MaxDP=1.22D-03 DE=-2.27D-04 OVMax= 3.69D-03

 Cycle   8  Pass 1  IDiag  1:
 RMSU=  4.79D-06    CP:  9.64D-01  1.50D+00  6.86D-01  6.25D-01  8.42D-01
                    CP:  8.46D-01  8.02D-01
 E= -4069.81292258588     Delta-E=       -0.000032410342 Rises=F Damp=F
 DIIS: error= 5.62D-05 at cycle   8 NSaved=   8.
 NSaved= 8 IEnMin= 8 EnMin= -4069.81292258588     IErMin= 8 ErrMin= 5.62D-05
 ErrMax= 5.62D-05  0.00D+00 EMaxC= 1.00D-01 BMatC= 4.80D-06 BMatP= 2.66D-05
 IDIUse=1 WtCom= 1.00D+00 WtEn= 0.00D+00
 Coeff-Com:  0.225D-02-0.447D-02-0.790D-02-0.122D-01-0.925D-02 0.341D-01
 Coeff-Com:  0.312D+00 0.685D+00
 Coeff:      0.225D-02-0.447D-02-0.790D-02-0.122D-01-0.925D-02 0.341D-01
 Coeff:      0.312D+00 0.685D+00
 Gap=     0.119 Goal=   None    Shift=    0.000
 RMSDP=3.38D-06 MaxDP=4.37D-04 DE=-3.24D-05 OVMax= 1.20D-03

 Cycle   9  Pass 1  IDiag  1:
 RMSU=  1.95D-06    CP:  9.64D-01  1.50D+00  6.86D-01  6.27D-01  8.59D-01
                    CP:  8.74D-01  9.92D-01  9.72D-01
 E= -4069.81293030311     Delta-E=       -0.000007717230 Rises=F Damp=F
 DIIS: error= 2.09D-05 at cycle   9 NSaved=   9.
 NSaved= 9 IEnMin= 9 EnMin= -4069.81293030311     IErMin= 9 ErrMin= 2.09D-05
 ErrMax= 2.09D-05  0.00D+00 EMaxC= 1.00D-01 BMatC= 7.58D-07 BMatP= 4.80D-06
 IDIUse=1 WtCom= 1.00D+00 WtEn= 0.00D+00
 Coeff-Com:  0.520D-03-0.880D-03-0.284D-02-0.622D-02-0.208D-01-0.389D-01
 Coeff-Com:  0.913D-01 0.347D+00 0.631D+00
 Coeff:      0.520D-03-0.880D-03-0.284D-02-0.622D-02-0.208D-01-0.389D-01
 Coeff:      0.913D-01 0.347D+00 0.631D+00
 Gap=     0.119 Goal=   None    Shift=    0.000
 RMSDP=1.41D-06 MaxDP=1.43D-04 DE=-7.72D-06 OVMax= 7.31D-04

 Cycle  10  Pass 1  IDiag  1:
 RMSU=  9.47D-07    CP:  9.64D-01  1.50D+00  6.86D-01  6.27D-01  8.63D-01
                    CP:  8.85D-01  1.04D+00  1.13D+00  1.05D+00
 E= -4069.81293194247     Delta-E=       -0.000001639361 Rises=F Damp=F
 DIIS: error= 1.00D-05 at cycle  10 NSaved=  10.
 NSaved=10 IEnMin=10 EnMin= -4069.81293194247     IErMin=10 ErrMin= 1.00D-05
 ErrMax= 1.00D-05  0.00D+00 EMaxC= 1.00D-01 BMatC= 1.61D-07 BMatP= 7.58D-07
 IDIUse=1 WtCom= 1.00D+00 WtEn= 0.00D+00
 Coeff-Com: -0.412D-03 0.867D-03 0.115D-02 0.985D-03-0.389D-02-0.303D-01
 Coeff-Com: -0.423D-01-0.650D-01 0.227D+00 0.912D+00
 Coeff:     -0.412D-03 0.867D-03 0.115D-02 0.985D-03-0.389D-02-0.303D-01
 Coeff:     -0.423D-01-0.650D-01 0.227D+00 0.912D+00
 Gap=     0.119 Goal=   None    Shift=    0.000
 RMSDP=1.21D-06 MaxDP=1.20D-04 DE=-1.64D-06 OVMax= 6.20D-04

 Cycle  11  Pass 1  IDiag  1:
 RMSU=  5.28D-07    CP:  9.64D-01  1.50D+00  6.86D-01  6.27D-01  8.65D-01
                    CP:  8.95D-01  1.08D+00  1.24D+00  1.38D+00  1.35D+00
 E= -4069.81293270336     Delta-E=       -0.000000760894 Rises=F Damp=F
 DIIS: error= 4.42D-06 at cycle  11 NSaved=  11.
 NSaved=11 IEnMin=11 EnMin= -4069.81293270336     IErMin=11 ErrMin= 4.42D-06
 ErrMax= 4.42D-06  0.00D+00 EMaxC= 1.00D-01 BMatC= 6.66D-08 BMatP= 1.61D-07
 IDIUse=1 WtCom= 1.00D+00 WtEn= 0.00D+00
 Coeff-Com: -0.341D-03 0.665D-03 0.134D-02 0.210D-02 0.422D-02-0.874D-02
 Coeff-Com: -0.399D-01-0.128D+00-0.405D-01 0.495D+00 0.714D+00
 Coeff:     -0.341D-03 0.665D-03 0.134D-02 0.210D-02 0.422D-02-0.874D-02
 Coeff:     -0.399D-01-0.128D+00-0.405D-01 0.495D+00 0.714D+00
 Gap=     0.119 Goal=   None    Shift=    0.000
 RMSDP=6.78D-07 MaxDP=5.91D-05 DE=-7.61D-07 OVMax= 3.54D-04

 Cycle  12  Pass 1  IDiag  1:
 RMSU=  2.69D-07    CP:  9.64D-01  1.50D+00  6.86D-01  6.28D-01  8.66D-01
                    CP:  8.97D-01  1.10D+00  1.31D+00  1.53D+00  1.74D+00
                    CP:  1.17D+00
 E= -4069.81293296313     Delta-E=       -0.000000259770 Rises=F Damp=F
 DIIS: error= 2.56D-06 at cycle  12 NSaved=  12.
 NSaved=12 IEnMin=12 EnMin= -4069.81293296313     IErMin=12 ErrMin= 2.56D-06
 ErrMax= 2.56D-06  0.00D+00 EMaxC= 1.00D-01 BMatC= 1.58D-08 BMatP= 6.66D-08
 IDIUse=1 WtCom= 1.00D+00 WtEn= 0.00D+00
 Coeff-Com: -0.253D-04 0.336D-04 0.265D-03 0.623D-03 0.350D-02 0.299D-02
 Coeff-Com:  0.304D-03-0.382D-01-0.733D-01-0.292D-01 0.261D+00 0.872D+00
 Coeff:     -0.253D-04 0.336D-04 0.265D-03 0.623D-03 0.350D-02 0.299D-02
 Coeff:      0.304D-03-0.382D-01-0.733D-01-0.292D-01 0.261D+00 0.872D+00
 Gap=     0.119 Goal=   None    Shift=    0.000
 RMSDP=4.14D-07 MaxDP=2.79D-05 DE=-2.60D-07 OVMax= 2.39D-04

 Cycle  13  Pass 1  IDiag  1:
 RMSU=  1.68D-07    CP:  9.64D-01  1.50D+00  6.86D-01  6.28D-01  8.66D-01
                    CP:  8.97D-01  1.10D+00  1.33D+00  1.63D+00  1.95D+00
                    CP:  1.57D+00  1.21D+00
 E= -4069.81293305089     Delta-E=       -0.000000087755 Rises=F Damp=F
 DIIS: error= 1.51D-06 at cycle  13 NSaved=  13.
 NSaved=13 IEnMin=13 EnMin= -4069.81293305089     IErMin=13 ErrMin= 1.51D-06
 ErrMax= 1.51D-06  0.00D+00 EMaxC= 1.00D-01 BMatC= 9.04D-09 BMatP= 1.58D-08
 IDIUse=1 WtCom= 1.00D+00 WtEn= 0.00D+00
 Coeff-Com:  0.117D-03-0.239D-03-0.349D-03-0.422D-03 0.777D-03 0.463D-02
 Coeff-Com:  0.178D-01 0.225D-01-0.331D-01-0.232D+00-0.164D+00 0.587D+00
 Coeff-Com:  0.797D+00
 Coeff:      0.117D-03-0.239D-03-0.349D-03-0.422D-03 0.777D-03 0.463D-02
 Coeff:      0.178D-01 0.225D-01-0.331D-01-0.232D+00-0.164D+00 0.587D+00
 Coeff:      0.797D+00
 Gap=     0.119 Goal=   None    Shift=    0.000
 RMSDP=3.45D-07 MaxDP=2.21D-05 DE=-8.78D-08 OVMax= 1.93D-04

 Cycle  14  Pass 1  IDiag  1:
 RMSU=  7.85D-08    CP:  9.64D-01  1.50D+00  6.86D-01  6.28D-01  8.67D-01
                    CP:  8.97D-01  1.11D+00  1.35D+00  1.70D+00  2.14D+00
                    CP:  1.82D+00  1.74D+00  1.11D+00
 E= -4069.81293308986     Delta-E=       -0.000000038974 Rises=F Damp=F
 DIIS: error= 7.19D-07 at cycle  14 NSaved=  14.
 NSaved=14 IEnMin=14 EnMin= -4069.81293308986     IErMin=14 ErrMin= 7.19D-07
 ErrMax= 7.19D-07  0.00D+00 EMaxC= 1.00D-01 BMatC= 1.36D-09 BMatP= 9.04D-09
 IDIUse=1 WtCom= 1.00D+00 WtEn= 0.00D+00
 Coeff-Com:  0.703D-04-0.139D-03-0.256D-03-0.397D-03-0.419D-03 0.120D-02
 Coeff-Com:  0.102D-01 0.204D-01 0.443D-02-0.104D+00-0.152D+00 0.914D-01
 Coeff-Com:  0.407D+00 0.723D+00
 Coeff:      0.703D-04-0.139D-03-0.256D-03-0.397D-03-0.419D-03 0.120D-02
 Coeff:      0.102D-01 0.204D-01 0.443D-02-0.104D+00-0.152D+00 0.914D-01
 Coeff:      0.407D+00 0.723D+00
 Gap=     0.119 Goal=   None    Shift=    0.000
 RMSDP=1.11D-07 MaxDP=7.24D-06 DE=-3.90D-08 OVMax= 6.50D-05

 Cycle  15  Pass 1  IDiag  1:
 RMSU=  3.94D-08    CP:  9.64D-01  1.50D+00  6.86D-01  6.28D-01  8.67D-01
                    CP:  8.97D-01  1.11D+00  1.36D+00  1.72D+00  2.19D+00
                    CP:  1.94D+00  1.89D+00  1.36D+00  1.03D+00
 E= -4069.81293309456     Delta-E=       -0.000000004704 Rises=F Damp=F
 DIIS: error= 4.60D-07 at cycle  15 NSaved=  15.
 NSaved=15 IEnMin=15 EnMin= -4069.81293309456     IErMin=15 ErrMin= 4.60D-07
 ErrMax= 4.60D-07  0.00D+00 EMaxC= 1.00D-01 BMatC= 2.52D-10 BMatP= 1.36D-09
 IDIUse=1 WtCom= 1.00D+00 WtEn= 0.00D+00
 Coeff-Com:  0.981D-05-0.177D-04-0.478D-04-0.103D-03-0.303D-03-0.456D-03
 Coeff-Com:  0.158D-02 0.388D-02 0.857D-02-0.385D-02-0.375D-01-0.668D-01
 Coeff-Com:  0.412D-01 0.320D+00 0.734D+00
 Coeff:      0.981D-05-0.177D-04-0.478D-04-0.103D-03-0.303D-03-0.456D-03
 Coeff:      0.158D-02 0.388D-02 0.857D-02-0.385D-02-0.375D-01-0.668D-01
 Coeff:      0.412D-01 0.320D+00 0.734D+00
 Gap=     0.119 Goal=   None    Shift=    0.000
 RMSDP=3.92D-08 MaxDP=2.43D-06 DE=-4.70D-09 OVMax= 2.31D-05

 Cycle  16  Pass 1  IDiag  1:
 RMSU=  1.93D-08    CP:  9.64D-01  1.50D+00  6.86D-01  6.28D-01  8.67D-01
                    CP:  8.97D-01  1.11D+00  1.36D+00  1.73D+00  2.20D+00
                    CP:  1.96D+00  1.94D+00  1.43D+00  1.23D+00  1.11D+00
 E= -4069.81293309535     Delta-E=       -0.000000000786 Rises=F Damp=F
 DIIS: error= 2.20D-07 at cycle  16 NSaved=  16.
 NSaved=16 IEnMin=16 EnMin= -4069.81293309535     IErMin=16 ErrMin= 2.20D-07
 ErrMax= 2.20D-07  0.00D+00 EMaxC= 1.00D-01 BMatC= 9.07D-11 BMatP= 2.52D-10
 IDIUse=1 WtCom= 1.00D+00 WtEn= 0.00D+00
 Coeff-Com: -0.129D-04 0.263D-04 0.412D-04 0.440D-04-0.437D-04-0.610D-03
 Coeff-Com: -0.159D-02-0.379D-02 0.403D-02 0.238D-01 0.190D-01-0.621D-01
 Coeff-Com: -0.776D-01-0.227D-01 0.393D+00 0.728D+00
 Coeff:     -0.129D-04 0.263D-04 0.412D-04 0.440D-04-0.437D-04-0.610D-03
 Coeff:     -0.159D-02-0.379D-02 0.403D-02 0.238D-01 0.190D-01-0.621D-01
 Coeff:     -0.776D-01-0.227D-01 0.393D+00 0.728D+00
 Gap=     0.119 Goal=   None    Shift=    0.000
 RMSDP=2.34D-08 MaxDP=1.64D-06 DE=-7.86D-10 OVMax= 1.59D-05

 Cycle  17  Pass 1  IDiag  1:
 RMSU=  1.12D-08    CP:  9.64D-01  1.50D+00  6.86D-01  6.28D-01  8.67D-01
                    CP:  8.97D-01  1.11D+00  1.36D+00  1.73D+00  2.21D+00
                    CP:  1.97D+00  1.97D+00  1.48D+00  1.32D+00  1.40D+00
                    CP:  1.17D+00
 E= -4069.81293309577     Delta-E=       -0.000000000426 Rises=F Damp=F
 DIIS: error= 1.19D-07 at cycle  17 NSaved=  17.
 NSaved=17 IEnMin=17 EnMin= -4069.81293309577     IErMin=17 ErrMin= 1.19D-07
 ErrMax= 1.19D-07  0.00D+00 EMaxC= 1.00D-01 BMatC= 2.27D-11 BMatP= 9.07D-11
 IDIUse=1 WtCom= 1.00D+00 WtEn= 0.00D+00
 Coeff-Com: -0.875D-05 0.172D-04 0.330D-04 0.468D-04 0.740D-04-0.193D-03
 Coeff-Com: -0.103D-02-0.317D-02 0.224D-03 0.122D-01 0.197D-01-0.136D-01
 Coeff-Com: -0.438D-01-0.994D-01-0.791D-03 0.345D+00 0.785D+00
 Coeff:     -0.875D-05 0.172D-04 0.330D-04 0.468D-04 0.740D-04-0.193D-03
 Coeff:     -0.103D-02-0.317D-02 0.224D-03 0.122D-01 0.197D-01-0.136D-01
 Coeff:     -0.438D-01-0.994D-01-0.791D-03 0.345D+00 0.785D+00
 Gap=     0.119 Goal=   None    Shift=    0.000
 RMSDP=1.34D-08 MaxDP=9.59D-07 DE=-4.26D-10 OVMax= 7.55D-06

 Cycle  18  Pass 1  IDiag  1:
 RMSU=  5.58D-09    CP:  9.64D-01  1.50D+00  6.86D-01  6.28D-01  8.67D-01
                    CP:  8.97D-01  1.11D+00  1.36D+00  1.73D+00  2.21D+00
                    CP:  1.98D+00  1.98D+00  1.50D+00  1.38D+00  1.55D+00
                    CP:  1.55D+00  1.30D+00
 E= -4069.81293309588     Delta-E=       -0.000000000102 Rises=F Damp=F
 DIIS: error= 7.40D-08 at cycle  18 NSaved=  18.
 NSaved=18 IEnMin=18 EnMin= -4069.81293309588     IErMin=18 ErrMin= 7.40D-08
 ErrMax= 7.40D-08  0.00D+00 EMaxC= 1.00D-01 BMatC= 8.30D-12 BMatP= 2.27D-11
 IDIUse=1 WtCom= 1.00D+00 WtEn= 0.00D+00
 Coeff-Com: -0.191D-06 0.294D-07 0.355D-05 0.901D-05 0.689D-04 0.107D-03
 Coeff-Com:  0.103D-03-0.495D-03-0.105D-02-0.254D-02 0.383D-02 0.142D-01
 Coeff-Com:  0.773D-02-0.465D-01-0.139D+00-0.844D-01 0.399D+00 0.849D+00
 Coeff:     -0.191D-06 0.294D-07 0.355D-05 0.901D-05 0.689D-04 0.107D-03
 Coeff:      0.103D-03-0.495D-03-0.105D-02-0.254D-02 0.383D-02 0.142D-01
 Coeff:      0.773D-02-0.465D-01-0.139D+00-0.844D-01 0.399D+00 0.849D+00
 Gap=     0.119 Goal=   None    Shift=    0.000
 RMSDP=1.01D-08 MaxDP=7.17D-07 DE=-1.02D-10 OVMax= 6.99D-06

 Cycle  19  Pass 1  IDiag  1:
 RMSU=  3.18D-09    CP:  9.64D-01  1.50D+00  6.86D-01  6.28D-01  8.67D-01
                    CP:  8.97D-01  1.11D+00  1.36D+00  1.73D+00  2.21D+00
                    CP:  1.98D+00  1.98D+00  1.51D+00  1.42D+00  1.68D+00
                    CP:  1.80D+00  1.79D+00  1.17D+00
 E= -4069.81293309594     Delta-E=       -0.000000000065 Rises=F Damp=F
 DIIS: error= 3.51D-08 at cycle  19 NSaved=  19.
 NSaved=19 IEnMin=19 EnMin= -4069.81293309594     IErMin=19 ErrMin= 3.51D-08
 ErrMax= 3.51D-08  0.00D+00 EMaxC= 1.00D-01 BMatC= 2.98D-12 BMatP= 8.30D-12
 IDIUse=1 WtCom= 1.00D+00 WtEn= 0.00D+00
 Coeff-Com:  0.328D-05-0.665D-05-0.106D-04-0.127D-04 0.218D-04 0.141D-03
 Coeff-Com:  0.500D-03 0.877D-03-0.689D-03-0.682D-02-0.539D-02 0.144D-01
 Coeff-Com:  0.237D-01 0.876D-02-0.924D-01-0.205D+00-0.642D-01 0.537D+00
 Coeff-Com:  0.789D+00
 Coeff:      0.328D-05-0.665D-05-0.106D-04-0.127D-04 0.218D-04 0.141D-03
 Coeff:      0.500D-03 0.877D-03-0.689D-03-0.682D-02-0.539D-02 0.144D-01
 Coeff:      0.237D-01 0.876D-02-0.924D-01-0.205D+00-0.642D-01 0.537D+00
 Coeff:      0.789D+00
 Gap=     0.119 Goal=   None    Shift=    0.000
 RMSDP=7.14D-09 MaxDP=4.75D-07 DE=-6.55D-11 OVMax= 4.02D-06

 SCF Done:  E(RCAM-B3LYP) =  -4069.81293310     A.U. after   19 cycles
            NFock= 19  Conv=0.71D-08     -V/T= 2.0102
 KE= 4.028799302397D+03 PE=-4.048050012340D+04 EE= 1.688223542673D+04
 Leave Link  502 at Fri Sep  3 23:43:44 2021, MaxMem= 23488102400 cpu:           15548.8 elap:             674.3
 (Enter /sw/apps/gaussian-16.0/g16/l801.exe)
 DoSCS=F DFT=T ScalE2(SS,OS)=  1.000000  1.000000
 ExpMin= 3.36D-02 ExpMax= 4.95D+03 ExpMxC= 7.45D+02 IAcc=3 IRadAn=         5 AccDes= 0.00D+00
 HarFok:  IExCor=  205 AccDes= 0.00D+00 IRadAn=         5 IDoV=-2 UseB2=F ITyADJ=14
 ICtDFT= 12500011 ScaDFX=  1.000000  1.000000  1.000000  1.000000
 GSVD:  LWork=       -9588 too small for GESVD, short by       45590 words or       45590 for optimal perf.
 Largest valence mixing into a core orbital is  2.03D-04
 Largest core mixing into a valence orbital is  5.24D-05
 Range of M.O.s used for correlation:    95  1572
 NBasis=  1572 NAE=   312 NBE=   312 NFC=    94 NFV=     0
 NROrb=   1478 NOA=   218 NOB=   218 NVA=  1260 NVB=  1260
 Leave Link  801 at Fri Sep  3 23:43:45 2021, MaxMem= 23488102400 cpu:               9.0 elap:               0.4
 (Enter /sw/apps/gaussian-16.0/g16/l914.exe)
 RHF ground state
 Two-electron integrals replicated using symmetry.
 MDV= 23488102400 DFT=T DoStab=F Mixed=T DoRPA=T DoScal=F NonHer=T
 Making orbital integer symmetry assigments:
 Orbital symmetries:
       Occupied  (A) (A) (A) (A) (A) (A) (A) (A) (A) (A) (A) (A)
                 (A) (A) (A) (A) (A) (A) (A) (A) (A) (A) (A) (A)
                 (A) (A) (A) (A) (A) (A) (A) (A) (A) (A) (A) (A)
                 (A) (A) (A) (A) (A) (A) (A) (A) (A) (A) (A) (A)
                 (A) (A) (A) (A) (A) (A) (A) (A) (A) (A) (A) (A)
                 (A) (A) (A) (A) (A) (A) (A) (A) (A) (A) (A) (A)
                 (A) (A) (A) (A) (A) (A) (A) (A) (A) (A) (A) (A)
                 (A) (A) (A) (A) (A) (A) (A) (A) (A) (A) (A) (A)
                 (A) (A) (A) (A) (A) (A) (A) (A) (A) (A) (A) (A)
                 (A) (A) (A) (A) (A) (A) (A) (A) (A) (A) (A) (A)
                 (A) (A) (A) (A) (A) (A) (A) (A) (A) (A) (A) (A)
                 (A) (A) (A) (A) (A) (A) (A) (A) (A) (A) (A) (A)
                 (A) (A) (A) (A) (A) (A) (A) (A) (A) (A) (A) (A)
                 (A) (A) (A) (A) (A) (A) (A) (A) (A) (A) (A) (A)
                 (A) (A) (A) (A) (A) (A) (A) (A) (A) (A) (A) (A)
                 (A) (A) (A) (A) (A) (A) (A) (A) (A) (A) (A) (A)
                 (A) (A) (A) (A) (A) (A) (A) (A) (A) (A) (A) (A)
                 (A) (A) (A) (A) (A) (A) (A) (A) (A) (A) (A) (A)
                 (A) (A) (A) (A) (A) (A) (A) (A) (A) (A) (A) (A)
                 (A) (A) (A) (A) (A) (A) (A) (A) (A) (A) (A) (A)
                 (A) (A) (A) (A) (A) (A) (A) (A) (A) (A) (A) (A)
                 (A) (A) (A) (A) (A) (A) (A) (A) (A) (A) (A) (A)
                 (A) (A) (A) (A) (A) (A) (A) (A) (A) (A) (A) (A)
                 (A) (A) (A) (A) (A) (A) (A) (A) (A) (A) (A) (A)
                 (A) (A) (A) (A) (A) (A) (A) (A) (A) (A) (A) (A)
                 (A) (A) (A) (A) (A) (A) (A) (A) (A) (A) (A) (A)
       Virtual   (A) (A) (A) (A) (A) (A) (A) (A) (A) (A) (A) (A)
                 (A) (A) (A) (A) (A) (A) (A) (A) (A) (A) (A) (A)
                 (A) (A) (A) (A) (A) (A) (A) (A) (A) (A) (A) (A)
                 (A) (A) (A) (A) (A) (A) (A) (A) (A) (A) (A) (A)
                 (A) (A) (A) (A) (A) (A) (A) (A) (A) (A) (A) (A)
                 (A) (A) (A) (A) (A) (A) (A) (A) (A) (A) (A) (A)
                 (A) (A) (A) (A) (A) (A) (A) (A) (A) (A) (A) (A)
                 (A) (A) (A) (A) (A) (A) (A) (A) (A) (A) (A) (A)
                 (A) (A) (A) (A) (A) (A) (A) (A) (A) (A) (A) (A)
                 (A) (A) (A) (A) (A) (A) (A) (A) (A) (A) (A) (A)
                 (A) (A) (A) (A) (A) (A) (A) (A) (A) (A) (A) (A)
                 (A) (A) (A) (A) (A) (A) (A) (A) (A) (A) (A) (A)
                 (A) (A) (A) (A) (A) (A) (A) (A) (A) (A) (A) (A)
                 (A) (A) (A) (A) (A) (A) (A) (A) (A) (A) (A) (A)
                 (A) (A) (A) (A) (A) (A) (A) (A) (A) (A) (A) (A)
                 (A) (A) (A) (A) (A) (A) (A) (A) (A) (A) (A) (A)
                 (A) (A) (A) (A) (A) (A) (A) (A) (A) (A) (A) (A)
                 (A) (A) (A) (A) (A) (A) (A) (A) (A) (A) (A) (A)
                 (A) (A) (A) (A) (A) (A) (A) (A) (A) (A) (A) (A)
                 (A) (A) (A) (A) (A) (A) (A) (A) (A) (A) (A) (A)
                 (A) (A) (A) (A) (A) (A) (A) (A) (A) (A) (A) (A)
                 (A) (A) (A) (A) (A) (A) (A) (A) (A) (A) (A) (A)
                 (A) (A) (A) (A) (A) (A) (A) (A) (A) (A) (A) (A)
                 (A) (A) (A) (A) (A) (A) (A) (A) (A) (A) (A) (A)
                 (A) (A) (A) (A) (A) (A) (A) (A) (A) (A) (A) (A)
                 (A) (A) (A) (A) (A) (A) (A) (A) (A) (A) (A) (A)
                 (A) (A) (A) (A) (A) (A) (A) (A) (A) (A) (A) (A)
                 (A) (A) (A) (A) (A) (A) (A) (A) (A) (A) (A) (A)
                 (A) (A) (A) (A) (A) (A) (A) (A) (A) (A) (A) (A)
                 (A) (A) (A) (A) (A) (A) (A) (A) (A) (A) (A) (A)
                 (A) (A) (A) (A) (A) (A) (A) (A) (A) (A) (A) (A)
                 (A) (A) (A) (A) (A) (A) (A) (A) (A) (A) (A) (A)
                 (A) (A) (A) (A) (A) (A) (A) (A) (A) (A) (A) (A)
                 (A) (A) (A) (A) (A) (A) (A) (A) (A) (A) (A) (A)
                 (A) (A) (A) (A) (A) (A) (A) (A) (A) (A) (A) (A)
                 (A) (A) (A) (A) (A) (A) (A) (A) (A) (A) (A) (A)
                 (A) (A) (A) (A) (A) (A) (A) (A) (A) (A) (A) (A)
                 (A) (A) (A) (A) (A) (A) (A) (A) (A) (A) (A) (A)
                 (A) (A) (A) (A) (A) (A) (A) (A) (A) (A) (A) (A)
                 (A) (A) (A) (A) (A) (A) (A) (A) (A) (A) (A) (A)
                 (A) (A) (A) (A) (A) (A) (A) (A) (A) (A) (A) (A)
                 (A) (A) (A) (A) (A) (A) (A) (A) (A) (A) (A) (A)
                 (A) (A) (A) (A) (A) (A) (A) (A) (A) (A) (A) (A)
                 (A) (A) (A) (A) (A) (A) (A) (A) (A) (A) (A) (A)
                 (A) (A) (A) (A) (A) (A) (A) (A) (A) (A) (A) (A)
                 (A) (A) (A) (A) (A) (A) (A) (A) (A) (A) (A) (A)
                 (A) (A) (A) (A) (A) (A) (A) (A) (A) (A) (A) (A)
                 (A) (A) (A) (A) (A) (A) (A) (A) (A) (A) (A) (A)
                 (A) (A) (A) (A) (A) (A) (A) (A) (A) (A) (A) (A)
                 (A) (A) (A) (A) (A) (A) (A) (A) (A) (A) (A) (A)
                 (A) (A) (A) (A) (A) (A) (A) (A) (A) (A) (A) (A)
                 (A) (A) (A) (A) (A) (A) (A) (A) (A) (A) (A) (A)
                 (A) (A) (A) (A) (A) (A) (A) (A) (A) (A) (A) (A)
                 (A) (A) (A) (A) (A) (A) (A) (A) (A) (A) (A) (A)
                 (A) (A) (A) (A) (A) (A) (A) (A) (A) (A) (A) (A)
                 (A) (A) (A) (A) (A) (A) (A) (A) (A) (A) (A) (A)
                 (A) (A) (A) (A) (A) (A) (A) (A) (A) (A) (A) (A)
                 (A) (A) (A) (A) (A) (A) (A) (A) (A) (A) (A) (A)
                 (A) (A) (A) (A) (A) (A) (A) (A) (A) (A) (A) (A)
                 (A) (A) (A) (A) (A) (A) (A) (A) (A) (A) (A) (A)
                 (A) (A) (A) (A) (A) (A) (A) (A) (A) (A) (A) (A)
                 (A) (A) (A) (A) (A) (A) (A) (A) (A) (A) (A) (A)
                 (A) (A) (A) (A) (A) (A) (A) (A) (A) (A) (A) (A)
                 (A) (A) (A) (A) (A) (A) (A) (A) (A) (A) (A) (A)
                 (A) (A) (A) (A) (A) (A) (A) (A) (A) (A) (A) (A)
                 (A) (A) (A) (A) (A) (A) (A) (A) (A) (A) (A) (A)
                 (A) (A) (A) (A) (A) (A) (A) (A) (A) (A) (A) (A)
                 (A) (A) (A) (A) (A) (A) (A) (A) (A) (A) (A) (A)
                 (A) (A) (A) (A) (A) (A) (A) (A) (A) (A) (A) (A)
                 (A) (A) (A) (A) (A) (A) (A) (A) (A) (A) (A) (A)
                 (A) (A) (A) (A) (A) (A) (A) (A) (A) (A) (A) (A)
                 (A) (A) (A) (A) (A) (A) (A) (A) (A) (A) (A) (A)
                 (A) (A) (A) (A) (A) (A) (A) (A) (A) (A) (A) (A)
                 (A) (A) (A) (A) (A) (A) (A) (A) (A) (A) (A) (A)
                 (A) (A) (A) (A) (A) (A) (A) (A) (A) (A) (A) (A)
                 (A) (A) (A) (A) (A) (A) (A) (A) (A) (A) (A) (A)
                 (A) (A) (A) (A) (A) (A) (A) (A) (A) (A) (A) (A)
                 (A) (A) (A) (A) (A) (A) (A) (A) (A) (A) (A) (A)
                 (A) (A) (A) (A) (A) (A) (A) (A) (A) (A) (A) (A)
                 (A) (A) (A) (A) (A) (A) (A) (A) (A) (A) (A) (A)
                 (A) (A) (A) (A) (A) (A) (A) (A) (A) (A) (A) (A)
                 (A) (A) (A) (A) (A) (A) (A) (A) (A) (A) (A) (A)
                 (A) (A) (A) (A) (A) (A) (A) (A) (A) (A) (A) (A)
                 (A) (A) (A) (A) (A) (A) (A) (A) (A) (A) (A) (A)
                 (A) (A) (A) (A) (A) (A) (A) (A) (A) (A) (A) (A)
                 (A) (A) (A) (A) (A) (A) (A) (A) (A) (A) (A) (A)
                 (A) (A) (A) (A) (A) (A) (A) (A) (A) (A) (A) (A)
                 (A) (A) (A) (A) (A) (A) (A) (A) (A) (A) (A) (A)
                 (A) (A) (A) (A) (A) (A) (A) (A) (A) (A) (A) (A)
                 (A) (A) (A) (A) (A) (A) (A) (A) (A) (A) (A) (A)
                 (A) (A) (A) (A) (A) (A) (A) (A) (A) (A) (A) (A)
                 (A) (A) (A) (A) (A) (A) (A) (A) (A) (A) (A) (A)
                 (A) (A) (A) (A) (A) (A) (A) (A) (A) (A) (A) (A)
                 (A) (A) (A) (A) (A) (A) (A) (A) (A) (A) (A) (A)
                 (A) (A) (A) (A) (A) (A) (A) (A) (A) (A) (A) (A)
                 (A) (A) (A) (A) (A) (A) (A) (A) (A) (A) (A) (A)
                 (A) (A) (A) (A) (A) (A) (A) (A) (A) (A) (A) (A)
                 (A) (A) (A) (A) (A) (A) (A) (A) (A) (A) (A) (A)
                 (A) (A) (A) (A) (A) (A) (A) (A) (A) (A) (A) (A)
                 (A) (A) (A) (A) (A) (A) (A) (A) (A) (A) (A) (A)
                 (A) (A) (A) (A) (A) (A) (A) (A) (A) (A) (A) (A)
                 (A) (A) (A) (A) (A) (A) (A) (A) (A) (A) (A) (A)
                 (A) (A) (A) (A) (A) (A) (A) (A) (A) (A) (A) (A)
                 (A) (A) (A) (A) (A) (A) (A) (A) (A) (A) (A) (A)
                 (A) (A) (A) (A) (A) (A) (A) (A) (A) (A) (A) (A)
    20 initial guesses have been made.
 Convergence on wavefunction:    0.001000000000000
 Davidson Disk Diagonalization:  ConvIn= 1.00D-03 SkipCon=T Conv= 1.00D-03.
 Max sub-space:  2000 roots to seek:    20 dimension of matrix:       549360
 Iteration     1 Dimension    20 NMult     0 NNew     20
 CISAX will form    20 AO SS matrices at one time.
 NMat=    20 NSing=    20 JSym2X= 0.
 FoFJK:  IHMeth= 1 ICntrl=       0 DoSepK=T KAlg= 0 I1Cent=           0 FoldK=F
 IRaf=         1 NMat=      40 IRICut=       1 DoRegI=T DoRafI=F ISym2E= 0 IDoP0=3 IntGTp=3.
 FoFCou: FMM=T IPFlag=           0 FMFlag=      100000 FMFlg1=        2001
         NFxFlg=           0 DoJE=F BraDBF=F KetDBF=F FulRan=T
         wScrn=  0.000000 ICntrl=       500 IOpCl=  0 I1Cent=           0 NGrid=           0
         NMat0=   20 NMatS0=     20 NMatT0=    0 NMatD0=   20 NMtDS0=    0 NMtDT0=    0
 Symmetry not used in FoFCou.
 FMM levels:  10  Number of levels for PrismC:   9
 New state      2 was old state      4
 New state      3 was old state      7
 New state      4 was old state      6
 New state      5 was old state      2
 Excitation Energies [eV] at current iteration:
 Root      1 :     2.327446242927667
 Root      2 :     2.545793336176130
 Root      3 :     2.608821148370178
 Root      4 :     2.616412564733028
 Root      5 :     2.650228789589729
 Root      6 :     2.724655597637662
 Root      7 :     3.110261602333884
 Root      8 :     3.344355904673294
 Root      9 :     3.629241950628967
 Root     10 :     3.672742487363753
 Root     11 :     3.742680999335463
 Root     12 :     3.756849414997461
 Root     13 :     4.229395885087107
 Root     14 :     4.263449701831816
 Root     15 :     4.338851556668764
 Root     16 :     4.481990652592790
 Root     17 :     4.570775893129256
 Root     18 :     4.610118821173675
 Root     19 :     4.716695182518786
 Root     20 :     4.831227606626798
 Iteration     2 Dimension    30 NMult    20 NNew     10
 CISAX will form    10 AO SS matrices at one time.
 NMat=    10 NSing=    10 JSym2X= 0.
 New state      1 was old state      5
 Root      1 not converged, maximum delta is    0.323884398473607
 New state      2 was old state      3
 Root      2 not converged, maximum delta is    0.174027128032553
 New state      3 was old state      4
 Root      3 not converged, maximum delta is    0.212234054038912
 New state      4 was old state      1
 Root      4 not converged, maximum delta is    0.003386842738463
 New state      5 was old state      2
 Root      5 not converged, maximum delta is    0.005735631699793
 Excitation Energies [eV] at current iteration:
 Root      1 :     1.781326721440049   Change is   -0.868902068149680
 Root      2 :     2.202460985963877   Change is   -0.406360162406301
 Root      3 :     2.241983563329243   Change is   -0.374429001403785
 Root      4 :     2.326634014822525   Change is   -0.000812228105142
 Root      5 :     2.544792256386516   Change is   -0.001001079789615
 Iteration     3 Dimension    40 NMult    30 NNew     10
 CISAX will form    10 AO SS matrices at one time.
 NMat=    10 NSing=    10 JSym2X= 0.
 Root      1 not converged, maximum delta is    0.055197386348595
 Root      2 not converged, maximum delta is    0.362679882854730
 Root      3 not converged, maximum delta is    0.201467236626880
 No map to state      4
 New state      5 was old state      4
 Root      5 has converged.
 Excitation Energies [eV] at current iteration:
 Root      1 :     1.676031347235524   Change is   -0.105295374204525
 Root      2 :     1.872915276190383   Change is   -0.329545709773495
 Root      3 :     2.195835269556611   Change is   -0.046148293772632
 Root      4 :     2.228979603045087
 Root      5 :     2.326628130801030   Change is   -0.000005884021494
 Iteration     4 Dimension    48 NMult    40 NNew      8
 CISAX will form     8 AO SS matrices at one time.
 NMat=     8 NSing=     8 JSym2X= 0.
 Root      1 not converged, maximum delta is    0.013061468759735
 Root      2 not converged, maximum delta is    0.102948559873599
 Root      3 not converged, maximum delta is    0.346092606839500
 Root      4 not converged, maximum delta is    0.332164512662906
 Root      5 has converged.
 Excitation Energies [eV] at current iteration:
 Root      1 :     1.659370902694608   Change is   -0.016660444540916
 Root      2 :     1.705358380760715   Change is   -0.167556895429668
 Root      3 :     2.182539232911311   Change is   -0.013296036645300
 Root      4 :     2.197195918538730   Change is   -0.031783684506357
 Root      5 :     2.326628111710185   Change is   -0.000000019090845
 Iteration     5 Dimension    56 NMult    48 NNew      8
 CISAX will form     8 AO SS matrices at one time.
 NMat=     8 NSing=     8 JSym2X= 0.
 Root      1 not converged, maximum delta is    0.002596967782485
 Root      2 not converged, maximum delta is    0.009002752996697
 Root      3 not converged, maximum delta is    0.022345221688140
 Root      4 not converged, maximum delta is    0.022336907971763
 Root      5 has converged.
 Excitation Energies [eV] at current iteration:
 Root      1 :     1.657611449805419   Change is   -0.001759452889189
 Root      2 :     1.692080113171170   Change is   -0.013278267589544
 Root      3 :     2.181002106840156   Change is   -0.001537126071155
 Root      4 :     2.195778442340036   Change is   -0.001417476198694
 Root      5 :     2.326628107807266   Change is   -0.000000003902919
 Iteration     6 Dimension    64 NMult    56 NNew      8
 CISAX will form     8 AO SS matrices at one time.
 NMat=     8 NSing=     8 JSym2X= 0.
 Root      1 has converged.
 Root      2 not converged, maximum delta is    0.004062501977626
 Root      3 not converged, maximum delta is    0.004203480243036
 Root      4 not converged, maximum delta is    0.004487974113923
 Root      5 has converged.
 Excitation Energies [eV] at current iteration:
 Root      1 :     1.657360295167659   Change is   -0.000251154637759
 Root      2 :     1.689800591401396   Change is   -0.002279521769775
 Root      3 :     2.180740908258558   Change is   -0.000261198581598
 Root      4 :     2.195537554573795   Change is   -0.000240887766241
 Root      5 :     2.326628105008159   Change is   -0.000000002799107
 Iteration     7 Dimension    70 NMult    64 NNew      6
 CISAX will form     6 AO SS matrices at one time.
 NMat=     6 NSing=     6 JSym2X= 0.
 Root      1 has converged.
 Root      2 has converged.
 Root      3 has converged.
 Root      4 has converged.
 Root      5 has converged.
 Excitation Energies [eV] at current iteration:
 Root      1 :     1.657359200817734   Change is   -0.000001094349925
[...]
 Alpha virt. eigenvalues --    1.83657   1.83819   1.83936   1.84147   1.84334
 Alpha virt. eigenvalues --    1.84625   1.84710   1.84715   1.84964   1.85110
 Alpha virt. eigenvalues --    1.85197   1.85338   1.85446   1.85474   1.85759
 Alpha virt. eigenvalues --    1.85804   1.86147   1.86278   1.86464   1.86600
 Alpha virt. eigenvalues --    1.86683   1.86867   1.86912   1.87012   1.87252
 Alpha virt. eigenvalues --    1.87328   1.87542   1.87740   1.87771   1.87938
 Alpha virt. eigenvalues --    1.88012   1.88222   1.88408   1.88431   1.88692
 Alpha virt. eigenvalues --    1.88895   1.89040   1.89200   1.89499   1.89543
 Alpha virt. eigenvalues --    1.89668   1.89888   1.90019   1.90049   1.90456
 Alpha virt. eigenvalues --    1.90656   1.91192   1.91208   1.91342   1.91628
 Alpha virt. eigenvalues --    1.92029   1.92045   1.92442   1.92544   1.92881
 Alpha virt. eigenvalues --    1.92997   1.93261   1.93411   1.93700   1.94183
 Alpha virt. eigenvalues --    1.94503   1.94604   1.95005   1.95401   1.95583
 Alpha virt. eigenvalues --    1.95770   1.95832   1.96067   1.96122   1.96314
 Alpha virt. eigenvalues --    1.96456   1.96485   1.96730   1.96805   1.97214
 Alpha virt. eigenvalues --    1.97337   1.97731   1.97766   1.98031   1.98065
 Alpha virt. eigenvalues --    1.98433   1.98511   1.98635   1.99006   1.99347
 Alpha virt. eigenvalues --    1.99667   2.00261   2.00567   2.00850   2.00979
 Alpha virt. eigenvalues --    2.01264   2.01341   2.01566   2.01592   2.01688
 Alpha virt. eigenvalues --    2.01869   2.02135   2.02652   2.02949   2.03132
 Alpha virt. eigenvalues --    2.03264   2.03313   2.03364   2.03639   2.03763
 Alpha virt. eigenvalues --    2.03917   2.04268   2.04868   2.05166   2.05418
 Alpha virt. eigenvalues --    2.05810   2.05975   2.06484   2.06718   2.07077
 Alpha virt. eigenvalues --    2.07303   2.07570   2.08522   2.08668   2.08863
 Alpha virt. eigenvalues --    2.09258   2.09442   2.09848   2.10718   2.11064
 Alpha virt. eigenvalues --    2.11197   2.11355   2.11611   2.11629   2.11829
 Alpha virt. eigenvalues --    2.12145   2.12331   2.12697   2.12731   2.12785
 Alpha virt. eigenvalues --    2.13054   2.13174   2.13572   2.14062   2.14117
 Alpha virt. eigenvalues --    2.14444   2.15225   2.15609   2.15785   2.16377
 Alpha virt. eigenvalues --    2.16453   2.16646   2.16874   2.17297   2.17392
 Alpha virt. eigenvalues --    2.17602   2.17817   2.17979   2.18147   2.18194
 Alpha virt. eigenvalues --    2.18341   2.18692   2.18966   2.19493   2.19607
 Alpha virt. eigenvalues --    2.19904   2.20083   2.20137   2.20488   2.20754
 Alpha virt. eigenvalues --    2.21098   2.21329   2.21557   2.21601   2.21996
 Alpha virt. eigenvalues --    2.22084   2.22578   2.22990   2.23223   2.23538
 Alpha virt. eigenvalues --    2.24311   2.24596   2.24911   2.25153   2.26134
 Alpha virt. eigenvalues --    2.26672   2.26708   2.26955   2.27243   2.27460
 Alpha virt. eigenvalues --    2.28008   2.28741   2.29170   2.29588   2.29766
 Alpha virt. eigenvalues --    2.30207   2.30292   2.30875   2.30957   2.31034
 Alpha virt. eigenvalues --    2.31156   2.31442   2.32038   2.32423   2.32991
 Alpha virt. eigenvalues --    2.33329   2.33532   2.33703   2.34039   2.34402
 Alpha virt. eigenvalues --    2.35165   2.35558   2.35665   2.36237   2.36301
 Alpha virt. eigenvalues --    2.36515   2.36545   2.36612   2.37590   2.37858
 Alpha virt. eigenvalues --    2.38187   2.38542   2.38682   2.39153   2.39490
 Alpha virt. eigenvalues --    2.39906   2.40087   2.40334   2.40454   2.41087
 Alpha virt. eigenvalues --    2.41160   2.41519   2.41630   2.41855   2.41883
 Alpha virt. eigenvalues --    2.42379   2.42881   2.42976   2.43225   2.43324
 Alpha virt. eigenvalues --    2.44015   2.44214   2.44614   2.44773   2.45025
 Alpha virt. eigenvalues --    2.45280   2.45454   2.45791   2.46222   2.46358
 Alpha virt. eigenvalues --    2.46496   2.46661   2.46690   2.47034   2.47148
 Alpha virt. eigenvalues --    2.47552   2.47614   2.48080   2.49236   2.49533
 Alpha virt. eigenvalues --    2.50005   2.50064   2.50488   2.50636   2.50956
 Alpha virt. eigenvalues --    2.51555   2.51727   2.51795   2.52262   2.52671
 Alpha virt. eigenvalues --    2.52698   2.53503   2.53817   2.54088   2.54182
 Alpha virt. eigenvalues --    2.54404   2.54679   2.54994   2.55425   2.55864
 Alpha virt. eigenvalues --    2.57768   2.58292   2.58544   2.59180   2.60025
 Alpha virt. eigenvalues --    2.60452   2.60587   2.61278   2.61618   2.62047
 Alpha virt. eigenvalues --    2.62386   2.62675   2.62827   2.63360   2.63810
 Alpha virt. eigenvalues --    2.64175   2.64547   2.64601   2.64963   2.65341
 Alpha virt. eigenvalues --    2.65626   2.66195   2.66692   2.66804   2.67006
 Alpha virt. eigenvalues --    2.67380   2.67805   2.68262   2.68711   2.68873
 Alpha virt. eigenvalues --    2.69009   2.69297   2.69321   2.69871   2.69889
 Alpha virt. eigenvalues --    2.70362   2.70845   2.71376   2.71883   2.72102
 Alpha virt. eigenvalues --    2.72485   2.72602   2.72712   2.73050   2.73187
 Alpha virt. eigenvalues --    2.73234   2.73449   2.73699   2.74380   2.74706
 Alpha virt. eigenvalues --    2.74835   2.75276   2.76493   2.76727   2.77087
 Alpha virt. eigenvalues --    2.77268   2.77339   2.77806   2.78102   2.78442
 Alpha virt. eigenvalues --    2.78543   2.78883   2.79005   2.79409   2.80188
 Alpha virt. eigenvalues --    2.80391   2.80400   2.80919   2.80976   2.81324
 Alpha virt. eigenvalues --    2.81795   2.82208   2.82237   2.82548   2.83573
 Alpha virt. eigenvalues --    2.83686   2.83975   2.84112   2.84449   2.84674
 Alpha virt. eigenvalues --    2.84800   2.85040   2.85575   2.85839   2.86831
 Alpha virt. eigenvalues --    2.86836   2.87374   2.87410   2.88069   2.88364
 Alpha virt. eigenvalues --    2.88401   2.88819   2.88832   2.89031   2.90351
 Alpha virt. eigenvalues --    2.90937   2.91112   2.91314   2.93012   2.93580
 Alpha virt. eigenvalues --    2.93998   2.94102   2.94486   2.94706   2.95179
 Alpha virt. eigenvalues --    2.95832   2.95921   2.96119   2.96333   2.96582
 Alpha virt. eigenvalues --    2.96932   2.97124   2.97606   2.98096   2.98151
 Alpha virt. eigenvalues --    2.98265   2.98495   2.98661   2.98786   2.98799
 Alpha virt. eigenvalues --    2.99008   2.99136   2.99557   2.99799   2.99921
 Alpha virt. eigenvalues --    3.00111   3.00257   3.00303   3.00481   3.01319
 Alpha virt. eigenvalues --    3.01899   3.01902   3.02172   3.02415   3.02522
 Alpha virt. eigenvalues --    3.02808   3.02999   3.03244   3.03636   3.04089
 Alpha virt. eigenvalues --    3.04099   3.04354   3.04447   3.04478   3.04659
 Alpha virt. eigenvalues --    3.04915   3.05235   3.05513   3.05993   3.06375
 Alpha virt. eigenvalues --    3.06630   3.07287   3.08079   3.08092   3.09220
 Alpha virt. eigenvalues --    3.09481   3.09555   3.10302   3.10799   3.11099
 Alpha virt. eigenvalues --    3.11260   3.11628   3.11747   3.12024   3.12141
 Alpha virt. eigenvalues --    3.12666   3.13136   3.13568   3.13814   3.13826
 Alpha virt. eigenvalues --    3.13936   3.14718   3.15881   3.16096   3.17146
 Alpha virt. eigenvalues --    3.17691   3.17965   3.18008   3.19043   3.19160
 Alpha virt. eigenvalues --    3.22028   3.22811   3.23828   3.24496   3.24614
 Alpha virt. eigenvalues --    3.25369   3.26393   3.26835   3.27497   3.27591
 Alpha virt. eigenvalues --    3.28778   3.29437   3.31401   3.31561   3.33312
 Alpha virt. eigenvalues --    3.33372   3.40341   3.40489   3.42730   3.42937
 Alpha virt. eigenvalues --    3.48522   3.48870   3.49912   3.50475   3.51043
 Alpha virt. eigenvalues --    3.51365   3.56448   3.57160   3.59008   3.59498
 Alpha virt. eigenvalues --    3.62681   3.62716   3.66108   3.66184   3.66938
 Alpha virt. eigenvalues --    3.67764   3.73089   3.74218   3.75925   3.76866
          Condensed to atoms (all electrons):
 Mulliken charges:
               1
     1  Mg   0.838873
     2  C   -0.004184
     3  C   -0.094290
     4  C   -0.045632
     5  C   -0.063170
     6  N   -0.256794
     7  C   -0.052875
     8  C   -0.014002
     9  C   -0.087008
    10  C    0.046146
    11  C    0.104714
    12  C    0.053655
    13  C   -0.071122
    14  H    0.032941
    15  N   -0.433240
    16  C    0.168716
    17  C   -0.176621
    18  C   -0.003485
    19  C    0.148796
    20  C    0.109946
    21  C    0.012401
    22  O   -0.249755
    23  C    0.062131
    24  N   -0.341057
    25  C    0.041479
    26  C   -0.028251
    27  C   -0.024048
    28  C    0.074650
    29  C    0.076098
    30  C    0.034969
    31  C   -0.004524
    32  N   -0.310350
    33  C    0.080082
    34  C   -0.169336
    35  C    0.007939
    36  C    0.082576
    37  C    0.127341
    38  C    0.045320
    39  O   -0.188880
    40  C   -0.005303
    41  C    0.214075
    42  O   -0.260333
    43  O   -0.303657
    44  C    0.158186
    45  H   -0.017408
    46  H   -0.016609
    47  H   -0.040540
    48  H    0.000924
    49  H   -0.004199
    50  H    0.025573
    51  H    0.016978
    52  H    0.016897
    53  H    0.011271
    54  H    0.041619
    55  H    0.018943
    56  H    0.018477
    57  H    0.005686
    58  H    0.027139
    59  H    0.040770
    60  H    0.037464
    61  H    0.035853
    62  H    0.032819
    63  H    0.016451
    64  H    0.009844
    65  H    0.023377
    66  H    0.012539
    67  H    0.005155
    68  H    0.006468
    69  H    0.005843
    70  H    0.007755
    71  H    0.019168
    72  H    0.029166
    73  H    0.047719
    74  H    0.010285
    75  H    0.046128
    76  H    0.035717
    77  H    0.043975
    78  H    0.046598
    79  H    0.050729
    80  Mg   0.837207
    81  C   -0.016904
    82  C   -0.087629
    83  C   -0.046735
    84  C   -0.065438
    85  N   -0.255261
    86  C   -0.048048
    87  C   -0.015370
    88  C   -0.091010
    89  C    0.046667
    90  C    0.116276
    91  C    0.062376
    92  C   -0.077442
    93  H    0.032722
    94  N   -0.423456
    95  C    0.163010
    96  C   -0.175199
    97  C   -0.008914
    98  C    0.152371
    99  C    0.099846
   100  C    0.014658
   101  O   -0.254281
   102  C    0.061511
   103  N   -0.350278
   104  C    0.037711
   105  C   -0.019786
   106  C   -0.034741
   107  C    0.089026
   108  C    0.073434
   109  C    0.034894
   110  C   -0.007520
   111  N   -0.324074
   112  C    0.078643
   113  C   -0.163903
   114  C    0.002213
   115  C    0.096149
   116  C    0.131639
   117  C    0.041799
   118  O   -0.188601
   119  C    0.001294
   120  C    0.211047
   121  O   -0.251784
   122  O   -0.304621
   123  C    0.152423
   124  H   -0.018796
   125  H   -0.016940
   126  H   -0.041296
   127  H    0.002171
   128  H   -0.006420
   129  H    0.026153
   130  H    0.011898
   131  H    0.026617
   132  H    0.012673
   133  H    0.036460
   134  H    0.023278
   135  H    0.018758
   136  H    0.009068
   137  H    0.024156
   138  H    0.039043
   139  H    0.037144
   140  H    0.035394
   141  H    0.034058
   142  H    0.013646
   143  H    0.012778
   144  H    0.023808
   145  H    0.010509
   146  H    0.008033
   147  H    0.005872
   148  H    0.003294
   149  H    0.010526
   150  H    0.017374
   151  H    0.030376
   152  H    0.045592
   153  H    0.008108
   154  H    0.045502
   155  H    0.037247
   156  H    0.043597
   157  H    0.050052
   158  H    0.052659
 Sum of Mulliken charges =  -0.00000
 Mulliken charges with hydrogens summed into heavy atoms:
               1
     1  Mg   0.838873
     2  C   -0.004184
     3  C   -0.111699
     4  C   -0.062241
     5  C   -0.103711
     6  N   -0.256794
     7  C   -0.052875
     8  C   -0.013078
     9  C   -0.091207
    10  C    0.046146
    11  C    0.164162
    12  C    0.106545
    13  C   -0.000762
    15  N   -0.433240
    16  C    0.168716
    17  C   -0.176621
    18  C   -0.003485
    19  C    0.148796
    20  C    0.183541
    21  C    0.012401
    22  O   -0.249755
    23  C    0.168267
    24  N   -0.341057
    25  C    0.041479
    26  C   -0.011801
    27  C   -0.014204
    28  C    0.074650
    29  C    0.117170
    30  C    0.047280
    31  C    0.051565
    32  N   -0.310350
    33  C    0.080082
    34  C   -0.169336
    35  C    0.007939
    36  C    0.082576
    37  C    0.231473
    38  C    0.045320
    39  O   -0.188880
    40  C    0.030414
    41  C    0.214075
    42  O   -0.260333
    43  O   -0.303657
    44  C    0.299489
    80  Mg   0.837207
    81  C   -0.016904
    82  C   -0.106426
    83  C   -0.063675
    84  C   -0.106733
    85  N   -0.255261
    86  C   -0.048048
    87  C   -0.013199
    88  C   -0.097430
    89  C    0.046667
    90  C    0.180944
    91  C    0.111508
    92  C   -0.002684
    94  N   -0.423456
    95  C    0.163010
    96  C   -0.175199
    97  C   -0.008914
    98  C    0.152371
    99  C    0.172112
   100  C    0.014658
   101  O   -0.254281
   102  C    0.168107
   103  N   -0.350278
   104  C    0.037711
   105  C   -0.006141
   106  C   -0.021963
   107  C    0.089026
   108  C    0.115785
   109  C    0.044060
   110  C    0.050755
   111  N   -0.324074
   112  C    0.078643
   113  C   -0.163903
   114  C    0.002213
   115  C    0.096149
   116  C    0.230840
   117  C    0.041799
   118  O   -0.188601
   119  C    0.038541
   120  C    0.211047
   121  O   -0.251784
   122  O   -0.304621
   123  C    0.298731
 Electronic spatial extent (au):  <R**2>=          97581.3279
 Charge=             -0.0000 electrons
 Dipole moment (field-independent basis, Debye):
    X=             -5.4756    Y=              1.6498    Z=              5.9500  Tot=              8.2527
 Quadrupole moment (field-independent basis, Debye-Ang):
   XX=           -518.2678   YY=           -529.2901   ZZ=           -471.5020
   XY=             -7.9879   XZ=             -1.1203   YZ=            -29.7364
 Traceless Quadrupole moment (field-independent basis, Debye-Ang):
   XX=            -11.9145   YY=            -22.9368   ZZ=             34.8513
   XY=             -7.9879   XZ=             -1.1203   YZ=            -29.7364
 Octapole moment (field-independent basis, Debye-Ang**2):
  XXX=           -370.2169  YYY=           -150.6874  ZZZ=            121.6976  XYY=            185.0524
  XXY=             64.0069  XXZ=            222.7177  XZZ=           -188.3158  YZZ=            -41.6664
  YYZ=             81.1314  XYZ=           -184.0612
 Hexadecapole moment (field-independent basis, Debye-Ang**3):
 XXXX=         -67318.9286 YYYY=         -38843.1889 ZZZZ=         -26935.8309 XXXY=             69.6603
 XXXZ=           -214.5612 YYYX=          -1569.3411 YYYZ=           -428.4252 ZZZX=            910.6545
 ZZZY=           -655.8531 XXYY=         -17209.3169 XXZZ=         -15313.8642 YYZZ=         -11168.4314
 XXYZ=           -448.4246 YYXZ=          -1357.7190 ZZXY=            322.1347
 N-N= 1.549965246118D+04 E-N=-4.048050011540D+04  KE= 4.028799302397D+03
 Leave Link  601 at Sat Sep  4 00:08:15 2021, MaxMem= 23488102400 cpu:              21.2 elap:               1.0
 (Enter /sw/apps/gaussian-16.0/g16/l9999.exe)
 1\1\GINC-BP1-COMPUTE00089\SP\RCAM-B3LYP TD-FC\def2SVP\C68H72Mg2N8O8\OF
 15641\04-Sep-2021\0\\#p cam-b3lyp/Def2SVP td=(nstates=5)\\TDDFT excite
 d states in gaussian\\0,1\Mg,0,0.,0.,0.\C,0,-0.217,-2.218,2.801\C,0,-1
 .255,2.442,2.026\C,0,-0.245,1.85,-2.564\C,0,0.146,-2.824,-2.037\N,0,-0
 .617,-0.009,2.126\C,0,-0.594,-0.908,3.105\C,0,-0.936,-0.309,4.502\C,0,
 -1.773,0.964,4.032\C,0,-1.155,1.168,2.66\C,0,-3.263,0.685,3.863\C,0,0.
 345,0.11,5.299\C,0,0.124,0.397,6.787\H,0,1.168,0.033,7.733\N,0,-0.185,
 1.961,-0.152\C,0,-0.703,2.8,0.777\C,0,-0.62,4.156,0.193\C,0,-0.187,4.0
 15,-1.225\C,0,-0.214,2.583,-1.38\C,0,-0.887,5.406,0.974\C,0,0.181,5.01
 3,-2.277\O,0,0.303,4.69,-3.508\C,0,0.31,6.414,-1.837\N,0,-0.265,-0.413
 ,-2.029\C,0,-0.279,0.569,-2.937\C,0,-0.196,0.024,-4.332\C,0,0.124,-1.5
 33,-4.18\C,0,0.086,-1.632,-2.635\C,0,-1.451,0.205,-5.197\C,0,1.373,-2.
 07,-4.923\C,0,2.626,-1.49,-4.306\N,0,0.15,-2.144,0.303\C,0,0.173,-3.13
 6,-0.688\C,0,0.173,-4.438,0.004\C,0,0.133,-4.111,1.358\C,0,0.083,-2.69
 5,1.502\C,0,0.149,-5.715,-0.623\C,0,0.096,-4.629,2.716\O,0,0.208,-5.74
 7,3.221\C,0,-0.255,-3.428,3.701\C,0,0.717,-3.482,4.848\O,0,1.931,-3.25
 5,4.669\O,0,0.038,-3.556,6.003\C,0,0.943,-3.583,7.183\H,0,-1.859,3.22,
 2.497\H,0,-0.218,2.453,-3.474\H,0,0.276,-3.747,-2.605\H,0,-1.554,-0.94
 9,5.132\H,0,-1.585,1.831,4.665\H,0,-3.484,-0.377,3.969\H,0,-3.511,1.02
 7,2.858\H,0,-3.852,1.301,4.543\H,0,0.669,1.096,4.966\H,0,1.13,-0.639,5
 .189\H,0,-0.844,0.026,7.125\H,0,0.062,1.477,6.921\H,0,-1.344,5.186,1.9
 38\H,0,-1.651,5.963,0.432\H,0,0.007,6.02,1.084\H,0,-0.635,6.744,-1.405
 \H,0,0.665,6.97,-2.704\H,0,1.048,6.466,-1.036\H,0,0.608,0.501,-4.891\H
 ,0,-0.692,-2.156,-4.547\H,0,-1.267,0.74,-6.129\H,0,-2.204,0.714,-4.596
 \H,0,-1.967,-0.72,-5.453\H,0,1.356,-1.759,-5.967\H,0,1.452,-3.157,-4.9
 02\H,0,2.714,-0.522,-4.798\H,0,3.487,-2.121,-4.529\H,0,2.495,-1.303,-3
 .24\H,0,0.867,-6.333,-0.084\H,0,0.404,-5.642,-1.68\H,0,-0.891,-5.999,-
 0.463\H,0,-1.283,-3.581,4.028\H,0,0.698,-4.478,7.755\H,0,0.833,-2.619,
 7.68\H,0,2.,-3.754,6.976\Mg,0,8.94112,0.80222,0.68644\C,0,9.06821,-2.7
 8073,0.52716\C,0,7.84368,0.47143,3.89904\C,0,8.38875,3.92657,0.71441\C
 ,0,8.93529,0.81835,-2.79858\N,0,8.54716,-0.97726,1.93963\C,0,8.6901,-2
 .28582,1.79268\C,0,8.49011,-3.10505,3.09592\C,0,7.57022,-2.06095,3.897
 5\C,0,8.03531,-0.76612,3.23433\C,0,6.08554,-2.23204,3.62223\C,0,9.8416
 6,-3.37385,3.8463\C,0,9.76325,-4.42491,4.95575\H,0,10.9145,-5.29717,5.
 1708\N,0,8.6968,2.04961,2.21055\C,0,8.2648,1.74303,3.45179\C,0,8.23975
 ,3.01285,4.19414\C,0,8.53452,4.11841,3.24253\C,0,8.53085,3.39393,1.987
 46\C,0,8.03426,3.08314,5.67948\C,0,8.76693,5.58715,3.42964\O,0,8.76993
 ,6.40001,2.43864\C,0,8.89786,6.05879,4.81596\N,0,8.48388,2.16671,-0.81
 404\C,0,8.34545,3.47566,-0.53943\C,0,8.29292,4.29617,-1.80607\C,0,8.66
 933,3.2866,-2.98787\C,0,8.79257,1.97949,-2.17444\C,0,6.95113,4.96087,-
 2.11294\C,0,9.8478,3.69492,-3.91371\C,0,11.14536,3.67135,-3.13835\N,0,
 9.17691,-0.67112,-0.87616\C,0,9.11453,-0.45362,-2.27004\C,0,9.21839,-1
 .77522,-2.92197\C,0,9.31158,-2.67922,-1.85306\C,0,9.2485,-1.97286,-0.6
 2157\C,0,9.17033,-2.01736,-4.32382\C,0,9.43827,-4.07141,-1.48635\O,0,9
 .62181,-5.11929,-2.1044\C,0,9.15913,-4.21088,0.07218\C,0,10.24546,-5.0
 6664,0.66387\O,0,11.42413,-4.67029,0.67985\O,0,9.68554,-6.10885,1.3047
 \C,0,10.72257,-6.98089,1.91783\H,0,7.28035,0.47716,4.83259\H,0,8.30658
 ,5.01482,0.66509\H,0,9.03974,0.74766,-3.88337\H,0,7.9626,-4.0425,2.966
 73\H,0,7.81143,-2.05456,4.95728\H,0,5.90134,-2.95293,2.83958\H,0,5.726
 27,-1.25448,3.32839\H,0,5.5571,-2.48199,4.54668\H,0,10.10192,-2.49003,
 4.44285\H,0,10.61651,-3.63743,3.15294\H,0,8.8397,-5.01398,4.90095\H,0,
 9.69617,-3.91018,5.91729\H,0,7.67887,2.12658,6.08211\H,0,7.2048,3.7767
 ,5.85507\H,0,8.91698,3.44633,6.21011\H,0,7.9977,5.80448,5.37048\H,0,9.
 14823,7.11882,4.74159\H,0,9.724,5.51932,5.29249\H,0,9.02397,5.09491,-1
 .78002\H,0,7.83066,3.14484,-3.68528\H,0,7.0242,6.05878,-2.22838\H,0,6.
 25601,4.70693,-1.32372\H,0,6.44182,4.58568,-2.99896\H,0,9.71506,4.7209
 6,-4.26552\H,0,9.94669,3.06401,-4.79073\H,0,11.15216,4.64484,-2.63899\
 H,0,11.99287,3.56785,-3.81292\H,0,11.124,2.90109,-2.35868\H,0,9.94773,
 -2.73739,-4.54223\H,0,9.30731,-1.09895,-4.89085\H,0,8.15482,-2.41099,-
 4.41905\H,0,8.17308,-4.66206,0.1893\H,0,10.55704,-7.99237,1.53418\H,0,
 10.62797,-6.83477,3.01028\H,0,11.75365,-6.81171,1.63023\\Version=ES64L
 -G16RevA.03\State=1-A\HF=-4069.8129331\RMSD=7.141e-09\PG=C01 [X(C68H72
 Mg2N8O8)]\\@


 SI MONUMENTUM REQUIRIS, CIRCUMSPICE
     -- FROM SIR CHRISTOPHER WREN'S TOMBSTONE
 Job cpu time:       0 days 14 hours  8 minutes 14.9 seconds.
 Elapsed time:       0 days  0 hours 36 minutes  0.0 seconds.
 File lengths (MBytes):  RWF=  13225 Int=      0 D2E=      0 Chk=    574 Scr=      1
 Normal termination of Gaussian 16 at Sat Sep  4 00:08:16 2021.
