 Entering Gaussian System, Link 0=g16
 Initial command:
 /sw/apps/gaussian-16.0/g16/l1.exe "/tmp/Gau-273678.inp" -scrdir="/tmp/"
 Entering Link 1 = /sw/apps/gaussian-16.0/g16/l1.exe PID=    273679.
  
 Copyright (c) 1988,1990,1992,1993,1995,1998,2003,2009,2016,
            Gaussian, Inc.  All Rights Reserved.
  
 This is part of the Gaussian(R) 16 program.  It is based on
 the Gaussian(R) 09 system (copyright 2009, Gaussian, Inc.),
 the Gaussian(R) 03 system (copyright 2003, Gaussian, Inc.),
 the Gaussian(R) 98 system (copyright 1998, Gaussian, Inc.),
 the Gaussian(R) 94 system (copyright 1995, Gaussian, Inc.),
 the Gaussian 92(TM) system (copyright 1992, Gaussian, Inc.),
 the Gaussian 90(TM) system (copyright 1990, Gaussian, Inc.),
 the Gaussian 88(TM) system (copyright 1988, Gaussian, Inc.),
 the Gaussian 86(TM) system (copyright 1986, Carnegie Mellon
 University), and the Gaussian 82(TM) system (copyright 1983,
 Carnegie Mellon University). Gaussian is a federally registered
 trademark of Gaussian, Inc.
  
 This software contains proprietary and confidential information,
 including trade secrets, belonging to Gaussian, Inc.
  
 This software is provided under written license and may be
 used, copied, transmitted, or stored only in accord with that
 written license.
  
 The following legend is applicable only to US Government
 contracts under FAR:
  
                    RESTRICTED RIGHTS LEGEND
  
 Use, reproduction and disclosure by the US Government is
 subject to restrictions as set forth in subparagraphs (a)
 and (c) of the Commercial Computer Software - Restricted
 Rights clause in FAR 52.227-19.
  
 Gaussian, Inc.
 340 Quinnipiac St., Bldg. 40, Wallingford CT 06492
  
  
 ---------------------------------------------------------------
 Warning -- This program may not be used in any manner that
 competes with the business of Gaussian, Inc. or will provide
 assistance to any competitor of Gaussian, Inc.  The licensee
 of this program is prohibited from giving any competitor of
 Gaussian, Inc. access to this program.  By using this program,
 the user acknowledges that Gaussian, Inc. is engaged in the
 business of creating and licensing software in the field of
 computational chemistry and represents and warrants to the
 licensee that it is not a competitor of Gaussian, Inc. and that
 it will not use this program in any manner prohibited above.
 ---------------------------------------------------------------
  

 Cite this work as:
 Gaussian 16, Revision A.03,
 M. J. Frisch, G. W. Trucks, H. B. Schlegel, G. E. Scuseria, 
 M. A. Robb, J. R. Cheeseman, G. Scalmani, V. Barone, 
 G. A. Petersson, H. Nakatsuji, X. Li, M. Caricato, A. V. Marenich, 
 J. Bloino, B. G. Janesko, R. Gomperts, B. Mennucci, H. P. Hratchian, 
 J. V. Ortiz, A. F. Izmaylov, J. L. Sonnenberg, D. Williams-Young, 
 F. Ding, F. Lipparini, F. Egidi, J. Goings, B. Peng, A. Petrone, 
 T. Henderson, D. Ranasinghe, V. G. Zakrzewski, J. Gao, N. Rega, 
 G. Zheng, W. Liang, M. Hada, M. Ehara, K. Toyota, R. Fukuda, 
 J. Hasegawa, M. Ishida, T. Nakajima, Y. Honda, O. Kitao, H. Nakai, 
 T. Vreven, K. Throssell, J. A. Montgomery, Jr., J. E. Peralta, 
 F. Ogliaro, M. J. Bearpark, J. J. Heyd, E. N. Brothers, K. N. Kudin, 
 V. N. Staroverov, T. A. Keith, R. Kobayashi, J. Normand, 
 K. Raghavachari, A. P. Rendell, J. C. Burant, S. S. Iyengar, 
 J. Tomasi, M. Cossi, J. M. Millam, M. Klene, C. Adamo, R. Cammi, 
 J. W. Ochterski, R. L. Martin, K. Morokuma, O. Farkas, 
 J. B. Foresman, and D. J. Fox, Gaussian, Inc., Wallingford CT, 2016.
 
 ******************************************
 Gaussian 16:  ES64L-G16RevA.03 25-Dec-2016
                 3-Sep-2021 
 ******************************************
 %nproc=24
 Will use up to   24 processors via shared memory.
 %mem=175gb
 -----------------------------------
 #p cam-b3lyp/Def2SVP td=(nstates=5)
 -----------------------------------
 1/38=1,172=1/1;
 2/12=2,17=6,18=5,40=1/2;
 3/5=43,7=101,11=9,25=1,30=1,74=-40/1,2,3,8;
 4//1;
 5/5=2,38=5/2;
 8/6=1,10=1,108=5/1;
 9/41=5,42=1,70=2/14;
 6/7=2,8=2,9=2,10=2/1;
 99/5=1,9=1/99;
 Leave Link    1 at Fri Sep  3 17:09:13 2021, MaxMem= 23488102400 cpu:               0.8 elap:               0.0
 (Enter /sw/apps/gaussian-16.0/g16/l101.exe)
 --------------------------------
 TDDFT excited states in gaussian
 --------------------------------
 Symbolic Z-matrix:
 Charge =  0 Multiplicity = 1
 Mg                    0.        0.        0. 
 C                    -0.217    -2.218     2.801 
 C                    -1.255     2.442     2.026 
 C                    -0.245     1.85     -2.564 
 C                     0.146    -2.824    -2.037 
 N                    -0.617    -0.009     2.126 
 C                    -0.594    -0.908     3.105 
 C                    -0.936    -0.309     4.502 
 C                    -1.773     0.964     4.032 
 C                    -1.155     1.168     2.66 
 C                    -3.263     0.685     3.863 
 C                     0.345     0.11      5.299 
 C                     0.124     0.397     6.787 
 H                     1.168     0.033     7.733 
 N                    -0.185     1.961    -0.152 
 C                    -0.703     2.8       0.777 
 C                    -0.62      4.156     0.193 
 C                    -0.187     4.015    -1.225 
 C                    -0.214     2.583    -1.38 
 C                    -0.887     5.406     0.974 
 C                     0.181     5.013    -2.277 
 O                     0.303     4.69     -3.508 
 C                     0.31      6.414    -1.837 
 N                    -0.265    -0.413    -2.029 
 C                    -0.279     0.569    -2.937 
 C                    -0.196     0.024    -4.332 
 C                     0.124    -1.533    -4.18 
 C                     0.086    -1.632    -2.635 
 C                    -1.451     0.205    -5.197 
 C                     1.373    -2.07     -4.923 
 C                     2.626    -1.49     -4.306 
 N                     0.15     -2.144     0.303 
 C                     0.173    -3.136    -0.688 
 C                     0.173    -4.438     0.004 
 C                     0.133    -4.111     1.358 
 C                     0.083    -2.695     1.502 
 C                     0.149    -5.715    -0.623 
 C                     0.096    -4.629     2.716 
 O                     0.208    -5.747     3.221 
 C                    -0.255    -3.428     3.701 
 C                     0.717    -3.482     4.848 
 O                     1.931    -3.255     4.669 
 O                     0.038    -3.556     6.003 
 C                     0.943    -3.583     7.183 
 H                    -1.859     3.22      2.497 
 H                    -0.218     2.453    -3.474 
 H                     0.276    -3.747    -2.605 
 H                    -1.554    -0.949     5.132 
 H                    -1.585     1.831     4.665 
 H                    -3.484    -0.377     3.969 
 H                    -3.511     1.027     2.858 
 H                    -3.852     1.301     4.543 
 H                     0.669     1.096     4.966 
 H                     1.13     -0.639     5.189 
 H                    -0.844     0.026     7.125 
 H                     0.062     1.477     6.921 
 H                    -1.344     5.186     1.938 
 H                    -1.651     5.963     0.432 
 H                     0.007     6.02      1.084 
 H                    -0.635     6.744    -1.405 
 H                     0.665     6.97     -2.704 
 H                     1.048     6.466    -1.036 
 H                     0.608     0.501    -4.891 
 H                    -0.692    -2.156    -4.547 
 H                    -1.267     0.74     -6.129 
 H                    -2.204     0.714    -4.596 
 H                    -1.967    -0.72     -5.453 
 H                     1.356    -1.759    -5.967 
 H                     1.452    -3.157    -4.902 
 H                     2.714    -0.522    -4.798 
 H                     3.487    -2.121    -4.529 
 H                     2.495    -1.303    -3.24 
 H                     0.867    -6.333    -0.084 
 H                     0.404    -5.642    -1.68 
 H                    -0.891    -5.999    -0.463 
 H                    -1.283    -3.581     4.028 
 H                     0.698    -4.478     7.755 
 H                     0.833    -2.619     7.68 
 H                     2.       -3.754     6.976 
 Mg                    7.8902    0.70628   0.60596 
 C                     8.05976  -2.7805   -0.2263 
 C                     6.85594  -0.23943   3.7157 
 C                     7.29889   3.76059   1.22963 
 C                     7.82048   1.37662  -2.81333 
 N                     7.54179  -1.28294   1.50808 
 C                     7.6986   -2.53817   1.11544 
 C                     7.53285  -3.59068   2.2443 
 C                     6.61461  -2.73047   3.24217 
 C                     7.05105  -1.3269    2.8272 
 C                     5.12743  -2.87037   2.96278 
 C                     8.90119  -3.97414   2.90961 
 C                     8.85639  -5.21599   3.80266 
 H                     10.02234  -6.09472   3.83188 
 N                     7.65798   1.64115   2.34108 
 C                     7.25267   1.10007   3.50908 
 C                     7.2251    2.20729   4.4773 
 C                     7.48838   3.47646   3.74613 
 C                     7.47097   3.00064   2.37742 
 C                     7.0459    1.99406   5.95238 
 C                     7.70554   4.88741   4.20249 
 O                     7.68014   5.87189   3.38213 
 C                     7.85581   5.09229   5.65057 
 N                     7.38836   2.32088  -0.60383 
 C                     7.23839   3.55259  -0.08581 
 C                     7.15233   4.59547  -1.17456 
 C                     7.51985   3.83195  -2.53086 
 C                     7.67448   2.39744  -1.9798 
 C                     5.79684   5.28458  -1.33001 
 C                     8.67593   4.42557  -3.38161 
 C                     9.98764   4.2774   -2.64482 
 N                     8.11605  -0.44339  -1.20934 
 C                     8.02546   0.03103  -2.53629 
 C                     8.13412  -1.14278  -3.42669 
 C                     8.25828  -2.22987  -2.54845 
 C                     8.20877  -1.76848  -1.20526 
 C                     8.06353  -1.11803  -4.84814 
 C                     8.40929  -3.66396  -2.45213 
 O                     8.59476  -4.57406  -3.25902 
 C                     8.16046  -4.09811  -0.94349 
 C                     9.26818  -5.03241  -0.5403 
 O                     10.44183  -4.62745  -0.46841 
 O                     8.73332  -6.18519  -0.09827 
 C                     9.79235  -7.1403    0.32369 
 H                     6.30973  -0.4181    4.64232 
 H                     7.20204   4.83729   1.38715 
 H                     7.90597   1.51262  -3.89354 
 H                     7.01499  -4.49544   1.94934 
 H                     6.87504  -2.91941   4.28036 
 H                     4.93811  -3.43425   2.06148 
 H                     4.75049  -1.86084   2.86366 
 H                     4.61919  -3.29787   3.83184 
 H                     9.16108  -3.21408   3.65761 
 H                     9.66652  -4.09045   2.16707 
 H                     7.93953  -5.79887   3.65244 
 H                     8.80038  -4.89215   4.84478 
 H                     6.71009   0.97339   6.1734 
 H                     6.21107   2.62905   6.26816 
 H                     7.9335    2.26509   6.52803 
 H                     6.96922   4.72408   6.16131 
 H                     8.09132   6.15126   5.773 
 H                     8.69729   4.4861    6.00421 
 H                     7.87355   5.38661  -1.01014 
 H                     6.67044   3.81041  -3.22934 
 H                     5.85388   6.38565  -1.23803 
 H                     5.11953   4.87592  -0.59192 
 H                     5.27622   5.07445  -2.26275 
 H                     8.52379   5.49719  -3.53206 
 H                     8.76677   3.97228  -4.36307 
 H                     9.99122   5.13975  -1.97145 
 H                     10.82393   4.31591  -3.33993 
 H                     9.9903    3.37416  -2.02369 
 H                     8.84587  -1.77179  -5.21014 
 H                     8.17847  -0.1074   -5.23438 
 H                     7.05152  -1.50284  -4.99988 
 H                     7.18251  -4.57886  -0.89799 
 H                     9.63266  -8.06421  -0.24073 
 H                     9.71589  -7.2035    1.42547 
 H                     10.81577  -6.90376   0.05702 
 
 ITRead=  0  0  0  0  0  0  0  0  0  0  0  0  0  0  0  0  0  0  0  0
 ITRead=  0  0  0  0  0  0  0  0  0  0  0  0  0  0  0  0  0  0  0  0
 ITRead=  0  0  0  0  0  0  0  0  0  0  0  0  0  0  0  0  0  0  0  0
 ITRead=  0  0  0  0  0  0  0  0  0  0  0  0  0  0  0  0  0  0  0  0
 ITRead=  0  0  0  0  0  0  0  0  0  0  0  0  0  0  0  0  0  0  0  0
 ITRead=  0  0  0  0  0  0  0  0  0  0  0  0  0  0  0  0  0  0  0  0
 ITRead=  0  0  0  0  0  0  0  0  0  0  0  0  0  0  0  0  0  0  0  0
 ITRead=  0  0  0  0  0  0  0  0  0  0  0  0  0  0  0  0  0  0
 MicOpt= -1 -1 -1 -1 -1 -1 -1 -1 -1 -1 -1 -1 -1 -1 -1 -1 -1 -1 -1 -1
 MicOpt= -1 -1 -1 -1 -1 -1 -1 -1 -1 -1 -1 -1 -1 -1 -1 -1 -1 -1 -1 -1
 MicOpt= -1 -1 -1 -1 -1 -1 -1 -1 -1 -1 -1 -1 -1 -1 -1 -1 -1 -1 -1 -1
 MicOpt= -1 -1 -1 -1 -1 -1 -1 -1 -1 -1 -1 -1 -1 -1 -1 -1 -1 -1 -1 -1
 MicOpt= -1 -1 -1 -1 -1 -1 -1 -1 -1 -1 -1 -1 -1 -1 -1 -1 -1 -1 -1 -1
 MicOpt= -1 -1 -1 -1 -1 -1 -1 -1 -1 -1 -1 -1 -1 -1 -1 -1 -1 -1 -1 -1
 MicOpt= -1 -1 -1 -1 -1 -1 -1 -1 -1 -1 -1 -1 -1 -1 -1 -1 -1 -1 -1 -1
 MicOpt= -1 -1 -1 -1 -1 -1 -1 -1 -1 -1 -1 -1 -1 -1 -1 -1 -1 -1
 NAtoms=    158 NQM=      158 NQMF=       0 NMMI=      0 NMMIF=      0
                NMic=       0 NMicF=      0.
                    Isotopes and Nuclear Properties:
 (Nuclear quadrupole moments (NQMom) in fm**2, nuclear magnetic moments (NMagM)
  in nuclear magnetons)

  Atom         1           2           3           4           5           6           7           8           9          10
 IAtWgt=          24          12          12          12          12          14          12          12          12          12
 AtmWgt=  23.9850450  12.0000000  12.0000000  12.0000000  12.0000000  14.0030740  12.0000000  12.0000000  12.0000000  12.0000000
 NucSpn=           0           0           0           0           0           2           0           0           0           0
 AtZEff=  -0.0000000  -0.0000000  -0.0000000  -0.0000000  -0.0000000  -0.0000000  -0.0000000  -0.0000000  -0.0000000  -0.0000000
 NQMom=    0.0000000   0.0000000   0.0000000   0.0000000   0.0000000   2.0440000   0.0000000   0.0000000   0.0000000   0.0000000
 NMagM=    0.0000000   0.0000000   0.0000000   0.0000000   0.0000000   0.4037610   0.0000000   0.0000000   0.0000000   0.0000000
 AtZNuc=  12.0000000   6.0000000   6.0000000   6.0000000   6.0000000   7.0000000   6.0000000   6.0000000   6.0000000   6.0000000

  Atom        11          12          13          14          15          16          17          18          19          20
 IAtWgt=          12          12          12           1          14          12          12          12          12          12
 AtmWgt=  12.0000000  12.0000000  12.0000000   1.0078250  14.0030740  12.0000000  12.0000000  12.0000000  12.0000000  12.0000000
 NucSpn=           0           0           0           1           2           0           0           0           0           0
 AtZEff=  -0.0000000  -0.0000000  -0.0000000  -0.0000000  -0.0000000  -0.0000000  -0.0000000  -0.0000000  -0.0000000  -0.0000000
 NQMom=    0.0000000   0.0000000   0.0000000   0.0000000   2.0440000   0.0000000   0.0000000   0.0000000   0.0000000   0.0000000
 NMagM=    0.0000000   0.0000000   0.0000000   2.7928460   0.4037610   0.0000000   0.0000000   0.0000000   0.0000000   0.0000000
 AtZNuc=   6.0000000   6.0000000   6.0000000   1.0000000   7.0000000   6.0000000   6.0000000   6.0000000   6.0000000   6.0000000

  Atom        21          22          23          24          25          26          27          28          29          30
 IAtWgt=          12          16          12          14          12          12          12          12          12          12
 AtmWgt=  12.0000000  15.9949146  12.0000000  14.0030740  12.0000000  12.0000000  12.0000000  12.0000000  12.0000000  12.0000000
 NucSpn=           0           0           0           2           0           0           0           0           0           0
 AtZEff=  -0.0000000  -0.0000000  -0.0000000  -0.0000000  -0.0000000  -0.0000000  -0.0000000  -0.0000000  -0.0000000  -0.0000000
 NQMom=    0.0000000   0.0000000   0.0000000   2.0440000   0.0000000   0.0000000   0.0000000   0.0000000   0.0000000   0.0000000
 NMagM=    0.0000000   0.0000000   0.0000000   0.4037610   0.0000000   0.0000000   0.0000000   0.0000000   0.0000000   0.0000000
 AtZNuc=   6.0000000   8.0000000   6.0000000   7.0000000   6.0000000   6.0000000   6.0000000   6.0000000   6.0000000   6.0000000

  Atom        31          32          33          34          35          36          37          38          39          40
 IAtWgt=          12          14          12          12          12          12          12          12          16          12
 AtmWgt=  12.0000000  14.0030740  12.0000000  12.0000000  12.0000000  12.0000000  12.0000000  12.0000000  15.9949146  12.0000000
 NucSpn=           0           2           0           0           0           0           0           0           0           0
 AtZEff=  -0.0000000  -0.0000000  -0.0000000  -0.0000000  -0.0000000  -0.0000000  -0.0000000  -0.0000000  -0.0000000  -0.0000000
 NQMom=    0.0000000   2.0440000   0.0000000   0.0000000   0.0000000   0.0000000   0.0000000   0.0000000   0.0000000   0.0000000
 NMagM=    0.0000000   0.4037610   0.0000000   0.0000000   0.0000000   0.0000000   0.0000000   0.0000000   0.0000000   0.0000000
 AtZNuc=   6.0000000   7.0000000   6.0000000   6.0000000   6.0000000   6.0000000   6.0000000   6.0000000   8.0000000   6.0000000

  Atom        41          42          43          44          45          46          47          48          49          50
 IAtWgt=          12          16          16          12           1           1           1           1           1           1
 AtmWgt=  12.0000000  15.9949146  15.9949146  12.0000000   1.0078250   1.0078250   1.0078250   1.0078250   1.0078250   1.0078250
 NucSpn=           0           0           0           0           1           1           1           1           1           1
 AtZEff=  -0.0000000  -0.0000000  -0.0000000  -0.0000000  -0.0000000  -0.0000000  -0.0000000  -0.0000000  -0.0000000  -0.0000000
 NQMom=    0.0000000   0.0000000   0.0000000   0.0000000   0.0000000   0.0000000   0.0000000   0.0000000   0.0000000   0.0000000
 NMagM=    0.0000000   0.0000000   0.0000000   0.0000000   2.7928460   2.7928460   2.7928460   2.7928460   2.7928460   2.7928460
 AtZNuc=   6.0000000   8.0000000   8.0000000   6.0000000   1.0000000   1.0000000   1.0000000   1.0000000   1.0000000   1.0000000

  Atom        51          52          53          54          55          56          57          58          59          60
 IAtWgt=           1           1           1           1           1           1           1           1           1           1
 AtmWgt=   1.0078250   1.0078250   1.0078250   1.0078250   1.0078250   1.0078250   1.0078250   1.0078250   1.0078250   1.0078250
 NucSpn=           1           1           1           1           1           1           1           1           1           1
 AtZEff=  -0.0000000  -0.0000000  -0.0000000  -0.0000000  -0.0000000  -0.0000000  -0.0000000  -0.0000000  -0.0000000  -0.0000000
 NQMom=    0.0000000   0.0000000   0.0000000   0.0000000   0.0000000   0.0000000   0.0000000   0.0000000   0.0000000   0.0000000
 NMagM=    2.7928460   2.7928460   2.7928460   2.7928460   2.7928460   2.7928460   2.7928460   2.7928460   2.7928460   2.7928460
 AtZNuc=   1.0000000   1.0000000   1.0000000   1.0000000   1.0000000   1.0000000   1.0000000   1.0000000   1.0000000   1.0000000

  Atom        61          62          63          64          65          66          67          68          69          70
 IAtWgt=           1           1           1           1           1           1           1           1           1           1
 AtmWgt=   1.0078250   1.0078250   1.0078250   1.0078250   1.0078250   1.0078250   1.0078250   1.0078250   1.0078250   1.0078250
 NucSpn=           1           1           1           1           1           1           1           1           1           1
 AtZEff=  -0.0000000  -0.0000000  -0.0000000  -0.0000000  -0.0000000  -0.0000000  -0.0000000  -0.0000000  -0.0000000  -0.0000000
 NQMom=    0.0000000   0.0000000   0.0000000   0.0000000   0.0000000   0.0000000   0.0000000   0.0000000   0.0000000   0.0000000
 NMagM=    2.7928460   2.7928460   2.7928460   2.7928460   2.7928460   2.7928460   2.7928460   2.7928460   2.7928460   2.7928460
 AtZNuc=   1.0000000   1.0000000   1.0000000   1.0000000   1.0000000   1.0000000   1.0000000   1.0000000   1.0000000   1.0000000

  Atom        71          72          73          74          75          76          77          78          79          80
 IAtWgt=           1           1           1           1           1           1           1           1           1          24
 AtmWgt=   1.0078250   1.0078250   1.0078250   1.0078250   1.0078250   1.0078250   1.0078250   1.0078250   1.0078250  23.9850450
 NucSpn=           1           1           1           1           1           1           1           1           1           0
 AtZEff=  -0.0000000  -0.0000000  -0.0000000  -0.0000000  -0.0000000  -0.0000000  -0.0000000  -0.0000000  -0.0000000  -0.0000000
 NQMom=    0.0000000   0.0000000   0.0000000   0.0000000   0.0000000   0.0000000   0.0000000   0.0000000   0.0000000   0.0000000
 NMagM=    2.7928460   2.7928460   2.7928460   2.7928460   2.7928460   2.7928460   2.7928460   2.7928460   2.7928460   0.0000000
 AtZNuc=   1.0000000   1.0000000   1.0000000   1.0000000   1.0000000   1.0000000   1.0000000   1.0000000   1.0000000  12.0000000

  Atom        81          82          83          84          85          86          87          88          89          90
 IAtWgt=          12          12          12          12          14          12          12          12          12          12
 AtmWgt=  12.0000000  12.0000000  12.0000000  12.0000000  14.0030740  12.0000000  12.0000000  12.0000000  12.0000000  12.0000000
 NucSpn=           0           0           0           0           2           0           0           0           0           0
 AtZEff=  -0.0000000  -0.0000000  -0.0000000  -0.0000000  -0.0000000  -0.0000000  -0.0000000  -0.0000000  -0.0000000  -0.0000000
 NQMom=    0.0000000   0.0000000   0.0000000   0.0000000   2.0440000   0.0000000   0.0000000   0.0000000   0.0000000   0.0000000
 NMagM=    0.0000000   0.0000000   0.0000000   0.0000000   0.4037610   0.0000000   0.0000000   0.0000000   0.0000000   0.0000000
 AtZNuc=   6.0000000   6.0000000   6.0000000   6.0000000   7.0000000   6.0000000   6.0000000   6.0000000   6.0000000   6.0000000

  Atom        91          92          93          94          95          96          97          98          99         100
 IAtWgt=          12          12           1          14          12          12          12          12          12          12
 AtmWgt=  12.0000000  12.0000000   1.0078250  14.0030740  12.0000000  12.0000000  12.0000000  12.0000000  12.0000000  12.0000000
 NucSpn=           0           0           1           2           0           0           0           0           0           0
 AtZEff=  -0.0000000  -0.0000000  -0.0000000  -0.0000000  -0.0000000  -0.0000000  -0.0000000  -0.0000000  -0.0000000  -0.0000000
 NQMom=    0.0000000   0.0000000   0.0000000   2.0440000   0.0000000   0.0000000   0.0000000   0.0000000   0.0000000   0.0000000
 NMagM=    0.0000000   0.0000000   2.7928460   0.4037610   0.0000000   0.0000000   0.0000000   0.0000000   0.0000000   0.0000000
 AtZNuc=   6.0000000   6.0000000   1.0000000   7.0000000   6.0000000   6.0000000   6.0000000   6.0000000   6.0000000   6.0000000

  Atom       101         102         103         104         105         106         107         108         109         110
 IAtWgt=          16          12          14          12          12          12          12          12          12          12
 AtmWgt=  15.9949146  12.0000000  14.0030740  12.0000000  12.0000000  12.0000000  12.0000000  12.0000000  12.0000000  12.0000000
 NucSpn=           0           0           2           0           0           0           0           0           0           0
 AtZEff=  -0.0000000  -0.0000000  -0.0000000  -0.0000000  -0.0000000  -0.0000000  -0.0000000  -0.0000000  -0.0000000  -0.0000000
 NQMom=    0.0000000   0.0000000   2.0440000   0.0000000   0.0000000   0.0000000   0.0000000   0.0000000   0.0000000   0.0000000
 NMagM=    0.0000000   0.0000000   0.4037610   0.0000000   0.0000000   0.0000000   0.0000000   0.0000000   0.0000000   0.0000000
 AtZNuc=   8.0000000   6.0000000   7.0000000   6.0000000   6.0000000   6.0000000   6.0000000   6.0000000   6.0000000   6.0000000

  Atom       111         112         113         114         115         116         117         118         119         120
 IAtWgt=          14          12          12          12          12          12          12          16          12          12
 AtmWgt=  14.0030740  12.0000000  12.0000000  12.0000000  12.0000000  12.0000000  12.0000000  15.9949146  12.0000000  12.0000000
 NucSpn=           2           0           0           0           0           0           0           0           0           0
 AtZEff=  -0.0000000  -0.0000000  -0.0000000  -0.0000000  -0.0000000  -0.0000000  -0.0000000  -0.0000000  -0.0000000  -0.0000000
 NQMom=    2.0440000   0.0000000   0.0000000   0.0000000   0.0000000   0.0000000   0.0000000   0.0000000   0.0000000   0.0000000
 NMagM=    0.4037610   0.0000000   0.0000000   0.0000000   0.0000000   0.0000000   0.0000000   0.0000000   0.0000000   0.0000000
 AtZNuc=   7.0000000   6.0000000   6.0000000   6.0000000   6.0000000   6.0000000   6.0000000   8.0000000   6.0000000   6.0000000

  Atom       121         122         123         124         125         126         127         128         129         130
 IAtWgt=          16          16          12           1           1           1           1           1           1           1
 AtmWgt=  15.9949146  15.9949146  12.0000000   1.0078250   1.0078250   1.0078250   1.0078250   1.0078250   1.0078250   1.0078250
 NucSpn=           0           0           0           1           1           1           1           1           1           1
 AtZEff=  -0.0000000  -0.0000000  -0.0000000  -0.0000000  -0.0000000  -0.0000000  -0.0000000  -0.0000000  -0.0000000  -0.0000000
 NQMom=    0.0000000   0.0000000   0.0000000   0.0000000   0.0000000   0.0000000   0.0000000   0.0000000   0.0000000   0.0000000
 NMagM=    0.0000000   0.0000000   0.0000000   2.7928460   2.7928460   2.7928460   2.7928460   2.7928460   2.7928460   2.7928460
 AtZNuc=   8.0000000   8.0000000   6.0000000   1.0000000   1.0000000   1.0000000   1.0000000   1.0000000   1.0000000   1.0000000

  Atom       131         132         133         134         135         136         137         138         139         140
 IAtWgt=           1           1           1           1           1           1           1           1           1           1
 AtmWgt=   1.0078250   1.0078250   1.0078250   1.0078250   1.0078250   1.0078250   1.0078250   1.0078250   1.0078250   1.0078250
 NucSpn=           1           1           1           1           1           1           1           1           1           1
 AtZEff=  -0.0000000  -0.0000000  -0.0000000  -0.0000000  -0.0000000  -0.0000000  -0.0000000  -0.0000000  -0.0000000  -0.0000000
 NQMom=    0.0000000   0.0000000   0.0000000   0.0000000   0.0000000   0.0000000   0.0000000   0.0000000   0.0000000   0.0000000
 NMagM=    2.7928460   2.7928460   2.7928460   2.7928460   2.7928460   2.7928460   2.7928460   2.7928460   2.7928460   2.7928460
 AtZNuc=   1.0000000   1.0000000   1.0000000   1.0000000   1.0000000   1.0000000   1.0000000   1.0000000   1.0000000   1.0000000

  Atom       141         142         143         144         145         146         147         148         149         150
 IAtWgt=           1           1           1           1           1           1           1           1           1           1
 AtmWgt=   1.0078250   1.0078250   1.0078250   1.0078250   1.0078250   1.0078250   1.0078250   1.0078250   1.0078250   1.0078250
 NucSpn=           1           1           1           1           1           1           1           1           1           1
 AtZEff=  -0.0000000  -0.0000000  -0.0000000  -0.0000000  -0.0000000  -0.0000000  -0.0000000  -0.0000000  -0.0000000  -0.0000000
 NQMom=    0.0000000   0.0000000   0.0000000   0.0000000   0.0000000   0.0000000   0.0000000   0.0000000   0.0000000   0.0000000
 NMagM=    2.7928460   2.7928460   2.7928460   2.7928460   2.7928460   2.7928460   2.7928460   2.7928460   2.7928460   2.7928460
 AtZNuc=   1.0000000   1.0000000   1.0000000   1.0000000   1.0000000   1.0000000   1.0000000   1.0000000   1.0000000   1.0000000

  Atom       151         152         153         154         155         156         157         158
 IAtWgt=           1           1           1           1           1           1           1           1
 AtmWgt=   1.0078250   1.0078250   1.0078250   1.0078250   1.0078250   1.0078250   1.0078250   1.0078250
 NucSpn=           1           1           1           1           1           1           1           1
 AtZEff=  -0.0000000  -0.0000000  -0.0000000  -0.0000000  -0.0000000  -0.0000000  -0.0000000  -0.0000000
 NQMom=    0.0000000   0.0000000   0.0000000   0.0000000   0.0000000   0.0000000   0.0000000   0.0000000
 NMagM=    2.7928460   2.7928460   2.7928460   2.7928460   2.7928460   2.7928460   2.7928460   2.7928460
 AtZNuc=   1.0000000   1.0000000   1.0000000   1.0000000   1.0000000   1.0000000   1.0000000   1.0000000
 Leave Link  101 at Fri Sep  3 17:09:13 2021, MaxMem= 23488102400 cpu:               3.5 elap:               0.2
 (Enter /sw/apps/gaussian-16.0/g16/l202.exe)
 Stoichiometry    C68H72Mg2N8O8
 Framework group  C1[X(C68H72Mg2N8O8)]
 Deg. of freedom   468
 Full point group                 C1      NOp   1
 Largest Abelian subgroup         C1      NOp   1
 Largest concise Abelian subgroup C1      NOp   1
                         Standard orientation:                         
 ---------------------------------------------------------------------
 Center     Atomic      Atomic             Coordinates (Angstroms)
 Number     Number       Type             X           Y           Z
 ---------------------------------------------------------------------
      1         12           0       -3.787139    0.380528   -1.029796
      2          6           0       -4.163158   -2.829721    0.508100
      3          6           0       -5.490858    1.685577    1.622986
      4          6           0       -3.865988    3.145830   -2.580123
      5          6           0       -3.145464   -1.290960   -4.019787
      6          7           0       -4.662956   -0.555050    0.775275
      7          6           0       -4.686086   -1.786489    1.275471
      8          6           0       -5.250684   -1.853628    2.726021
      9          6           0       -6.127994   -0.522374    2.716537
     10          6           0       -5.362487    0.265537    1.668148
     11          6           0       -7.555612   -0.737014    2.224258
     12          6           0       -4.120422   -1.787188    3.807605
     13          6           0       -4.550128   -2.172212    5.226218
     14          1           0       -3.605771   -2.882273    6.075542
     15          7           0       -4.118819    2.211837   -0.367116
     16          6           0       -4.819204    2.558146    0.739599
     17          6           0       -4.779992    4.035086    0.801168
     18          6           0       -4.162029    4.526891   -0.461505
     19          6           0       -4.046662    3.299964   -1.207641
     20          6           0       -5.248909    4.821949    1.986374
     21          6           0       -3.751753    5.888319   -0.926606
     22          8           0       -3.449061    6.128147   -2.145390
     23          6           0       -3.799408    6.967307    0.076667
     24          7           0       -3.759126    0.872564   -3.058281
     25          6           0       -3.743115    2.148664   -3.458650
     26          6           0       -3.439386    2.257558   -4.923515
     27          6           0       -3.008862    0.794188   -5.395691
     28          6           0       -3.231795    0.040540   -4.061305
     29          6           0       -4.586790    2.762624   -5.809170
     30          6           0       -1.635155    0.657995   -6.099109
     31          6           0       -0.523768    0.946410   -5.114867
     32          7           0       -3.493330   -1.681661   -1.639796
     33          6           0       -3.261323   -2.151213   -2.940706
     34          6           0       -3.236672   -3.623805   -2.870474
     35          6           0       -3.474090   -3.910890   -1.527693
     36          6           0       -3.662814   -2.695511   -0.809691
     37          6           0       -3.072389   -4.508063   -3.972986
     38          6           0       -3.636698   -4.962506   -0.536976
     39          8           0       -3.493637   -6.186033   -0.539648
     40          6           0       -4.210040   -4.309462    0.797430
     41          6           0       -3.388609   -4.827658    1.946357
     42          8           0       -2.185673   -4.517088    2.064070
     43          8           0       -4.198311   -5.406476    2.846298
     44          6           0       -3.449555   -5.916053    4.026065
     45          1           0       -6.213557    2.171424    2.281469
     46          1           0       -3.776752    4.081592   -3.135842
     47          1           0       -2.866680   -1.877302   -4.897246
     48          1           0       -5.885762   -2.716580    2.927051
     49          1           0       -6.095829   -0.006961    3.676244
     50          1           0       -7.696420   -1.746559    1.838368
     51          1           0       -7.703919   -0.002616    1.432326
     52          1           0       -8.275838   -0.486805    3.003648
     53          1           0       -3.842821   -0.746350    3.973900
     54          1           0       -3.266601   -2.397565    3.511369
     55          1           0       -5.517540   -2.675226    5.226937
     56          1           0       -4.720690   -1.256170    5.791883
     57          1           0       -5.802722    4.198590    2.687273
     58          1           0       -5.983729    5.539428    1.621720
     59          1           0       -4.431654    5.350240    2.477634
     60          1           0       -4.815900    7.057354    0.460315
     61          1           0       -3.387350    7.849948   -0.411188
     62          1           0       -3.174925    6.687824    0.925701
     63          1           0       -2.615419    2.947274   -5.101827
     64          1           0       -3.716006    0.369968   -6.108895
     65          1           0       -4.333794    3.650162   -6.389665
     66          1           0       -5.450039    2.946264   -5.170133
     67          1           0       -4.985485    2.025203   -6.505352
     68          1           0       -1.547595    1.386626   -6.904328
     69          1           0       -1.466639   -0.330515   -6.526546
     70          1           0       -0.457937    2.033673   -5.133771
     71          1           0        0.409246    0.492886   -5.451038
     72          1           0       -0.803009    0.654430   -4.102316
     73          1           0       -2.377436   -5.280416   -3.643622
     74          1           0       -2.693977   -3.982275   -4.849316
     75          1           0       -4.096080   -4.857812   -4.105605
     76          1           0       -5.254040   -4.612361    0.871176
     77          1           0       -3.686851   -6.975480    4.123726
     78          1           0       -3.703173   -5.261736    4.860302
     79          1           0       -2.364207   -5.956504    3.927459
     80         12           0        3.875004    0.945003    0.993619
     81          6           0        4.445554   -1.841571   -1.194650
     82          6           0        2.543539   -1.268529    3.221179
     83          6           0        2.950797    3.420698    2.749807
     84          6           0        4.177715    3.016669   -1.792475
     85          7           0        3.587763   -1.246501    0.909902
     86          6           0        3.899489   -2.207446    0.053298
     87          6           0        3.684140   -3.646294    0.594515
     88          6           0        2.577703   -3.319893    1.711712
     89          6           0        2.940973   -1.864204    1.997533
     90          6           0        1.154813   -3.361486    1.179745
     91          6           0        4.985957   -4.245719    1.233260
     92          6           0        4.935953   -5.751392    1.501932
     93          1           0        6.159943   -6.529639    1.332698
     94          7           0        3.347732    1.038519    2.904585
     95          6           0        2.846904    0.038917    3.660385
     96          6           0        2.603373    0.622164    4.988791
     97          6           0        2.846672    2.088175    4.909193
     98          6           0        3.041934    2.245858    3.481929
     99          6           0        2.259431   -0.207939    6.191319
    100          6           0        2.883249    3.171211    5.944518
    101          8           0        2.876784    4.411651    5.621867
    102          6           0        2.832544    2.737988    7.348526
    103          7           0        3.392538    2.910243    0.516727
    104          6           0        3.073855    3.796282    1.476582
    105          6           0        3.036109    5.203246    0.929400
    106          6           0        3.634910    5.104983   -0.550250
    107          6           0        3.841425    3.576937   -0.638712
    108          6           0        1.656851    5.860006    0.877392
    109          6           0        4.833492    6.033597   -0.887526
    110          6           0        6.050223    5.614564   -0.094195
    111          7           0        4.424431    0.691836   -1.080531
    112          6           0        4.460764    1.687751   -2.080987
    113          6           0        4.780382    1.012893   -3.355687
    114          6           0        4.885984   -0.342696   -3.009693
    115          6           0        4.629016   -0.504036   -1.621375
    116          6           0        4.886840    1.643885   -4.627155
    117          6           0        5.145942   -1.675199   -3.505228
    118          8           0        5.508421   -2.146009   -4.582585
    119          6           0        4.747883   -2.720813   -2.376229
    120          6           0        5.872154   -3.711178   -2.243149
    121          8           0        6.988493   -3.348622   -1.832107
    122          8           0        5.386739   -4.954400   -2.413850
    123          6           0        6.462313   -5.972767   -2.280057
    124          1           0        1.902703   -1.840640    3.892678
    125          1           0        2.743122    4.322836    3.329888
    126          1           0        4.386102    3.605283   -2.688448
    127          1           0        3.286762   -4.348758   -0.128262
    128          1           0        2.721027   -3.930062    2.599695
    129          1           0        1.129054   -3.488069    0.107617
    130          1           0        0.708249   -2.416437    1.459964
    131          1           0        0.580032   -4.132631    1.700601
    132          1           0        5.083905   -3.874526    2.261540
    133          1           0        5.845531   -4.013766    0.634966
    134          1           0        4.098485   -6.234859    0.984385
    135          1           0        4.722112   -5.907800    2.562041
    136          1           0        1.987176   -1.232278    5.908490
    137          1           0        1.340301    0.209972    6.616078
    138          1           0        3.041300   -0.189374    6.953553
    139          1           0        1.923686    2.165254    7.517129
    140          1           0        2.959292    3.647062    7.939619
    141          1           0        3.671790    2.058811    7.535612
    142          1           0        3.660593    5.864001    1.518056
    143          1           0        2.884838    5.365306   -1.311473
    144          1           0        1.607416    6.815933    1.432215
    145          1           0        0.929782    5.158096    1.263684
    146          1           0        1.277293    6.058442   -0.123489
    147          1           0        4.610244    7.062069   -0.593321
    148          1           0        5.085232    6.047915   -1.942708
    149          1           0        5.895441    6.104075    0.871988
    150          1           0        6.960727    5.967609   -0.574179
    151          1           0        6.052254    4.532473    0.081093
    152          1           0        5.761496    1.227630   -5.109038
    153          1           0        4.962378    2.724864   -4.529464
    154          1           0        3.938559    1.337637   -5.076870
    155          1           0        3.816733   -3.197558   -2.684857
    156          1           0        6.454398   -6.568335   -3.198162
    157          1           0        6.253912   -6.504703   -1.332760
    158          1           0        7.487064   -5.620459   -2.265328
 ---------------------------------------------------------------------
 Rotational constants (GHZ):           0.0205829           0.0164235           0.0148406
 Leave Link  202 at Fri Sep  3 17:09:13 2021, MaxMem= 23488102400 cpu:               0.2 elap:               0.0
 (Enter /sw/apps/gaussian-16.0/g16/l301.exe)
 Standard basis: def2SVP (5D, 7F)
 Ernie: Thresh=  0.10000D-02 Tol=  0.10000D-05 Strict=F.
 There are  1658 symmetry adapted cartesian basis functions of A   symmetry.
 There are  1572 symmetry adapted basis functions of A   symmetry.
  1572 basis functions,  2678 primitive gaussians,  1658 cartesian basis functions
   312 alpha electrons      312 beta electrons
       nuclear repulsion energy     15939.0312686228 Hartrees.
 IExCor=20419 DFT=T Ex+Corr=CAM-B3LYP ExCW=0 ScaHFX=  1.000000
 ScaDFX=  1.000000  1.000000  1.000000  0.810000 ScalE2=  1.000000  1.000000
 IRadAn=      5 IRanWt=     -1 IRanGd=            0 ICorTp=0 IEmpDi=  4
 HFx  wShort=  0.000000 wLong=  0.330000 cFull=  0.190000 cShort=  0.000000 cLong=  0.460000
 DFx  wShort=  0.000000 wLong=  0.330000 cFull=  0.190000 cShort=  0.000000 cLong=  0.460000
 NAtoms=  158 NActive=  158 NUniq=  158 SFac= 1.00D+00 NAtFMM=   60 NAOKFM=T Big=T
 Integral buffers will be    131072 words long.
 Raffenetti 1 integral format.
 Two-electron integral symmetry is turned on.
 Leave Link  301 at Fri Sep  3 17:09:13 2021, MaxMem= 23488102400 cpu:               1.3 elap:               0.1
 (Enter /sw/apps/gaussian-16.0/g16/l302.exe)
 NPDir=0 NMtPBC=     1 NCelOv=     1 NCel=       1 NClECP=     1 NCelD=      1
         NCelK=      1 NCelE2=     1 NClLst=     1 CellRange=     0.0.
 One-electron integrals computed using PRISM.
 One-electron integral symmetry used in STVInt
   1 Symmetry operations used in ECPInt.
 ECPInt:  NShTT=  271216 NPrTT=  987664 LenC2=  164210 LenP2D=  344660.
 LDataN:  DoStor=T MaxTD1= 4 Len=   56
 NBasis=  1572 RedAO= T EigKep=  3.35D-04  NBF=  1572
 NBsUse=  1572 1.00D-06 EigRej= -1.00D+00 NBFU=  1572
 Precomputing XC quadrature grid using
 IXCGrd= 4 IRadAn=           5 IRanWt=          -1 IRanGd=           0 AccXCQ= 0.00D+00.
 Generated NRdTot=       0 NPtTot=           0 NUsed=           0 NTot=          32
 NSgBfM=  1254  1247  1249  1249  1254 MxSgAt=   158 MxSgA2=   158.
 Leave Link  302 at Fri Sep  3 17:09:19 2021, MaxMem= 23488102400 cpu:             131.4 elap:               5.5
 (Enter /sw/apps/gaussian-16.0/g16/l303.exe)
 DipDrv:  MaxL=1.
 Leave Link  303 at Fri Sep  3 17:09:19 2021, MaxMem= 23488102400 cpu:              10.0 elap:               0.5
 (Enter /sw/apps/gaussian-16.0/g16/l308.exe)
 Leave Link  308 at Fri Sep  3 17:09:20 2021, MaxMem= 23488102400 cpu:              14.5 elap:               0.7
 (Enter /sw/apps/gaussian-16.0/g16/l401.exe)
 ExpMin= 3.36D-02 ExpMax= 4.95D+03 ExpMxC= 7.45D+02 IAcc=3 IRadAn=         5 AccDes= 0.00D+00
 Harris functional with IExCor=20419 and IRadAn=       5 diagonalized for initial guess.
 HarFok:  IExCor=20419 AccDes= 0.00D+00 IRadAn=         5 IDoV= 1 UseB2=F ITyADJ=14
 ICtDFT=  3500011 ScaDFX=  1.000000  1.000000  1.000000  1.000000
 FoFCou: FMM=F IPFlag=           0 FMFlag=      100000 FMFlg1=        2001
         NFxFlg=           0 DoJE=T BraDBF=F KetDBF=T FulRan=T
         wScrn=  0.000000 ICntrl=       500 IOpCl=  0 I1Cent=   200000004 NGrid=           0
         NMat0=    1 NMatS0=      1 NMatT0=    0 NMatD0=    1 NMtDS0=    0 NMtDT0=    0
 Petite list used in FoFCou.
 Harris En= -3918.66118808446    
 JPrj=0 DoOrth=F DoCkMO=F.
 Leave Link  401 at Fri Sep  3 17:09:28 2021, MaxMem= 23488102400 cpu:             204.9 elap:               8.6
 (Enter /sw/apps/gaussian-16.0/g16/l502.exe)
 Integral symmetry usage will be decided dynamically.
 Closed shell SCF:
 Using DIIS extrapolation, IDIIS=  1040.
 NGot= 23488102400 LenX= 23482547354 LenY= 23479796732
 Requested convergence on RMS density matrix=1.00D-08 within 128 cycles.
 Requested convergence on MAX density matrix=1.00D-06.
 Requested convergence on             energy=1.00D-06.
 No special actions if energy rises.
 Fock matrices will be formed incrementally for  20 cycles.

 Cycle   1  Pass 1  IDiag  1:
 FoFJK:  IHMeth= 1 ICntrl=       0 DoSepK=T KAlg= 0 I1Cent=           0 FoldK=F
 IRaf=         1 NMat=       1 IRICut=       1 DoRegI=T DoRafI=F ISym2E= 0 IDoP0=0 IntGTp=1.
 FoFCou: FMM=T IPFlag=           0 FMFlag=      100000 FMFlg1=        2001
         NFxFlg=           0 DoJE=T BraDBF=F KetDBF=F FulRan=T
         wScrn=  0.000000 ICntrl=       500 IOpCl=  0 I1Cent=           0 NGrid=           0
         NMat0=    1 NMatS0=      1 NMatT0=    0 NMatD0=    1 NMtDS0=    0 NMtDT0=    0
 Symmetry not used in FoFCou.
 FMM levels:  10  Number of levels for PrismC:   9
 E= -4068.95199746433    
 DIIS: error= 2.03D-02 at cycle   1 NSaved=   1.
 NSaved= 1 IEnMin= 1 EnMin= -4068.95199746433     IErMin= 1 ErrMin= 2.03D-02
 ErrMax= 2.03D-02  0.00D+00 EMaxC= 1.00D-01 BMatC= 1.69D+00 BMatP= 1.69D+00
 IDIUse=3 WtCom= 7.97D-01 WtEn= 2.03D-01
 Coeff-Com:  0.100D+01
 Coeff-En:   0.100D+01
 Coeff:      0.100D+01
 Gap=     0.120 Goal=   None    Shift=    0.000
 GapD=    0.120 DampG=1.000 DampE=0.500 DampFc=0.5000 IDamp=-1.
 Damping current iteration by 5.00D-01
 RMSDP=1.58D-03 MaxDP=1.38D-01              OVMax= 1.99D-01

 Cycle   2  Pass 1  IDiag  1:
 RMSU=  7.74D-04    CP:  9.82D-01
 E= -4069.34192333321     Delta-E=       -0.389925868880 Rises=F Damp=T
 DIIS: error= 1.27D-02 at cycle   2 NSaved=   2.
 NSaved= 2 IEnMin= 2 EnMin= -4069.34192333321     IErMin= 2 ErrMin= 1.27D-02
 ErrMax= 1.27D-02  0.00D+00 EMaxC= 1.00D-01 BMatC= 3.06D-01 BMatP= 1.69D+00
 IDIUse=3 WtCom= 8.73D-01 WtEn= 1.27D-01
 Coeff-Com: -0.215D+00 0.121D+01
 Coeff-En:   0.000D+00 0.100D+01
 Coeff:     -0.187D+00 0.119D+01
 Gap=     0.131 Goal=   None    Shift=    0.000
 RMSDP=7.69D-04 MaxDP=9.42D-02 DE=-3.90D-01 OVMax= 1.92D-01

 Cycle   3  Pass 1  IDiag  1:
 RMSU=  7.36D-04    CP:  9.68D-01  1.24D+00
 E= -4069.63235472852     Delta-E=       -0.290431395308 Rises=F Damp=F
 DIIS: error= 1.47D-02 at cycle   3 NSaved=   3.
 NSaved= 3 IEnMin= 3 EnMin= -4069.63235472852     IErMin= 2 ErrMin= 1.27D-02
 ErrMax= 1.47D-02  0.00D+00 EMaxC= 1.00D-01 BMatC= 1.99D-01 BMatP= 3.06D-01
 IDIUse=3 WtCom= 8.53D-01 WtEn= 1.47D-01
 Coeff-Com: -0.267D+00 0.650D+00 0.617D+00
 Coeff-En:   0.000D+00 0.000D+00 0.100D+01
 Coeff:     -0.228D+00 0.555D+00 0.673D+00
 Gap=     0.117 Goal=   None    Shift=    0.000
 RMSDP=5.09D-04 MaxDP=4.64D-02 DE=-2.90D-01 OVMax= 1.44D-01

 Cycle   4  Pass 1  IDiag  1:
 RMSU=  2.66D-04    CP:  9.64D-01  1.54D+00  5.06D-01
 E= -4069.77043018812     Delta-E=       -0.138075459603 Rises=F Damp=F
 DIIS: error= 6.41D-03 at cycle   4 NSaved=   4.
 NSaved= 4 IEnMin= 4 EnMin= -4069.77043018812     IErMin= 4 ErrMin= 6.41D-03
 ErrMax= 6.41D-03  0.00D+00 EMaxC= 1.00D-01 BMatC= 4.73D-02 BMatP= 1.99D-01
 IDIUse=3 WtCom= 9.36D-01 WtEn= 6.41D-02
 Coeff-Com: -0.110D+00 0.228D+00 0.405D+00 0.477D+00
 Coeff-En:   0.000D+00 0.000D+00 0.213D+00 0.787D+00
 Coeff:     -0.103D+00 0.214D+00 0.393D+00 0.496D+00
 Gap=     0.117 Goal=   None    Shift=    0.000
 RMSDP=2.00D-04 MaxDP=1.83D-02 DE=-1.38D-01 OVMax= 6.53D-02

 Cycle   5  Pass 1  IDiag  1:
 RMSU=  7.73D-05    CP:  9.64D-01  1.49D+00  6.87D-01  5.51D-01
 E= -4069.81387515679     Delta-E=       -0.043444968669 Rises=F Damp=F
 DIIS: error= 6.76D-04 at cycle   5 NSaved=   5.
 NSaved= 5 IEnMin= 5 EnMin= -4069.81387515679     IErMin= 5 ErrMin= 6.76D-04
 ErrMax= 6.76D-04  0.00D+00 EMaxC= 1.00D-01 BMatC= 1.20D-03 BMatP= 4.73D-02
 IDIUse=3 WtCom= 9.93D-01 WtEn= 6.76D-03
 Coeff-Com: -0.386D-01 0.761D-01 0.171D+00 0.255D+00 0.537D+00
 Coeff-En:   0.000D+00 0.000D+00 0.000D+00 0.000D+00 0.100D+01
 Coeff:     -0.384D-01 0.756D-01 0.169D+00 0.253D+00 0.540D+00
 Gap=     0.117 Goal=   None    Shift=    0.000
 RMSDP=4.44D-05 MaxDP=4.93D-03 DE=-4.34D-02 OVMax= 2.12D-02

 Cycle   6  Pass 1  IDiag  1:
 RMSU=  3.27D-05    CP:  9.64D-01  1.50D+00  6.78D-01  6.24D-01  7.23D-01
 E= -4069.81495457106     Delta-E=       -0.001079414265 Rises=F Damp=F
 DIIS: error= 2.32D-04 at cycle   6 NSaved=   6.
 NSaved= 6 IEnMin= 6 EnMin= -4069.81495457106     IErMin= 6 ErrMin= 2.32D-04
 ErrMax= 2.32D-04  0.00D+00 EMaxC= 1.00D-01 BMatC= 2.08D-04 BMatP= 1.20D-03
 IDIUse=3 WtCom= 9.98D-01 WtEn= 2.32D-03
 Coeff-Com:  0.115D-02-0.451D-02 0.149D-01 0.446D-01 0.315D+00 0.629D+00
 Coeff-En:   0.000D+00 0.000D+00 0.000D+00 0.000D+00 0.145D+00 0.855D+00
 Coeff:      0.115D-02-0.450D-02 0.149D-01 0.445D-01 0.315D+00 0.629D+00
 Gap=     0.117 Goal=   None    Shift=    0.000
 RMSDP=1.81D-05 MaxDP=1.25D-03 DE=-1.08D-03 OVMax= 8.80D-03

 Cycle   7  Pass 1  IDiag  1:
 RMSU=  1.14D-05    CP:  9.64D-01  1.50D+00  6.85D-01  6.21D-01  8.42D-01
                    CP:  7.13D-01
 E= -4069.81518852240     Delta-E=       -0.000233951341 Rises=F Damp=F
 DIIS: error= 1.18D-04 at cycle   7 NSaved=   7.
 NSaved= 7 IEnMin= 7 EnMin= -4069.81518852240     IErMin= 7 ErrMin= 1.18D-04
 ErrMax= 1.18D-04  0.00D+00 EMaxC= 1.00D-01 BMatC= 2.78D-05 BMatP= 2.08D-04
 IDIUse=3 WtCom= 9.99D-01 WtEn= 1.18D-03
 Coeff-Com:  0.447D-02-0.987D-02-0.825D-02-0.243D-02 0.115D+00 0.343D+00
 Coeff-Com:  0.558D+00
 Coeff-En:   0.000D+00 0.000D+00 0.000D+00 0.000D+00 0.000D+00 0.000D+00
 Coeff-En:   0.100D+01
 Coeff:      0.446D-02-0.986D-02-0.824D-02-0.243D-02 0.115D+00 0.342D+00
 Coeff:      0.559D+00
 Gap=     0.118 Goal=   None    Shift=    0.000
 RMSDP=6.85D-06 MaxDP=1.26D-03 DE=-2.34D-04 OVMax= 3.74D-03

 Cycle   8  Pass 1  IDiag  1:
 RMSU=  4.75D-06    CP:  9.64D-01  1.50D+00  6.85D-01  6.26D-01  8.41D-01
                    CP:  8.36D-01  8.00D-01
 E= -4069.81522211217     Delta-E=       -0.000033589771 Rises=F Damp=F
 DIIS: error= 5.23D-05 at cycle   8 NSaved=   8.
 NSaved= 8 IEnMin= 8 EnMin= -4069.81522211217     IErMin= 8 ErrMin= 5.23D-05
 ErrMax= 5.23D-05  0.00D+00 EMaxC= 1.00D-01 BMatC= 4.63D-06 BMatP= 2.78D-05
 IDIUse=1 WtCom= 1.00D+00 WtEn= 0.00D+00
 Coeff-Com:  0.228D-02-0.454D-02-0.790D-02-0.123D-01-0.936D-02 0.342D-01
 Coeff-Com:  0.303D+00 0.694D+00
 Coeff:      0.228D-02-0.454D-02-0.790D-02-0.123D-01-0.936D-02 0.342D-01
 Coeff:      0.303D+00 0.694D+00
 Gap=     0.118 Goal=   None    Shift=    0.000
 RMSDP=3.38D-06 MaxDP=4.69D-04 DE=-3.36D-05 OVMax= 1.21D-03

 Cycle   9  Pass 1  IDiag  1:
 RMSU=  1.94D-06    CP:  9.64D-01  1.50D+00  6.86D-01  6.28D-01  8.59D-01
                    CP:  8.65D-01  9.88D-01  9.79D-01
 E= -4069.81522957189     Delta-E=       -0.000007459723 Rises=F Damp=F
 DIIS: error= 2.00D-05 at cycle   9 NSaved=   9.
 NSaved= 9 IEnMin= 9 EnMin= -4069.81522957189     IErMin= 9 ErrMin= 2.00D-05
 ErrMax= 2.00D-05  0.00D+00 EMaxC= 1.00D-01 BMatC= 7.57D-07 BMatP= 4.63D-06
 IDIUse=1 WtCom= 1.00D+00 WtEn= 0.00D+00
 Coeff-Com:  0.548D-03-0.936D-03-0.288D-02-0.628D-02-0.211D-01-0.381D-01
 Coeff-Com:  0.869D-01 0.355D+00 0.627D+00
 Coeff:      0.548D-03-0.936D-03-0.288D-02-0.628D-02-0.211D-01-0.381D-01
 Coeff:      0.869D-01 0.355D+00 0.627D+00
 Gap=     0.118 Goal=   None    Shift=    0.000
 RMSDP=1.39D-06 MaxDP=1.38D-04 DE=-7.46D-06 OVMax= 6.96D-04

 Cycle  10  Pass 1  IDiag  1:
 RMSU=  9.35D-07    CP:  9.64D-01  1.50D+00  6.86D-01  6.28D-01  8.62D-01
                    CP:  8.75D-01  1.03D+00  1.14D+00  1.04D+00
 E= -4069.81523116687     Delta-E=       -0.000001594977 Rises=F Damp=F
 DIIS: error= 9.21D-06 at cycle  10 NSaved=  10.
 NSaved=10 IEnMin=10 EnMin= -4069.81523116687     IErMin=10 ErrMin= 9.21D-06
 ErrMax= 9.21D-06  0.00D+00 EMaxC= 1.00D-01 BMatC= 1.51D-07 BMatP= 7.57D-07
 IDIUse=1 WtCom= 1.00D+00 WtEn= 0.00D+00
 Coeff-Com: -0.403D-03 0.850D-03 0.111D-02 0.947D-03-0.404D-02-0.295D-01
 Coeff-Com: -0.419D-01-0.600D-01 0.222D+00 0.911D+00
 Coeff:     -0.403D-03 0.850D-03 0.111D-02 0.947D-03-0.404D-02-0.295D-01
 Coeff:     -0.419D-01-0.600D-01 0.222D+00 0.911D+00
 Gap=     0.118 Goal=   None    Shift=    0.000
 RMSDP=1.18D-06 MaxDP=1.21D-04 DE=-1.59D-06 OVMax= 6.08D-04

 Cycle  11  Pass 1  IDiag  1:
 RMSU=  5.17D-07    CP:  9.64D-01  1.50D+00  6.86D-01  6.29D-01  8.64D-01
                    CP:  8.84D-01  1.07D+00  1.25D+00  1.36D+00  1.35D+00
 E= -4069.81523188484     Delta-E=       -0.000000717966 Rises=F Damp=F
 DIIS: error= 4.15D-06 at cycle  11 NSaved=  11.
 NSaved=11 IEnMin=11 EnMin= -4069.81523188484     IErMin=11 ErrMin= 4.15D-06
 ErrMax= 4.15D-06  0.00D+00 EMaxC= 1.00D-01 BMatC= 6.22D-08 BMatP= 1.51D-07
 IDIUse=1 WtCom= 1.00D+00 WtEn= 0.00D+00
 Coeff-Com: -0.339D-03 0.663D-03 0.131D-02 0.208D-02 0.416D-02-0.828D-02
 Coeff-Com: -0.388D-01-0.125D+00-0.441D-01 0.490D+00 0.718D+00
 Coeff:     -0.339D-03 0.663D-03 0.131D-02 0.208D-02 0.416D-02-0.828D-02
 Coeff:     -0.388D-01-0.125D+00-0.441D-01 0.490D+00 0.718D+00
 Gap=     0.118 Goal=   None    Shift=    0.000
 RMSDP=6.59D-07 MaxDP=5.60D-05 DE=-7.18D-07 OVMax= 3.53D-04

 Cycle  12  Pass 1  IDiag  1:
 RMSU=  2.65D-07    CP:  9.64D-01  1.50D+00  6.86D-01  6.29D-01  8.65D-01
                    CP:  8.87D-01  1.09D+00  1.31D+00  1.51D+00  1.73D+00
                    CP:  1.18D+00
 E= -4069.81523212814     Delta-E=       -0.000000243301 Rises=F Damp=F
 DIIS: error= 2.59D-06 at cycle  12 NSaved=  12.
 NSaved=12 IEnMin=12 EnMin= -4069.81523212814     IErMin=12 ErrMin= 2.59D-06
 ErrMax= 2.59D-06  0.00D+00 EMaxC= 1.00D-01 BMatC= 1.47D-08 BMatP= 6.22D-08
 IDIUse=1 WtCom= 1.00D+00 WtEn= 0.00D+00
 Coeff-Com: -0.315D-04 0.465D-04 0.275D-03 0.632D-03 0.342D-02 0.272D-02
 Coeff-Com: -0.290D-03-0.378D-01-0.724D-01-0.227D-01 0.269D+00 0.857D+00
 Coeff:     -0.315D-04 0.465D-04 0.275D-03 0.632D-03 0.342D-02 0.272D-02
 Coeff:     -0.290D-03-0.378D-01-0.724D-01-0.227D-01 0.269D+00 0.857D+00
 Gap=     0.118 Goal=   None    Shift=    0.000
 RMSDP=3.93D-07 MaxDP=2.51D-05 DE=-2.43D-07 OVMax= 2.29D-04

 Cycle  13  Pass 1  IDiag  1:
 RMSU=  1.67D-07    CP:  9.64D-01  1.50D+00  6.86D-01  6.29D-01  8.65D-01
                    CP:  8.86D-01  1.10D+00  1.33D+00  1.61D+00  1.93D+00
                    CP:  1.56D+00  1.18D+00
 E= -4069.81523220850     Delta-E=       -0.000000080359 Rises=F Damp=F
 DIIS: error= 1.53D-06 at cycle  13 NSaved=  13.
 NSaved=13 IEnMin=13 EnMin= -4069.81523220850     IErMin=13 ErrMin= 1.53D-06
 ErrMax= 1.53D-06  0.00D+00 EMaxC= 1.00D-01 BMatC= 8.77D-09 BMatP= 1.47D-08
 IDIUse=1 WtCom= 1.00D+00 WtEn= 0.00D+00
 Coeff-Com:  0.114D-03-0.234D-03-0.336D-03-0.407D-03 0.789D-03 0.439D-02
 Coeff-Com:  0.170D-01 0.220D-01-0.327D-01-0.227D+00-0.157D+00 0.591D+00
 Coeff-Com:  0.783D+00
 Coeff:      0.114D-03-0.234D-03-0.336D-03-0.407D-03 0.789D-03 0.439D-02
 Coeff:      0.170D-01 0.220D-01-0.327D-01-0.227D+00-0.157D+00 0.591D+00
 Coeff:      0.783D+00
 Gap=     0.118 Goal=   None    Shift=    0.000
 RMSDP=3.30D-07 MaxDP=1.97D-05 DE=-8.04D-08 OVMax= 1.81D-04

 Cycle  14  Pass 1  IDiag  1:
 RMSU=  7.88D-08    CP:  9.64D-01  1.50D+00  6.86D-01  6.29D-01  8.66D-01
                    CP:  8.87D-01  1.10D+00  1.35D+00  1.67D+00  2.12D+00
                    CP:  1.81D+00  1.71D+00  1.09D+00
 E= -4069.81523224516     Delta-E=       -0.000000036660 Rises=F Damp=F
 DIIS: error= 7.06D-07 at cycle  14 NSaved=  14.
 NSaved=14 IEnMin=14 EnMin= -4069.81523224516     IErMin=14 ErrMin= 7.06D-07
 ErrMax= 7.06D-07  0.00D+00 EMaxC= 1.00D-01 BMatC= 1.36D-09 BMatP= 8.77D-09
 IDIUse=1 WtCom= 1.00D+00 WtEn= 0.00D+00
 Coeff-Com:  0.722D-04-0.143D-03-0.258D-03-0.401D-03-0.411D-03 0.119D-02
 Coeff-Com:  0.101D-01 0.209D-01 0.385D-02-0.107D+00-0.156D+00 0.101D+00
 Coeff-Com:  0.409D+00 0.718D+00
 Coeff:      0.722D-04-0.143D-03-0.258D-03-0.401D-03-0.411D-03 0.119D-02
 Coeff:      0.101D-01 0.209D-01 0.385D-02-0.107D+00-0.156D+00 0.101D+00
 Coeff:      0.409D+00 0.718D+00
 Gap=     0.118 Goal=   None    Shift=    0.000
 RMSDP=1.12D-07 MaxDP=6.80D-06 DE=-3.67D-08 OVMax= 6.66D-05

 Cycle  15  Pass 1  IDiag  1:
 RMSU=  3.96D-08    CP:  9.64D-01  1.50D+00  6.86D-01  6.29D-01  8.66D-01
                    CP:  8.87D-01  1.10D+00  1.36D+00  1.69D+00  2.17D+00
                    CP:  1.93D+00  1.86D+00  1.34D+00  1.01D+00
 E= -4069.81523224997     Delta-E=       -0.000000004817 Rises=F Damp=F
 DIIS: error= 4.16D-07 at cycle  15 NSaved=  15.
 NSaved=15 IEnMin=15 EnMin= -4069.81523224997     IErMin=15 ErrMin= 4.16D-07
 ErrMax= 4.16D-07  0.00D+00 EMaxC= 1.00D-01 BMatC= 2.64D-10 BMatP= 1.36D-09
 IDIUse=1 WtCom= 1.00D+00 WtEn= 0.00D+00
 Coeff-Com:  0.125D-04-0.231D-04-0.562D-04-0.115D-03-0.310D-03-0.411D-03
 Coeff-Com:  0.186D-02 0.473D-02 0.835D-02-0.689D-02-0.430D-01-0.625D-01
 Coeff-Com:  0.488D-01 0.334D+00 0.716D+00
 Coeff:      0.125D-04-0.231D-04-0.562D-04-0.115D-03-0.310D-03-0.411D-03
 Coeff:      0.186D-02 0.473D-02 0.835D-02-0.689D-02-0.430D-01-0.625D-01
 Coeff:      0.488D-01 0.334D+00 0.716D+00
 Gap=     0.118 Goal=   None    Shift=    0.000
 RMSDP=3.87D-08 MaxDP=2.42D-06 DE=-4.82D-09 OVMax= 2.19D-05

 Cycle  16  Pass 1  IDiag  1:
 RMSU=  1.95D-08    CP:  9.64D-01  1.50D+00  6.86D-01  6.29D-01  8.66D-01
                    CP:  8.87D-01  1.10D+00  1.36D+00  1.70D+00  2.18D+00
                    CP:  1.95D+00  1.92D+00  1.41D+00  1.22D+00  1.09D+00
 E= -4069.81523225079     Delta-E=       -0.000000000819 Rises=F Damp=F
 DIIS: error= 1.85D-07 at cycle  16 NSaved=  16.
 NSaved=16 IEnMin=16 EnMin= -4069.81523225079     IErMin=16 ErrMin= 1.85D-07
 ErrMax= 1.85D-07  0.00D+00 EMaxC= 1.00D-01 BMatC= 9.12D-11 BMatP= 2.64D-10
 IDIUse=1 WtCom= 1.00D+00 WtEn= 0.00D+00
 Coeff-Com: -0.122D-04 0.249D-04 0.381D-04 0.396D-04-0.475D-04-0.592D-03
 Coeff-Com: -0.145D-02-0.350D-02 0.385D-02 0.231D-01 0.169D-01-0.619D-01
 Coeff-Com: -0.758D-01-0.130D-01 0.387D+00 0.725D+00
 Coeff:     -0.122D-04 0.249D-04 0.381D-04 0.396D-04-0.475D-04-0.592D-03
 Coeff:     -0.145D-02-0.350D-02 0.385D-02 0.231D-01 0.169D-01-0.619D-01
 Coeff:     -0.758D-01-0.130D-01 0.387D+00 0.725D+00
 Gap=     0.118 Goal=   None    Shift=    0.000
 RMSDP=2.35D-08 MaxDP=1.56D-06 DE=-8.19D-10 OVMax= 1.65D-05

 Cycle  17  Pass 1  IDiag  1:
 RMSU=  1.14D-08    CP:  9.64D-01  1.50D+00  6.86D-01  6.29D-01  8.66D-01
                    CP:  8.87D-01  1.10D+00  1.36D+00  1.70D+00  2.19D+00
                    CP:  1.96D+00  1.95D+00  1.46D+00  1.30D+00  1.37D+00
                    CP:  1.14D+00
 E= -4069.81523225087     Delta-E=       -0.000000000084 Rises=F Damp=F
 DIIS: error= 1.08D-07 at cycle  17 NSaved=  17.
 NSaved=17 IEnMin=17 EnMin= -4069.81523225087     IErMin=17 ErrMin= 1.08D-07
 ErrMax= 1.08D-07  0.00D+00 EMaxC= 1.00D-01 BMatC= 2.32D-11 BMatP= 9.12D-11
 IDIUse=1 WtCom= 1.00D+00 WtEn= 0.00D+00
 Coeff-Com: -0.911D-05 0.179D-04 0.336D-04 0.474D-04 0.727D-04-0.207D-03
 Coeff-Com: -0.104D-02-0.322D-02 0.234D-03 0.130D-01 0.200D-01-0.152D-01
 Coeff-Com: -0.459D-01-0.967D-01 0.203D-02 0.349D+00 0.777D+00
 Coeff:     -0.911D-05 0.179D-04 0.336D-04 0.474D-04 0.727D-04-0.207D-03
 Coeff:     -0.104D-02-0.322D-02 0.234D-03 0.130D-01 0.200D-01-0.152D-01
 Coeff:     -0.459D-01-0.967D-01 0.203D-02 0.349D+00 0.777D+00
 Gap=     0.118 Goal=   None    Shift=    0.000
 RMSDP=1.32D-08 MaxDP=9.33D-07 DE=-8.37D-11 OVMax= 7.55D-06

 Cycle  18  Pass 1  IDiag  1:
 RMSU=  5.52D-09    CP:  9.64D-01  1.50D+00  6.86D-01  6.29D-01  8.66D-01
                    CP:  8.87D-01  1.10D+00  1.36D+00  1.70D+00  2.19D+00
                    CP:  1.97D+00  1.95D+00  1.48D+00  1.36D+00  1.52D+00
                    CP:  1.51D+00  1.31D+00
 E= -4069.81523225101     Delta-E=       -0.000000000138 Rises=F Damp=F
 DIIS: error= 8.05D-08 at cycle  18 NSaved=  18.
 NSaved=18 IEnMin=18 EnMin= -4069.81523225101     IErMin=18 ErrMin= 8.05D-08
 ErrMax= 8.05D-08  0.00D+00 EMaxC= 1.00D-01 BMatC= 8.06D-12 BMatP= 2.32D-11
 IDIUse=1 WtCom= 1.00D+00 WtEn= 0.00D+00
 Coeff-Com: -0.529D-06 0.705D-06 0.464D-05 0.102D-04 0.693D-04 0.927D-04
 Coeff-Com:  0.649D-04-0.595D-03-0.101D-02-0.201D-02 0.439D-02 0.135D-01
 Coeff-Com:  0.629D-02-0.465D-01-0.134D+00-0.763D-01 0.380D+00 0.856D+00
 Coeff:     -0.529D-06 0.705D-06 0.464D-05 0.102D-04 0.693D-04 0.927D-04
 Coeff:      0.649D-04-0.595D-03-0.101D-02-0.201D-02 0.439D-02 0.135D-01
 Coeff:      0.629D-02-0.465D-01-0.134D+00-0.763D-01 0.380D+00 0.856D+00
 Gap=     0.118 Goal=   None    Shift=    0.000
 RMSDP=9.92D-09 MaxDP=6.79D-07 DE=-1.38D-10 OVMax= 6.98D-06

 SCF Done:  E(RCAM-B3LYP) =  -4069.81523225     A.U. after   18 cycles
            NFock= 18  Conv=0.99D-08     -V/T= 2.0102
 KE= 4.028792033349D+03 PE=-4.135931061164D+04 EE= 1.732167207742D+04
 Leave Link  502 at Fri Sep  3 17:21:32 2021, MaxMem= 23488102400 cpu:           16769.5 elap:             724.0
 (Enter /sw/apps/gaussian-16.0/g16/l801.exe)
 DoSCS=F DFT=T ScalE2(SS,OS)=  1.000000  1.000000
 ExpMin= 3.36D-02 ExpMax= 4.95D+03 ExpMxC= 7.45D+02 IAcc=3 IRadAn=         5 AccDes= 0.00D+00
 HarFok:  IExCor=  205 AccDes= 0.00D+00 IRadAn=         5 IDoV=-2 UseB2=F ITyADJ=14
 ICtDFT= 12500011 ScaDFX=  1.000000  1.000000  1.000000  1.000000
 GSVD:  LWork=       -9588 too small for GESVD, short by       45590 words or       45590 for optimal perf.
 Largest valence mixing into a core orbital is  2.03D-04
 Largest core mixing into a valence orbital is  5.24D-05
 Range of M.O.s used for correlation:    95  1572
 NBasis=  1572 NAE=   312 NBE=   312 NFC=    94 NFV=     0
 NROrb=   1478 NOA=   218 NOB=   218 NVA=  1260 NVB=  1260
 Leave Link  801 at Fri Sep  3 17:21:33 2021, MaxMem= 23488102400 cpu:               9.1 elap:               0.4
 (Enter /sw/apps/gaussian-16.0/g16/l914.exe)
 RHF ground state
 Two-electron integrals replicated using symmetry.
 MDV= 23488102400 DFT=T DoStab=F Mixed=T DoRPA=T DoScal=F NonHer=T
 Making orbital integer symmetry assigments:
 Orbital symmetries:
       Occupied  (A) (A) (A) (A) (A) (A) (A) (A) (A) (A) (A) (A)
                 (A) (A) (A) (A) (A) (A) (A) (A) (A) (A) (A) (A)
                 (A) (A) (A) (A) (A) (A) (A) (A) (A) (A) (A) (A)
                 (A) (A) (A) (A) (A) (A) (A) (A) (A) (A) (A) (A)
                 (A) (A) (A) (A) (A) (A) (A) (A) (A) (A) (A) (A)
                 (A) (A) (A) (A) (A) (A) (A) (A) (A) (A) (A) (A)
                 (A) (A) (A) (A) (A) (A) (A) (A) (A) (A) (A) (A)
                 (A) (A) (A) (A) (A) (A) (A) (A) (A) (A) (A) (A)
                 (A) (A) (A) (A) (A) (A) (A) (A) (A) (A) (A) (A)
                 (A) (A) (A) (A) (A) (A) (A) (A) (A) (A) (A) (A)
                 (A) (A) (A) (A) (A) (A) (A) (A) (A) (A) (A) (A)
                 (A) (A) (A) (A) (A) (A) (A) (A) (A) (A) (A) (A)
                 (A) (A) (A) (A) (A) (A) (A) (A) (A) (A) (A) (A)
                 (A) (A) (A) (A) (A) (A) (A) (A) (A) (A) (A) (A)
                 (A) (A) (A) (A) (A) (A) (A) (A) (A) (A) (A) (A)
                 (A) (A) (A) (A) (A) (A) (A) (A) (A) (A) (A) (A)
                 (A) (A) (A) (A) (A) (A) (A) (A) (A) (A) (A) (A)
                 (A) (A) (A) (A) (A) (A) (A) (A) (A) (A) (A) (A)
                 (A) (A) (A) (A) (A) (A) (A) (A) (A) (A) (A) (A)
                 (A) (A) (A) (A) (A) (A) (A) (A) (A) (A) (A) (A)
                 (A) (A) (A) (A) (A) (A) (A) (A) (A) (A) (A) (A)
                 (A) (A) (A) (A) (A) (A) (A) (A) (A) (A) (A) (A)
                 (A) (A) (A) (A) (A) (A) (A) (A) (A) (A) (A) (A)
                 (A) (A) (A) (A) (A) (A) (A) (A) (A) (A) (A) (A)
                 (A) (A) (A) (A) (A) (A) (A) (A) (A) (A) (A) (A)
                 (A) (A) (A) (A) (A) (A) (A) (A) (A) (A) (A) (A)
       Virtual   (A) (A) (A) (A) (A) (A) (A) (A) (A) (A) (A) (A)
                 (A) (A) (A) (A) (A) (A) (A) (A) (A) (A) (A) (A)
                 (A) (A) (A) (A) (A) (A) (A) (A) (A) (A) (A) (A)
                 (A) (A) (A) (A) (A) (A) (A) (A) (A) (A) (A) (A)
                 (A) (A) (A) (A) (A) (A) (A) (A) (A) (A) (A) (A)
                 (A) (A) (A) (A) (A) (A) (A) (A) (A) (A) (A) (A)
                 (A) (A) (A) (A) (A) (A) (A) (A) (A) (A) (A) (A)
                 (A) (A) (A) (A) (A) (A) (A) (A) (A) (A) (A) (A)
                 (A) (A) (A) (A) (A) (A) (A) (A) (A) (A) (A) (A)
                 (A) (A) (A) (A) (A) (A) (A) (A) (A) (A) (A) (A)
                 (A) (A) (A) (A) (A) (A) (A) (A) (A) (A) (A) (A)
                 (A) (A) (A) (A) (A) (A) (A) (A) (A) (A) (A) (A)
                 (A) (A) (A) (A) (A) (A) (A) (A) (A) (A) (A) (A)
                 (A) (A) (A) (A) (A) (A) (A) (A) (A) (A) (A) (A)
                 (A) (A) (A) (A) (A) (A) (A) (A) (A) (A) (A) (A)
                 (A) (A) (A) (A) (A) (A) (A) (A) (A) (A) (A) (A)
                 (A) (A) (A) (A) (A) (A) (A) (A) (A) (A) (A) (A)
                 (A) (A) (A) (A) (A) (A) (A) (A) (A) (A) (A) (A)
                 (A) (A) (A) (A) (A) (A) (A) (A) (A) (A) (A) (A)
                 (A) (A) (A) (A) (A) (A) (A) (A) (A) (A) (A) (A)
                 (A) (A) (A) (A) (A) (A) (A) (A) (A) (A) (A) (A)
                 (A) (A) (A) (A) (A) (A) (A) (A) (A) (A) (A) (A)
                 (A) (A) (A) (A) (A) (A) (A) (A) (A) (A) (A) (A)
                 (A) (A) (A) (A) (A) (A) (A) (A) (A) (A) (A) (A)
                 (A) (A) (A) (A) (A) (A) (A) (A) (A) (A) (A) (A)
                 (A) (A) (A) (A) (A) (A) (A) (A) (A) (A) (A) (A)
                 (A) (A) (A) (A) (A) (A) (A) (A) (A) (A) (A) (A)
                 (A) (A) (A) (A) (A) (A) (A) (A) (A) (A) (A) (A)
                 (A) (A) (A) (A) (A) (A) (A) (A) (A) (A) (A) (A)
                 (A) (A) (A) (A) (A) (A) (A) (A) (A) (A) (A) (A)
                 (A) (A) (A) (A) (A) (A) (A) (A) (A) (A) (A) (A)
                 (A) (A) (A) (A) (A) (A) (A) (A) (A) (A) (A) (A)
                 (A) (A) (A) (A) (A) (A) (A) (A) (A) (A) (A) (A)
                 (A) (A) (A) (A) (A) (A) (A) (A) (A) (A) (A) (A)
                 (A) (A) (A) (A) (A) (A) (A) (A) (A) (A) (A) (A)
                 (A) (A) (A) (A) (A) (A) (A) (A) (A) (A) (A) (A)
                 (A) (A) (A) (A) (A) (A) (A) (A) (A) (A) (A) (A)
                 (A) (A) (A) (A) (A) (A) (A) (A) (A) (A) (A) (A)
                 (A) (A) (A) (A) (A) (A) (A) (A) (A) (A) (A) (A)
                 (A) (A) (A) (A) (A) (A) (A) (A) (A) (A) (A) (A)
                 (A) (A) (A) (A) (A) (A) (A) (A) (A) (A) (A) (A)
                 (A) (A) (A) (A) (A) (A) (A) (A) (A) (A) (A) (A)
                 (A) (A) (A) (A) (A) (A) (A) (A) (A) (A) (A) (A)
                 (A) (A) (A) (A) (A) (A) (A) (A) (A) (A) (A) (A)
                 (A) (A) (A) (A) (A) (A) (A) (A) (A) (A) (A) (A)
                 (A) (A) (A) (A) (A) (A) (A) (A) (A) (A) (A) (A)
                 (A) (A) (A) (A) (A) (A) (A) (A) (A) (A) (A) (A)
                 (A) (A) (A) (A) (A) (A) (A) (A) (A) (A) (A) (A)
                 (A) (A) (A) (A) (A) (A) (A) (A) (A) (A) (A) (A)
                 (A) (A) (A) (A) (A) (A) (A) (A) (A) (A) (A) (A)
                 (A) (A) (A) (A) (A) (A) (A) (A) (A) (A) (A) (A)
                 (A) (A) (A) (A) (A) (A) (A) (A) (A) (A) (A) (A)
                 (A) (A) (A) (A) (A) (A) (A) (A) (A) (A) (A) (A)
                 (A) (A) (A) (A) (A) (A) (A) (A) (A) (A) (A) (A)
                 (A) (A) (A) (A) (A) (A) (A) (A) (A) (A) (A) (A)
                 (A) (A) (A) (A) (A) (A) (A) (A) (A) (A) (A) (A)
                 (A) (A) (A) (A) (A) (A) (A) (A) (A) (A) (A) (A)
                 (A) (A) (A) (A) (A) (A) (A) (A) (A) (A) (A) (A)
                 (A) (A) (A) (A) (A) (A) (A) (A) (A) (A) (A) (A)
                 (A) (A) (A) (A) (A) (A) (A) (A) (A) (A) (A) (A)
                 (A) (A) (A) (A) (A) (A) (A) (A) (A) (A) (A) (A)
                 (A) (A) (A) (A) (A) (A) (A) (A) (A) (A) (A) (A)
                 (A) (A) (A) (A) (A) (A) (A) (A) (A) (A) (A) (A)
                 (A) (A) (A) (A) (A) (A) (A) (A) (A) (A) (A) (A)
                 (A) (A) (A) (A) (A) (A) (A) (A) (A) (A) (A) (A)
                 (A) (A) (A) (A) (A) (A) (A) (A) (A) (A) (A) (A)
                 (A) (A) (A) (A) (A) (A) (A) (A) (A) (A) (A) (A)
                 (A) (A) (A) (A) (A) (A) (A) (A) (A) (A) (A) (A)
                 (A) (A) (A) (A) (A) (A) (A) (A) (A) (A) (A) (A)
                 (A) (A) (A) (A) (A) (A) (A) (A) (A) (A) (A) (A)
                 (A) (A) (A) (A) (A) (A) (A) (A) (A) (A) (A) (A)
                 (A) (A) (A) (A) (A) (A) (A) (A) (A) (A) (A) (A)
                 (A) (A) (A) (A) (A) (A) (A) (A) (A) (A) (A) (A)
                 (A) (A) (A) (A) (A) (A) (A) (A) (A) (A) (A) (A)
                 (A) (A) (A) (A) (A) (A) (A) (A) (A) (A) (A) (A)
                 (A) (A) (A) (A) (A) (A) (A) (A) (A) (A) (A) (A)
                 (A) (A) (A) (A) (A) (A) (A) (A) (A) (A) (A) (A)
                 (A) (A) (A) (A) (A) (A) (A) (A) (A) (A) (A) (A)
                 (A) (A) (A) (A) (A) (A) (A) (A) (A) (A) (A) (A)
                 (A) (A) (A) (A) (A) (A) (A) (A) (A) (A) (A) (A)
                 (A) (A) (A) (A) (A) (A) (A) (A) (A) (A) (A) (A)
                 (A) (A) (A) (A) (A) (A) (A) (A) (A) (A) (A) (A)
                 (A) (A) (A) (A) (A) (A) (A) (A) (A) (A) (A) (A)
                 (A) (A) (A) (A) (A) (A) (A) (A) (A) (A) (A) (A)
                 (A) (A) (A) (A) (A) (A) (A) (A) (A) (A) (A) (A)
                 (A) (A) (A) (A) (A) (A) (A) (A) (A) (A) (A) (A)
                 (A) (A) (A) (A) (A) (A) (A) (A) (A) (A) (A) (A)
                 (A) (A) (A) (A) (A) (A) (A) (A) (A) (A) (A) (A)
                 (A) (A) (A) (A) (A) (A) (A) (A) (A) (A) (A) (A)
                 (A) (A) (A) (A) (A) (A) (A) (A) (A) (A) (A) (A)
                 (A) (A) (A) (A) (A) (A) (A) (A) (A) (A) (A) (A)
                 (A) (A) (A) (A) (A) (A) (A) (A) (A) (A) (A) (A)
                 (A) (A) (A) (A) (A) (A) (A) (A) (A) (A) (A) (A)
                 (A) (A) (A) (A) (A) (A) (A) (A) (A) (A) (A) (A)
                 (A) (A) (A) (A) (A) (A) (A) (A) (A) (A) (A) (A)
                 (A) (A) (A) (A) (A) (A) (A) (A) (A) (A) (A) (A)
                 (A) (A) (A) (A) (A) (A) (A) (A) (A) (A) (A) (A)
                 (A) (A) (A) (A) (A) (A) (A) (A) (A) (A) (A) (A)
                 (A) (A) (A) (A) (A) (A) (A) (A) (A) (A) (A) (A)
                 (A) (A) (A) (A) (A) (A) (A) (A) (A) (A) (A) (A)
                 (A) (A) (A) (A) (A) (A) (A) (A) (A) (A) (A) (A)
                 (A) (A) (A) (A) (A) (A) (A) (A) (A) (A) (A) (A)
                 (A) (A) (A) (A) (A) (A) (A) (A) (A) (A) (A) (A)
                 (A) (A) (A) (A) (A) (A) (A) (A) (A) (A) (A) (A)
                 (A) (A) (A) (A) (A) (A) (A) (A) (A) (A) (A) (A)
    20 initial guesses have been made.
 Convergence on wavefunction:    0.001000000000000
 Davidson Disk Diagonalization:  ConvIn= 1.00D-03 SkipCon=T Conv= 1.00D-03.
 Max sub-space:  2000 roots to seek:    20 dimension of matrix:       549360
 Iteration     1 Dimension    20 NMult     0 NNew     20
 CISAX will form    20 AO SS matrices at one time.
 NMat=    20 NSing=    20 JSym2X= 0.
 FoFJK:  IHMeth= 1 ICntrl=       0 DoSepK=T KAlg= 0 I1Cent=           0 FoldK=F
 IRaf=         1 NMat=      40 IRICut=       1 DoRegI=T DoRafI=F ISym2E= 0 IDoP0=3 IntGTp=3.
 FoFCou: FMM=T IPFlag=           0 FMFlag=      100000 FMFlg1=        2001
         NFxFlg=           0 DoJE=F BraDBF=F KetDBF=F FulRan=T
         wScrn=  0.000000 ICntrl=       500 IOpCl=  0 I1Cent=           0 NGrid=           0
         NMat0=   20 NMatS0=     20 NMatT0=    0 NMatD0=   20 NMtDS0=    0 NMtDT0=    0
 Symmetry not used in FoFCou.
 FMM levels:  10  Number of levels for PrismC:   9
 New state      2 was old state      4
 New state      3 was old state      7
 New state      4 was old state      6
 New state      5 was old state      2
 Excitation Energies [eV] at current iteration:
 Root      1 :     2.187794225694992
 Root      2 :     2.491908488771504
 Root      3 :     2.606752516332822
 Root      4 :     2.610029182414861
 Root      5 :     2.657682753188271
 Root      6 :     2.721059721315469
 Root      7 :     2.968942018588584
 Root      8 :     3.289512004270698
 Root      9 :     3.633375313012686
 Root     10 :     3.676972138087217
 Root     11 :     3.743519721305559
 Root     12 :     3.756323216882757
 Root     13 :     4.088777428386602
 Root     14 :     4.259397613508648
 Root     15 :     4.338580017761618
 Root     16 :     4.429719151733730
 Root     17 :     4.447529021071596
 Root     18 :     4.488382251851088
 Root     19 :     4.582948275269508
 Root     20 :     4.731838822580947
 Iteration     2 Dimension    30 NMult    20 NNew     10
 CISAX will form    10 AO SS matrices at one time.
 NMat=    10 NSing=    10 JSym2X= 0.
 New state      1 was old state      5
 Root      1 not converged, maximum delta is    0.355817128138219
 New state      2 was old state      3
 Root      2 not converged, maximum delta is    0.145737002238740
 New state      3 was old state      1
 Root      3 not converged, maximum delta is    0.010496398166398
 Root      4 not converged, maximum delta is    0.267624716836973
 New state      5 was old state      2
 Root      5 not converged, maximum delta is    0.006759920062414
 Excitation Energies [eV] at current iteration:
 Root      1 :     1.778600428012098   Change is   -0.879082325176173
 Root      2 :     2.163797263169659   Change is   -0.442955253163163
 Root      3 :     2.186444371398473   Change is   -0.001349854296519
 Root      4 :     2.243801423562184   Change is   -0.366227758852677
 Root      5 :     2.490259523136718   Change is   -0.001648965634786
 Iteration     3 Dimension    40 NMult    30 NNew     10
 CISAX will form    10 AO SS matrices at one time.
 NMat=    10 NSing=    10 JSym2X= 0.
 Root      1 not converged, maximum delta is    0.054466735255729
 Root      2 not converged, maximum delta is    0.365189336033276
 Root      3 not converged, maximum delta is    0.003863516542355
 Root      4 not converged, maximum delta is    0.390421692925016
 No map to state      5
 Excitation Energies [eV] at current iteration:
 Root      1 :     1.673765468760970   Change is   -0.104834959251127
 Root      2 :     1.766945272566542   Change is   -0.396851990603117
 Root      3 :     2.186423039309587   Change is   -0.000021332088886
 Root      4 :     2.194669350558977   Change is   -0.049132073003207
 Root      5 :     2.209033445394236
 Iteration     4 Dimension    50 NMult    40 NNew     10
 CISAX will form    10 AO SS matrices at one time.
 NMat=    10 NSing=    10 JSym2X= 0.
 Root      1 not converged, maximum delta is    0.013823550376102
 Root      2 not converged, maximum delta is    0.037682587485449
 New state      3 was old state      4
 Root      3 not converged, maximum delta is    0.207243254454525
 New state      4 was old state      3
 Root      4 not converged, maximum delta is    0.036448990660255
 Root      5 not converged, maximum delta is    0.202768125590451
 Excitation Energies [eV] at current iteration:
 Root      1 :     1.657101701231746   Change is   -0.016663767529225
 Root      2 :     1.695962742237518   Change is   -0.070982530329024
 Root      3 :     2.181606664987351   Change is   -0.013062685571626
 Root      4 :     2.186431440381772   Change is    0.000008401072185
 Root      5 :     2.196939036527061   Change is   -0.012094408867175
 Iteration     5 Dimension    60 NMult    50 NNew     10
 CISAX will form    10 AO SS matrices at one time.
 NMat=    10 NSing=    10 JSym2X= 0.
 Root      1 not converged, maximum delta is    0.005344221951408
 Root      2 not converged, maximum delta is    0.010119069027939
 Root      3 not converged, maximum delta is    0.019040141721243
 Root      4 not converged, maximum delta is    0.005860443013650
 Root      5 not converged, maximum delta is    0.018667011433737
 Excitation Energies [eV] at current iteration:
 Root      1 :     1.655325391804426   Change is   -0.001776309427320
 Root      2 :     1.685427952356245   Change is   -0.010534789881272
 Root      3 :     2.179763648149470   Change is   -0.001843016837881
 Root      4 :     2.186429379791854   Change is   -0.000002060589917
 Root      5 :     2.195811222676887   Change is   -0.001127813850174
 Iteration     6 Dimension    70 NMult    60 NNew     10
 CISAX will form    10 AO SS matrices at one time.
 NMat=    10 NSing=    10 JSym2X= 0.
 Root      1 has converged.
 Root      2 not converged, maximum delta is    0.002118494319223
 Root      3 not converged, maximum delta is    0.001778238191172
 Root      4 has converged.
 Root      5 not converged, maximum delta is    0.001782632842174
 Excitation Energies [eV] at current iteration:
 Root      1 :     1.655074163644599   Change is   -0.000251228159827
 Root      2 :     1.684407088263733   Change is   -0.001020864092512
 Root      3 :     2.179537152627814   Change is   -0.000226495521657
 Root      4 :     2.186429129894615   Change is   -0.000000249897240
 Root      5 :     2.195662653251310   Change is   -0.000148569425577
 Iteration     7 Dimension    76 NMult    70 NNew      6
 CISAX will form     6 AO SS matrices at one time.
 NMat=     6 NSing=     6 JSym2X= 0.
 Root      1 has converged.
 Root      2 has converged.
 Root      3 has converged.
 Root      4 has converged.
 Root      5 has converged.
 Excitation Energies [eV] at current iteration:
 Root      1 :     1.655072920287180   Change is   -0.000001243357419
 Root      2 :     1.684278121903016   Change is   -0.000128966360717
 Root      3 :     2.179502591692623   Change is   -0.000034560935191
 Root      4 :     2.186429106631409   Change is   -0.000000023263206
 Root      5 :     2.195642472323414   Change is   -0.000020180927896
 Convergence achieved on expansion vectors.
 ***********************************************************************
 Excited states from <AA,BB:AA,BB> singles matrix:
 ***********************************************************************
 
 1PDM for each excited state written to RWF  633
 Ground to excited state transition densities written to RWF  633
 Ground to excited state transition electric dipole moments (Au):
       state          X           Y           Z        Dip. S.      Osc.
         1         0.3376      1.2591     -1.6681      4.4817      0.1817
         2         0.9507     -2.3488     -2.2513     11.4891      0.4741
         3         0.1620     -1.1055     -0.4327      1.4355      0.0767
         4         0.0052      0.0460     -0.0043      0.0022      0.0001
         5        -0.2506     -0.9612      1.0686      2.1287      0.1145
[...]
 Alpha virt. eigenvalues --    1.83643   1.83894   1.83954   1.84276   1.84289
 Alpha virt. eigenvalues --    1.84657   1.84772   1.84925   1.84971   1.85152
 Alpha virt. eigenvalues --    1.85295   1.85404   1.85456   1.85543   1.85724
 Alpha virt. eigenvalues --    1.86011   1.86242   1.86307   1.86431   1.86614
 Alpha virt. eigenvalues --    1.86786   1.86839   1.86977   1.87117   1.87285
 Alpha virt. eigenvalues --    1.87365   1.87478   1.87718   1.87884   1.87955
 Alpha virt. eigenvalues --    1.88106   1.88307   1.88379   1.88515   1.88630
 Alpha virt. eigenvalues --    1.89008   1.89164   1.89272   1.89486   1.89596
 Alpha virt. eigenvalues --    1.89831   1.89952   1.90076   1.90160   1.90578
 Alpha virt. eigenvalues --    1.90767   1.91121   1.91334   1.91359   1.91710
 Alpha virt. eigenvalues --    1.91976   1.92236   1.92374   1.92779   1.92852
 Alpha virt. eigenvalues --    1.93227   1.93332   1.93563   1.93819   1.94165
 Alpha virt. eigenvalues --    1.94563   1.94586   1.95080   1.95362   1.95523
 Alpha virt. eigenvalues --    1.95743   1.95833   1.96035   1.96281   1.96415
 Alpha virt. eigenvalues --    1.96460   1.96613   1.96771   1.96885   1.97249
 Alpha virt. eigenvalues --    1.97397   1.97690   1.97863   1.97964   1.98180
 Alpha virt. eigenvalues --    1.98339   1.98633   1.98789   1.98987   1.99483
 Alpha virt. eigenvalues --    1.99614   2.00422   2.00565   2.00829   2.01113
 Alpha virt. eigenvalues --    2.01193   2.01439   2.01533   2.01566   2.01786
 Alpha virt. eigenvalues --    2.01998   2.02288   2.02588   2.03052   2.03099
 Alpha virt. eigenvalues --    2.03207   2.03238   2.03479   2.03749   2.03868
 Alpha virt. eigenvalues --    2.03948   2.04402   2.04845   2.05254   2.05369
 Alpha virt. eigenvalues --    2.05896   2.05924   2.06565   2.06617   2.07029
 Alpha virt. eigenvalues --    2.07400   2.07677   2.08474   2.08719   2.08800
 Alpha virt. eigenvalues --    2.09342   2.09416   2.09969   2.10702   2.10993
 Alpha virt. eigenvalues --    2.11267   2.11283   2.11562   2.11728   2.11963
 Alpha virt. eigenvalues --    2.12254   2.12339   2.12641   2.12684   2.12928
 Alpha virt. eigenvalues --    2.13276   2.13357   2.13505   2.14026   2.14466
 Alpha virt. eigenvalues --    2.14599   2.15171   2.15701   2.15715   2.16359
 Alpha virt. eigenvalues --    2.16533   2.16615   2.17061   2.17244   2.17539
 Alpha virt. eigenvalues --    2.17550   2.17868   2.17931   2.18093   2.18286
 Alpha virt. eigenvalues --    2.18587   2.18660   2.19089   2.19446   2.19832
 Alpha virt. eigenvalues --    2.19865   2.20009   2.20382   2.20628   2.21021
 Alpha virt. eigenvalues --    2.21120   2.21386   2.21491   2.21557   2.22168
 Alpha virt. eigenvalues --    2.22176   2.22549   2.23147   2.23246   2.23641
 Alpha virt. eigenvalues --    2.24276   2.24722   2.24918   2.25237   2.26039
 Alpha virt. eigenvalues --    2.26622   2.26827   2.26892   2.27348   2.27597
 Alpha virt. eigenvalues --    2.27952   2.28992   2.29135   2.29530   2.29983
 Alpha virt. eigenvalues --    2.30209   2.30556   2.30752   2.30988   2.31096
 Alpha virt. eigenvalues --    2.31433   2.31632   2.32009   2.32507   2.32919
 Alpha virt. eigenvalues --    2.33272   2.33705   2.33797   2.34032   2.34529
 Alpha virt. eigenvalues --    2.35052   2.35600   2.35659   2.36270   2.36435
 Alpha virt. eigenvalues --    2.36481   2.36654   2.36699   2.37592   2.37951
 Alpha virt. eigenvalues --    2.38157   2.38599   2.38645   2.39417   2.39423
 Alpha virt. eigenvalues --    2.40000   2.40131   2.40277   2.40529   2.41030
 Alpha virt. eigenvalues --    2.41317   2.41621   2.41750   2.41807   2.41992
 Alpha virt. eigenvalues --    2.42499   2.42871   2.43037   2.43087   2.43400
 Alpha virt. eigenvalues --    2.43951   2.44380   2.44560   2.44708   2.45130
 Alpha virt. eigenvalues --    2.45362   2.45587   2.45934   2.46167   2.46291
 Alpha virt. eigenvalues --    2.46581   2.46603   2.46858   2.47091   2.47191
 Alpha virt. eigenvalues --    2.47560   2.47674   2.48166   2.49200   2.49595
 Alpha virt. eigenvalues --    2.49998   2.50150   2.50506   2.50746   2.50900
 Alpha virt. eigenvalues --    2.51633   2.51719   2.51891   2.52192   2.52618
 Alpha virt. eigenvalues --    2.52849   2.53685   2.53764   2.54038   2.54313
 Alpha virt. eigenvalues --    2.54460   2.54629   2.55072   2.55362   2.55960
 Alpha virt. eigenvalues --    2.57715   2.58411   2.58497   2.59378   2.59916
 Alpha virt. eigenvalues --    2.60390   2.60713   2.61499   2.61572   2.62189
 Alpha virt. eigenvalues --    2.62322   2.62757   2.62844   2.63493   2.63756
 Alpha virt. eigenvalues --    2.64151   2.64641   2.64768   2.64913   2.65469
 Alpha virt. eigenvalues --    2.65560   2.66399   2.66657   2.66758   2.67115
 Alpha virt. eigenvalues --    2.67557   2.67754   2.68430   2.68621   2.68808
 Alpha virt. eigenvalues --    2.69108   2.69267   2.69480   2.69826   2.70081
 Alpha virt. eigenvalues --    2.70510   2.70790   2.71555   2.71767   2.72195
 Alpha virt. eigenvalues --    2.72368   2.72503   2.72800   2.72939   2.73204
 Alpha virt. eigenvalues --    2.73233   2.73554   2.73778   2.74305   2.74754
 Alpha virt. eigenvalues --    2.74803   2.75392   2.76458   2.76828   2.76993
 Alpha virt. eigenvalues --    2.77269   2.77368   2.77913   2.78032   2.78391
 Alpha virt. eigenvalues --    2.78542   2.78938   2.78974   2.79541   2.80026
 Alpha virt. eigenvalues --    2.80322   2.80470   2.80874   2.81026   2.81404
 Alpha virt. eigenvalues --    2.81714   2.82180   2.82300   2.82663   2.83450
 Alpha virt. eigenvalues --    2.83639   2.84051   2.84193   2.84394   2.84734
 Alpha virt. eigenvalues --    2.84789   2.85106   2.85527   2.85918   2.86710
 Alpha virt. eigenvalues --    2.86912   2.87260   2.87502   2.88019   2.88343
 Alpha virt. eigenvalues --    2.88437   2.88764   2.88964   2.89117   2.90298
 Alpha virt. eigenvalues --    2.91032   2.91127   2.91527   2.92942   2.93713
 Alpha virt. eigenvalues --    2.94058   2.94182   2.94454   2.94787   2.95109
 Alpha virt. eigenvalues --    2.95729   2.95994   2.96245   2.96311   2.96725
 Alpha virt. eigenvalues --    2.96813   2.97246   2.97503   2.98035   2.98205
 Alpha virt. eigenvalues --    2.98230   2.98420   2.98723   2.98817   2.98936
 Alpha virt. eigenvalues --    2.99149   2.99347   2.99623   2.99653   3.00006
 Alpha virt. eigenvalues --    3.00122   3.00240   3.00358   3.00572   3.01474
 Alpha virt. eigenvalues --    3.01820   3.01870   3.02351   3.02360   3.02675
 Alpha virt. eigenvalues --    3.02752   3.03069   3.03209   3.03878   3.04116
 Alpha virt. eigenvalues --    3.04281   3.04432   3.04515   3.04717   3.04870
 Alpha virt. eigenvalues --    3.05167   3.05235   3.05659   3.05947   3.06470
 Alpha virt. eigenvalues --    3.06583   3.07574   3.08059   3.08306   3.09170
 Alpha virt. eigenvalues --    3.09503   3.09559   3.10258   3.11008   3.11234
 Alpha virt. eigenvalues --    3.11402   3.11653   3.11781   3.12089   3.12204
 Alpha virt. eigenvalues --    3.12945   3.13109   3.13531   3.13698   3.13890
 Alpha virt. eigenvalues --    3.14124   3.14792   3.15907   3.16160   3.17069
 Alpha virt. eigenvalues --    3.17778   3.17965   3.18024   3.18991   3.19232
 Alpha virt. eigenvalues --    3.21789   3.22882   3.23753   3.24358   3.24694
 Alpha virt. eigenvalues --    3.25435   3.26328   3.26926   3.27422   3.27690
 Alpha virt. eigenvalues --    3.28493   3.29498   3.31322   3.31653   3.33251
 Alpha virt. eigenvalues --    3.33472   3.40447   3.40545   3.42671   3.43007
 Alpha virt. eigenvalues --    3.48422   3.48944   3.49856   3.50584   3.51157
 Alpha virt. eigenvalues --    3.51303   3.56383   3.57237   3.58966   3.59575
 Alpha virt. eigenvalues --    3.62667   3.62757   3.66056   3.66229   3.66953
 Alpha virt. eigenvalues --    3.67822   3.73310   3.74273   3.76395   3.76921
          Condensed to atoms (all electrons):
 Mulliken charges:
               1
     1  Mg   0.839536
     2  C   -0.005077
     3  C   -0.093824
     4  C   -0.045413
     5  C   -0.062809
     6  N   -0.256964
     7  C   -0.052845
     8  C   -0.014206
     9  C   -0.087158
    10  C    0.046472
    11  C    0.104655
    12  C    0.053508
    13  C   -0.071322
    14  H    0.032422
    15  N   -0.433363
    16  C    0.169257
    17  C   -0.176165
    18  C   -0.003414
    19  C    0.149073
    20  C    0.109812
    21  C    0.012090
    22  O   -0.249770
    23  C    0.061742
    24  N   -0.341122
    25  C    0.041862
    26  C   -0.028366
    27  C   -0.023959
    28  C    0.074743
    29  C    0.076056
    30  C    0.034689
    31  C   -0.006330
    32  N   -0.310328
    33  C    0.079995
    34  C   -0.169968
    35  C    0.007431
    36  C    0.082712
    37  C    0.127464
    38  C    0.044429
    39  O   -0.189447
    40  C   -0.005497
    41  C    0.217887
    42  O   -0.258137
    43  O   -0.302413
    44  C    0.157775
    45  H   -0.017190
    46  H   -0.016481
    47  H   -0.040170
    48  H    0.000730
    49  H   -0.003814
    50  H    0.025507
    51  H    0.017154
    52  H    0.017152
    53  H    0.012343
    54  H    0.040288
    55  H    0.019114
    56  H    0.019173
    57  H    0.005988
    58  H    0.027188
    59  H    0.041737
    60  H    0.037786
    61  H    0.035618
    62  H    0.033345
    63  H    0.016641
    64  H    0.009951
    65  H    0.023523
    66  H    0.012434
    67  H    0.005345
    68  H    0.006654
    69  H    0.006359
    70  H    0.007466
    71  H    0.021874
    72  H    0.029569
    73  H    0.046962
    74  H    0.010923
    75  H    0.046254
    76  H    0.036421
    77  H    0.044891
    78  H    0.047618
    79  H    0.050175
    80  Mg   0.835899
    81  C   -0.017132
    82  C   -0.087621
    83  C   -0.047266
    84  C   -0.065497
    85  N   -0.255747
    86  C   -0.047616
    87  C   -0.015355
    88  C   -0.091216
    89  C    0.046293
    90  C    0.116328
    91  C    0.062332
    92  C   -0.077022
    93  H    0.031445
    94  N   -0.423534
    95  C    0.163117
    96  C   -0.175081
    97  C   -0.009349
    98  C    0.152545
    99  C    0.099936
   100  C    0.014397
   101  O   -0.254839
   102  C    0.061633
   103  N   -0.350527
   104  C    0.037738
   105  C   -0.019682
   106  C   -0.034991
   107  C    0.088891
   108  C    0.072373
   109  C    0.035004
   110  C   -0.007489
   111  N   -0.324024
   112  C    0.078286
   113  C   -0.164278
   114  C    0.001479
   115  C    0.096191
   116  C    0.131795
   117  C    0.040999
   118  O   -0.189594
   119  C    0.001710
   120  C    0.211289
   121  O   -0.251732
   122  O   -0.304860
   123  C    0.152466
   124  H   -0.015896
   125  H   -0.017737
   126  H   -0.041460
   127  H    0.001341
   128  H   -0.007004
   129  H    0.018993
   130  H    0.010522
   131  H    0.034282
   132  H    0.012332
   133  H    0.035623
   134  H    0.023802
   135  H    0.018957
   136  H    0.009757
   137  H    0.023550
   138  H    0.038746
   139  H    0.036900
   140  H    0.035056
   141  H    0.034167
   142  H    0.013431
   143  H    0.013743
   144  H    0.022532
   145  H    0.009517
   146  H    0.009619
   147  H    0.005525
   148  H    0.003427
   149  H    0.010250
   150  H    0.017220
   151  H    0.030558
   152  H    0.045207
   153  H    0.008202
   154  H    0.044836
   155  H    0.035983
   156  H    0.043007
   157  H    0.050509
   158  H    0.052578
 Sum of Mulliken charges =  -0.00000
 Mulliken charges with hydrogens summed into heavy atoms:
               1
     1  Mg   0.839536
     2  C   -0.005077
     3  C   -0.111014
     4  C   -0.061895
     5  C   -0.102979
     6  N   -0.256964
     7  C   -0.052845
     8  C   -0.013476
     9  C   -0.090973
    10  C    0.046472
    11  C    0.164468
    12  C    0.106139
    13  C   -0.000613
    15  N   -0.433363
    16  C    0.169257
    17  C   -0.176165
    18  C   -0.003414
    19  C    0.149073
    20  C    0.184725
    21  C    0.012090
    22  O   -0.249770
    23  C    0.168490
    24  N   -0.341122
    25  C    0.041862
    26  C   -0.011725
    27  C   -0.014008
    28  C    0.074743
    29  C    0.117358
    30  C    0.047702
    31  C    0.052580
    32  N   -0.310328
    33  C    0.079995
    34  C   -0.169968
    35  C    0.007431
    36  C    0.082712
    37  C    0.231603
    38  C    0.044429
    39  O   -0.189447
    40  C    0.030924
    41  C    0.217887
    42  O   -0.258137
    43  O   -0.302413
    44  C    0.300458
    80  Mg   0.835899
    81  C   -0.017132
    82  C   -0.103518
    83  C   -0.065003
    84  C   -0.106957
    85  N   -0.255747
    86  C   -0.047616
    87  C   -0.014015
    88  C   -0.098220
    89  C    0.046293
    90  C    0.180126
    91  C    0.110287
    92  C   -0.002818
    94  N   -0.423534
    95  C    0.163117
    96  C   -0.175081
    97  C   -0.009349
    98  C    0.152545
    99  C    0.171988
   100  C    0.014397
   101  O   -0.254839
   102  C    0.167755
   103  N   -0.350527
   104  C    0.037738
   105  C   -0.006251
   106  C   -0.021248
   107  C    0.088891
   108  C    0.114042
   109  C    0.043955
   110  C    0.050539
   111  N   -0.324024
   112  C    0.078286
   113  C   -0.164278
   114  C    0.001479
   115  C    0.096191
   116  C    0.230040
   117  C    0.040999
   118  O   -0.189594
   119  C    0.037693
   120  C    0.211289
   121  O   -0.251732
   122  O   -0.304860
   123  C    0.298561
 Electronic spatial extent (au):  <R**2>=          87698.8925
 Charge=             -0.0000 electrons
 Dipole moment (field-independent basis, Debye):
    X=             -6.3383    Y=              1.1587    Z=              5.0846  Tot=              8.2079
 Quadrupole moment (field-independent basis, Debye-Ang):
   XX=           -517.4173   YY=           -520.3639   ZZ=           -481.4618
   XY=             -7.8501   XZ=             -3.3361   YZ=            -23.8696
 Traceless Quadrupole moment (field-independent basis, Debye-Ang):
   XX=            -11.0030   YY=            -13.9496   ZZ=             24.9526
   XY=             -7.8501   XZ=             -3.3361   YZ=            -23.8696
 Octapole moment (field-independent basis, Debye-Ang**2):
  XXX=           -375.6794  YYY=            -53.7943  ZZZ=             92.3845  XYY=            184.8271
  XXY=             60.3677  XXZ=            214.6280  XZZ=           -174.2639  YZZ=           -146.8929
  YYZ=             55.0109  XYZ=           -136.9173
 Hexadecapole moment (field-independent basis, Debye-Ang**3):
 XXXX=         -53995.6170 YYYY=         -37354.4549 ZZZZ=         -27860.5587 XXXY=           -119.5807
 XXXZ=           -224.3974 YYYX=          -1306.6718 YYYZ=           -211.5909 ZZZX=            682.1302
 ZZZY=           -863.6546 XXYY=         -14280.6698 XXZZ=         -13753.0311 YYZZ=         -11249.7011
 XXYZ=           -157.6172 YYXZ=          -1244.3015 ZZXY=            245.9420
 N-N= 1.593903126862D+04 E-N=-4.135931060858D+04  KE= 4.028792033349D+03
 Leave Link  601 at Fri Sep  3 17:49:38 2021, MaxMem= 23488102400 cpu:              18.1 elap:               0.9
 (Enter /sw/apps/gaussian-16.0/g16/l9999.exe)
 1\1\GINC-BP1-COMPUTE00108\SP\RCAM-B3LYP TD-FC\def2SVP\C68H72Mg2N8O8\OF
 15641\03-Sep-2021\0\\#p cam-b3lyp/Def2SVP td=(nstates=5)\\TDDFT excite
 d states in gaussian\\0,1\Mg,0,0.,0.,0.\C,0,-0.217,-2.218,2.801\C,0,-1
 .255,2.442,2.026\C,0,-0.245,1.85,-2.564\C,0,0.146,-2.824,-2.037\N,0,-0
 .617,-0.009,2.126\C,0,-0.594,-0.908,3.105\C,0,-0.936,-0.309,4.502\C,0,
 -1.773,0.964,4.032\C,0,-1.155,1.168,2.66\C,0,-3.263,0.685,3.863\C,0,0.
 345,0.11,5.299\C,0,0.124,0.397,6.787\H,0,1.168,0.033,7.733\N,0,-0.185,
 1.961,-0.152\C,0,-0.703,2.8,0.777\C,0,-0.62,4.156,0.193\C,0,-0.187,4.0
 15,-1.225\C,0,-0.214,2.583,-1.38\C,0,-0.887,5.406,0.974\C,0,0.181,5.01
 3,-2.277\O,0,0.303,4.69,-3.508\C,0,0.31,6.414,-1.837\N,0,-0.265,-0.413
 ,-2.029\C,0,-0.279,0.569,-2.937\C,0,-0.196,0.024,-4.332\C,0,0.124,-1.5
 33,-4.18\C,0,0.086,-1.632,-2.635\C,0,-1.451,0.205,-5.197\C,0,1.373,-2.
 07,-4.923\C,0,2.626,-1.49,-4.306\N,0,0.15,-2.144,0.303\C,0,0.173,-3.13
 6,-0.688\C,0,0.173,-4.438,0.004\C,0,0.133,-4.111,1.358\C,0,0.083,-2.69
 5,1.502\C,0,0.149,-5.715,-0.623\C,0,0.096,-4.629,2.716\O,0,0.208,-5.74
 7,3.221\C,0,-0.255,-3.428,3.701\C,0,0.717,-3.482,4.848\O,0,1.931,-3.25
 5,4.669\O,0,0.038,-3.556,6.003\C,0,0.943,-3.583,7.183\H,0,-1.859,3.22,
 2.497\H,0,-0.218,2.453,-3.474\H,0,0.276,-3.747,-2.605\H,0,-1.554,-0.94
 9,5.132\H,0,-1.585,1.831,4.665\H,0,-3.484,-0.377,3.969\H,0,-3.511,1.02
 7,2.858\H,0,-3.852,1.301,4.543\H,0,0.669,1.096,4.966\H,0,1.13,-0.639,5
 .189\H,0,-0.844,0.026,7.125\H,0,0.062,1.477,6.921\H,0,-1.344,5.186,1.9
 38\H,0,-1.651,5.963,0.432\H,0,0.007,6.02,1.084\H,0,-0.635,6.744,-1.405
 \H,0,0.665,6.97,-2.704\H,0,1.048,6.466,-1.036\H,0,0.608,0.501,-4.891\H
 ,0,-0.692,-2.156,-4.547\H,0,-1.267,0.74,-6.129\H,0,-2.204,0.714,-4.596
 \H,0,-1.967,-0.72,-5.453\H,0,1.356,-1.759,-5.967\H,0,1.452,-3.157,-4.9
 02\H,0,2.714,-0.522,-4.798\H,0,3.487,-2.121,-4.529\H,0,2.495,-1.303,-3
 .24\H,0,0.867,-6.333,-0.084\H,0,0.404,-5.642,-1.68\H,0,-0.891,-5.999,-
 0.463\H,0,-1.283,-3.581,4.028\H,0,0.698,-4.478,7.755\H,0,0.833,-2.619,
 7.68\H,0,2.,-3.754,6.976\Mg,0,7.8902,0.70628,0.60596\C,0,8.05976,-2.78
 05,-0.2263\C,0,6.85594,-0.23943,3.7157\C,0,7.29889,3.76059,1.22963\C,0
 ,7.82048,1.37662,-2.81333\N,0,7.54179,-1.28294,1.50808\C,0,7.6986,-2.5
 3817,1.11544\C,0,7.53285,-3.59068,2.2443\C,0,6.61461,-2.73047,3.24217\
 C,0,7.05105,-1.3269,2.8272\C,0,5.12743,-2.87037,2.96278\C,0,8.90119,-3
 .97414,2.90961\C,0,8.85639,-5.21599,3.80266\H,0,10.02234,-6.09472,3.83
 188\N,0,7.65798,1.64115,2.34108\C,0,7.25267,1.10007,3.50908\C,0,7.2251
 ,2.20729,4.4773\C,0,7.48838,3.47646,3.74613\C,0,7.47097,3.00064,2.3774
 2\C,0,7.0459,1.99406,5.95238\C,0,7.70554,4.88741,4.20249\O,0,7.68014,5
 .87189,3.38213\C,0,7.85581,5.09229,5.65057\N,0,7.38836,2.32088,-0.6038
 3\C,0,7.23839,3.55259,-0.08581\C,0,7.15233,4.59547,-1.17456\C,0,7.5198
 5,3.83195,-2.53086\C,0,7.67448,2.39744,-1.9798\C,0,5.79684,5.28458,-1.
 33001\C,0,8.67593,4.42557,-3.38161\C,0,9.98764,4.2774,-2.64482\N,0,8.1
 1605,-0.44339,-1.20934\C,0,8.02546,0.03103,-2.53629\C,0,8.13412,-1.142
 78,-3.42669\C,0,8.25828,-2.22987,-2.54845\C,0,8.20877,-1.76848,-1.2052
 6\C,0,8.06353,-1.11803,-4.84814\C,0,8.40929,-3.66396,-2.45213\O,0,8.59
 476,-4.57406,-3.25902\C,0,8.16046,-4.09811,-0.94349\C,0,9.26818,-5.032
 41,-0.5403\O,0,10.44183,-4.62745,-0.46841\O,0,8.73332,-6.18519,-0.0982
 7\C,0,9.79235,-7.1403,0.32369\H,0,6.30973,-0.4181,4.64232\H,0,7.20204,
 4.83729,1.38715\H,0,7.90597,1.51262,-3.89354\H,0,7.01499,-4.49544,1.94
 934\H,0,6.87504,-2.91941,4.28036\H,0,4.93811,-3.43425,2.06148\H,0,4.75
 049,-1.86084,2.86366\H,0,4.61919,-3.29787,3.83184\H,0,9.16108,-3.21408
 ,3.65761\H,0,9.66652,-4.09045,2.16707\H,0,7.93953,-5.79887,3.65244\H,0
 ,8.80038,-4.89215,4.84478\H,0,6.71009,0.97339,6.1734\H,0,6.21107,2.629
 05,6.26816\H,0,7.9335,2.26509,6.52803\H,0,6.96922,4.72408,6.16131\H,0,
 8.09132,6.15126,5.773\H,0,8.69729,4.4861,6.00421\H,0,7.87355,5.38661,-
 1.01014\H,0,6.67044,3.81041,-3.22934\H,0,5.85388,6.38565,-1.23803\H,0,
 5.11953,4.87592,-0.59192\H,0,5.27622,5.07445,-2.26275\H,0,8.52379,5.49
 719,-3.53206\H,0,8.76677,3.97228,-4.36307\H,0,9.99122,5.13975,-1.97145
 \H,0,10.82393,4.31591,-3.33993\H,0,9.9903,3.37416,-2.02369\H,0,8.84587
 ,-1.77179,-5.21014\H,0,8.17847,-0.1074,-5.23438\H,0,7.05152,-1.50284,-
 4.99988\H,0,7.18251,-4.57886,-0.89799\H,0,9.63266,-8.06421,-0.24073\H,
 0,9.71589,-7.2035,1.42547\H,0,10.81577,-6.90376,0.05702\\Version=ES64L
 -G16RevA.03\State=1-A\HF=-4069.8152323\RMSD=9.917e-09\PG=C01 [X(C68H72
 Mg2N8O8)]\\@


 I am not a vegetarian because I love animals;
 I am a vegetarian because I hate plants.
                               -- A. Whitney Brown
 Job cpu time:       0 days 15 hours 54 minutes 13.4 seconds.
 Elapsed time:       0 days  0 hours 40 minutes 25.0 seconds.
 File lengths (MBytes):  RWF=  13225 Int=      0 D2E=      0 Chk=    574 Scr=      1
 Normal termination of Gaussian 16 at Fri Sep  3 17:49:39 2021.
