 Entering Gaussian System, Link 0=g16
 Initial command:
 /sw/apps/gaussian-16.0/g16/l1.exe "/tmp/Gau-50861.inp" -scrdir="/tmp/"
 Entering Link 1 = /sw/apps/gaussian-16.0/g16/l1.exe PID=     50862.
  
 Copyright (c) 1988,1990,1992,1993,1995,1998,2003,2009,2016,
            Gaussian, Inc.  All Rights Reserved.
  
 This is part of the Gaussian(R) 16 program.  It is based on
 the Gaussian(R) 09 system (copyright 2009, Gaussian, Inc.),
 the Gaussian(R) 03 system (copyright 2003, Gaussian, Inc.),
 the Gaussian(R) 98 system (copyright 1998, Gaussian, Inc.),
 the Gaussian(R) 94 system (copyright 1995, Gaussian, Inc.),
 the Gaussian 92(TM) system (copyright 1992, Gaussian, Inc.),
 the Gaussian 90(TM) system (copyright 1990, Gaussian, Inc.),
 the Gaussian 88(TM) system (copyright 1988, Gaussian, Inc.),
 the Gaussian 86(TM) system (copyright 1986, Carnegie Mellon
 University), and the Gaussian 82(TM) system (copyright 1983,
 Carnegie Mellon University). Gaussian is a federally registered
 trademark of Gaussian, Inc.
  
 This software contains proprietary and confidential information,
 including trade secrets, belonging to Gaussian, Inc.
  
 This software is provided under written license and may be
 used, copied, transmitted, or stored only in accord with that
 written license.
  
 The following legend is applicable only to US Government
 contracts under FAR:
  
                    RESTRICTED RIGHTS LEGEND
  
 Use, reproduction and disclosure by the US Government is
 subject to restrictions as set forth in subparagraphs (a)
 and (c) of the Commercial Computer Software - Restricted
 Rights clause in FAR 52.227-19.
  
 Gaussian, Inc.
 340 Quinnipiac St., Bldg. 40, Wallingford CT 06492
  
  
 ---------------------------------------------------------------
 Warning -- This program may not be used in any manner that
 competes with the business of Gaussian, Inc. or will provide
 assistance to any competitor of Gaussian, Inc.  The licensee
 of this program is prohibited from giving any competitor of
 Gaussian, Inc. access to this program.  By using this program,
 the user acknowledges that Gaussian, Inc. is engaged in the
 business of creating and licensing software in the field of
 computational chemistry and represents and warrants to the
 licensee that it is not a competitor of Gaussian, Inc. and that
 it will not use this program in any manner prohibited above.
 ---------------------------------------------------------------
  

 Cite this work as:
 Gaussian 16, Revision A.03,
 M. J. Frisch, G. W. Trucks, H. B. Schlegel, G. E. Scuseria, 
 M. A. Robb, J. R. Cheeseman, G. Scalmani, V. Barone, 
 G. A. Petersson, H. Nakatsuji, X. Li, M. Caricato, A. V. Marenich, 
 J. Bloino, B. G. Janesko, R. Gomperts, B. Mennucci, H. P. Hratchian, 
 J. V. Ortiz, A. F. Izmaylov, J. L. Sonnenberg, D. Williams-Young, 
 F. Ding, F. Lipparini, F. Egidi, J. Goings, B. Peng, A. Petrone, 
 T. Henderson, D. Ranasinghe, V. G. Zakrzewski, J. Gao, N. Rega, 
 G. Zheng, W. Liang, M. Hada, M. Ehara, K. Toyota, R. Fukuda, 
 J. Hasegawa, M. Ishida, T. Nakajima, Y. Honda, O. Kitao, H. Nakai, 
 T. Vreven, K. Throssell, J. A. Montgomery, Jr., J. E. Peralta, 
 F. Ogliaro, M. J. Bearpark, J. J. Heyd, E. N. Brothers, K. N. Kudin, 
 V. N. Staroverov, T. A. Keith, R. Kobayashi, J. Normand, 
 K. Raghavachari, A. P. Rendell, J. C. Burant, S. S. Iyengar, 
 J. Tomasi, M. Cossi, J. M. Millam, M. Klene, C. Adamo, R. Cammi, 
 J. W. Ochterski, R. L. Martin, K. Morokuma, O. Farkas, 
 J. B. Foresman, and D. J. Fox, Gaussian, Inc., Wallingford CT, 2016.
 
 ******************************************
 Gaussian 16:  ES64L-G16RevA.03 25-Dec-2016
                11-Sep-2021 
 ******************************************
 %nproc=24
 Will use up to   24 processors via shared memory.
 %mem=175gb
 -----------------------------------
 #p cam-b3lyp/Def2SVP td=(nstates=5)
 -----------------------------------
 1/38=1,172=1/1;
 2/12=2,17=6,18=5,40=1/2;
 3/5=43,7=101,11=9,25=1,30=1,74=-40/1,2,3,8;
 4//1;
 5/5=2,38=5/2;
 8/6=1,10=1,108=5/1;
 9/41=5,42=1,70=2/14;
 6/7=2,8=2,9=2,10=2/1;
 99/5=1,9=1/99;
 Leave Link    1 at Sat Sep 11 15:57:16 2021, MaxMem= 23488102400 cpu:               0.9 elap:               0.0
 (Enter /sw/apps/gaussian-16.0/g16/l101.exe)
 --------------------------------
 TDDFT excited states in gaussian
 --------------------------------
 Symbolic Z-matrix:
 Charge =  0 Multiplicity = 1
 Mg                    0.        0.        0. 
 C                    -0.217    -2.218     2.801 
 C                    -1.255     2.442     2.026 
 C                    -0.245     1.85     -2.564 
 C                     0.146    -2.824    -2.037 
 N                    -0.617    -0.009     2.126 
 C                    -0.594    -0.908     3.105 
 C                    -0.936    -0.309     4.502 
 C                    -1.773     0.964     4.032 
 C                    -1.155     1.168     2.66 
 C                    -3.263     0.685     3.863 
 C                     0.345     0.11      5.299 
 C                     0.124     0.397     6.787 
 H                     1.168     0.033     7.733 
 N                    -0.185     1.961    -0.152 
 C                    -0.703     2.8       0.777 
 C                    -0.62      4.156     0.193 
 C                    -0.187     4.015    -1.225 
 C                    -0.214     2.583    -1.38 
 C                    -0.887     5.406     0.974 
 C                     0.181     5.013    -2.277 
 O                     0.303     4.69     -3.508 
 C                     0.31      6.414    -1.837 
 N                    -0.265    -0.413    -2.029 
 C                    -0.279     0.569    -2.937 
 C                    -0.196     0.024    -4.332 
 C                     0.124    -1.533    -4.18 
 C                     0.086    -1.632    -2.635 
 C                    -1.451     0.205    -5.197 
 C                     1.373    -2.07     -4.923 
 C                     2.626    -1.49     -4.306 
 N                     0.15     -2.144     0.303 
 C                     0.173    -3.136    -0.688 
 C                     0.173    -4.438     0.004 
 C                     0.133    -4.111     1.358 
 C                     0.083    -2.695     1.502 
 C                     0.149    -5.715    -0.623 
 C                     0.096    -4.629     2.716 
 O                     0.208    -5.747     3.221 
 C                    -0.255    -3.428     3.701 
 C                     0.717    -3.482     4.848 
 O                     1.931    -3.255     4.669 
 O                     0.038    -3.556     6.003 
 C                     0.943    -3.583     7.183 
 H                    -1.859     3.22      2.497 
 H                    -0.218     2.453    -3.474 
 H                     0.276    -3.747    -2.605 
 H                    -1.554    -0.949     5.132 
 H                    -1.585     1.831     4.665 
 H                    -3.484    -0.377     3.969 
 H                    -3.511     1.027     2.858 
 H                    -3.852     1.301     4.543 
 H                     0.669     1.096     4.966 
 H                     1.13     -0.639     5.189 
 H                    -0.844     0.026     7.125 
 H                     0.062     1.477     6.921 
 H                    -1.344     5.186     1.938 
 H                    -1.651     5.963     0.432 
 H                     0.007     6.02      1.084 
 H                    -0.635     6.744    -1.405 
 H                     0.665     6.97     -2.704 
 H                     1.048     6.466    -1.036 
 H                     0.608     0.501    -4.891 
 H                    -0.692    -2.156    -4.547 
 H                    -1.267     0.74     -6.129 
 H                    -2.204     0.714    -4.596 
 H                    -1.967    -0.72     -5.453 
 H                     1.356    -1.759    -5.967 
 H                     1.452    -3.157    -4.902 
 H                     2.714    -0.522    -4.798 
 H                     3.487    -2.121    -4.529 
 H                     2.495    -1.303    -3.24 
 H                     0.867    -6.333    -0.084 
 H                     0.404    -5.642    -1.68 
 H                    -0.891    -5.999    -0.463 
 H                    -1.283    -3.581     4.028 
 H                     0.698    -4.478     7.755 
 H                     0.833    -2.619     7.68 
 H                     2.       -3.754     6.976 
 Mg                    13.14546   1.18073   1.00582 
 C                     13.27255  -2.40222   0.84654 
 C                     12.04803   0.84994   4.21842 
 C                     12.59309   4.30507   1.03379 
 C                     13.13963   1.19685  -2.47921 
 N                     12.7515  -0.59876   2.25901 
 C                     12.89444  -1.90731   2.11206 
 C                     12.69445  -2.72654   3.41529 
 C                     11.77456  -1.68244   4.21688 
 C                     12.23965  -0.38762   3.55371 
 C                     10.28988  -1.85353   3.94161 
 C                     14.046   -2.99534   4.16567 
 C                     13.96759  -4.0464    5.27512 
 H                     15.11884  -4.91867   5.49017 
 N                     12.90114   2.42811   2.52993 
 C                     12.46914   2.12153   3.77116 
 C                     12.44409   3.39136   4.51351 
 C                     12.73886   4.49692   3.56191 
 C                     12.73519   3.77244   2.30684 
 C                     12.2386   3.46164   5.99886 
 C                     12.97127   5.96565   3.74902 
 O                     12.97427   6.77852   2.75802 
 C                     13.10221   6.4373    5.13534 
 N                     12.68822   2.54521  -0.49467 
 C                     12.54979   3.85416  -0.22005 
 C                     12.49726   4.67468  -1.4867 
 C                     12.87367   3.6651   -2.6685 
 C                     12.99691   2.35799  -1.85507 
 C                     11.15547   5.33938  -1.79356 
 C                     14.05214   4.07343  -3.59433 
 C                     15.3497   4.04986  -2.81898 
 N                     13.38125  -0.29261  -0.55678 
 C                     13.31887  -0.07511  -1.95066 
 C                     13.42273  -1.39671  -2.60259 
 C                     13.51592  -2.30072  -1.53368 
 C                     13.45284  -1.59435  -0.30219 
 C                     13.37467  -1.63885  -4.00444 
 C                     13.64261  -3.6929   -1.16697 
 O                     13.82615  -4.74078  -1.78502 
 C                     13.36347  -3.83238   0.39156 
 C                     14.4498  -4.68813   0.98324 
 O                     15.62847  -4.29178   0.99923 
 O                     13.88988  -5.73034   1.62408 
 C                     14.92691  -6.60238   2.23721 
 H                     11.48469   0.85567   5.15197 
 H                     12.51092   5.39333   0.98447 
 H                     13.24408   1.12617  -3.564 
 H                     12.16694  -3.664     3.28611 
 H                     12.01577  -1.67605   5.27666 
 H                     10.10569  -2.57442   3.15896 
 H                     9.93061  -0.87597   3.64777 
 H                     9.76144  -2.10348   4.86606 
 H                     14.30626  -2.11152   4.76222 
 H                     14.82086  -3.25892   3.47231 
 H                     13.04404  -4.63547   5.22033 
 H                     13.90051  -3.53167   6.23667 
 H                     11.88321   2.50509   6.40149 
 H                     11.40914   4.15521   6.17444 
 H                     13.12132   3.82483   6.52949 
 H                     12.20204   6.18299   5.68986 
 H                     13.35257   7.49733   5.06097 
 H                     13.92834   5.89782   5.61186 
 H                     13.22831   5.47342  -1.46065 
 H                     12.035    3.52335  -3.3659 
 H                     11.22855   6.43729  -1.90901 
 H                     10.46035   5.08544  -1.00435 
 H                     10.64616   4.96419  -2.67958 
 H                     13.9194   5.09947  -3.94614 
 H                     14.15103   3.44252  -4.47135 
 H                     15.3565   5.02335  -2.31962 
 H                     16.19721   3.94636  -3.49354 
 H                     15.32835   3.27959  -2.0393 
 H                     14.15207  -2.35888  -4.22285 
 H                     13.51165  -0.72044  -4.57147 
 H                     12.35917  -2.03248  -4.09968 
 H                     12.37742  -4.28355   0.50867 
 H                     14.76138  -7.61386   1.85355 
 H                     14.83231  -6.45627   3.32966 
 H                     15.95799  -6.43321   1.9496 
 
 ITRead=  0  0  0  0  0  0  0  0  0  0  0  0  0  0  0  0  0  0  0  0
 ITRead=  0  0  0  0  0  0  0  0  0  0  0  0  0  0  0  0  0  0  0  0
 ITRead=  0  0  0  0  0  0  0  0  0  0  0  0  0  0  0  0  0  0  0  0
 ITRead=  0  0  0  0  0  0  0  0  0  0  0  0  0  0  0  0  0  0  0  0
 ITRead=  0  0  0  0  0  0  0  0  0  0  0  0  0  0  0  0  0  0  0  0
 ITRead=  0  0  0  0  0  0  0  0  0  0  0  0  0  0  0  0  0  0  0  0
 ITRead=  0  0  0  0  0  0  0  0  0  0  0  0  0  0  0  0  0  0  0  0
 ITRead=  0  0  0  0  0  0  0  0  0  0  0  0  0  0  0  0  0  0
 MicOpt= -1 -1 -1 -1 -1 -1 -1 -1 -1 -1 -1 -1 -1 -1 -1 -1 -1 -1 -1 -1
 MicOpt= -1 -1 -1 -1 -1 -1 -1 -1 -1 -1 -1 -1 -1 -1 -1 -1 -1 -1 -1 -1
 MicOpt= -1 -1 -1 -1 -1 -1 -1 -1 -1 -1 -1 -1 -1 -1 -1 -1 -1 -1 -1 -1
 MicOpt= -1 -1 -1 -1 -1 -1 -1 -1 -1 -1 -1 -1 -1 -1 -1 -1 -1 -1 -1 -1
 MicOpt= -1 -1 -1 -1 -1 -1 -1 -1 -1 -1 -1 -1 -1 -1 -1 -1 -1 -1 -1 -1
 MicOpt= -1 -1 -1 -1 -1 -1 -1 -1 -1 -1 -1 -1 -1 -1 -1 -1 -1 -1 -1 -1
 MicOpt= -1 -1 -1 -1 -1 -1 -1 -1 -1 -1 -1 -1 -1 -1 -1 -1 -1 -1 -1 -1
 MicOpt= -1 -1 -1 -1 -1 -1 -1 -1 -1 -1 -1 -1 -1 -1 -1 -1 -1 -1
 NAtoms=    158 NQM=      158 NQMF=       0 NMMI=      0 NMMIF=      0
                NMic=       0 NMicF=      0.
                    Isotopes and Nuclear Properties:
 (Nuclear quadrupole moments (NQMom) in fm**2, nuclear magnetic moments (NMagM)
  in nuclear magnetons)

  Atom         1           2           3           4           5           6           7           8           9          10
 IAtWgt=          24          12          12          12          12          14          12          12          12          12
 AtmWgt=  23.9850450  12.0000000  12.0000000  12.0000000  12.0000000  14.0030740  12.0000000  12.0000000  12.0000000  12.0000000
 NucSpn=           0           0           0           0           0           2           0           0           0           0
 AtZEff=  -0.0000000  -0.0000000  -0.0000000  -0.0000000  -0.0000000  -0.0000000  -0.0000000  -0.0000000  -0.0000000  -0.0000000
 NQMom=    0.0000000   0.0000000   0.0000000   0.0000000   0.0000000   2.0440000   0.0000000   0.0000000   0.0000000   0.0000000
 NMagM=    0.0000000   0.0000000   0.0000000   0.0000000   0.0000000   0.4037610   0.0000000   0.0000000   0.0000000   0.0000000
 AtZNuc=  12.0000000   6.0000000   6.0000000   6.0000000   6.0000000   7.0000000   6.0000000   6.0000000   6.0000000   6.0000000

  Atom        11          12          13          14          15          16          17          18          19          20
 IAtWgt=          12          12          12           1          14          12          12          12          12          12
 AtmWgt=  12.0000000  12.0000000  12.0000000   1.0078250  14.0030740  12.0000000  12.0000000  12.0000000  12.0000000  12.0000000
 NucSpn=           0           0           0           1           2           0           0           0           0           0
 AtZEff=  -0.0000000  -0.0000000  -0.0000000  -0.0000000  -0.0000000  -0.0000000  -0.0000000  -0.0000000  -0.0000000  -0.0000000
 NQMom=    0.0000000   0.0000000   0.0000000   0.0000000   2.0440000   0.0000000   0.0000000   0.0000000   0.0000000   0.0000000
 NMagM=    0.0000000   0.0000000   0.0000000   2.7928460   0.4037610   0.0000000   0.0000000   0.0000000   0.0000000   0.0000000
 AtZNuc=   6.0000000   6.0000000   6.0000000   1.0000000   7.0000000   6.0000000   6.0000000   6.0000000   6.0000000   6.0000000

  Atom        21          22          23          24          25          26          27          28          29          30
 IAtWgt=          12          16          12          14          12          12          12          12          12          12
 AtmWgt=  12.0000000  15.9949146  12.0000000  14.0030740  12.0000000  12.0000000  12.0000000  12.0000000  12.0000000  12.0000000
 NucSpn=           0           0           0           2           0           0           0           0           0           0
 AtZEff=  -0.0000000  -0.0000000  -0.0000000  -0.0000000  -0.0000000  -0.0000000  -0.0000000  -0.0000000  -0.0000000  -0.0000000
 NQMom=    0.0000000   0.0000000   0.0000000   2.0440000   0.0000000   0.0000000   0.0000000   0.0000000   0.0000000   0.0000000
 NMagM=    0.0000000   0.0000000   0.0000000   0.4037610   0.0000000   0.0000000   0.0000000   0.0000000   0.0000000   0.0000000
 AtZNuc=   6.0000000   8.0000000   6.0000000   7.0000000   6.0000000   6.0000000   6.0000000   6.0000000   6.0000000   6.0000000

  Atom        31          32          33          34          35          36          37          38          39          40
 IAtWgt=          12          14          12          12          12          12          12          12          16          12
 AtmWgt=  12.0000000  14.0030740  12.0000000  12.0000000  12.0000000  12.0000000  12.0000000  12.0000000  15.9949146  12.0000000
 NucSpn=           0           2           0           0           0           0           0           0           0           0
 AtZEff=  -0.0000000  -0.0000000  -0.0000000  -0.0000000  -0.0000000  -0.0000000  -0.0000000  -0.0000000  -0.0000000  -0.0000000
 NQMom=    0.0000000   2.0440000   0.0000000   0.0000000   0.0000000   0.0000000   0.0000000   0.0000000   0.0000000   0.0000000
 NMagM=    0.0000000   0.4037610   0.0000000   0.0000000   0.0000000   0.0000000   0.0000000   0.0000000   0.0000000   0.0000000
 AtZNuc=   6.0000000   7.0000000   6.0000000   6.0000000   6.0000000   6.0000000   6.0000000   6.0000000   8.0000000   6.0000000

  Atom        41          42          43          44          45          46          47          48          49          50
 IAtWgt=          12          16          16          12           1           1           1           1           1           1
 AtmWgt=  12.0000000  15.9949146  15.9949146  12.0000000   1.0078250   1.0078250   1.0078250   1.0078250   1.0078250   1.0078250
 NucSpn=           0           0           0           0           1           1           1           1           1           1
 AtZEff=  -0.0000000  -0.0000000  -0.0000000  -0.0000000  -0.0000000  -0.0000000  -0.0000000  -0.0000000  -0.0000000  -0.0000000
 NQMom=    0.0000000   0.0000000   0.0000000   0.0000000   0.0000000   0.0000000   0.0000000   0.0000000   0.0000000   0.0000000
 NMagM=    0.0000000   0.0000000   0.0000000   0.0000000   2.7928460   2.7928460   2.7928460   2.7928460   2.7928460   2.7928460
 AtZNuc=   6.0000000   8.0000000   8.0000000   6.0000000   1.0000000   1.0000000   1.0000000   1.0000000   1.0000000   1.0000000

  Atom        51          52          53          54          55          56          57          58          59          60
 IAtWgt=           1           1           1           1           1           1           1           1           1           1
 AtmWgt=   1.0078250   1.0078250   1.0078250   1.0078250   1.0078250   1.0078250   1.0078250   1.0078250   1.0078250   1.0078250
 NucSpn=           1           1           1           1           1           1           1           1           1           1
 AtZEff=  -0.0000000  -0.0000000  -0.0000000  -0.0000000  -0.0000000  -0.0000000  -0.0000000  -0.0000000  -0.0000000  -0.0000000
 NQMom=    0.0000000   0.0000000   0.0000000   0.0000000   0.0000000   0.0000000   0.0000000   0.0000000   0.0000000   0.0000000
 NMagM=    2.7928460   2.7928460   2.7928460   2.7928460   2.7928460   2.7928460   2.7928460   2.7928460   2.7928460   2.7928460
 AtZNuc=   1.0000000   1.0000000   1.0000000   1.0000000   1.0000000   1.0000000   1.0000000   1.0000000   1.0000000   1.0000000

  Atom        61          62          63          64          65          66          67          68          69          70
 IAtWgt=           1           1           1           1           1           1           1           1           1           1
 AtmWgt=   1.0078250   1.0078250   1.0078250   1.0078250   1.0078250   1.0078250   1.0078250   1.0078250   1.0078250   1.0078250
 NucSpn=           1           1           1           1           1           1           1           1           1           1
 AtZEff=  -0.0000000  -0.0000000  -0.0000000  -0.0000000  -0.0000000  -0.0000000  -0.0000000  -0.0000000  -0.0000000  -0.0000000
 NQMom=    0.0000000   0.0000000   0.0000000   0.0000000   0.0000000   0.0000000   0.0000000   0.0000000   0.0000000   0.0000000
 NMagM=    2.7928460   2.7928460   2.7928460   2.7928460   2.7928460   2.7928460   2.7928460   2.7928460   2.7928460   2.7928460
 AtZNuc=   1.0000000   1.0000000   1.0000000   1.0000000   1.0000000   1.0000000   1.0000000   1.0000000   1.0000000   1.0000000

  Atom        71          72          73          74          75          76          77          78          79          80
 IAtWgt=           1           1           1           1           1           1           1           1           1          24
 AtmWgt=   1.0078250   1.0078250   1.0078250   1.0078250   1.0078250   1.0078250   1.0078250   1.0078250   1.0078250  23.9850450
 NucSpn=           1           1           1           1           1           1           1           1           1           0
 AtZEff=  -0.0000000  -0.0000000  -0.0000000  -0.0000000  -0.0000000  -0.0000000  -0.0000000  -0.0000000  -0.0000000  -0.0000000
 NQMom=    0.0000000   0.0000000   0.0000000   0.0000000   0.0000000   0.0000000   0.0000000   0.0000000   0.0000000   0.0000000
 NMagM=    2.7928460   2.7928460   2.7928460   2.7928460   2.7928460   2.7928460   2.7928460   2.7928460   2.7928460   0.0000000
 AtZNuc=   1.0000000   1.0000000   1.0000000   1.0000000   1.0000000   1.0000000   1.0000000   1.0000000   1.0000000  12.0000000

  Atom        81          82          83          84          85          86          87          88          89          90
 IAtWgt=          12          12          12          12          14          12          12          12          12          12
 AtmWgt=  12.0000000  12.0000000  12.0000000  12.0000000  14.0030740  12.0000000  12.0000000  12.0000000  12.0000000  12.0000000
 NucSpn=           0           0           0           0           2           0           0           0           0           0
 AtZEff=  -0.0000000  -0.0000000  -0.0000000  -0.0000000  -0.0000000  -0.0000000  -0.0000000  -0.0000000  -0.0000000  -0.0000000
 NQMom=    0.0000000   0.0000000   0.0000000   0.0000000   2.0440000   0.0000000   0.0000000   0.0000000   0.0000000   0.0000000
 NMagM=    0.0000000   0.0000000   0.0000000   0.0000000   0.4037610   0.0000000   0.0000000   0.0000000   0.0000000   0.0000000
 AtZNuc=   6.0000000   6.0000000   6.0000000   6.0000000   7.0000000   6.0000000   6.0000000   6.0000000   6.0000000   6.0000000

  Atom        91          92          93          94          95          96          97          98          99         100
 IAtWgt=          12          12           1          14          12          12          12          12          12          12
 AtmWgt=  12.0000000  12.0000000   1.0078250  14.0030740  12.0000000  12.0000000  12.0000000  12.0000000  12.0000000  12.0000000
 NucSpn=           0           0           1           2           0           0           0           0           0           0
 AtZEff=  -0.0000000  -0.0000000  -0.0000000  -0.0000000  -0.0000000  -0.0000000  -0.0000000  -0.0000000  -0.0000000  -0.0000000
 NQMom=    0.0000000   0.0000000   0.0000000   2.0440000   0.0000000   0.0000000   0.0000000   0.0000000   0.0000000   0.0000000
 NMagM=    0.0000000   0.0000000   2.7928460   0.4037610   0.0000000   0.0000000   0.0000000   0.0000000   0.0000000   0.0000000
 AtZNuc=   6.0000000   6.0000000   1.0000000   7.0000000   6.0000000   6.0000000   6.0000000   6.0000000   6.0000000   6.0000000

  Atom       101         102         103         104         105         106         107         108         109         110
 IAtWgt=          16          12          14          12          12          12          12          12          12          12
 AtmWgt=  15.9949146  12.0000000  14.0030740  12.0000000  12.0000000  12.0000000  12.0000000  12.0000000  12.0000000  12.0000000
 NucSpn=           0           0           2           0           0           0           0           0           0           0
 AtZEff=  -0.0000000  -0.0000000  -0.0000000  -0.0000000  -0.0000000  -0.0000000  -0.0000000  -0.0000000  -0.0000000  -0.0000000
 NQMom=    0.0000000   0.0000000   2.0440000   0.0000000   0.0000000   0.0000000   0.0000000   0.0000000   0.0000000   0.0000000
 NMagM=    0.0000000   0.0000000   0.4037610   0.0000000   0.0000000   0.0000000   0.0000000   0.0000000   0.0000000   0.0000000
 AtZNuc=   8.0000000   6.0000000   7.0000000   6.0000000   6.0000000   6.0000000   6.0000000   6.0000000   6.0000000   6.0000000

  Atom       111         112         113         114         115         116         117         118         119         120
 IAtWgt=          14          12          12          12          12          12          12          16          12          12
 AtmWgt=  14.0030740  12.0000000  12.0000000  12.0000000  12.0000000  12.0000000  12.0000000  15.9949146  12.0000000  12.0000000
 NucSpn=           2           0           0           0           0           0           0           0           0           0
 AtZEff=  -0.0000000  -0.0000000  -0.0000000  -0.0000000  -0.0000000  -0.0000000  -0.0000000  -0.0000000  -0.0000000  -0.0000000
 NQMom=    2.0440000   0.0000000   0.0000000   0.0000000   0.0000000   0.0000000   0.0000000   0.0000000   0.0000000   0.0000000
 NMagM=    0.4037610   0.0000000   0.0000000   0.0000000   0.0000000   0.0000000   0.0000000   0.0000000   0.0000000   0.0000000
 AtZNuc=   7.0000000   6.0000000   6.0000000   6.0000000   6.0000000   6.0000000   6.0000000   8.0000000   6.0000000   6.0000000

  Atom       121         122         123         124         125         126         127         128         129         130
 IAtWgt=          16          16          12           1           1           1           1           1           1           1
 AtmWgt=  15.9949146  15.9949146  12.0000000   1.0078250   1.0078250   1.0078250   1.0078250   1.0078250   1.0078250   1.0078250
 NucSpn=           0           0           0           1           1           1           1           1           1           1
 AtZEff=  -0.0000000  -0.0000000  -0.0000000  -0.0000000  -0.0000000  -0.0000000  -0.0000000  -0.0000000  -0.0000000  -0.0000000
 NQMom=    0.0000000   0.0000000   0.0000000   0.0000000   0.0000000   0.0000000   0.0000000   0.0000000   0.0000000   0.0000000
 NMagM=    0.0000000   0.0000000   0.0000000   2.7928460   2.7928460   2.7928460   2.7928460   2.7928460   2.7928460   2.7928460
 AtZNuc=   8.0000000   8.0000000   6.0000000   1.0000000   1.0000000   1.0000000   1.0000000   1.0000000   1.0000000   1.0000000

  Atom       131         132         133         134         135         136         137         138         139         140
 IAtWgt=           1           1           1           1           1           1           1           1           1           1
 AtmWgt=   1.0078250   1.0078250   1.0078250   1.0078250   1.0078250   1.0078250   1.0078250   1.0078250   1.0078250   1.0078250
 NucSpn=           1           1           1           1           1           1           1           1           1           1
 AtZEff=  -0.0000000  -0.0000000  -0.0000000  -0.0000000  -0.0000000  -0.0000000  -0.0000000  -0.0000000  -0.0000000  -0.0000000
 NQMom=    0.0000000   0.0000000   0.0000000   0.0000000   0.0000000   0.0000000   0.0000000   0.0000000   0.0000000   0.0000000
 NMagM=    2.7928460   2.7928460   2.7928460   2.7928460   2.7928460   2.7928460   2.7928460   2.7928460   2.7928460   2.7928460
 AtZNuc=   1.0000000   1.0000000   1.0000000   1.0000000   1.0000000   1.0000000   1.0000000   1.0000000   1.0000000   1.0000000

  Atom       141         142         143         144         145         146         147         148         149         150
 IAtWgt=           1           1           1           1           1           1           1           1           1           1
 AtmWgt=   1.0078250   1.0078250   1.0078250   1.0078250   1.0078250   1.0078250   1.0078250   1.0078250   1.0078250   1.0078250
 NucSpn=           1           1           1           1           1           1           1           1           1           1
 AtZEff=  -0.0000000  -0.0000000  -0.0000000  -0.0000000  -0.0000000  -0.0000000  -0.0000000  -0.0000000  -0.0000000  -0.0000000
 NQMom=    0.0000000   0.0000000   0.0000000   0.0000000   0.0000000   0.0000000   0.0000000   0.0000000   0.0000000   0.0000000
 NMagM=    2.7928460   2.7928460   2.7928460   2.7928460   2.7928460   2.7928460   2.7928460   2.7928460   2.7928460   2.7928460
 AtZNuc=   1.0000000   1.0000000   1.0000000   1.0000000   1.0000000   1.0000000   1.0000000   1.0000000   1.0000000   1.0000000

  Atom       151         152         153         154         155         156         157         158
 IAtWgt=           1           1           1           1           1           1           1           1
 AtmWgt=   1.0078250   1.0078250   1.0078250   1.0078250   1.0078250   1.0078250   1.0078250   1.0078250
 NucSpn=           1           1           1           1           1           1           1           1
 AtZEff=  -0.0000000  -0.0000000  -0.0000000  -0.0000000  -0.0000000  -0.0000000  -0.0000000  -0.0000000
 NQMom=    0.0000000   0.0000000   0.0000000   0.0000000   0.0000000   0.0000000   0.0000000   0.0000000
 NMagM=    2.7928460   2.7928460   2.7928460   2.7928460   2.7928460   2.7928460   2.7928460   2.7928460
 AtZNuc=   1.0000000   1.0000000   1.0000000   1.0000000   1.0000000   1.0000000   1.0000000   1.0000000
 Leave Link  101 at Sat Sep 11 15:57:16 2021, MaxMem= 23488102400 cpu:               3.3 elap:               0.2
 (Enter /sw/apps/gaussian-16.0/g16/l202.exe)
 Stoichiometry    C68H72Mg2N8O8
 Framework group  C1[X(C68H72Mg2N8O8)]
 Deg. of freedom   468
 Full point group                 C1      NOp   1
 Largest Abelian subgroup         C1      NOp   1
 Largest concise Abelian subgroup C1      NOp   1
                         Standard orientation:                         
 ---------------------------------------------------------------------
 Center     Atomic      Atomic             Coordinates (Angstroms)
 Number     Number       Type             X           Y           Z
 ---------------------------------------------------------------------
      1         12           0       -6.520841    0.596038   -0.539690
      2          6           0       -6.775846   -2.686905    0.863689
      3          6           0       -7.635335    1.799902    2.452246
      4          6           0       -6.738030    3.455061   -1.894472
      5          6           0       -6.530165   -0.907545   -3.683703
      6          7           0       -7.097168   -0.414938    1.343504
      7          6           0       -7.092657   -1.673611    1.771164
      8          6           0       -7.383050   -1.809117    3.295855
      9          6           0       -8.175624   -0.444548    3.523403
     10          6           0       -7.575926    0.375746    2.394951
     11          6           0       -9.678804   -0.567827    3.295912
     12          6           0       -6.070945   -1.858631    4.148884
     13          6           0       -6.251600   -2.314696    5.599650
     14          1           0       -5.205707   -3.115977    6.217230
     15          7           0       -6.627670    2.393810    0.272376
     16          6           0       -7.092880    2.698045    1.507815
     17          6           0       -6.965146    4.165178    1.641552
     18          6           0       -6.565359    4.709972    0.314350
     19          6           0       -6.654330    3.529148   -0.506087
     20          6           0       -7.165478    4.894067    2.934741
     21          6           0       -6.176577    6.079899   -0.144212
     22          8           0       -6.091420    6.383796   -1.383150
     23          6           0       -5.981572    7.094066    0.907683
     24          7           0       -6.841163    1.214262   -2.507640
     25          6           0       -6.831911    2.511428   -2.833614
     26          6           0       -6.797985    2.700347   -4.321262
     27          6           0       -6.539635    1.253239   -4.944869
     28          6           0       -6.552313    0.426344   -3.635535
     29          6           0       -8.060667    3.307992   -4.947691
     30          6           0       -5.328190    1.104853   -5.899228
     31          6           0       -4.040837    1.283640   -5.126017
     32          7           0       -6.453652   -1.433714   -1.305613
     33          6           0       -6.490419   -1.828990   -2.650633
     34          6           0       -6.530959   -3.302816   -2.666806
     35          6           0       -6.531698   -3.664425   -1.321041
     36          6           0       -6.520516   -2.490273   -0.515105
     37          6           0       -6.619513   -4.121375   -3.827217
     38          6           0       -6.564211   -4.769123   -0.376349
     39          8           0       -6.488833   -5.994909   -0.472574
     40          6           0       -6.846600   -4.178788    1.075404
     41          6           0       -5.856029   -4.802655    2.020321
     42          8           0       -4.637322   -4.550581    1.927701
     43          8           0       -6.515427   -5.403194    3.022862
     44          6           0       -5.590047   -6.017397    4.012094
     45          1           0       -8.197676    2.272658    3.259844
     46          1           0       -6.703487    4.419683   -2.405109
     47          1           0       -6.449158   -1.448106   -4.628522
     48          1           0       -8.014832   -2.655876    3.564697
     49          1           0       -7.940033    0.007110    4.486846
     50          1           0       -9.941357   -1.544093    2.888612
     51          1           0       -9.931547    0.220905    2.587029
     52          1           0      -10.228870   -0.337808    4.208763
     53          1           0       -5.712947   -0.842922    4.316917
     54          1           0       -5.319733   -2.484017    3.665253
     55          1           0       -7.227476   -2.775992    5.753856
     56          1           0       -6.266451   -1.430103    6.236419
     57          1           0       -7.612757    4.251088    3.691752
     58          1           0       -7.916022    5.663243    2.753742
     59          1           0       -6.244989    5.355590    3.292552
     60          1           0       -6.903778    7.201854    1.479056
     61          1           0       -5.620489    7.987959    0.400314
     62          1           0       -5.226965    6.735467    1.608343
     63          1           0       -5.985769    3.365057   -4.612622
     64          1           0       -7.387460    0.904987   -5.535281
     65          1           0       -7.872509    4.219277   -5.515900
     66          1           0       -8.780477    3.486504   -4.149382
     67          1           0       -8.619146    2.633510   -5.596222
     68          1           0       -5.352190    1.878850   -6.665582
     69          1           0       -5.293698    0.139311   -6.403996
     70          1           0       -3.922360    2.366221   -5.097478
     71          1           0       -3.210985    0.813889   -5.655064
     72          1           0       -4.143729    0.939858   -4.096594
     73          1           0       -5.917495   -4.941366   -3.676372
     74          1           0       -6.381856   -3.557240   -4.728812
     75          1           0       -7.667111   -4.419038   -3.784892
     76          1           0       -7.873634   -4.441991    1.326497
     77          1           0       -5.860831   -7.070077    4.094400
     78          1           0       -5.650733   -5.407361    4.913526
     79          1           0       -4.545123   -6.096697    3.710125
     80         12           0        6.678869    0.793148    0.428674
     81          6           0        6.655045   -2.276238   -1.430721
     82          6           0        5.629990   -1.008252    3.128560
     83          6           0        6.256443    3.534823    1.968860
     84          6           0        6.607471    2.479127   -2.620606
     85          7           0        6.235751   -1.357971    0.690602
     86          6           0        6.321788   -2.438988   -0.069877
     87          6           0        6.112990   -3.777188    0.688521
     88          6           0        5.252341   -3.221077    1.925013
     89          6           0        5.757743   -1.779971    1.946087
     90          6           0        3.756905   -3.198885    1.655757
     91          6           0        7.466323   -4.409470    1.168854
     92          6           0        7.365737   -5.861331    1.641860
     93          1           0        8.483916   -6.760665    1.371021
     94          7           0        6.515209    1.162674    2.371669
     95          6           0        6.094603    0.310105    3.329523
     96          6           0        6.136054    1.068373    4.589479
     97          6           0        6.458025    2.486457    4.273147
     98          6           0        6.400628    2.453193    2.825499
     99          6           0        5.961906    0.423089    5.933619
    100          6           0        6.754320    3.678529    5.131847
    101          8           0        6.772003    4.866716    4.651485
    102          6           0        6.930924    3.423651    6.568972
    103          7           0        6.249850    2.721965   -0.217819
    104          6           0        6.170762    3.741971    0.654684
    105          6           0        6.128048    5.070593   -0.061803
    106          6           0        6.439975    4.741851   -1.595497
    107          6           0        6.524645    3.201959   -1.512085
    108          6           0        4.809221    5.837080    0.036085
    109          6           0        7.616471    5.512155   -2.255174
    110          6           0        8.926457    5.084431   -1.633585
    111          7           0        6.823958    0.244144   -1.655934
    112          6           0        6.744119    1.105196   -2.772318
    113          6           0        6.780980    0.256018   -3.980607
    114          6           0        6.857110   -1.052077   -3.479032
    115          6           0        6.846631   -1.021578   -2.058305
    116          6           0        6.696340    0.717389   -5.324519
    117          6           0        6.933228   -2.452390   -3.828346
    118          8           0        7.061619   -3.079917   -4.878799
    119          6           0        6.678246   -3.314748   -2.517731
    120          6           0        7.739412   -4.378495   -2.447901
    121          8           0        8.933515   -4.070471   -2.287117
    122          8           0        7.149270   -5.584776   -2.364191
    123          6           0        8.160922   -6.671764   -2.281545
    124          1           0        5.085211   -1.435773    3.970784
    125          1           0        6.218299    4.515141    2.449502
    126          1           0        6.688281    2.934657   -3.609866
    127          1           0        5.544909   -4.523118    0.145697
    128          1           0        5.513709   -3.730354    2.848961
    129          1           0        3.528301   -3.450720    0.630834
    130          1           0        3.432734   -2.190861    1.879009
    131          1           0        3.236273   -3.847225    2.366341
    132          1           0        7.774100   -3.927532    2.105740
    133          1           0        8.216336   -4.329031    0.406200
    134          1           0        6.417806   -6.326673    1.345492
    135          1           0        7.338228   -5.869314    2.734199
    136          1           0        5.575088   -0.599341    5.841908
    137          1           0        5.165240    0.969608    6.449867
    138          1           0        6.868778    0.463184    6.540780
    139          1           0        6.031735    2.958999    6.966501
    140          1           0        7.223326    4.382221    7.002006
    141          1           0        7.743012    2.699567    6.698651
    142          1           0        6.891778    5.738820    0.316732
    143          1           0        5.583069    4.974768   -2.244565
    144          1           0        4.925307    6.853378    0.457676
    145          1           0        4.119346    5.254626    0.632197
    146          1           0        4.268124    5.946821   -0.902193
    147          1           0        7.519494    6.584370   -2.067827
    148          1           0        7.672572    5.376836   -3.330131
    149          1           0        8.982887    5.698495   -0.729798
    150          1           0        9.756004    5.294280   -2.305770
    151          1           0        8.888184    4.035468   -1.317542
    152          1           0        7.439094    0.169617   -5.889107
    153          1           0        6.860275    1.791141   -5.387322
    154          1           0        5.663844    0.445346   -5.559469
    155          1           0        5.676834   -3.739911   -2.595015
    156          1           0        7.946559   -7.370346   -3.096234
    157          1           0        8.093209   -7.065081   -1.249817
    158          1           0        9.192449   -6.413358   -2.490455
 ---------------------------------------------------------------------
 Rotational constants (GHZ):           0.0203241           0.0080134           0.0075127
 Leave Link  202 at Sat Sep 11 15:57:17 2021, MaxMem= 23488102400 cpu:               0.2 elap:               0.0
 (Enter /sw/apps/gaussian-16.0/g16/l301.exe)
 Standard basis: def2SVP (5D, 7F)
 Ernie: Thresh=  0.10000D-02 Tol=  0.10000D-05 Strict=F.
 There are  1658 symmetry adapted cartesian basis functions of A   symmetry.
 There are  1572 symmetry adapted basis functions of A   symmetry.
  1572 basis functions,  2678 primitive gaussians,  1658 cartesian basis functions
   312 alpha electrons      312 beta electrons
       nuclear repulsion energy     14248.8846700098 Hartrees.
 IExCor=20419 DFT=T Ex+Corr=CAM-B3LYP ExCW=0 ScaHFX=  1.000000
 ScaDFX=  1.000000  1.000000  1.000000  0.810000 ScalE2=  1.000000  1.000000
 IRadAn=      5 IRanWt=     -1 IRanGd=            0 ICorTp=0 IEmpDi=  4
 HFx  wShort=  0.000000 wLong=  0.330000 cFull=  0.190000 cShort=  0.000000 cLong=  0.460000
 DFx  wShort=  0.000000 wLong=  0.330000 cFull=  0.190000 cShort=  0.000000 cLong=  0.460000
 NAtoms=  158 NActive=  158 NUniq=  158 SFac= 1.00D+00 NAtFMM=   60 NAOKFM=T Big=T
 Integral buffers will be    131072 words long.
 Raffenetti 1 integral format.
 Two-electron integral symmetry is turned on.
 Leave Link  301 at Sat Sep 11 15:57:17 2021, MaxMem= 23488102400 cpu:               1.3 elap:               0.1
 (Enter /sw/apps/gaussian-16.0/g16/l302.exe)
 NPDir=0 NMtPBC=     1 NCelOv=     1 NCel=       1 NClECP=     1 NCelD=      1
         NCelK=      1 NCelE2=     1 NClLst=     1 CellRange=     0.0.
 One-electron integrals computed using PRISM.
 One-electron integral symmetry used in STVInt
   1 Symmetry operations used in ECPInt.
 ECPInt:  NShTT=  271216 NPrTT=  987664 LenC2=  116694 LenP2D=  255434.
 LDataN:  DoStor=T MaxTD1= 4 Len=   56
 NBasis=  1572 RedAO= T EigKep=  3.36D-04  NBF=  1572
 NBsUse=  1572 1.00D-06 EigRej= -1.00D+00 NBFU=  1572
 Precomputing XC quadrature grid using
 IXCGrd= 4 IRadAn=           5 IRanWt=          -1 IRanGd=           0 AccXCQ= 0.00D+00.
 Generated NRdTot=       0 NPtTot=           0 NUsed=           0 NTot=          32
 NSgBfM=  1035  1009  1014  1028  1035 MxSgAt=   158 MxSgA2=   157.
 Leave Link  302 at Sat Sep 11 15:57:22 2021, MaxMem= 23488102400 cpu:             117.8 elap:               4.9
 (Enter /sw/apps/gaussian-16.0/g16/l303.exe)
 DipDrv:  MaxL=1.
 Leave Link  303 at Sat Sep 11 15:57:22 2021, MaxMem= 23488102400 cpu:               8.6 elap:               0.4
 (Enter /sw/apps/gaussian-16.0/g16/l308.exe)
 Leave Link  308 at Sat Sep 11 15:57:23 2021, MaxMem= 23488102400 cpu:              15.6 elap:               0.7
 (Enter /sw/apps/gaussian-16.0/g16/l401.exe)
 ExpMin= 3.36D-02 ExpMax= 4.95D+03 ExpMxC= 7.45D+02 IAcc=3 IRadAn=         5 AccDes= 0.00D+00
 Harris functional with IExCor=20419 and IRadAn=       5 diagonalized for initial guess.
 HarFok:  IExCor=20419 AccDes= 0.00D+00 IRadAn=         5 IDoV= 1 UseB2=F ITyADJ=14
 ICtDFT=  3500011 ScaDFX=  1.000000  1.000000  1.000000  1.000000
 FoFCou: FMM=F IPFlag=           0 FMFlag=      100000 FMFlg1=        2001
         NFxFlg=           0 DoJE=T BraDBF=F KetDBF=T FulRan=T
         wScrn=  0.000000 ICntrl=       500 IOpCl=  0 I1Cent=   200000004 NGrid=           0
         NMat0=    1 NMatS0=      1 NMatT0=    0 NMatD0=    1 NMtDS0=    0 NMtDT0=    0
 Petite list used in FoFCou.
 Harris En= -3918.65801366132    
 JPrj=0 DoOrth=F DoCkMO=F.
 Leave Link  401 at Sat Sep 11 15:57:29 2021, MaxMem= 23488102400 cpu:             161.5 elap:               6.8
 (Enter /sw/apps/gaussian-16.0/g16/l502.exe)
 Integral symmetry usage will be decided dynamically.
 Closed shell SCF:
 Using DIIS extrapolation, IDIIS=  1040.
 NGot= 23488102400 LenX= 23482547354 LenY= 23479796732
 Requested convergence on RMS density matrix=1.00D-08 within 128 cycles.
 Requested convergence on MAX density matrix=1.00D-06.
 Requested convergence on             energy=1.00D-06.
 No special actions if energy rises.
 Fock matrices will be formed incrementally for  20 cycles.

 Cycle   1  Pass 1  IDiag  1:
 FoFJK:  IHMeth= 1 ICntrl=       0 DoSepK=T KAlg= 0 I1Cent=           0 FoldK=F
 IRaf=         1 NMat=       1 IRICut=       1 DoRegI=T DoRafI=F ISym2E= 0 IDoP0=0 IntGTp=1.
 FoFCou: FMM=T IPFlag=           0 FMFlag=      100000 FMFlg1=        2001
         NFxFlg=           0 DoJE=T BraDBF=F KetDBF=F FulRan=T
         wScrn=  0.000000 ICntrl=       500 IOpCl=  0 I1Cent=           0 NGrid=           0
         NMat0=    1 NMatS0=      1 NMatT0=    0 NMatD0=    1 NMtDS0=    0 NMtDT0=    0
 Symmetry not used in FoFCou.
 FMM levels:  10  Number of levels for PrismC:   9
 E= -4068.94960647656    
 DIIS: error= 2.04D-02 at cycle   1 NSaved=   1.
 NSaved= 1 IEnMin= 1 EnMin= -4068.94960647656     IErMin= 1 ErrMin= 2.04D-02
 ErrMax= 2.04D-02  0.00D+00 EMaxC= 1.00D-01 BMatC= 1.69D+00 BMatP= 1.69D+00
 IDIUse=3 WtCom= 7.96D-01 WtEn= 2.04D-01
 Coeff-Com:  0.100D+01
 Coeff-En:   0.100D+01
 Coeff:      0.100D+01
 Gap=     0.120 Goal=   None    Shift=    0.000
 GapD=    0.120 DampG=1.000 DampE=0.500 DampFc=0.5000 IDamp=-1.
 Damping current iteration by 5.00D-01
 RMSDP=1.57D-03 MaxDP=1.35D-01              OVMax= 2.02D-01

 Cycle   2  Pass 1  IDiag  1:
 RMSU=  7.69D-04    CP:  9.82D-01
 E= -4069.33848844271     Delta-E=       -0.388881966155 Rises=F Damp=T
 DIIS: error= 1.27D-02 at cycle   2 NSaved=   2.
 NSaved= 2 IEnMin= 2 EnMin= -4069.33848844271     IErMin= 2 ErrMin= 1.27D-02
 ErrMax= 1.27D-02  0.00D+00 EMaxC= 1.00D-01 BMatC= 3.06D-01 BMatP= 1.69D+00
 IDIUse=3 WtCom= 8.73D-01 WtEn= 1.27D-01
 Coeff-Com: -0.213D+00 0.121D+01
 Coeff-En:   0.000D+00 0.100D+01
 Coeff:     -0.186D+00 0.119D+01
 Gap=     0.135 Goal=   None    Shift=    0.000
 RMSDP=7.65D-04 MaxDP=9.45D-02 DE=-3.89D-01 OVMax= 1.87D-01

 Cycle   3  Pass 1  IDiag  1:
 RMSU=  7.32D-04    CP:  9.68D-01  1.24D+00
 E= -4069.62819963731     Delta-E=       -0.289711194600 Rises=F Damp=F
 DIIS: error= 1.56D-02 at cycle   3 NSaved=   3.
 NSaved= 3 IEnMin= 3 EnMin= -4069.62819963731     IErMin= 2 ErrMin= 1.27D-02
 ErrMax= 1.56D-02  0.00D+00 EMaxC= 1.00D-01 BMatC= 2.01D-01 BMatP= 3.06D-01
 IDIUse=3 WtCom= 8.44D-01 WtEn= 1.56D-01
 Coeff-Com: -0.267D+00 0.651D+00 0.616D+00
 Coeff-En:   0.000D+00 0.000D+00 0.100D+01
 Coeff:     -0.225D+00 0.550D+00 0.676D+00
 Gap=     0.122 Goal=   None    Shift=    0.000
 RMSDP=5.08D-04 MaxDP=4.77D-02 DE=-2.90D-01 OVMax= 1.42D-01

 Cycle   4  Pass 1  IDiag  1:
 RMSU=  2.65D-04    CP:  9.65D-01  1.55D+00  5.06D-01
 E= -4069.76543333005     Delta-E=       -0.137233692738 Rises=F Damp=F
 DIIS: error= 7.17D-03 at cycle   4 NSaved=   4.
 NSaved= 4 IEnMin= 4 EnMin= -4069.76543333005     IErMin= 4 ErrMin= 7.17D-03
 ErrMax= 7.17D-03  0.00D+00 EMaxC= 1.00D-01 BMatC= 4.99D-02 BMatP= 2.01D-01
 IDIUse=3 WtCom= 9.28D-01 WtEn= 7.17D-02
 Coeff-Com: -0.109D+00 0.226D+00 0.408D+00 0.475D+00
 Coeff-En:   0.000D+00 0.000D+00 0.220D+00 0.780D+00
 Coeff:     -0.101D+00 0.210D+00 0.395D+00 0.496D+00
 Gap=     0.121 Goal=   None    Shift=    0.000
 RMSDP=2.00D-04 MaxDP=2.01D-02 DE=-1.37D-01 OVMax= 6.14D-02

 Cycle   5  Pass 1  IDiag  1:
 RMSU=  7.60D-05    CP:  9.64D-01  1.49D+00  6.89D-01  5.50D-01
 E= -4069.81066552369     Delta-E=       -0.045232193639 Rises=F Damp=F
 DIIS: error= 7.60D-04 at cycle   5 NSaved=   5.
 NSaved= 5 IEnMin= 5 EnMin= -4069.81066552369     IErMin= 5 ErrMin= 7.60D-04
 ErrMax= 7.60D-04  0.00D+00 EMaxC= 1.00D-01 BMatC= 1.17D-03 BMatP= 4.99D-02
 IDIUse=3 WtCom= 9.92D-01 WtEn= 7.60D-03
 Coeff-Com: -0.362D-01 0.710D-01 0.166D+00 0.250D+00 0.549D+00
 Coeff-En:   0.000D+00 0.000D+00 0.000D+00 0.000D+00 0.100D+01
 Coeff:     -0.359D-01 0.705D-01 0.165D+00 0.248D+00 0.553D+00
 Gap=     0.121 Goal=   None    Shift=    0.000
 RMSDP=4.15D-05 MaxDP=4.11D-03 DE=-4.52D-02 OVMax= 1.61D-02

 Cycle   6  Pass 1  IDiag  1:
 RMSU=  3.07D-05    CP:  9.64D-01  1.49D+00  6.81D-01  6.22D-01  7.52D-01
 E= -4069.81168638002     Delta-E=       -0.001020856333 Rises=F Damp=F
 DIIS: error= 2.08D-04 at cycle   6 NSaved=   6.
 NSaved= 6 IEnMin= 6 EnMin= -4069.81168638002     IErMin= 6 ErrMin= 2.08D-04
 ErrMax= 2.08D-04  0.00D+00 EMaxC= 1.00D-01 BMatC= 1.82D-04 BMatP= 1.17D-03
 IDIUse=3 WtCom= 9.98D-01 WtEn= 2.08D-03
 Coeff-Com:  0.213D-02-0.643D-02 0.116D-01 0.407D-01 0.309D+00 0.644D+00
 Coeff-En:   0.000D+00 0.000D+00 0.000D+00 0.000D+00 0.112D+00 0.888D+00
 Coeff:      0.213D-02-0.642D-02 0.115D-01 0.406D-01 0.308D+00 0.644D+00
 Gap=     0.121 Goal=   None    Shift=    0.000
 RMSDP=1.63D-05 MaxDP=1.14D-03 DE=-1.02D-03 OVMax= 7.12D-03

 Cycle   7  Pass 1  IDiag  1:
 RMSU=  1.08D-05    CP:  9.64D-01  1.50D+00  6.87D-01  6.21D-01  8.57D-01
                    CP:  7.41D-01
 E= -4069.81188391975     Delta-E=       -0.000197539728 Rises=F Damp=F
 DIIS: error= 8.42D-05 at cycle   7 NSaved=   7.
 NSaved= 7 IEnMin= 7 EnMin= -4069.81188391975     IErMin= 7 ErrMin= 8.42D-05
 ErrMax= 8.42D-05  0.00D+00 EMaxC= 1.00D-01 BMatC= 2.22D-05 BMatP= 1.82D-04
 IDIUse=1 WtCom= 1.00D+00 WtEn= 0.00D+00
 Coeff-Com:  0.447D-02-0.980D-02-0.886D-02-0.347D-02 0.105D+00 0.333D+00
 Coeff-Com:  0.579D+00
 Coeff:      0.447D-02-0.980D-02-0.886D-02-0.347D-02 0.105D+00 0.333D+00
 Coeff:      0.579D+00
 Gap=     0.122 Goal=   None    Shift=    0.000
 RMSDP=6.61D-06 MaxDP=1.11D-03 DE=-1.98D-04 OVMax= 3.22D-03

 Cycle   8  Pass 1  IDiag  1:
 RMSU=  4.72D-06    CP:  9.64D-01  1.50D+00  6.87D-01  6.26D-01  8.60D-01
                    CP:  8.67D-01  8.15D-01
 E= -4069.81191135866     Delta-E=       -0.000027438909 Rises=F Damp=F
 DIIS: error= 5.11D-05 at cycle   8 NSaved=   8.
 NSaved= 8 IEnMin= 8 EnMin= -4069.81191135866     IErMin= 8 ErrMin= 5.11D-05
 ErrMax= 5.11D-05  0.00D+00 EMaxC= 1.00D-01 BMatC= 4.88D-06 BMatP= 2.22D-05
 IDIUse=1 WtCom= 1.00D+00 WtEn= 0.00D+00
 Coeff-Com:  0.218D-02-0.432D-02-0.780D-02-0.122D-01-0.110D-01 0.338D-01
 Coeff-Com:  0.337D+00 0.662D+00
 Coeff:      0.218D-02-0.432D-02-0.780D-02-0.122D-01-0.110D-01 0.338D-01
 Coeff:      0.337D+00 0.662D+00
 Gap=     0.122 Goal=   None    Shift=    0.000
 RMSDP=3.30D-06 MaxDP=3.46D-04 DE=-2.74D-05 OVMax= 1.09D-03

 Cycle   9  Pass 1  IDiag  1:
 RMSU=  1.92D-06    CP:  9.64D-01  1.50D+00  6.88D-01  6.27D-01  8.77D-01
                    CP:  8.94D-01  1.01D+00  9.48D-01
 E= -4069.81191916406     Delta-E=       -0.000007805396 Rises=F Damp=F
 DIIS: error= 2.05D-05 at cycle   9 NSaved=   9.
 NSaved= 9 IEnMin= 9 EnMin= -4069.81191916406     IErMin= 9 ErrMin= 2.05D-05
 ErrMax= 2.05D-05  0.00D+00 EMaxC= 1.00D-01 BMatC= 7.08D-07 BMatP= 4.88D-06
 IDIUse=1 WtCom= 1.00D+00 WtEn= 0.00D+00
 Coeff-Com:  0.479D-03-0.799D-03-0.271D-02-0.606D-02-0.212D-01-0.389D-01
 Coeff-Com:  0.102D+00 0.330D+00 0.637D+00
 Coeff:      0.479D-03-0.799D-03-0.271D-02-0.606D-02-0.212D-01-0.389D-01
 Coeff:      0.102D+00 0.330D+00 0.637D+00
 Gap=     0.122 Goal=   None    Shift=    0.000
 RMSDP=1.42D-06 MaxDP=1.48D-04 DE=-7.81D-06 OVMax= 7.62D-04

 Cycle  10  Pass 1  IDiag  1:
 RMSU=  9.43D-07    CP:  9.64D-01  1.50D+00  6.88D-01  6.28D-01  8.80D-01
                    CP:  9.07D-01  1.06D+00  1.11D+00  1.05D+00
 E= -4069.81192077319     Delta-E=       -0.000001609133 Rises=F Damp=F
 DIIS: error= 1.05D-05 at cycle  10 NSaved=  10.
 NSaved=10 IEnMin=10 EnMin= -4069.81192077319     IErMin=10 ErrMin= 1.05D-05
 ErrMax= 1.05D-05  0.00D+00 EMaxC= 1.00D-01 BMatC= 1.71D-07 BMatP= 7.08D-07
 IDIUse=1 WtCom= 1.00D+00 WtEn= 0.00D+00
 Coeff-Com: -0.425D-03 0.891D-03 0.122D-02 0.110D-02-0.378D-02-0.310D-01
 Coeff-Com: -0.449D-01-0.751D-01 0.247D+00 0.905D+00
 Coeff:     -0.425D-03 0.891D-03 0.122D-02 0.110D-02-0.378D-02-0.310D-01
 Coeff:     -0.449D-01-0.751D-01 0.247D+00 0.905D+00
 Gap=     0.122 Goal=   None    Shift=    0.000
 RMSDP=1.22D-06 MaxDP=1.19D-04 DE=-1.61D-06 OVMax= 6.23D-04

 Cycle  11  Pass 1  IDiag  1:
 RMSU=  5.21D-07    CP:  9.64D-01  1.50D+00  6.88D-01  6.28D-01  8.83D-01
                    CP:  9.17D-01  1.10D+00  1.22D+00  1.39D+00  1.37D+00
 E= -4069.81192156302     Delta-E=       -0.000000789827 Rises=F Damp=F
 DIIS: error= 4.11D-06 at cycle  11 NSaved=  11.
 NSaved=11 IEnMin=11 EnMin= -4069.81192156302     IErMin=11 ErrMin= 4.11D-06
 ErrMax= 4.11D-06  0.00D+00 EMaxC= 1.00D-01 BMatC= 6.37D-08 BMatP= 1.71D-07
 IDIUse=1 WtCom= 1.00D+00 WtEn= 0.00D+00
 Coeff-Com: -0.332D-03 0.647D-03 0.134D-02 0.213D-02 0.442D-02-0.860D-02
 Coeff-Com: -0.424D-01-0.132D+00-0.277D-01 0.474D+00 0.728D+00
 Coeff:     -0.332D-03 0.647D-03 0.134D-02 0.213D-02 0.442D-02-0.860D-02
 Coeff:     -0.424D-01-0.132D+00-0.277D-01 0.474D+00 0.728D+00
 Gap=     0.122 Goal=   None    Shift=    0.000
 RMSDP=6.89D-07 MaxDP=6.16D-05 DE=-7.90D-07 OVMax= 3.78D-04

 Cycle  12  Pass 1  IDiag  1:
 RMSU=  2.65D-07    CP:  9.64D-01  1.50D+00  6.88D-01  6.28D-01  8.84D-01
                    CP:  9.19D-01  1.13D+00  1.29D+00  1.56D+00  1.76D+00
                    CP:  1.19D+00
 E= -4069.81192182858     Delta-E=       -0.000000265565 Rises=F Damp=F
 DIIS: error= 2.54D-06 at cycle  12 NSaved=  12.
 NSaved=12 IEnMin=12 EnMin= -4069.81192182858     IErMin=12 ErrMin= 2.54D-06
 ErrMax= 2.54D-06  0.00D+00 EMaxC= 1.00D-01 BMatC= 1.55D-08 BMatP= 6.37D-08
 IDIUse=1 WtCom= 1.00D+00 WtEn= 0.00D+00
 Coeff-Com: -0.698D-05-0.283D-05 0.204D-03 0.546D-03 0.340D-02 0.374D-02
 Coeff-Com:  0.220D-02-0.364D-01-0.691D-01-0.630D-01 0.255D+00 0.904D+00
 Coeff:     -0.698D-05-0.283D-05 0.204D-03 0.546D-03 0.340D-02 0.374D-02
 Coeff:      0.220D-02-0.364D-01-0.691D-01-0.630D-01 0.255D+00 0.904D+00
 Gap=     0.122 Goal=   None    Shift=    0.000
 RMSDP=4.34D-07 MaxDP=3.08D-05 DE=-2.66D-07 OVMax= 2.51D-04

 Cycle  13  Pass 1  IDiag  1:
 RMSU=  1.67D-07    CP:  9.64D-01  1.50D+00  6.88D-01  6.28D-01  8.84D-01
                    CP:  9.19D-01  1.13D+00  1.32D+00  1.66D+00  1.98D+00
                    CP:  1.60D+00  1.25D+00
 E= -4069.81192192044     Delta-E=       -0.000000091863 Rises=F Damp=F
 DIIS: error= 1.28D-06 at cycle  13 NSaved=  13.
 NSaved=13 IEnMin=13 EnMin= -4069.81192192044     IErMin=13 ErrMin= 1.28D-06
 ErrMax= 1.28D-06  0.00D+00 EMaxC= 1.00D-01 BMatC= 8.50D-09 BMatP= 1.55D-08
 IDIUse=1 WtCom= 1.00D+00 WtEn= 0.00D+00
 Coeff-Com:  0.120D-03-0.245D-03-0.367D-03-0.451D-03 0.634D-03 0.498D-02
 Coeff-Com:  0.193D-01 0.227D-01-0.334D-01-0.240D+00-0.158D+00 0.594D+00
 Coeff-Com:  0.790D+00
 Coeff:      0.120D-03-0.245D-03-0.367D-03-0.451D-03 0.634D-03 0.498D-02
 Coeff:      0.193D-01 0.227D-01-0.334D-01-0.240D+00-0.158D+00 0.594D+00
 Coeff:      0.790D+00
 Gap=     0.122 Goal=   None    Shift=    0.000
 RMSDP=3.44D-07 MaxDP=2.29D-05 DE=-9.19D-08 OVMax= 2.03D-04

 Cycle  14  Pass 1  IDiag  1:
 RMSU=  7.67D-08    CP:  9.64D-01  1.50D+00  6.88D-01  6.28D-01  8.84D-01
                    CP:  9.20D-01  1.14D+00  1.34D+00  1.74D+00  2.17D+00
                    CP:  1.86D+00  1.77D+00  1.10D+00
 E= -4069.81192195762     Delta-E=       -0.000000037177 Rises=F Damp=F
 DIIS: error= 7.03D-07 at cycle  14 NSaved=  14.
 NSaved=14 IEnMin=14 EnMin= -4069.81192195762     IErMin=14 ErrMin= 7.03D-07
 ErrMax= 7.03D-07  0.00D+00 EMaxC= 1.00D-01 BMatC= 1.30D-09 BMatP= 8.50D-09
 IDIUse=1 WtCom= 1.00D+00 WtEn= 0.00D+00
 Coeff-Com:  0.675D-04-0.133D-03-0.249D-03-0.391D-03-0.470D-03 0.127D-02
 Coeff-Com:  0.106D-01 0.194D-01 0.409D-02-0.101D+00-0.144D+00 0.907D-01
 Coeff-Com:  0.405D+00 0.715D+00
 Coeff:      0.675D-04-0.133D-03-0.249D-03-0.391D-03-0.470D-03 0.127D-02
 Coeff:      0.106D-01 0.194D-01 0.409D-02-0.101D+00-0.144D+00 0.907D-01
 Coeff:      0.405D+00 0.715D+00
 Gap=     0.122 Goal=   None    Shift=    0.000
 RMSDP=1.05D-07 MaxDP=6.82D-06 DE=-3.72D-08 OVMax= 5.71D-05

 Cycle  15  Pass 1  IDiag  1:
 RMSU=  3.84D-08    CP:  9.64D-01  1.50D+00  6.88D-01  6.29D-01  8.84D-01
                    CP:  9.20D-01  1.14D+00  1.34D+00  1.76D+00  2.22D+00
                    CP:  1.97D+00  1.91D+00  1.33D+00  1.03D+00
 E= -4069.81192196200     Delta-E=       -0.000000004380 Rises=F Damp=F
 DIIS: error= 3.31D-07 at cycle  15 NSaved=  15.
 NSaved=15 IEnMin=15 EnMin= -4069.81192196200     IErMin=15 ErrMin= 3.31D-07
 ErrMax= 3.31D-07  0.00D+00 EMaxC= 1.00D-01 BMatC= 2.27D-10 BMatP= 1.30D-09
 IDIUse=1 WtCom= 1.00D+00 WtEn= 0.00D+00
 Coeff-Com:  0.589D-05-0.997D-05-0.344D-04-0.842D-04-0.298D-03-0.510D-03
 Coeff-Com:  0.119D-02 0.266D-02 0.872D-02 0.934D-03-0.309D-01-0.724D-01
 Coeff-Com:  0.309D-01 0.296D+00 0.764D+00
 Coeff:      0.589D-05-0.997D-05-0.344D-04-0.842D-04-0.298D-03-0.510D-03
 Coeff:      0.119D-02 0.266D-02 0.872D-02 0.934D-03-0.309D-01-0.724D-01
 Coeff:      0.309D-01 0.296D+00 0.764D+00
 Gap=     0.122 Goal=   None    Shift=    0.000
 RMSDP=4.00D-08 MaxDP=2.63D-06 DE=-4.38D-09 OVMax= 2.74D-05

 Cycle  16  Pass 1  IDiag  1:
 RMSU=  1.86D-08    CP:  9.64D-01  1.50D+00  6.88D-01  6.29D-01  8.84D-01
                    CP:  9.20D-01  1.14D+00  1.34D+00  1.76D+00  2.23D+00
                    CP:  2.00D+00  1.97D+00  1.41D+00  1.24D+00  1.15D+00
 E= -4069.81192196276     Delta-E=       -0.000000000757 Rises=F Damp=F
 DIIS: error= 1.77D-07 at cycle  16 NSaved=  16.
 NSaved=16 IEnMin=16 EnMin= -4069.81192196276     IErMin=16 ErrMin= 1.77D-07
 ErrMax= 1.77D-07  0.00D+00 EMaxC= 1.00D-01 BMatC= 8.37D-11 BMatP= 2.27D-10
 IDIUse=1 WtCom= 1.00D+00 WtEn= 0.00D+00
 Coeff-Com: -0.141D-04 0.285D-04 0.463D-04 0.527D-04-0.284D-04-0.627D-03
 Coeff-Com: -0.189D-02-0.422D-02 0.436D-02 0.252D-01 0.208D-01-0.638D-01
 Coeff-Com: -0.813D-01-0.394D-01 0.397D+00 0.744D+00
 Coeff:     -0.141D-04 0.285D-04 0.463D-04 0.527D-04-0.284D-04-0.627D-03
 Coeff:     -0.189D-02-0.422D-02 0.436D-02 0.252D-01 0.208D-01-0.638D-01
 Coeff:     -0.813D-01-0.394D-01 0.397D+00 0.744D+00
 Gap=     0.122 Goal=   None    Shift=    0.000
 RMSDP=2.30D-08 MaxDP=1.63D-06 DE=-7.57D-10 OVMax= 1.28D-05

 Cycle  17  Pass 1  IDiag  1:
 RMSU=  1.04D-08    CP:  9.64D-01  1.50D+00  6.88D-01  6.29D-01  8.84D-01
                    CP:  9.20D-01  1.14D+00  1.35D+00  1.76D+00  2.23D+00
                    CP:  2.01D+00  2.00D+00  1.46D+00  1.34D+00  1.44D+00
                    CP:  1.25D+00
 E= -4069.81192196308     Delta-E=       -0.000000000327 Rises=F Damp=F
 DIIS: error= 9.52D-08 at cycle  17 NSaved=  17.
 NSaved=17 IEnMin=17 EnMin= -4069.81192196308     IErMin=17 ErrMin= 9.52D-08
 ErrMax= 9.52D-08  0.00D+00 EMaxC= 1.00D-01 BMatC= 1.81D-11 BMatP= 8.37D-11
 IDIUse=1 WtCom= 1.00D+00 WtEn= 0.00D+00
 Coeff-Com: -0.727D-05 0.141D-04 0.286D-04 0.425D-04 0.834D-04-0.126D-03
 Coeff-Com: -0.928D-03-0.281D-02 0.775D-04 0.927D-02 0.175D-01-0.734D-02
 Coeff-Com: -0.357D-01-0.101D+00-0.304D-01 0.292D+00 0.860D+00
 Coeff:     -0.727D-05 0.141D-04 0.286D-04 0.425D-04 0.834D-04-0.126D-03
 Coeff:     -0.928D-03-0.281D-02 0.775D-04 0.927D-02 0.175D-01-0.734D-02
 Coeff:     -0.357D-01-0.101D+00-0.304D-01 0.292D+00 0.860D+00
 Gap=     0.122 Goal=   None    Shift=    0.000
 RMSDP=1.36D-08 MaxDP=1.03D-06 DE=-3.27D-10 OVMax= 8.98D-06

 Cycle  18  Pass 1  IDiag  1:
 RMSU=  4.84D-09    CP:  9.64D-01  1.50D+00  6.88D-01  6.29D-01  8.84D-01
                    CP:  9.20D-01  1.14D+00  1.35D+00  1.76D+00  2.24D+00
                    CP:  2.01D+00  2.00D+00  1.48D+00  1.41D+00  1.61D+00
                    CP:  1.66D+00  1.39D+00
 E= -4069.81192196324     Delta-E=       -0.000000000160 Rises=F Damp=F
 DIIS: error= 5.53D-08 at cycle  18 NSaved=  18.
 NSaved=18 IEnMin=18 EnMin= -4069.81192196324     IErMin=18 ErrMin= 5.53D-08
 ErrMax= 5.53D-08  0.00D+00 EMaxC= 1.00D-01 BMatC= 7.05D-12 BMatP= 1.81D-11
 IDIUse=1 WtCom= 1.00D+00 WtEn= 0.00D+00
 Coeff-Com:  0.195D-05-0.420D-05-0.422D-05-0.133D-05 0.597D-04 0.176D-03
 Coeff-Com:  0.386D-03 0.199D-03-0.123D-02-0.597D-02-0.101D-03 0.195D-01
 Coeff-Com:  0.183D-01-0.319D-01-0.160D+00-0.190D+00 0.349D+00 0.100D+01
 Coeff:      0.195D-05-0.420D-05-0.422D-05-0.133D-05 0.597D-04 0.176D-03
 Coeff:      0.386D-03 0.199D-03-0.123D-02-0.597D-02-0.101D-03 0.195D-01
 Coeff:      0.183D-01-0.319D-01-0.160D+00-0.190D+00 0.349D+00 0.100D+01
 Gap=     0.122 Goal=   None    Shift=    0.000
 RMSDP=1.16D-08 MaxDP=7.72D-07 DE=-1.60D-10 OVMax= 6.63D-06

 Cycle  19  Pass 1  IDiag  1:
 RMSU=  2.79D-09    CP:  9.64D-01  1.50D+00  6.88D-01  6.29D-01  8.84D-01
                    CP:  9.20D-01  1.14D+00  1.35D+00  1.76D+00  2.24D+00
                    CP:  2.02D+00  2.01D+00  1.49D+00  1.45D+00  1.76D+00
                    CP:  1.99D+00  1.94D+00  1.38D+00
 E= -4069.81192196322     Delta-E=        0.000000000029 Rises=F Damp=F
 DIIS: error= 3.31D-08 at cycle  19 NSaved=  19.
 NSaved=19 IEnMin=18 EnMin= -4069.81192196324     IErMin=19 ErrMin= 3.31D-08
 ErrMax= 3.31D-08  0.00D+00 EMaxC= 1.00D-01 BMatC= 1.45D-12 BMatP= 7.05D-12
 IDIUse=1 WtCom= 1.00D+00 WtEn= 0.00D+00
 Coeff-Com:  0.288D-05-0.580D-05-0.981D-05-0.123D-04 0.115D-04 0.116D-03
 Coeff-Com:  0.463D-03 0.792D-03-0.559D-03-0.589D-02-0.488D-02 0.117D-01
 Coeff-Com:  0.200D-01 0.118D-01-0.679D-01-0.178D+00-0.372D-01 0.490D+00
 Coeff-Com:  0.759D+00
 Coeff:      0.288D-05-0.580D-05-0.981D-05-0.123D-04 0.115D-04 0.116D-03
 Coeff:      0.463D-03 0.792D-03-0.559D-03-0.589D-02-0.488D-02 0.117D-01
 Coeff:      0.200D-01 0.118D-01-0.679D-01-0.178D+00-0.372D-01 0.490D+00
 Coeff:      0.759D+00
 Gap=     0.122 Goal=   None    Shift=    0.000
 RMSDP=4.60D-09 MaxDP=3.26D-07 DE= 2.91D-11 OVMax= 3.05D-06

 SCF Done:  E(RCAM-B3LYP) =  -4069.81192196     A.U. after   19 cycles
            NFock= 19  Conv=0.46D-08     -V/T= 2.0102
 KE= 4.028802051253D+03 PE=-3.797874743558D+04 EE= 1.563124879235D+04
 Leave Link  502 at Sat Sep 11 16:06:23 2021, MaxMem= 23488102400 cpu:           12211.1 elap:             533.8
 (Enter /sw/apps/gaussian-16.0/g16/l801.exe)
 DoSCS=F DFT=T ScalE2(SS,OS)=  1.000000  1.000000
 ExpMin= 3.36D-02 ExpMax= 4.95D+03 ExpMxC= 7.45D+02 IAcc=3 IRadAn=         5 AccDes= 0.00D+00
 HarFok:  IExCor=  205 AccDes= 0.00D+00 IRadAn=         5 IDoV=-2 UseB2=F ITyADJ=14
 ICtDFT= 12500011 ScaDFX=  1.000000  1.000000  1.000000  1.000000
 GSVD:  LWork=       -9588 too small for GESVD, short by       45590 words or       45590 for optimal perf.
 Largest valence mixing into a core orbital is  2.03D-04
 Largest core mixing into a valence orbital is  5.24D-05
 Range of M.O.s used for correlation:    95  1572
 NBasis=  1572 NAE=   312 NBE=   312 NFC=    94 NFV=     0
 NROrb=   1478 NOA=   218 NOB=   218 NVA=  1260 NVB=  1260
 Leave Link  801 at Sat Sep 11 16:06:24 2021, MaxMem= 23488102400 cpu:               8.4 elap:               0.4
 (Enter /sw/apps/gaussian-16.0/g16/l914.exe)
 RHF ground state
 Two-electron integrals replicated using symmetry.
 MDV= 23488102400 DFT=T DoStab=F Mixed=T DoRPA=T DoScal=F NonHer=T
 Making orbital integer symmetry assigments:
 Orbital symmetries:
       Occupied  (A) (A) (A) (A) (A) (A) (A) (A) (A) (A) (A) (A)
                 (A) (A) (A) (A) (A) (A) (A) (A) (A) (A) (A) (A)
                 (A) (A) (A) (A) (A) (A) (A) (A) (A) (A) (A) (A)
                 (A) (A) (A) (A) (A) (A) (A) (A) (A) (A) (A) (A)
                 (A) (A) (A) (A) (A) (A) (A) (A) (A) (A) (A) (A)
                 (A) (A) (A) (A) (A) (A) (A) (A) (A) (A) (A) (A)
                 (A) (A) (A) (A) (A) (A) (A) (A) (A) (A) (A) (A)
                 (A) (A) (A) (A) (A) (A) (A) (A) (A) (A) (A) (A)
                 (A) (A) (A) (A) (A) (A) (A) (A) (A) (A) (A) (A)
                 (A) (A) (A) (A) (A) (A) (A) (A) (A) (A) (A) (A)
                 (A) (A) (A) (A) (A) (A) (A) (A) (A) (A) (A) (A)
                 (A) (A) (A) (A) (A) (A) (A) (A) (A) (A) (A) (A)
                 (A) (A) (A) (A) (A) (A) (A) (A) (A) (A) (A) (A)
                 (A) (A) (A) (A) (A) (A) (A) (A) (A) (A) (A) (A)
                 (A) (A) (A) (A) (A) (A) (A) (A) (A) (A) (A) (A)
                 (A) (A) (A) (A) (A) (A) (A) (A) (A) (A) (A) (A)
                 (A) (A) (A) (A) (A) (A) (A) (A) (A) (A) (A) (A)
                 (A) (A) (A) (A) (A) (A) (A) (A) (A) (A) (A) (A)
                 (A) (A) (A) (A) (A) (A) (A) (A) (A) (A) (A) (A)
                 (A) (A) (A) (A) (A) (A) (A) (A) (A) (A) (A) (A)
                 (A) (A) (A) (A) (A) (A) (A) (A) (A) (A) (A) (A)
                 (A) (A) (A) (A) (A) (A) (A) (A) (A) (A) (A) (A)
                 (A) (A) (A) (A) (A) (A) (A) (A) (A) (A) (A) (A)
                 (A) (A) (A) (A) (A) (A) (A) (A) (A) (A) (A) (A)
                 (A) (A) (A) (A) (A) (A) (A) (A) (A) (A) (A) (A)
                 (A) (A) (A) (A) (A) (A) (A) (A) (A) (A) (A) (A)
       Virtual   (A) (A) (A) (A) (A) (A) (A) (A) (A) (A) (A) (A)
                 (A) (A) (A) (A) (A) (A) (A) (A) (A) (A) (A) (A)
                 (A) (A) (A) (A) (A) (A) (A) (A) (A) (A) (A) (A)
                 (A) (A) (A) (A) (A) (A) (A) (A) (A) (A) (A) (A)
                 (A) (A) (A) (A) (A) (A) (A) (A) (A) (A) (A) (A)
                 (A) (A) (A) (A) (A) (A) (A) (A) (A) (A) (A) (A)
                 (A) (A) (A) (A) (A) (A) (A) (A) (A) (A) (A) (A)
                 (A) (A) (A) (A) (A) (A) (A) (A) (A) (A) (A) (A)
                 (A) (A) (A) (A) (A) (A) (A) (A) (A) (A) (A) (A)
                 (A) (A) (A) (A) (A) (A) (A) (A) (A) (A) (A) (A)
                 (A) (A) (A) (A) (A) (A) (A) (A) (A) (A) (A) (A)
                 (A) (A) (A) (A) (A) (A) (A) (A) (A) (A) (A) (A)
                 (A) (A) (A) (A) (A) (A) (A) (A) (A) (A) (A) (A)
                 (A) (A) (A) (A) (A) (A) (A) (A) (A) (A) (A) (A)
                 (A) (A) (A) (A) (A) (A) (A) (A) (A) (A) (A) (A)
                 (A) (A) (A) (A) (A) (A) (A) (A) (A) (A) (A) (A)
                 (A) (A) (A) (A) (A) (A) (A) (A) (A) (A) (A) (A)
                 (A) (A) (A) (A) (A) (A) (A) (A) (A) (A) (A) (A)
                 (A) (A) (A) (A) (A) (A) (A) (A) (A) (A) (A) (A)
                 (A) (A) (A) (A) (A) (A) (A) (A) (A) (A) (A) (A)
                 (A) (A) (A) (A) (A) (A) (A) (A) (A) (A) (A) (A)
                 (A) (A) (A) (A) (A) (A) (A) (A) (A) (A) (A) (A)
                 (A) (A) (A) (A) (A) (A) (A) (A) (A) (A) (A) (A)
                 (A) (A) (A) (A) (A) (A) (A) (A) (A) (A) (A) (A)
                 (A) (A) (A) (A) (A) (A) (A) (A) (A) (A) (A) (A)
                 (A) (A) (A) (A) (A) (A) (A) (A) (A) (A) (A) (A)
                 (A) (A) (A) (A) (A) (A) (A) (A) (A) (A) (A) (A)
                 (A) (A) (A) (A) (A) (A) (A) (A) (A) (A) (A) (A)
                 (A) (A) (A) (A) (A) (A) (A) (A) (A) (A) (A) (A)
                 (A) (A) (A) (A) (A) (A) (A) (A) (A) (A) (A) (A)
                 (A) (A) (A) (A) (A) (A) (A) (A) (A) (A) (A) (A)
                 (A) (A) (A) (A) (A) (A) (A) (A) (A) (A) (A) (A)
                 (A) (A) (A) (A) (A) (A) (A) (A) (A) (A) (A) (A)
                 (A) (A) (A) (A) (A) (A) (A) (A) (A) (A) (A) (A)
                 (A) (A) (A) (A) (A) (A) (A) (A) (A) (A) (A) (A)
                 (A) (A) (A) (A) (A) (A) (A) (A) (A) (A) (A) (A)
                 (A) (A) (A) (A) (A) (A) (A) (A) (A) (A) (A) (A)
                 (A) (A) (A) (A) (A) (A) (A) (A) (A) (A) (A) (A)
                 (A) (A) (A) (A) (A) (A) (A) (A) (A) (A) (A) (A)
                 (A) (A) (A) (A) (A) (A) (A) (A) (A) (A) (A) (A)
                 (A) (A) (A) (A) (A) (A) (A) (A) (A) (A) (A) (A)
                 (A) (A) (A) (A) (A) (A) (A) (A) (A) (A) (A) (A)
                 (A) (A) (A) (A) (A) (A) (A) (A) (A) (A) (A) (A)
                 (A) (A) (A) (A) (A) (A) (A) (A) (A) (A) (A) (A)
                 (A) (A) (A) (A) (A) (A) (A) (A) (A) (A) (A) (A)
                 (A) (A) (A) (A) (A) (A) (A) (A) (A) (A) (A) (A)
                 (A) (A) (A) (A) (A) (A) (A) (A) (A) (A) (A) (A)
                 (A) (A) (A) (A) (A) (A) (A) (A) (A) (A) (A) (A)
                 (A) (A) (A) (A) (A) (A) (A) (A) (A) (A) (A) (A)
                 (A) (A) (A) (A) (A) (A) (A) (A) (A) (A) (A) (A)
                 (A) (A) (A) (A) (A) (A) (A) (A) (A) (A) (A) (A)
                 (A) (A) (A) (A) (A) (A) (A) (A) (A) (A) (A) (A)
                 (A) (A) (A) (A) (A) (A) (A) (A) (A) (A) (A) (A)
                 (A) (A) (A) (A) (A) (A) (A) (A) (A) (A) (A) (A)
                 (A) (A) (A) (A) (A) (A) (A) (A) (A) (A) (A) (A)
                 (A) (A) (A) (A) (A) (A) (A) (A) (A) (A) (A) (A)
                 (A) (A) (A) (A) (A) (A) (A) (A) (A) (A) (A) (A)
                 (A) (A) (A) (A) (A) (A) (A) (A) (A) (A) (A) (A)
                 (A) (A) (A) (A) (A) (A) (A) (A) (A) (A) (A) (A)
                 (A) (A) (A) (A) (A) (A) (A) (A) (A) (A) (A) (A)
                 (A) (A) (A) (A) (A) (A) (A) (A) (A) (A) (A) (A)
                 (A) (A) (A) (A) (A) (A) (A) (A) (A) (A) (A) (A)
                 (A) (A) (A) (A) (A) (A) (A) (A) (A) (A) (A) (A)
                 (A) (A) (A) (A) (A) (A) (A) (A) (A) (A) (A) (A)
                 (A) (A) (A) (A) (A) (A) (A) (A) (A) (A) (A) (A)
                 (A) (A) (A) (A) (A) (A) (A) (A) (A) (A) (A) (A)
                 (A) (A) (A) (A) (A) (A) (A) (A) (A) (A) (A) (A)
                 (A) (A) (A) (A) (A) (A) (A) (A) (A) (A) (A) (A)
                 (A) (A) (A) (A) (A) (A) (A) (A) (A) (A) (A) (A)
                 (A) (A) (A) (A) (A) (A) (A) (A) (A) (A) (A) (A)
                 (A) (A) (A) (A) (A) (A) (A) (A) (A) (A) (A) (A)
                 (A) (A) (A) (A) (A) (A) (A) (A) (A) (A) (A) (A)
                 (A) (A) (A) (A) (A) (A) (A) (A) (A) (A) (A) (A)
                 (A) (A) (A) (A) (A) (A) (A) (A) (A) (A) (A) (A)
                 (A) (A) (A) (A) (A) (A) (A) (A) (A) (A) (A) (A)
                 (A) (A) (A) (A) (A) (A) (A) (A) (A) (A) (A) (A)
                 (A) (A) (A) (A) (A) (A) (A) (A) (A) (A) (A) (A)
                 (A) (A) (A) (A) (A) (A) (A) (A) (A) (A) (A) (A)
                 (A) (A) (A) (A) (A) (A) (A) (A) (A) (A) (A) (A)
                 (A) (A) (A) (A) (A) (A) (A) (A) (A) (A) (A) (A)
                 (A) (A) (A) (A) (A) (A) (A) (A) (A) (A) (A) (A)
                 (A) (A) (A) (A) (A) (A) (A) (A) (A) (A) (A) (A)
                 (A) (A) (A) (A) (A) (A) (A) (A) (A) (A) (A) (A)
                 (A) (A) (A) (A) (A) (A) (A) (A) (A) (A) (A) (A)
                 (A) (A) (A) (A) (A) (A) (A) (A) (A) (A) (A) (A)
                 (A) (A) (A) (A) (A) (A) (A) (A) (A) (A) (A) (A)
                 (A) (A) (A) (A) (A) (A) (A) (A) (A) (A) (A) (A)
                 (A) (A) (A) (A) (A) (A) (A) (A) (A) (A) (A) (A)
                 (A) (A) (A) (A) (A) (A) (A) (A) (A) (A) (A) (A)
                 (A) (A) (A) (A) (A) (A) (A) (A) (A) (A) (A) (A)
                 (A) (A) (A) (A) (A) (A) (A) (A) (A) (A) (A) (A)
                 (A) (A) (A) (A) (A) (A) (A) (A) (A) (A) (A) (A)
                 (A) (A) (A) (A) (A) (A) (A) (A) (A) (A) (A) (A)
                 (A) (A) (A) (A) (A) (A) (A) (A) (A) (A) (A) (A)
                 (A) (A) (A) (A) (A) (A) (A) (A) (A) (A) (A) (A)
                 (A) (A) (A) (A) (A) (A) (A) (A) (A) (A) (A) (A)
                 (A) (A) (A) (A) (A) (A) (A) (A) (A) (A) (A) (A)
                 (A) (A) (A) (A) (A) (A) (A) (A) (A) (A) (A) (A)
                 (A) (A) (A) (A) (A) (A) (A) (A) (A) (A) (A) (A)
                 (A) (A) (A) (A) (A) (A) (A) (A) (A) (A) (A) (A)
                 (A) (A) (A) (A) (A) (A) (A) (A) (A) (A) (A) (A)
                 (A) (A) (A) (A) (A) (A) (A) (A) (A) (A) (A) (A)
                 (A) (A) (A) (A) (A) (A) (A) (A) (A) (A) (A) (A)
                 (A) (A) (A) (A) (A) (A) (A) (A) (A) (A) (A) (A)
                 (A) (A) (A) (A) (A) (A) (A) (A) (A) (A) (A) (A)
    20 initial guesses have been made.
 Convergence on wavefunction:    0.001000000000000
 Davidson Disk Diagonalization:  ConvIn= 1.00D-03 SkipCon=T Conv= 1.00D-03.
 Max sub-space:  2000 roots to seek:    20 dimension of matrix:       549360
 Iteration     1 Dimension    20 NMult     0 NNew     20
 CISAX will form    20 AO SS matrices at one time.
 NMat=    20 NSing=    20 JSym2X= 0.
 FoFJK:  IHMeth= 1 ICntrl=       0 DoSepK=T KAlg= 0 I1Cent=           0 FoldK=F
 IRaf=         1 NMat=      40 IRICut=       1 DoRegI=T DoRafI=F ISym2E= 0 IDoP0=3 IntGTp=3.
 FoFCou: FMM=T IPFlag=           0 FMFlag=      100000 FMFlg1=        2001
         NFxFlg=           0 DoJE=F BraDBF=F KetDBF=F FulRan=T
         wScrn=  0.000000 ICntrl=       500 IOpCl=  0 I1Cent=           0 NGrid=           0
         NMat0=   20 NMatS0=     20 NMatT0=    0 NMatD0=   20 NMtDS0=    0 NMtDT0=    0
 Symmetry not used in FoFCou.
 FMM levels:  10  Number of levels for PrismC:   9
 New state      1 was old state      7
 New state      2 was old state      6
 New state      3 was old state      1
 New state      4 was old state      2
 New state      5 was old state      3
 Excitation Energies [eV] at current iteration:
 Root      1 :     2.612982601366000
 Root      2 :     2.620475087198600
 Root      3 :     2.646537810735814
 Root      4 :     2.668448010181343
 Root      5 :     2.701838763887940
 Root      6 :     2.741694363998667
 Root      7 :     3.435455531971164
 Root      8 :     3.542906401195566
 Root      9 :     3.627650007426305
 Root     10 :     3.670013216473532
 Root     11 :     3.738440751787249
 Root     12 :     3.758889321720563
 Root     13 :     4.290037571236478
 Root     14 :     4.317596825632566
 Root     15 :     4.553724054632360
 Root     16 :     4.675422472157996
 Root     17 :     4.865462204178994
 Root     18 :     4.901064365361669
 Root     19 :     4.967718094914304
 Root     20 :     5.001541937198263
 Iteration     2 Dimension    30 NMult    20 NNew     10
 CISAX will form    10 AO SS matrices at one time.
 NMat=    10 NSing=    10 JSym2X= 0.
 New state      1 was old state      4
 Root      1 not converged, maximum delta is    0.156619389660691
 New state      2 was old state      5
 Root      2 not converged, maximum delta is    0.160878249186287
 New state      3 was old state      2
 Root      3 not converged, maximum delta is    0.436933136763866
 New state      4 was old state      1
 Root      4 not converged, maximum delta is    0.425812086187786
 New state      5 was old state      3
 Root      5 not converged, maximum delta is    0.001202263323646
 Excitation Energies [eV] at current iteration:
 Root      1 :     1.795598293214279   Change is   -0.872849716967064
 Root      2 :     1.811463257469956   Change is   -0.890375506417984
 Root      3 :     2.234803547698443   Change is   -0.385671539500157
 Root      4 :     2.240091799433442   Change is   -0.372890801932558
 Root      5 :     2.646365410183545   Change is   -0.000172400552269
 Iteration     3 Dimension    40 NMult    30 NNew     10
 CISAX will form    10 AO SS matrices at one time.
 NMat=    10 NSing=    10 JSym2X= 0.
 Root      1 not converged, maximum delta is    0.057191302745038
 Root      2 not converged, maximum delta is    0.058266196460509
 Root      3 not converged, maximum delta is    0.114508078003195
 Root      4 not converged, maximum delta is    0.114038078121394
 Root      5 has converged.
 Excitation Energies [eV] at current iteration:
 Root      1 :     1.688708328768472   Change is   -0.106889964445807
 Root      2 :     1.702960481821178   Change is   -0.108502775648778
 Root      3 :     2.192960614909772   Change is   -0.041842932788671
 Root      4 :     2.201042886919280   Change is   -0.039048912514162
 Root      5 :     2.646364617121498   Change is   -0.000000793062047
 Iteration     4 Dimension    48 NMult    40 NNew      8
 CISAX will form     8 AO SS matrices at one time.
 NMat=     8 NSing=     8 JSym2X= 0.
 Root      1 not converged, maximum delta is    0.011093370627515
 Root      2 not converged, maximum delta is    0.011095075322094
 Root      3 not converged, maximum delta is    0.011860295210553
 Root      4 not converged, maximum delta is    0.011756165828010
 Root      5 has converged.
 Excitation Energies [eV] at current iteration:
 Root      1 :     1.671980100917302   Change is   -0.016728227851170
 Root      2 :     1.686097138096396   Change is   -0.016863343724782
 Root      3 :     2.185597616333617   Change is   -0.007362998576155
 Root      4 :     2.194267996001220   Change is   -0.006774890918059
 Root      5 :     2.646364617118639   Change is   -0.000000000002858
 Iteration     5 Dimension    56 NMult    48 NNew      8
 CISAX will form     8 AO SS matrices at one time.
 NMat=     8 NSing=     8 JSym2X= 0.
 Root      1 not converged, maximum delta is    0.001782118125381
 Root      2 not converged, maximum delta is    0.001832077407545
 Root      3 not converged, maximum delta is    0.002516300315239
 Root      4 not converged, maximum delta is    0.002321802336473
 Root      5 has converged.
 Excitation Energies [eV] at current iteration:
 Root      1 :     1.670216003380456   Change is   -0.001764097536846
 Root      2 :     1.684313397031928   Change is   -0.001783741064468
 Root      3 :     2.184736797216106   Change is   -0.000860819117510
 Root      4 :     2.193495826776786   Change is   -0.000772169224434
 Root      5 :     2.646364617118081   Change is   -0.000000000000559
 Iteration     6 Dimension    64 NMult    56 NNew      8
 CISAX will form     8 AO SS matrices at one time.
 NMat=     8 NSing=     8 JSym2X= 0.
 Root      1 not converged, maximum delta is    0.001121141585010
 Root      2 not converged, maximum delta is    0.001132253521933
 Root      3 not converged, maximum delta is    0.001076277766081
 Root      4 has converged.
 Root      5 has converged.
 Excitation Energies [eV] at current iteration:
 Root      1 :     1.669964463407792   Change is   -0.000251539972664
 Root      2 :     1.684057494050307   Change is   -0.000255902981621
 Root      3 :     2.184606285662707   Change is   -0.000130511553399
 Root      4 :     2.193378110658283   Change is   -0.000117716118503
 Root      5 :     2.646364617117801   Change is   -0.000000000000280
 Iteration     7 Dimension    70 NMult    64 NNew      6
 CISAX will form     6 AO SS matrices at one time.
 NMat=     6 NSing=     6 JSym2X= 0.
 Root      1 has converged.
 Root      2 has converged.
 Root      3 has converged.
 Root      4 has converged.
 Root      5 has converged.
 Excitation Energies [eV] at current iteration:
 Root      1 :     1.669940056339699   Change is   -0.000024407068093
[...]
 Alpha virt. eigenvalues --    1.84424   1.84578   1.84787   1.84870   1.85075
 Alpha virt. eigenvalues --    1.85183   1.85249   1.85384   1.85477   1.85555
 Alpha virt. eigenvalues --    1.85844   1.85971   1.86343   1.86441   1.86535
 Alpha virt. eigenvalues --    1.86715   1.86759   1.86873   1.87003   1.87106
 Alpha virt. eigenvalues --    1.87415   1.87557   1.87642   1.87844   1.87845
 Alpha virt. eigenvalues --    1.88015   1.88072   1.88248   1.88510   1.88653
 Alpha virt. eigenvalues --    1.88787   1.89033   1.89109   1.89159   1.89608
 Alpha virt. eigenvalues --    1.89723   1.89727   1.89925   1.90091   1.90263
 Alpha virt. eigenvalues --    1.90717   1.90975   1.91315   1.91416   1.91481
 Alpha virt. eigenvalues --    1.91708   1.92126   1.92273   1.92572   1.92745
 Alpha virt. eigenvalues --    1.92960   1.93220   1.93323   1.93555   1.94261
 Alpha virt. eigenvalues --    1.94363   1.94671   1.94870   1.95465   1.95640
 Alpha virt. eigenvalues --    1.95688   1.95899   1.95951   1.96122   1.96136
 Alpha virt. eigenvalues --    1.96255   1.96551   1.96568   1.96873   1.97012
 Alpha virt. eigenvalues --    1.97424   1.97607   1.97813   1.97878   1.98133
 Alpha virt. eigenvalues --    1.98256   1.98435   1.98609   1.99097   1.99145
 Alpha virt. eigenvalues --    1.99776   2.00023   2.00639   2.00793   2.00957
 Alpha virt. eigenvalues --    2.01169   2.01421   2.01555   2.01653   2.01674
 Alpha virt. eigenvalues --    2.01685   2.01911   2.02751   2.02781   2.03199
 Alpha virt. eigenvalues --    2.03212   2.03363   2.03437   2.03454   2.03594
 Alpha virt. eigenvalues --    2.04000   2.04095   2.04937   2.05031   2.05493
 Alpha virt. eigenvalues --    2.05681   2.06053   2.06342   2.06847   2.07118
 Alpha virt. eigenvalues --    2.07157   2.07413   2.08575   2.08581   2.08951
 Alpha virt. eigenvalues --    2.09079   2.09548   2.09680   2.10771   2.11077
 Alpha virt. eigenvalues --    2.11155   2.11470   2.11485   2.11619   2.11699
 Alpha virt. eigenvalues --    2.11942   2.12425   2.12552   2.12781   2.12808
 Alpha virt. eigenvalues --    2.12862   2.12951   2.13709   2.13746   2.14126
 Alpha virt. eigenvalues --    2.14302   2.15309   2.15461   2.15888   2.16169
 Alpha virt. eigenvalues --    2.16505   2.16660   2.16728   2.17235   2.17387
 Alpha virt. eigenvalues --    2.17679   2.17694   2.18027   2.18052   2.18057
 Alpha virt. eigenvalues --    2.18276   2.18753   2.18817   2.19328   2.19601
 Alpha virt. eigenvalues --    2.19900   2.19999   2.20179   2.20311   2.20516
 Alpha virt. eigenvalues --    2.21145   2.21210   2.21643   2.21704   2.21828
 Alpha virt. eigenvalues --    2.21938   2.22654   2.22776   2.23292   2.23396
 Alpha virt. eigenvalues --    2.24375   2.24465   2.24954   2.25042   2.26253
 Alpha virt. eigenvalues --    2.26517   2.26754   2.27060   2.27073   2.27276
 Alpha virt. eigenvalues --    2.28102   2.28415   2.29243   2.29510   2.29695
 Alpha virt. eigenvalues --    2.29958   2.30408   2.30713   2.30917   2.31037
 Alpha virt. eigenvalues --    2.31126   2.31261   2.32101   2.32287   2.33094
 Alpha virt. eigenvalues --    2.33313   2.33428   2.33544   2.34115   2.34206
 Alpha virt. eigenvalues --    2.35311   2.35376   2.35759   2.35996   2.36341
 Alpha virt. eigenvalues --    2.36392   2.36487   2.36594   2.37646   2.37724
 Alpha virt. eigenvalues --    2.38242   2.38418   2.38803   2.38877   2.39578
 Alpha virt. eigenvalues --    2.39732   2.40157   2.40313   2.40441   2.40917
 Alpha virt. eigenvalues --    2.41214   2.41298   2.41667   2.41740   2.41986
 Alpha virt. eigenvalues --    2.42199   2.42856   2.42932   2.43150   2.43440
 Alpha virt. eigenvalues --    2.44033   2.44122   2.44698   2.44864   2.44868
 Alpha virt. eigenvalues --    2.45062   2.45523   2.45625   2.46282   2.46337
 Alpha virt. eigenvalues --    2.46445   2.46543   2.46760   2.46862   2.47225
 Alpha virt. eigenvalues --    2.47424   2.47685   2.47934   2.49294   2.49423
 Alpha virt. eigenvalues --    2.49930   2.50055   2.50495   2.50535   2.51071
 Alpha virt. eigenvalues --    2.51341   2.51656   2.51842   2.52383   2.52474
 Alpha virt. eigenvalues --    2.52770   2.53246   2.53893   2.54016   2.54135
 Alpha virt. eigenvalues --    2.54304   2.54760   2.54854   2.55495   2.55712
 Alpha virt. eigenvalues --    2.57838   2.58126   2.58619   2.58962   2.60154
 Alpha virt. eigenvalues --    2.60376   2.60564   2.61003   2.61686   2.61869
 Alpha virt. eigenvalues --    2.62487   2.62490   2.62920   2.63181   2.63898
 Alpha virt. eigenvalues --    2.64232   2.64296   2.64455   2.65047   2.65152
 Alpha virt. eigenvalues --    2.65737   2.65936   2.66757   2.66856   2.66880
 Alpha virt. eigenvalues --    2.67128   2.67881   2.68038   2.68819   2.68858
 Alpha virt. eigenvalues --    2.68975   2.69099   2.69367   2.69652   2.69965
 Alpha virt. eigenvalues --    2.70182   2.70941   2.71135   2.71941   2.72004
 Alpha virt. eigenvalues --    2.72544   2.72606   2.72750   2.72807   2.73261
 Alpha virt. eigenvalues --    2.73312   2.73447   2.73528   2.74475   2.74550
 Alpha virt. eigenvalues --    2.74935   2.75104   2.76561   2.76566   2.77111
 Alpha virt. eigenvalues --    2.77190   2.77423   2.77644   2.78168   2.78314
 Alpha virt. eigenvalues --    2.78681   2.78727   2.79097   2.79209   2.80281
 Alpha virt. eigenvalues --    2.80309   2.80529   2.80742   2.81077   2.81187
 Alpha virt. eigenvalues --    2.81893   2.82039   2.82314   2.82376   2.83702
 Alpha virt. eigenvalues --    2.83743   2.83865   2.83953   2.84519   2.84552
 Alpha virt. eigenvalues --    2.84862   2.84910   2.85643   2.85713   2.86693
 Alpha virt. eigenvalues --    2.86953   2.87230   2.87533   2.88131   2.88253
 Alpha virt. eigenvalues --    2.88479   2.88655   2.88898   2.88904   2.90454
 Alpha virt. eigenvalues --    2.90714   2.91106   2.91169   2.93111   2.93375
 Alpha virt. eigenvalues --    2.93812   2.94167   2.94540   2.94585   2.95307
 Alpha virt. eigenvalues --    2.95551   2.95906   2.96122   2.96403   2.96409
 Alpha virt. eigenvalues --    2.96929   2.97104   2.97749   2.98043   2.98174
 Alpha virt. eigenvalues --    2.98339   2.98427   2.98571   2.98624   2.98821
 Alpha virt. eigenvalues --    2.98857   2.98949   2.99572   2.99807   2.99969
 Alpha virt. eigenvalues --    3.00073   3.00178   3.00355   3.00413   3.01061
 Alpha virt. eigenvalues --    3.01943   3.01968   3.01996   3.02178   3.02658
 Alpha virt. eigenvalues --    3.02857   3.02923   3.03303   3.03362   3.03795
 Alpha virt. eigenvalues --    3.04113   3.04150   3.04425   3.04467   3.04523
 Alpha virt. eigenvalues --    3.04752   3.05283   3.05369   3.06080   3.06198
 Alpha virt. eigenvalues --    3.06749   3.06996   3.07936   3.08128   3.09347
 Alpha virt. eigenvalues --    3.09364   3.09646   3.10399   3.10510   3.10803
 Alpha virt. eigenvalues --    3.11317   3.11491   3.11882   3.11906   3.12174
 Alpha virt. eigenvalues --    3.12374   3.13233   3.13624   3.13696   3.13710
 Alpha virt. eigenvalues --    3.14011   3.14534   3.15917   3.15989   3.17232
 Alpha virt. eigenvalues --    3.17550   3.17877   3.18062   3.19046   3.19106
 Alpha virt. eigenvalues --    3.22223   3.22646   3.23914   3.24472   3.24626
 Alpha virt. eigenvalues --    3.25229   3.26474   3.26688   3.27431   3.27586
 Alpha virt. eigenvalues --    3.29014   3.29272   3.31411   3.31491   3.33216
 Alpha virt. eigenvalues --    3.33390   3.40318   3.40531   3.42795   3.42827
 Alpha virt. eigenvalues --    3.48622   3.48730   3.49992   3.50315   3.50873
 Alpha virt. eigenvalues --    3.51445   3.56524   3.57028   3.59077   3.59363
 Alpha virt. eigenvalues --    3.62544   3.62803   3.66108   3.66168   3.67097
 Alpha virt. eigenvalues --    3.67596   3.73194   3.74067   3.75991   3.76722
          Condensed to atoms (all electrons):
 Mulliken charges:
               1
     1  Mg   0.838591
     2  C   -0.003272
     3  C   -0.094262
     4  C   -0.045764
     5  C   -0.063719
     6  N   -0.256777
     7  C   -0.052597
     8  C   -0.014024
     9  C   -0.086977
    10  C    0.046215
    11  C    0.104776
    12  C    0.053549
    13  C   -0.071451
    14  H    0.034883
    15  N   -0.433181
    16  C    0.168435
    17  C   -0.177122
    18  C   -0.003879
    19  C    0.148685
    20  C    0.110141
    21  C    0.012331
    22  O   -0.249531
    23  C    0.062441
    24  N   -0.341120
    25  C    0.041273
    26  C   -0.028217
    27  C   -0.024019
    28  C    0.074780
    29  C    0.076132
    30  C    0.035075
    31  C   -0.004587
    32  N   -0.310443
    33  C    0.080314
    34  C   -0.169543
    35  C    0.008284
    36  C    0.082895
    37  C    0.127303
    38  C    0.046005
    39  O   -0.188582
    40  C   -0.005339
    41  C    0.212957
    42  O   -0.257833
    43  O   -0.304528
    44  C    0.157949
    45  H   -0.017559
    46  H   -0.016687
    47  H   -0.041137
    48  H    0.000926
    49  H   -0.004166
    50  H    0.025521
    51  H    0.016652
    52  H    0.016708
    53  H    0.011116
    54  H    0.043539
    55  H    0.018198
    56  H    0.018034
    57  H    0.005791
    58  H    0.026986
    59  H    0.039695
    60  H    0.037409
    61  H    0.035811
    62  H    0.031629
    63  H    0.016606
    64  H    0.009632
    65  H    0.023331
    66  H    0.012530
    67  H    0.004919
    68  H    0.006536
    69  H    0.005088
    70  H    0.008605
    71  H    0.018683
    72  H    0.028716
    73  H    0.047636
    74  H    0.009493
    75  H    0.046087
    76  H    0.035268
    77  H    0.043076
    78  H    0.046291
    79  H    0.052791
    80  Mg   0.837966
    81  C   -0.016776
    82  C   -0.087609
    83  C   -0.045825
    84  C   -0.064990
    85  N   -0.254669
    86  C   -0.049309
    87  C   -0.015214
    88  C   -0.090600
    89  C    0.045909
    90  C    0.114348
    91  C    0.062491
    92  C   -0.077847
    93  H    0.034359
    94  N   -0.423482
    95  C    0.162881
    96  C   -0.174731
    97  C   -0.008180
    98  C    0.152227
    99  C    0.099477
   100  C    0.015283
   101  O   -0.253622
   102  C    0.061308
   103  N   -0.350057
   104  C    0.037627
   105  C   -0.019829
   106  C   -0.034801
   107  C    0.088999
   108  C    0.073694
   109  C    0.034788
   110  C   -0.007611
   111  N   -0.324152
   112  C    0.078612
   113  C   -0.163244
   114  C    0.002399
   115  C    0.096209
   116  C    0.131471
   117  C    0.042371
   118  O   -0.187881
   119  C    0.000951
   120  C    0.211183
   121  O   -0.251356
   122  O   -0.305228
   123  C    0.152142
   124  H   -0.019361
   125  H   -0.016038
   126  H   -0.040697
   127  H    0.000288
   128  H   -0.004644
   129  H    0.023817
   130  H    0.014521
   131  H    0.017734
   132  H    0.013540
   133  H    0.037367
   134  H    0.021644
   135  H    0.019398
   136  H    0.008932
   137  H    0.025567
   138  H    0.039445
   139  H    0.037904
   140  H    0.035927
   141  H    0.033910
   142  H    0.014094
   143  H    0.012494
   144  H    0.024669
   145  H    0.011563
   146  H    0.005939
   147  H    0.006042
   148  H    0.003559
   149  H    0.010757
   150  H    0.017714
   151  H    0.030240
   152  H    0.045827
   153  H    0.008283
   154  H    0.046982
   155  H    0.036052
   156  H    0.043976
   157  H    0.049657
   158  H    0.053216
 Sum of Mulliken charges =  -0.00000
 Mulliken charges with hydrogens summed into heavy atoms:
               1
     1  Mg   0.838591
     2  C   -0.003272
     3  C   -0.111821
     4  C   -0.062451
     5  C   -0.104856
     6  N   -0.256777
     7  C   -0.052597
     8  C   -0.013098
     9  C   -0.091143
    10  C    0.046215
    11  C    0.163657
    12  C    0.108203
    13  C   -0.000335
    15  N   -0.433181
    16  C    0.168435
    17  C   -0.177122
    18  C   -0.003879
    19  C    0.148685
    20  C    0.182614
    21  C    0.012331
    22  O   -0.249531
    23  C    0.167290
    24  N   -0.341120
    25  C    0.041273
    26  C   -0.011611
    27  C   -0.014387
    28  C    0.074780
    29  C    0.116912
    30  C    0.046700
    31  C    0.051417
    32  N   -0.310443
    33  C    0.080314
    34  C   -0.169543
    35  C    0.008284
    36  C    0.082895
    37  C    0.230519
    38  C    0.046005
    39  O   -0.188582
    40  C    0.029929
    41  C    0.212957
    42  O   -0.257833
    43  O   -0.304528
    44  C    0.300107
    80  Mg   0.837966
    81  C   -0.016776
    82  C   -0.106969
    83  C   -0.061863
    84  C   -0.105687
    85  N   -0.254669
    86  C   -0.049309
    87  C   -0.014926
    88  C   -0.095244
    89  C    0.045909
    90  C    0.170419
    91  C    0.113398
    92  C   -0.002447
    94  N   -0.423482
    95  C    0.162881
    96  C   -0.174731
    97  C   -0.008180
    98  C    0.152227
    99  C    0.173421
   100  C    0.015283
   101  O   -0.253622
   102  C    0.169048
   103  N   -0.350057
   104  C    0.037627
   105  C   -0.005734
   106  C   -0.022307
   107  C    0.088999
   108  C    0.115865
   109  C    0.044389
   110  C    0.051100
   111  N   -0.324152
   112  C    0.078612
   113  C   -0.163244
   114  C    0.002399
   115  C    0.096209
   116  C    0.232563
   117  C    0.042371
   118  O   -0.187881
   119  C    0.037003
   120  C    0.211183
   121  O   -0.251356
   122  O   -0.305228
   123  C    0.298991
 Electronic spatial extent (au):  <R**2>=         150038.2221
 Charge=             -0.0000 electrons
 Dipole moment (field-independent basis, Debye):
    X=             -4.6243    Y=              2.0295    Z=              6.4104  Tot=              8.1606
 Quadrupole moment (field-independent basis, Debye-Ang):
   XX=           -518.0594   YY=           -529.7873   ZZ=           -469.7658
   XY=            -18.0385   XZ=              3.9348   YZ=            -28.7943
 Traceless Quadrupole moment (field-independent basis, Debye-Ang):
   XX=            -12.1886   YY=            -23.9164   ZZ=             36.1050
   XY=            -18.0385   XZ=              3.9348   YZ=            -28.7943
 Octapole moment (field-independent basis, Debye-Ang**2):
  XXX=           -630.3788  YYY=           -160.4252  ZZZ=            154.4903  XYY=            269.4033
  XXY=            112.8423  XXZ=            374.2493  XZZ=           -271.0391  YZZ=            -17.8972
  YYZ=             84.1187  XYZ=           -281.8935
 Hexadecapole moment (field-independent basis, Debye-Ang**3):
 XXXX=        -140174.2020 YYYY=         -38724.0717 ZZZZ=         -27306.6302 XXXY=           -284.5507
 XXXZ=            -57.0985 YYYX=          -2146.3901 YYYZ=           -234.5698 ZZZX=           1375.1981
 ZZZY=           -702.1193 XXYY=         -29793.7761 XXZZ=         -26272.7581 YYZZ=         -11121.2404
 XXYZ=          -1115.8952 YYXZ=          -1958.7015 ZZXY=            533.3538
 N-N= 1.424888467001D+04 E-N=-3.797874742758D+04  KE= 4.028802051253D+03
 Leave Link  601 at Sat Sep 11 16:27:52 2021, MaxMem= 23488102400 cpu:              16.8 elap:               0.8
 (Enter /sw/apps/gaussian-16.0/g16/l9999.exe)
 1\1\GINC-BP1-COMPUTE00091\SP\RCAM-B3LYP TD-FC\def2SVP\C68H72Mg2N8O8\OF
 15641\11-Sep-2021\0\\#p cam-b3lyp/Def2SVP td=(nstates=5)\\TDDFT excite
 d states in gaussian\\0,1\Mg,0,0.,0.,0.\C,0,-0.217,-2.218,2.801\C,0,-1
 .255,2.442,2.026\C,0,-0.245,1.85,-2.564\C,0,0.146,-2.824,-2.037\N,0,-0
 .617,-0.009,2.126\C,0,-0.594,-0.908,3.105\C,0,-0.936,-0.309,4.502\C,0,
 -1.773,0.964,4.032\C,0,-1.155,1.168,2.66\C,0,-3.263,0.685,3.863\C,0,0.
 345,0.11,5.299\C,0,0.124,0.397,6.787\H,0,1.168,0.033,7.733\N,0,-0.185,
 1.961,-0.152\C,0,-0.703,2.8,0.777\C,0,-0.62,4.156,0.193\C,0,-0.187,4.0
 15,-1.225\C,0,-0.214,2.583,-1.38\C,0,-0.887,5.406,0.974\C,0,0.181,5.01
 3,-2.277\O,0,0.303,4.69,-3.508\C,0,0.31,6.414,-1.837\N,0,-0.265,-0.413
 ,-2.029\C,0,-0.279,0.569,-2.937\C,0,-0.196,0.024,-4.332\C,0,0.124,-1.5
 33,-4.18\C,0,0.086,-1.632,-2.635\C,0,-1.451,0.205,-5.197\C,0,1.373,-2.
 07,-4.923\C,0,2.626,-1.49,-4.306\N,0,0.15,-2.144,0.303\C,0,0.173,-3.13
 6,-0.688\C,0,0.173,-4.438,0.004\C,0,0.133,-4.111,1.358\C,0,0.083,-2.69
 5,1.502\C,0,0.149,-5.715,-0.623\C,0,0.096,-4.629,2.716\O,0,0.208,-5.74
 7,3.221\C,0,-0.255,-3.428,3.701\C,0,0.717,-3.482,4.848\O,0,1.931,-3.25
 5,4.669\O,0,0.038,-3.556,6.003\C,0,0.943,-3.583,7.183\H,0,-1.859,3.22,
 2.497\H,0,-0.218,2.453,-3.474\H,0,0.276,-3.747,-2.605\H,0,-1.554,-0.94
 9,5.132\H,0,-1.585,1.831,4.665\H,0,-3.484,-0.377,3.969\H,0,-3.511,1.02
 7,2.858\H,0,-3.852,1.301,4.543\H,0,0.669,1.096,4.966\H,0,1.13,-0.639,5
 .189\H,0,-0.844,0.026,7.125\H,0,0.062,1.477,6.921\H,0,-1.344,5.186,1.9
 38\H,0,-1.651,5.963,0.432\H,0,0.007,6.02,1.084\H,0,-0.635,6.744,-1.405
 \H,0,0.665,6.97,-2.704\H,0,1.048,6.466,-1.036\H,0,0.608,0.501,-4.891\H
 ,0,-0.692,-2.156,-4.547\H,0,-1.267,0.74,-6.129\H,0,-2.204,0.714,-4.596
 \H,0,-1.967,-0.72,-5.453\H,0,1.356,-1.759,-5.967\H,0,1.452,-3.157,-4.9
 02\H,0,2.714,-0.522,-4.798\H,0,3.487,-2.121,-4.529\H,0,2.495,-1.303,-3
 .24\H,0,0.867,-6.333,-0.084\H,0,0.404,-5.642,-1.68\H,0,-0.891,-5.999,-
 0.463\H,0,-1.283,-3.581,4.028\H,0,0.698,-4.478,7.755\H,0,0.833,-2.619,
 7.68\H,0,2.,-3.754,6.976\Mg,0,13.14546,1.18073,1.00582\C,0,13.27255,-2
 .40222,0.84654\C,0,12.04803,0.84994,4.21842\C,0,12.59309,4.30507,1.033
 79\C,0,13.13963,1.19685,-2.47921\N,0,12.7515,-0.59876,2.25901\C,0,12.8
 9444,-1.90731,2.11206\C,0,12.69445,-2.72654,3.41529\C,0,11.77456,-1.68
 244,4.21688\C,0,12.23965,-0.38762,3.55371\C,0,10.28988,-1.85353,3.9416
 1\C,0,14.046,-2.99534,4.16567\C,0,13.96759,-4.0464,5.27512\H,0,15.1188
 4,-4.91867,5.49017\N,0,12.90114,2.42811,2.52993\C,0,12.46914,2.12153,3
 .77116\C,0,12.44409,3.39136,4.51351\C,0,12.73886,4.49692,3.56191\C,0,1
 2.73519,3.77244,2.30684\C,0,12.2386,3.46164,5.99886\C,0,12.97127,5.965
 65,3.74902\O,0,12.97427,6.77852,2.75802\C,0,13.10221,6.4373,5.13534\N,
 0,12.68822,2.54521,-0.49467\C,0,12.54979,3.85416,-0.22005\C,0,12.49726
 ,4.67468,-1.4867\C,0,12.87367,3.6651,-2.6685\C,0,12.99691,2.35799,-1.8
 5507\C,0,11.15547,5.33938,-1.79356\C,0,14.05214,4.07343,-3.59433\C,0,1
 5.3497,4.04986,-2.81898\N,0,13.38125,-0.29261,-0.55678\C,0,13.31887,-0
 .07511,-1.95066\C,0,13.42273,-1.39671,-2.60259\C,0,13.51592,-2.30072,-
 1.53368\C,0,13.45284,-1.59435,-0.30219\C,0,13.37467,-1.63885,-4.00444\
 C,0,13.64261,-3.6929,-1.16697\O,0,13.82615,-4.74078,-1.78502\C,0,13.36
 347,-3.83238,0.39156\C,0,14.4498,-4.68813,0.98324\O,0,15.62847,-4.2917
 8,0.99923\O,0,13.88988,-5.73034,1.62408\C,0,14.92691,-6.60238,2.23721\
 H,0,11.48469,0.85567,5.15197\H,0,12.51092,5.39333,0.98447\H,0,13.24408
 ,1.12617,-3.564\H,0,12.16694,-3.664,3.28611\H,0,12.01577,-1.67605,5.27
 666\H,0,10.10569,-2.57442,3.15896\H,0,9.93061,-0.87597,3.64777\H,0,9.7
 6144,-2.10348,4.86606\H,0,14.30626,-2.11152,4.76222\H,0,14.82086,-3.25
 892,3.47231\H,0,13.04404,-4.63547,5.22033\H,0,13.90051,-3.53167,6.2366
 7\H,0,11.88321,2.50509,6.40149\H,0,11.40914,4.15521,6.17444\H,0,13.121
 32,3.82483,6.52949\H,0,12.20204,6.18299,5.68986\H,0,13.35257,7.49733,5
 .06097\H,0,13.92834,5.89782,5.61186\H,0,13.22831,5.47342,-1.46065\H,0,
 12.035,3.52335,-3.3659\H,0,11.22855,6.43729,-1.90901\H,0,10.46035,5.08
 544,-1.00435\H,0,10.64616,4.96419,-2.67958\H,0,13.9194,5.09947,-3.9461
 4\H,0,14.15103,3.44252,-4.47135\H,0,15.3565,5.02335,-2.31962\H,0,16.19
 721,3.94636,-3.49354\H,0,15.32835,3.27959,-2.0393\H,0,14.15207,-2.3588
 8,-4.22285\H,0,13.51165,-0.72044,-4.57147\H,0,12.35917,-2.03248,-4.099
 68\H,0,12.37742,-4.28355,0.50867\H,0,14.76138,-7.61386,1.85355\H,0,14.
 83231,-6.45627,3.32966\H,0,15.95799,-6.43321,1.9496\\Version=ES64L-G16
 RevA.03\State=1-A\HF=-4069.811922\RMSD=4.601e-09\PG=C01 [X(C68H72Mg2N8
 O8)]\\@


  THE LARGE PRINT GIVETH,
  AND THE SMALL PRINT TAKETH AWAY.

                     -- TOM WAITS
 Job cpu time:       0 days 11 hours 59 minutes 10.0 seconds.
 Elapsed time:       0 days  0 hours 30 minutes 35.2 seconds.
 File lengths (MBytes):  RWF=  13225 Int=      0 D2E=      0 Chk=    574 Scr=      1
 Normal termination of Gaussian 16 at Sat Sep 11 16:27:53 2021.
