 Entering Gaussian System, Link 0=g16
 Initial command:
 /sw/apps/gaussian-16.0/g16/l1.exe "/tmp/Gau-168142.inp" -scrdir="/tmp/"
 Entering Link 1 = /sw/apps/gaussian-16.0/g16/l1.exe PID=    168143.
  
 Copyright (c) 1988,1990,1992,1993,1995,1998,2003,2009,2016,
            Gaussian, Inc.  All Rights Reserved.
  
 This is part of the Gaussian(R) 16 program.  It is based on
 the Gaussian(R) 09 system (copyright 2009, Gaussian, Inc.),
 the Gaussian(R) 03 system (copyright 2003, Gaussian, Inc.),
 the Gaussian(R) 98 system (copyright 1998, Gaussian, Inc.),
 the Gaussian(R) 94 system (copyright 1995, Gaussian, Inc.),
 the Gaussian 92(TM) system (copyright 1992, Gaussian, Inc.),
 the Gaussian 90(TM) system (copyright 1990, Gaussian, Inc.),
 the Gaussian 88(TM) system (copyright 1988, Gaussian, Inc.),
 the Gaussian 86(TM) system (copyright 1986, Carnegie Mellon
 University), and the Gaussian 82(TM) system (copyright 1983,
 Carnegie Mellon University). Gaussian is a federally registered
 trademark of Gaussian, Inc.
  
 This software contains proprietary and confidential information,
 including trade secrets, belonging to Gaussian, Inc.
  
 This software is provided under written license and may be
 used, copied, transmitted, or stored only in accord with that
 written license.
  
 The following legend is applicable only to US Government
 contracts under FAR:
  
                    RESTRICTED RIGHTS LEGEND
  
 Use, reproduction and disclosure by the US Government is
 subject to restrictions as set forth in subparagraphs (a)
 and (c) of the Commercial Computer Software - Restricted
 Rights clause in FAR 52.227-19.
  
 Gaussian, Inc.
 340 Quinnipiac St., Bldg. 40, Wallingford CT 06492
  
  
 ---------------------------------------------------------------
 Warning -- This program may not be used in any manner that
 competes with the business of Gaussian, Inc. or will provide
 assistance to any competitor of Gaussian, Inc.  The licensee
 of this program is prohibited from giving any competitor of
 Gaussian, Inc. access to this program.  By using this program,
 the user acknowledges that Gaussian, Inc. is engaged in the
 business of creating and licensing software in the field of
 computational chemistry and represents and warrants to the
 licensee that it is not a competitor of Gaussian, Inc. and that
 it will not use this program in any manner prohibited above.
 ---------------------------------------------------------------
  

 Cite this work as:
 Gaussian 16, Revision A.03,
 M. J. Frisch, G. W. Trucks, H. B. Schlegel, G. E. Scuseria, 
 M. A. Robb, J. R. Cheeseman, G. Scalmani, V. Barone, 
 G. A. Petersson, H. Nakatsuji, X. Li, M. Caricato, A. V. Marenich, 
 J. Bloino, B. G. Janesko, R. Gomperts, B. Mennucci, H. P. Hratchian, 
 J. V. Ortiz, A. F. Izmaylov, J. L. Sonnenberg, D. Williams-Young, 
 F. Ding, F. Lipparini, F. Egidi, J. Goings, B. Peng, A. Petrone, 
 T. Henderson, D. Ranasinghe, V. G. Zakrzewski, J. Gao, N. Rega, 
 G. Zheng, W. Liang, M. Hada, M. Ehara, K. Toyota, R. Fukuda, 
 J. Hasegawa, M. Ishida, T. Nakajima, Y. Honda, O. Kitao, H. Nakai, 
 T. Vreven, K. Throssell, J. A. Montgomery, Jr., J. E. Peralta, 
 F. Ogliaro, M. J. Bearpark, J. J. Heyd, E. N. Brothers, K. N. Kudin, 
 V. N. Staroverov, T. A. Keith, R. Kobayashi, J. Normand, 
 K. Raghavachari, A. P. Rendell, J. C. Burant, S. S. Iyengar, 
 J. Tomasi, M. Cossi, J. M. Millam, M. Klene, C. Adamo, R. Cammi, 
 J. W. Ochterski, R. L. Martin, K. Morokuma, O. Farkas, 
 J. B. Foresman, and D. J. Fox, Gaussian, Inc., Wallingford CT, 2016.
 
 ******************************************
 Gaussian 16:  ES64L-G16RevA.03 25-Dec-2016
                 4-Sep-2021 
 ******************************************
 %nproc=24
 Will use up to   24 processors via shared memory.
 %mem=175gb
 -----------------------------------
 #p cam-b3lyp/Def2SVP td=(nstates=5)
 -----------------------------------
 1/38=1,172=1/1;
 2/12=2,17=6,18=5,40=1/2;
 3/5=43,7=101,11=9,25=1,30=1,74=-40/1,2,3,8;
 4//1;
 5/5=2,38=5/2;
 8/6=1,10=1,108=5/1;
 9/41=5,42=1,70=2/14;
 6/7=2,8=2,9=2,10=2/1;
 99/5=1,9=1/99;
 Leave Link    1 at Sat Sep  4 05:59:30 2021, MaxMem= 23488102400 cpu:               0.5 elap:               0.0
 (Enter /sw/apps/gaussian-16.0/g16/l101.exe)
 --------------------------------
 TDDFT excited states in gaussian
 --------------------------------
 Symbolic Z-matrix:
 Charge =  0 Multiplicity = 1
 Mg                    0.        0.        0. 
 C                    -0.217    -2.218     2.801 
 C                    -1.255     2.442     2.026 
 C                    -0.245     1.85     -2.564 
 C                     0.146    -2.824    -2.037 
 N                    -0.617    -0.009     2.126 
 C                    -0.594    -0.908     3.105 
 C                    -0.936    -0.309     4.502 
 C                    -1.773     0.964     4.032 
 C                    -1.155     1.168     2.66 
 C                    -3.263     0.685     3.863 
 C                     0.345     0.11      5.299 
 C                     0.124     0.397     6.787 
 H                     1.168     0.033     7.733 
 N                    -0.185     1.961    -0.152 
 C                    -0.703     2.8       0.777 
 C                    -0.62      4.156     0.193 
 C                    -0.187     4.015    -1.225 
 C                    -0.214     2.583    -1.38 
 C                    -0.887     5.406     0.974 
 C                     0.181     5.013    -2.277 
 O                     0.303     4.69     -3.508 
 C                     0.31      6.414    -1.837 
 N                    -0.265    -0.413    -2.029 
 C                    -0.279     0.569    -2.937 
 C                    -0.196     0.024    -4.332 
 C                     0.124    -1.533    -4.18 
 C                     0.086    -1.632    -2.635 
 C                    -1.451     0.205    -5.197 
 C                     1.373    -2.07     -4.923 
 C                     2.626    -1.49     -4.306 
 N                     0.15     -2.144     0.303 
 C                     0.173    -3.136    -0.688 
 C                     0.173    -4.438     0.004 
 C                     0.133    -4.111     1.358 
 C                     0.083    -2.695     1.502 
 C                     0.149    -5.715    -0.623 
 C                     0.096    -4.629     2.716 
 O                     0.208    -5.747     3.221 
 C                    -0.255    -3.428     3.701 
 C                     0.717    -3.482     4.848 
 O                     1.931    -3.255     4.669 
 O                     0.038    -3.556     6.003 
 C                     0.943    -3.583     7.183 
 H                    -1.859     3.22      2.497 
 H                    -0.218     2.453    -3.474 
 H                     0.276    -3.747    -2.605 
 H                    -1.554    -0.949     5.132 
 H                    -1.585     1.831     4.665 
 H                    -3.484    -0.377     3.969 
 H                    -3.511     1.027     2.858 
 H                    -3.852     1.301     4.543 
 H                     0.669     1.096     4.966 
 H                     1.13     -0.639     5.189 
 H                    -0.844     0.026     7.125 
 H                     0.062     1.477     6.921 
 H                    -1.344     5.186     1.938 
 H                    -1.651     5.963     0.432 
 H                     0.007     6.02      1.084 
 H                    -0.635     6.744    -1.405 
 H                     0.665     6.97     -2.704 
 H                     1.048     6.466    -1.036 
 H                     0.608     0.501    -4.891 
 H                    -0.692    -2.156    -4.547 
 H                    -1.267     0.74     -6.129 
 H                    -2.204     0.714    -4.596 
 H                    -1.967    -0.72     -5.453 
 H                     1.356    -1.759    -5.967 
 H                     1.452    -3.157    -4.902 
 H                     2.714    -0.522    -4.798 
 H                     3.487    -2.121    -4.529 
 H                     2.495    -1.303    -3.24 
 H                     0.867    -6.333    -0.084 
 H                     0.404    -5.642    -1.68 
 H                    -0.891    -5.999    -0.463 
 H                    -1.283    -3.581     4.028 
 H                     0.698    -4.478     7.755 
 H                     0.833    -2.619     7.68 
 H                     2.       -3.754     6.976 
 Mg                    10.51815   0.94134   0.80434 
 C                     10.72308  -2.22348  -0.87523 
 C                     9.57686  -0.77182   3.59964 
 C                     9.89341   3.73022   2.18248 
 C                     10.35267   2.44095  -2.33723 
 N                     10.22434  -1.21705   1.18812 
 C                     10.39153  -2.3311    0.49149 
 C                     10.27086  -3.63508   1.32495 
 C                     9.36397  -3.0709    2.52418 
 C                     9.76731  -1.59904   2.46406 
 C                     7.87275  -3.16914   2.24859 
 C                     11.6613  -4.14232   1.84589 
 C                     11.65872  -5.56822   2.40137 
 H                     12.83903  -6.40089   2.1869 
 N                     10.3141   1.40902   2.72221 
 C                     9.94671   0.58523   3.72604 
 C                     9.92539   1.41536   4.94036 
 C                     10.14995   2.83212   4.54405 
 C                     10.10618   2.71215   3.10052 
 C                     9.78637   0.83741   6.31879 
 C                     10.35564   4.08922   5.33374 
 O                     10.29401   5.24628   4.7858 
 C                     10.53854   3.92998   6.7838 
 N                     9.96046   2.79515   0.04625 
 C                     9.8036    3.85533   0.85824 
 C                     9.67372   5.13451   0.06626 
 C                     10.01966   4.74127  -1.44479 
 C                     10.21102   3.21842  -1.2725 
 C                     8.30387   5.81091   0.11498 
 C                     11.14453   5.55322  -2.14342 
 C                     12.47636   5.25473  -1.4934 
 N                     10.71728   0.28552  -1.24463 
 C                     10.58611   1.07357  -2.40904 
 C                     10.69149   0.16135  -3.56627 
 C                     10.85493  -1.10734  -2.98989 
 C                     10.8314  -0.99643  -1.57333 
 C                     10.5852   0.538    -4.93483 
 C                     11.03135  -2.51655  -3.25768 
 O                     11.21135  -3.19258  -4.26977 
 C                     10.82713  -3.31828  -1.90051 
 C                     11.95943  -4.29921  -1.76562 
 O                     13.12783  -3.89946  -1.61846 
 O                     11.45435  -5.53715  -1.61474 
 C                     12.53878  -6.54396  -1.46589 
 H                     9.0568   -1.18763   4.46308 
 H                     9.78319   4.73133   2.6057 
 H                     10.40908   2.84369  -3.35078 
 H                     9.76046  -4.44885   0.82391 
 H                     9.65314  -3.50689   3.47689 
 H                     7.6702   -3.49461   1.23904 
 H                     7.47726  -2.17523   2.41221 
 H                     7.39322  -3.8107    2.99342 
 H                     11.92744  -3.58717   2.75458 
 H                     12.40972  -4.05321   1.08263 
 H                     10.74792  -6.11512   2.12881 
 H                     11.62342  -5.51561   3.49224 
 H                     9.47263  -0.21322   6.28471 
 H                     8.94953   1.35531   6.79977 
 H                     10.68353   0.9757    6.92597 
 H                     9.67096   3.42688   7.20413 
 H                     10.75993   4.92991   7.16197 
 H                     11.3982   3.27328   6.95797 
 H                     10.38598   5.87524   0.40848 
 H                     9.1536    4.87597  -2.10935 
 H                     8.34543   6.85529   0.47775 
 H                     7.65178   5.21653   0.74111 
 H                     7.76367   5.82855  -0.83005 
 H                     10.97146   6.62495  -2.0185 
 H                     11.21823   5.36091  -3.20858 
 H                     12.4828   5.92194  -0.62629 
 H                     13.29438   5.48348  -2.17351 
 H                     12.509    4.22548  -1.11761 
 H                     11.36873   0.0123   -5.46419 
 H                     10.67421   1.61526  -5.05878 
 H                     9.57606   0.18119  -5.15751 
 H                     9.85848  -3.8164   -1.95686 
 H                     12.38001  -7.30132  -2.23976 
 H                     12.49076  -6.8814   -0.41347 
 H                     13.55131  -6.22619  -1.68554 
 
 ITRead=  0  0  0  0  0  0  0  0  0  0  0  0  0  0  0  0  0  0  0  0
 ITRead=  0  0  0  0  0  0  0  0  0  0  0  0  0  0  0  0  0  0  0  0
 ITRead=  0  0  0  0  0  0  0  0  0  0  0  0  0  0  0  0  0  0  0  0
 ITRead=  0  0  0  0  0  0  0  0  0  0  0  0  0  0  0  0  0  0  0  0
 ITRead=  0  0  0  0  0  0  0  0  0  0  0  0  0  0  0  0  0  0  0  0
 ITRead=  0  0  0  0  0  0  0  0  0  0  0  0  0  0  0  0  0  0  0  0
 ITRead=  0  0  0  0  0  0  0  0  0  0  0  0  0  0  0  0  0  0  0  0
 ITRead=  0  0  0  0  0  0  0  0  0  0  0  0  0  0  0  0  0  0
 MicOpt= -1 -1 -1 -1 -1 -1 -1 -1 -1 -1 -1 -1 -1 -1 -1 -1 -1 -1 -1 -1
 MicOpt= -1 -1 -1 -1 -1 -1 -1 -1 -1 -1 -1 -1 -1 -1 -1 -1 -1 -1 -1 -1
 MicOpt= -1 -1 -1 -1 -1 -1 -1 -1 -1 -1 -1 -1 -1 -1 -1 -1 -1 -1 -1 -1
 MicOpt= -1 -1 -1 -1 -1 -1 -1 -1 -1 -1 -1 -1 -1 -1 -1 -1 -1 -1 -1 -1
 MicOpt= -1 -1 -1 -1 -1 -1 -1 -1 -1 -1 -1 -1 -1 -1 -1 -1 -1 -1 -1 -1
 MicOpt= -1 -1 -1 -1 -1 -1 -1 -1 -1 -1 -1 -1 -1 -1 -1 -1 -1 -1 -1 -1
 MicOpt= -1 -1 -1 -1 -1 -1 -1 -1 -1 -1 -1 -1 -1 -1 -1 -1 -1 -1 -1 -1
 MicOpt= -1 -1 -1 -1 -1 -1 -1 -1 -1 -1 -1 -1 -1 -1 -1 -1 -1 -1
 NAtoms=    158 NQM=      158 NQMF=       0 NMMI=      0 NMMIF=      0
                NMic=       0 NMicF=      0.
                    Isotopes and Nuclear Properties:
 (Nuclear quadrupole moments (NQMom) in fm**2, nuclear magnetic moments (NMagM)
  in nuclear magnetons)

  Atom         1           2           3           4           5           6           7           8           9          10
 IAtWgt=          24          12          12          12          12          14          12          12          12          12
 AtmWgt=  23.9850450  12.0000000  12.0000000  12.0000000  12.0000000  14.0030740  12.0000000  12.0000000  12.0000000  12.0000000
 NucSpn=           0           0           0           0           0           2           0           0           0           0
 AtZEff=  -0.0000000  -0.0000000  -0.0000000  -0.0000000  -0.0000000  -0.0000000  -0.0000000  -0.0000000  -0.0000000  -0.0000000
 NQMom=    0.0000000   0.0000000   0.0000000   0.0000000   0.0000000   2.0440000   0.0000000   0.0000000   0.0000000   0.0000000
 NMagM=    0.0000000   0.0000000   0.0000000   0.0000000   0.0000000   0.4037610   0.0000000   0.0000000   0.0000000   0.0000000
 AtZNuc=  12.0000000   6.0000000   6.0000000   6.0000000   6.0000000   7.0000000   6.0000000   6.0000000   6.0000000   6.0000000

  Atom        11          12          13          14          15          16          17          18          19          20
 IAtWgt=          12          12          12           1          14          12          12          12          12          12
 AtmWgt=  12.0000000  12.0000000  12.0000000   1.0078250  14.0030740  12.0000000  12.0000000  12.0000000  12.0000000  12.0000000
 NucSpn=           0           0           0           1           2           0           0           0           0           0
 AtZEff=  -0.0000000  -0.0000000  -0.0000000  -0.0000000  -0.0000000  -0.0000000  -0.0000000  -0.0000000  -0.0000000  -0.0000000
 NQMom=    0.0000000   0.0000000   0.0000000   0.0000000   2.0440000   0.0000000   0.0000000   0.0000000   0.0000000   0.0000000
 NMagM=    0.0000000   0.0000000   0.0000000   2.7928460   0.4037610   0.0000000   0.0000000   0.0000000   0.0000000   0.0000000
 AtZNuc=   6.0000000   6.0000000   6.0000000   1.0000000   7.0000000   6.0000000   6.0000000   6.0000000   6.0000000   6.0000000

  Atom        21          22          23          24          25          26          27          28          29          30
 IAtWgt=          12          16          12          14          12          12          12          12          12          12
 AtmWgt=  12.0000000  15.9949146  12.0000000  14.0030740  12.0000000  12.0000000  12.0000000  12.0000000  12.0000000  12.0000000
 NucSpn=           0           0           0           2           0           0           0           0           0           0
 AtZEff=  -0.0000000  -0.0000000  -0.0000000  -0.0000000  -0.0000000  -0.0000000  -0.0000000  -0.0000000  -0.0000000  -0.0000000
 NQMom=    0.0000000   0.0000000   0.0000000   2.0440000   0.0000000   0.0000000   0.0000000   0.0000000   0.0000000   0.0000000
 NMagM=    0.0000000   0.0000000   0.0000000   0.4037610   0.0000000   0.0000000   0.0000000   0.0000000   0.0000000   0.0000000
 AtZNuc=   6.0000000   8.0000000   6.0000000   7.0000000   6.0000000   6.0000000   6.0000000   6.0000000   6.0000000   6.0000000

  Atom        31          32          33          34          35          36          37          38          39          40
 IAtWgt=          12          14          12          12          12          12          12          12          16          12
 AtmWgt=  12.0000000  14.0030740  12.0000000  12.0000000  12.0000000  12.0000000  12.0000000  12.0000000  15.9949146  12.0000000
 NucSpn=           0           2           0           0           0           0           0           0           0           0
 AtZEff=  -0.0000000  -0.0000000  -0.0000000  -0.0000000  -0.0000000  -0.0000000  -0.0000000  -0.0000000  -0.0000000  -0.0000000
 NQMom=    0.0000000   2.0440000   0.0000000   0.0000000   0.0000000   0.0000000   0.0000000   0.0000000   0.0000000   0.0000000
 NMagM=    0.0000000   0.4037610   0.0000000   0.0000000   0.0000000   0.0000000   0.0000000   0.0000000   0.0000000   0.0000000
 AtZNuc=   6.0000000   7.0000000   6.0000000   6.0000000   6.0000000   6.0000000   6.0000000   6.0000000   8.0000000   6.0000000

  Atom        41          42          43          44          45          46          47          48          49          50
 IAtWgt=          12          16          16          12           1           1           1           1           1           1
 AtmWgt=  12.0000000  15.9949146  15.9949146  12.0000000   1.0078250   1.0078250   1.0078250   1.0078250   1.0078250   1.0078250
 NucSpn=           0           0           0           0           1           1           1           1           1           1
 AtZEff=  -0.0000000  -0.0000000  -0.0000000  -0.0000000  -0.0000000  -0.0000000  -0.0000000  -0.0000000  -0.0000000  -0.0000000
 NQMom=    0.0000000   0.0000000   0.0000000   0.0000000   0.0000000   0.0000000   0.0000000   0.0000000   0.0000000   0.0000000
 NMagM=    0.0000000   0.0000000   0.0000000   0.0000000   2.7928460   2.7928460   2.7928460   2.7928460   2.7928460   2.7928460
 AtZNuc=   6.0000000   8.0000000   8.0000000   6.0000000   1.0000000   1.0000000   1.0000000   1.0000000   1.0000000   1.0000000

  Atom        51          52          53          54          55          56          57          58          59          60
 IAtWgt=           1           1           1           1           1           1           1           1           1           1
 AtmWgt=   1.0078250   1.0078250   1.0078250   1.0078250   1.0078250   1.0078250   1.0078250   1.0078250   1.0078250   1.0078250
 NucSpn=           1           1           1           1           1           1           1           1           1           1
 AtZEff=  -0.0000000  -0.0000000  -0.0000000  -0.0000000  -0.0000000  -0.0000000  -0.0000000  -0.0000000  -0.0000000  -0.0000000
 NQMom=    0.0000000   0.0000000   0.0000000   0.0000000   0.0000000   0.0000000   0.0000000   0.0000000   0.0000000   0.0000000
 NMagM=    2.7928460   2.7928460   2.7928460   2.7928460   2.7928460   2.7928460   2.7928460   2.7928460   2.7928460   2.7928460
 AtZNuc=   1.0000000   1.0000000   1.0000000   1.0000000   1.0000000   1.0000000   1.0000000   1.0000000   1.0000000   1.0000000

  Atom        61          62          63          64          65          66          67          68          69          70
 IAtWgt=           1           1           1           1           1           1           1           1           1           1
 AtmWgt=   1.0078250   1.0078250   1.0078250   1.0078250   1.0078250   1.0078250   1.0078250   1.0078250   1.0078250   1.0078250
 NucSpn=           1           1           1           1           1           1           1           1           1           1
 AtZEff=  -0.0000000  -0.0000000  -0.0000000  -0.0000000  -0.0000000  -0.0000000  -0.0000000  -0.0000000  -0.0000000  -0.0000000
 NQMom=    0.0000000   0.0000000   0.0000000   0.0000000   0.0000000   0.0000000   0.0000000   0.0000000   0.0000000   0.0000000
 NMagM=    2.7928460   2.7928460   2.7928460   2.7928460   2.7928460   2.7928460   2.7928460   2.7928460   2.7928460   2.7928460
 AtZNuc=   1.0000000   1.0000000   1.0000000   1.0000000   1.0000000   1.0000000   1.0000000   1.0000000   1.0000000   1.0000000

  Atom        71          72          73          74          75          76          77          78          79          80
 IAtWgt=           1           1           1           1           1           1           1           1           1          24
 AtmWgt=   1.0078250   1.0078250   1.0078250   1.0078250   1.0078250   1.0078250   1.0078250   1.0078250   1.0078250  23.9850450
 NucSpn=           1           1           1           1           1           1           1           1           1           0
 AtZEff=  -0.0000000  -0.0000000  -0.0000000  -0.0000000  -0.0000000  -0.0000000  -0.0000000  -0.0000000  -0.0000000  -0.0000000
 NQMom=    0.0000000   0.0000000   0.0000000   0.0000000   0.0000000   0.0000000   0.0000000   0.0000000   0.0000000   0.0000000
 NMagM=    2.7928460   2.7928460   2.7928460   2.7928460   2.7928460   2.7928460   2.7928460   2.7928460   2.7928460   0.0000000
 AtZNuc=   1.0000000   1.0000000   1.0000000   1.0000000   1.0000000   1.0000000   1.0000000   1.0000000   1.0000000  12.0000000

  Atom        81          82          83          84          85          86          87          88          89          90
 IAtWgt=          12          12          12          12          14          12          12          12          12          12
 AtmWgt=  12.0000000  12.0000000  12.0000000  12.0000000  14.0030740  12.0000000  12.0000000  12.0000000  12.0000000  12.0000000
 NucSpn=           0           0           0           0           2           0           0           0           0           0
 AtZEff=  -0.0000000  -0.0000000  -0.0000000  -0.0000000  -0.0000000  -0.0000000  -0.0000000  -0.0000000  -0.0000000  -0.0000000
 NQMom=    0.0000000   0.0000000   0.0000000   0.0000000   2.0440000   0.0000000   0.0000000   0.0000000   0.0000000   0.0000000
 NMagM=    0.0000000   0.0000000   0.0000000   0.0000000   0.4037610   0.0000000   0.0000000   0.0000000   0.0000000   0.0000000
 AtZNuc=   6.0000000   6.0000000   6.0000000   6.0000000   7.0000000   6.0000000   6.0000000   6.0000000   6.0000000   6.0000000

  Atom        91          92          93          94          95          96          97          98          99         100
 IAtWgt=          12          12           1          14          12          12          12          12          12          12
 AtmWgt=  12.0000000  12.0000000   1.0078250  14.0030740  12.0000000  12.0000000  12.0000000  12.0000000  12.0000000  12.0000000
 NucSpn=           0           0           1           2           0           0           0           0           0           0
 AtZEff=  -0.0000000  -0.0000000  -0.0000000  -0.0000000  -0.0000000  -0.0000000  -0.0000000  -0.0000000  -0.0000000  -0.0000000
 NQMom=    0.0000000   0.0000000   0.0000000   2.0440000   0.0000000   0.0000000   0.0000000   0.0000000   0.0000000   0.0000000
 NMagM=    0.0000000   0.0000000   2.7928460   0.4037610   0.0000000   0.0000000   0.0000000   0.0000000   0.0000000   0.0000000
 AtZNuc=   6.0000000   6.0000000   1.0000000   7.0000000   6.0000000   6.0000000   6.0000000   6.0000000   6.0000000   6.0000000

  Atom       101         102         103         104         105         106         107         108         109         110
 IAtWgt=          16          12          14          12          12          12          12          12          12          12
 AtmWgt=  15.9949146  12.0000000  14.0030740  12.0000000  12.0000000  12.0000000  12.0000000  12.0000000  12.0000000  12.0000000
 NucSpn=           0           0           2           0           0           0           0           0           0           0
 AtZEff=  -0.0000000  -0.0000000  -0.0000000  -0.0000000  -0.0000000  -0.0000000  -0.0000000  -0.0000000  -0.0000000  -0.0000000
 NQMom=    0.0000000   0.0000000   2.0440000   0.0000000   0.0000000   0.0000000   0.0000000   0.0000000   0.0000000   0.0000000
 NMagM=    0.0000000   0.0000000   0.4037610   0.0000000   0.0000000   0.0000000   0.0000000   0.0000000   0.0000000   0.0000000
 AtZNuc=   8.0000000   6.0000000   7.0000000   6.0000000   6.0000000   6.0000000   6.0000000   6.0000000   6.0000000   6.0000000

  Atom       111         112         113         114         115         116         117         118         119         120
 IAtWgt=          14          12          12          12          12          12          12          16          12          12
 AtmWgt=  14.0030740  12.0000000  12.0000000  12.0000000  12.0000000  12.0000000  12.0000000  15.9949146  12.0000000  12.0000000
 NucSpn=           2           0           0           0           0           0           0           0           0           0
 AtZEff=  -0.0000000  -0.0000000  -0.0000000  -0.0000000  -0.0000000  -0.0000000  -0.0000000  -0.0000000  -0.0000000  -0.0000000
 NQMom=    2.0440000   0.0000000   0.0000000   0.0000000   0.0000000   0.0000000   0.0000000   0.0000000   0.0000000   0.0000000
 NMagM=    0.4037610   0.0000000   0.0000000   0.0000000   0.0000000   0.0000000   0.0000000   0.0000000   0.0000000   0.0000000
 AtZNuc=   7.0000000   6.0000000   6.0000000   6.0000000   6.0000000   6.0000000   6.0000000   8.0000000   6.0000000   6.0000000

  Atom       121         122         123         124         125         126         127         128         129         130
 IAtWgt=          16          16          12           1           1           1           1           1           1           1
 AtmWgt=  15.9949146  15.9949146  12.0000000   1.0078250   1.0078250   1.0078250   1.0078250   1.0078250   1.0078250   1.0078250
 NucSpn=           0           0           0           1           1           1           1           1           1           1
 AtZEff=  -0.0000000  -0.0000000  -0.0000000  -0.0000000  -0.0000000  -0.0000000  -0.0000000  -0.0000000  -0.0000000  -0.0000000
 NQMom=    0.0000000   0.0000000   0.0000000   0.0000000   0.0000000   0.0000000   0.0000000   0.0000000   0.0000000   0.0000000
 NMagM=    0.0000000   0.0000000   0.0000000   2.7928460   2.7928460   2.7928460   2.7928460   2.7928460   2.7928460   2.7928460
 AtZNuc=   8.0000000   8.0000000   6.0000000   1.0000000   1.0000000   1.0000000   1.0000000   1.0000000   1.0000000   1.0000000

  Atom       131         132         133         134         135         136         137         138         139         140
 IAtWgt=           1           1           1           1           1           1           1           1           1           1
 AtmWgt=   1.0078250   1.0078250   1.0078250   1.0078250   1.0078250   1.0078250   1.0078250   1.0078250   1.0078250   1.0078250
 NucSpn=           1           1           1           1           1           1           1           1           1           1
 AtZEff=  -0.0000000  -0.0000000  -0.0000000  -0.0000000  -0.0000000  -0.0000000  -0.0000000  -0.0000000  -0.0000000  -0.0000000
 NQMom=    0.0000000   0.0000000   0.0000000   0.0000000   0.0000000   0.0000000   0.0000000   0.0000000   0.0000000   0.0000000
 NMagM=    2.7928460   2.7928460   2.7928460   2.7928460   2.7928460   2.7928460   2.7928460   2.7928460   2.7928460   2.7928460
 AtZNuc=   1.0000000   1.0000000   1.0000000   1.0000000   1.0000000   1.0000000   1.0000000   1.0000000   1.0000000   1.0000000

  Atom       141         142         143         144         145         146         147         148         149         150
 IAtWgt=           1           1           1           1           1           1           1           1           1           1
 AtmWgt=   1.0078250   1.0078250   1.0078250   1.0078250   1.0078250   1.0078250   1.0078250   1.0078250   1.0078250   1.0078250
 NucSpn=           1           1           1           1           1           1           1           1           1           1
 AtZEff=  -0.0000000  -0.0000000  -0.0000000  -0.0000000  -0.0000000  -0.0000000  -0.0000000  -0.0000000  -0.0000000  -0.0000000
 NQMom=    0.0000000   0.0000000   0.0000000   0.0000000   0.0000000   0.0000000   0.0000000   0.0000000   0.0000000   0.0000000
 NMagM=    2.7928460   2.7928460   2.7928460   2.7928460   2.7928460   2.7928460   2.7928460   2.7928460   2.7928460   2.7928460
 AtZNuc=   1.0000000   1.0000000   1.0000000   1.0000000   1.0000000   1.0000000   1.0000000   1.0000000   1.0000000   1.0000000

  Atom       151         152         153         154         155         156         157         158
 IAtWgt=           1           1           1           1           1           1           1           1
 AtmWgt=   1.0078250   1.0078250   1.0078250   1.0078250   1.0078250   1.0078250   1.0078250   1.0078250
 NucSpn=           1           1           1           1           1           1           1           1
 AtZEff=  -0.0000000  -0.0000000  -0.0000000  -0.0000000  -0.0000000  -0.0000000  -0.0000000  -0.0000000
 NQMom=    0.0000000   0.0000000   0.0000000   0.0000000   0.0000000   0.0000000   0.0000000   0.0000000
 NMagM=    2.7928460   2.7928460   2.7928460   2.7928460   2.7928460   2.7928460   2.7928460   2.7928460
 AtZNuc=   1.0000000   1.0000000   1.0000000   1.0000000   1.0000000   1.0000000   1.0000000   1.0000000
 Leave Link  101 at Sat Sep  4 05:59:30 2021, MaxMem= 23488102400 cpu:               3.0 elap:               0.1
 (Enter /sw/apps/gaussian-16.0/g16/l202.exe)
 Stoichiometry    C68H72Mg2N8O8
 Framework group  C1[X(C68H72Mg2N8O8)]
 Deg. of freedom   468
 Full point group                 C1      NOp   1
 Largest Abelian subgroup         C1      NOp   1
 Largest concise Abelian subgroup C1      NOp   1
                         Standard orientation:                         
 ---------------------------------------------------------------------
 Center     Atomic      Atomic             Coordinates (Angstroms)
 Number     Number       Type             X           Y           Z
 ---------------------------------------------------------------------
      1         12           0       -5.156168    0.491411   -0.825193
      2          6           0       -5.597204   -2.474941    1.128894
      3          6           0       -6.481779    2.233706    1.792101
      4          6           0       -5.199073    3.053418   -2.693588
      5          6           0       -4.944815   -1.565488   -3.630574
      6          7           0       -5.905380   -0.151241    1.156303
      7          6           0       -5.963625   -1.309596    1.805911
      8          6           0       -6.379336   -1.159855    3.299944
      9          6           0       -7.156996    0.228880    3.206880
     10          6           0       -6.449800    0.822981    2.001541
     11          6           0       -8.639234    0.076497    2.880918
     12          6           0       -5.141955   -1.060715    4.254298
     13          6           0       -5.449505   -1.240438    5.743749
     14          1           0       -4.475171   -1.921660    6.582771
     15          7           0       -5.288086    2.408721   -0.367624
     16          6           0       -5.844767    2.938627    0.747989
     17          6           0       -5.695484    4.404343    0.621211
     18          6           0       -5.177583    4.692476   -0.745117
     19          6           0       -5.226299    3.381392   -1.340148
     20          6           0       -5.983395    5.360380    1.737836
     21          6           0       -4.722444    5.951690   -1.412471
     22          8           0       -4.530590    6.021551   -2.674566
     23          6           0       -4.590516    7.140856   -0.551354
     24          7           0       -5.302373    0.738806   -2.892814
     25          6           0       -5.237776    1.953627   -3.448709
     26          6           0       -5.079429    1.865031   -4.937674
     27          6           0       -4.803923    0.326013   -5.262133
     28          6           0       -4.940945   -0.245430   -3.829322
     29          6           0       -6.273404    2.355847   -5.768056
     30          6           0       -3.522885   -0.004245   -6.068539
     31          6           0       -2.298608    0.304756   -5.236216
     32          7           0       -5.072671   -1.645121   -1.198429
     33          6           0       -5.009370   -2.281125   -2.446694
     34          6           0       -5.081425   -3.732383   -2.196241
     35          6           0       -5.199089   -3.839889   -0.811884
     36          6           0       -5.226865   -2.537479   -0.236341
     37          6           0       -5.094126   -4.750040   -3.190548
     38          6           0       -5.332598   -4.751403    0.312915
     39          8           0       -5.277121   -5.974442    0.449259
     40          6           0       -5.718199   -3.901753    1.603355
     41          6           0       -4.821497   -4.347910    2.725931
     42          8           0       -3.593959   -4.125884    2.690976
     43          8           0       -5.573084   -4.748792    3.762730
     44          6           0       -4.744710   -5.176824    4.921496
     45          1           0       -7.096879    2.851124    2.449663
     46          1           0       -5.101778    3.907199   -3.367406
     47          1           0       -4.799772   -2.271404   -4.450389
     48          1           0       -7.049571   -1.938086    3.665409
     49          1           0       -6.990053    0.848596    4.087677
     50          1           0       -8.889756   -0.956198    2.638633
     51          1           0       -8.816111    0.722927    2.021072
     52          1           0       -9.256042    0.474640    3.687024
     53          1           0       -4.776091   -0.034007    4.262970
     54          1           0       -4.368266   -1.769814    3.957799
     55          1           0       -6.444730   -1.658482    5.897619
     56          1           0       -5.496018   -0.253602    6.204392
     57          1           0       -6.504702    4.871049    2.559626
     58          1           0       -6.699449    6.088369    1.357038
     59          1           0       -5.084767    5.873359    2.080842
     60          1           0       -5.553269    7.358606   -0.088492
     61          1           0       -4.169678    7.923400   -1.181726
     62          1           0       -3.903257    6.912104    0.263690
     63          1           0       -4.231646    2.458903   -5.276798
     64          1           0       -5.608797   -0.119000   -5.847636
     65          1           0       -6.019572    3.145508   -6.475665
     66          1           0       -7.051247    2.683474   -5.078917
     67          1           0       -6.792549    1.577432   -6.326603
     68          1           0       -3.467509    0.615490   -6.962859
     69          1           0       -3.469288   -1.046466   -6.383424
     70          1           0       -2.158642    1.373198   -5.396449
     71          1           0       -1.439402   -0.260300   -5.599105
     72          1           0       -2.492082    0.157225   -4.173536
     73          1           0       -4.425124   -5.533182   -2.834046
     74          1           0       -4.771771   -4.363344   -4.157066
     75          1           0       -6.148110   -5.027355   -3.182210
     76          1           0       -6.767806   -4.106888    1.811605
     77          1           0       -5.044741   -6.194376    5.172102
     78          1           0       -4.864441   -4.410762    5.687797
     79          1           0       -3.680823   -5.317821    4.727578
     80         12           0        5.308957    0.710956    0.786489
     81          6           0        5.549188   -1.782865   -1.782983
     82          6           0        4.156696   -1.744808    2.854378
     83          6           0        4.660486    2.958095    2.930615
     84          6           0        5.373923    3.115964   -1.734897
     85          7           0        4.944242   -1.446342    0.461978
     86          6           0        5.130260   -2.295362   -0.537480
     87          6           0        4.928885   -3.787473   -0.159814
     88          6           0        3.961175   -3.586659    1.105932
     89          6           0        4.399772   -2.186242    1.529178
     90          6           0        2.488383   -3.534250    0.735157
     91          6           0        6.272409   -4.486997    0.249582
     92          6           0        6.203620   -6.013519    0.331750
     93          1           0        7.376457   -6.785692   -0.069086
     94          7           0        4.995325    0.568915    2.740983
     95          6           0        4.547649   -0.509913    3.416998
     96          6           0        4.468454   -0.096962    4.826730
     97          6           0        4.748545    1.362562    4.904425
     98          6           0        4.792796    1.697862    3.495276
     99          6           0        4.230550   -1.067630    5.946832
    100          6           0        4.931890    2.303537    6.056454
    101          8           0        4.930225    3.574953    5.894214
    102          6           0        5.019910    1.695372    7.392070
    103          7           0        4.840840    2.729402    0.615987
    104          6           0        4.656706    3.491073    1.708629
    105          6           0        4.604938    4.956899    1.349357
    106          6           0        5.036261    5.037800   -0.188499
    107          6           0        5.182891    3.530132   -0.489849
    108          6           0        3.249941    5.639680    1.534216
    109          6           0        6.220333    5.980144   -0.538699
    110          6           0        7.501871    5.441264    0.055156
    111          7           0        5.621767    0.715126   -1.351305
    112          6           0        5.581273    1.829942   -2.217113
    113          6           0        5.738955    1.317919   -3.593849
    114          6           0        5.837966   -0.072465   -3.434067
    115          6           0        5.728057   -0.405289   -2.056880
    116          6           0        5.727045    2.104235   -4.780308
    117          6           0        5.999797   -1.335162   -4.118256
    118          8           0        6.228024   -1.670843   -5.279709
    119          6           0        5.693249   -2.509166   -3.091549
    120          6           0        6.793003   -3.528527   -3.209727
    121          8           0        7.958379   -3.241673   -2.883800
    122          8           0        6.252344   -4.730769   -3.479293
    123          6           0        7.302889   -5.777105   -3.594825
    124          1           0        3.574471   -2.386412    3.516380
    125          1           0        4.545980    3.782287    3.638484
    126          1           0        5.502655    3.810433   -2.567848
    127          1           0        4.433147   -4.384499   -0.915840
    128          1           0        4.180345   -4.307823    1.889035
    129          1           0        2.342458   -3.522262   -0.334755
    130          1           0        2.105366   -2.624888    1.179453
    131          1           0        1.949073   -4.355159    1.216378
    132          1           0        6.493163   -4.252122    1.298792
    133          1           0        7.069018   -4.196006   -0.407211
    134          1           0        5.299904   -6.411690   -0.145433
    135          1           0        6.101117   -6.300283    1.381165
    136          1           0        3.896531   -2.042350    5.570309
    137          1           0        3.376779   -0.690954    6.520463
    138          1           0        5.090675   -1.160768    6.613314
    139          1           0        4.116813    1.122266    7.588148
    140          1           0        5.239081    2.519001    8.074335
    141          1           0        5.852296    0.982837    7.397878
    142          1           0        5.310446    5.525618    1.942591
    143          1           0        4.216773    5.406776   -0.822644
    144          1           0        3.291623    6.517576    2.206243
    145          1           0        2.546937    4.907360    1.908437
    146          1           0        2.770612    5.971232    0.614691
    147          1           0        6.063384    6.966430   -0.095110
    148          1           0        6.356465    6.124688   -1.605261
    149          1           0        7.468573    5.805972    1.086160
    150          1           0        8.365781    5.836305   -0.475537
    151          1           0        7.488222    4.345789    0.092410
    152          1           0        6.530488    1.737304   -5.405081
    153          1           0        5.847331    3.162326   -4.557258
    154          1           0        4.726259    1.875141   -5.156082
    155          1           0        4.719320   -2.925687   -3.351462
    156          1           0        7.176361   -6.250189   -4.573527
    157          1           0        7.181527   -6.421935   -2.704193
    158          1           0        8.333950   -5.448110   -3.650669
 ---------------------------------------------------------------------
 Rotational constants (GHZ):           0.0204448           0.0109561           0.0106243
 Leave Link  202 at Sat Sep  4 05:59:30 2021, MaxMem= 23488102400 cpu:               0.2 elap:               0.0
 (Enter /sw/apps/gaussian-16.0/g16/l301.exe)
 Standard basis: def2SVP (5D, 7F)
 Ernie: Thresh=  0.10000D-02 Tol=  0.10000D-05 Strict=F.
 There are  1658 symmetry adapted cartesian basis functions of A   symmetry.
 There are  1572 symmetry adapted basis functions of A   symmetry.
  1572 basis functions,  2678 primitive gaussians,  1658 cartesian basis functions
   312 alpha electrons      312 beta electrons
       nuclear repulsion energy     14939.9049825659 Hartrees.
 IExCor=20419 DFT=T Ex+Corr=CAM-B3LYP ExCW=0 ScaHFX=  1.000000
 ScaDFX=  1.000000  1.000000  1.000000  0.810000 ScalE2=  1.000000  1.000000
 IRadAn=      5 IRanWt=     -1 IRanGd=            0 ICorTp=0 IEmpDi=  4
 HFx  wShort=  0.000000 wLong=  0.330000 cFull=  0.190000 cShort=  0.000000 cLong=  0.460000
 DFx  wShort=  0.000000 wLong=  0.330000 cFull=  0.190000 cShort=  0.000000 cLong=  0.460000
 NAtoms=  158 NActive=  158 NUniq=  158 SFac= 1.00D+00 NAtFMM=   60 NAOKFM=T Big=T
 Integral buffers will be    131072 words long.
 Raffenetti 1 integral format.
 Two-electron integral symmetry is turned on.
 Leave Link  301 at Sat Sep  4 05:59:30 2021, MaxMem= 23488102400 cpu:               1.3 elap:               0.1
 (Enter /sw/apps/gaussian-16.0/g16/l302.exe)
 NPDir=0 NMtPBC=     1 NCelOv=     1 NCel=       1 NClECP=     1 NCelD=      1
         NCelK=      1 NCelE2=     1 NClLst=     1 CellRange=     0.0.
 One-electron integrals computed using PRISM.
 One-electron integral symmetry used in STVInt
   1 Symmetry operations used in ECPInt.
 ECPInt:  NShTT=  271216 NPrTT=  987664 LenC2=  137316 LenP2D=  286601.
 LDataN:  DoStor=T MaxTD1= 4 Len=   56
 NBasis=  1572 RedAO= T EigKep=  3.36D-04  NBF=  1572
 NBsUse=  1572 1.00D-06 EigRej= -1.00D+00 NBFU=  1572
 Precomputing XC quadrature grid using
 IXCGrd= 4 IRadAn=           5 IRanWt=          -1 IRanGd=           0 AccXCQ= 0.00D+00.
 Generated NRdTot=       0 NPtTot=           0 NUsed=           0 NTot=          32
 NSgBfM=  1143  1118  1118  1130  1143 MxSgAt=   158 MxSgA2=   157.
 Leave Link  302 at Sat Sep  4 05:59:36 2021, MaxMem= 23488102400 cpu:             144.5 elap:               6.1
 (Enter /sw/apps/gaussian-16.0/g16/l303.exe)
 DipDrv:  MaxL=1.
 Leave Link  303 at Sat Sep  4 05:59:36 2021, MaxMem= 23488102400 cpu:               9.6 elap:               0.4
 (Enter /sw/apps/gaussian-16.0/g16/l308.exe)
 Leave Link  308 at Sat Sep  4 05:59:37 2021, MaxMem= 23488102400 cpu:              13.6 elap:               0.7
 (Enter /sw/apps/gaussian-16.0/g16/l401.exe)
 ExpMin= 3.36D-02 ExpMax= 4.95D+03 ExpMxC= 7.45D+02 IAcc=3 IRadAn=         5 AccDes= 0.00D+00
 Harris functional with IExCor=20419 and IRadAn=       5 diagonalized for initial guess.
 HarFok:  IExCor=20419 AccDes= 0.00D+00 IRadAn=         5 IDoV= 1 UseB2=F ITyADJ=14
 ICtDFT=  3500011 ScaDFX=  1.000000  1.000000  1.000000  1.000000
 FoFCou: FMM=F IPFlag=           0 FMFlag=      100000 FMFlg1=        2001
         NFxFlg=           0 DoJE=T BraDBF=F KetDBF=T FulRan=T
         wScrn=  0.000000 ICntrl=       500 IOpCl=  0 I1Cent=   200000004 NGrid=           0
         NMat0=    1 NMatS0=      1 NMatT0=    0 NMatD0=    1 NMtDS0=    0 NMtDT0=    0
 Petite list used in FoFCou.
 Harris En= -3918.65801604423    
 JPrj=0 DoOrth=F DoCkMO=F.
 Leave Link  401 at Sat Sep  4 05:59:45 2021, MaxMem= 23488102400 cpu:             185.4 elap:               7.8
 (Enter /sw/apps/gaussian-16.0/g16/l502.exe)
 Integral symmetry usage will be decided dynamically.
 Closed shell SCF:
 Using DIIS extrapolation, IDIIS=  1040.
 NGot= 23488102400 LenX= 23482547354 LenY= 23479796732
 Requested convergence on RMS density matrix=1.00D-08 within 128 cycles.
 Requested convergence on MAX density matrix=1.00D-06.
 Requested convergence on             energy=1.00D-06.
 No special actions if energy rises.
 Fock matrices will be formed incrementally for  20 cycles.

 Cycle   1  Pass 1  IDiag  1:
 FoFJK:  IHMeth= 1 ICntrl=       0 DoSepK=T KAlg= 0 I1Cent=           0 FoldK=F
 IRaf=         1 NMat=       1 IRICut=       1 DoRegI=T DoRafI=F ISym2E= 0 IDoP0=0 IntGTp=1.
 FoFCou: FMM=T IPFlag=           0 FMFlag=      100000 FMFlg1=        2001
         NFxFlg=           0 DoJE=T BraDBF=F KetDBF=F FulRan=T
         wScrn=  0.000000 ICntrl=       500 IOpCl=  0 I1Cent=           0 NGrid=           0
         NMat0=    1 NMatS0=      1 NMatT0=    0 NMatD0=    1 NMtDS0=    0 NMtDT0=    0
 Symmetry not used in FoFCou.
 FMM levels:  10  Number of levels for PrismC:   9
 E= -4068.95061811997    
 DIIS: error= 2.04D-02 at cycle   1 NSaved=   1.
 NSaved= 1 IEnMin= 1 EnMin= -4068.95061811997     IErMin= 1 ErrMin= 2.04D-02
 ErrMax= 2.04D-02  0.00D+00 EMaxC= 1.00D-01 BMatC= 1.69D+00 BMatP= 1.69D+00
 IDIUse=3 WtCom= 7.96D-01 WtEn= 2.04D-01
 Coeff-Com:  0.100D+01
 Coeff-En:   0.100D+01
 Coeff:      0.100D+01
 Gap=     0.120 Goal=   None    Shift=    0.000
 GapD=    0.120 DampG=1.000 DampE=0.500 DampFc=0.5000 IDamp=-1.
 Damping current iteration by 5.00D-01
 RMSDP=1.57D-03 MaxDP=1.35D-01              OVMax= 1.99D-01

 Cycle   2  Pass 1  IDiag  1:
 RMSU=  7.69D-04    CP:  9.82D-01
 E= -4069.33949491061     Delta-E=       -0.388876790636 Rises=F Damp=T
 DIIS: error= 1.27D-02 at cycle   2 NSaved=   2.
 NSaved= 2 IEnMin= 2 EnMin= -4069.33949491061     IErMin= 2 ErrMin= 1.27D-02
 ErrMax= 1.27D-02  0.00D+00 EMaxC= 1.00D-01 BMatC= 3.06D-01 BMatP= 1.69D+00
 IDIUse=3 WtCom= 8.73D-01 WtEn= 1.27D-01
 Coeff-Com: -0.214D+00 0.121D+01
 Coeff-En:   0.000D+00 0.100D+01
 Coeff:     -0.187D+00 0.119D+01
 Gap=     0.134 Goal=   None    Shift=    0.000
 RMSDP=7.64D-04 MaxDP=9.45D-02 DE=-3.89D-01 OVMax= 1.87D-01

 Cycle   3  Pass 1  IDiag  1:
 RMSU=  7.31D-04    CP:  9.68D-01  1.24D+00
 E= -4069.62999413422     Delta-E=       -0.290499223611 Rises=F Damp=F
 DIIS: error= 1.55D-02 at cycle   3 NSaved=   3.
 NSaved= 3 IEnMin= 3 EnMin= -4069.62999413422     IErMin= 2 ErrMin= 1.27D-02
 ErrMax= 1.55D-02  0.00D+00 EMaxC= 1.00D-01 BMatC= 2.00D-01 BMatP= 3.06D-01
 IDIUse=3 WtCom= 8.45D-01 WtEn= 1.55D-01
 Coeff-Com: -0.267D+00 0.651D+00 0.617D+00
 Coeff-En:   0.000D+00 0.000D+00 0.100D+01
 Coeff:     -0.226D+00 0.550D+00 0.676D+00
 Gap=     0.121 Goal=   None    Shift=    0.000
 RMSDP=5.05D-04 MaxDP=4.69D-02 DE=-2.90D-01 OVMax= 1.37D-01

 Cycle   4  Pass 1  IDiag  1:
 RMSU=  2.64D-04    CP:  9.65D-01  1.55D+00  5.08D-01
 E= -4069.76692289142     Delta-E=       -0.136928757198 Rises=F Damp=F
 DIIS: error= 7.06D-03 at cycle   4 NSaved=   4.
 NSaved= 4 IEnMin= 4 EnMin= -4069.76692289142     IErMin= 4 ErrMin= 7.06D-03
 ErrMax= 7.06D-03  0.00D+00 EMaxC= 1.00D-01 BMatC= 4.90D-02 BMatP= 2.00D-01
 IDIUse=3 WtCom= 9.29D-01 WtEn= 7.06D-02
 Coeff-Com: -0.109D+00 0.225D+00 0.407D+00 0.476D+00
 Coeff-En:   0.000D+00 0.000D+00 0.217D+00 0.783D+00
 Coeff:     -0.101D+00 0.210D+00 0.394D+00 0.498D+00
 Gap=     0.120 Goal=   None    Shift=    0.000
 RMSDP=1.97D-04 MaxDP=1.96D-02 DE=-1.37D-01 OVMax= 5.81D-02

 Cycle   5  Pass 1  IDiag  1:
 RMSU=  7.49D-05    CP:  9.64D-01  1.49D+00  6.89D-01  5.54D-01
 E= -4069.81118498449     Delta-E=       -0.044262093073 Rises=F Damp=F
 DIIS: error= 7.62D-04 at cycle   5 NSaved=   5.
 NSaved= 5 IEnMin= 5 EnMin= -4069.81118498449     IErMin= 5 ErrMin= 7.62D-04
 ErrMax= 7.62D-04  0.00D+00 EMaxC= 1.00D-01 BMatC= 1.12D-03 BMatP= 4.90D-02
 IDIUse=3 WtCom= 9.92D-01 WtEn= 7.62D-03
 Coeff-Com: -0.357D-01 0.701D-01 0.164D+00 0.248D+00 0.553D+00
 Coeff-En:   0.000D+00 0.000D+00 0.000D+00 0.000D+00 0.100D+01
 Coeff:     -0.355D-01 0.696D-01 0.163D+00 0.246D+00 0.557D+00
 Gap=     0.120 Goal=   None    Shift=    0.000
 RMSDP=4.06D-05 MaxDP=4.27D-03 DE=-4.43D-02 OVMax= 1.54D-02

 Cycle   6  Pass 1  IDiag  1:
 RMSU=  3.04D-05    CP:  9.64D-01  1.49D+00  6.81D-01  6.24D-01  7.58D-01
 E= -4069.81214670793     Delta-E=       -0.000961723439 Rises=F Damp=F
 DIIS: error= 2.12D-04 at cycle   6 NSaved=   6.
 NSaved= 6 IEnMin= 6 EnMin= -4069.81214670793     IErMin= 6 ErrMin= 2.12D-04
 ErrMax= 2.12D-04  0.00D+00 EMaxC= 1.00D-01 BMatC= 1.78D-04 BMatP= 1.12D-03
 IDIUse=3 WtCom= 9.98D-01 WtEn= 2.12D-03
 Coeff-Com:  0.211D-02-0.637D-02 0.114D-01 0.404D-01 0.311D+00 0.641D+00
 Coeff-En:   0.000D+00 0.000D+00 0.000D+00 0.000D+00 0.115D+00 0.885D+00
 Coeff:      0.210D-02-0.635D-02 0.114D-01 0.403D-01 0.311D+00 0.642D+00
 Gap=     0.120 Goal=   None    Shift=    0.000
 RMSDP=1.61D-05 MaxDP=1.21D-03 DE=-9.62D-04 OVMax= 6.66D-03

 Cycle   7  Pass 1  IDiag  1:
 RMSU=  1.07D-05    CP:  9.64D-01  1.50D+00  6.87D-01  6.23D-01  8.62D-01
                    CP:  7.38D-01
 E= -4069.81233891569     Delta-E=       -0.000192207757 Rises=F Damp=F
 DIIS: error= 8.78D-05 at cycle   7 NSaved=   7.
 NSaved= 7 IEnMin= 7 EnMin= -4069.81233891569     IErMin= 7 ErrMin= 8.78D-05
 ErrMax= 8.78D-05  0.00D+00 EMaxC= 1.00D-01 BMatC= 2.16D-05 BMatP= 1.78D-04
 IDIUse=1 WtCom= 1.00D+00 WtEn= 0.00D+00
 Coeff-Com:  0.443D-02-0.971D-02-0.879D-02-0.350D-02 0.106D+00 0.332D+00
 Coeff-Com:  0.580D+00
 Coeff:      0.443D-02-0.971D-02-0.879D-02-0.350D-02 0.106D+00 0.332D+00
 Coeff:      0.580D+00
 Gap=     0.120 Goal=   None    Shift=    0.000
 RMSDP=6.58D-06 MaxDP=1.18D-03 DE=-1.92D-04 OVMax= 3.39D-03

 Cycle   8  Pass 1  IDiag  1:
 RMSU=  4.68D-06    CP:  9.64D-01  1.50D+00  6.88D-01  6.28D-01  8.65D-01
                    CP:  8.66D-01  8.14D-01
 E= -4069.81236563190     Delta-E=       -0.000026716218 Rises=F Damp=F
 DIIS: error= 4.92D-05 at cycle   8 NSaved=   8.
 NSaved= 8 IEnMin= 8 EnMin= -4069.81236563190     IErMin= 8 ErrMin= 4.92D-05
 ErrMax= 4.92D-05  0.00D+00 EMaxC= 1.00D-01 BMatC= 4.79D-06 BMatP= 2.16D-05
 IDIUse=1 WtCom= 1.00D+00 WtEn= 0.00D+00
 Coeff-Com:  0.218D-02-0.432D-02-0.779D-02-0.122D-01-0.116D-01 0.346D-01
 Coeff-Com:  0.339D+00 0.661D+00
 Coeff:      0.218D-02-0.432D-02-0.779D-02-0.122D-01-0.116D-01 0.346D-01
 Coeff:      0.339D+00 0.661D+00
 Gap=     0.121 Goal=   None    Shift=    0.000
 RMSDP=3.28D-06 MaxDP=3.68D-04 DE=-2.67D-05 OVMax= 1.15D-03

 Cycle   9  Pass 1  IDiag  1:
 RMSU=  1.90D-06    CP:  9.64D-01  1.50D+00  6.88D-01  6.30D-01  8.82D-01
                    CP:  8.92D-01  1.01D+00  9.41D-01
 E= -4069.81237326729     Delta-E=       -0.000007635386 Rises=F Damp=F
 DIIS: error= 2.11D-05 at cycle   9 NSaved=   9.
 NSaved= 9 IEnMin= 9 EnMin= -4069.81237326729     IErMin= 9 ErrMin= 2.11D-05
 ErrMax= 2.11D-05  0.00D+00 EMaxC= 1.00D-01 BMatC= 6.93D-07 BMatP= 4.79D-06
 IDIUse=1 WtCom= 1.00D+00 WtEn= 0.00D+00
 Coeff-Com:  0.487D-03-0.817D-03-0.273D-02-0.609D-02-0.217D-01-0.378D-01
 Coeff-Com:  0.103D+00 0.331D+00 0.634D+00
 Coeff:      0.487D-03-0.817D-03-0.273D-02-0.609D-02-0.217D-01-0.378D-01
 Coeff:      0.103D+00 0.331D+00 0.634D+00
 Gap=     0.121 Goal=   None    Shift=    0.000
 RMSDP=1.39D-06 MaxDP=1.53D-04 DE=-7.64D-06 OVMax= 7.60D-04

 Cycle  10  Pass 1  IDiag  1:
 RMSU=  9.30D-07    CP:  9.64D-01  1.50D+00  6.88D-01  6.30D-01  8.86D-01
                    CP:  9.05D-01  1.06D+00  1.10D+00  1.05D+00
 E= -4069.81237482126     Delta-E=       -0.000001553966 Rises=F Damp=F
 DIIS: error= 1.05D-05 at cycle  10 NSaved=  10.
 NSaved=10 IEnMin=10 EnMin= -4069.81237482126     IErMin=10 ErrMin= 1.05D-05
 ErrMax= 1.05D-05  0.00D+00 EMaxC= 1.00D-01 BMatC= 1.64D-07 BMatP= 6.93D-07
 IDIUse=1 WtCom= 1.00D+00 WtEn= 0.00D+00
 Coeff-Com: -0.419D-03 0.879D-03 0.120D-02 0.109D-02-0.392D-02-0.305D-01
 Coeff-Com: -0.450D-01-0.733D-01 0.247D+00 0.903D+00
 Coeff:     -0.419D-03 0.879D-03 0.120D-02 0.109D-02-0.392D-02-0.305D-01
 Coeff:     -0.450D-01-0.733D-01 0.247D+00 0.903D+00
 Gap=     0.121 Goal=   None    Shift=    0.000
 RMSDP=1.20D-06 MaxDP=1.18D-04 DE=-1.55D-06 OVMax= 6.07D-04

 Cycle  11  Pass 1  IDiag  1:
 RMSU=  5.07D-07    CP:  9.64D-01  1.50D+00  6.89D-01  6.30D-01  8.88D-01
                    CP:  9.15D-01  1.10D+00  1.21D+00  1.38D+00  1.36D+00
 E= -4069.81237557491     Delta-E=       -0.000000753658 Rises=F Damp=F
 DIIS: error= 4.06D-06 at cycle  11 NSaved=  11.
 NSaved=11 IEnMin=11 EnMin= -4069.81237557491     IErMin=11 ErrMin= 4.06D-06
 ErrMax= 4.06D-06  0.00D+00 EMaxC= 1.00D-01 BMatC= 5.93D-08 BMatP= 1.64D-07
 IDIUse=1 WtCom= 1.00D+00 WtEn= 0.00D+00
 Coeff-Com: -0.327D-03 0.636D-03 0.131D-02 0.211D-02 0.440D-02-0.841D-02
 Coeff-Com: -0.423D-01-0.130D+00-0.270D-01 0.466D+00 0.734D+00
 Coeff:     -0.327D-03 0.636D-03 0.131D-02 0.211D-02 0.440D-02-0.841D-02
 Coeff:     -0.423D-01-0.130D+00-0.270D-01 0.466D+00 0.734D+00
 Gap=     0.121 Goal=   None    Shift=    0.000
 RMSDP=6.68D-07 MaxDP=5.96D-05 DE=-7.54D-07 OVMax= 3.61D-04

 Cycle  12  Pass 1  IDiag  1:
 RMSU=  2.58D-07    CP:  9.64D-01  1.50D+00  6.88D-01  6.31D-01  8.89D-01
                    CP:  9.17D-01  1.12D+00  1.28D+00  1.54D+00  1.75D+00
                    CP:  1.20D+00
 E= -4069.81237582574     Delta-E=       -0.000000250828 Rises=F Damp=F
 DIIS: error= 2.46D-06 at cycle  12 NSaved=  12.
 NSaved=12 IEnMin=12 EnMin= -4069.81237582574     IErMin=12 ErrMin= 2.46D-06
 ErrMax= 2.46D-06  0.00D+00 EMaxC= 1.00D-01 BMatC= 1.43D-08 BMatP= 5.93D-08
 IDIUse=1 WtCom= 1.00D+00 WtEn= 0.00D+00
 Coeff-Com: -0.335D-05-0.944D-05 0.184D-03 0.513D-03 0.330D-02 0.371D-02
 Coeff-Com:  0.273D-02-0.344D-01-0.668D-01-0.709D-01 0.247D+00 0.915D+00
 Coeff:     -0.335D-05-0.944D-05 0.184D-03 0.513D-03 0.330D-02 0.371D-02
 Coeff:      0.273D-02-0.344D-01-0.668D-01-0.709D-01 0.247D+00 0.915D+00
 Gap=     0.121 Goal=   None    Shift=    0.000
 RMSDP=4.23D-07 MaxDP=2.95D-05 DE=-2.51D-07 OVMax= 2.45D-04

 Cycle  13  Pass 1  IDiag  1:
 RMSU=  1.62D-07    CP:  9.64D-01  1.50D+00  6.88D-01  6.31D-01  8.89D-01
                    CP:  9.17D-01  1.13D+00  1.30D+00  1.65D+00  1.97D+00
                    CP:  1.61D+00  1.27D+00
 E= -4069.81237591214     Delta-E=       -0.000000086402 Rises=F Damp=F
 DIIS: error= 1.29D-06 at cycle  13 NSaved=  13.
 NSaved=13 IEnMin=13 EnMin= -4069.81237591214     IErMin=13 ErrMin= 1.29D-06
 ErrMax= 1.29D-06  0.00D+00 EMaxC= 1.00D-01 BMatC= 7.99D-09 BMatP= 1.43D-08
 IDIUse=1 WtCom= 1.00D+00 WtEn= 0.00D+00
 Coeff-Com:  0.119D-03-0.242D-03-0.365D-03-0.454D-03 0.587D-03 0.487D-02
 Coeff-Com:  0.193D-01 0.226D-01-0.324D-01-0.239D+00-0.159D+00 0.600D+00
 Coeff-Com:  0.784D+00
 Coeff:      0.119D-03-0.242D-03-0.365D-03-0.454D-03 0.587D-03 0.487D-02
 Coeff:      0.193D-01 0.226D-01-0.324D-01-0.239D+00-0.159D+00 0.600D+00
 Coeff:      0.784D+00
 Gap=     0.121 Goal=   None    Shift=    0.000
 RMSDP=3.30D-07 MaxDP=2.09D-05 DE=-8.64D-08 OVMax= 1.90D-04

 Cycle  14  Pass 1  IDiag  1:
 RMSU=  7.46D-08    CP:  9.64D-01  1.50D+00  6.88D-01  6.31D-01  8.90D-01
                    CP:  9.18D-01  1.14D+00  1.33D+00  1.72D+00  2.16D+00
                    CP:  1.87D+00  1.79D+00  1.09D+00
 E= -4069.81237594682     Delta-E=       -0.000000034674 Rises=F Damp=F
 DIIS: error= 6.82D-07 at cycle  14 NSaved=  14.
 NSaved=14 IEnMin=14 EnMin= -4069.81237594682     IErMin=14 ErrMin= 6.82D-07
 ErrMax= 6.82D-07  0.00D+00 EMaxC= 1.00D-01 BMatC= 1.23D-09 BMatP= 7.99D-09
 IDIUse=1 WtCom= 1.00D+00 WtEn= 0.00D+00
 Coeff-Com:  0.665D-04-0.131D-03-0.246D-03-0.387D-03-0.480D-03 0.124D-02
 Coeff-Com:  0.106D-01 0.191D-01 0.410D-02-0.993D-01-0.144D+00 0.945D-01
 Coeff-Com:  0.403D+00 0.712D+00
 Coeff:      0.665D-04-0.131D-03-0.246D-03-0.387D-03-0.480D-03 0.124D-02
 Coeff:      0.106D-01 0.191D-01 0.410D-02-0.993D-01-0.144D+00 0.945D-01
 Coeff:      0.403D+00 0.712D+00
 Gap=     0.121 Goal=   None    Shift=    0.000
 RMSDP=1.00D-07 MaxDP=6.77D-06 DE=-3.47D-08 OVMax= 5.49D-05

 Cycle  15  Pass 1  IDiag  1:
 RMSU=  3.78D-08    CP:  9.64D-01  1.50D+00  6.88D-01  6.31D-01  8.89D-01
                    CP:  9.18D-01  1.14D+00  1.33D+00  1.74D+00  2.20D+00
                    CP:  1.98D+00  1.93D+00  1.33D+00  1.03D+00
 E= -4069.81237595091     Delta-E=       -0.000000004089 Rises=F Damp=F
 DIIS: error= 3.08D-07 at cycle  15 NSaved=  15.
 NSaved=15 IEnMin=15 EnMin= -4069.81237595091     IErMin=15 ErrMin= 3.08D-07
 ErrMax= 3.08D-07  0.00D+00 EMaxC= 1.00D-01 BMatC= 2.25D-10 BMatP= 1.23D-09
 IDIUse=1 WtCom= 1.00D+00 WtEn= 0.00D+00
 Coeff-Com:  0.567D-05-0.958D-05-0.332D-04-0.820D-04-0.297D-03-0.503D-03
 Coeff-Com:  0.118D-02 0.256D-02 0.854D-02 0.142D-02-0.313D-01-0.725D-01
 Coeff-Com:  0.278D-01 0.299D+00 0.764D+00
 Coeff:      0.567D-05-0.958D-05-0.332D-04-0.820D-04-0.297D-03-0.503D-03
 Coeff:      0.118D-02 0.256D-02 0.854D-02 0.142D-02-0.313D-01-0.725D-01
 Coeff:      0.278D-01 0.299D+00 0.764D+00
 Gap=     0.121 Goal=   None    Shift=    0.000
 RMSDP=4.04D-08 MaxDP=2.53D-06 DE=-4.09D-09 OVMax= 2.66D-05

 Cycle  16  Pass 1  IDiag  1:
 RMSU=  1.82D-08    CP:  9.64D-01  1.50D+00  6.88D-01  6.31D-01  8.90D-01
                    CP:  9.18D-01  1.14D+00  1.33D+00  1.74D+00  2.21D+00
                    CP:  2.00D+00  1.99D+00  1.40D+00  1.24D+00  1.15D+00
 E= -4069.81237595166     Delta-E=       -0.000000000757 Rises=F Damp=F
 DIIS: error= 1.73D-07 at cycle  16 NSaved=  16.
 NSaved=16 IEnMin=16 EnMin= -4069.81237595166     IErMin=16 ErrMin= 1.73D-07
 ErrMax= 1.73D-07  0.00D+00 EMaxC= 1.00D-01 BMatC= 7.97D-11 BMatP= 2.25D-10
 IDIUse=1 WtCom= 1.00D+00 WtEn= 0.00D+00
 Coeff-Com: -0.139D-04 0.282D-04 0.460D-04 0.528D-04-0.253D-04-0.619D-03
 Coeff-Com: -0.188D-02-0.419D-02 0.429D-02 0.252D-01 0.205D-01-0.639D-01
 Coeff-Com: -0.830D-01-0.343D-01 0.396D+00 0.742D+00
 Coeff:     -0.139D-04 0.282D-04 0.460D-04 0.528D-04-0.253D-04-0.619D-03
 Coeff:     -0.188D-02-0.419D-02 0.429D-02 0.252D-01 0.205D-01-0.639D-01
 Coeff:     -0.830D-01-0.343D-01 0.396D+00 0.742D+00
 Gap=     0.121 Goal=   None    Shift=    0.000
 RMSDP=2.22D-08 MaxDP=1.54D-06 DE=-7.57D-10 OVMax= 1.29D-05

 Cycle  17  Pass 1  IDiag  1:
 RMSU=  1.02D-08    CP:  9.64D-01  1.50D+00  6.88D-01  6.31D-01  8.89D-01
                    CP:  9.18D-01  1.14D+00  1.33D+00  1.74D+00  2.22D+00
                    CP:  2.02D+00  2.01D+00  1.45D+00  1.34D+00  1.44D+00
                    CP:  1.25D+00
 E= -4069.81237595186     Delta-E=       -0.000000000200 Rises=F Damp=F
 DIIS: error= 1.05D-07 at cycle  17 NSaved=  17.
 NSaved=17 IEnMin=17 EnMin= -4069.81237595186     IErMin=17 ErrMin= 1.05D-07
 ErrMax= 1.05D-07  0.00D+00 EMaxC= 1.00D-01 BMatC= 1.80D-11 BMatP= 7.97D-11
 IDIUse=1 WtCom= 1.00D+00 WtEn= 0.00D+00
 Coeff-Com: -0.726D-05 0.141D-04 0.286D-04 0.425D-04 0.840D-04-0.129D-03
 Coeff-Com: -0.938D-03-0.281D-02 0.114D-03 0.934D-02 0.175D-01-0.771D-02
 Coeff-Com: -0.372D-01-0.100D+00-0.299D-01 0.301D+00 0.851D+00
 Coeff:     -0.726D-05 0.141D-04 0.286D-04 0.425D-04 0.840D-04-0.129D-03
 Coeff:     -0.938D-03-0.281D-02 0.114D-03 0.934D-02 0.175D-01-0.771D-02
 Coeff:     -0.372D-01-0.100D+00-0.299D-01 0.301D+00 0.851D+00
 Gap=     0.121 Goal=   None    Shift=    0.000
 RMSDP=1.35D-08 MaxDP=9.67D-07 DE=-2.00D-10 OVMax= 8.34D-06

 Cycle  18  Pass 1  IDiag  1:
 RMSU=  4.81D-09    CP:  9.64D-01  1.50D+00  6.88D-01  6.31D-01  8.89D-01
                    CP:  9.18D-01  1.14D+00  1.33D+00  1.74D+00  2.22D+00
                    CP:  2.02D+00  2.02D+00  1.47D+00  1.41D+00  1.61D+00
                    CP:  1.66D+00  1.38D+00
 E= -4069.81237595208     Delta-E=       -0.000000000215 Rises=F Damp=F
 DIIS: error= 5.50D-08 at cycle  18 NSaved=  18.
 NSaved=18 IEnMin=18 EnMin= -4069.81237595208     IErMin=18 ErrMin= 5.50D-08
 ErrMax= 5.50D-08  0.00D+00 EMaxC= 1.00D-01 BMatC= 6.88D-12 BMatP= 1.80D-11
 IDIUse=1 WtCom= 1.00D+00 WtEn= 0.00D+00
 Coeff-Com:  0.175D-05-0.381D-05-0.353D-05-0.534D-06 0.602D-04 0.167D-03
 Coeff-Com:  0.362D-03 0.123D-03-0.118D-02-0.568D-02 0.362D-03 0.196D-01
 Coeff-Com:  0.173D-01-0.345D-01-0.160D+00-0.175D+00 0.356D+00 0.982D+00
 Coeff:      0.175D-05-0.381D-05-0.353D-05-0.534D-06 0.602D-04 0.167D-03
 Coeff:      0.362D-03 0.123D-03-0.118D-02-0.568D-02 0.362D-03 0.196D-01
 Coeff:      0.173D-01-0.345D-01-0.160D+00-0.175D+00 0.356D+00 0.982D+00
 Gap=     0.121 Goal=   None    Shift=    0.000
 RMSDP=1.12D-08 MaxDP=7.20D-07 DE=-2.15D-10 OVMax= 6.90D-06

 Cycle  19  Pass 1  IDiag  1:
 RMSU=  2.89D-09    CP:  9.64D-01  1.50D+00  6.88D-01  6.31D-01  8.89D-01
                    CP:  9.18D-01  1.14D+00  1.33D+00  1.74D+00  2.22D+00
                    CP:  2.02D+00  2.03D+00  1.48D+00  1.45D+00  1.75D+00
                    CP:  1.98D+00  1.92D+00  1.35D+00
 E= -4069.81237595201     Delta-E=        0.000000000073 Rises=F Damp=F
 DIIS: error= 4.51D-08 at cycle  19 NSaved=  19.
 NSaved=19 IEnMin=18 EnMin= -4069.81237595208     IErMin=19 ErrMin= 4.51D-08
 ErrMax= 4.51D-08  0.00D+00 EMaxC= 1.00D-01 BMatC= 1.76D-12 BMatP= 6.88D-12
 IDIUse=1 WtCom= 1.00D+00 WtEn= 0.00D+00
 Coeff-Com:  0.302D-05-0.610D-05-0.102D-04-0.127D-04 0.131D-04 0.125D-03
 Coeff-Com:  0.491D-03 0.817D-03-0.614D-03-0.627D-02-0.501D-02 0.130D-01
 Coeff-Com:  0.213D-01 0.101D-01-0.775D-01-0.188D+00-0.321D-01 0.534D+00
 Coeff-Com:  0.730D+00
 Coeff:      0.302D-05-0.610D-05-0.102D-04-0.127D-04 0.131D-04 0.125D-03
 Coeff:      0.491D-03 0.817D-03-0.614D-03-0.627D-02-0.501D-02 0.130D-01
 Coeff:      0.213D-01 0.101D-01-0.775D-01-0.188D+00-0.321D-01 0.534D+00
 Coeff:      0.730D+00
 Gap=     0.121 Goal=   None    Shift=    0.000
 RMSDP=4.99D-09 MaxDP=3.21D-07 DE= 7.28D-11 OVMax= 3.01D-06

 SCF Done:  E(RCAM-B3LYP) =  -4069.81237595     A.U. after   19 cycles
            NFock= 19  Conv=0.50D-08     -V/T= 2.0102
 KE= 4.028801979472D+03 PE=-3.936085545491D+04 EE= 1.632233611692D+04
 Leave Link  502 at Sat Sep  4 06:09:54 2021, MaxMem= 23488102400 cpu:           13975.0 elap:             609.1
 (Enter /sw/apps/gaussian-16.0/g16/l801.exe)
 DoSCS=F DFT=T ScalE2(SS,OS)=  1.000000  1.000000
 ExpMin= 3.36D-02 ExpMax= 4.95D+03 ExpMxC= 7.45D+02 IAcc=3 IRadAn=         5 AccDes= 0.00D+00
 HarFok:  IExCor=  205 AccDes= 0.00D+00 IRadAn=         5 IDoV=-2 UseB2=F ITyADJ=14
 ICtDFT= 12500011 ScaDFX=  1.000000  1.000000  1.000000  1.000000
 GSVD:  LWork=       -9588 too small for GESVD, short by       45590 words or       45590 for optimal perf.
 Largest valence mixing into a core orbital is  2.03D-04
 Largest core mixing into a valence orbital is  5.24D-05
 Range of M.O.s used for correlation:    95  1572
 NBasis=  1572 NAE=   312 NBE=   312 NFC=    94 NFV=     0
 NROrb=   1478 NOA=   218 NOB=   218 NVA=  1260 NVB=  1260
 Leave Link  801 at Sat Sep  4 06:09:54 2021, MaxMem= 23488102400 cpu:               8.5 elap:               0.4
 (Enter /sw/apps/gaussian-16.0/g16/l914.exe)
 RHF ground state
 Two-electron integrals replicated using symmetry.
 MDV= 23488102400 DFT=T DoStab=F Mixed=T DoRPA=T DoScal=F NonHer=T
 Making orbital integer symmetry assigments:
 Orbital symmetries:
       Occupied  (A) (A) (A) (A) (A) (A) (A) (A) (A) (A) (A) (A)
                 (A) (A) (A) (A) (A) (A) (A) (A) (A) (A) (A) (A)
                 (A) (A) (A) (A) (A) (A) (A) (A) (A) (A) (A) (A)
                 (A) (A) (A) (A) (A) (A) (A) (A) (A) (A) (A) (A)
                 (A) (A) (A) (A) (A) (A) (A) (A) (A) (A) (A) (A)
                 (A) (A) (A) (A) (A) (A) (A) (A) (A) (A) (A) (A)
                 (A) (A) (A) (A) (A) (A) (A) (A) (A) (A) (A) (A)
                 (A) (A) (A) (A) (A) (A) (A) (A) (A) (A) (A) (A)
                 (A) (A) (A) (A) (A) (A) (A) (A) (A) (A) (A) (A)
                 (A) (A) (A) (A) (A) (A) (A) (A) (A) (A) (A) (A)
                 (A) (A) (A) (A) (A) (A) (A) (A) (A) (A) (A) (A)
                 (A) (A) (A) (A) (A) (A) (A) (A) (A) (A) (A) (A)
                 (A) (A) (A) (A) (A) (A) (A) (A) (A) (A) (A) (A)
                 (A) (A) (A) (A) (A) (A) (A) (A) (A) (A) (A) (A)
                 (A) (A) (A) (A) (A) (A) (A) (A) (A) (A) (A) (A)
                 (A) (A) (A) (A) (A) (A) (A) (A) (A) (A) (A) (A)
                 (A) (A) (A) (A) (A) (A) (A) (A) (A) (A) (A) (A)
                 (A) (A) (A) (A) (A) (A) (A) (A) (A) (A) (A) (A)
                 (A) (A) (A) (A) (A) (A) (A) (A) (A) (A) (A) (A)
                 (A) (A) (A) (A) (A) (A) (A) (A) (A) (A) (A) (A)
                 (A) (A) (A) (A) (A) (A) (A) (A) (A) (A) (A) (A)
                 (A) (A) (A) (A) (A) (A) (A) (A) (A) (A) (A) (A)
                 (A) (A) (A) (A) (A) (A) (A) (A) (A) (A) (A) (A)
                 (A) (A) (A) (A) (A) (A) (A) (A) (A) (A) (A) (A)
                 (A) (A) (A) (A) (A) (A) (A) (A) (A) (A) (A) (A)
                 (A) (A) (A) (A) (A) (A) (A) (A) (A) (A) (A) (A)
       Virtual   (A) (A) (A) (A) (A) (A) (A) (A) (A) (A) (A) (A)
                 (A) (A) (A) (A) (A) (A) (A) (A) (A) (A) (A) (A)
                 (A) (A) (A) (A) (A) (A) (A) (A) (A) (A) (A) (A)
                 (A) (A) (A) (A) (A) (A) (A) (A) (A) (A) (A) (A)
                 (A) (A) (A) (A) (A) (A) (A) (A) (A) (A) (A) (A)
                 (A) (A) (A) (A) (A) (A) (A) (A) (A) (A) (A) (A)
                 (A) (A) (A) (A) (A) (A) (A) (A) (A) (A) (A) (A)
                 (A) (A) (A) (A) (A) (A) (A) (A) (A) (A) (A) (A)
                 (A) (A) (A) (A) (A) (A) (A) (A) (A) (A) (A) (A)
                 (A) (A) (A) (A) (A) (A) (A) (A) (A) (A) (A) (A)
                 (A) (A) (A) (A) (A) (A) (A) (A) (A) (A) (A) (A)
                 (A) (A) (A) (A) (A) (A) (A) (A) (A) (A) (A) (A)
                 (A) (A) (A) (A) (A) (A) (A) (A) (A) (A) (A) (A)
                 (A) (A) (A) (A) (A) (A) (A) (A) (A) (A) (A) (A)
                 (A) (A) (A) (A) (A) (A) (A) (A) (A) (A) (A) (A)
                 (A) (A) (A) (A) (A) (A) (A) (A) (A) (A) (A) (A)
                 (A) (A) (A) (A) (A) (A) (A) (A) (A) (A) (A) (A)
                 (A) (A) (A) (A) (A) (A) (A) (A) (A) (A) (A) (A)
                 (A) (A) (A) (A) (A) (A) (A) (A) (A) (A) (A) (A)
                 (A) (A) (A) (A) (A) (A) (A) (A) (A) (A) (A) (A)
                 (A) (A) (A) (A) (A) (A) (A) (A) (A) (A) (A) (A)
                 (A) (A) (A) (A) (A) (A) (A) (A) (A) (A) (A) (A)
                 (A) (A) (A) (A) (A) (A) (A) (A) (A) (A) (A) (A)
                 (A) (A) (A) (A) (A) (A) (A) (A) (A) (A) (A) (A)
                 (A) (A) (A) (A) (A) (A) (A) (A) (A) (A) (A) (A)
                 (A) (A) (A) (A) (A) (A) (A) (A) (A) (A) (A) (A)
                 (A) (A) (A) (A) (A) (A) (A) (A) (A) (A) (A) (A)
                 (A) (A) (A) (A) (A) (A) (A) (A) (A) (A) (A) (A)
                 (A) (A) (A) (A) (A) (A) (A) (A) (A) (A) (A) (A)
                 (A) (A) (A) (A) (A) (A) (A) (A) (A) (A) (A) (A)
                 (A) (A) (A) (A) (A) (A) (A) (A) (A) (A) (A) (A)
                 (A) (A) (A) (A) (A) (A) (A) (A) (A) (A) (A) (A)
                 (A) (A) (A) (A) (A) (A) (A) (A) (A) (A) (A) (A)
                 (A) (A) (A) (A) (A) (A) (A) (A) (A) (A) (A) (A)
                 (A) (A) (A) (A) (A) (A) (A) (A) (A) (A) (A) (A)
                 (A) (A) (A) (A) (A) (A) (A) (A) (A) (A) (A) (A)
                 (A) (A) (A) (A) (A) (A) (A) (A) (A) (A) (A) (A)
                 (A) (A) (A) (A) (A) (A) (A) (A) (A) (A) (A) (A)
                 (A) (A) (A) (A) (A) (A) (A) (A) (A) (A) (A) (A)
                 (A) (A) (A) (A) (A) (A) (A) (A) (A) (A) (A) (A)
                 (A) (A) (A) (A) (A) (A) (A) (A) (A) (A) (A) (A)
                 (A) (A) (A) (A) (A) (A) (A) (A) (A) (A) (A) (A)
                 (A) (A) (A) (A) (A) (A) (A) (A) (A) (A) (A) (A)
                 (A) (A) (A) (A) (A) (A) (A) (A) (A) (A) (A) (A)
                 (A) (A) (A) (A) (A) (A) (A) (A) (A) (A) (A) (A)
                 (A) (A) (A) (A) (A) (A) (A) (A) (A) (A) (A) (A)
                 (A) (A) (A) (A) (A) (A) (A) (A) (A) (A) (A) (A)
                 (A) (A) (A) (A) (A) (A) (A) (A) (A) (A) (A) (A)
                 (A) (A) (A) (A) (A) (A) (A) (A) (A) (A) (A) (A)
                 (A) (A) (A) (A) (A) (A) (A) (A) (A) (A) (A) (A)
                 (A) (A) (A) (A) (A) (A) (A) (A) (A) (A) (A) (A)
                 (A) (A) (A) (A) (A) (A) (A) (A) (A) (A) (A) (A)
                 (A) (A) (A) (A) (A) (A) (A) (A) (A) (A) (A) (A)
                 (A) (A) (A) (A) (A) (A) (A) (A) (A) (A) (A) (A)
                 (A) (A) (A) (A) (A) (A) (A) (A) (A) (A) (A) (A)
                 (A) (A) (A) (A) (A) (A) (A) (A) (A) (A) (A) (A)
                 (A) (A) (A) (A) (A) (A) (A) (A) (A) (A) (A) (A)
                 (A) (A) (A) (A) (A) (A) (A) (A) (A) (A) (A) (A)
                 (A) (A) (A) (A) (A) (A) (A) (A) (A) (A) (A) (A)
                 (A) (A) (A) (A) (A) (A) (A) (A) (A) (A) (A) (A)
                 (A) (A) (A) (A) (A) (A) (A) (A) (A) (A) (A) (A)
                 (A) (A) (A) (A) (A) (A) (A) (A) (A) (A) (A) (A)
                 (A) (A) (A) (A) (A) (A) (A) (A) (A) (A) (A) (A)
                 (A) (A) (A) (A) (A) (A) (A) (A) (A) (A) (A) (A)
                 (A) (A) (A) (A) (A) (A) (A) (A) (A) (A) (A) (A)
                 (A) (A) (A) (A) (A) (A) (A) (A) (A) (A) (A) (A)
                 (A) (A) (A) (A) (A) (A) (A) (A) (A) (A) (A) (A)
                 (A) (A) (A) (A) (A) (A) (A) (A) (A) (A) (A) (A)
                 (A) (A) (A) (A) (A) (A) (A) (A) (A) (A) (A) (A)
                 (A) (A) (A) (A) (A) (A) (A) (A) (A) (A) (A) (A)
                 (A) (A) (A) (A) (A) (A) (A) (A) (A) (A) (A) (A)
                 (A) (A) (A) (A) (A) (A) (A) (A) (A) (A) (A) (A)
                 (A) (A) (A) (A) (A) (A) (A) (A) (A) (A) (A) (A)
                 (A) (A) (A) (A) (A) (A) (A) (A) (A) (A) (A) (A)
                 (A) (A) (A) (A) (A) (A) (A) (A) (A) (A) (A) (A)
                 (A) (A) (A) (A) (A) (A) (A) (A) (A) (A) (A) (A)
                 (A) (A) (A) (A) (A) (A) (A) (A) (A) (A) (A) (A)
                 (A) (A) (A) (A) (A) (A) (A) (A) (A) (A) (A) (A)
                 (A) (A) (A) (A) (A) (A) (A) (A) (A) (A) (A) (A)
                 (A) (A) (A) (A) (A) (A) (A) (A) (A) (A) (A) (A)
                 (A) (A) (A) (A) (A) (A) (A) (A) (A) (A) (A) (A)
                 (A) (A) (A) (A) (A) (A) (A) (A) (A) (A) (A) (A)
                 (A) (A) (A) (A) (A) (A) (A) (A) (A) (A) (A) (A)
                 (A) (A) (A) (A) (A) (A) (A) (A) (A) (A) (A) (A)
                 (A) (A) (A) (A) (A) (A) (A) (A) (A) (A) (A) (A)
                 (A) (A) (A) (A) (A) (A) (A) (A) (A) (A) (A) (A)
                 (A) (A) (A) (A) (A) (A) (A) (A) (A) (A) (A) (A)
                 (A) (A) (A) (A) (A) (A) (A) (A) (A) (A) (A) (A)
                 (A) (A) (A) (A) (A) (A) (A) (A) (A) (A) (A) (A)
                 (A) (A) (A) (A) (A) (A) (A) (A) (A) (A) (A) (A)
                 (A) (A) (A) (A) (A) (A) (A) (A) (A) (A) (A) (A)
                 (A) (A) (A) (A) (A) (A) (A) (A) (A) (A) (A) (A)
                 (A) (A) (A) (A) (A) (A) (A) (A) (A) (A) (A) (A)
                 (A) (A) (A) (A) (A) (A) (A) (A) (A) (A) (A) (A)
                 (A) (A) (A) (A) (A) (A) (A) (A) (A) (A) (A) (A)
                 (A) (A) (A) (A) (A) (A) (A) (A) (A) (A) (A) (A)
                 (A) (A) (A) (A) (A) (A) (A) (A) (A) (A) (A) (A)
                 (A) (A) (A) (A) (A) (A) (A) (A) (A) (A) (A) (A)
                 (A) (A) (A) (A) (A) (A) (A) (A) (A) (A) (A) (A)
                 (A) (A) (A) (A) (A) (A) (A) (A) (A) (A) (A) (A)
                 (A) (A) (A) (A) (A) (A) (A) (A) (A) (A) (A) (A)
                 (A) (A) (A) (A) (A) (A) (A) (A) (A) (A) (A) (A)
                 (A) (A) (A) (A) (A) (A) (A) (A) (A) (A) (A) (A)
                 (A) (A) (A) (A) (A) (A) (A) (A) (A) (A) (A) (A)
                 (A) (A) (A) (A) (A) (A) (A) (A) (A) (A) (A) (A)
    20 initial guesses have been made.
 Convergence on wavefunction:    0.001000000000000
 Davidson Disk Diagonalization:  ConvIn= 1.00D-03 SkipCon=T Conv= 1.00D-03.
 Max sub-space:  2000 roots to seek:    20 dimension of matrix:       549360
 Iteration     1 Dimension    20 NMult     0 NNew     20
 CISAX will form    20 AO SS matrices at one time.
 NMat=    20 NSing=    20 JSym2X= 0.
 FoFJK:  IHMeth= 1 ICntrl=       0 DoSepK=T KAlg= 0 I1Cent=           0 FoldK=F
 IRaf=         1 NMat=      40 IRICut=       1 DoRegI=T DoRafI=F ISym2E= 0 IDoP0=3 IntGTp=3.
 FoFCou: FMM=T IPFlag=           0 FMFlag=      100000 FMFlg1=        2001
         NFxFlg=           0 DoJE=F BraDBF=F KetDBF=F FulRan=T
         wScrn=  0.000000 ICntrl=       500 IOpCl=  0 I1Cent=           0 NGrid=           0
         NMat0=   20 NMatS0=     20 NMatT0=    0 NMatD0=   20 NMtDS0=    0 NMtDT0=    0
 Symmetry not used in FoFCou.
 FMM levels:  10  Number of levels for PrismC:   9
 New state      2 was old state      7
 New state      3 was old state      6
 New state      5 was old state      2
 Excitation Energies [eV] at current iteration:
 Root      1 :     2.475832591803614
 Root      2 :     2.611398423616199
 Root      3 :     2.620140757839970
 Root      4 :     2.629428163244816
 Root      5 :     2.675703963528624
 Root      6 :     2.694936043598844
 Root      7 :     3.261858623119645
 Root      8 :     3.428300698471988
 Root      9 :     3.630568240060623
 Root     10 :     3.673035531738750
 Root     11 :     3.737931471453135
 Root     12 :     3.758667325489688
 Root     13 :     4.292138741456326
 Root     14 :     4.313618298048663
 Root     15 :     4.381291812726371
 Root     16 :     4.562388930098746
 Root     17 :     4.707183435266873
 Root     18 :     4.743045232981121
 Root     19 :     4.857777999719847
 Root     20 :     4.858302052749586
 Iteration     2 Dimension    30 NMult    20 NNew     10
 CISAX will form    10 AO SS matrices at one time.
 NMat=    10 NSing=    10 JSym2X= 0.
 New state      1 was old state      5
 Root      1 not converged, maximum delta is    0.162873127559564
 Root      2 not converged, maximum delta is    0.182559551532655
 Root      3 not converged, maximum delta is    0.190637565904536
 New state      4 was old state      1
 Root      4 not converged, maximum delta is    0.002301218026379
 New state      5 was old state      4
 Root      5 not converged, maximum delta is    0.004410699174215
 Excitation Energies [eV] at current iteration:
 Root      1 :     1.797452864666648   Change is   -0.878251098861976
 Root      2 :     2.186793964750583   Change is   -0.424604458865616
 Root      3 :     2.238621593390837   Change is   -0.381519164449133
 Root      4 :     2.475394848705572   Change is   -0.000437743098042
 Root      5 :     2.628883716985940   Change is   -0.000544446258875
 Iteration     3 Dimension    40 NMult    30 NNew     10
 CISAX will form    10 AO SS matrices at one time.
 NMat=    10 NSing=    10 JSym2X= 0.
 Root      1 not converged, maximum delta is    0.062781599388527
 Root      2 not converged, maximum delta is    0.402954596182108
 Root      3 not converged, maximum delta is    0.129561096244836
 No map to state      4
 New state      5 was old state      4
 Root      5 has converged.
 Excitation Energies [eV] at current iteration:
 Root      1 :     1.690541434451889   Change is   -0.106911430214759
 Root      2 :     1.806443330829930   Change is   -0.380350633920653
 Root      3 :     2.195340380129213   Change is   -0.043281213261623
 Root      4 :     2.221818258641100
 Root      5 :     2.475392184732827   Change is   -0.000002663972745
 Iteration     4 Dimension    48 NMult    40 NNew      8
 CISAX will form     8 AO SS matrices at one time.
 NMat=     8 NSing=     8 JSym2X= 0.
 Root      1 not converged, maximum delta is    0.014759724443020
 Root      2 not converged, maximum delta is    0.059069595145474
 Root      3 not converged, maximum delta is    0.224068968671812
 Root      4 not converged, maximum delta is    0.217616955519225
 Root      5 has converged.
 Excitation Energies [eV] at current iteration:
 Root      1 :     1.673748418546408   Change is   -0.016793015905481
 Root      2 :     1.695898951128412   Change is   -0.110544379701518
 Root      3 :     2.186051966042774   Change is   -0.009288414086439
 Root      4 :     2.195862746049239   Change is   -0.025955512591861
 Root      5 :     2.475392183585558   Change is   -0.000000001147269
 Iteration     5 Dimension    56 NMult    48 NNew      8
 CISAX will form     8 AO SS matrices at one time.
 NMat=     8 NSing=     8 JSym2X= 0.
 Root      1 not converged, maximum delta is    0.019503711582805
 Root      2 not converged, maximum delta is    0.018939440960938
 Root      3 not converged, maximum delta is    0.070479501127062
 Root      4 not converged, maximum delta is    0.070155587418113
 Root      5 has converged.
 Excitation Energies [eV] at current iteration:
 Root      1 :     1.671930834094601   Change is   -0.001817584451807
 Root      2 :     1.681160578636835   Change is   -0.014738372491577
 Root      3 :     2.184445227716781   Change is   -0.001606738325993
 Root      4 :     2.193452310734320   Change is   -0.002410435314919
 Root      5 :     2.475392182721204   Change is   -0.000000000864354
 Iteration     6 Dimension    64 NMult    56 NNew      8
 CISAX will form     8 AO SS matrices at one time.
 NMat=     8 NSing=     8 JSym2X= 0.
 Root      1 not converged, maximum delta is    0.006217783676522
 Root      2 not converged, maximum delta is    0.006264287890450
 Root      3 not converged, maximum delta is    0.005888890588483
 Root      4 not converged, maximum delta is    0.006223009243438
 Root      5 has converged.
 Excitation Energies [eV] at current iteration:
 Root      1 :     1.671668952880540   Change is   -0.000261881214061
 Root      2 :     1.679605720446165   Change is   -0.001554858190670
 Root      3 :     2.184256759315732   Change is   -0.000188468401049
 Root      4 :     2.193184786713811   Change is   -0.000267524020509
 Root      5 :     2.475392182665710   Change is   -0.000000000055494
 Iteration     7 Dimension    72 NMult    64 NNew      8
 CISAX will form     8 AO SS matrices at one time.
 NMat=     8 NSing=     8 JSym2X= 0.
 Root      1 not converged, maximum delta is    0.001610662928961
 Root      2 not converged, maximum delta is    0.001639137598964
 Root      3 not converged, maximum delta is    0.001578441048823
 Root      4 not converged, maximum delta is    0.001655375745818
 Root      5 has converged.
 Excitation Energies [eV] at current iteration:
 Root      1 :     1.671641977209478   Change is   -0.000026975671062
[...]
 Alpha virt. eigenvalues --    1.83691   1.83705   1.83975   1.84028   1.84385
 Alpha virt. eigenvalues --    1.84432   1.84629   1.84749   1.84964   1.85048
 Alpha virt. eigenvalues --    1.85216   1.85241   1.85434   1.85442   1.85633
 Alpha virt. eigenvalues --    1.85810   1.86045   1.86316   1.86501   1.86505
 Alpha virt. eigenvalues --    1.86727   1.86778   1.86918   1.86963   1.87154
 Alpha virt. eigenvalues --    1.87384   1.87596   1.87633   1.87814   1.87899
 Alpha virt. eigenvalues --    1.87985   1.88124   1.88318   1.88479   1.88745
 Alpha virt. eigenvalues --    1.88750   1.89090   1.89099   1.89272   1.89575
 Alpha virt. eigenvalues --    1.89692   1.89795   1.89981   1.90053   1.90339
 Alpha virt. eigenvalues --    1.90674   1.91047   1.91272   1.91389   1.91515
 Alpha virt. eigenvalues --    1.91835   1.92088   1.92370   1.92534   1.92833
 Alpha virt. eigenvalues --    1.92926   1.93290   1.93299   1.93604   1.94239
 Alpha virt. eigenvalues --    1.94412   1.94641   1.94917   1.95448   1.95647
 Alpha virt. eigenvalues --    1.95673   1.95906   1.95978   1.96116   1.96192
 Alpha virt. eigenvalues --    1.96326   1.96535   1.96616   1.96843   1.97096
 Alpha virt. eigenvalues --    1.97392   1.97658   1.97786   1.97944   1.98093
 Alpha virt. eigenvalues --    1.98341   1.98502   1.98541   1.99057   1.99218
 Alpha virt. eigenvalues --    1.99732   2.00124   2.00608   2.00860   2.00910
 Alpha virt. eigenvalues --    2.01235   2.01368   2.01599   2.01616   2.01633
 Alpha virt. eigenvalues --    2.01758   2.01995   2.02714   2.02845   2.03188
 Alpha virt. eigenvalues --    2.03244   2.03314   2.03385   2.03526   2.03660
 Alpha virt. eigenvalues --    2.03960   2.04160   2.04905   2.05091   2.05458
 Alpha virt. eigenvalues --    2.05736   2.06012   2.06397   2.06783   2.07113
 Alpha virt. eigenvalues --    2.07180   2.07474   2.08543   2.08620   2.08910
 Alpha virt. eigenvalues --    2.09157   2.09502   2.09751   2.10757   2.11112
 Alpha virt. eigenvalues --    2.11116   2.11445   2.11534   2.11663   2.11703
 Alpha virt. eigenvalues --    2.12033   2.12386   2.12636   2.12746   2.12774
 Alpha virt. eigenvalues --    2.12935   2.13032   2.13667   2.13878   2.14102
 Alpha virt. eigenvalues --    2.14334   2.15271   2.15522   2.15844   2.16252
 Alpha virt. eigenvalues --    2.16475   2.16677   2.16740   2.17296   2.17350
 Alpha virt. eigenvalues --    2.17646   2.17727   2.18020   2.18084   2.18152
 Alpha virt. eigenvalues --    2.18220   2.18769   2.18822   2.19418   2.19558
 Alpha virt. eigenvalues --    2.19961   2.19993   2.20129   2.20375   2.20608
 Alpha virt. eigenvalues --    2.21130   2.21246   2.21600   2.21648   2.21894
 Alpha virt. eigenvalues --    2.21991   2.22623   2.22865   2.23259   2.23445
 Alpha virt. eigenvalues --    2.24341   2.24513   2.24943   2.25087   2.26200
 Alpha virt. eigenvalues --    2.26590   2.26720   2.27009   2.27136   2.27347
 Alpha virt. eigenvalues --    2.28066   2.28529   2.29211   2.29599   2.29651
 Alpha virt. eigenvalues --    2.30043   2.30366   2.30795   2.30980   2.30995
 Alpha virt. eigenvalues --    2.31079   2.31326   2.32072   2.32339   2.33048
 Alpha virt. eigenvalues --    2.33390   2.33403   2.33596   2.34092   2.34269
 Alpha virt. eigenvalues --    2.35248   2.35432   2.35720   2.36100   2.36322
 Alpha virt. eigenvalues --    2.36460   2.36529   2.36554   2.37622   2.37773
 Alpha virt. eigenvalues --    2.38211   2.38472   2.38762   2.38989   2.39538
 Alpha virt. eigenvalues --    2.39802   2.40132   2.40355   2.40399   2.41014
 Alpha virt. eigenvalues --    2.41174   2.41393   2.41646   2.41793   2.41926
 Alpha virt. eigenvalues --    2.42262   2.42895   2.42916   2.43191   2.43348
 Alpha virt. eigenvalues --    2.44075   2.44103   2.44659   2.44830   2.44932
 Alpha virt. eigenvalues --    2.45141   2.45483   2.45694   2.46240   2.46399
 Alpha virt. eigenvalues --    2.46409   2.46603   2.46709   2.46931   2.47184
 Alpha virt. eigenvalues --    2.47469   2.47649   2.47987   2.49268   2.49466
 Alpha virt. eigenvalues --    2.49979   2.50039   2.50519   2.50562   2.51024
 Alpha virt. eigenvalues --    2.51417   2.51723   2.51798   2.52339   2.52559
 Alpha virt. eigenvalues --    2.52732   2.53350   2.53861   2.54084   2.54100
 Alpha virt. eigenvalues --    2.54342   2.54721   2.54901   2.55455   2.55767
 Alpha virt. eigenvalues --    2.57802   2.58194   2.58590   2.59037   2.60098
 Alpha virt. eigenvalues --    2.60454   2.60527   2.61110   2.61654   2.61939
 Alpha virt. eigenvalues --    2.62453   2.62561   2.62879   2.63247   2.63863
 Alpha virt. eigenvalues --    2.64219   2.64402   2.64487   2.65015   2.65220
 Alpha virt. eigenvalues --    2.65697   2.66037   2.66735   2.66853   2.66915
 Alpha virt. eigenvalues --    2.67229   2.67851   2.68118   2.68775   2.68921
 Alpha virt. eigenvalues --    2.68928   2.69173   2.69347   2.69738   2.69934
 Alpha virt. eigenvalues --    2.70250   2.70902   2.71223   2.71947   2.72000
 Alpha virt. eigenvalues --    2.72545   2.72599   2.72680   2.72894   2.73245
 Alpha virt. eigenvalues --    2.73351   2.73359   2.73576   2.74430   2.74609
 Alpha virt. eigenvalues --    2.74888   2.75172   2.76535   2.76623   2.77136
 Alpha virt. eigenvalues --    2.77169   2.77384   2.77715   2.78129   2.78369
 Alpha virt. eigenvalues --    2.78627   2.78781   2.79058   2.79285   2.80255
 Alpha virt. eigenvalues --    2.80338   2.80469   2.80806   2.81015   2.81241
 Alpha virt. eigenvalues --    2.81847   2.82102   2.82280   2.82439   2.83636
 Alpha virt. eigenvalues --    2.83707   2.83922   2.84004   2.84479   2.84603
 Alpha virt. eigenvalues --    2.84833   2.84951   2.85608   2.85766   2.86738
 Alpha virt. eigenvalues --    2.86902   2.87283   2.87463   2.88090   2.88307
 Alpha virt. eigenvalues --    2.88441   2.88720   2.88863   2.88951   2.90422
 Alpha virt. eigenvalues --    2.90798   2.91146   2.91171   2.93070   2.93458
 Alpha virt. eigenvalues --    2.93888   2.94132   2.94514   2.94630   2.95270
 Alpha virt. eigenvalues --    2.95666   2.95961   2.96040   2.96386   2.96464
 Alpha virt. eigenvalues --    2.96982   2.97035   2.97694   2.98096   2.98135
 Alpha virt. eigenvalues --    2.98300   2.98515   2.98517   2.98705   2.98819
 Alpha virt. eigenvalues --    2.98900   2.99017   2.99558   2.99858   2.99899
 Alpha virt. eigenvalues --    3.00130   3.00144   3.00368   3.00417   3.01161
 Alpha virt. eigenvalues --    3.01951   3.01952   3.02020   3.02278   3.02581
 Alpha virt. eigenvalues --    3.02882   3.02908   3.03272   3.03466   3.03913
 Alpha virt. eigenvalues --    3.04131   3.04220   3.04373   3.04506   3.04536
 Alpha virt. eigenvalues --    3.04809   3.05265   3.05425   3.06049   3.06245
 Alpha virt. eigenvalues --    3.06713   3.07097   3.08000   3.08106   3.09307
 Alpha virt. eigenvalues --    3.09399   3.09615   3.10365   3.10627   3.10910
 Alpha virt. eigenvalues --    3.11299   3.11515   3.11834   3.11940   3.12177
 Alpha virt. eigenvalues --    3.12478   3.13190   3.13601   3.13745   3.13796
 Alpha virt. eigenvalues --    3.13927   3.14581   3.15915   3.16025   3.17182
 Alpha virt. eigenvalues --    3.17605   3.17919   3.18029   3.19069   3.19098
 Alpha virt. eigenvalues --    3.22128   3.22693   3.23865   3.24528   3.24553
 Alpha virt. eigenvalues --    3.25275   3.26429   3.26750   3.27494   3.27541
 Alpha virt. eigenvalues --    3.28911   3.29314   3.31443   3.31472   3.33283
 Alpha virt. eigenvalues --    3.33349   3.40355   3.40421   3.42755   3.42880
 Alpha virt. eigenvalues --    3.48563   3.48781   3.49954   3.50386   3.50945
 Alpha virt. eigenvalues --    3.51405   3.56483   3.57085   3.59044   3.59418
 Alpha virt. eigenvalues --    3.62598   3.62749   3.66127   3.66146   3.66994
 Alpha virt. eigenvalues --    3.67636   3.73094   3.74105   3.75900   3.76760
          Condensed to atoms (all electrons):
 Mulliken charges:
               1
     1  Mg   0.838724
     2  C   -0.003602
     3  C   -0.094023
     4  C   -0.045705
     5  C   -0.063643
     6  N   -0.256848
     7  C   -0.052597
     8  C   -0.014057
     9  C   -0.087060
    10  C    0.046320
    11  C    0.104736
    12  C    0.053488
    13  C   -0.071443
    14  H    0.034402
    15  N   -0.433200
    16  C    0.168600
    17  C   -0.176883
    18  C   -0.003803
    19  C    0.148797
    20  C    0.110054
    21  C    0.012243
    22  O   -0.249444
    23  C    0.062409
    24  N   -0.341165
    25  C    0.041444
    26  C   -0.028243
    27  C   -0.024074
    28  C    0.074847
    29  C    0.076088
    30  C    0.035026
    31  C   -0.004775
    32  N   -0.310286
    33  C    0.080097
    34  C   -0.169961
    35  C    0.007970
    36  C    0.082605
    37  C    0.127432
    38  C    0.045404
    39  O   -0.189221
    40  C   -0.005121
    41  C    0.213039
    42  O   -0.259037
    43  O   -0.304185
    44  C    0.158222
    45  H   -0.017371
    46  H   -0.016541
    47  H   -0.041027
    48  H    0.000842
    49  H   -0.003885
    50  H    0.025477
    51  H    0.016716
    52  H    0.016882
    53  H    0.011653
    54  H    0.042859
    55  H    0.018254
    56  H    0.018570
    57  H    0.006036
    58  H    0.027062
    59  H    0.040104
    60  H    0.037610
    61  H    0.035648
    62  H    0.031642
    63  H    0.016802
    64  H    0.009666
    65  H    0.023505
    66  H    0.012437
    67  H    0.005035
    68  H    0.006931
    69  H    0.005172
    70  H    0.008654
    71  H    0.019754
    72  H    0.028198
    73  H    0.046850
    74  H    0.009713
    75  H    0.046195
    76  H    0.035432
    77  H    0.043172
    78  H    0.046679
    79  H    0.051703
    80  Mg   0.837720
    81  C   -0.016895
    82  C   -0.087077
    83  C   -0.046134
    84  C   -0.065030
    85  N   -0.254811
    86  C   -0.049100
    87  C   -0.015262
    88  C   -0.090446
    89  C    0.045610
    90  C    0.113949
    91  C    0.062416
    92  C   -0.077733
    93  H    0.033677
    94  N   -0.423500
    95  C    0.162758
    96  C   -0.174193
    97  C   -0.008541
    98  C    0.152506
    99  C    0.099362
   100  C    0.015136
   101  O   -0.254093
   102  C    0.061363
   103  N   -0.350053
   104  C    0.037600
   105  C   -0.019713
   106  C   -0.034905
   107  C    0.088873
   108  C    0.073836
   109  C    0.034879
   110  C   -0.007561
   111  N   -0.324030
   112  C    0.078389
   113  C   -0.163471
   114  C    0.002092
   115  C    0.096185
   116  C    0.131583
   117  C    0.041947
   118  O   -0.188618
   119  C    0.001192
   120  C    0.211225
   121  O   -0.251317
   122  O   -0.305355
   123  C    0.152200
   124  H   -0.017283
   125  H   -0.016581
   126  H   -0.040825
   127  H    0.000023
   128  H   -0.004366
   129  H    0.022100
   130  H    0.015890
   131  H    0.022361
   132  H    0.013448
   133  H    0.036912
   134  H    0.021982
   135  H    0.019765
   136  H    0.009847
   137  H    0.025638
   138  H    0.039196
   139  H    0.037904
   140  H    0.035588
   141  H    0.034005
   142  H    0.013922
   143  H    0.012654
   144  H    0.023941
   145  H    0.011093
   146  H    0.005758
   147  H    0.005664
   148  H    0.003646
   149  H    0.010567
   150  H    0.017613
   151  H    0.030417
   152  H    0.045572
   153  H    0.008319
   154  H    0.046545
   155  H    0.035382
   156  H    0.043505
   157  H    0.049985
   158  H    0.053153
 Sum of Mulliken charges =  -0.00000
 Mulliken charges with hydrogens summed into heavy atoms:
               1
     1  Mg   0.838724
     2  C   -0.003602
     3  C   -0.111394
     4  C   -0.062246
     5  C   -0.104670
     6  N   -0.256848
     7  C   -0.052597
     8  C   -0.013215
     9  C   -0.090946
    10  C    0.046320
    11  C    0.163811
    12  C    0.108000
    13  C   -0.000216
    15  N   -0.433200
    16  C    0.168600
    17  C   -0.176883
    18  C   -0.003803
    19  C    0.148797
    20  C    0.183256
    21  C    0.012243
    22  O   -0.249444
    23  C    0.167310
    24  N   -0.341165
    25  C    0.041444
    26  C   -0.011441
    27  C   -0.014408
    28  C    0.074847
    29  C    0.117065
    30  C    0.047129
    31  C    0.051830
    32  N   -0.310286
    33  C    0.080097
    34  C   -0.169961
    35  C    0.007970
    36  C    0.082605
    37  C    0.230191
    38  C    0.045404
    39  O   -0.189221
    40  C    0.030311
    41  C    0.213039
    42  O   -0.259037
    43  O   -0.304185
    44  C    0.299776
    80  Mg   0.837720
    81  C   -0.016895
    82  C   -0.104360
    83  C   -0.062716
    84  C   -0.105855
    85  N   -0.254811
    86  C   -0.049100
    87  C   -0.015239
    88  C   -0.094812
    89  C    0.045610
    90  C    0.174300
    91  C    0.112776
    92  C   -0.002308
    94  N   -0.423500
    95  C    0.162758
    96  C   -0.174193
    97  C   -0.008541
    98  C    0.152506
    99  C    0.174044
   100  C    0.015136
   101  O   -0.254093
   102  C    0.168860
   103  N   -0.350053
   104  C    0.037600
   105  C   -0.005791
   106  C   -0.022251
   107  C    0.088873
   108  C    0.114629
   109  C    0.044188
   110  C    0.051036
   111  N   -0.324030
   112  C    0.078389
   113  C   -0.163471
   114  C    0.002092
   115  C    0.096185
   116  C    0.232020
   117  C    0.041947
   118  O   -0.188618
   119  C    0.036574
   120  C    0.211225
   121  O   -0.251317
   122  O   -0.305355
   123  C    0.298844
 Electronic spatial extent (au):  <R**2>=         115189.8517
 Charge=             -0.0000 electrons
 Dipole moment (field-independent basis, Debye):
    X=             -5.0868    Y=              1.4945    Z=              5.1452  Tot=              7.3880
 Quadrupole moment (field-independent basis, Debye-Ang):
   XX=           -518.8836   YY=           -508.7134   ZZ=           -491.3159
   XY=            -23.3497   XZ=              3.6648   YZ=            -10.4979
 Traceless Quadrupole moment (field-independent basis, Debye-Ang):
   XX=            -12.5793   YY=             -2.4091   ZZ=             14.9884
   XY=            -23.3497   XZ=              3.6648   YZ=            -10.4979
 Octapole moment (field-independent basis, Debye-Ang**2):
  XXX=           -481.6040  YYY=             40.7839  ZZZ=            158.3160  XYY=            276.8012
  XXY=             93.5217  XXZ=            277.9146  XZZ=           -272.0277  YZZ=           -212.5432
  YYZ=             12.1506  XYZ=           -217.8694
 Hexadecapole moment (field-independent basis, Debye-Ang**3):
 XXXX=         -91954.7925 YYYY=         -34896.9783 ZZZZ=         -30741.5141 XXXY=           -575.9140
 XXXZ=            -90.8991 YYYX=          -1647.2360 YYYZ=            559.2830 ZZZX=            816.2904
 ZZZY=          -1091.2000 XXYY=         -20210.7823 XXZZ=         -20169.1809 YYZZ=         -11157.3601
 XXYZ=            -80.2979 YYXZ=          -1573.0860 ZZXY=             93.9515
 N-N= 1.493990498257D+04 E-N=-3.936085544406D+04  KE= 4.028801979472D+03
 Leave Link  601 at Sat Sep  4 06:36:35 2021, MaxMem= 23488102400 cpu:              15.6 elap:               0.8
 (Enter /sw/apps/gaussian-16.0/g16/l9999.exe)
 1\1\GINC-BP1-COMPUTE00107\SP\RCAM-B3LYP TD-FC\def2SVP\C68H72Mg2N8O8\OF
 15641\04-Sep-2021\0\\#p cam-b3lyp/Def2SVP td=(nstates=5)\\TDDFT excite
 d states in gaussian\\0,1\Mg,0,0.,0.,0.\C,0,-0.217,-2.218,2.801\C,0,-1
 .255,2.442,2.026\C,0,-0.245,1.85,-2.564\C,0,0.146,-2.824,-2.037\N,0,-0
 .617,-0.009,2.126\C,0,-0.594,-0.908,3.105\C,0,-0.936,-0.309,4.502\C,0,
 -1.773,0.964,4.032\C,0,-1.155,1.168,2.66\C,0,-3.263,0.685,3.863\C,0,0.
 345,0.11,5.299\C,0,0.124,0.397,6.787\H,0,1.168,0.033,7.733\N,0,-0.185,
 1.961,-0.152\C,0,-0.703,2.8,0.777\C,0,-0.62,4.156,0.193\C,0,-0.187,4.0
 15,-1.225\C,0,-0.214,2.583,-1.38\C,0,-0.887,5.406,0.974\C,0,0.181,5.01
 3,-2.277\O,0,0.303,4.69,-3.508\C,0,0.31,6.414,-1.837\N,0,-0.265,-0.413
 ,-2.029\C,0,-0.279,0.569,-2.937\C,0,-0.196,0.024,-4.332\C,0,0.124,-1.5
 33,-4.18\C,0,0.086,-1.632,-2.635\C,0,-1.451,0.205,-5.197\C,0,1.373,-2.
 07,-4.923\C,0,2.626,-1.49,-4.306\N,0,0.15,-2.144,0.303\C,0,0.173,-3.13
 6,-0.688\C,0,0.173,-4.438,0.004\C,0,0.133,-4.111,1.358\C,0,0.083,-2.69
 5,1.502\C,0,0.149,-5.715,-0.623\C,0,0.096,-4.629,2.716\O,0,0.208,-5.74
 7,3.221\C,0,-0.255,-3.428,3.701\C,0,0.717,-3.482,4.848\O,0,1.931,-3.25
 5,4.669\O,0,0.038,-3.556,6.003\C,0,0.943,-3.583,7.183\H,0,-1.859,3.22,
 2.497\H,0,-0.218,2.453,-3.474\H,0,0.276,-3.747,-2.605\H,0,-1.554,-0.94
 9,5.132\H,0,-1.585,1.831,4.665\H,0,-3.484,-0.377,3.969\H,0,-3.511,1.02
 7,2.858\H,0,-3.852,1.301,4.543\H,0,0.669,1.096,4.966\H,0,1.13,-0.639,5
 .189\H,0,-0.844,0.026,7.125\H,0,0.062,1.477,6.921\H,0,-1.344,5.186,1.9
 38\H,0,-1.651,5.963,0.432\H,0,0.007,6.02,1.084\H,0,-0.635,6.744,-1.405
 \H,0,0.665,6.97,-2.704\H,0,1.048,6.466,-1.036\H,0,0.608,0.501,-4.891\H
 ,0,-0.692,-2.156,-4.547\H,0,-1.267,0.74,-6.129\H,0,-2.204,0.714,-4.596
 \H,0,-1.967,-0.72,-5.453\H,0,1.356,-1.759,-5.967\H,0,1.452,-3.157,-4.9
 02\H,0,2.714,-0.522,-4.798\H,0,3.487,-2.121,-4.529\H,0,2.495,-1.303,-3
 .24\H,0,0.867,-6.333,-0.084\H,0,0.404,-5.642,-1.68\H,0,-0.891,-5.999,-
 0.463\H,0,-1.283,-3.581,4.028\H,0,0.698,-4.478,7.755\H,0,0.833,-2.619,
 7.68\H,0,2.,-3.754,6.976\Mg,0,10.51815,0.94134,0.80434\C,0,10.72308,-2
 .22348,-0.87523\C,0,9.57686,-0.77182,3.59964\C,0,9.89341,3.73022,2.182
 48\C,0,10.35267,2.44095,-2.33723\N,0,10.22434,-1.21705,1.18812\C,0,10.
 39153,-2.3311,0.49149\C,0,10.27086,-3.63508,1.32495\C,0,9.36397,-3.070
 9,2.52418\C,0,9.76731,-1.59904,2.46406\C,0,7.87275,-3.16914,2.24859\C,
 0,11.6613,-4.14232,1.84589\C,0,11.65872,-5.56822,2.40137\H,0,12.83903,
 -6.40089,2.1869\N,0,10.3141,1.40902,2.72221\C,0,9.94671,0.58523,3.7260
 4\C,0,9.92539,1.41536,4.94036\C,0,10.14995,2.83212,4.54405\C,0,10.1061
 8,2.71215,3.10052\C,0,9.78637,0.83741,6.31879\C,0,10.35564,4.08922,5.3
 3374\O,0,10.29401,5.24628,4.7858\C,0,10.53854,3.92998,6.7838\N,0,9.960
 46,2.79515,0.04625\C,0,9.8036,3.85533,0.85824\C,0,9.67372,5.13451,0.06
 626\C,0,10.01966,4.74127,-1.44479\C,0,10.21102,3.21842,-1.2725\C,0,8.3
 0387,5.81091,0.11498\C,0,11.14453,5.55322,-2.14342\C,0,12.47636,5.2547
 3,-1.4934\N,0,10.71728,0.28552,-1.24463\C,0,10.58611,1.07357,-2.40904\
 C,0,10.69149,0.16135,-3.56627\C,0,10.85493,-1.10734,-2.98989\C,0,10.83
 14,-0.99643,-1.57333\C,0,10.5852,0.538,-4.93483\C,0,11.03135,-2.51655,
 -3.25768\O,0,11.21135,-3.19258,-4.26977\C,0,10.82713,-3.31828,-1.90051
 \C,0,11.95943,-4.29921,-1.76562\O,0,13.12783,-3.89946,-1.61846\O,0,11.
 45435,-5.53715,-1.61474\C,0,12.53878,-6.54396,-1.46589\H,0,9.0568,-1.1
 8763,4.46308\H,0,9.78319,4.73133,2.6057\H,0,10.40908,2.84369,-3.35078\
 H,0,9.76046,-4.44885,0.82391\H,0,9.65314,-3.50689,3.47689\H,0,7.6702,-
 3.49461,1.23904\H,0,7.47726,-2.17523,2.41221\H,0,7.39322,-3.8107,2.993
 42\H,0,11.92744,-3.58717,2.75458\H,0,12.40972,-4.05321,1.08263\H,0,10.
 74792,-6.11512,2.12881\H,0,11.62342,-5.51561,3.49224\H,0,9.47263,-0.21
 322,6.28471\H,0,8.94953,1.35531,6.79977\H,0,10.68353,0.9757,6.92597\H,
 0,9.67096,3.42688,7.20413\H,0,10.75993,4.92991,7.16197\H,0,11.3982,3.2
 7328,6.95797\H,0,10.38598,5.87524,0.40848\H,0,9.1536,4.87597,-2.10935\
 H,0,8.34543,6.85529,0.47775\H,0,7.65178,5.21653,0.74111\H,0,7.76367,5.
 82855,-0.83005\H,0,10.97146,6.62495,-2.0185\H,0,11.21823,5.36091,-3.20
 858\H,0,12.4828,5.92194,-0.62629\H,0,13.29438,5.48348,-2.17351\H,0,12.
 509,4.22548,-1.11761\H,0,11.36873,0.0123,-5.46419\H,0,10.67421,1.61526
 ,-5.05878\H,0,9.57606,0.18119,-5.15751\H,0,9.85848,-3.8164,-1.95686\H,
 0,12.38001,-7.30132,-2.23976\H,0,12.49076,-6.8814,-0.41347\H,0,13.5513
 1,-6.22619,-1.68554\\Version=ES64L-G16RevA.03\State=1-A\HF=-4069.81237
 6\RMSD=4.988e-09\PG=C01 [X(C68H72Mg2N8O8)]\\@


 YOU CAN WIPE THE SLATE CLEAN, BUT YOU'LL STILL
 HAVE TO EAT A LITTLE CHALK DUST.
 Job cpu time:       0 days 14 hours 33 minutes 31.4 seconds.
 Elapsed time:       0 days  0 hours 37 minutes  5.6 seconds.
 File lengths (MBytes):  RWF=  13225 Int=      0 D2E=      0 Chk=    574 Scr=      1
 Normal termination of Gaussian 16 at Sat Sep  4 06:36:36 2021.
