 Entering Gaussian System, Link 0=g16
 Initial command:
 /sw/apps/gaussian-16.0/g16/l1.exe "/tmp/Gau-181297.inp" -scrdir="/tmp/"
 Entering Link 1 = /sw/apps/gaussian-16.0/g16/l1.exe PID=    181298.
  
 Copyright (c) 1988,1990,1992,1993,1995,1998,2003,2009,2016,
            Gaussian, Inc.  All Rights Reserved.
  
 This is part of the Gaussian(R) 16 program.  It is based on
 the Gaussian(R) 09 system (copyright 2009, Gaussian, Inc.),
 the Gaussian(R) 03 system (copyright 2003, Gaussian, Inc.),
 the Gaussian(R) 98 system (copyright 1998, Gaussian, Inc.),
 the Gaussian(R) 94 system (copyright 1995, Gaussian, Inc.),
 the Gaussian 92(TM) system (copyright 1992, Gaussian, Inc.),
 the Gaussian 90(TM) system (copyright 1990, Gaussian, Inc.),
 the Gaussian 88(TM) system (copyright 1988, Gaussian, Inc.),
 the Gaussian 86(TM) system (copyright 1986, Carnegie Mellon
 University), and the Gaussian 82(TM) system (copyright 1983,
 Carnegie Mellon University). Gaussian is a federally registered
 trademark of Gaussian, Inc.
  
 This software contains proprietary and confidential information,
 including trade secrets, belonging to Gaussian, Inc.
  
 This software is provided under written license and may be
 used, copied, transmitted, or stored only in accord with that
 written license.
  
 The following legend is applicable only to US Government
 contracts under FAR:
  
                    RESTRICTED RIGHTS LEGEND
  
 Use, reproduction and disclosure by the US Government is
 subject to restrictions as set forth in subparagraphs (a)
 and (c) of the Commercial Computer Software - Restricted
 Rights clause in FAR 52.227-19.
  
 Gaussian, Inc.
 340 Quinnipiac St., Bldg. 40, Wallingford CT 06492
  
  
 ---------------------------------------------------------------
 Warning -- This program may not be used in any manner that
 competes with the business of Gaussian, Inc. or will provide
 assistance to any competitor of Gaussian, Inc.  The licensee
 of this program is prohibited from giving any competitor of
 Gaussian, Inc. access to this program.  By using this program,
 the user acknowledges that Gaussian, Inc. is engaged in the
 business of creating and licensing software in the field of
 computational chemistry and represents and warrants to the
 licensee that it is not a competitor of Gaussian, Inc. and that
 it will not use this program in any manner prohibited above.
 ---------------------------------------------------------------
  

 Cite this work as:
 Gaussian 16, Revision A.03,
 M. J. Frisch, G. W. Trucks, H. B. Schlegel, G. E. Scuseria, 
 M. A. Robb, J. R. Cheeseman, G. Scalmani, V. Barone, 
 G. A. Petersson, H. Nakatsuji, X. Li, M. Caricato, A. V. Marenich, 
 J. Bloino, B. G. Janesko, R. Gomperts, B. Mennucci, H. P. Hratchian, 
 J. V. Ortiz, A. F. Izmaylov, J. L. Sonnenberg, D. Williams-Young, 
 F. Ding, F. Lipparini, F. Egidi, J. Goings, B. Peng, A. Petrone, 
 T. Henderson, D. Ranasinghe, V. G. Zakrzewski, J. Gao, N. Rega, 
 G. Zheng, W. Liang, M. Hada, M. Ehara, K. Toyota, R. Fukuda, 
 J. Hasegawa, M. Ishida, T. Nakajima, Y. Honda, O. Kitao, H. Nakai, 
 T. Vreven, K. Throssell, J. A. Montgomery, Jr., J. E. Peralta, 
 F. Ogliaro, M. J. Bearpark, J. J. Heyd, E. N. Brothers, K. N. Kudin, 
 V. N. Staroverov, T. A. Keith, R. Kobayashi, J. Normand, 
 K. Raghavachari, A. P. Rendell, J. C. Burant, S. S. Iyengar, 
 J. Tomasi, M. Cossi, J. M. Millam, M. Klene, C. Adamo, R. Cammi, 
 J. W. Ochterski, R. L. Martin, K. Morokuma, O. Farkas, 
 J. B. Foresman, and D. J. Fox, Gaussian, Inc., Wallingford CT, 2016.
 
 ******************************************
 Gaussian 16:  ES64L-G16RevA.03 25-Dec-2016
                 4-Sep-2021 
 ******************************************
 %nproc=24
 Will use up to   24 processors via shared memory.
 %mem=175gb
 -----------------------------------
 #p cam-b3lyp/Def2SVP td=(nstates=5)
 -----------------------------------
 1/38=1,172=1/1;
 2/12=2,17=6,18=5,40=1/2;
 3/5=43,7=101,11=9,25=1,30=1,74=-40/1,2,3,8;
 4//1;
 5/5=2,38=5/2;
 8/6=1,10=1,108=5/1;
 9/41=5,42=1,70=2/14;
 6/7=2,8=2,9=2,10=2/1;
 99/5=1,9=1/99;
 Leave Link    1 at Sat Sep  4 18:50:30 2021, MaxMem= 23488102400 cpu:               0.6 elap:               0.0
 (Enter /sw/apps/gaussian-16.0/g16/l101.exe)
 --------------------------------
 TDDFT excited states in gaussian
 --------------------------------
 Symbolic Z-matrix:
 Charge =  0 Multiplicity = 1
 Mg                    0.        0.        0. 
 C                    -0.217    -2.218     2.801 
 C                    -1.255     2.442     2.026 
 C                    -0.245     1.85     -2.564 
 C                     0.146    -2.824    -2.037 
 N                    -0.617    -0.009     2.126 
 C                    -0.594    -0.908     3.105 
 C                    -0.936    -0.309     4.502 
 C                    -1.773     0.964     4.032 
 C                    -1.155     1.168     2.66 
 C                    -3.263     0.685     3.863 
 C                     0.345     0.11      5.299 
 C                     0.124     0.397     6.787 
 H                     1.168     0.033     7.733 
 N                    -0.185     1.961    -0.152 
 C                    -0.703     2.8       0.777 
 C                    -0.62      4.156     0.193 
 C                    -0.187     4.015    -1.225 
 C                    -0.214     2.583    -1.38 
 C                    -0.887     5.406     0.974 
 C                     0.181     5.013    -2.277 
 O                     0.303     4.69     -3.508 
 C                     0.31      6.414    -1.837 
 N                    -0.265    -0.413    -2.029 
 C                    -0.279     0.569    -2.937 
 C                    -0.196     0.024    -4.332 
 C                     0.124    -1.533    -4.18 
 C                     0.086    -1.632    -2.635 
 C                    -1.451     0.205    -5.197 
 C                     1.373    -2.07     -4.923 
 C                     2.626    -1.49     -4.306 
 N                     0.15     -2.144     0.303 
 C                     0.173    -3.136    -0.688 
 C                     0.173    -4.438     0.004 
 C                     0.133    -4.111     1.358 
 C                     0.083    -2.695     1.502 
 C                     0.149    -5.715    -0.623 
 C                     0.096    -4.629     2.716 
 O                     0.208    -5.747     3.221 
 C                    -0.255    -3.428     3.701 
 C                     0.717    -3.482     4.848 
 O                     1.931    -3.255     4.669 
 O                     0.038    -3.556     6.003 
 C                     0.943    -3.583     7.183 
 H                    -1.859     3.22      2.497 
 H                    -0.218     2.453    -3.474 
 H                     0.276    -3.747    -2.605 
 H                    -1.554    -0.949     5.132 
 H                    -1.585     1.831     4.665 
 H                    -3.484    -0.377     3.969 
 H                    -3.511     1.027     2.858 
 H                    -3.852     1.301     4.543 
 H                     0.669     1.096     4.966 
 H                     1.13     -0.639     5.189 
 H                    -0.844     0.026     7.125 
 H                     0.062     1.477     6.921 
 H                    -1.344     5.186     1.938 
 H                    -1.651     5.963     0.432 
 H                     0.007     6.02      1.084 
 H                    -0.635     6.744    -1.405 
 H                     0.665     6.97     -2.704 
 H                     1.048     6.466    -1.036 
 H                     0.608     0.501    -4.891 
 H                    -0.692    -2.156    -4.547 
 H                    -1.267     0.74     -6.129 
 H                    -2.204     0.714    -4.596 
 H                    -1.967    -0.72     -5.453 
 H                     1.356    -1.759    -5.967 
 H                     1.452    -3.157    -4.902 
 H                     2.714    -0.522    -4.798 
 H                     3.487    -2.121    -4.529 
 H                     2.495    -1.303    -3.24 
 H                     0.867    -6.333    -0.084 
 H                     0.404    -5.642    -1.68 
 H                    -0.891    -5.999    -0.463 
 H                    -1.283    -3.581     4.028 
 H                     0.698    -4.478     7.755 
 H                     0.833    -2.619     7.68 
 H                     2.       -3.754     6.976 
 Mg                    31.53912   2.84006   2.40356 
 C                     31.52394  -0.46898   3.79247 
 C                     30.32947   3.94063   5.3969 
 C                     31.11484   5.68864   1.07202 
 C                     31.64253   1.36492  -0.75223 
 N                     31.0336   1.77704   4.27618 
 C                     31.12722   0.52827   4.70764 
 C                     30.85326   0.34983   6.22509 
 C                     29.95248   1.65796   6.46228 
 C                     30.49076   2.53352   5.33254 
 C                     28.47132   1.42101   6.21865 
 C                     32.16861   0.39552   7.07937 
 C                     32.0126  -0.07817   8.5261 
 H                     33.11982  -0.80191   9.14476 
 N                     31.29883   4.62469   3.23777 
 C                     30.81616   4.88854   4.47012 
 C                     30.82013   6.35404   4.59849 
 C                     31.18953   6.93931   3.28102 
 C                     31.19524   5.74814   2.45569 
 C                     30.57152   7.05743   5.90112 
 C                     31.47608   8.34106   2.83473 
 O                     31.54332   8.65193   1.59309 
 C                     31.58302   9.35682   3.89222 
 N                     31.18524   3.44257   0.44547 
 C                     31.09216   4.74616   0.1294 
 C                     31.11284   4.94743  -1.36709 
 C                     31.48413   3.5209   -1.98735 
 C                     31.52821   2.68446  -0.68972 
 C                     29.80967   5.44888  -1.98894 
 C                     32.70663   3.46605  -2.94398 
 C                     33.97734   3.74533  -2.17412 
 N                     31.7628   0.83497   1.63047 
 C                     31.75286   0.43713   0.27559 
 C                     31.82265  -1.03838   0.25458 
 C                     31.8453  -1.40059   1.60986 
 C                     31.77294  -0.23428   2.41855 
 C                     31.80839  -1.85534  -0.91096 
 C                     31.90326  -2.50495   2.54029 
 O                     32.0628  -3.72051   2.43688 
 C                     31.57022  -1.95809   3.99508 
 C                     32.60154  -2.50435   4.94401 
 O                     33.79442  -2.16739   4.8434 
 O                     31.97963  -3.15891   5.94158 
 C                     32.96039  -3.70955   6.91458 
 H                     29.73804   4.3583    6.21215 
 H                     31.07899   6.65297   0.55991 
 H                     31.77773   0.83481  -1.69742 
 H                     30.292   -0.54002   6.4838 
 H                     30.16061   2.11105   7.42807 
 H                     28.28217   0.43934   5.81035 
 H                     28.16181   2.18737   5.52012 
 H                     27.90453   1.60291   7.13625 
 H                     32.44622   1.44306   7.25356 
 H                     32.95322  -0.15753   6.60068 
 H                     31.0678  -0.61195   8.68544 
 H                     31.93678   0.79966   9.1724 
 H                     30.1648   6.37357   6.65632 
 H                     29.76616   7.77902   5.72626 
 H                     31.45144   7.59147   6.26608 
 H                     30.65633   9.38549   4.46047 
 H                     31.87887   10.27702   3.3847 
 H                     32.37107   9.05335   4.59043 
 H                     31.87489   5.66299  -1.65056 
 H                     30.66248   3.11461  -2.59535 
 H                     29.93131   6.38997  -2.55782 
 H                     29.08046   5.57332  -1.19944 
 H                     29.31324   4.74317  -2.65281 
 H                     32.62714   4.24605  -3.70519 
 H                     32.80683   2.51862  -3.46295 
 H                     34.00854   4.83839  -2.13754 
 H                     34.8405   3.34324  -2.70074 
 H                     33.90012   3.38305  -1.1424 
 H                     32.56201  -2.61791  -0.76589 
 H                     32.00054  -1.27104  -1.80842 
 H                     30.78104  -2.2276   -0.87565 
 H                     30.56331  -2.29228   4.24811 
 H                     32.76551  -4.7837    6.99147 
 H                     32.83787  -3.10823   7.83499 
 H                     34.00599  -3.70416   6.62976 
 
 ITRead=  0  0  0  0  0  0  0  0  0  0  0  0  0  0  0  0  0  0  0  0
 ITRead=  0  0  0  0  0  0  0  0  0  0  0  0  0  0  0  0  0  0  0  0
 ITRead=  0  0  0  0  0  0  0  0  0  0  0  0  0  0  0  0  0  0  0  0
 ITRead=  0  0  0  0  0  0  0  0  0  0  0  0  0  0  0  0  0  0  0  0
 ITRead=  0  0  0  0  0  0  0  0  0  0  0  0  0  0  0  0  0  0  0  0
 ITRead=  0  0  0  0  0  0  0  0  0  0  0  0  0  0  0  0  0  0  0  0
 ITRead=  0  0  0  0  0  0  0  0  0  0  0  0  0  0  0  0  0  0  0  0
 ITRead=  0  0  0  0  0  0  0  0  0  0  0  0  0  0  0  0  0  0
 MicOpt= -1 -1 -1 -1 -1 -1 -1 -1 -1 -1 -1 -1 -1 -1 -1 -1 -1 -1 -1 -1
 MicOpt= -1 -1 -1 -1 -1 -1 -1 -1 -1 -1 -1 -1 -1 -1 -1 -1 -1 -1 -1 -1
 MicOpt= -1 -1 -1 -1 -1 -1 -1 -1 -1 -1 -1 -1 -1 -1 -1 -1 -1 -1 -1 -1
 MicOpt= -1 -1 -1 -1 -1 -1 -1 -1 -1 -1 -1 -1 -1 -1 -1 -1 -1 -1 -1 -1
 MicOpt= -1 -1 -1 -1 -1 -1 -1 -1 -1 -1 -1 -1 -1 -1 -1 -1 -1 -1 -1 -1
 MicOpt= -1 -1 -1 -1 -1 -1 -1 -1 -1 -1 -1 -1 -1 -1 -1 -1 -1 -1 -1 -1
 MicOpt= -1 -1 -1 -1 -1 -1 -1 -1 -1 -1 -1 -1 -1 -1 -1 -1 -1 -1 -1 -1
 MicOpt= -1 -1 -1 -1 -1 -1 -1 -1 -1 -1 -1 -1 -1 -1 -1 -1 -1 -1
 NAtoms=    158 NQM=      158 NQMF=       0 NMMI=      0 NMMIF=      0
                NMic=       0 NMicF=      0.
                    Isotopes and Nuclear Properties:
 (Nuclear quadrupole moments (NQMom) in fm**2, nuclear magnetic moments (NMagM)
  in nuclear magnetons)

  Atom         1           2           3           4           5           6           7           8           9          10
 IAtWgt=          24          12          12          12          12          14          12          12          12          12
 AtmWgt=  23.9850450  12.0000000  12.0000000  12.0000000  12.0000000  14.0030740  12.0000000  12.0000000  12.0000000  12.0000000
 NucSpn=           0           0           0           0           0           2           0           0           0           0
 AtZEff=  -0.0000000  -0.0000000  -0.0000000  -0.0000000  -0.0000000  -0.0000000  -0.0000000  -0.0000000  -0.0000000  -0.0000000
 NQMom=    0.0000000   0.0000000   0.0000000   0.0000000   0.0000000   2.0440000   0.0000000   0.0000000   0.0000000   0.0000000
 NMagM=    0.0000000   0.0000000   0.0000000   0.0000000   0.0000000   0.4037610   0.0000000   0.0000000   0.0000000   0.0000000
 AtZNuc=  12.0000000   6.0000000   6.0000000   6.0000000   6.0000000   7.0000000   6.0000000   6.0000000   6.0000000   6.0000000

  Atom        11          12          13          14          15          16          17          18          19          20
 IAtWgt=          12          12          12           1          14          12          12          12          12          12
 AtmWgt=  12.0000000  12.0000000  12.0000000   1.0078250  14.0030740  12.0000000  12.0000000  12.0000000  12.0000000  12.0000000
 NucSpn=           0           0           0           1           2           0           0           0           0           0
 AtZEff=  -0.0000000  -0.0000000  -0.0000000  -0.0000000  -0.0000000  -0.0000000  -0.0000000  -0.0000000  -0.0000000  -0.0000000
 NQMom=    0.0000000   0.0000000   0.0000000   0.0000000   2.0440000   0.0000000   0.0000000   0.0000000   0.0000000   0.0000000
 NMagM=    0.0000000   0.0000000   0.0000000   2.7928460   0.4037610   0.0000000   0.0000000   0.0000000   0.0000000   0.0000000
 AtZNuc=   6.0000000   6.0000000   6.0000000   1.0000000   7.0000000   6.0000000   6.0000000   6.0000000   6.0000000   6.0000000

  Atom        21          22          23          24          25          26          27          28          29          30
 IAtWgt=          12          16          12          14          12          12          12          12          12          12
 AtmWgt=  12.0000000  15.9949146  12.0000000  14.0030740  12.0000000  12.0000000  12.0000000  12.0000000  12.0000000  12.0000000
 NucSpn=           0           0           0           2           0           0           0           0           0           0
 AtZEff=  -0.0000000  -0.0000000  -0.0000000  -0.0000000  -0.0000000  -0.0000000  -0.0000000  -0.0000000  -0.0000000  -0.0000000
 NQMom=    0.0000000   0.0000000   0.0000000   2.0440000   0.0000000   0.0000000   0.0000000   0.0000000   0.0000000   0.0000000
 NMagM=    0.0000000   0.0000000   0.0000000   0.4037610   0.0000000   0.0000000   0.0000000   0.0000000   0.0000000   0.0000000
 AtZNuc=   6.0000000   8.0000000   6.0000000   7.0000000   6.0000000   6.0000000   6.0000000   6.0000000   6.0000000   6.0000000

  Atom        31          32          33          34          35          36          37          38          39          40
 IAtWgt=          12          14          12          12          12          12          12          12          16          12
 AtmWgt=  12.0000000  14.0030740  12.0000000  12.0000000  12.0000000  12.0000000  12.0000000  12.0000000  15.9949146  12.0000000
 NucSpn=           0           2           0           0           0           0           0           0           0           0
 AtZEff=  -0.0000000  -0.0000000  -0.0000000  -0.0000000  -0.0000000  -0.0000000  -0.0000000  -0.0000000  -0.0000000  -0.0000000
 NQMom=    0.0000000   2.0440000   0.0000000   0.0000000   0.0000000   0.0000000   0.0000000   0.0000000   0.0000000   0.0000000
 NMagM=    0.0000000   0.4037610   0.0000000   0.0000000   0.0000000   0.0000000   0.0000000   0.0000000   0.0000000   0.0000000
 AtZNuc=   6.0000000   7.0000000   6.0000000   6.0000000   6.0000000   6.0000000   6.0000000   6.0000000   8.0000000   6.0000000

  Atom        41          42          43          44          45          46          47          48          49          50
 IAtWgt=          12          16          16          12           1           1           1           1           1           1
 AtmWgt=  12.0000000  15.9949146  15.9949146  12.0000000   1.0078250   1.0078250   1.0078250   1.0078250   1.0078250   1.0078250
 NucSpn=           0           0           0           0           1           1           1           1           1           1
 AtZEff=  -0.0000000  -0.0000000  -0.0000000  -0.0000000  -0.0000000  -0.0000000  -0.0000000  -0.0000000  -0.0000000  -0.0000000
 NQMom=    0.0000000   0.0000000   0.0000000   0.0000000   0.0000000   0.0000000   0.0000000   0.0000000   0.0000000   0.0000000
 NMagM=    0.0000000   0.0000000   0.0000000   0.0000000   2.7928460   2.7928460   2.7928460   2.7928460   2.7928460   2.7928460
 AtZNuc=   6.0000000   8.0000000   8.0000000   6.0000000   1.0000000   1.0000000   1.0000000   1.0000000   1.0000000   1.0000000

  Atom        51          52          53          54          55          56          57          58          59          60
 IAtWgt=           1           1           1           1           1           1           1           1           1           1
 AtmWgt=   1.0078250   1.0078250   1.0078250   1.0078250   1.0078250   1.0078250   1.0078250   1.0078250   1.0078250   1.0078250
 NucSpn=           1           1           1           1           1           1           1           1           1           1
 AtZEff=  -0.0000000  -0.0000000  -0.0000000  -0.0000000  -0.0000000  -0.0000000  -0.0000000  -0.0000000  -0.0000000  -0.0000000
 NQMom=    0.0000000   0.0000000   0.0000000   0.0000000   0.0000000   0.0000000   0.0000000   0.0000000   0.0000000   0.0000000
 NMagM=    2.7928460   2.7928460   2.7928460   2.7928460   2.7928460   2.7928460   2.7928460   2.7928460   2.7928460   2.7928460
 AtZNuc=   1.0000000   1.0000000   1.0000000   1.0000000   1.0000000   1.0000000   1.0000000   1.0000000   1.0000000   1.0000000

  Atom        61          62          63          64          65          66          67          68          69          70
 IAtWgt=           1           1           1           1           1           1           1           1           1           1
 AtmWgt=   1.0078250   1.0078250   1.0078250   1.0078250   1.0078250   1.0078250   1.0078250   1.0078250   1.0078250   1.0078250
 NucSpn=           1           1           1           1           1           1           1           1           1           1
 AtZEff=  -0.0000000  -0.0000000  -0.0000000  -0.0000000  -0.0000000  -0.0000000  -0.0000000  -0.0000000  -0.0000000  -0.0000000
 NQMom=    0.0000000   0.0000000   0.0000000   0.0000000   0.0000000   0.0000000   0.0000000   0.0000000   0.0000000   0.0000000
 NMagM=    2.7928460   2.7928460   2.7928460   2.7928460   2.7928460   2.7928460   2.7928460   2.7928460   2.7928460   2.7928460
 AtZNuc=   1.0000000   1.0000000   1.0000000   1.0000000   1.0000000   1.0000000   1.0000000   1.0000000   1.0000000   1.0000000

  Atom        71          72          73          74          75          76          77          78          79          80
 IAtWgt=           1           1           1           1           1           1           1           1           1          24
 AtmWgt=   1.0078250   1.0078250   1.0078250   1.0078250   1.0078250   1.0078250   1.0078250   1.0078250   1.0078250  23.9850450
 NucSpn=           1           1           1           1           1           1           1           1           1           0
 AtZEff=  -0.0000000  -0.0000000  -0.0000000  -0.0000000  -0.0000000  -0.0000000  -0.0000000  -0.0000000  -0.0000000  -0.0000000
 NQMom=    0.0000000   0.0000000   0.0000000   0.0000000   0.0000000   0.0000000   0.0000000   0.0000000   0.0000000   0.0000000
 NMagM=    2.7928460   2.7928460   2.7928460   2.7928460   2.7928460   2.7928460   2.7928460   2.7928460   2.7928460   0.0000000
 AtZNuc=   1.0000000   1.0000000   1.0000000   1.0000000   1.0000000   1.0000000   1.0000000   1.0000000   1.0000000  12.0000000

  Atom        81          82          83          84          85          86          87          88          89          90
 IAtWgt=          12          12          12          12          14          12          12          12          12          12
 AtmWgt=  12.0000000  12.0000000  12.0000000  12.0000000  14.0030740  12.0000000  12.0000000  12.0000000  12.0000000  12.0000000
 NucSpn=           0           0           0           0           2           0           0           0           0           0
 AtZEff=  -0.0000000  -0.0000000  -0.0000000  -0.0000000  -0.0000000  -0.0000000  -0.0000000  -0.0000000  -0.0000000  -0.0000000
 NQMom=    0.0000000   0.0000000   0.0000000   0.0000000   2.0440000   0.0000000   0.0000000   0.0000000   0.0000000   0.0000000
 NMagM=    0.0000000   0.0000000   0.0000000   0.0000000   0.4037610   0.0000000   0.0000000   0.0000000   0.0000000   0.0000000
 AtZNuc=   6.0000000   6.0000000   6.0000000   6.0000000   7.0000000   6.0000000   6.0000000   6.0000000   6.0000000   6.0000000

  Atom        91          92          93          94          95          96          97          98          99         100
 IAtWgt=          12          12           1          14          12          12          12          12          12          12
 AtmWgt=  12.0000000  12.0000000   1.0078250  14.0030740  12.0000000  12.0000000  12.0000000  12.0000000  12.0000000  12.0000000
 NucSpn=           0           0           1           2           0           0           0           0           0           0
 AtZEff=  -0.0000000  -0.0000000  -0.0000000  -0.0000000  -0.0000000  -0.0000000  -0.0000000  -0.0000000  -0.0000000  -0.0000000
 NQMom=    0.0000000   0.0000000   0.0000000   2.0440000   0.0000000   0.0000000   0.0000000   0.0000000   0.0000000   0.0000000
 NMagM=    0.0000000   0.0000000   2.7928460   0.4037610   0.0000000   0.0000000   0.0000000   0.0000000   0.0000000   0.0000000
 AtZNuc=   6.0000000   6.0000000   1.0000000   7.0000000   6.0000000   6.0000000   6.0000000   6.0000000   6.0000000   6.0000000

  Atom       101         102         103         104         105         106         107         108         109         110
 IAtWgt=          16          12          14          12          12          12          12          12          12          12
 AtmWgt=  15.9949146  12.0000000  14.0030740  12.0000000  12.0000000  12.0000000  12.0000000  12.0000000  12.0000000  12.0000000
 NucSpn=           0           0           2           0           0           0           0           0           0           0
 AtZEff=  -0.0000000  -0.0000000  -0.0000000  -0.0000000  -0.0000000  -0.0000000  -0.0000000  -0.0000000  -0.0000000  -0.0000000
 NQMom=    0.0000000   0.0000000   2.0440000   0.0000000   0.0000000   0.0000000   0.0000000   0.0000000   0.0000000   0.0000000
 NMagM=    0.0000000   0.0000000   0.4037610   0.0000000   0.0000000   0.0000000   0.0000000   0.0000000   0.0000000   0.0000000
 AtZNuc=   8.0000000   6.0000000   7.0000000   6.0000000   6.0000000   6.0000000   6.0000000   6.0000000   6.0000000   6.0000000

  Atom       111         112         113         114         115         116         117         118         119         120
 IAtWgt=          14          12          12          12          12          12          12          16          12          12
 AtmWgt=  14.0030740  12.0000000  12.0000000  12.0000000  12.0000000  12.0000000  12.0000000  15.9949146  12.0000000  12.0000000
 NucSpn=           2           0           0           0           0           0           0           0           0           0
 AtZEff=  -0.0000000  -0.0000000  -0.0000000  -0.0000000  -0.0000000  -0.0000000  -0.0000000  -0.0000000  -0.0000000  -0.0000000
 NQMom=    2.0440000   0.0000000   0.0000000   0.0000000   0.0000000   0.0000000   0.0000000   0.0000000   0.0000000   0.0000000
 NMagM=    0.4037610   0.0000000   0.0000000   0.0000000   0.0000000   0.0000000   0.0000000   0.0000000   0.0000000   0.0000000
 AtZNuc=   7.0000000   6.0000000   6.0000000   6.0000000   6.0000000   6.0000000   6.0000000   8.0000000   6.0000000   6.0000000

  Atom       121         122         123         124         125         126         127         128         129         130
 IAtWgt=          16          16          12           1           1           1           1           1           1           1
 AtmWgt=  15.9949146  15.9949146  12.0000000   1.0078250   1.0078250   1.0078250   1.0078250   1.0078250   1.0078250   1.0078250
 NucSpn=           0           0           0           1           1           1           1           1           1           1
 AtZEff=  -0.0000000  -0.0000000  -0.0000000  -0.0000000  -0.0000000  -0.0000000  -0.0000000  -0.0000000  -0.0000000  -0.0000000
 NQMom=    0.0000000   0.0000000   0.0000000   0.0000000   0.0000000   0.0000000   0.0000000   0.0000000   0.0000000   0.0000000
 NMagM=    0.0000000   0.0000000   0.0000000   2.7928460   2.7928460   2.7928460   2.7928460   2.7928460   2.7928460   2.7928460
 AtZNuc=   8.0000000   8.0000000   6.0000000   1.0000000   1.0000000   1.0000000   1.0000000   1.0000000   1.0000000   1.0000000

  Atom       131         132         133         134         135         136         137         138         139         140
 IAtWgt=           1           1           1           1           1           1           1           1           1           1
 AtmWgt=   1.0078250   1.0078250   1.0078250   1.0078250   1.0078250   1.0078250   1.0078250   1.0078250   1.0078250   1.0078250
 NucSpn=           1           1           1           1           1           1           1           1           1           1
 AtZEff=  -0.0000000  -0.0000000  -0.0000000  -0.0000000  -0.0000000  -0.0000000  -0.0000000  -0.0000000  -0.0000000  -0.0000000
 NQMom=    0.0000000   0.0000000   0.0000000   0.0000000   0.0000000   0.0000000   0.0000000   0.0000000   0.0000000   0.0000000
 NMagM=    2.7928460   2.7928460   2.7928460   2.7928460   2.7928460   2.7928460   2.7928460   2.7928460   2.7928460   2.7928460
 AtZNuc=   1.0000000   1.0000000   1.0000000   1.0000000   1.0000000   1.0000000   1.0000000   1.0000000   1.0000000   1.0000000

  Atom       141         142         143         144         145         146         147         148         149         150
 IAtWgt=           1           1           1           1           1           1           1           1           1           1
 AtmWgt=   1.0078250   1.0078250   1.0078250   1.0078250   1.0078250   1.0078250   1.0078250   1.0078250   1.0078250   1.0078250
 NucSpn=           1           1           1           1           1           1           1           1           1           1
 AtZEff=  -0.0000000  -0.0000000  -0.0000000  -0.0000000  -0.0000000  -0.0000000  -0.0000000  -0.0000000  -0.0000000  -0.0000000
 NQMom=    0.0000000   0.0000000   0.0000000   0.0000000   0.0000000   0.0000000   0.0000000   0.0000000   0.0000000   0.0000000
 NMagM=    2.7928460   2.7928460   2.7928460   2.7928460   2.7928460   2.7928460   2.7928460   2.7928460   2.7928460   2.7928460
 AtZNuc=   1.0000000   1.0000000   1.0000000   1.0000000   1.0000000   1.0000000   1.0000000   1.0000000   1.0000000   1.0000000

  Atom       151         152         153         154         155         156         157         158
 IAtWgt=           1           1           1           1           1           1           1           1
 AtmWgt=   1.0078250   1.0078250   1.0078250   1.0078250   1.0078250   1.0078250   1.0078250   1.0078250
 NucSpn=           1           1           1           1           1           1           1           1
 AtZEff=  -0.0000000  -0.0000000  -0.0000000  -0.0000000  -0.0000000  -0.0000000  -0.0000000  -0.0000000
 NQMom=    0.0000000   0.0000000   0.0000000   0.0000000   0.0000000   0.0000000   0.0000000   0.0000000
 NMagM=    2.7928460   2.7928460   2.7928460   2.7928460   2.7928460   2.7928460   2.7928460   2.7928460
 AtZNuc=   1.0000000   1.0000000   1.0000000   1.0000000   1.0000000   1.0000000   1.0000000   1.0000000
 Leave Link  101 at Sat Sep  4 18:50:30 2021, MaxMem= 23488102400 cpu:               3.2 elap:               0.2
 (Enter /sw/apps/gaussian-16.0/g16/l202.exe)
 Stoichiometry    C68H72Mg2N8O8
 Framework group  C1[X(C68H72Mg2N8O8)]
 Deg. of freedom   468
 Full point group                 C1      NOp   1
 Largest Abelian subgroup         C1      NOp   1
 Largest concise Abelian subgroup C1      NOp   1
                         Standard orientation:                         
 ---------------------------------------------------------------------
 Center     Atomic      Atomic             Coordinates (Angstroms)
 Number     Number       Type             X           Y           Z
 ---------------------------------------------------------------------
      1         12           0      -15.792941   -0.715788    0.288435
      2          6           0      -15.995655    2.792088   -0.394152
      3          6           0      -16.713442   -1.248555   -2.953771
      4          6           0      -16.062830   -3.797664    0.985443
      5          6           0      -16.006292    0.080808    3.674521
      6          7           0      -16.264959    0.676283   -1.366854
      7          6           0      -16.247230    1.997268   -1.514694
      8          6           0      -16.446717    2.456561   -2.990034
      9          6           0      -17.210580    1.174719   -3.551634
     10          6           0      -16.671730    0.130220   -2.590080
     11          6           0      -18.725873    1.251268   -3.395010
     12          6           0      -15.086233    2.683163   -3.731294
     13          6           0      -15.183816    3.439447   -5.059400
     14          1           0      -14.110677    4.350928   -5.426718
     15          7           0      -15.832876   -2.298006   -0.893869
     16          6           0      -16.219887   -2.329575   -2.191756
     17          6           0      -16.069779   -3.734582   -2.627767
     18          6           0      -15.745158   -4.551815   -1.425750
     19          6           0      -15.895038   -3.573445   -0.378990
     20          6           0      -16.184715   -4.169473   -4.056546
     21          6           0      -15.371080   -5.989334   -1.247600
     22          8           0      -15.357587   -6.551375   -0.099339
     23          6           0      -15.103096   -6.755749   -2.477980
     24          7           0      -16.224903   -1.739474    2.055667
     25          6           0      -16.222396   -3.076363    2.096977
     26          6           0      -16.276141   -3.579101    3.509176
     27          6           0      -16.070150   -2.299620    4.442048
     28          6           0      -16.012257   -1.211857    3.341280
     29          6           0      -17.568121   -4.302630    3.913285
     30          6           0      -14.919837   -2.362560    5.478020
     31          6           0      -13.586594   -2.375966    4.764310
     32          7           0      -15.792102    1.103035    1.472887
     33          6           0      -15.913630    1.201700    2.866505
     34          6           0      -15.969700    2.638105    3.194626
     35          6           0      -15.893080    3.279097    1.959675
     36          6           0      -15.821783    2.304389    0.923744
     37          6           0      -16.136017    3.189897    4.495510
     38          6           0      -15.879676    4.560334    1.272573
     39          8           0      -15.822397    5.736953    1.632821
     40          6           0      -16.068355    4.294955   -0.286209
     41          6           0      -15.028983    5.103290   -1.013951
     42          8           0      -13.815612    4.833383   -0.903292
     43          8           0      -15.632815    5.906385   -1.903315
     44          6           0      -14.655750    6.714962   -2.680299
     45          1           0      -17.221466   -1.535918   -3.876417
     46          1           0      -16.049489   -4.849264    1.279377
     47          1           0      -15.987634    0.406593    4.716139
     48          1           0      -17.069560    3.343217   -3.109750
     49          1           0      -16.912991    0.938761   -4.573146
     50          1           0      -19.022130    2.118696   -2.805331
     51          1           0      -19.012953    0.330010   -2.887701
     52          1           0      -19.217722    1.223493   -4.367681
     53          1           0      -14.708709    1.725743   -4.090298
     54          1           0      -14.371719    3.188296   -3.080421
     55          1           0      -16.153182    3.926135   -5.170632
     56          1           0      -15.151555    2.711513   -5.870124
     57          1           0      -16.592012   -3.378090   -4.684533
     58          1           0      -16.937113   -4.957180   -4.090064
     59          1           0      -15.239834   -4.546731   -4.447962
     60          1           0      -15.988148   -6.735955   -3.114251
     61          1           0      -14.764328   -7.738593   -2.152244
     62          1           0      -14.311308   -6.258024   -3.038596
     63          1           0      -15.476361   -4.293306    3.700720
     64          1           0      -16.955369   -2.082977    5.040484
     65          1           0      -17.405442   -5.314924    4.284098
     66          1           0      -18.236801   -4.304043    3.052961
     67          1           0      -18.171268   -3.780646    4.655689
     68          1           0      -14.982204   -3.282436    6.058438
     69          1           0      -14.925359   -1.527388    6.178525
     70          1           0      -13.455872   -3.427779    4.512449
     71          1           0      -12.794772   -2.032827    5.431007
     72          1           0      -13.630788   -1.819704    3.827771
     73          1           0      -15.434372    4.020950    4.566329
     74          1           0      -15.947431    2.445284    5.268549
     75          1           0      -17.182075    3.493043    4.454044
     76          1           0      -17.080988    4.609010   -0.537335
     77          1           0      -14.931532    7.761748   -2.552174
     78          1           0      -14.656045    6.311969   -3.693216
     79          1           0      -13.631721    6.724553   -2.305317
     80         12           0       15.961796   -0.793082   -0.147232
     81          6           0       15.779425    2.614686    0.963130
     82          6           0       15.045671    0.321657   -3.237970
     83          6           0       15.674681   -3.822591   -1.045599
     84          6           0       15.737256   -1.748920    3.196673
     85          7           0       15.500781    1.229763   -0.913932
     86          6           0       15.524567    2.456519   -0.415080
     87          6           0       15.339668    3.582491   -1.467481
     88          6           0       14.562493    2.737133   -2.590085
     89          6           0       15.091102    1.343632   -2.256329
     90          6           0       13.054303    2.733126   -2.403855
     91          6           0       16.708789    4.128878   -2.005065
     92          6           0       16.613247    5.433053   -2.799891
     93          1           0       17.699046    6.402183   -2.680303
     94          7           0       15.919045   -1.596042   -1.961613
     95          6           0       15.542250   -0.994074   -3.109190
     96          6           0       15.670075   -2.015549   -4.160110
     97          6           0       15.995299   -3.315801   -3.513352
     98          6           0       15.852003   -2.958432   -2.116269
     99          6           0       15.565369   -1.695489   -5.622987
    100          6           0       16.360690   -4.661824   -4.061897
    101          8           0       16.368865   -5.709965   -3.324222
    102          6           0       16.617785   -4.732780   -5.507704
    103          7           0       15.526061   -2.537852    0.895975
    104          6           0       15.514853   -3.730256    0.274721
    105          6           0       15.451027   -4.863627    1.270621
    106          6           0       15.666575   -4.188464    2.704239
    107          6           0       15.731532   -2.705307    2.278276
    108          6           0       14.152627   -5.670163    1.278246
    109          6           0       16.814148   -4.755769    3.583953
    110          6           0       18.151589   -4.441710    2.953076
    111          7           0       15.974777    0.216063    1.763146
    112          6           0       15.842852   -0.372829    3.039813
    113          6           0       15.794796    0.727779    4.024086
    114          6           0       15.879602    1.890608    3.243619
    115          6           0       15.953536    1.540046    1.868434
    116          6           0       15.638286    0.579281    5.431056
    117          6           0       15.912697    3.335218    3.269661
    118          8           0       15.968839    4.187016    4.155674
    119          6           0       15.721891    3.871906    1.785765
    120          6           0       16.768277    4.922633    1.533699
    121          8           0       17.974541    4.620861    1.511631
    122          8           0       16.165018    6.061372    1.146765
    123          6           0       17.162383    7.130413    0.874295
    124          1           0       14.544862    0.532225   -4.183338
    125          1           0       15.680580   -4.886747   -1.292602
    126          1           0       15.766729   -1.966970    4.266376
    127          1           0       14.728741    4.414946   -1.139513
    128          1           0       14.869834    3.032131   -3.590023
    129          1           0       12.761599    3.203011   -1.476657
    130          1           0       12.759948    1.691796   -2.409692
    131          1           0       12.566311    3.189121   -3.270031
    132          1           0       17.078981    3.457066   -2.790161
    133          1           0       17.413636    4.244263   -1.204754
    134          1           0       15.642186    5.925706   -2.668395
    135          1           0       16.650171    5.193561   -3.865404
    136          1           0       15.157612   -0.690323   -5.786659
    137          1           0       14.809369   -2.367149   -6.043949
    138          1           0       16.507033   -1.845357   -6.155399
    139          1           0       15.736367   -4.395949   -6.048196
    140          1           0       16.950445   -5.755488   -5.695523
    141          1           0       17.424509   -4.033507   -5.754337
    142          1           0       16.246301   -5.577709    1.095332
    143          1           0       14.776641   -4.293538    3.342065
    144          1           0       14.309543   -6.751590    1.105147
    145          1           0       13.489984   -5.257374    0.529212
    146          1           0       13.558878   -5.580934    2.186373
    147          1           0       16.745458   -5.844951    3.639841
    148          1           0       16.804527   -4.379845    4.601588
    149          1           0       18.271054   -5.241970    2.216595
    150          1           0       18.943230   -4.470457    3.699084
    151          1           0       18.115384   -3.492659    2.405676
    152          1           0       16.337604    1.261515    5.895826
    153          1           0       15.815262   -0.447423    5.744616
    154          1           0       14.589516    0.867410    5.542118
    155          1           0       14.711027    4.274470    1.710449
    156          1           0       16.889201    7.988315    1.496440
    157          1           0       17.149464    7.278672   -0.221882
    158          1           0       18.183736    6.955680    1.191686
 ---------------------------------------------------------------------
 Rotational constants (GHZ):           0.0202677           0.0016460           0.0016132
 Leave Link  202 at Sat Sep  4 18:50:30 2021, MaxMem= 23488102400 cpu:               0.2 elap:               0.0
 (Enter /sw/apps/gaussian-16.0/g16/l301.exe)
 Standard basis: def2SVP (5D, 7F)
 Ernie: Thresh=  0.10000D-02 Tol=  0.10000D-05 Strict=F.
 There are  1658 symmetry adapted cartesian basis functions of A   symmetry.
 There are  1572 symmetry adapted basis functions of A   symmetry.
  1572 basis functions,  2678 primitive gaussians,  1658 cartesian basis functions
   312 alpha electrons      312 beta electrons
       nuclear repulsion energy     12306.7873529210 Hartrees.
 IExCor=20419 DFT=T Ex+Corr=CAM-B3LYP ExCW=0 ScaHFX=  1.000000
 ScaDFX=  1.000000  1.000000  1.000000  0.810000 ScalE2=  1.000000  1.000000
 IRadAn=      5 IRanWt=     -1 IRanGd=            0 ICorTp=0 IEmpDi=  4
 HFx  wShort=  0.000000 wLong=  0.330000 cFull=  0.190000 cShort=  0.000000 cLong=  0.460000
 DFx  wShort=  0.000000 wLong=  0.330000 cFull=  0.190000 cShort=  0.000000 cLong=  0.460000
 NAtoms=  158 NActive=  158 NUniq=  158 SFac= 1.00D+00 NAtFMM=   60 NAOKFM=T Big=T
 Integral buffers will be    131072 words long.
 Raffenetti 1 integral format.
 Two-electron integral symmetry is turned on.
 Leave Link  301 at Sat Sep  4 18:50:30 2021, MaxMem= 23488102400 cpu:               1.3 elap:               0.1
 (Enter /sw/apps/gaussian-16.0/g16/l302.exe)
 NPDir=0 NMtPBC=     1 NCelOv=     1 NCel=       1 NClECP=     1 NCelD=      1
         NCelK=      1 NCelE2=     1 NClLst=     1 CellRange=     0.0.
 One-electron integrals computed using PRISM.
 One-electron integral symmetry used in STVInt
   1 Symmetry operations used in ECPInt.
 ECPInt:  NShTT=  271216 NPrTT=  987664 LenC2=  103957 LenP2D=  239866.
 LDataN:  DoStor=T MaxTD1= 4 Len=   56
 NBasis=  1572 RedAO= T EigKep=  3.36D-04  NBF=  1572
 NBsUse=  1572 1.00D-06 EigRej= -1.00D+00 NBFU=  1572
 Precomputing XC quadrature grid using
 IXCGrd= 4 IRadAn=           5 IRanWt=          -1 IRanGd=           0 AccXCQ= 0.00D+00.
 Generated NRdTot=       0 NPtTot=           0 NUsed=           0 NTot=          32
 NSgBfM=   812   812   812   812   812 MxSgAt=   158 MxSgA2=    79.
 Leave Link  302 at Sat Sep  4 18:50:35 2021, MaxMem= 23488102400 cpu:             104.1 elap:               4.4
 (Enter /sw/apps/gaussian-16.0/g16/l303.exe)
 DipDrv:  MaxL=1.
 Leave Link  303 at Sat Sep  4 18:50:35 2021, MaxMem= 23488102400 cpu:               7.5 elap:               0.4
 (Enter /sw/apps/gaussian-16.0/g16/l308.exe)
 Leave Link  308 at Sat Sep  4 18:50:36 2021, MaxMem= 23488102400 cpu:              14.0 elap:               0.7
 (Enter /sw/apps/gaussian-16.0/g16/l401.exe)
 ExpMin= 3.36D-02 ExpMax= 4.95D+03 ExpMxC= 7.45D+02 IAcc=3 IRadAn=         5 AccDes= 0.00D+00
 Harris functional with IExCor=20419 and IRadAn=       5 diagonalized for initial guess.
 HarFok:  IExCor=20419 AccDes= 0.00D+00 IRadAn=         5 IDoV= 1 UseB2=F ITyADJ=14
 ICtDFT=  3500011 ScaDFX=  1.000000  1.000000  1.000000  1.000000
 FoFCou: FMM=F IPFlag=           0 FMFlag=      100000 FMFlg1=        2001
         NFxFlg=           0 DoJE=T BraDBF=F KetDBF=T FulRan=T
         wScrn=  0.000000 ICntrl=       500 IOpCl=  0 I1Cent=   200000004 NGrid=           0
         NMat0=    1 NMatS0=      1 NMatT0=    0 NMatD0=    1 NMtDS0=    0 NMtDT0=    0
 Petite list used in FoFCou.
 Harris En= -3918.65801623533    
 JPrj=0 DoOrth=F DoCkMO=F.
 Leave Link  401 at Sat Sep  4 18:50:42 2021, MaxMem= 23488102400 cpu:             161.3 elap:               6.8
 (Enter /sw/apps/gaussian-16.0/g16/l502.exe)
 Integral symmetry usage will be decided dynamically.
 Closed shell SCF:
 Using DIIS extrapolation, IDIIS=  1040.
 NGot= 23488102400 LenX= 23482547354 LenY= 23479796732
 Requested convergence on RMS density matrix=1.00D-08 within 128 cycles.
 Requested convergence on MAX density matrix=1.00D-06.
 Requested convergence on             energy=1.00D-06.
 No special actions if energy rises.
 Fock matrices will be formed incrementally for  20 cycles.

 Cycle   1  Pass 1  IDiag  1:
 FoFJK:  IHMeth= 1 ICntrl=       0 DoSepK=T KAlg= 0 I1Cent=           0 FoldK=F
 IRaf=         1 NMat=       1 IRICut=       1 DoRegI=T DoRafI=F ISym2E= 0 IDoP0=0 IntGTp=1.
 FoFCou: FMM=T IPFlag=           0 FMFlag=      100000 FMFlg1=        2001
         NFxFlg=           0 DoJE=T BraDBF=F KetDBF=F FulRan=T
         wScrn=  0.000000 ICntrl=       500 IOpCl=  0 I1Cent=           0 NGrid=           0
         NMat0=    1 NMatS0=      1 NMatT0=    0 NMatD0=    1 NMtDS0=    0 NMtDT0=    0
 Symmetry not used in FoFCou.
 FMM levels:  10  Number of levels for PrismC:   9
 E= -4068.94927794972    
 DIIS: error= 2.04D-02 at cycle   1 NSaved=   1.
 NSaved= 1 IEnMin= 1 EnMin= -4068.94927794972     IErMin= 1 ErrMin= 2.04D-02
 ErrMax= 2.04D-02  0.00D+00 EMaxC= 1.00D-01 BMatC= 1.69D+00 BMatP= 1.69D+00
 IDIUse=3 WtCom= 7.96D-01 WtEn= 2.04D-01
 Coeff-Com:  0.100D+01
 Coeff-En:   0.100D+01
 Coeff:      0.100D+01
 Gap=     0.120 Goal=   None    Shift=    0.000
 GapD=    0.120 DampG=1.000 DampE=0.500 DampFc=0.5000 IDamp=-1.
 Damping current iteration by 5.00D-01
 RMSDP=1.57D-03 MaxDP=1.35D-01              OVMax= 2.03D-01

 Cycle   2  Pass 1  IDiag  1:
 RMSU=  7.69D-04    CP:  9.82D-01
 E= -4069.33819014144     Delta-E=       -0.388912191722 Rises=F Damp=T
 DIIS: error= 1.27D-02 at cycle   2 NSaved=   2.
 NSaved= 2 IEnMin= 2 EnMin= -4069.33819014144     IErMin= 2 ErrMin= 1.27D-02
 ErrMax= 1.27D-02  0.00D+00 EMaxC= 1.00D-01 BMatC= 3.07D-01 BMatP= 1.69D+00
 IDIUse=3 WtCom= 8.73D-01 WtEn= 1.27D-01
 Coeff-Com: -0.213D+00 0.121D+01
 Coeff-En:   0.000D+00 0.100D+01
 Coeff:     -0.186D+00 0.119D+01
 Gap=     0.138 Goal=   None    Shift=    0.000
 RMSDP=7.65D-04 MaxDP=9.43D-02 DE=-3.89D-01 OVMax= 1.88D-01

 Cycle   3  Pass 1  IDiag  1:
 RMSU=  7.32D-04    CP:  9.68D-01  1.24D+00
 E= -4069.62794970515     Delta-E=       -0.289759563710 Rises=F Damp=F
 DIIS: error= 1.58D-02 at cycle   3 NSaved=   3.
 NSaved= 3 IEnMin= 3 EnMin= -4069.62794970515     IErMin= 2 ErrMin= 1.27D-02
 ErrMax= 1.58D-02  0.00D+00 EMaxC= 1.00D-01 BMatC= 2.02D-01 BMatP= 3.07D-01
 IDIUse=3 WtCom= 8.42D-01 WtEn= 1.58D-01
 Coeff-Com: -0.267D+00 0.652D+00 0.616D+00
 Coeff-En:   0.000D+00 0.000D+00 0.100D+01
 Coeff:     -0.225D+00 0.549D+00 0.676D+00
 Gap=     0.125 Goal=   None    Shift=    0.000
 RMSDP=5.08D-04 MaxDP=4.84D-02 DE=-2.90D-01 OVMax= 1.42D-01

 Cycle   4  Pass 1  IDiag  1:
 RMSU=  2.65D-04    CP:  9.65D-01  1.55D+00  5.06D-01
 E= -4069.76507499232     Delta-E=       -0.137125287172 Rises=F Damp=F
 DIIS: error= 7.31D-03 at cycle   4 NSaved=   4.
 NSaved= 4 IEnMin= 4 EnMin= -4069.76507499232     IErMin= 4 ErrMin= 7.31D-03
 ErrMax= 7.31D-03  0.00D+00 EMaxC= 1.00D-01 BMatC= 5.04D-02 BMatP= 2.02D-01
 IDIUse=3 WtCom= 9.27D-01 WtEn= 7.31D-02
 Coeff-Com: -0.109D+00 0.226D+00 0.409D+00 0.474D+00
 Coeff-En:   0.000D+00 0.000D+00 0.221D+00 0.779D+00
 Coeff:     -0.101D+00 0.209D+00 0.395D+00 0.497D+00
 Gap=     0.123 Goal=   None    Shift=    0.000
 RMSDP=2.00D-04 MaxDP=2.03D-02 DE=-1.37D-01 OVMax= 6.17D-02

 Cycle   5  Pass 1  IDiag  1:
 RMSU=  7.58D-05    CP:  9.64D-01  1.49D+00  6.89D-01  5.50D-01
 E= -4069.81053874400     Delta-E=       -0.045463751681 Rises=F Damp=F
 DIIS: error= 7.85D-04 at cycle   5 NSaved=   5.
 NSaved= 5 IEnMin= 5 EnMin= -4069.81053874400     IErMin= 5 ErrMin= 7.85D-04
 ErrMax= 7.85D-04  0.00D+00 EMaxC= 1.00D-01 BMatC= 1.17D-03 BMatP= 5.04D-02
 IDIUse=3 WtCom= 9.92D-01 WtEn= 7.85D-03
 Coeff-Com: -0.358D-01 0.702D-01 0.165D+00 0.249D+00 0.551D+00
 Coeff-En:   0.000D+00 0.000D+00 0.000D+00 0.000D+00 0.100D+01
 Coeff:     -0.355D-01 0.696D-01 0.164D+00 0.247D+00 0.555D+00
 Gap=     0.123 Goal=   None    Shift=    0.000
 RMSDP=4.07D-05 MaxDP=4.16D-03 DE=-4.55D-02 OVMax= 1.64D-02

 Cycle   6  Pass 1  IDiag  1:
 RMSU=  3.02D-05    CP:  9.64D-01  1.49D+00  6.81D-01  6.21D-01  7.59D-01
 E= -4069.81154604487     Delta-E=       -0.001007300869 Rises=F Damp=F
 DIIS: error= 2.19D-04 at cycle   6 NSaved=   6.
 NSaved= 6 IEnMin= 6 EnMin= -4069.81154604487     IErMin= 6 ErrMin= 2.19D-04
 ErrMax= 2.19D-04  0.00D+00 EMaxC= 1.00D-01 BMatC= 1.76D-04 BMatP= 1.17D-03
 IDIUse=3 WtCom= 9.98D-01 WtEn= 2.19D-03
 Coeff-Com:  0.231D-02-0.677D-02 0.109D-01 0.398D-01 0.306D+00 0.648D+00
 Coeff-En:   0.000D+00 0.000D+00 0.000D+00 0.000D+00 0.103D+00 0.897D+00
 Coeff:      0.230D-02-0.676D-02 0.108D-01 0.397D-01 0.306D+00 0.648D+00
 Gap=     0.123 Goal=   None    Shift=    0.000
 RMSDP=1.58D-05 MaxDP=1.23D-03 DE=-1.01D-03 OVMax= 7.22D-03

 Cycle   7  Pass 1  IDiag  1:
 RMSU=  1.07D-05    CP:  9.64D-01  1.50D+00  6.87D-01  6.21D-01  8.60D-01
                    CP:  7.49D-01
 E= -4069.81173485331     Delta-E=       -0.000188808435 Rises=F Damp=F
 DIIS: error= 8.30D-05 at cycle   7 NSaved=   7.
 NSaved= 7 IEnMin= 7 EnMin= -4069.81173485331     IErMin= 7 ErrMin= 8.30D-05
 ErrMax= 8.30D-05  0.00D+00 EMaxC= 1.00D-01 BMatC= 2.07D-05 BMatP= 1.76D-04
 IDIUse=1 WtCom= 1.00D+00 WtEn= 0.00D+00
 Coeff-Com:  0.446D-02-0.974D-02-0.898D-02-0.382D-02 0.102D+00 0.329D+00
 Coeff-Com:  0.587D+00
 Coeff:      0.446D-02-0.974D-02-0.898D-02-0.382D-02 0.102D+00 0.329D+00
 Coeff:      0.587D+00
 Gap=     0.123 Goal=   None    Shift=    0.000
 RMSDP=6.50D-06 MaxDP=1.11D-03 DE=-1.89D-04 OVMax= 3.39D-03

 Cycle   8  Pass 1  IDiag  1:
 RMSU=  4.67D-06    CP:  9.64D-01  1.50D+00  6.88D-01  6.26D-01  8.64D-01
                    CP:  8.75D-01  8.23D-01
 E= -4069.81176058180     Delta-E=       -0.000025728490 Rises=F Damp=F
 DIIS: error= 5.00D-05 at cycle   8 NSaved=   8.
 NSaved= 8 IEnMin= 8 EnMin= -4069.81176058180     IErMin= 8 ErrMin= 5.00D-05
 ErrMax= 5.00D-05  0.00D+00 EMaxC= 1.00D-01 BMatC= 4.82D-06 BMatP= 2.07D-05
 IDIUse=1 WtCom= 1.00D+00 WtEn= 0.00D+00
 Coeff-Com:  0.215D-02-0.426D-02-0.775D-02-0.121D-01-0.117D-01 0.335D-01
 Coeff-Com:  0.344D+00 0.656D+00
 Coeff:      0.215D-02-0.426D-02-0.775D-02-0.121D-01-0.117D-01 0.335D-01
 Coeff:      0.344D+00 0.656D+00
 Gap=     0.123 Goal=   None    Shift=    0.000
 RMSDP=3.27D-06 MaxDP=3.52D-04 DE=-2.57D-05 OVMax= 1.11D-03

 Cycle   9  Pass 1  IDiag  1:
 RMSU=  1.91D-06    CP:  9.64D-01  1.50D+00  6.88D-01  6.27D-01  8.81D-01
                    CP:  9.01D-01  1.02D+00  9.40D-01
 E= -4069.81176827833     Delta-E=       -0.000007696532 Rises=F Damp=F
 DIIS: error= 1.95D-05 at cycle   9 NSaved=   9.
 NSaved= 9 IEnMin= 9 EnMin= -4069.81176827833     IErMin= 9 ErrMin= 1.95D-05
 ErrMax= 1.95D-05  0.00D+00 EMaxC= 1.00D-01 BMatC= 6.87D-07 BMatP= 4.82D-06
 IDIUse=1 WtCom= 1.00D+00 WtEn= 0.00D+00
 Coeff-Com:  0.462D-03-0.767D-03-0.266D-02-0.598D-02-0.212D-01-0.386D-01
 Coeff-Com:  0.104D+00 0.326D+00 0.639D+00
 Coeff:      0.462D-03-0.767D-03-0.266D-02-0.598D-02-0.212D-01-0.386D-01
 Coeff:      0.104D+00 0.326D+00 0.639D+00
 Gap=     0.123 Goal=   None    Shift=    0.000
 RMSDP=1.41D-06 MaxDP=1.49D-04 DE=-7.70D-06 OVMax= 7.43D-04

 Cycle  10  Pass 1  IDiag  1:
 RMSU=  9.37D-07    CP:  9.64D-01  1.50D+00  6.88D-01  6.28D-01  8.84D-01
                    CP:  9.15D-01  1.07D+00  1.11D+00  1.05D+00
 E= -4069.81176986226     Delta-E=       -0.000001583930 Rises=F Damp=F
 DIIS: error= 1.02D-05 at cycle  10 NSaved=  10.
 NSaved=10 IEnMin=10 EnMin= -4069.81176986226     IErMin=10 ErrMin= 1.02D-05
 ErrMax= 1.02D-05  0.00D+00 EMaxC= 1.00D-01 BMatC= 1.71D-07 BMatP= 6.87D-07
 IDIUse=1 WtCom= 1.00D+00 WtEn= 0.00D+00
 Coeff-Com: -0.427D-03 0.894D-03 0.123D-02 0.112D-02-0.376D-02-0.310D-01
 Coeff-Com: -0.464D-01-0.764D-01 0.255D+00 0.900D+00
 Coeff:     -0.427D-03 0.894D-03 0.123D-02 0.112D-02-0.376D-02-0.310D-01
 Coeff:     -0.464D-01-0.764D-01 0.255D+00 0.900D+00
 Gap=     0.123 Goal=   None    Shift=    0.000
 RMSDP=1.22D-06 MaxDP=1.24D-04 DE=-1.58D-06 OVMax= 6.09D-04

 Cycle  11  Pass 1  IDiag  1:
 RMSU=  5.15D-07    CP:  9.64D-01  1.50D+00  6.88D-01  6.28D-01  8.86D-01
                    CP:  9.25D-01  1.11D+00  1.22D+00  1.39D+00  1.37D+00
 E= -4069.81177064858     Delta-E=       -0.000000786322 Rises=F Damp=F
 DIIS: error= 3.96D-06 at cycle  11 NSaved=  11.
 NSaved=11 IEnMin=11 EnMin= -4069.81177064858     IErMin=11 ErrMin= 3.96D-06
 ErrMax= 3.96D-06  0.00D+00 EMaxC= 1.00D-01 BMatC= 6.12D-08 BMatP= 1.71D-07
 IDIUse=1 WtCom= 1.00D+00 WtEn= 0.00D+00
 Coeff-Com: -0.327D-03 0.635D-03 0.133D-02 0.212D-02 0.441D-02-0.836D-02
 Coeff-Com: -0.435D-01-0.132D+00-0.233D-01 0.465D+00 0.734D+00
 Coeff:     -0.327D-03 0.635D-03 0.133D-02 0.212D-02 0.441D-02-0.836D-02
 Coeff:     -0.435D-01-0.132D+00-0.233D-01 0.465D+00 0.734D+00
 Gap=     0.123 Goal=   None    Shift=    0.000
 RMSDP=6.86D-07 MaxDP=5.85D-05 DE=-7.86D-07 OVMax= 3.72D-04

 Cycle  12  Pass 1  IDiag  1:
 RMSU=  2.63D-07    CP:  9.64D-01  1.50D+00  6.88D-01  6.28D-01  8.87D-01
                    CP:  9.27D-01  1.14D+00  1.28D+00  1.56D+00  1.76D+00
                    CP:  1.20D+00
 E= -4069.81177091134     Delta-E=       -0.000000262760 Rises=F Damp=F
 DIIS: error= 2.34D-06 at cycle  12 NSaved=  12.
 NSaved=12 IEnMin=12 EnMin= -4069.81177091134     IErMin=12 ErrMin= 2.34D-06
 ErrMax= 2.34D-06  0.00D+00 EMaxC= 1.00D-01 BMatC= 1.48D-08 BMatP= 6.12D-08
 IDIUse=1 WtCom= 1.00D+00 WtEn= 0.00D+00
 Coeff-Com:  0.625D-07-0.167D-04 0.179D-03 0.510D-03 0.330D-02 0.405D-02
 Coeff-Com:  0.281D-02-0.349D-01-0.680D-01-0.754D-01 0.251D+00 0.917D+00
 Coeff:      0.625D-07-0.167D-04 0.179D-03 0.510D-03 0.330D-02 0.405D-02
 Coeff:      0.281D-02-0.349D-01-0.680D-01-0.754D-01 0.251D+00 0.917D+00
 Gap=     0.123 Goal=   None    Shift=    0.000
 RMSDP=4.37D-07 MaxDP=3.09D-05 DE=-2.63D-07 OVMax= 2.49D-04

 Cycle  13  Pass 1  IDiag  1:
 RMSU=  1.65D-07    CP:  9.64D-01  1.50D+00  6.88D-01  6.28D-01  8.87D-01
                    CP:  9.28D-01  1.14D+00  1.31D+00  1.67D+00  1.99D+00
                    CP:  1.61D+00  1.27D+00
 E= -4069.81177100305     Delta-E=       -0.000000091712 Rises=F Damp=F
 DIIS: error= 1.24D-06 at cycle  13 NSaved=  13.
 NSaved=13 IEnMin=13 EnMin= -4069.81177100305     IErMin=13 ErrMin= 1.24D-06
 ErrMax= 1.24D-06  0.00D+00 EMaxC= 1.00D-01 BMatC= 8.13D-09 BMatP= 1.48D-08
 IDIUse=1 WtCom= 1.00D+00 WtEn= 0.00D+00
 Coeff-Com:  0.120D-03-0.245D-03-0.370D-03-0.457D-03 0.573D-03 0.508D-02
 Coeff-Com:  0.197D-01 0.228D-01-0.339D-01-0.241D+00-0.156D+00 0.598D+00
 Coeff-Com:  0.786D+00
 Coeff:      0.120D-03-0.245D-03-0.370D-03-0.457D-03 0.573D-03 0.508D-02
 Coeff:      0.197D-01 0.228D-01-0.339D-01-0.241D+00-0.156D+00 0.598D+00
 Coeff:      0.786D+00
 Gap=     0.123 Goal=   None    Shift=    0.000
 RMSDP=3.39D-07 MaxDP=2.27D-05 DE=-9.17D-08 OVMax= 1.97D-04

 Cycle  14  Pass 1  IDiag  1:
 RMSU=  7.61D-08    CP:  9.64D-01  1.50D+00  6.88D-01  6.28D-01  8.88D-01
                    CP:  9.28D-01  1.15D+00  1.33D+00  1.74D+00  2.18D+00
                    CP:  1.88D+00  1.79D+00  1.09D+00
 E= -4069.81177103883     Delta-E=       -0.000000035770 Rises=F Damp=F
 DIIS: error= 6.38D-07 at cycle  14 NSaved=  14.
 NSaved=14 IEnMin=14 EnMin= -4069.81177103883     IErMin=14 ErrMin= 6.38D-07
 ErrMax= 6.38D-07  0.00D+00 EMaxC= 1.00D-01 BMatC= 1.25D-09 BMatP= 8.13D-09
 IDIUse=1 WtCom= 1.00D+00 WtEn= 0.00D+00
 Coeff-Com:  0.663D-04-0.131D-03-0.246D-03-0.387D-03-0.483D-03 0.129D-02
 Coeff-Com:  0.108D-01 0.192D-01 0.368D-02-0.996D-01-0.142D+00 0.933D-01
 Coeff-Com:  0.404D+00 0.710D+00
 Coeff:      0.663D-04-0.131D-03-0.246D-03-0.387D-03-0.483D-03 0.129D-02
 Coeff:      0.108D-01 0.192D-01 0.368D-02-0.996D-01-0.142D+00 0.933D-01
 Coeff:      0.404D+00 0.710D+00
 Gap=     0.123 Goal=   None    Shift=    0.000
 RMSDP=1.01D-07 MaxDP=6.64D-06 DE=-3.58D-08 OVMax= 5.43D-05

 Cycle  15  Pass 1  IDiag  1:
 RMSU=  3.82D-08    CP:  9.64D-01  1.50D+00  6.88D-01  6.28D-01  8.88D-01
                    CP:  9.28D-01  1.15D+00  1.34D+00  1.76D+00  2.22D+00
                    CP:  1.98D+00  1.92D+00  1.33D+00  1.03D+00
 E= -4069.81177104290     Delta-E=       -0.000000004078 Rises=F Damp=F
 DIIS: error= 3.38D-07 at cycle  15 NSaved=  15.
 NSaved=15 IEnMin=15 EnMin= -4069.81177104290     IErMin=15 ErrMin= 3.38D-07
 ErrMax= 3.38D-07  0.00D+00 EMaxC= 1.00D-01 BMatC= 2.25D-10 BMatP= 1.25D-09
 IDIUse=1 WtCom= 1.00D+00 WtEn= 0.00D+00
 Coeff-Com:  0.518D-05-0.857D-05-0.320D-04-0.808D-04-0.299D-03-0.515D-03
 Coeff-Com:  0.112D-02 0.250D-02 0.876D-02 0.185D-02-0.306D-01-0.731D-01
 Coeff-Com:  0.289D-01 0.297D+00 0.765D+00
 Coeff:      0.518D-05-0.857D-05-0.320D-04-0.808D-04-0.299D-03-0.515D-03
 Coeff:      0.112D-02 0.250D-02 0.876D-02 0.185D-02-0.306D-01-0.731D-01
 Coeff:      0.289D-01 0.297D+00 0.765D+00
 Gap=     0.123 Goal=   None    Shift=    0.000
 RMSDP=4.06D-08 MaxDP=2.69D-06 DE=-4.08D-09 OVMax= 2.69D-05

 Cycle  16  Pass 1  IDiag  1:
 RMSU=  1.87D-08    CP:  9.64D-01  1.50D+00  6.88D-01  6.28D-01  8.88D-01
                    CP:  9.28D-01  1.15D+00  1.34D+00  1.76D+00  2.24D+00
                    CP:  2.01D+00  1.98D+00  1.40D+00  1.24D+00  1.15D+00
 E= -4069.81177104369     Delta-E=       -0.000000000791 Rises=F Damp=F
 DIIS: error= 1.64D-07 at cycle  16 NSaved=  16.
 NSaved=16 IEnMin=16 EnMin= -4069.81177104369     IErMin=16 ErrMin= 1.64D-07
 ErrMax= 1.64D-07  0.00D+00 EMaxC= 1.00D-01 BMatC= 8.17D-11 BMatP= 2.25D-10
 IDIUse=1 WtCom= 1.00D+00 WtEn= 0.00D+00
 Coeff-Com: -0.142D-04 0.288D-04 0.470D-04 0.538D-04-0.267D-04-0.633D-03
 Coeff-Com: -0.198D-02-0.426D-02 0.454D-02 0.256D-01 0.207D-01-0.646D-01
 Coeff-Com: -0.831D-01-0.377D-01 0.398D+00 0.743D+00
 Coeff:     -0.142D-04 0.288D-04 0.470D-04 0.538D-04-0.267D-04-0.633D-03
 Coeff:     -0.198D-02-0.426D-02 0.454D-02 0.256D-01 0.207D-01-0.646D-01
 Coeff:     -0.831D-01-0.377D-01 0.398D+00 0.743D+00
 Gap=     0.123 Goal=   None    Shift=    0.000
 RMSDP=2.29D-08 MaxDP=1.59D-06 DE=-7.91D-10 OVMax= 1.30D-05

 Cycle  17  Pass 1  IDiag  1:
 RMSU=  1.04D-08    CP:  9.64D-01  1.50D+00  6.88D-01  6.28D-01  8.88D-01
                    CP:  9.28D-01  1.15D+00  1.34D+00  1.77D+00  2.24D+00
                    CP:  2.02D+00  2.01D+00  1.45D+00  1.34D+00  1.44D+00
                    CP:  1.25D+00
 E= -4069.81177104413     Delta-E=       -0.000000000431 Rises=F Damp=F
 DIIS: error= 9.39D-08 at cycle  17 NSaved=  17.
 NSaved=17 IEnMin=17 EnMin= -4069.81177104413     IErMin=17 ErrMin= 9.39D-08
 ErrMax= 9.39D-08  0.00D+00 EMaxC= 1.00D-01 BMatC= 1.77D-11 BMatP= 8.17D-11
 IDIUse=1 WtCom= 1.00D+00 WtEn= 0.00D+00
 Coeff-Com: -0.717D-05 0.140D-04 0.285D-04 0.425D-04 0.840D-04-0.122D-03
 Coeff-Com: -0.959D-03-0.280D-02 0.138D-03 0.918D-02 0.174D-01-0.719D-02
 Coeff-Com: -0.367D-01-0.102D+00-0.315D-01 0.293D+00 0.861D+00
 Coeff:     -0.717D-05 0.140D-04 0.285D-04 0.425D-04 0.840D-04-0.122D-03
 Coeff:     -0.959D-03-0.280D-02 0.138D-03 0.918D-02 0.174D-01-0.719D-02
 Coeff:     -0.367D-01-0.102D+00-0.315D-01 0.293D+00 0.861D+00
 Gap=     0.123 Goal=   None    Shift=    0.000
 RMSDP=1.37D-08 MaxDP=1.06D-06 DE=-4.31D-10 OVMax= 8.92D-06

 Cycle  18  Pass 1  IDiag  1:
 RMSU=  4.86D-09    CP:  9.64D-01  1.50D+00  6.88D-01  6.28D-01  8.88D-01
                    CP:  9.28D-01  1.15D+00  1.34D+00  1.77D+00  2.24D+00
                    CP:  2.02D+00  2.02D+00  1.47D+00  1.41D+00  1.61D+00
                    CP:  1.66D+00  1.39D+00
 E= -4069.81177104425     Delta-E=       -0.000000000126 Rises=F Damp=F
 DIIS: error= 5.13D-08 at cycle  18 NSaved=  18.
 NSaved=18 IEnMin=18 EnMin= -4069.81177104425     IErMin=18 ErrMin= 5.13D-08
 ErrMax= 5.13D-08  0.00D+00 EMaxC= 1.00D-01 BMatC= 6.91D-12 BMatP= 1.77D-11
 IDIUse=1 WtCom= 1.00D+00 WtEn= 0.00D+00
 Coeff-Com:  0.207D-05-0.445D-05-0.466D-05-0.183D-05 0.591D-04 0.184D-03
 Coeff-Com:  0.407D-03 0.233D-03-0.129D-02-0.623D-02-0.163D-03 0.203D-01
 Coeff-Com:  0.186D-01-0.324D-01-0.163D+00-0.193D+00 0.349D+00 0.101D+01
 Coeff:      0.207D-05-0.445D-05-0.466D-05-0.183D-05 0.591D-04 0.184D-03
 Coeff:      0.407D-03 0.233D-03-0.129D-02-0.623D-02-0.163D-03 0.203D-01
 Coeff:      0.186D-01-0.324D-01-0.163D+00-0.193D+00 0.349D+00 0.101D+01
 Gap=     0.123 Goal=   None    Shift=    0.000
 RMSDP=1.18D-08 MaxDP=8.00D-07 DE=-1.26D-10 OVMax= 6.81D-06

 Cycle  19  Pass 1  IDiag  1:
 RMSU=  2.78D-09    CP:  9.64D-01  1.50D+00  6.88D-01  6.28D-01  8.88D-01
                    CP:  9.28D-01  1.15D+00  1.34D+00  1.77D+00  2.24D+00
                    CP:  2.03D+00  2.02D+00  1.48D+00  1.46D+00  1.77D+00
                    CP:  1.99D+00  1.94D+00  1.38D+00
 E= -4069.81177104423     Delta-E=        0.000000000024 Rises=F Damp=F
 DIIS: error= 3.36D-08 at cycle  19 NSaved=  19.
 NSaved=19 IEnMin=18 EnMin= -4069.81177104425     IErMin=19 ErrMin= 3.36D-08
 ErrMax= 3.36D-08  0.00D+00 EMaxC= 1.00D-01 BMatC= 1.40D-12 BMatP= 6.91D-12
 IDIUse=1 WtCom= 1.00D+00 WtEn= 0.00D+00
 Coeff-Com:  0.286D-05-0.577D-05-0.981D-05-0.123D-04 0.107D-04 0.118D-03
 Coeff-Com:  0.472D-03 0.789D-03-0.587D-03-0.590D-02-0.478D-02 0.119D-01
 Coeff-Com:  0.199D-01 0.114D-01-0.678D-01-0.176D+00-0.336D-01 0.487D+00
 Coeff-Com:  0.757D+00
 Coeff:      0.286D-05-0.577D-05-0.981D-05-0.123D-04 0.107D-04 0.118D-03
 Coeff:      0.472D-03 0.789D-03-0.587D-03-0.590D-02-0.478D-02 0.119D-01
 Coeff:      0.199D-01 0.114D-01-0.678D-01-0.176D+00-0.336D-01 0.487D+00
 Coeff:      0.757D+00
 Gap=     0.123 Goal=   None    Shift=    0.000
 RMSDP=4.49D-09 MaxDP=3.23D-07 DE= 2.36D-11 OVMax= 2.92D-06

 SCF Done:  E(RCAM-B3LYP) =  -4069.81177104     A.U. after   19 cycles
            NFock= 19  Conv=0.45D-08     -V/T= 2.0102
 KE= 4.028802029318D+03 PE=-3.409440310611D+04 EE= 1.368900195283D+04
 Leave Link  502 at Sat Sep  4 18:59:18 2021, MaxMem= 23488102400 cpu:           11738.9 elap:             515.5
 (Enter /sw/apps/gaussian-16.0/g16/l801.exe)
 DoSCS=F DFT=T ScalE2(SS,OS)=  1.000000  1.000000
 ExpMin= 3.36D-02 ExpMax= 4.95D+03 ExpMxC= 7.45D+02 IAcc=3 IRadAn=         5 AccDes= 0.00D+00
 HarFok:  IExCor=  205 AccDes= 0.00D+00 IRadAn=         5 IDoV=-2 UseB2=F ITyADJ=14
 ICtDFT= 12500011 ScaDFX=  1.000000  1.000000  1.000000  1.000000
 GSVD:  LWork=       -9588 too small for GESVD, short by       45590 words or       45590 for optimal perf.
 Largest valence mixing into a core orbital is  2.03D-04
 Largest core mixing into a valence orbital is  5.24D-05
 Range of M.O.s used for correlation:    95  1572
 NBasis=  1572 NAE=   312 NBE=   312 NFC=    94 NFV=     0
 NROrb=   1478 NOA=   218 NOB=   218 NVA=  1260 NVB=  1260
 Leave Link  801 at Sat Sep  4 18:59:18 2021, MaxMem= 23488102400 cpu:               7.8 elap:               0.4
 (Enter /sw/apps/gaussian-16.0/g16/l914.exe)
 RHF ground state
 Two-electron integrals replicated using symmetry.
 MDV= 23488102400 DFT=T DoStab=F Mixed=T DoRPA=T DoScal=F NonHer=T
 Making orbital integer symmetry assigments:
 Orbital symmetries:
       Occupied  (A) (A) (A) (A) (A) (A) (A) (A) (A) (A) (A) (A)
                 (A) (A) (A) (A) (A) (A) (A) (A) (A) (A) (A) (A)
                 (A) (A) (A) (A) (A) (A) (A) (A) (A) (A) (A) (A)
                 (A) (A) (A) (A) (A) (A) (A) (A) (A) (A) (A) (A)
                 (A) (A) (A) (A) (A) (A) (A) (A) (A) (A) (A) (A)
                 (A) (A) (A) (A) (A) (A) (A) (A) (A) (A) (A) (A)
                 (A) (A) (A) (A) (A) (A) (A) (A) (A) (A) (A) (A)
                 (A) (A) (A) (A) (A) (A) (A) (A) (A) (A) (A) (A)
                 (A) (A) (A) (A) (A) (A) (A) (A) (A) (A) (A) (A)
                 (A) (A) (A) (A) (A) (A) (A) (A) (A) (A) (A) (A)
                 (A) (A) (A) (A) (A) (A) (A) (A) (A) (A) (A) (A)
                 (A) (A) (A) (A) (A) (A) (A) (A) (A) (A) (A) (A)
                 (A) (A) (A) (A) (A) (A) (A) (A) (A) (A) (A) (A)
                 (A) (A) (A) (A) (A) (A) (A) (A) (A) (A) (A) (A)
                 (A) (A) (A) (A) (A) (A) (A) (A) (A) (A) (A) (A)
                 (A) (A) (A) (A) (A) (A) (A) (A) (A) (A) (A) (A)
                 (A) (A) (A) (A) (A) (A) (A) (A) (A) (A) (A) (A)
                 (A) (A) (A) (A) (A) (A) (A) (A) (A) (A) (A) (A)
                 (A) (A) (A) (A) (A) (A) (A) (A) (A) (A) (A) (A)
                 (A) (A) (A) (A) (A) (A) (A) (A) (A) (A) (A) (A)
                 (A) (A) (A) (A) (A) (A) (A) (A) (A) (A) (A) (A)
                 (A) (A) (A) (A) (A) (A) (A) (A) (A) (A) (A) (A)
                 (A) (A) (A) (A) (A) (A) (A) (A) (A) (A) (A) (A)
                 (A) (A) (A) (A) (A) (A) (A) (A) (A) (A) (A) (A)
                 (A) (A) (A) (A) (A) (A) (A) (A) (A) (A) (A) (A)
                 (A) (A) (A) (A) (A) (A) (A) (A) (A) (A) (A) (A)
       Virtual   (A) (A) (A) (A) (A) (A) (A) (A) (A) (A) (A) (A)
                 (A) (A) (A) (A) (A) (A) (A) (A) (A) (A) (A) (A)
                 (A) (A) (A) (A) (A) (A) (A) (A) (A) (A) (A) (A)
                 (A) (A) (A) (A) (A) (A) (A) (A) (A) (A) (A) (A)
                 (A) (A) (A) (A) (A) (A) (A) (A) (A) (A) (A) (A)
                 (A) (A) (A) (A) (A) (A) (A) (A) (A) (A) (A) (A)
                 (A) (A) (A) (A) (A) (A) (A) (A) (A) (A) (A) (A)
                 (A) (A) (A) (A) (A) (A) (A) (A) (A) (A) (A) (A)
                 (A) (A) (A) (A) (A) (A) (A) (A) (A) (A) (A) (A)
                 (A) (A) (A) (A) (A) (A) (A) (A) (A) (A) (A) (A)
                 (A) (A) (A) (A) (A) (A) (A) (A) (A) (A) (A) (A)
                 (A) (A) (A) (A) (A) (A) (A) (A) (A) (A) (A) (A)
                 (A) (A) (A) (A) (A) (A) (A) (A) (A) (A) (A) (A)
                 (A) (A) (A) (A) (A) (A) (A) (A) (A) (A) (A) (A)
                 (A) (A) (A) (A) (A) (A) (A) (A) (A) (A) (A) (A)
                 (A) (A) (A) (A) (A) (A) (A) (A) (A) (A) (A) (A)
                 (A) (A) (A) (A) (A) (A) (A) (A) (A) (A) (A) (A)
                 (A) (A) (A) (A) (A) (A) (A) (A) (A) (A) (A) (A)
                 (A) (A) (A) (A) (A) (A) (A) (A) (A) (A) (A) (A)
                 (A) (A) (A) (A) (A) (A) (A) (A) (A) (A) (A) (A)
                 (A) (A) (A) (A) (A) (A) (A) (A) (A) (A) (A) (A)
                 (A) (A) (A) (A) (A) (A) (A) (A) (A) (A) (A) (A)
                 (A) (A) (A) (A) (A) (A) (A) (A) (A) (A) (A) (A)
                 (A) (A) (A) (A) (A) (A) (A) (A) (A) (A) (A) (A)
                 (A) (A) (A) (A) (A) (A) (A) (A) (A) (A) (A) (A)
                 (A) (A) (A) (A) (A) (A) (A) (A) (A) (A) (A) (A)
                 (A) (A) (A) (A) (A) (A) (A) (A) (A) (A) (A) (A)
                 (A) (A) (A) (A) (A) (A) (A) (A) (A) (A) (A) (A)
                 (A) (A) (A) (A) (A) (A) (A) (A) (A) (A) (A) (A)
                 (A) (A) (A) (A) (A) (A) (A) (A) (A) (A) (A) (A)
                 (A) (A) (A) (A) (A) (A) (A) (A) (A) (A) (A) (A)
                 (A) (A) (A) (A) (A) (A) (A) (A) (A) (A) (A) (A)
                 (A) (A) (A) (A) (A) (A) (A) (A) (A) (A) (A) (A)
                 (A) (A) (A) (A) (A) (A) (A) (A) (A) (A) (A) (A)
                 (A) (A) (A) (A) (A) (A) (A) (A) (A) (A) (A) (A)
                 (A) (A) (A) (A) (A) (A) (A) (A) (A) (A) (A) (A)
                 (A) (A) (A) (A) (A) (A) (A) (A) (A) (A) (A) (A)
                 (A) (A) (A) (A) (A) (A) (A) (A) (A) (A) (A) (A)
                 (A) (A) (A) (A) (A) (A) (A) (A) (A) (A) (A) (A)
                 (A) (A) (A) (A) (A) (A) (A) (A) (A) (A) (A) (A)
                 (A) (A) (A) (A) (A) (A) (A) (A) (A) (A) (A) (A)
                 (A) (A) (A) (A) (A) (A) (A) (A) (A) (A) (A) (A)
                 (A) (A) (A) (A) (A) (A) (A) (A) (A) (A) (A) (A)
                 (A) (A) (A) (A) (A) (A) (A) (A) (A) (A) (A) (A)
                 (A) (A) (A) (A) (A) (A) (A) (A) (A) (A) (A) (A)
                 (A) (A) (A) (A) (A) (A) (A) (A) (A) (A) (A) (A)
                 (A) (A) (A) (A) (A) (A) (A) (A) (A) (A) (A) (A)
                 (A) (A) (A) (A) (A) (A) (A) (A) (A) (A) (A) (A)
                 (A) (A) (A) (A) (A) (A) (A) (A) (A) (A) (A) (A)
                 (A) (A) (A) (A) (A) (A) (A) (A) (A) (A) (A) (A)
                 (A) (A) (A) (A) (A) (A) (A) (A) (A) (A) (A) (A)
                 (A) (A) (A) (A) (A) (A) (A) (A) (A) (A) (A) (A)
                 (A) (A) (A) (A) (A) (A) (A) (A) (A) (A) (A) (A)
                 (A) (A) (A) (A) (A) (A) (A) (A) (A) (A) (A) (A)
                 (A) (A) (A) (A) (A) (A) (A) (A) (A) (A) (A) (A)
                 (A) (A) (A) (A) (A) (A) (A) (A) (A) (A) (A) (A)
                 (A) (A) (A) (A) (A) (A) (A) (A) (A) (A) (A) (A)
                 (A) (A) (A) (A) (A) (A) (A) (A) (A) (A) (A) (A)
                 (A) (A) (A) (A) (A) (A) (A) (A) (A) (A) (A) (A)
                 (A) (A) (A) (A) (A) (A) (A) (A) (A) (A) (A) (A)
                 (A) (A) (A) (A) (A) (A) (A) (A) (A) (A) (A) (A)
                 (A) (A) (A) (A) (A) (A) (A) (A) (A) (A) (A) (A)
                 (A) (A) (A) (A) (A) (A) (A) (A) (A) (A) (A) (A)
                 (A) (A) (A) (A) (A) (A) (A) (A) (A) (A) (A) (A)
                 (A) (A) (A) (A) (A) (A) (A) (A) (A) (A) (A) (A)
                 (A) (A) (A) (A) (A) (A) (A) (A) (A) (A) (A) (A)
                 (A) (A) (A) (A) (A) (A) (A) (A) (A) (A) (A) (A)
                 (A) (A) (A) (A) (A) (A) (A) (A) (A) (A) (A) (A)
                 (A) (A) (A) (A) (A) (A) (A) (A) (A) (A) (A) (A)
                 (A) (A) (A) (A) (A) (A) (A) (A) (A) (A) (A) (A)
                 (A) (A) (A) (A) (A) (A) (A) (A) (A) (A) (A) (A)
                 (A) (A) (A) (A) (A) (A) (A) (A) (A) (A) (A) (A)
                 (A) (A) (A) (A) (A) (A) (A) (A) (A) (A) (A) (A)
                 (A) (A) (A) (A) (A) (A) (A) (A) (A) (A) (A) (A)
                 (A) (A) (A) (A) (A) (A) (A) (A) (A) (A) (A) (A)
                 (A) (A) (A) (A) (A) (A) (A) (A) (A) (A) (A) (A)
                 (A) (A) (A) (A) (A) (A) (A) (A) (A) (A) (A) (A)
                 (A) (A) (A) (A) (A) (A) (A) (A) (A) (A) (A) (A)
                 (A) (A) (A) (A) (A) (A) (A) (A) (A) (A) (A) (A)
                 (A) (A) (A) (A) (A) (A) (A) (A) (A) (A) (A) (A)
                 (A) (A) (A) (A) (A) (A) (A) (A) (A) (A) (A) (A)
                 (A) (A) (A) (A) (A) (A) (A) (A) (A) (A) (A) (A)
                 (A) (A) (A) (A) (A) (A) (A) (A) (A) (A) (A) (A)
                 (A) (A) (A) (A) (A) (A) (A) (A) (A) (A) (A) (A)
                 (A) (A) (A) (A) (A) (A) (A) (A) (A) (A) (A) (A)
                 (A) (A) (A) (A) (A) (A) (A) (A) (A) (A) (A) (A)
                 (A) (A) (A) (A) (A) (A) (A) (A) (A) (A) (A) (A)
                 (A) (A) (A) (A) (A) (A) (A) (A) (A) (A) (A) (A)
                 (A) (A) (A) (A) (A) (A) (A) (A) (A) (A) (A) (A)
                 (A) (A) (A) (A) (A) (A) (A) (A) (A) (A) (A) (A)
                 (A) (A) (A) (A) (A) (A) (A) (A) (A) (A) (A) (A)
                 (A) (A) (A) (A) (A) (A) (A) (A) (A) (A) (A) (A)
                 (A) (A) (A) (A) (A) (A) (A) (A) (A) (A) (A) (A)
                 (A) (A) (A) (A) (A) (A) (A) (A) (A) (A) (A) (A)
                 (A) (A) (A) (A) (A) (A) (A) (A) (A) (A) (A) (A)
                 (A) (A) (A) (A) (A) (A) (A) (A) (A) (A) (A) (A)
                 (A) (A) (A) (A) (A) (A) (A) (A) (A) (A) (A) (A)
                 (A) (A) (A) (A) (A) (A) (A) (A) (A) (A) (A) (A)
                 (A) (A) (A) (A) (A) (A) (A) (A) (A) (A) (A) (A)
                 (A) (A) (A) (A) (A) (A) (A) (A) (A) (A) (A) (A)
                 (A) (A) (A) (A) (A) (A) (A) (A) (A) (A) (A) (A)
                 (A) (A) (A) (A) (A) (A) (A) (A) (A) (A) (A) (A)
                 (A) (A) (A) (A) (A) (A) (A) (A) (A) (A) (A) (A)
                 (A) (A) (A) (A) (A) (A) (A) (A) (A) (A) (A) (A)
                 (A) (A) (A) (A) (A) (A) (A) (A) (A) (A) (A) (A)
    20 initial guesses have been made.
 Convergence on wavefunction:    0.001000000000000
 Davidson Disk Diagonalization:  ConvIn= 1.00D-03 SkipCon=T Conv= 1.00D-03.
 Max sub-space:  2000 roots to seek:    20 dimension of matrix:       549360
 Iteration     1 Dimension    20 NMult     0 NNew     20
 CISAX will form    20 AO SS matrices at one time.
 NMat=    20 NSing=    20 JSym2X= 0.
 FoFJK:  IHMeth= 1 ICntrl=       0 DoSepK=T KAlg= 0 I1Cent=           0 FoldK=F
 IRaf=         1 NMat=      40 IRICut=       1 DoRegI=T DoRafI=F ISym2E= 0 IDoP0=3 IntGTp=3.
 FoFCou: FMM=T IPFlag=           0 FMFlag=      100000 FMFlg1=        2001
         NFxFlg=           0 DoJE=F BraDBF=F KetDBF=F FulRan=T
         wScrn=  0.000000 ICntrl=       500 IOpCl=  0 I1Cent=           0 NGrid=           0
         NMat0=   20 NMatS0=     20 NMatT0=    0 NMatD0=   20 NMtDS0=    0 NMtDT0=    0
 Symmetry not used in FoFCou.
 FMM levels:  10  Number of levels for PrismC:   9
 New state      1 was old state      8
 New state      2 was old state      5
 New state      3 was old state      1
 New state      5 was old state      2
 Excitation Energies [eV] at current iteration:
 Root      1 :     2.614338296108980
 Root      2 :     2.619357101679459
 Root      3 :     2.680450879370820
 Root      4 :     2.690163859428047
 Root      5 :     3.065948059251408
 Root      6 :     3.067170903005180
 Root      7 :     3.628594540838466
 Root      8 :     3.669182828101406
 Root      9 :     3.735980407940443
 Root     10 :     3.759273966531282
 Root     11 :     3.860979219544201
 Root     12 :     3.869274270626265
 Root     13 :     4.303263806544802
 Root     14 :     4.306627610299869
 Root     15 :     4.978080229375887
 Root     16 :     5.000161139560593
 Root     17 :     5.272016408023391
 Root     18 :     5.294436675159468
 Root     19 :     5.304245772640897
 Root     20 :     5.328670912449780
 Iteration     2 Dimension    30 NMult    20 NNew     10
 CISAX will form    10 AO SS matrices at one time.
 NMat=    10 NSing=    10 JSym2X= 0.
 New state      1 was old state      3
 Root      1 not converged, maximum delta is    0.187976509741934
 New state      2 was old state      4
 Root      2 not converged, maximum delta is    0.189351684927554
 New state      3 was old state      2
 Root      3 not converged, maximum delta is    0.071021562183517
 New state      4 was old state      1
 Root      4 not converged, maximum delta is    0.089541246795387
 Root      5 has converged.
 Excitation Energies [eV] at current iteration:
 Root      1 :     1.801382611876685   Change is   -0.879068267494134
 Root      2 :     1.807368937773976   Change is   -0.882794921654071
 Root      3 :     2.235858845677730   Change is   -0.383498256001729
 Root      4 :     2.239084184184760   Change is   -0.375254111924220
 Root      5 :     3.065941858074305   Change is   -0.000006201177103
 Iteration     3 Dimension    38 NMult    30 NNew      8
 CISAX will form     8 AO SS matrices at one time.
 NMat=     8 NSing=     8 JSym2X= 0.
 Root      1 not converged, maximum delta is    0.069915513895885
 Root      2 not converged, maximum delta is    0.071089503405020
 Root      3 not converged, maximum delta is    0.044064868904131
 Root      4 not converged, maximum delta is    0.042540157398260
 Root      5 has converged.
 Excitation Energies [eV] at current iteration:
 Root      1 :     1.694135982428979   Change is   -0.107246629447707
 Root      2 :     1.698980925271427   Change is   -0.108388012502549
 Root      3 :     2.194365945845292   Change is   -0.041492899832438
 Root      4 :     2.200227416427555   Change is   -0.038856767757205
 Root      5 :     3.065941858074251   Change is   -0.000000000000054
 Iteration     4 Dimension    46 NMult    38 NNew      8
 CISAX will form     8 AO SS matrices at one time.
 NMat=     8 NSing=     8 JSym2X= 0.
 Root      1 not converged, maximum delta is    0.013108094322494
 Root      2 not converged, maximum delta is    0.013370024798623
 Root      3 not converged, maximum delta is    0.009749339749723
 Root      4 not converged, maximum delta is    0.008891100192637
 Root      5 has converged.
 Excitation Energies [eV] at current iteration:
 Root      1 :     1.677424025593839   Change is   -0.016711956835140
 Root      2 :     1.682100016423300   Change is   -0.016880908848127
 Root      3 :     2.187058864714392   Change is   -0.007307081130900
 Root      4 :     2.193455084438738   Change is   -0.006772331988817
 Root      5 :     3.065941858074359   Change is    0.000000000000107
 Iteration     5 Dimension    54 NMult    46 NNew      8
 CISAX will form     8 AO SS matrices at one time.
 NMat=     8 NSing=     8 JSym2X= 0.
 Root      1 not converged, maximum delta is    0.002176938629032
 Root      2 not converged, maximum delta is    0.002180753861046
 Root      3 not converged, maximum delta is    0.002501939213578
 Root      4 not converged, maximum delta is    0.002384661832632
 Root      5 has converged.
 Excitation Energies [eV] at current iteration:
 Root      1 :     1.675645593686111   Change is   -0.001778431907728
 Root      2 :     1.680327339688196   Change is   -0.001772676735105
 Root      3 :     2.186212173523883   Change is   -0.000846691190509
 Root      4 :     2.192679571218116   Change is   -0.000775513220621
 Root      5 :     3.065941858074278   Change is   -0.000000000000080
 Iteration     6 Dimension    62 NMult    54 NNew      8
 CISAX will form     8 AO SS matrices at one time.
 NMat=     8 NSing=     8 JSym2X= 0.
 Root      1 not converged, maximum delta is    0.001365496010885
 Root      2 not converged, maximum delta is    0.001386954561657
 Root      3 not converged, maximum delta is    0.001071102378525
 Root      4 not converged, maximum delta is    0.001013299064837
 Root      5 has converged.
 Excitation Energies [eV] at current iteration:
 Root      1 :     1.675391756790592   Change is   -0.000253836895520
 Root      2 :     1.680072228546724   Change is   -0.000255111141472
 Root      3 :     2.186083835765608   Change is   -0.000128337758275
 Root      4 :     2.192561875246434   Change is   -0.000117695971683
 Root      5 :     3.065941858074198   Change is   -0.000000000000080
 Iteration     7 Dimension    70 NMult    62 NNew      8
 CISAX will form     8 AO SS matrices at one time.
 NMat=     8 NSing=     8 JSym2X= 0.
 Root      1 has converged.
 Root      2 has converged.
 Root      3 has converged.
 Root      4 has converged.
 Root      5 has converged.
 Excitation Energies [eV] at current iteration:
 Root      1 :     1.675367532039915   Change is   -0.000024224750677
 Root      2 :     1.680048443056819   Change is   -0.000023785489905
[...]
 Alpha virt. eigenvalues --    1.84481   1.84487   1.84742   1.84848   1.85080
 Alpha virt. eigenvalues --    1.85140   1.85301   1.85311   1.85442   1.85521
 Alpha virt. eigenvalues --    1.85855   1.85905   1.86337   1.86398   1.86593
 Alpha virt. eigenvalues --    1.86607   1.86779   1.86820   1.86998   1.87076
 Alpha virt. eigenvalues --    1.87437   1.87482   1.87717   1.87727   1.87905
 Alpha virt. eigenvalues --    1.87968   1.88077   1.88133   1.88528   1.88573
 Alpha virt. eigenvalues --    1.88859   1.88893   1.89027   1.89164   1.89614
 Alpha virt. eigenvalues --    1.89663   1.89784   1.89831   1.90144   1.90156
 Alpha virt. eigenvalues --    1.90788   1.90849   1.91380   1.91386   1.91477
 Alpha virt. eigenvalues --    1.91546   1.92137   1.92191   1.92615   1.92661
 Alpha virt. eigenvalues --    1.93019   1.93104   1.93375   1.93455   1.94262
 Alpha virt. eigenvalues --    1.94320   1.94726   1.94768   1.95513   1.95545
 Alpha virt. eigenvalues --    1.95763   1.95767   1.96001   1.96031   1.96127
 Alpha virt. eigenvalues --    1.96190   1.96436   1.96632   1.96889   1.96936
 Alpha virt. eigenvalues --    1.97487   1.97495   1.97755   1.97873   1.98120
 Alpha virt. eigenvalues --    1.98206   1.98303   1.98710   1.99024   1.99172
 Alpha virt. eigenvalues --    1.99857   1.99885   2.00678   2.00697   2.01032
 Alpha virt. eigenvalues --    2.01049   2.01458   2.01515   2.01561   2.01710
 Alpha virt. eigenvalues --    2.01755   2.01777   2.02663   2.02822   2.03093
 Alpha virt. eigenvalues --    2.03272   2.03331   2.03440   2.03473   2.03520
 Alpha virt. eigenvalues --    2.03978   2.04072   2.04928   2.04995   2.05551
 Alpha virt. eigenvalues --    2.05581   2.06116   2.06238   2.06938   2.06986
 Alpha virt. eigenvalues --    2.07220   2.07299   2.08504   2.08623   2.08956
 Alpha virt. eigenvalues --    2.09017   2.09563   2.09625   2.10816   2.10984
 Alpha virt. eigenvalues --    2.11219   2.11358   2.11484   2.11573   2.11763
 Alpha virt. eigenvalues --    2.11816   2.12416   2.12501   2.12751   2.12820
 Alpha virt. eigenvalues --    2.12841   2.12871   2.13582   2.13801   2.14174
 Alpha virt. eigenvalues --    2.14202   2.15356   2.15372   2.15961   2.16032
 Alpha virt. eigenvalues --    2.16542   2.16559   2.16790   2.17122   2.17452
 Alpha virt. eigenvalues --    2.17598   2.17740   2.17883   2.17953   2.18106
 Alpha virt. eigenvalues --    2.18359   2.18622   2.18902   2.19185   2.19676
 Alpha virt. eigenvalues --    2.19769   2.20073   2.20192   2.20247   2.20388
 Alpha virt. eigenvalues --    2.21121   2.21188   2.21705   2.21713   2.21779
 Alpha virt. eigenvalues --    2.21824   2.22650   2.22716   2.23290   2.23349
 Alpha virt. eigenvalues --    2.24367   2.24430   2.24953   2.24996   2.26333
 Alpha virt. eigenvalues --    2.26389   2.26815   2.26957   2.27136   2.27151
 Alpha virt. eigenvalues --    2.28172   2.28263   2.29303   2.29385   2.29769
 Alpha virt. eigenvalues --    2.29827   2.30488   2.30570   2.30775   2.31117
 Alpha virt. eigenvalues --    2.31148   2.31214   2.32156   2.32186   2.33168
 Alpha virt. eigenvalues --    2.33182   2.33430   2.33496   2.34087   2.34174
 Alpha virt. eigenvalues --    2.35247   2.35403   2.35830   2.35856   2.36279
 Alpha virt. eigenvalues --    2.36388   2.36394   2.36658   2.37623   2.37694
 Alpha virt. eigenvalues --    2.38293   2.38327   2.38729   2.38889   2.39613
 Alpha virt. eigenvalues --    2.39644   2.40212   2.40216   2.40518   2.40774
 Alpha virt. eigenvalues --    2.41158   2.41301   2.41638   2.41721   2.42072
 Alpha virt. eigenvalues --    2.42074   2.42766   2.42978   2.43017   2.43564
 Alpha virt. eigenvalues --    2.43920   2.44202   2.44749   2.44764   2.44932
 Alpha virt. eigenvalues --    2.44937   2.45514   2.45580   2.46228   2.46335
 Alpha virt. eigenvalues --    2.46438   2.46511   2.46742   2.46832   2.47287
 Alpha virt. eigenvalues --    2.47319   2.47747   2.47827   2.49334   2.49344
 Alpha virt. eigenvalues --    2.49833   2.50102   2.50396   2.50583   2.51152
 Alpha virt. eigenvalues --    2.51208   2.51551   2.51918   2.52337   2.52470
 Alpha virt. eigenvalues --    2.52841   2.53103   2.53908   2.53951   2.54183
 Alpha virt. eigenvalues --    2.54221   2.54745   2.54821   2.55552   2.55604
 Alpha virt. eigenvalues --    2.57897   2.58015   2.58676   2.58840   2.60237
 Alpha virt. eigenvalues --    2.60237   2.60643   2.60859   2.61743   2.61756
 Alpha virt. eigenvalues --    2.62366   2.62564   2.62987   2.63060   2.63967
 Alpha virt. eigenvalues --    2.64153   2.64277   2.64359   2.65032   2.65111
 Alpha virt. eigenvalues --    2.65795   2.65817   2.66753   2.66810   2.66941
 Alpha virt. eigenvalues --    2.66989   2.67913   2.67940   2.68751   2.68888
 Alpha virt. eigenvalues --    2.68965   2.69054   2.69422   2.69525   2.70029
 Alpha virt. eigenvalues --    2.70068   2.70999   2.71011   2.71824   2.72084
 Alpha virt. eigenvalues --    2.72424   2.72666   2.72684   2.72856   2.73215
 Alpha virt. eigenvalues --    2.73308   2.73400   2.73561   2.74436   2.74541
 Alpha virt. eigenvalues --    2.74983   2.75005   2.76448   2.76622   2.76993
 Alpha virt. eigenvalues --    2.77263   2.77487   2.77532   2.78221   2.78222
 Alpha virt. eigenvalues --    2.78616   2.78760   2.79083   2.79165   2.80190
 Alpha virt. eigenvalues --    2.80375   2.80616   2.80618   2.81076   2.81146
 Alpha virt. eigenvalues --    2.81915   2.81964   2.82259   2.82372   2.83771
 Alpha virt. eigenvalues --    2.83782   2.83798   2.83830   2.84451   2.84576
 Alpha virt. eigenvalues --    2.84809   2.84914   2.85616   2.85698   2.86583
 Alpha virt. eigenvalues --    2.87026   2.87099   2.87635   2.88160   2.88186
 Alpha virt. eigenvalues --    2.88539   2.88539   2.88794   2.88965   2.90527
 Alpha virt. eigenvalues --    2.90582   2.90990   2.91219   2.93184   2.93243
 Alpha virt. eigenvalues --    2.93692   2.94230   2.94494   2.94589   2.95395
 Alpha virt. eigenvalues --    2.95396   2.95764   2.96230   2.96295   2.96471
 Alpha virt. eigenvalues --    2.96795   2.97205   2.97845   2.97952   2.98238
 Alpha virt. eigenvalues --    2.98280   2.98396   2.98494   2.98631   2.98700
 Alpha virt. eigenvalues --    2.98843   2.98914   2.99617   2.99720   2.99939
 Alpha virt. eigenvalues --    3.00060   3.00250   3.00257   3.00491   3.00913
 Alpha virt. eigenvalues --    3.01822   3.02020   3.02037   3.02063   3.02744
 Alpha virt. eigenvalues --    3.02762   3.03007   3.03236   3.03358   3.03629
 Alpha virt. eigenvalues --    3.03973   3.04201   3.04351   3.04481   3.04578
 Alpha virt. eigenvalues --    3.04647   3.05271   3.05328   3.06083   3.06144
 Alpha virt. eigenvalues --    3.06833   3.06856   3.07841   3.08177   3.09276
 Alpha virt. eigenvalues --    3.09431   3.09723   3.10353   3.10472   3.10658
 Alpha virt. eigenvalues --    3.11362   3.11398   3.11817   3.11973   3.12209
 Alpha virt. eigenvalues --    3.12224   3.13313   3.13568   3.13607   3.13672
 Alpha virt. eigenvalues --    3.14121   3.14396   3.15906   3.15954   3.17295
 Alpha virt. eigenvalues --    3.17438   3.17797   3.18111   3.18950   3.19160
 Alpha virt. eigenvalues --    3.22335   3.22517   3.23979   3.24357   3.24706
 Alpha virt. eigenvalues --    3.25111   3.26537   3.26574   3.27312   3.27653
 Alpha virt. eigenvalues --    3.29131   3.29142   3.31296   3.31557   3.33102
 Alpha virt. eigenvalues --    3.33451   3.40182   3.40660   3.42735   3.42850
 Alpha virt. eigenvalues --    3.48615   3.48692   3.50055   3.50199   3.50754
 Alpha virt. eigenvalues --    3.51508   3.56584   3.56922   3.59134   3.59257
 Alpha virt. eigenvalues --    3.62433   3.62871   3.66032   3.66220   3.67216
 Alpha virt. eigenvalues --    3.67464   3.73303   3.73941   3.76088   3.76599
          Condensed to atoms (all electrons):
 Mulliken charges:
               1
     1  Mg   0.838699
     2  C   -0.002970
     3  C   -0.094131
     4  C   -0.045836
     5  C   -0.063944
     6  N   -0.256783
     7  C   -0.052456
     8  C   -0.014022
     9  C   -0.087005
    10  C    0.046323
    11  C    0.104815
    12  C    0.053477
    13  C   -0.071788
    14  H    0.036081
    15  N   -0.433128
    16  C    0.168418
    17  C   -0.177157
    18  C   -0.003997
    19  C    0.148692
    20  C    0.110178
    21  C    0.012282
    22  O   -0.249612
    23  C    0.062479
    24  N   -0.341106
    25  C    0.041231
    26  C   -0.028196
    27  C   -0.023960
    28  C    0.074845
    29  C    0.076165
    30  C    0.035110
    31  C   -0.004505
    32  N   -0.310478
    33  C    0.080399
    34  C   -0.169697
    35  C    0.008350
    36  C    0.082991
    37  C    0.127308
    38  C    0.046125
    39  O   -0.188434
    40  C   -0.005343
    41  C    0.212888
    42  O   -0.257116
    43  O   -0.304797
    44  C    0.157700
    45  H   -0.017613
    46  H   -0.016827
    47  H   -0.041469
    48  H    0.000937
    49  H   -0.004051
    50  H    0.025476
    51  H    0.016458
    52  H    0.016648
    53  H    0.011198
    54  H    0.044117
    55  H    0.017877
    56  H    0.017938
    57  H    0.005862
    58  H    0.026828
    59  H    0.039537
    60  H    0.037344
    61  H    0.035658
    62  H    0.031490
    63  H    0.016565
    64  H    0.009471
    65  H    0.023224
    66  H    0.012541
    67  H    0.004763
    68  H    0.006384
    69  H    0.004749
    70  H    0.008781
    71  H    0.018170
    72  H    0.028970
    73  H    0.047583
    74  H    0.009132
    75  H    0.046014
    76  H    0.035150
    77  H    0.042945
    78  H    0.046382
    79  H    0.053675
    80  Mg   0.837803
    81  C   -0.016813
    82  C   -0.087786
    83  C   -0.045494
    84  C   -0.064866
    85  N   -0.254564
    86  C   -0.049841
    87  C   -0.015080
    88  C   -0.090503
    89  C    0.045758
    90  C    0.114363
    91  C    0.062518
    92  C   -0.077914
    93  H    0.034910
    94  N   -0.423493
    95  C    0.162934
    96  C   -0.174613
    97  C   -0.007822
    98  C    0.152113
    99  C    0.099359
   100  C    0.015564
   101  O   -0.253194
   102  C    0.061191
   103  N   -0.350043
   104  C    0.037505
   105  C   -0.019822
   106  C   -0.034826
   107  C    0.088928
   108  C    0.073646
   109  C    0.034722
   110  C   -0.007677
   111  N   -0.324106
   112  C    0.078454
   113  C   -0.163115
   114  C    0.002263
   115  C    0.096205
   116  C    0.131485
   117  C    0.042394
   118  O   -0.187816
   119  C    0.000907
   120  C    0.211272
   121  O   -0.251043
   122  O   -0.305609
   123  C    0.152024
   124  H   -0.019651
   125  H   -0.015584
   126  H   -0.040441
   127  H   -0.000598
   128  H   -0.004327
   129  H    0.022517
   130  H    0.014430
   131  H    0.016318
   132  H    0.013902
   133  H    0.037674
   134  H    0.020830
   135  H    0.019587
   136  H    0.008774
   137  H    0.026135
   138  H    0.039782
   139  H    0.038249
   140  H    0.036377
   141  H    0.033897
   142  H    0.014386
   143  H    0.012449
   144  H    0.025127
   145  H    0.011654
   146  H    0.005702
   147  H    0.006261
   148  H    0.003665
   149  H    0.010924
   150  H    0.017931
   151  H    0.030106
   152  H    0.046017
   153  H    0.008509
   154  H    0.047006
   155  H    0.035093
   156  H    0.043956
   157  H    0.049498
   158  H    0.053568
 Sum of Mulliken charges =  -0.00000
 Mulliken charges with hydrogens summed into heavy atoms:
               1
     1  Mg   0.838699
     2  C   -0.002970
     3  C   -0.111744
     4  C   -0.062663
     5  C   -0.105413
     6  N   -0.256783
     7  C   -0.052456
     8  C   -0.013085
     9  C   -0.091056
    10  C    0.046323
    11  C    0.163398
    12  C    0.108791
    13  C    0.000108
    15  N   -0.433128
    16  C    0.168418
    17  C   -0.177157
    18  C   -0.003997
    19  C    0.148692
    20  C    0.182406
    21  C    0.012282
    22  O   -0.249612
    23  C    0.166971
    24  N   -0.341106
    25  C    0.041231
    26  C   -0.011631
    27  C   -0.014489
    28  C    0.074845
    29  C    0.116693
    30  C    0.046243
    31  C    0.051415
    32  N   -0.310478
    33  C    0.080399
    34  C   -0.169697
    35  C    0.008350
    36  C    0.082991
    37  C    0.230037
    38  C    0.046125
    39  O   -0.188434
    40  C    0.029807
    41  C    0.212888
    42  O   -0.257116
    43  O   -0.304797
    44  C    0.300701
    80  Mg   0.837803
    81  C   -0.016813
    82  C   -0.107438
    83  C   -0.061077
    84  C   -0.105307
    85  N   -0.254564
    86  C   -0.049841
    87  C   -0.015679
    88  C   -0.094830
    89  C    0.045758
    90  C    0.167628
    91  C    0.114094
    92  C   -0.002587
    94  N   -0.423493
    95  C    0.162934
    96  C   -0.174613
    97  C   -0.007822
    98  C    0.152113
    99  C    0.174050
   100  C    0.015564
   101  O   -0.253194
   102  C    0.169714
   103  N   -0.350043
   104  C    0.037505
   105  C   -0.005436
   106  C   -0.022377
   107  C    0.088928
   108  C    0.116129
   109  C    0.044648
   110  C    0.051284
   111  N   -0.324106
   112  C    0.078454
   113  C   -0.163115
   114  C    0.002263
   115  C    0.096205
   116  C    0.233017
   117  C    0.042394
   118  O   -0.187816
   119  C    0.036000
   120  C    0.211272
   121  O   -0.251043
   122  O   -0.305609
   123  C    0.299046
 Electronic spatial extent (au):  <R**2>=         614120.8203
 Charge=             -0.0000 electrons
 Dipole moment (field-independent basis, Debye):
    X=             -4.1081    Y=             -2.3799    Z=             -7.4243  Tot=              8.8125
 Quadrupole moment (field-independent basis, Debye-Ang):
   XX=           -516.2797   YY=           -545.1912   ZZ=           -453.7507
   XY=             27.0392   XZ=             -7.7466   YZ=            -42.6115
 Traceless Quadrupole moment (field-independent basis, Debye-Ang):
   XX=            -11.2058   YY=            -40.1173   ZZ=             51.3232
   XY=             27.0392   XZ=             -7.7466   YZ=            -42.6115
 Octapole moment (field-independent basis, Debye-Ang**2):
  XXX=          -3114.7304  YYY=            335.5870  ZZZ=           -111.9126  XYY=            383.5689
  XXY=           -595.8652  XXZ=          -1946.2086  XZZ=           -381.9397  YZZ=           -150.3726
  YYZ=           -172.9116  XYZ=           -413.0274
 Hexadecapole moment (field-independent basis, Debye-Ang**3):
 XXXX=        -786517.3546 YYYY=         -41595.5535 ZZZZ=         -24879.3018 XXXY=           3759.6975
 XXXZ=          -1737.8508 YYYX=           3208.5846 YYYZ=          -1142.7976 ZZZX=          -2318.6463
 ZZZY=           -106.3946 XXYY=        -144570.6423 XXZZ=        -119539.5832 YYZZ=         -10959.6261
 XXYZ=         -10519.2758 YYXZ=           3085.7159 ZZXY=          -1205.6356
 N-N= 1.230678735292D+04 E-N=-3.409440309751D+04  KE= 4.028802029318D+03
 Leave Link  601 at Sat Sep  4 19:17:15 2021, MaxMem= 23488102400 cpu:              16.8 elap:               0.8
 (Enter /sw/apps/gaussian-16.0/g16/l9999.exe)
 1\1\GINC-BP1-COMPUTE00107\SP\RCAM-B3LYP TD-FC\def2SVP\C68H72Mg2N8O8\OF
 15641\04-Sep-2021\0\\#p cam-b3lyp/Def2SVP td=(nstates=5)\\TDDFT excite
 d states in gaussian\\0,1\Mg,0,0.,0.,0.\C,0,-0.217,-2.218,2.801\C,0,-1
 .255,2.442,2.026\C,0,-0.245,1.85,-2.564\C,0,0.146,-2.824,-2.037\N,0,-0
 .617,-0.009,2.126\C,0,-0.594,-0.908,3.105\C,0,-0.936,-0.309,4.502\C,0,
 -1.773,0.964,4.032\C,0,-1.155,1.168,2.66\C,0,-3.263,0.685,3.863\C,0,0.
 345,0.11,5.299\C,0,0.124,0.397,6.787\H,0,1.168,0.033,7.733\N,0,-0.185,
 1.961,-0.152\C,0,-0.703,2.8,0.777\C,0,-0.62,4.156,0.193\C,0,-0.187,4.0
 15,-1.225\C,0,-0.214,2.583,-1.38\C,0,-0.887,5.406,0.974\C,0,0.181,5.01
 3,-2.277\O,0,0.303,4.69,-3.508\C,0,0.31,6.414,-1.837\N,0,-0.265,-0.413
 ,-2.029\C,0,-0.279,0.569,-2.937\C,0,-0.196,0.024,-4.332\C,0,0.124,-1.5
 33,-4.18\C,0,0.086,-1.632,-2.635\C,0,-1.451,0.205,-5.197\C,0,1.373,-2.
 07,-4.923\C,0,2.626,-1.49,-4.306\N,0,0.15,-2.144,0.303\C,0,0.173,-3.13
 6,-0.688\C,0,0.173,-4.438,0.004\C,0,0.133,-4.111,1.358\C,0,0.083,-2.69
 5,1.502\C,0,0.149,-5.715,-0.623\C,0,0.096,-4.629,2.716\O,0,0.208,-5.74
 7,3.221\C,0,-0.255,-3.428,3.701\C,0,0.717,-3.482,4.848\O,0,1.931,-3.25
 5,4.669\O,0,0.038,-3.556,6.003\C,0,0.943,-3.583,7.183\H,0,-1.859,3.22,
 2.497\H,0,-0.218,2.453,-3.474\H,0,0.276,-3.747,-2.605\H,0,-1.554,-0.94
 9,5.132\H,0,-1.585,1.831,4.665\H,0,-3.484,-0.377,3.969\H,0,-3.511,1.02
 7,2.858\H,0,-3.852,1.301,4.543\H,0,0.669,1.096,4.966\H,0,1.13,-0.639,5
 .189\H,0,-0.844,0.026,7.125\H,0,0.062,1.477,6.921\H,0,-1.344,5.186,1.9
 38\H,0,-1.651,5.963,0.432\H,0,0.007,6.02,1.084\H,0,-0.635,6.744,-1.405
 \H,0,0.665,6.97,-2.704\H,0,1.048,6.466,-1.036\H,0,0.608,0.501,-4.891\H
 ,0,-0.692,-2.156,-4.547\H,0,-1.267,0.74,-6.129\H,0,-2.204,0.714,-4.596
 \H,0,-1.967,-0.72,-5.453\H,0,1.356,-1.759,-5.967\H,0,1.452,-3.157,-4.9
 02\H,0,2.714,-0.522,-4.798\H,0,3.487,-2.121,-4.529\H,0,2.495,-1.303,-3
 .24\H,0,0.867,-6.333,-0.084\H,0,0.404,-5.642,-1.68\H,0,-0.891,-5.999,-
 0.463\H,0,-1.283,-3.581,4.028\H,0,0.698,-4.478,7.755\H,0,0.833,-2.619,
 7.68\H,0,2.,-3.754,6.976\Mg,0,31.53912,2.84006,2.40356\C,0,31.52394,-0
 .46898,3.79247\C,0,30.32947,3.94063,5.3969\C,0,31.11484,5.68864,1.0720
 2\C,0,31.64253,1.36492,-0.75223\N,0,31.0336,1.77704,4.27618\C,0,31.127
 22,0.52827,4.70764\C,0,30.85326,0.34983,6.22509\C,0,29.95248,1.65796,6
 .46228\C,0,30.49076,2.53352,5.33254\C,0,28.47132,1.42101,6.21865\C,0,3
 2.16861,0.39552,7.07937\C,0,32.0126,-0.07817,8.5261\H,0,33.11982,-0.80
 191,9.14476\N,0,31.29883,4.62469,3.23777\C,0,30.81616,4.88854,4.47012\
 C,0,30.82013,6.35404,4.59849\C,0,31.18953,6.93931,3.28102\C,0,31.19524
 ,5.74814,2.45569\C,0,30.57152,7.05743,5.90112\C,0,31.47608,8.34106,2.8
 3473\O,0,31.54332,8.65193,1.59309\C,0,31.58302,9.35682,3.89222\N,0,31.
 18524,3.44257,0.44547\C,0,31.09216,4.74616,0.1294\C,0,31.11284,4.94743
 ,-1.36709\C,0,31.48413,3.5209,-1.98735\C,0,31.52821,2.68446,-0.68972\C
 ,0,29.80967,5.44888,-1.98894\C,0,32.70663,3.46605,-2.94398\C,0,33.9773
 4,3.74533,-2.17412\N,0,31.7628,0.83497,1.63047\C,0,31.75286,0.43713,0.
 27559\C,0,31.82265,-1.03838,0.25458\C,0,31.8453,-1.40059,1.60986\C,0,3
 1.77294,-0.23428,2.41855\C,0,31.80839,-1.85534,-0.91096\C,0,31.90326,-
 2.50495,2.54029\O,0,32.0628,-3.72051,2.43688\C,0,31.57022,-1.95809,3.9
 9508\C,0,32.60154,-2.50435,4.94401\O,0,33.79442,-2.16739,4.8434\O,0,31
 .97963,-3.15891,5.94158\C,0,32.96039,-3.70955,6.91458\H,0,29.73804,4.3
 583,6.21215\H,0,31.07899,6.65297,0.55991\H,0,31.77773,0.83481,-1.69742
 \H,0,30.292,-0.54002,6.4838\H,0,30.16061,2.11105,7.42807\H,0,28.28217,
 0.43934,5.81035\H,0,28.16181,2.18737,5.52012\H,0,27.90453,1.60291,7.13
 625\H,0,32.44622,1.44306,7.25356\H,0,32.95322,-0.15753,6.60068\H,0,31.
 0678,-0.61195,8.68544\H,0,31.93678,0.79966,9.1724\H,0,30.1648,6.37357,
 6.65632\H,0,29.76616,7.77902,5.72626\H,0,31.45144,7.59147,6.26608\H,0,
 30.65633,9.38549,4.46047\H,0,31.87887,10.27702,3.3847\H,0,32.37107,9.0
 5335,4.59043\H,0,31.87489,5.66299,-1.65056\H,0,30.66248,3.11461,-2.595
 35\H,0,29.93131,6.38997,-2.55782\H,0,29.08046,5.57332,-1.19944\H,0,29.
 31324,4.74317,-2.65281\H,0,32.62714,4.24605,-3.70519\H,0,32.80683,2.51
 862,-3.46295\H,0,34.00854,4.83839,-2.13754\H,0,34.8405,3.34324,-2.7007
 4\H,0,33.90012,3.38305,-1.1424\H,0,32.56201,-2.61791,-0.76589\H,0,32.0
 0054,-1.27104,-1.80842\H,0,30.78104,-2.2276,-0.87565\H,0,30.56331,-2.2
 9228,4.24811\H,0,32.76551,-4.7837,6.99147\H,0,32.83787,-3.10823,7.8349
 9\H,0,34.00599,-3.70416,6.62976\\Version=ES64L-G16RevA.03\State=1-A\HF
 =-4069.811771\RMSD=4.490e-09\PG=C01 [X(C68H72Mg2N8O8)]\\@


 In the beginning the Universe was created.
 This has made a lot of people very angry
 and been widely regarded as a bad move.
                               -D.Adams
 Job cpu time:       0 days 10 hours 26 minutes 55.6 seconds.
 Elapsed time:       0 days  0 hours 26 minutes 45.6 seconds.
 File lengths (MBytes):  RWF=  13225 Int=      0 D2E=      0 Chk=    574 Scr=      1
 Normal termination of Gaussian 16 at Sat Sep  4 19:17:16 2021.
