 Entering Gaussian System, Link 0=g16
 Initial command:
 /sw/apps/gaussian-16.0/g16/l1.exe "/tmp/Gau-43483.inp" -scrdir="/tmp/"
 Entering Link 1 = /sw/apps/gaussian-16.0/g16/l1.exe PID=     43484.
  
 Copyright (c) 1988,1990,1992,1993,1995,1998,2003,2009,2016,
            Gaussian, Inc.  All Rights Reserved.
  
 This is part of the Gaussian(R) 16 program.  It is based on
 the Gaussian(R) 09 system (copyright 2009, Gaussian, Inc.),
 the Gaussian(R) 03 system (copyright 2003, Gaussian, Inc.),
 the Gaussian(R) 98 system (copyright 1998, Gaussian, Inc.),
 the Gaussian(R) 94 system (copyright 1995, Gaussian, Inc.),
 the Gaussian 92(TM) system (copyright 1992, Gaussian, Inc.),
 the Gaussian 90(TM) system (copyright 1990, Gaussian, Inc.),
 the Gaussian 88(TM) system (copyright 1988, Gaussian, Inc.),
 the Gaussian 86(TM) system (copyright 1986, Carnegie Mellon
 University), and the Gaussian 82(TM) system (copyright 1983,
 Carnegie Mellon University). Gaussian is a federally registered
 trademark of Gaussian, Inc.
  
 This software contains proprietary and confidential information,
 including trade secrets, belonging to Gaussian, Inc.
  
 This software is provided under written license and may be
 used, copied, transmitted, or stored only in accord with that
 written license.
  
 The following legend is applicable only to US Government
 contracts under FAR:
  
                    RESTRICTED RIGHTS LEGEND
  
 Use, reproduction and disclosure by the US Government is
 subject to restrictions as set forth in subparagraphs (a)
 and (c) of the Commercial Computer Software - Restricted
 Rights clause in FAR 52.227-19.
  
 Gaussian, Inc.
 340 Quinnipiac St., Bldg. 40, Wallingford CT 06492
  
  
 ---------------------------------------------------------------
 Warning -- This program may not be used in any manner that
 competes with the business of Gaussian, Inc. or will provide
 assistance to any competitor of Gaussian, Inc.  The licensee
 of this program is prohibited from giving any competitor of
 Gaussian, Inc. access to this program.  By using this program,
 the user acknowledges that Gaussian, Inc. is engaged in the
 business of creating and licensing software in the field of
 computational chemistry and represents and warrants to the
 licensee that it is not a competitor of Gaussian, Inc. and that
 it will not use this program in any manner prohibited above.
 ---------------------------------------------------------------
  

 Cite this work as:
 Gaussian 16, Revision A.03,
 M. J. Frisch, G. W. Trucks, H. B. Schlegel, G. E. Scuseria, 
 M. A. Robb, J. R. Cheeseman, G. Scalmani, V. Barone, 
 G. A. Petersson, H. Nakatsuji, X. Li, M. Caricato, A. V. Marenich, 
 J. Bloino, B. G. Janesko, R. Gomperts, B. Mennucci, H. P. Hratchian, 
 J. V. Ortiz, A. F. Izmaylov, J. L. Sonnenberg, D. Williams-Young, 
 F. Ding, F. Lipparini, F. Egidi, J. Goings, B. Peng, A. Petrone, 
 T. Henderson, D. Ranasinghe, V. G. Zakrzewski, J. Gao, N. Rega, 
 G. Zheng, W. Liang, M. Hada, M. Ehara, K. Toyota, R. Fukuda, 
 J. Hasegawa, M. Ishida, T. Nakajima, Y. Honda, O. Kitao, H. Nakai, 
 T. Vreven, K. Throssell, J. A. Montgomery, Jr., J. E. Peralta, 
 F. Ogliaro, M. J. Bearpark, J. J. Heyd, E. N. Brothers, K. N. Kudin, 
 V. N. Staroverov, T. A. Keith, R. Kobayashi, J. Normand, 
 K. Raghavachari, A. P. Rendell, J. C. Burant, S. S. Iyengar, 
 J. Tomasi, M. Cossi, J. M. Millam, M. Klene, C. Adamo, R. Cammi, 
 J. W. Ochterski, R. L. Martin, K. Morokuma, O. Farkas, 
 J. B. Foresman, and D. J. Fox, Gaussian, Inc., Wallingford CT, 2016.
 
 ******************************************
 Gaussian 16:  ES64L-G16RevA.03 25-Dec-2016
                11-Sep-2021 
 ******************************************
 %nproc=24
 Will use up to   24 processors via shared memory.
 %mem=175gb
 -----------------------------------
 #p cam-b3lyp/Def2SVP td=(nstates=5)
 -----------------------------------
 1/38=1,172=1/1;
 2/12=2,17=6,18=5,40=1/2;
 3/5=43,7=101,11=9,25=1,30=1,74=-40/1,2,3,8;
 4//1;
 5/5=2,38=5/2;
 8/6=1,10=1,108=5/1;
 9/41=5,42=1,70=2/14;
 6/7=2,8=2,9=2,10=2/1;
 99/5=1,9=1/99;
 Leave Link    1 at Sat Sep 11 08:35:42 2021, MaxMem= 23488102400 cpu:               0.9 elap:               0.0
 (Enter /sw/apps/gaussian-16.0/g16/l101.exe)
 --------------------------------
 TDDFT excited states in gaussian
 --------------------------------
 Symbolic Z-matrix:
 Charge =  0 Multiplicity = 1
 Mg                    0.        0.        0. 
 C                    -0.217    -2.218     2.801 
 C                    -1.255     2.442     2.026 
 C                    -0.245     1.85     -2.564 
 C                     0.146    -2.824    -2.037 
 N                    -0.617    -0.009     2.126 
 C                    -0.594    -0.908     3.105 
 C                    -0.936    -0.309     4.502 
 C                    -1.773     0.964     4.032 
 C                    -1.155     1.168     2.66 
 C                    -3.263     0.685     3.863 
 C                     0.345     0.11      5.299 
 C                     0.124     0.397     6.787 
 H                     1.168     0.033     7.733 
 N                    -0.185     1.961    -0.152 
 C                    -0.703     2.8       0.777 
 C                    -0.62      4.156     0.193 
 C                    -0.187     4.015    -1.225 
 C                    -0.214     2.583    -1.38 
 C                    -0.887     5.406     0.974 
 C                     0.181     5.013    -2.277 
 O                     0.303     4.69     -3.508 
 C                     0.31      6.414    -1.837 
 N                    -0.265    -0.413    -2.029 
 C                    -0.279     0.569    -2.937 
 C                    -0.196     0.024    -4.332 
 C                     0.124    -1.533    -4.18 
 C                     0.086    -1.632    -2.635 
 C                    -1.451     0.205    -5.197 
 C                     1.373    -2.07     -4.923 
 C                     2.626    -1.49     -4.306 
 N                     0.15     -2.144     0.303 
 C                     0.173    -3.136    -0.688 
 C                     0.173    -4.438     0.004 
 C                     0.133    -4.111     1.358 
 C                     0.083    -2.695     1.502 
 C                     0.149    -5.715    -0.623 
 C                     0.096    -4.629     2.716 
 O                     0.208    -5.747     3.221 
 C                    -0.255    -3.428     3.701 
 C                     0.717    -3.482     4.848 
 O                     1.931    -3.255     4.669 
 O                     0.038    -3.556     6.003 
 C                     0.943    -3.583     7.183 
 H                    -1.859     3.22      2.497 
 H                    -0.218     2.453    -3.474 
 H                     0.276    -3.747    -2.605 
 H                    -1.554    -0.949     5.132 
 H                    -1.585     1.831     4.665 
 H                    -3.484    -0.377     3.969 
 H                    -3.511     1.027     2.858 
 H                    -3.852     1.301     4.543 
 H                     0.669     1.096     4.966 
 H                     1.13     -0.639     5.189 
 H                    -0.844     0.026     7.125 
 H                     0.062     1.477     6.921 
 H                    -1.344     5.186     1.938 
 H                    -1.651     5.963     0.432 
 H                     0.007     6.02      1.084 
 H                    -0.635     6.744    -1.405 
 H                     0.665     6.97     -2.704 
 H                     1.048     6.466    -1.036 
 H                     0.608     0.501    -4.891 
 H                    -0.692    -2.156    -4.547 
 H                    -1.267     0.74     -6.129 
 H                    -2.204     0.714    -4.596 
 H                    -1.967    -0.72     -5.453 
 H                     1.356    -1.759    -5.967 
 H                     1.452    -3.157    -4.902 
 H                     2.714    -0.522    -4.798 
 H                     3.487    -2.121    -4.529 
 H                     2.495    -1.303    -3.24 
 H                     0.867    -6.333    -0.084 
 H                     0.404    -5.642    -1.68 
 H                    -0.891    -5.999    -0.463 
 H                    -1.283    -3.581     4.028 
 H                     0.698    -4.478     7.755 
 H                     0.833    -2.619     7.68 
 H                     2.       -3.754     6.976 
 Mg                    13.1462   1.18506   0.99104 
 C                     12.65427   4.71289   0.55339 
 C                     12.54794   0.83865  -2.34912 
 C                     13.12754  -1.95848   1.42144 
 C                     12.575    1.66844   4.39483 
 N                     12.67444   2.65986  -0.58841 
 C                     12.5742   3.97921  -0.64858 
 C                     12.45731   4.55042  -2.08719 
 C                     11.86494   3.24769  -2.81579 
 C                     12.42233   2.17249  -1.88523 
 C                     10.34761   3.17371  -2.77634 
 C                     13.8502   4.95852  -2.68328 
 C                     13.78184   5.80568  -3.95583 
 H                     14.79331   6.83916  -4.15915 
 N                     13.36226  -0.29159  -0.31715 
 C                     13.09393  -0.25325  -1.6392 
 C                     13.39955  -1.5982   -2.15093 
 C                     13.71308  -2.48022  -0.99401 
 C                     13.38568  -1.59692   0.10721 
 C                     13.45337  -1.91837  -3.61654 
 C                     14.21136  -3.89023  -0.89516 
 O                     14.18648  -4.53719   0.21103 
 C                     14.64236  -4.52274  -2.15041 
 N                     12.6813  -0.01141   2.62648 
 C                     12.80679  -1.34861   2.56271 
 C                     12.68421  -1.9739    3.93179 
 C                     12.69158  -0.75253   4.96416 
 C                     12.72899   0.42387   3.96413 
 C                     11.43827  -2.82844   4.16369 
 C                     13.75424  -0.79436   6.09627 
 C                     15.13904  -0.63828   5.51029 
 N                     12.87837   2.88516   2.29718 
 C                     12.62623   2.86213   3.68642 
 C                     12.4035   4.25926   4.11169 
 C                     12.51966   5.0017    2.92688 
 C                     12.77531   4.12682   1.8366 
 C                     12.08835   4.68664   5.43235 
 C                     12.4736   6.32552   2.34888 
 O                     12.37895   7.46687   2.79844 
 C                     12.43319   6.18478   0.76618 
 C                     13.44562   7.13593   0.18928 
 O                     14.66006   6.97062   0.40005 
 O                     12.83391   7.95104  -0.68923 
 C                     13.79919   8.90565  -1.29648 
 H                     12.15306   0.59298  -3.33533 
 H                     13.21864  -3.02417   1.64386 
 H                     12.48812   1.91247   5.45577 
 H                     11.76882   5.38037  -2.19186 
 H                     12.27342   3.13483  -3.81668 
 H                     9.9222    3.9517   -2.15998 
 H                     10.11107   2.19844  -2.37143 
 H                     9.94313   3.18432  -3.79252 
 H                     14.34608   4.06326  -3.07998 
 H                     14.44757   5.46008  -1.94693 
 H                     12.77755   6.21187  -4.12715 
 H                     13.95806   5.15496  -4.81579 
 H                     13.01588  -1.11376  -4.22037 
 H                     12.78923  -2.77367  -3.78159 
 H                     14.45835  -2.18107  -3.95366 
 H                     13.81524  -4.52483  -2.85634 
 H                     15.04823  -5.49478  -1.86353 
 H                     15.43495  -3.91136  -2.5961 
 H                     13.53106  -2.61593   4.14093 
 H                     11.73869  -0.67272   5.50773 
 H                     11.6712  -3.86478   4.47323 
 H                     10.84893  -2.82594   3.25638 
 H                     10.73662  -2.43272   4.89601 
 H                     13.7366  -1.76573   6.59655 
 H                     13.60364  -0.0369    6.85822 
 H                     15.38726  -1.65445   5.18958 
 H                     15.83649  -0.28124   6.26536 
 H                     15.11863  -0.00584   4.61516 
 H                     12.69051   5.56399   5.62769 
 H                     12.28029   3.90154   6.16074 
 H                     11.02016   4.89142   5.3214 
 H                     11.41881   6.42055   0.44211 
 H                     13.40917   9.91223  -1.11657 
 H                     13.90932   8.5891   -2.35072 
 H                     14.78317   8.97682  -0.84796 
 
 ITRead=  0  0  0  0  0  0  0  0  0  0  0  0  0  0  0  0  0  0  0  0
 ITRead=  0  0  0  0  0  0  0  0  0  0  0  0  0  0  0  0  0  0  0  0
 ITRead=  0  0  0  0  0  0  0  0  0  0  0  0  0  0  0  0  0  0  0  0
 ITRead=  0  0  0  0  0  0  0  0  0  0  0  0  0  0  0  0  0  0  0  0
 ITRead=  0  0  0  0  0  0  0  0  0  0  0  0  0  0  0  0  0  0  0  0
 ITRead=  0  0  0  0  0  0  0  0  0  0  0  0  0  0  0  0  0  0  0  0
 ITRead=  0  0  0  0  0  0  0  0  0  0  0  0  0  0  0  0  0  0  0  0
 ITRead=  0  0  0  0  0  0  0  0  0  0  0  0  0  0  0  0  0  0
 MicOpt= -1 -1 -1 -1 -1 -1 -1 -1 -1 -1 -1 -1 -1 -1 -1 -1 -1 -1 -1 -1
 MicOpt= -1 -1 -1 -1 -1 -1 -1 -1 -1 -1 -1 -1 -1 -1 -1 -1 -1 -1 -1 -1
 MicOpt= -1 -1 -1 -1 -1 -1 -1 -1 -1 -1 -1 -1 -1 -1 -1 -1 -1 -1 -1 -1
 MicOpt= -1 -1 -1 -1 -1 -1 -1 -1 -1 -1 -1 -1 -1 -1 -1 -1 -1 -1 -1 -1
 MicOpt= -1 -1 -1 -1 -1 -1 -1 -1 -1 -1 -1 -1 -1 -1 -1 -1 -1 -1 -1 -1
 MicOpt= -1 -1 -1 -1 -1 -1 -1 -1 -1 -1 -1 -1 -1 -1 -1 -1 -1 -1 -1 -1
 MicOpt= -1 -1 -1 -1 -1 -1 -1 -1 -1 -1 -1 -1 -1 -1 -1 -1 -1 -1 -1 -1
 MicOpt= -1 -1 -1 -1 -1 -1 -1 -1 -1 -1 -1 -1 -1 -1 -1 -1 -1 -1
 NAtoms=    158 NQM=      158 NQMF=       0 NMMI=      0 NMMIF=      0
                NMic=       0 NMicF=      0.
                    Isotopes and Nuclear Properties:
 (Nuclear quadrupole moments (NQMom) in fm**2, nuclear magnetic moments (NMagM)
  in nuclear magnetons)

  Atom         1           2           3           4           5           6           7           8           9          10
 IAtWgt=          24          12          12          12          12          14          12          12          12          12
 AtmWgt=  23.9850450  12.0000000  12.0000000  12.0000000  12.0000000  14.0030740  12.0000000  12.0000000  12.0000000  12.0000000
 NucSpn=           0           0           0           0           0           2           0           0           0           0
 AtZEff=  -0.0000000  -0.0000000  -0.0000000  -0.0000000  -0.0000000  -0.0000000  -0.0000000  -0.0000000  -0.0000000  -0.0000000
 NQMom=    0.0000000   0.0000000   0.0000000   0.0000000   0.0000000   2.0440000   0.0000000   0.0000000   0.0000000   0.0000000
 NMagM=    0.0000000   0.0000000   0.0000000   0.0000000   0.0000000   0.4037610   0.0000000   0.0000000   0.0000000   0.0000000
 AtZNuc=  12.0000000   6.0000000   6.0000000   6.0000000   6.0000000   7.0000000   6.0000000   6.0000000   6.0000000   6.0000000

  Atom        11          12          13          14          15          16          17          18          19          20
 IAtWgt=          12          12          12           1          14          12          12          12          12          12
 AtmWgt=  12.0000000  12.0000000  12.0000000   1.0078250  14.0030740  12.0000000  12.0000000  12.0000000  12.0000000  12.0000000
 NucSpn=           0           0           0           1           2           0           0           0           0           0
 AtZEff=  -0.0000000  -0.0000000  -0.0000000  -0.0000000  -0.0000000  -0.0000000  -0.0000000  -0.0000000  -0.0000000  -0.0000000
 NQMom=    0.0000000   0.0000000   0.0000000   0.0000000   2.0440000   0.0000000   0.0000000   0.0000000   0.0000000   0.0000000
 NMagM=    0.0000000   0.0000000   0.0000000   2.7928460   0.4037610   0.0000000   0.0000000   0.0000000   0.0000000   0.0000000
 AtZNuc=   6.0000000   6.0000000   6.0000000   1.0000000   7.0000000   6.0000000   6.0000000   6.0000000   6.0000000   6.0000000

  Atom        21          22          23          24          25          26          27          28          29          30
 IAtWgt=          12          16          12          14          12          12          12          12          12          12
 AtmWgt=  12.0000000  15.9949146  12.0000000  14.0030740  12.0000000  12.0000000  12.0000000  12.0000000  12.0000000  12.0000000
 NucSpn=           0           0           0           2           0           0           0           0           0           0
 AtZEff=  -0.0000000  -0.0000000  -0.0000000  -0.0000000  -0.0000000  -0.0000000  -0.0000000  -0.0000000  -0.0000000  -0.0000000
 NQMom=    0.0000000   0.0000000   0.0000000   2.0440000   0.0000000   0.0000000   0.0000000   0.0000000   0.0000000   0.0000000
 NMagM=    0.0000000   0.0000000   0.0000000   0.4037610   0.0000000   0.0000000   0.0000000   0.0000000   0.0000000   0.0000000
 AtZNuc=   6.0000000   8.0000000   6.0000000   7.0000000   6.0000000   6.0000000   6.0000000   6.0000000   6.0000000   6.0000000

  Atom        31          32          33          34          35          36          37          38          39          40
 IAtWgt=          12          14          12          12          12          12          12          12          16          12
 AtmWgt=  12.0000000  14.0030740  12.0000000  12.0000000  12.0000000  12.0000000  12.0000000  12.0000000  15.9949146  12.0000000
 NucSpn=           0           2           0           0           0           0           0           0           0           0
 AtZEff=  -0.0000000  -0.0000000  -0.0000000  -0.0000000  -0.0000000  -0.0000000  -0.0000000  -0.0000000  -0.0000000  -0.0000000
 NQMom=    0.0000000   2.0440000   0.0000000   0.0000000   0.0000000   0.0000000   0.0000000   0.0000000   0.0000000   0.0000000
 NMagM=    0.0000000   0.4037610   0.0000000   0.0000000   0.0000000   0.0000000   0.0000000   0.0000000   0.0000000   0.0000000
 AtZNuc=   6.0000000   7.0000000   6.0000000   6.0000000   6.0000000   6.0000000   6.0000000   6.0000000   8.0000000   6.0000000

  Atom        41          42          43          44          45          46          47          48          49          50
 IAtWgt=          12          16          16          12           1           1           1           1           1           1
 AtmWgt=  12.0000000  15.9949146  15.9949146  12.0000000   1.0078250   1.0078250   1.0078250   1.0078250   1.0078250   1.0078250
 NucSpn=           0           0           0           0           1           1           1           1           1           1
 AtZEff=  -0.0000000  -0.0000000  -0.0000000  -0.0000000  -0.0000000  -0.0000000  -0.0000000  -0.0000000  -0.0000000  -0.0000000
 NQMom=    0.0000000   0.0000000   0.0000000   0.0000000   0.0000000   0.0000000   0.0000000   0.0000000   0.0000000   0.0000000
 NMagM=    0.0000000   0.0000000   0.0000000   0.0000000   2.7928460   2.7928460   2.7928460   2.7928460   2.7928460   2.7928460
 AtZNuc=   6.0000000   8.0000000   8.0000000   6.0000000   1.0000000   1.0000000   1.0000000   1.0000000   1.0000000   1.0000000

  Atom        51          52          53          54          55          56          57          58          59          60
 IAtWgt=           1           1           1           1           1           1           1           1           1           1
 AtmWgt=   1.0078250   1.0078250   1.0078250   1.0078250   1.0078250   1.0078250   1.0078250   1.0078250   1.0078250   1.0078250
 NucSpn=           1           1           1           1           1           1           1           1           1           1
 AtZEff=  -0.0000000  -0.0000000  -0.0000000  -0.0000000  -0.0000000  -0.0000000  -0.0000000  -0.0000000  -0.0000000  -0.0000000
 NQMom=    0.0000000   0.0000000   0.0000000   0.0000000   0.0000000   0.0000000   0.0000000   0.0000000   0.0000000   0.0000000
 NMagM=    2.7928460   2.7928460   2.7928460   2.7928460   2.7928460   2.7928460   2.7928460   2.7928460   2.7928460   2.7928460
 AtZNuc=   1.0000000   1.0000000   1.0000000   1.0000000   1.0000000   1.0000000   1.0000000   1.0000000   1.0000000   1.0000000

  Atom        61          62          63          64          65          66          67          68          69          70
 IAtWgt=           1           1           1           1           1           1           1           1           1           1
 AtmWgt=   1.0078250   1.0078250   1.0078250   1.0078250   1.0078250   1.0078250   1.0078250   1.0078250   1.0078250   1.0078250
 NucSpn=           1           1           1           1           1           1           1           1           1           1
 AtZEff=  -0.0000000  -0.0000000  -0.0000000  -0.0000000  -0.0000000  -0.0000000  -0.0000000  -0.0000000  -0.0000000  -0.0000000
 NQMom=    0.0000000   0.0000000   0.0000000   0.0000000   0.0000000   0.0000000   0.0000000   0.0000000   0.0000000   0.0000000
 NMagM=    2.7928460   2.7928460   2.7928460   2.7928460   2.7928460   2.7928460   2.7928460   2.7928460   2.7928460   2.7928460
 AtZNuc=   1.0000000   1.0000000   1.0000000   1.0000000   1.0000000   1.0000000   1.0000000   1.0000000   1.0000000   1.0000000

  Atom        71          72          73          74          75          76          77          78          79          80
 IAtWgt=           1           1           1           1           1           1           1           1           1          24
 AtmWgt=   1.0078250   1.0078250   1.0078250   1.0078250   1.0078250   1.0078250   1.0078250   1.0078250   1.0078250  23.9850450
 NucSpn=           1           1           1           1           1           1           1           1           1           0
 AtZEff=  -0.0000000  -0.0000000  -0.0000000  -0.0000000  -0.0000000  -0.0000000  -0.0000000  -0.0000000  -0.0000000  -0.0000000
 NQMom=    0.0000000   0.0000000   0.0000000   0.0000000   0.0000000   0.0000000   0.0000000   0.0000000   0.0000000   0.0000000
 NMagM=    2.7928460   2.7928460   2.7928460   2.7928460   2.7928460   2.7928460   2.7928460   2.7928460   2.7928460   0.0000000
 AtZNuc=   1.0000000   1.0000000   1.0000000   1.0000000   1.0000000   1.0000000   1.0000000   1.0000000   1.0000000  12.0000000

  Atom        81          82          83          84          85          86          87          88          89          90
 IAtWgt=          12          12          12          12          14          12          12          12          12          12
 AtmWgt=  12.0000000  12.0000000  12.0000000  12.0000000  14.0030740  12.0000000  12.0000000  12.0000000  12.0000000  12.0000000
 NucSpn=           0           0           0           0           2           0           0           0           0           0
 AtZEff=  -0.0000000  -0.0000000  -0.0000000  -0.0000000  -0.0000000  -0.0000000  -0.0000000  -0.0000000  -0.0000000  -0.0000000
 NQMom=    0.0000000   0.0000000   0.0000000   0.0000000   2.0440000   0.0000000   0.0000000   0.0000000   0.0000000   0.0000000
 NMagM=    0.0000000   0.0000000   0.0000000   0.0000000   0.4037610   0.0000000   0.0000000   0.0000000   0.0000000   0.0000000
 AtZNuc=   6.0000000   6.0000000   6.0000000   6.0000000   7.0000000   6.0000000   6.0000000   6.0000000   6.0000000   6.0000000

  Atom        91          92          93          94          95          96          97          98          99         100
 IAtWgt=          12          12           1          14          12          12          12          12          12          12
 AtmWgt=  12.0000000  12.0000000   1.0078250  14.0030740  12.0000000  12.0000000  12.0000000  12.0000000  12.0000000  12.0000000
 NucSpn=           0           0           1           2           0           0           0           0           0           0
 AtZEff=  -0.0000000  -0.0000000  -0.0000000  -0.0000000  -0.0000000  -0.0000000  -0.0000000  -0.0000000  -0.0000000  -0.0000000
 NQMom=    0.0000000   0.0000000   0.0000000   2.0440000   0.0000000   0.0000000   0.0000000   0.0000000   0.0000000   0.0000000
 NMagM=    0.0000000   0.0000000   2.7928460   0.4037610   0.0000000   0.0000000   0.0000000   0.0000000   0.0000000   0.0000000
 AtZNuc=   6.0000000   6.0000000   1.0000000   7.0000000   6.0000000   6.0000000   6.0000000   6.0000000   6.0000000   6.0000000

  Atom       101         102         103         104         105         106         107         108         109         110
 IAtWgt=          16          12          14          12          12          12          12          12          12          12
 AtmWgt=  15.9949146  12.0000000  14.0030740  12.0000000  12.0000000  12.0000000  12.0000000  12.0000000  12.0000000  12.0000000
 NucSpn=           0           0           2           0           0           0           0           0           0           0
 AtZEff=  -0.0000000  -0.0000000  -0.0000000  -0.0000000  -0.0000000  -0.0000000  -0.0000000  -0.0000000  -0.0000000  -0.0000000
 NQMom=    0.0000000   0.0000000   2.0440000   0.0000000   0.0000000   0.0000000   0.0000000   0.0000000   0.0000000   0.0000000
 NMagM=    0.0000000   0.0000000   0.4037610   0.0000000   0.0000000   0.0000000   0.0000000   0.0000000   0.0000000   0.0000000
 AtZNuc=   8.0000000   6.0000000   7.0000000   6.0000000   6.0000000   6.0000000   6.0000000   6.0000000   6.0000000   6.0000000

  Atom       111         112         113         114         115         116         117         118         119         120
 IAtWgt=          14          12          12          12          12          12          12          16          12          12
 AtmWgt=  14.0030740  12.0000000  12.0000000  12.0000000  12.0000000  12.0000000  12.0000000  15.9949146  12.0000000  12.0000000
 NucSpn=           2           0           0           0           0           0           0           0           0           0
 AtZEff=  -0.0000000  -0.0000000  -0.0000000  -0.0000000  -0.0000000  -0.0000000  -0.0000000  -0.0000000  -0.0000000  -0.0000000
 NQMom=    2.0440000   0.0000000   0.0000000   0.0000000   0.0000000   0.0000000   0.0000000   0.0000000   0.0000000   0.0000000
 NMagM=    0.4037610   0.0000000   0.0000000   0.0000000   0.0000000   0.0000000   0.0000000   0.0000000   0.0000000   0.0000000
 AtZNuc=   7.0000000   6.0000000   6.0000000   6.0000000   6.0000000   6.0000000   6.0000000   8.0000000   6.0000000   6.0000000

  Atom       121         122         123         124         125         126         127         128         129         130
 IAtWgt=          16          16          12           1           1           1           1           1           1           1
 AtmWgt=  15.9949146  15.9949146  12.0000000   1.0078250   1.0078250   1.0078250   1.0078250   1.0078250   1.0078250   1.0078250
 NucSpn=           0           0           0           1           1           1           1           1           1           1
 AtZEff=  -0.0000000  -0.0000000  -0.0000000  -0.0000000  -0.0000000  -0.0000000  -0.0000000  -0.0000000  -0.0000000  -0.0000000
 NQMom=    0.0000000   0.0000000   0.0000000   0.0000000   0.0000000   0.0000000   0.0000000   0.0000000   0.0000000   0.0000000
 NMagM=    0.0000000   0.0000000   0.0000000   2.7928460   2.7928460   2.7928460   2.7928460   2.7928460   2.7928460   2.7928460
 AtZNuc=   8.0000000   8.0000000   6.0000000   1.0000000   1.0000000   1.0000000   1.0000000   1.0000000   1.0000000   1.0000000

  Atom       131         132         133         134         135         136         137         138         139         140
 IAtWgt=           1           1           1           1           1           1           1           1           1           1
 AtmWgt=   1.0078250   1.0078250   1.0078250   1.0078250   1.0078250   1.0078250   1.0078250   1.0078250   1.0078250   1.0078250
 NucSpn=           1           1           1           1           1           1           1           1           1           1
 AtZEff=  -0.0000000  -0.0000000  -0.0000000  -0.0000000  -0.0000000  -0.0000000  -0.0000000  -0.0000000  -0.0000000  -0.0000000
 NQMom=    0.0000000   0.0000000   0.0000000   0.0000000   0.0000000   0.0000000   0.0000000   0.0000000   0.0000000   0.0000000
 NMagM=    2.7928460   2.7928460   2.7928460   2.7928460   2.7928460   2.7928460   2.7928460   2.7928460   2.7928460   2.7928460
 AtZNuc=   1.0000000   1.0000000   1.0000000   1.0000000   1.0000000   1.0000000   1.0000000   1.0000000   1.0000000   1.0000000

  Atom       141         142         143         144         145         146         147         148         149         150
 IAtWgt=           1           1           1           1           1           1           1           1           1           1
 AtmWgt=   1.0078250   1.0078250   1.0078250   1.0078250   1.0078250   1.0078250   1.0078250   1.0078250   1.0078250   1.0078250
 NucSpn=           1           1           1           1           1           1           1           1           1           1
 AtZEff=  -0.0000000  -0.0000000  -0.0000000  -0.0000000  -0.0000000  -0.0000000  -0.0000000  -0.0000000  -0.0000000  -0.0000000
 NQMom=    0.0000000   0.0000000   0.0000000   0.0000000   0.0000000   0.0000000   0.0000000   0.0000000   0.0000000   0.0000000
 NMagM=    2.7928460   2.7928460   2.7928460   2.7928460   2.7928460   2.7928460   2.7928460   2.7928460   2.7928460   2.7928460
 AtZNuc=   1.0000000   1.0000000   1.0000000   1.0000000   1.0000000   1.0000000   1.0000000   1.0000000   1.0000000   1.0000000

  Atom       151         152         153         154         155         156         157         158
 IAtWgt=           1           1           1           1           1           1           1           1
 AtmWgt=   1.0078250   1.0078250   1.0078250   1.0078250   1.0078250   1.0078250   1.0078250   1.0078250
 NucSpn=           1           1           1           1           1           1           1           1
 AtZEff=  -0.0000000  -0.0000000  -0.0000000  -0.0000000  -0.0000000  -0.0000000  -0.0000000  -0.0000000
 NQMom=    0.0000000   0.0000000   0.0000000   0.0000000   0.0000000   0.0000000   0.0000000   0.0000000
 NMagM=    2.7928460   2.7928460   2.7928460   2.7928460   2.7928460   2.7928460   2.7928460   2.7928460
 AtZNuc=   1.0000000   1.0000000   1.0000000   1.0000000   1.0000000   1.0000000   1.0000000   1.0000000
 Leave Link  101 at Sat Sep 11 08:35:42 2021, MaxMem= 23488102400 cpu:               3.2 elap:               0.2
 (Enter /sw/apps/gaussian-16.0/g16/l202.exe)
 Stoichiometry    C68H72Mg2N8O8
 Framework group  C1[X(C68H72Mg2N8O8)]
 Deg. of freedom   468
 Full point group                 C1      NOp   1
 Largest Abelian subgroup         C1      NOp   1
 Largest concise Abelian subgroup C1      NOp   1
                         Standard orientation:                         
 ---------------------------------------------------------------------
 Center     Atomic      Atomic             Coordinates (Angstroms)
 Number     Number       Type             X           Y           Z
 ---------------------------------------------------------------------
      1         12           0        6.465165    0.916114    0.361107
      2          6           0        7.166219   -2.391651   -0.813384
      3          6           0        7.217951    2.028895   -2.775466
      4          6           0        6.294568    3.875489    1.487879
      5          6           0        6.875896   -0.305648    3.599048
      6          7           0        7.096889   -0.144284   -1.476589
      7          6           0        7.270536   -1.419249   -1.810478
      8          6           0        7.499634   -1.632525   -3.336716
      9          6           0        8.052267   -0.185109   -3.712989
     10          6           0        7.388841    0.622187   -2.611144
     11          6           0        9.565640   -0.055571   -3.573616
     12          6           0        6.169815   -1.953839   -4.098339
     13          6           0        6.345521   -2.493647   -5.520692
     14          1           0        5.409893   -3.494743   -6.010340
     15          7           0        6.242619    2.636262   -0.584627
     16          6           0        6.589075    2.906632   -1.866092
     17          6           0        6.222894    4.320480   -2.097669
     18          6           0        5.810646    4.903675   -0.790753
     19          6           0        6.128547    3.821914    0.105970
     20          6           0        6.237681    4.963302   -3.450559
     21          6           0        5.233148    6.229928   -0.409071
     22          8           0        5.164854    6.617340    0.807408
     23          6           0        4.825257    7.112276   -1.517281
     24          7           0        6.784306    1.735316    2.254436
     25          6           0        6.585716    3.037735    2.485199
     26          6           0        6.599067    3.340206    3.954304
     27          6           0        6.606719    1.926484    4.696656
     28          6           0        6.683098    1.007171    3.452751
     29          6           0        7.779686    4.184876    4.452985
     30          6           0        5.485229    1.671240    5.734697
     31          6           0        4.147628    1.585065    5.034344
     32          7           0        6.761304   -1.030089    1.275243
     33          6           0        6.929897   -1.303556    2.640331
     34          6           0        7.205104   -2.747086    2.760950
     35          6           0        7.193829   -3.213108    1.447732
     36          6           0        6.954432   -2.124708    0.560959
     37          6           0        7.482538   -3.444414    3.969750
     38          6           0        7.352780   -4.373047    0.585680
     39          8           0        7.478387   -5.583724    0.775353
     40          6           0        7.462314   -3.866935   -0.920201
     41          6           0        6.536104   -4.711580   -1.752077
     42          8           0        5.299250   -4.644155   -1.600372
     43          8           0        7.229943   -5.282979   -2.748386
     44          6           0        6.364179   -6.111660   -3.629234
     45          1           0        7.655470    2.515203   -3.649551
     46          1           0        6.133471    4.861686    1.928222
     47          1           0        6.930807   -0.773104    4.583894
     48          1           0        8.243303   -2.390594   -3.583109
     49          1           0        7.698394    0.144362   -4.689690
     50          1           0       10.000803   -0.942898   -3.114045
     51          1           0        9.725998    0.818063   -2.941523
     52          1           0       10.024224    0.181232   -4.534033
     53          1           0        5.646637   -1.022853   -4.316536
     54          1           0        5.553626   -2.646119   -3.523547
     55          1           0        7.373058   -2.809637   -5.702980
     56          1           0        6.186583   -1.672483   -6.219711
     57          1           0        6.741820    4.337422   -4.185857
     58          1           0        6.864674    5.851427   -3.374247
     59          1           0        5.238268    5.246186   -3.781440
     60          1           0        5.687820    7.314180   -2.152709
     61          1           0        4.353298    7.978102   -1.054194
     62          1           0        4.102115    6.585262   -2.140395
     63          1           0        5.707619    3.892988    4.247866
     64          1           0        7.528491    1.762925    5.255457
     65          1           0        7.478593    5.099527    4.964318
     66          1           0        8.419732    4.406569    3.599473
     67          1           0        8.471073    3.660151    5.111822
     68          1           0        5.425378    2.499717    6.439672
     69          1           0        5.630860    0.756539    6.309471
     70          1           0        3.857168    2.630322    4.934829
     71          1           0        3.431500    1.037584    5.648051
     72          1           0        4.250573    1.178263    4.028163
     73          1           0        6.913027   -4.372604    3.924044
     74          1           0        7.205077   -2.851939    4.841296
     75          1           0        8.560540   -3.579054    3.882346
     76          1           0        8.503777   -3.987903   -1.216585
     77          1           0        6.794320   -7.113007   -3.651945
     78          1           0        6.280425   -5.575392   -4.574648
     79          1           0        5.362179   -6.326520   -3.256180
     80         12           0       -6.631846   -0.997466    0.236152
     81          6           0       -6.878486    2.215223   -1.344012
     82          6           0       -6.016225    0.652738    3.157183
     83          6           0       -5.964304   -3.800929    1.563713
     84          6           0       -6.130184   -2.362199   -2.931111
     85          7           0       -6.491596    1.156841    0.717344
     86          6           0       -6.664520    2.286808    0.048297
     87          6           0       -6.684745    3.561767    0.933516
     88          6           0       -5.847012    3.000172    2.183188
     89          6           0       -6.160875    1.512420    2.039093
     90          6           0       -4.346342    3.188259    2.035086
     91          6           0       -8.138886    3.973619    1.355256
     92          6           0       -8.261109    5.374825    1.958098
     93          1           0       -9.465263    6.151303    1.675988
     94          7           0       -6.556795   -1.528246    2.146958
     95          6           0       -6.318209   -0.725957    3.205587
     96          6           0       -6.348047   -1.600611    4.388064
     97          6           0       -6.460048   -3.010740    3.925768
     98          6           0       -6.307103   -2.832274    2.495785
     99          6           0       -6.353063   -1.070414    5.792444
    100          6           0       -6.657645   -4.306899    4.651792
    101          8           0       -6.487216   -5.436745    4.071074
    102          6           0       -6.965248   -4.214417    6.086473
    103          7           0       -5.911711   -2.787945   -0.537104
    104          6           0       -5.761360   -3.869215    0.247859
    105          6           0       -5.496534   -5.107738   -0.574529
    106          6           0       -5.741335   -4.674687   -2.094439
    107          6           0       -6.031193   -3.172067   -1.885891
    108          6           0       -4.099210   -5.711728   -0.436455
    109          6           0       -6.758951   -5.517376   -2.911141
    110          6           0       -8.153419   -5.315761   -2.363222
    111          7           0       -6.702032   -0.273568   -1.798331
    112          6           0       -6.433542   -1.007410   -2.974546
    113          6           0       -6.496578   -0.057540   -4.104241
    114          6           0       -6.776866    1.177158   -3.499721
    115          6           0       -6.861179    1.012372   -2.090743
    116          6           0       -6.259533   -0.374222   -5.471588
    117          6           0       -7.010068    2.584382   -3.732193
    118          8           0       -7.145759    3.288935   -4.731661
    119          6           0       -6.961052    3.342175   -2.335867
    120          6           0       -8.153851    4.255482   -2.260920
    121          8           0       -9.305993    3.788725   -2.224551
    122          8           0       -7.732903    5.511687   -2.026131
    123          6           0       -8.880635    6.452820   -1.932451
    124          1           0       -5.591489    1.061545    4.074445
    125          1           0       -5.832416   -4.810528    1.959668
    126          1           0       -6.082166   -2.727440   -3.959209
    127          1           0       -6.182223    4.420499    0.504750
    128          1           0       -6.235922    3.382596    3.123334
    129          1           0       -4.081832    3.563248    1.057559
    130          1           0       -3.910080    2.211142    2.196249
    131          1           0       -3.965081    3.824801    2.838699
    132          1           0       -8.445653    3.370005    2.219144
    133          1           0       -8.817283    3.874741    0.530256
    134          1           0       -7.363509    5.979619    1.780675
    135          1           0       -8.310789    5.281559    3.045689
    136          1           0       -6.097114   -0.004067    5.820735
    137          1           0       -5.529856   -1.561495    6.322568
    138          1           0       -7.286956   -1.279846    6.318398
    139          1           0       -6.163945   -3.682711    6.594086
    140          1           0       -7.159828   -5.238720    6.410255
    141          1           0       -7.871673   -3.611661    6.211791
    142          1           0       -6.191266   -5.898097   -0.318060
    143          1           0       -4.818428   -4.737056   -2.689578
    144          1           0       -4.111080   -6.770228   -0.114726
    145          1           0       -3.534030   -5.108454    0.261522
    146          1           0       -3.484606   -5.663670   -1.333757
    147          1           0       -6.536562   -6.582447   -2.809564
    148          1           0       -6.757413   -5.287749   -3.971453
    149          1           0       -8.192098   -6.015744   -1.523223
    150          1           0       -8.899929   -5.560914   -3.115995
    151          1           0       -8.273964   -4.305175   -1.955988
    152          1           0       -7.026226    0.129364   -6.045243
    153          1           0       -6.277631   -1.449019   -5.639688
    154          1           0       -5.257392    0.044178   -5.597802
    155          1           0       -6.020533    3.892917   -2.294856
    156          1           0       -8.702933    7.247224   -2.663909
    157          1           0       -8.936470    6.750936   -0.868607
    158          1           0       -9.852761    6.090490   -2.245723
 ---------------------------------------------------------------------
 Rotational constants (GHZ):           0.0204191           0.0079825           0.0074190
 Leave Link  202 at Sat Sep 11 08:35:42 2021, MaxMem= 23488102400 cpu:               0.2 elap:               0.0
 (Enter /sw/apps/gaussian-16.0/g16/l301.exe)
 Standard basis: def2SVP (5D, 7F)
 Ernie: Thresh=  0.10000D-02 Tol=  0.10000D-05 Strict=F.
 There are  1658 symmetry adapted cartesian basis functions of A   symmetry.
 There are  1572 symmetry adapted basis functions of A   symmetry.
  1572 basis functions,  2678 primitive gaussians,  1658 cartesian basis functions
   312 alpha electrons      312 beta electrons
       nuclear repulsion energy     14237.0429211448 Hartrees.
 IExCor=20419 DFT=T Ex+Corr=CAM-B3LYP ExCW=0 ScaHFX=  1.000000
 ScaDFX=  1.000000  1.000000  1.000000  0.810000 ScalE2=  1.000000  1.000000
 IRadAn=      5 IRanWt=     -1 IRanGd=            0 ICorTp=0 IEmpDi=  4
 HFx  wShort=  0.000000 wLong=  0.330000 cFull=  0.190000 cShort=  0.000000 cLong=  0.460000
 DFx  wShort=  0.000000 wLong=  0.330000 cFull=  0.190000 cShort=  0.000000 cLong=  0.460000
 NAtoms=  158 NActive=  158 NUniq=  158 SFac= 1.00D+00 NAtFMM=   60 NAOKFM=T Big=T
 Integral buffers will be    131072 words long.
 Raffenetti 1 integral format.
 Two-electron integral symmetry is turned on.
 Leave Link  301 at Sat Sep 11 08:35:42 2021, MaxMem= 23488102400 cpu:               1.3 elap:               0.1
 (Enter /sw/apps/gaussian-16.0/g16/l302.exe)
 NPDir=0 NMtPBC=     1 NCelOv=     1 NCel=       1 NClECP=     1 NCelD=      1
         NCelK=      1 NCelE2=     1 NClLst=     1 CellRange=     0.0.
 One-electron integrals computed using PRISM.
 One-electron integral symmetry used in STVInt
   1 Symmetry operations used in ECPInt.
 ECPInt:  NShTT=  271216 NPrTT=  987664 LenC2=  116429 LenP2D=  255055.
 LDataN:  DoStor=T MaxTD1= 4 Len=   56
 NBasis=  1572 RedAO= T EigKep=  3.36D-04  NBF=  1572
 NBsUse=  1572 1.00D-06 EigRej= -1.00D+00 NBFU=  1572
 Precomputing XC quadrature grid using
 IXCGrd= 4 IRadAn=           5 IRanWt=          -1 IRanGd=           0 AccXCQ= 0.00D+00.
 Generated NRdTot=       0 NPtTot=           0 NUsed=           0 NTot=          32
 NSgBfM=   981   959   964   975   981 MxSgAt=   158 MxSgA2=   152.
 Leave Link  302 at Sat Sep 11 08:35:47 2021, MaxMem= 23488102400 cpu:             111.6 elap:               4.7
 (Enter /sw/apps/gaussian-16.0/g16/l303.exe)
 DipDrv:  MaxL=1.
 Leave Link  303 at Sat Sep 11 08:35:47 2021, MaxMem= 23488102400 cpu:               8.8 elap:               0.4
 (Enter /sw/apps/gaussian-16.0/g16/l308.exe)
 Leave Link  308 at Sat Sep 11 08:35:48 2021, MaxMem= 23488102400 cpu:              14.8 elap:               0.7
 (Enter /sw/apps/gaussian-16.0/g16/l401.exe)
 ExpMin= 3.36D-02 ExpMax= 4.95D+03 ExpMxC= 7.45D+02 IAcc=3 IRadAn=         5 AccDes= 0.00D+00
 Harris functional with IExCor=20419 and IRadAn=       5 diagonalized for initial guess.
 HarFok:  IExCor=20419 AccDes= 0.00D+00 IRadAn=         5 IDoV= 1 UseB2=F ITyADJ=14
 ICtDFT=  3500011 ScaDFX=  1.000000  1.000000  1.000000  1.000000
 FoFCou: FMM=F IPFlag=           0 FMFlag=      100000 FMFlg1=        2001
         NFxFlg=           0 DoJE=T BraDBF=F KetDBF=T FulRan=T
         wScrn=  0.000000 ICntrl=       500 IOpCl=  0 I1Cent=   200000004 NGrid=           0
         NMat0=    1 NMatS0=      1 NMatT0=    0 NMatD0=    1 NMtDS0=    0 NMtDT0=    0
 Petite list used in FoFCou.
 Harris En= -3918.65802082684    
 JPrj=0 DoOrth=F DoCkMO=F.
 Leave Link  401 at Sat Sep 11 08:35:55 2021, MaxMem= 23488102400 cpu:             166.9 elap:               7.0
 (Enter /sw/apps/gaussian-16.0/g16/l502.exe)
 Integral symmetry usage will be decided dynamically.
 Closed shell SCF:
 Using DIIS extrapolation, IDIIS=  1040.
 NGot= 23488102400 LenX= 23482547354 LenY= 23479796732
 Requested convergence on RMS density matrix=1.00D-08 within 128 cycles.
 Requested convergence on MAX density matrix=1.00D-06.
 Requested convergence on             energy=1.00D-06.
 No special actions if energy rises.
 Fock matrices will be formed incrementally for  20 cycles.

 Cycle   1  Pass 1  IDiag  1:
 FoFJK:  IHMeth= 1 ICntrl=       0 DoSepK=T KAlg= 0 I1Cent=           0 FoldK=F
 IRaf=         1 NMat=       1 IRICut=       1 DoRegI=T DoRafI=F ISym2E= 0 IDoP0=0 IntGTp=1.
 FoFCou: FMM=T IPFlag=           0 FMFlag=      100000 FMFlg1=        2001
         NFxFlg=           0 DoJE=T BraDBF=F KetDBF=F FulRan=T
         wScrn=  0.000000 ICntrl=       500 IOpCl=  0 I1Cent=           0 NGrid=           0
         NMat0=    1 NMatS0=      1 NMatT0=    0 NMatD0=    1 NMtDS0=    0 NMtDT0=    0
 Symmetry not used in FoFCou.
 FMM levels:  10  Number of levels for PrismC:   9
 E= -4068.94957405160    
 DIIS: error= 2.04D-02 at cycle   1 NSaved=   1.
 NSaved= 1 IEnMin= 1 EnMin= -4068.94957405160     IErMin= 1 ErrMin= 2.04D-02
 ErrMax= 2.04D-02  0.00D+00 EMaxC= 1.00D-01 BMatC= 1.69D+00 BMatP= 1.69D+00
 IDIUse=3 WtCom= 7.96D-01 WtEn= 2.04D-01
 Coeff-Com:  0.100D+01
 Coeff-En:   0.100D+01
 Coeff:      0.100D+01
 Gap=     0.120 Goal=   None    Shift=    0.000
 GapD=    0.120 DampG=1.000 DampE=0.500 DampFc=0.5000 IDamp=-1.
 Damping current iteration by 5.00D-01
 RMSDP=1.57D-03 MaxDP=1.35D-01              OVMax= 2.02D-01

 Cycle   2  Pass 1  IDiag  1:
 RMSU=  7.69D-04    CP:  9.82D-01
 E= -4069.33850147847     Delta-E=       -0.388927426877 Rises=F Damp=T
 DIIS: error= 1.27D-02 at cycle   2 NSaved=   2.
 NSaved= 2 IEnMin= 2 EnMin= -4069.33850147847     IErMin= 2 ErrMin= 1.27D-02
 ErrMax= 1.27D-02  0.00D+00 EMaxC= 1.00D-01 BMatC= 3.07D-01 BMatP= 1.69D+00
 IDIUse=3 WtCom= 8.73D-01 WtEn= 1.27D-01
 Coeff-Com: -0.213D+00 0.121D+01
 Coeff-En:   0.000D+00 0.100D+01
 Coeff:     -0.186D+00 0.119D+01
 Gap=     0.135 Goal=   None    Shift=    0.000
 RMSDP=7.64D-04 MaxDP=9.41D-02 DE=-3.89D-01 OVMax= 1.89D-01

 Cycle   3  Pass 1  IDiag  1:
 RMSU=  7.31D-04    CP:  9.68D-01  1.24D+00
 E= -4069.62868988694     Delta-E=       -0.290188408464 Rises=F Damp=F
 DIIS: error= 1.57D-02 at cycle   3 NSaved=   3.
 NSaved= 3 IEnMin= 3 EnMin= -4069.62868988694     IErMin= 2 ErrMin= 1.27D-02
 ErrMax= 1.57D-02  0.00D+00 EMaxC= 1.00D-01 BMatC= 2.01D-01 BMatP= 3.07D-01
 IDIUse=3 WtCom= 8.43D-01 WtEn= 1.57D-01
 Coeff-Com: -0.267D+00 0.651D+00 0.616D+00
 Coeff-En:   0.000D+00 0.000D+00 0.100D+01
 Coeff:     -0.225D+00 0.549D+00 0.676D+00
 Gap=     0.123 Goal=   None    Shift=    0.000
 RMSDP=5.06D-04 MaxDP=4.91D-02 DE=-2.90D-01 OVMax= 1.42D-01

 Cycle   4  Pass 1  IDiag  1:
 RMSU=  2.64D-04    CP:  9.65D-01  1.55D+00  5.07D-01
 E= -4069.76568200548     Delta-E=       -0.136992118547 Rises=F Damp=F
 DIIS: error= 7.29D-03 at cycle   4 NSaved=   4.
 NSaved= 4 IEnMin= 4 EnMin= -4069.76568200548     IErMin= 4 ErrMin= 7.29D-03
 ErrMax= 7.29D-03  0.00D+00 EMaxC= 1.00D-01 BMatC= 5.01D-02 BMatP= 2.01D-01
 IDIUse=3 WtCom= 9.27D-01 WtEn= 7.29D-02
 Coeff-Com: -0.109D+00 0.225D+00 0.408D+00 0.475D+00
 Coeff-En:   0.000D+00 0.000D+00 0.219D+00 0.781D+00
 Coeff:     -0.101D+00 0.209D+00 0.395D+00 0.497D+00
 Gap=     0.122 Goal=   None    Shift=    0.000
 RMSDP=1.98D-04 MaxDP=2.07D-02 DE=-1.37D-01 OVMax= 6.13D-02

 Cycle   5  Pass 1  IDiag  1:
 RMSU=  7.51D-05    CP:  9.64D-01  1.49D+00  6.89D-01  5.52D-01
 E= -4069.81067634625     Delta-E=       -0.044994340766 Rises=F Damp=F
 DIIS: error= 8.08D-04 at cycle   5 NSaved=   5.
 NSaved= 5 IEnMin= 5 EnMin= -4069.81067634625     IErMin= 5 ErrMin= 8.08D-04
 ErrMax= 8.08D-04  0.00D+00 EMaxC= 1.00D-01 BMatC= 1.13D-03 BMatP= 5.01D-02
 IDIUse=3 WtCom= 9.92D-01 WtEn= 8.08D-03
 Coeff-Com: -0.353D-01 0.693D-01 0.163D+00 0.248D+00 0.555D+00
 Coeff-En:   0.000D+00 0.000D+00 0.000D+00 0.000D+00 0.100D+01
 Coeff:     -0.350D-01 0.687D-01 0.162D+00 0.246D+00 0.558D+00
 Gap=     0.121 Goal=   None    Shift=    0.000
 RMSDP=3.98D-05 MaxDP=4.21D-03 DE=-4.50D-02 OVMax= 1.65D-02

 Cycle   6  Pass 1  IDiag  1:
 RMSU=  2.97D-05    CP:  9.64D-01  1.49D+00  6.82D-01  6.22D-01  7.66D-01
 E= -4069.81164296415     Delta-E=       -0.000966617903 Rises=F Damp=F
 DIIS: error= 2.25D-04 at cycle   6 NSaved=   6.
 NSaved= 6 IEnMin= 6 EnMin= -4069.81164296415     IErMin= 6 ErrMin= 2.25D-04
 ErrMax= 2.25D-04  0.00D+00 EMaxC= 1.00D-01 BMatC= 1.71D-04 BMatP= 1.13D-03
 IDIUse=3 WtCom= 9.98D-01 WtEn= 2.25D-03
 Coeff-Com:  0.241D-02-0.695D-02 0.103D-01 0.390D-01 0.306D+00 0.649D+00
 Coeff-En:   0.000D+00 0.000D+00 0.000D+00 0.000D+00 0.990D-01 0.901D+00
 Coeff:      0.240D-02-0.694D-02 0.103D-01 0.389D-01 0.306D+00 0.649D+00
 Gap=     0.122 Goal=   None    Shift=    0.000
 RMSDP=1.54D-05 MaxDP=1.30D-03 DE=-9.67D-04 OVMax= 7.36D-03

 Cycle   7  Pass 1  IDiag  1:
 RMSU=  1.04D-05    CP:  9.64D-01  1.50D+00  6.87D-01  6.22D-01  8.64D-01
                    CP:  7.54D-01
 E= -4069.81182440149     Delta-E=       -0.000181437335 Rises=F Damp=F
 DIIS: error= 8.86D-05 at cycle   7 NSaved=   7.
 NSaved= 7 IEnMin= 7 EnMin= -4069.81182440149     IErMin= 7 ErrMin= 8.86D-05
 ErrMax= 8.86D-05  0.00D+00 EMaxC= 1.00D-01 BMatC= 1.94D-05 BMatP= 1.71D-04
 IDIUse=1 WtCom= 1.00D+00 WtEn= 0.00D+00
 Coeff-Com:  0.442D-02-0.964D-02-0.904D-02-0.417D-02 0.996D-01 0.325D+00
 Coeff-Com:  0.594D+00
 Coeff:      0.442D-02-0.964D-02-0.904D-02-0.417D-02 0.996D-01 0.325D+00
 Coeff:      0.594D+00
 Gap=     0.122 Goal=   None    Shift=    0.000
 RMSDP=6.36D-06 MaxDP=1.18D-03 DE=-1.81D-04 OVMax= 3.59D-03

 Cycle   8  Pass 1  IDiag  1:
 RMSU=  4.60D-06    CP:  9.64D-01  1.50D+00  6.88D-01  6.27D-01  8.69D-01
                    CP:  8.79D-01  8.33D-01
 E= -4069.81184848447     Delta-E=       -0.000024082980 Rises=F Damp=F
 DIIS: error= 5.06D-05 at cycle   8 NSaved=   8.
 NSaved= 8 IEnMin= 8 EnMin= -4069.81184848447     IErMin= 8 ErrMin= 5.06D-05
 ErrMax= 5.06D-05  0.00D+00 EMaxC= 1.00D-01 BMatC= 4.63D-06 BMatP= 1.94D-05
 IDIUse=1 WtCom= 1.00D+00 WtEn= 0.00D+00
 Coeff-Com:  0.212D-02-0.418D-02-0.768D-02-0.121D-01-0.128D-01 0.328D-01
 Coeff-Com:  0.348D+00 0.654D+00
 Coeff:      0.212D-02-0.418D-02-0.768D-02-0.121D-01-0.128D-01 0.328D-01
 Coeff:      0.348D+00 0.654D+00
 Gap=     0.122 Goal=   None    Shift=    0.000
 RMSDP=3.23D-06 MaxDP=3.97D-04 DE=-2.41D-05 OVMax= 1.20D-03

 Cycle   9  Pass 1  IDiag  1:
 RMSU=  1.89D-06    CP:  9.64D-01  1.50D+00  6.89D-01  6.29D-01  8.86D-01
                    CP:  9.05D-01  1.03D+00  9.31D-01
 E= -4069.81185589833     Delta-E=       -0.000007413859 Rises=F Damp=F
 DIIS: error= 2.03D-05 at cycle   9 NSaved=   9.
 NSaved= 9 IEnMin= 9 EnMin= -4069.81185589833     IErMin= 9 ErrMin= 2.03D-05
 ErrMax= 2.03D-05  0.00D+00 EMaxC= 1.00D-01 BMatC= 6.67D-07 BMatP= 4.63D-06
 IDIUse=1 WtCom= 1.00D+00 WtEn= 0.00D+00
 Coeff-Com:  0.457D-03-0.757D-03-0.263D-02-0.594D-02-0.216D-01-0.376D-01
 Coeff-Com:  0.106D+00 0.327D+00 0.635D+00
 Coeff:      0.457D-03-0.757D-03-0.263D-02-0.594D-02-0.216D-01-0.376D-01
 Coeff:      0.106D+00 0.327D+00 0.635D+00
 Gap=     0.122 Goal=   None    Shift=    0.000
 RMSDP=1.39D-06 MaxDP=1.64D-04 DE=-7.41D-06 OVMax= 7.81D-04

 Cycle  10  Pass 1  IDiag  1:
 RMSU=  9.26D-07    CP:  9.64D-01  1.50D+00  6.89D-01  6.29D-01  8.89D-01
                    CP:  9.19D-01  1.08D+00  1.10D+00  1.05D+00
 E= -4069.81185743219     Delta-E=       -0.000001533859 Rises=F Damp=F
 DIIS: error= 1.10D-05 at cycle  10 NSaved=  10.
 NSaved=10 IEnMin=10 EnMin= -4069.81185743219     IErMin=10 ErrMin= 1.10D-05
 ErrMax= 1.10D-05  0.00D+00 EMaxC= 1.00D-01 BMatC= 1.65D-07 BMatP= 6.67D-07
 IDIUse=1 WtCom= 1.00D+00 WtEn= 0.00D+00
 Coeff-Com: -0.425D-03 0.890D-03 0.123D-02 0.114D-02-0.383D-02-0.305D-01
 Coeff-Com: -0.486D-01-0.747D-01 0.258D+00 0.896D+00
 Coeff:     -0.425D-03 0.890D-03 0.123D-02 0.114D-02-0.383D-02-0.305D-01
 Coeff:     -0.486D-01-0.747D-01 0.258D+00 0.896D+00
 Gap=     0.122 Goal=   None    Shift=    0.000
 RMSDP=1.21D-06 MaxDP=1.38D-04 DE=-1.53D-06 OVMax= 6.00D-04

 Cycle  11  Pass 1  IDiag  1:
 RMSU=  5.08D-07    CP:  9.64D-01  1.50D+00  6.89D-01  6.29D-01  8.91D-01
                    CP:  9.29D-01  1.13D+00  1.21D+00  1.38D+00  1.36D+00
 E= -4069.81185819520     Delta-E=       -0.000000763015 Rises=F Damp=F
 DIIS: error= 3.84D-06 at cycle  11 NSaved=  11.
 NSaved=11 IEnMin=11 EnMin= -4069.81185819520     IErMin=11 ErrMin= 3.84D-06
 ErrMax= 3.84D-06  0.00D+00 EMaxC= 1.00D-01 BMatC= 5.76D-08 BMatP= 1.65D-07
 IDIUse=1 WtCom= 1.00D+00 WtEn= 0.00D+00
 Coeff-Com: -0.323D-03 0.628D-03 0.131D-02 0.211D-02 0.435D-02-0.821D-02
 Coeff-Com: -0.451D-01-0.131D+00-0.203D-01 0.463D+00 0.733D+00
 Coeff:     -0.323D-03 0.628D-03 0.131D-02 0.211D-02 0.435D-02-0.821D-02
 Coeff:     -0.451D-01-0.131D+00-0.203D-01 0.463D+00 0.733D+00
 Gap=     0.122 Goal=   None    Shift=    0.000
 RMSDP=6.69D-07 MaxDP=5.68D-05 DE=-7.63D-07 OVMax= 3.47D-04

 Cycle  12  Pass 1  IDiag  1:
 RMSU=  2.58D-07    CP:  9.64D-01  1.50D+00  6.89D-01  6.29D-01  8.92D-01
                    CP:  9.31D-01  1.15D+00  1.27D+00  1.55D+00  1.75D+00
                    CP:  1.20D+00
 E= -4069.81185844671     Delta-E=       -0.000000251512 Rises=F Damp=F
 DIIS: error= 2.47D-06 at cycle  12 NSaved=  12.
 NSaved=12 IEnMin=12 EnMin= -4069.81185844671     IErMin=12 ErrMin= 2.47D-06
 ErrMax= 2.47D-06  0.00D+00 EMaxC= 1.00D-01 BMatC= 1.33D-08 BMatP= 5.76D-08
 IDIUse=1 WtCom= 1.00D+00 WtEn= 0.00D+00
 Coeff-Com:  0.478D-05-0.257D-04 0.158D-03 0.479D-03 0.319D-02 0.423D-02
 Coeff-Com:  0.305D-02-0.328D-01-0.683D-01-0.801D-01 0.239D+00 0.932D+00
 Coeff:      0.478D-05-0.257D-04 0.158D-03 0.479D-03 0.319D-02 0.423D-02
 Coeff:      0.305D-02-0.328D-01-0.683D-01-0.801D-01 0.239D+00 0.932D+00
 Gap=     0.122 Goal=   None    Shift=    0.000
 RMSDP=4.36D-07 MaxDP=3.04D-05 DE=-2.52D-07 OVMax= 2.65D-04

 Cycle  13  Pass 1  IDiag  1:
 RMSU=  1.65D-07    CP:  9.64D-01  1.50D+00  6.89D-01  6.29D-01  8.92D-01
                    CP:  9.32D-01  1.15D+00  1.30D+00  1.66D+00  1.98D+00
                    CP:  1.62D+00  1.28D+00
 E= -4069.81185853548     Delta-E=       -0.000000088763 Rises=F Damp=F
 DIIS: error= 1.50D-06 at cycle  13 NSaved=  13.
 NSaved=13 IEnMin=13 EnMin= -4069.81185853548     IErMin=13 ErrMin= 1.50D-06
 ErrMax= 1.50D-06  0.00D+00 EMaxC= 1.00D-01 BMatC= 8.03D-09 BMatP= 1.33D-08
 IDIUse=1 WtCom= 1.00D+00 WtEn= 0.00D+00
 Coeff-Com:  0.119D-03-0.243D-03-0.366D-03-0.452D-03 0.552D-03 0.514D-02
 Coeff-Com:  0.199D-01 0.225D-01-0.364D-01-0.239D+00-0.158D+00 0.623D+00
 Coeff-Com:  0.762D+00
 Coeff:      0.119D-03-0.243D-03-0.366D-03-0.452D-03 0.552D-03 0.514D-02
 Coeff:      0.199D-01 0.225D-01-0.364D-01-0.239D+00-0.158D+00 0.623D+00
 Coeff:      0.762D+00
 Gap=     0.122 Goal=   None    Shift=    0.000
 RMSDP=3.26D-07 MaxDP=2.12D-05 DE=-8.88D-08 OVMax= 1.72D-04

 Cycle  14  Pass 1  IDiag  1:
 RMSU=  7.69D-08    CP:  9.64D-01  1.50D+00  6.89D-01  6.30D-01  8.93D-01
                    CP:  9.32D-01  1.16D+00  1.32D+00  1.73D+00  2.16D+00
                    CP:  1.87D+00  1.79D+00  1.06D+00
 E= -4069.81185856959     Delta-E=       -0.000000034117 Rises=F Damp=F
 DIIS: error= 9.97D-07 at cycle  14 NSaved=  14.
 NSaved=14 IEnMin=14 EnMin= -4069.81185856959     IErMin=14 ErrMin= 9.97D-07
 ErrMax= 9.97D-07  0.00D+00 EMaxC= 1.00D-01 BMatC= 1.17D-09 BMatP= 8.03D-09
 IDIUse=1 WtCom= 1.00D+00 WtEn= 0.00D+00
 Coeff-Com:  0.664D-04-0.131D-03-0.246D-03-0.385D-03-0.485D-03 0.137D-02
 Coeff-Com:  0.110D-01 0.192D-01 0.211D-02-0.997D-01-0.146D+00 0.114D+00
 Coeff-Com:  0.390D+00 0.709D+00
 Coeff:      0.664D-04-0.131D-03-0.246D-03-0.385D-03-0.485D-03 0.137D-02
 Coeff:      0.110D-01 0.192D-01 0.211D-02-0.997D-01-0.146D+00 0.114D+00
 Coeff:      0.390D+00 0.709D+00
 Gap=     0.122 Goal=   None    Shift=    0.000
 RMSDP=1.01D-07 MaxDP=6.80D-06 DE=-3.41D-08 OVMax= 6.85D-05

 Cycle  15  Pass 1  IDiag  1:
 RMSU=  3.91D-08    CP:  9.64D-01  1.50D+00  6.89D-01  6.30D-01  8.93D-01
                    CP:  9.32D-01  1.16D+00  1.33D+00  1.75D+00  2.20D+00
                    CP:  1.98D+00  1.93D+00  1.30D+00  9.98D-01
 E= -4069.81185857358     Delta-E=       -0.000000003991 Rises=F Damp=F
 DIIS: error= 5.40D-07 at cycle  15 NSaved=  15.
 NSaved=15 IEnMin=15 EnMin= -4069.81185857358     IErMin=15 ErrMin= 5.40D-07
 ErrMax= 5.40D-07  0.00D+00 EMaxC= 1.00D-01 BMatC= 2.78D-10 BMatP= 1.17D-09
 IDIUse=1 WtCom= 1.00D+00 WtEn= 0.00D+00
 Coeff-Com:  0.841D-05-0.149D-04-0.441D-04-0.999D-04-0.334D-03-0.445D-03
 Coeff-Com:  0.165D-02 0.365D-02 0.889D-02-0.179D-02-0.399D-01-0.633D-01
 Coeff-Com:  0.318D-01 0.349D+00 0.711D+00
 Coeff:      0.841D-05-0.149D-04-0.441D-04-0.999D-04-0.334D-03-0.445D-03
 Coeff:      0.165D-02 0.365D-02 0.889D-02-0.179D-02-0.399D-01-0.633D-01
 Coeff:      0.318D-01 0.349D+00 0.711D+00
 Gap=     0.122 Goal=   None    Shift=    0.000
 RMSDP=4.06D-08 MaxDP=2.59D-06 DE=-3.99D-09 OVMax= 2.35D-05

 Cycle  16  Pass 1  IDiag  1:
 RMSU=  1.91D-08    CP:  9.64D-01  1.50D+00  6.89D-01  6.30D-01  8.93D-01
                    CP:  9.32D-01  1.16D+00  1.33D+00  1.75D+00  2.22D+00
                    CP:  2.00D+00  2.00D+00  1.37D+00  1.22D+00  1.11D+00
 E= -4069.81185857444     Delta-E=       -0.000000000855 Rises=F Damp=F
 DIIS: error= 2.39D-07 at cycle  16 NSaved=  16.
 NSaved=16 IEnMin=16 EnMin= -4069.81185857444     IErMin=16 ErrMin= 2.39D-07
 ErrMax= 2.39D-07  0.00D+00 EMaxC= 1.00D-01 BMatC= 7.82D-11 BMatP= 2.78D-10
 IDIUse=1 WtCom= 1.00D+00 WtEn= 0.00D+00
 Coeff-Com: -0.136D-04 0.276D-04 0.444D-04 0.491D-04-0.393D-04-0.636D-03
 Coeff-Com: -0.195D-02-0.397D-02 0.489D-02 0.252D-01 0.177D-01-0.640D-01
 Coeff-Com: -0.894D-01 0.183D-02 0.365D+00 0.746D+00
 Coeff:     -0.136D-04 0.276D-04 0.444D-04 0.491D-04-0.393D-04-0.636D-03
 Coeff:     -0.195D-02-0.397D-02 0.489D-02 0.252D-01 0.177D-01-0.640D-01
 Coeff:     -0.894D-01 0.183D-02 0.365D+00 0.746D+00
 Gap=     0.122 Goal=   None    Shift=    0.000
 RMSDP=2.41D-08 MaxDP=1.85D-06 DE=-8.55D-10 OVMax= 1.80D-05

 Cycle  17  Pass 1  IDiag  1:
 RMSU=  1.21D-08    CP:  9.64D-01  1.50D+00  6.89D-01  6.30D-01  8.93D-01
                    CP:  9.32D-01  1.16D+00  1.33D+00  1.75D+00  2.22D+00
                    CP:  2.02D+00  2.02D+00  1.42D+00  1.32D+00  1.41D+00
                    CP:  1.17D+00
 E= -4069.81185857487     Delta-E=       -0.000000000429 Rises=F Damp=F
 DIIS: error= 1.20D-07 at cycle  17 NSaved=  17.
 NSaved=17 IEnMin=17 EnMin= -4069.81185857487     IErMin=17 ErrMin= 1.20D-07
 ErrMax= 1.20D-07  0.00D+00 EMaxC= 1.00D-01 BMatC= 2.56D-11 BMatP= 7.82D-11
 IDIUse=1 WtCom= 1.00D+00 WtEn= 0.00D+00
 Coeff-Com: -0.914D-05 0.180D-04 0.350D-04 0.504D-04 0.785D-04-0.211D-03
 Coeff-Com: -0.131D-02-0.330D-02 0.792D-03 0.132D-01 0.201D-01-0.153D-01
 Coeff-Com: -0.540D-01-0.930D-01-0.274D-01 0.399D+00 0.761D+00
 Coeff:     -0.914D-05 0.180D-04 0.350D-04 0.504D-04 0.785D-04-0.211D-03
 Coeff:     -0.131D-02-0.330D-02 0.792D-03 0.132D-01 0.201D-01-0.153D-01
 Coeff:     -0.540D-01-0.930D-01-0.274D-01 0.399D+00 0.761D+00
 Gap=     0.122 Goal=   None    Shift=    0.000
 RMSDP=1.43D-08 MaxDP=9.41D-07 DE=-4.29D-10 OVMax= 8.02D-06

 Cycle  18  Pass 1  IDiag  1:
 RMSU=  5.64D-09    CP:  9.64D-01  1.50D+00  6.89D-01  6.30D-01  8.93D-01
                    CP:  9.32D-01  1.16D+00  1.33D+00  1.75D+00  2.23D+00
                    CP:  2.02D+00  2.03D+00  1.44D+00  1.39D+00  1.58D+00
                    CP:  1.57D+00  1.27D+00
 E= -4069.81185857480     Delta-E=        0.000000000069 Rises=F Damp=F
 DIIS: error= 7.98D-08 at cycle  18 NSaved=  18.
 NSaved=18 IEnMin=17 EnMin= -4069.81185857487     IErMin=18 ErrMin= 7.98D-08
 ErrMax= 7.98D-08  0.00D+00 EMaxC= 1.00D-01 BMatC= 7.07D-12 BMatP= 2.56D-11
 IDIUse=1 WtCom= 1.00D+00 WtEn= 0.00D+00
 Coeff-Com:  0.204D-06-0.768D-06 0.231D-05 0.788D-05 0.690D-04 0.134D-03
 Coeff-Com:  0.126D-03-0.430D-03-0.115D-02-0.327D-02 0.369D-02 0.169D-01
 Coeff-Com:  0.659D-02-0.456D-01-0.156D+00-0.520D-01 0.349D+00 0.882D+00
 Coeff:      0.204D-06-0.768D-06 0.231D-05 0.788D-05 0.690D-04 0.134D-03
 Coeff:      0.126D-03-0.430D-03-0.115D-02-0.327D-02 0.369D-02 0.169D-01
 Coeff:      0.659D-02-0.456D-01-0.156D+00-0.520D-01 0.349D+00 0.882D+00
 Gap=     0.122 Goal=   None    Shift=    0.000
 RMSDP=1.06D-08 MaxDP=8.36D-07 DE= 6.91D-11 OVMax= 7.22D-06

 Cycle  19  Pass 1  IDiag  1:
 RMSU=  3.33D-09    CP:  9.64D-01  1.50D+00  6.89D-01  6.30D-01  8.93D-01
                    CP:  9.32D-01  1.16D+00  1.33D+00  1.75D+00  2.23D+00
                    CP:  2.02D+00  2.04D+00  1.45D+00  1.43D+00  1.71D+00
                    CP:  1.83D+00  1.75D+00  1.17D+00
 E= -4069.81185857486     Delta-E=       -0.000000000062 Rises=F Damp=F
 DIIS: error= 3.49D-08 at cycle  19 NSaved=  19.
 NSaved=19 IEnMin=17 EnMin= -4069.81185857487     IErMin=19 ErrMin= 3.49D-08
 ErrMax= 3.49D-08  0.00D+00 EMaxC= 1.00D-01 BMatC= 3.26D-12 BMatP= 7.07D-12
 IDIUse=1 WtCom= 1.00D+00 WtEn= 0.00D+00
 Coeff-Com:  0.341D-05-0.691D-05-0.112D-04-0.134D-04 0.201D-04 0.160D-03
 Coeff-Com:  0.579D-03 0.896D-03-0.921D-03-0.718D-02-0.511D-02 0.166D-01
 Coeff-Com:  0.243D-01 0.515D-02-0.986D-01-0.189D+00-0.902D-01 0.578D+00
 Coeff-Com:  0.765D+00
 Coeff:      0.341D-05-0.691D-05-0.112D-04-0.134D-04 0.201D-04 0.160D-03
 Coeff:      0.579D-03 0.896D-03-0.921D-03-0.718D-02-0.511D-02 0.166D-01
 Coeff:      0.243D-01 0.515D-02-0.986D-01-0.189D+00-0.902D-01 0.578D+00
 Coeff:      0.765D+00
 Gap=     0.122 Goal=   None    Shift=    0.000
 RMSDP=7.35D-09 MaxDP=4.93D-07 DE=-6.18D-11 OVMax= 3.95D-06

 SCF Done:  E(RCAM-B3LYP) =  -4069.81185857     A.U. after   19 cycles
            NFock= 19  Conv=0.74D-08     -V/T= 2.0102
 KE= 4.028801785719D+03 PE=-3.795504075945D+04 EE= 1.561938419401D+04
 Leave Link  502 at Sat Sep 11 08:44:48 2021, MaxMem= 23488102400 cpu:           12216.7 elap:             532.8
 (Enter /sw/apps/gaussian-16.0/g16/l801.exe)
 DoSCS=F DFT=T ScalE2(SS,OS)=  1.000000  1.000000
 ExpMin= 3.36D-02 ExpMax= 4.95D+03 ExpMxC= 7.45D+02 IAcc=3 IRadAn=         5 AccDes= 0.00D+00
 HarFok:  IExCor=  205 AccDes= 0.00D+00 IRadAn=         5 IDoV=-2 UseB2=F ITyADJ=14
 ICtDFT= 12500011 ScaDFX=  1.000000  1.000000  1.000000  1.000000
 GSVD:  LWork=       -9588 too small for GESVD, short by       45590 words or       45590 for optimal perf.
 Largest valence mixing into a core orbital is  2.03D-04
 Largest core mixing into a valence orbital is  5.25D-05
 Range of M.O.s used for correlation:    95  1572
 NBasis=  1572 NAE=   312 NBE=   312 NFC=    94 NFV=     0
 NROrb=   1478 NOA=   218 NOB=   218 NVA=  1260 NVB=  1260
 Leave Link  801 at Sat Sep 11 08:44:48 2021, MaxMem= 23488102400 cpu:               8.5 elap:               0.4
 (Enter /sw/apps/gaussian-16.0/g16/l914.exe)
 RHF ground state
 Two-electron integrals replicated using symmetry.
 MDV= 23488102400 DFT=T DoStab=F Mixed=T DoRPA=T DoScal=F NonHer=T
 Making orbital integer symmetry assigments:
 Orbital symmetries:
       Occupied  (A) (A) (A) (A) (A) (A) (A) (A) (A) (A) (A) (A)
                 (A) (A) (A) (A) (A) (A) (A) (A) (A) (A) (A) (A)
                 (A) (A) (A) (A) (A) (A) (A) (A) (A) (A) (A) (A)
                 (A) (A) (A) (A) (A) (A) (A) (A) (A) (A) (A) (A)
                 (A) (A) (A) (A) (A) (A) (A) (A) (A) (A) (A) (A)
                 (A) (A) (A) (A) (A) (A) (A) (A) (A) (A) (A) (A)
                 (A) (A) (A) (A) (A) (A) (A) (A) (A) (A) (A) (A)
                 (A) (A) (A) (A) (A) (A) (A) (A) (A) (A) (A) (A)
                 (A) (A) (A) (A) (A) (A) (A) (A) (A) (A) (A) (A)
                 (A) (A) (A) (A) (A) (A) (A) (A) (A) (A) (A) (A)
                 (A) (A) (A) (A) (A) (A) (A) (A) (A) (A) (A) (A)
                 (A) (A) (A) (A) (A) (A) (A) (A) (A) (A) (A) (A)
                 (A) (A) (A) (A) (A) (A) (A) (A) (A) (A) (A) (A)
                 (A) (A) (A) (A) (A) (A) (A) (A) (A) (A) (A) (A)
                 (A) (A) (A) (A) (A) (A) (A) (A) (A) (A) (A) (A)
                 (A) (A) (A) (A) (A) (A) (A) (A) (A) (A) (A) (A)
                 (A) (A) (A) (A) (A) (A) (A) (A) (A) (A) (A) (A)
                 (A) (A) (A) (A) (A) (A) (A) (A) (A) (A) (A) (A)
                 (A) (A) (A) (A) (A) (A) (A) (A) (A) (A) (A) (A)
                 (A) (A) (A) (A) (A) (A) (A) (A) (A) (A) (A) (A)
                 (A) (A) (A) (A) (A) (A) (A) (A) (A) (A) (A) (A)
                 (A) (A) (A) (A) (A) (A) (A) (A) (A) (A) (A) (A)
                 (A) (A) (A) (A) (A) (A) (A) (A) (A) (A) (A) (A)
                 (A) (A) (A) (A) (A) (A) (A) (A) (A) (A) (A) (A)
                 (A) (A) (A) (A) (A) (A) (A) (A) (A) (A) (A) (A)
                 (A) (A) (A) (A) (A) (A) (A) (A) (A) (A) (A) (A)
       Virtual   (A) (A) (A) (A) (A) (A) (A) (A) (A) (A) (A) (A)
                 (A) (A) (A) (A) (A) (A) (A) (A) (A) (A) (A) (A)
                 (A) (A) (A) (A) (A) (A) (A) (A) (A) (A) (A) (A)
                 (A) (A) (A) (A) (A) (A) (A) (A) (A) (A) (A) (A)
                 (A) (A) (A) (A) (A) (A) (A) (A) (A) (A) (A) (A)
                 (A) (A) (A) (A) (A) (A) (A) (A) (A) (A) (A) (A)
                 (A) (A) (A) (A) (A) (A) (A) (A) (A) (A) (A) (A)
                 (A) (A) (A) (A) (A) (A) (A) (A) (A) (A) (A) (A)
                 (A) (A) (A) (A) (A) (A) (A) (A) (A) (A) (A) (A)
                 (A) (A) (A) (A) (A) (A) (A) (A) (A) (A) (A) (A)
                 (A) (A) (A) (A) (A) (A) (A) (A) (A) (A) (A) (A)
                 (A) (A) (A) (A) (A) (A) (A) (A) (A) (A) (A) (A)
                 (A) (A) (A) (A) (A) (A) (A) (A) (A) (A) (A) (A)
                 (A) (A) (A) (A) (A) (A) (A) (A) (A) (A) (A) (A)
                 (A) (A) (A) (A) (A) (A) (A) (A) (A) (A) (A) (A)
                 (A) (A) (A) (A) (A) (A) (A) (A) (A) (A) (A) (A)
                 (A) (A) (A) (A) (A) (A) (A) (A) (A) (A) (A) (A)
                 (A) (A) (A) (A) (A) (A) (A) (A) (A) (A) (A) (A)
                 (A) (A) (A) (A) (A) (A) (A) (A) (A) (A) (A) (A)
                 (A) (A) (A) (A) (A) (A) (A) (A) (A) (A) (A) (A)
                 (A) (A) (A) (A) (A) (A) (A) (A) (A) (A) (A) (A)
                 (A) (A) (A) (A) (A) (A) (A) (A) (A) (A) (A) (A)
                 (A) (A) (A) (A) (A) (A) (A) (A) (A) (A) (A) (A)
                 (A) (A) (A) (A) (A) (A) (A) (A) (A) (A) (A) (A)
                 (A) (A) (A) (A) (A) (A) (A) (A) (A) (A) (A) (A)
                 (A) (A) (A) (A) (A) (A) (A) (A) (A) (A) (A) (A)
                 (A) (A) (A) (A) (A) (A) (A) (A) (A) (A) (A) (A)
                 (A) (A) (A) (A) (A) (A) (A) (A) (A) (A) (A) (A)
                 (A) (A) (A) (A) (A) (A) (A) (A) (A) (A) (A) (A)
                 (A) (A) (A) (A) (A) (A) (A) (A) (A) (A) (A) (A)
                 (A) (A) (A) (A) (A) (A) (A) (A) (A) (A) (A) (A)
                 (A) (A) (A) (A) (A) (A) (A) (A) (A) (A) (A) (A)
                 (A) (A) (A) (A) (A) (A) (A) (A) (A) (A) (A) (A)
                 (A) (A) (A) (A) (A) (A) (A) (A) (A) (A) (A) (A)
                 (A) (A) (A) (A) (A) (A) (A) (A) (A) (A) (A) (A)
                 (A) (A) (A) (A) (A) (A) (A) (A) (A) (A) (A) (A)
                 (A) (A) (A) (A) (A) (A) (A) (A) (A) (A) (A) (A)
                 (A) (A) (A) (A) (A) (A) (A) (A) (A) (A) (A) (A)
                 (A) (A) (A) (A) (A) (A) (A) (A) (A) (A) (A) (A)
                 (A) (A) (A) (A) (A) (A) (A) (A) (A) (A) (A) (A)
                 (A) (A) (A) (A) (A) (A) (A) (A) (A) (A) (A) (A)
                 (A) (A) (A) (A) (A) (A) (A) (A) (A) (A) (A) (A)
                 (A) (A) (A) (A) (A) (A) (A) (A) (A) (A) (A) (A)
                 (A) (A) (A) (A) (A) (A) (A) (A) (A) (A) (A) (A)
                 (A) (A) (A) (A) (A) (A) (A) (A) (A) (A) (A) (A)
                 (A) (A) (A) (A) (A) (A) (A) (A) (A) (A) (A) (A)
                 (A) (A) (A) (A) (A) (A) (A) (A) (A) (A) (A) (A)
                 (A) (A) (A) (A) (A) (A) (A) (A) (A) (A) (A) (A)
                 (A) (A) (A) (A) (A) (A) (A) (A) (A) (A) (A) (A)
                 (A) (A) (A) (A) (A) (A) (A) (A) (A) (A) (A) (A)
                 (A) (A) (A) (A) (A) (A) (A) (A) (A) (A) (A) (A)
                 (A) (A) (A) (A) (A) (A) (A) (A) (A) (A) (A) (A)
                 (A) (A) (A) (A) (A) (A) (A) (A) (A) (A) (A) (A)
                 (A) (A) (A) (A) (A) (A) (A) (A) (A) (A) (A) (A)
                 (A) (A) (A) (A) (A) (A) (A) (A) (A) (A) (A) (A)
                 (A) (A) (A) (A) (A) (A) (A) (A) (A) (A) (A) (A)
                 (A) (A) (A) (A) (A) (A) (A) (A) (A) (A) (A) (A)
                 (A) (A) (A) (A) (A) (A) (A) (A) (A) (A) (A) (A)
                 (A) (A) (A) (A) (A) (A) (A) (A) (A) (A) (A) (A)
                 (A) (A) (A) (A) (A) (A) (A) (A) (A) (A) (A) (A)
                 (A) (A) (A) (A) (A) (A) (A) (A) (A) (A) (A) (A)
                 (A) (A) (A) (A) (A) (A) (A) (A) (A) (A) (A) (A)
                 (A) (A) (A) (A) (A) (A) (A) (A) (A) (A) (A) (A)
                 (A) (A) (A) (A) (A) (A) (A) (A) (A) (A) (A) (A)
                 (A) (A) (A) (A) (A) (A) (A) (A) (A) (A) (A) (A)
                 (A) (A) (A) (A) (A) (A) (A) (A) (A) (A) (A) (A)
                 (A) (A) (A) (A) (A) (A) (A) (A) (A) (A) (A) (A)
                 (A) (A) (A) (A) (A) (A) (A) (A) (A) (A) (A) (A)
                 (A) (A) (A) (A) (A) (A) (A) (A) (A) (A) (A) (A)
                 (A) (A) (A) (A) (A) (A) (A) (A) (A) (A) (A) (A)
                 (A) (A) (A) (A) (A) (A) (A) (A) (A) (A) (A) (A)
                 (A) (A) (A) (A) (A) (A) (A) (A) (A) (A) (A) (A)
                 (A) (A) (A) (A) (A) (A) (A) (A) (A) (A) (A) (A)
                 (A) (A) (A) (A) (A) (A) (A) (A) (A) (A) (A) (A)
                 (A) (A) (A) (A) (A) (A) (A) (A) (A) (A) (A) (A)
                 (A) (A) (A) (A) (A) (A) (A) (A) (A) (A) (A) (A)
                 (A) (A) (A) (A) (A) (A) (A) (A) (A) (A) (A) (A)
                 (A) (A) (A) (A) (A) (A) (A) (A) (A) (A) (A) (A)
                 (A) (A) (A) (A) (A) (A) (A) (A) (A) (A) (A) (A)
                 (A) (A) (A) (A) (A) (A) (A) (A) (A) (A) (A) (A)
                 (A) (A) (A) (A) (A) (A) (A) (A) (A) (A) (A) (A)
                 (A) (A) (A) (A) (A) (A) (A) (A) (A) (A) (A) (A)
                 (A) (A) (A) (A) (A) (A) (A) (A) (A) (A) (A) (A)
                 (A) (A) (A) (A) (A) (A) (A) (A) (A) (A) (A) (A)
                 (A) (A) (A) (A) (A) (A) (A) (A) (A) (A) (A) (A)
                 (A) (A) (A) (A) (A) (A) (A) (A) (A) (A) (A) (A)
                 (A) (A) (A) (A) (A) (A) (A) (A) (A) (A) (A) (A)
                 (A) (A) (A) (A) (A) (A) (A) (A) (A) (A) (A) (A)
                 (A) (A) (A) (A) (A) (A) (A) (A) (A) (A) (A) (A)
                 (A) (A) (A) (A) (A) (A) (A) (A) (A) (A) (A) (A)
                 (A) (A) (A) (A) (A) (A) (A) (A) (A) (A) (A) (A)
                 (A) (A) (A) (A) (A) (A) (A) (A) (A) (A) (A) (A)
                 (A) (A) (A) (A) (A) (A) (A) (A) (A) (A) (A) (A)
                 (A) (A) (A) (A) (A) (A) (A) (A) (A) (A) (A) (A)
                 (A) (A) (A) (A) (A) (A) (A) (A) (A) (A) (A) (A)
                 (A) (A) (A) (A) (A) (A) (A) (A) (A) (A) (A) (A)
                 (A) (A) (A) (A) (A) (A) (A) (A) (A) (A) (A) (A)
                 (A) (A) (A) (A) (A) (A) (A) (A) (A) (A) (A) (A)
                 (A) (A) (A) (A) (A) (A) (A) (A) (A) (A) (A) (A)
                 (A) (A) (A) (A) (A) (A) (A) (A) (A) (A) (A) (A)
                 (A) (A) (A) (A) (A) (A) (A) (A) (A) (A) (A) (A)
                 (A) (A) (A) (A) (A) (A) (A) (A) (A) (A) (A) (A)
                 (A) (A) (A) (A) (A) (A) (A) (A) (A) (A) (A) (A)
                 (A) (A) (A) (A) (A) (A) (A) (A) (A) (A) (A) (A)
                 (A) (A) (A) (A) (A) (A) (A) (A) (A) (A) (A) (A)
    20 initial guesses have been made.
 Convergence on wavefunction:    0.001000000000000
 Davidson Disk Diagonalization:  ConvIn= 1.00D-03 SkipCon=T Conv= 1.00D-03.
 Max sub-space:  2000 roots to seek:    20 dimension of matrix:       549360
 Iteration     1 Dimension    20 NMult     0 NNew     20
 CISAX will form    20 AO SS matrices at one time.
 NMat=    20 NSing=    20 JSym2X= 0.
 FoFJK:  IHMeth= 1 ICntrl=       0 DoSepK=T KAlg= 0 I1Cent=           0 FoldK=F
 IRaf=         1 NMat=      40 IRICut=       1 DoRegI=T DoRafI=F ISym2E= 0 IDoP0=3 IntGTp=3.
 FoFCou: FMM=T IPFlag=           0 FMFlag=      100000 FMFlg1=        2001
         NFxFlg=           0 DoJE=F BraDBF=F KetDBF=F FulRan=T
         wScrn=  0.000000 ICntrl=       500 IOpCl=  0 I1Cent=           0 NGrid=           0
         NMat0=   20 NMatS0=     20 NMatT0=    0 NMatD0=   20 NMtDS0=    0 NMtDT0=    0
 Symmetry not used in FoFCou.
 FMM levels:  10  Number of levels for PrismC:   9
 New state      1 was old state      7
 New state      2 was old state      6
 New state      3 was old state      1
 New state      4 was old state      2
 New state      5 was old state      3
 Excitation Energies [eV] at current iteration:
 Root      1 :     2.613585395227608
 Root      2 :     2.619062771924314
 Root      3 :     2.651151610364770
 Root      4 :     2.665216957813332
 Root      5 :     2.705346718647029
 Root      6 :     2.737969305496497
 Root      7 :     3.440621834171161
 Root      8 :     3.538728411155506
 Root      9 :     3.632439957279892
 Root     10 :     3.669112505558063
 Root     11 :     3.735407936058939
 Root     12 :     3.758220710059666
 Root     13 :     4.289560059175606
 Root     14 :     4.321337163434857
 Root     15 :     4.555893337477498
 Root     16 :     4.672923793650480
 Root     17 :     4.870265511495272
 Root     18 :     4.904327142168226
 Root     19 :     4.963856637833628
 Root     20 :     4.995895687705189
 Iteration     2 Dimension    30 NMult    20 NNew     10
 CISAX will form    10 AO SS matrices at one time.
 NMat=    10 NSing=    10 JSym2X= 0.
 New state      1 was old state      4
 Root      1 not converged, maximum delta is    0.154282028367897
 New state      2 was old state      5
 Root      2 not converged, maximum delta is    0.158257245373125
 New state      3 was old state      1
 Root      3 not converged, maximum delta is    0.274679787858005
 New state      4 was old state      2
 Root      4 not converged, maximum delta is    0.265459547609489
 New state      5 was old state      3
 Root      5 not converged, maximum delta is    0.001352975480807
 Excitation Energies [eV] at current iteration:
 Root      1 :     1.794170281150224   Change is   -0.871046676663108
 Root      2 :     1.813335701116010   Change is   -0.892011017531019
 Root      3 :     2.234190342164431   Change is   -0.379395053063176
 Root      4 :     2.240528711272617   Change is   -0.378534060651697
 Root      5 :     2.650978421059075   Change is   -0.000173189305695
 Iteration     3 Dimension    40 NMult    30 NNew     10
 CISAX will form    10 AO SS matrices at one time.
 NMat=    10 NSing=    10 JSym2X= 0.
 Root      1 not converged, maximum delta is    0.056809088839117
 Root      2 not converged, maximum delta is    0.057601658313206
 Root      3 not converged, maximum delta is    0.069615233941323
 Root      4 not converged, maximum delta is    0.069202191755938
 Root      5 has converged.
 Excitation Energies [eV] at current iteration:
 Root      1 :     1.687430962190412   Change is   -0.106739318959812
 Root      2 :     1.704658762661741   Change is   -0.108676938454269
 Root      3 :     2.193265550471450   Change is   -0.040924791692982
 Root      4 :     2.201094065829153   Change is   -0.039434645443464
 Root      5 :     2.650977595247865   Change is   -0.000000825811210
 Iteration     4 Dimension    48 NMult    40 NNew      8
 CISAX will form     8 AO SS matrices at one time.
 NMat=     8 NSing=     8 JSym2X= 0.
 Root      1 not converged, maximum delta is    0.010985039468875
 Root      2 not converged, maximum delta is    0.010921066263825
 Root      3 not converged, maximum delta is    0.011980455432063
 Root      4 not converged, maximum delta is    0.011835984756618
 Root      5 has converged.
 Excitation Energies [eV] at current iteration:
 Root      1 :     1.670710027655655   Change is   -0.016720934534757
 Root      2 :     1.687782743085512   Change is   -0.016876019576229
 Root      3 :     2.186048154681174   Change is   -0.007217395790275
 Root      4 :     2.194254573089419   Change is   -0.006839492739734
 Root      5 :     2.650977595247121   Change is   -0.000000000000744
 Iteration     5 Dimension    56 NMult    48 NNew      8
 CISAX will form     8 AO SS matrices at one time.
 NMat=     8 NSing=     8 JSym2X= 0.
 Root      1 not converged, maximum delta is    0.001783528228296
 Root      2 not converged, maximum delta is    0.001786347199873
 Root      3 not converged, maximum delta is    0.002441354474593
 Root      4 not converged, maximum delta is    0.002313276497683
 Root      5 has converged.
 Excitation Energies [eV] at current iteration:
 Root      1 :     1.668949783967481   Change is   -0.001760243688174
 Root      2 :     1.685992993819582   Change is   -0.001789749265930
 Root      3 :     2.185209715598249   Change is   -0.000838439082925
 Root      4 :     2.193470154544452   Change is   -0.000784418544967
 Root      5 :     2.650977595246439   Change is   -0.000000000000682
 Iteration     6 Dimension    64 NMult    56 NNew      8
 CISAX will form     8 AO SS matrices at one time.
 NMat=     8 NSing=     8 JSym2X= 0.
 Root      1 not converged, maximum delta is    0.001105874054915
 Root      2 not converged, maximum delta is    0.001115629894145
 Root      3 not converged, maximum delta is    0.001025327388931
 Root      4 has converged.
 Root      5 has converged.
 Excitation Energies [eV] at current iteration:
 Root      1 :     1.668699014791042   Change is   -0.000250769176439
 Root      2 :     1.685736098906487   Change is   -0.000256894913095
 Root      3 :     2.185082913674807   Change is   -0.000126801923441
 Root      4 :     2.193350842881860   Change is   -0.000119311662592
 Root      5 :     2.650977595246129   Change is   -0.000000000000310
 Iteration     7 Dimension    70 NMult    64 NNew      6
 CISAX will form     6 AO SS matrices at one time.
 NMat=     6 NSing=     6 JSym2X= 0.
 Root      1 has converged.
 Root      2 has converged.
 Root      3 has converged.
 Root      4 has converged.
 Root      5 has converged.
 Excitation Energies [eV] at current iteration:
 Root      1 :     1.668674647308763   Change is   -0.000024367482279
[...]
 Alpha virt. eigenvalues --    1.83557   1.83733   1.83961   1.84000   1.84253
 Alpha virt. eigenvalues --    1.84420   1.84585   1.84798   1.84841   1.85057
 Alpha virt. eigenvalues --    1.85177   1.85254   1.85398   1.85471   1.85543
 Alpha virt. eigenvalues --    1.85844   1.85954   1.86330   1.86450   1.86532
 Alpha virt. eigenvalues --    1.86708   1.86755   1.86903   1.87001   1.87086
 Alpha virt. eigenvalues --    1.87420   1.87529   1.87660   1.87820   1.87843
 Alpha virt. eigenvalues --    1.88016   1.88088   1.88231   1.88520   1.88634
 Alpha virt. eigenvalues --    1.88815   1.88997   1.89086   1.89149   1.89610
 Alpha virt. eigenvalues --    1.89718   1.89731   1.89929   1.90102   1.90241
 Alpha virt. eigenvalues --    1.90729   1.90952   1.91327   1.91415   1.91521
 Alpha virt. eigenvalues --    1.91637   1.92134   1.92226   1.92614   1.92708
 Alpha virt. eigenvalues --    1.92958   1.93210   1.93302   1.93575   1.94241
 Alpha virt. eigenvalues --    1.94371   1.94665   1.94890   1.95428   1.95681
 Alpha virt. eigenvalues --    1.95710   1.95857   1.95978   1.96110   1.96112
 Alpha virt. eigenvalues --    1.96214   1.96538   1.96565   1.96881   1.96994
 Alpha virt. eigenvalues --    1.97419   1.97591   1.97802   1.97845   1.98155
 Alpha virt. eigenvalues --    1.98216   1.98381   1.98661   1.99119   1.99136
 Alpha virt. eigenvalues --    1.99813   1.99976   2.00633   2.00780   2.00982
 Alpha virt. eigenvalues --    2.01143   2.01470   2.01579   2.01637   2.01642
 Alpha virt. eigenvalues --    2.01704   2.01863   2.02762   2.02765   2.03202
 Alpha virt. eigenvalues --    2.03229   2.03388   2.03421   2.03471   2.03561
 Alpha virt. eigenvalues --    2.04014   2.04077   2.04939   2.05033   2.05493
 Alpha virt. eigenvalues --    2.05687   2.06060   2.06334   2.06892   2.07059
 Alpha virt. eigenvalues --    2.07162   2.07393   2.08562   2.08619   2.08966
 Alpha virt. eigenvalues --    2.09045   2.09578   2.09653   2.10729   2.11109
 Alpha virt. eigenvalues --    2.11164   2.11453   2.11527   2.11568   2.11714
 Alpha virt. eigenvalues --    2.11913   2.12448   2.12508   2.12787   2.12814
 Alpha virt. eigenvalues --    2.12859   2.12918   2.13670   2.13762   2.14098
 Alpha virt. eigenvalues --    2.14349   2.15315   2.15459   2.15911   2.16133
 Alpha virt. eigenvalues --    2.16493   2.16650   2.16740   2.17208   2.17390
 Alpha virt. eigenvalues --    2.17680   2.17734   2.17983   2.18031   2.18070
 Alpha virt. eigenvalues --    2.18313   2.18704   2.18856   2.19267   2.19625
 Alpha virt. eigenvalues --    2.19854   2.20027   2.20190   2.20282   2.20480
 Alpha virt. eigenvalues --    2.21103   2.21253   2.21649   2.21729   2.21800
 Alpha virt. eigenvalues --    2.21908   2.22658   2.22752   2.23281   2.23399
 Alpha virt. eigenvalues --    2.24370   2.24473   2.24907   2.25070   2.26285
 Alpha virt. eigenvalues --    2.26480   2.26751   2.27057   2.27087   2.27240
 Alpha virt. eigenvalues --    2.28121   2.28360   2.29247   2.29492   2.29721
 Alpha virt. eigenvalues --    2.29921   2.30440   2.30651   2.30847   2.31056
 Alpha virt. eigenvalues --    2.31168   2.31257   2.32089   2.32306   2.33119
 Alpha virt. eigenvalues --    2.33274   2.33433   2.33533   2.34101   2.34206
 Alpha virt. eigenvalues --    2.35324   2.35354   2.35787   2.35950   2.36307
 Alpha virt. eigenvalues --    2.36376   2.36514   2.36608   2.37616   2.37732
 Alpha virt. eigenvalues --    2.38232   2.38436   2.38814   2.38850   2.39593
 Alpha virt. eigenvalues --    2.39710   2.40141   2.40334   2.40472   2.40860
 Alpha virt. eigenvalues --    2.41245   2.41254   2.41646   2.41739   2.42024
 Alpha virt. eigenvalues --    2.42152   2.42893   2.42899   2.43061   2.43519
 Alpha virt. eigenvalues --    2.44020   2.44152   2.44715   2.44848   2.44882
 Alpha virt. eigenvalues --    2.45032   2.45523   2.45610   2.46284   2.46323
 Alpha virt. eigenvalues --    2.46460   2.46531   2.46784   2.46825   2.47222
 Alpha virt. eigenvalues --    2.47422   2.47686   2.47942   2.49278   2.49461
 Alpha virt. eigenvalues --    2.49942   2.50020   2.50498   2.50510   2.51104
 Alpha virt. eigenvalues --    2.51295   2.51648   2.51869   2.52419   2.52422
 Alpha virt. eigenvalues --    2.52791   2.53199   2.53890   2.54020   2.54127
 Alpha virt. eigenvalues --    2.54341   2.54757   2.54848   2.55494   2.55711
 Alpha virt. eigenvalues --    2.57843   2.58124   2.58613   2.58962   2.60191
 Alpha virt. eigenvalues --    2.60317   2.60598   2.60959   2.61686   2.61870
 Alpha virt. eigenvalues --    2.62467   2.62513   2.62931   2.63162   2.63921
 Alpha virt. eigenvalues --    2.64190   2.64251   2.64507   2.65049   2.65146
 Alpha virt. eigenvalues --    2.65773   2.65887   2.66733   2.66862   2.66887
 Alpha virt. eigenvalues --    2.67099   2.67876   2.68025   2.68831   2.68852
 Alpha virt. eigenvalues --    2.69004   2.69044   2.69347   2.69625   2.69964
 Alpha virt. eigenvalues --    2.70174   2.70949   2.71092   2.71913   2.72027
 Alpha virt. eigenvalues --    2.72499   2.72634   2.72746   2.72810   2.73225
 Alpha virt. eigenvalues --    2.73337   2.73461   2.73513   2.74483   2.74531
 Alpha virt. eigenvalues --    2.74951   2.75077   2.76554   2.76555   2.77081
 Alpha virt. eigenvalues --    2.77212   2.77433   2.77634   2.78163   2.78331
 Alpha virt. eigenvalues --    2.78704   2.78727   2.79108   2.79175   2.80290
 Alpha virt. eigenvalues --    2.80323   2.80573   2.80694   2.81096   2.81165
 Alpha virt. eigenvalues --    2.81916   2.81995   2.82308   2.82366   2.83733
 Alpha virt. eigenvalues --    2.83749   2.83872   2.83905   2.84517   2.84553
 Alpha virt. eigenvalues --    2.84843   2.84931   2.85638   2.85720   2.86674
 Alpha virt. eigenvalues --    2.86961   2.87167   2.87587   2.88134   2.88261
 Alpha virt. eigenvalues --    2.88477   2.88631   2.88892   2.88904   2.90469
 Alpha virt. eigenvalues --    2.90680   2.91114   2.91144   2.93137   2.93341
 Alpha virt. eigenvalues --    2.93797   2.94171   2.94518   2.94613   2.95352
 Alpha virt. eigenvalues --    2.95486   2.95817   2.96177   2.96393   2.96396
 Alpha virt. eigenvalues --    2.96863   2.97155   2.97801   2.98063   2.98194
 Alpha virt. eigenvalues --    2.98333   2.98356   2.98582   2.98590   2.98773
 Alpha virt. eigenvalues --    2.98857   2.98943   2.99539   2.99825   3.00009
 Alpha virt. eigenvalues --    3.00017   3.00201   3.00357   3.00443   3.01011
 Alpha virt. eigenvalues --    3.01935   3.01940   3.02018   3.02129   3.02720
 Alpha virt. eigenvalues --    3.02821   3.02958   3.03304   3.03341   3.03724
 Alpha virt. eigenvalues --    3.04077   3.04116   3.04425   3.04454   3.04503
 Alpha virt. eigenvalues --    3.04722   3.05260   3.05396   3.06086   3.06225
 Alpha virt. eigenvalues --    3.06788   3.06975   3.07956   3.08116   3.09382
 Alpha virt. eigenvalues --    3.09412   3.09671   3.10423   3.10432   3.10756
 Alpha virt. eigenvalues --    3.11283   3.11561   3.11930   3.11941   3.12100
 Alpha virt. eigenvalues --    3.12317   3.13267   3.13598   3.13655   3.13721
 Alpha virt. eigenvalues --    3.14078   3.14452   3.15854   3.16022   3.17240
 Alpha virt. eigenvalues --    3.17526   3.17908   3.18046   3.19052   3.19099
 Alpha virt. eigenvalues --    3.22290   3.22580   3.23927   3.24441   3.24658
 Alpha virt. eigenvalues --    3.25185   3.26481   3.26669   3.27409   3.27598
 Alpha virt. eigenvalues --    3.29086   3.29198   3.31391   3.31503   3.33204
 Alpha virt. eigenvalues --    3.33395   3.40228   3.40618   3.42794   3.42841
 Alpha virt. eigenvalues --    3.48641   3.48699   3.50000   3.50300   3.50854
 Alpha virt. eigenvalues --    3.51452   3.56526   3.57025   3.59069   3.59370
 Alpha virt. eigenvalues --    3.62524   3.62817   3.66144   3.66159   3.67172
 Alpha virt. eigenvalues --    3.67516   3.73258   3.73996   3.76043   3.76657
          Condensed to atoms (all electrons):
 Mulliken charges:
               1
     1  Mg   0.838565
     2  C   -0.002911
     3  C   -0.093799
     4  C   -0.046099
     5  C   -0.064069
     6  N   -0.256778
     7  C   -0.052425
     8  C   -0.014036
     9  C   -0.087044
    10  C    0.046295
    11  C    0.104760
    12  C    0.053413
    13  C   -0.071870
    14  H    0.036045
    15  N   -0.433164
    16  C    0.168377
    17  C   -0.176887
    18  C   -0.004041
    19  C    0.148657
    20  C    0.110055
    21  C    0.012104
    22  O   -0.250079
    23  C    0.062476
    24  N   -0.341067
    25  C    0.041243
    26  C   -0.028138
    27  C   -0.023872
    28  C    0.074630
    29  C    0.076163
    30  C    0.035236
    31  C   -0.004394
    32  N   -0.310471
    33  C    0.080315
    34  C   -0.169744
    35  C    0.008441
    36  C    0.082932
    37  C    0.127321
    38  C    0.046151
    39  O   -0.188279
    40  C   -0.005351
    41  C    0.212967
    42  O   -0.257219
    43  O   -0.304730
    44  C    0.157713
    45  H   -0.017312
    46  H   -0.017090
    47  H   -0.041660
    48  H    0.001028
    49  H   -0.003759
    50  H    0.025498
    51  H    0.016429
    52  H    0.016884
    53  H    0.011370
    54  H    0.043968
    55  H    0.017955
    56  H    0.018247
    57  H    0.006130
    58  H    0.026948
    59  H    0.040081
    60  H    0.037616
    61  H    0.035497
    62  H    0.031857
    63  H    0.016007
    64  H    0.009567
    65  H    0.022999
    66  H    0.012810
    67  H    0.004821
    68  H    0.006028
    69  H    0.004813
    70  H    0.008142
    71  H    0.017342
    72  H    0.029375
    73  H    0.047693
    74  H    0.008909
    75  H    0.046093
    76  H    0.035282
    77  H    0.043056
    78  H    0.046477
    79  H    0.053504
    80  Mg   0.838007
    81  C   -0.017016
    82  C   -0.087836
    83  C   -0.045089
    84  C   -0.064568
    85  N   -0.254621
    86  C   -0.049897
    87  C   -0.015085
    88  C   -0.090519
    89  C    0.045890
    90  C    0.114351
    91  C    0.062539
    92  C   -0.077776
    93  H    0.034501
    94  N   -0.423588
    95  C    0.163160
    96  C   -0.174478
    97  C   -0.007502
    98  C    0.152222
    99  C    0.099327
   100  C    0.015709
   101  O   -0.252711
   102  C    0.061188
   103  N   -0.349985
   104  C    0.037954
   105  C   -0.020162
   106  C   -0.034641
   107  C    0.088909
   108  C    0.073102
   109  C    0.034710
   110  C   -0.007616
   111  N   -0.323993
   112  C    0.078334
   113  C   -0.163349
   114  C    0.001947
   115  C    0.096209
   116  C    0.131557
   117  C    0.042019
   118  O   -0.188730
   119  C    0.001037
   120  C    0.211167
   121  O   -0.251068
   122  O   -0.305690
   123  C    0.152126
   124  H   -0.019655
   125  H   -0.015032
   126  H   -0.040688
   127  H   -0.000845
   128  H   -0.004486
   129  H    0.022321
   130  H    0.014883
   131  H    0.016510
   132  H    0.013881
   133  H    0.037518
   134  H    0.020816
   135  H    0.019579
   136  H    0.008650
   137  H    0.026312
   138  H    0.039629
   139  H    0.038312
   140  H    0.036452
   141  H    0.033628
   142  H    0.014189
   143  H    0.012847
   144  H    0.025424
   145  H    0.013059
   146  H    0.006860
   147  H    0.006443
   148  H    0.003238
   149  H    0.010993
   150  H    0.017529
   151  H    0.029940
   152  H    0.045583
   153  H    0.008445
   154  H    0.046417
   155  H    0.034628
   156  H    0.043537
   157  H    0.049575
   158  H    0.053466
 Sum of Mulliken charges =  -0.00000
 Mulliken charges with hydrogens summed into heavy atoms:
               1
     1  Mg   0.838565
     2  C   -0.002911
     3  C   -0.111111
     4  C   -0.063189
     5  C   -0.105729
     6  N   -0.256778
     7  C   -0.052425
     8  C   -0.013008
     9  C   -0.090803
    10  C    0.046295
    11  C    0.163571
    12  C    0.108751
    13  C    0.000377
    15  N   -0.433164
    16  C    0.168377
    17  C   -0.176887
    18  C   -0.004041
    19  C    0.148657
    20  C    0.183215
    21  C    0.012104
    22  O   -0.250079
    23  C    0.167447
    24  N   -0.341067
    25  C    0.041243
    26  C   -0.012131
    27  C   -0.014305
    28  C    0.074630
    29  C    0.116794
    30  C    0.046077
    31  C    0.050465
    32  N   -0.310471
    33  C    0.080315
    34  C   -0.169744
    35  C    0.008441
    36  C    0.082932
    37  C    0.230015
    38  C    0.046151
    39  O   -0.188279
    40  C    0.029931
    41  C    0.212967
    42  O   -0.257219
    43  O   -0.304730
    44  C    0.300750
    80  Mg   0.838007
    81  C   -0.017016
    82  C   -0.107491
    83  C   -0.060121
    84  C   -0.105256
    85  N   -0.254621
    86  C   -0.049897
    87  C   -0.015930
    88  C   -0.095006
    89  C    0.045890
    90  C    0.168065
    91  C    0.113937
    92  C   -0.002880
    94  N   -0.423588
    95  C    0.163160
    96  C   -0.174478
    97  C   -0.007502
    98  C    0.152222
    99  C    0.173918
   100  C    0.015709
   101  O   -0.252711
   102  C    0.169580
   103  N   -0.349985
   104  C    0.037954
   105  C   -0.005973
   106  C   -0.021794
   107  C    0.088909
   108  C    0.118445
   109  C    0.044392
   110  C    0.050845
   111  N   -0.323993
   112  C    0.078334
   113  C   -0.163349
   114  C    0.001947
   115  C    0.096209
   116  C    0.232001
   117  C    0.042019
   118  O   -0.188730
   119  C    0.035665
   120  C    0.211167
   121  O   -0.251068
   122  O   -0.305690
   123  C    0.298705
 Electronic spatial extent (au):  <R**2>=         150930.4753
 Charge=             -0.0000 electrons
 Dipole moment (field-independent basis, Debye):
    X=              3.6026    Y=              3.5386    Z=              0.8957  Tot=              5.1286
 Quadrupole moment (field-independent basis, Debye-Ang):
   XX=           -521.4783   YY=           -534.5729   ZZ=           -463.1057
   XY=             17.8155   XZ=            -56.3364   YZ=             31.5627
 Traceless Quadrupole moment (field-independent basis, Debye-Ang):
   XX=            -15.0927   YY=            -28.1873   ZZ=             43.2800
   XY=             17.8155   XZ=            -56.3364   YZ=             31.5627
 Octapole moment (field-independent basis, Debye-Ang**2):
  XXX=            493.1547  YYY=            177.8172  ZZZ=            193.8140  XYY=           -256.0089
  XXY=            184.6004  XXZ=            106.3336  XZZ=            254.6914  YZZ=            -89.3931
  YYZ=           -288.0727  XYZ=           -211.8883
 Hexadecapole moment (field-independent basis, Debye-Ang**3):
 XXXX=        -141910.7367 YYYY=         -39698.6777 ZZZZ=         -26485.0454 XXXY=            621.2800
 XXXZ=          -3457.4250 YYYX=          -1764.5796 YYYZ=            518.7789 ZZZX=          -1166.2725
 ZZZY=            463.4851 XXYY=         -30250.2340 XXZZ=         -25977.4230 YYZZ=         -10885.6671
 XXYZ=           1335.8539 YYXZ=           -483.7950 ZZXY=            572.8078
 N-N= 1.423704292114D+04 E-N=-3.795504075822D+04  KE= 4.028801785719D+03
 Leave Link  601 at Sat Sep 11 09:06:15 2021, MaxMem= 23488102400 cpu:              16.6 elap:               0.8
 (Enter /sw/apps/gaussian-16.0/g16/l9999.exe)
 1\1\GINC-BP1-COMPUTE00091\SP\RCAM-B3LYP TD-FC\def2SVP\C68H72Mg2N8O8\OF
 15641\11-Sep-2021\0\\#p cam-b3lyp/Def2SVP td=(nstates=5)\\TDDFT excite
 d states in gaussian\\0,1\Mg,0,0.,0.,0.\C,0,-0.217,-2.218,2.801\C,0,-1
 .255,2.442,2.026\C,0,-0.245,1.85,-2.564\C,0,0.146,-2.824,-2.037\N,0,-0
 .617,-0.009,2.126\C,0,-0.594,-0.908,3.105\C,0,-0.936,-0.309,4.502\C,0,
 -1.773,0.964,4.032\C,0,-1.155,1.168,2.66\C,0,-3.263,0.685,3.863\C,0,0.
 345,0.11,5.299\C,0,0.124,0.397,6.787\H,0,1.168,0.033,7.733\N,0,-0.185,
 1.961,-0.152\C,0,-0.703,2.8,0.777\C,0,-0.62,4.156,0.193\C,0,-0.187,4.0
 15,-1.225\C,0,-0.214,2.583,-1.38\C,0,-0.887,5.406,0.974\C,0,0.181,5.01
 3,-2.277\O,0,0.303,4.69,-3.508\C,0,0.31,6.414,-1.837\N,0,-0.265,-0.413
 ,-2.029\C,0,-0.279,0.569,-2.937\C,0,-0.196,0.024,-4.332\C,0,0.124,-1.5
 33,-4.18\C,0,0.086,-1.632,-2.635\C,0,-1.451,0.205,-5.197\C,0,1.373,-2.
 07,-4.923\C,0,2.626,-1.49,-4.306\N,0,0.15,-2.144,0.303\C,0,0.173,-3.13
 6,-0.688\C,0,0.173,-4.438,0.004\C,0,0.133,-4.111,1.358\C,0,0.083,-2.69
 5,1.502\C,0,0.149,-5.715,-0.623\C,0,0.096,-4.629,2.716\O,0,0.208,-5.74
 7,3.221\C,0,-0.255,-3.428,3.701\C,0,0.717,-3.482,4.848\O,0,1.931,-3.25
 5,4.669\O,0,0.038,-3.556,6.003\C,0,0.943,-3.583,7.183\H,0,-1.859,3.22,
 2.497\H,0,-0.218,2.453,-3.474\H,0,0.276,-3.747,-2.605\H,0,-1.554,-0.94
 9,5.132\H,0,-1.585,1.831,4.665\H,0,-3.484,-0.377,3.969\H,0,-3.511,1.02
 7,2.858\H,0,-3.852,1.301,4.543\H,0,0.669,1.096,4.966\H,0,1.13,-0.639,5
 .189\H,0,-0.844,0.026,7.125\H,0,0.062,1.477,6.921\H,0,-1.344,5.186,1.9
 38\H,0,-1.651,5.963,0.432\H,0,0.007,6.02,1.084\H,0,-0.635,6.744,-1.405
 \H,0,0.665,6.97,-2.704\H,0,1.048,6.466,-1.036\H,0,0.608,0.501,-4.891\H
 ,0,-0.692,-2.156,-4.547\H,0,-1.267,0.74,-6.129\H,0,-2.204,0.714,-4.596
 \H,0,-1.967,-0.72,-5.453\H,0,1.356,-1.759,-5.967\H,0,1.452,-3.157,-4.9
 02\H,0,2.714,-0.522,-4.798\H,0,3.487,-2.121,-4.529\H,0,2.495,-1.303,-3
 .24\H,0,0.867,-6.333,-0.084\H,0,0.404,-5.642,-1.68\H,0,-0.891,-5.999,-
 0.463\H,0,-1.283,-3.581,4.028\H,0,0.698,-4.478,7.755\H,0,0.833,-2.619,
 7.68\H,0,2.,-3.754,6.976\Mg,0,13.1462,1.18506,0.99104\C,0,12.65427,4.7
 1289,0.55339\C,0,12.54794,0.83865,-2.34912\C,0,13.12754,-1.95848,1.421
 44\C,0,12.575,1.66844,4.39483\N,0,12.67444,2.65986,-0.58841\C,0,12.574
 2,3.97921,-0.64858\C,0,12.45731,4.55042,-2.08719\C,0,11.86494,3.24769,
 -2.81579\C,0,12.42233,2.17249,-1.88523\C,0,10.34761,3.17371,-2.77634\C
 ,0,13.8502,4.95852,-2.68328\C,0,13.78184,5.80568,-3.95583\H,0,14.79331
 ,6.83916,-4.15915\N,0,13.36226,-0.29159,-0.31715\C,0,13.09393,-0.25325
 ,-1.6392\C,0,13.39955,-1.5982,-2.15093\C,0,13.71308,-2.48022,-0.99401\
 C,0,13.38568,-1.59692,0.10721\C,0,13.45337,-1.91837,-3.61654\C,0,14.21
 136,-3.89023,-0.89516\O,0,14.18648,-4.53719,0.21103\C,0,14.64236,-4.52
 274,-2.15041\N,0,12.6813,-0.01141,2.62648\C,0,12.80679,-1.34861,2.5627
 1\C,0,12.68421,-1.9739,3.93179\C,0,12.69158,-0.75253,4.96416\C,0,12.72
 899,0.42387,3.96413\C,0,11.43827,-2.82844,4.16369\C,0,13.75424,-0.7943
 6,6.09627\C,0,15.13904,-0.63828,5.51029\N,0,12.87837,2.88516,2.29718\C
 ,0,12.62623,2.86213,3.68642\C,0,12.4035,4.25926,4.11169\C,0,12.51966,5
 .0017,2.92688\C,0,12.77531,4.12682,1.8366\C,0,12.08835,4.68664,5.43235
 \C,0,12.4736,6.32552,2.34888\O,0,12.37895,7.46687,2.79844\C,0,12.43319
 ,6.18478,0.76618\C,0,13.44562,7.13593,0.18928\O,0,14.66006,6.97062,0.4
 0005\O,0,12.83391,7.95104,-0.68923\C,0,13.79919,8.90565,-1.29648\H,0,1
 2.15306,0.59298,-3.33533\H,0,13.21864,-3.02417,1.64386\H,0,12.48812,1.
 91247,5.45577\H,0,11.76882,5.38037,-2.19186\H,0,12.27342,3.13483,-3.81
 668\H,0,9.9222,3.9517,-2.15998\H,0,10.11107,2.19844,-2.37143\H,0,9.943
 13,3.18432,-3.79252\H,0,14.34608,4.06326,-3.07998\H,0,14.44757,5.46008
 ,-1.94693\H,0,12.77755,6.21187,-4.12715\H,0,13.95806,5.15496,-4.81579\
 H,0,13.01588,-1.11376,-4.22037\H,0,12.78923,-2.77367,-3.78159\H,0,14.4
 5835,-2.18107,-3.95366\H,0,13.81524,-4.52483,-2.85634\H,0,15.04823,-5.
 49478,-1.86353\H,0,15.43495,-3.91136,-2.5961\H,0,13.53106,-2.61593,4.1
 4093\H,0,11.73869,-0.67272,5.50773\H,0,11.6712,-3.86478,4.47323\H,0,10
 .84893,-2.82594,3.25638\H,0,10.73662,-2.43272,4.89601\H,0,13.7366,-1.7
 6573,6.59655\H,0,13.60364,-0.0369,6.85822\H,0,15.38726,-1.65445,5.1895
 8\H,0,15.83649,-0.28124,6.26536\H,0,15.11863,-0.00584,4.61516\H,0,12.6
 9051,5.56399,5.62769\H,0,12.28029,3.90154,6.16074\H,0,11.02016,4.89142
 ,5.3214\H,0,11.41881,6.42055,0.44211\H,0,13.40917,9.91223,-1.11657\H,0
 ,13.90932,8.5891,-2.35072\H,0,14.78317,8.97682,-0.84796\\Version=ES64L
 -G16RevA.03\State=1-A\HF=-4069.8118586\RMSD=7.351e-09\PG=C01 [X(C68H72
 Mg2N8O8)]\\@


 LOGIC IS A SYSTEMATIC METHOD OF COMING TO THE
 WRONG CONCLUSION WITH CONFIDENCE.
 Job cpu time:       0 days 11 hours 58 minutes 35.0 seconds.
 Elapsed time:       0 days  0 hours 30 minutes 32.2 seconds.
 File lengths (MBytes):  RWF=  13225 Int=      0 D2E=      0 Chk=    574 Scr=      1
 Normal termination of Gaussian 16 at Sat Sep 11 09:06:16 2021.
