 Entering Gaussian System, Link 0=g16
 Initial command:
 /sw/apps/gaussian-16.0/g16/l1.exe "/tmp/Gau-77095.inp" -scrdir="/tmp/"
 Entering Link 1 = /sw/apps/gaussian-16.0/g16/l1.exe PID=     77096.
  
 Copyright (c) 1988,1990,1992,1993,1995,1998,2003,2009,2016,
            Gaussian, Inc.  All Rights Reserved.
  
 This is part of the Gaussian(R) 16 program.  It is based on
 the Gaussian(R) 09 system (copyright 2009, Gaussian, Inc.),
 the Gaussian(R) 03 system (copyright 2003, Gaussian, Inc.),
 the Gaussian(R) 98 system (copyright 1998, Gaussian, Inc.),
 the Gaussian(R) 94 system (copyright 1995, Gaussian, Inc.),
 the Gaussian 92(TM) system (copyright 1992, Gaussian, Inc.),
 the Gaussian 90(TM) system (copyright 1990, Gaussian, Inc.),
 the Gaussian 88(TM) system (copyright 1988, Gaussian, Inc.),
 the Gaussian 86(TM) system (copyright 1986, Carnegie Mellon
 University), and the Gaussian 82(TM) system (copyright 1983,
 Carnegie Mellon University). Gaussian is a federally registered
 trademark of Gaussian, Inc.
  
 This software contains proprietary and confidential information,
 including trade secrets, belonging to Gaussian, Inc.
  
 This software is provided under written license and may be
 used, copied, transmitted, or stored only in accord with that
 written license.
  
 The following legend is applicable only to US Government
 contracts under FAR:
  
                    RESTRICTED RIGHTS LEGEND
  
 Use, reproduction and disclosure by the US Government is
 subject to restrictions as set forth in subparagraphs (a)
 and (c) of the Commercial Computer Software - Restricted
 Rights clause in FAR 52.227-19.
  
 Gaussian, Inc.
 340 Quinnipiac St., Bldg. 40, Wallingford CT 06492
  
  
 ---------------------------------------------------------------
 Warning -- This program may not be used in any manner that
 competes with the business of Gaussian, Inc. or will provide
 assistance to any competitor of Gaussian, Inc.  The licensee
 of this program is prohibited from giving any competitor of
 Gaussian, Inc. access to this program.  By using this program,
 the user acknowledges that Gaussian, Inc. is engaged in the
 business of creating and licensing software in the field of
 computational chemistry and represents and warrants to the
 licensee that it is not a competitor of Gaussian, Inc. and that
 it will not use this program in any manner prohibited above.
 ---------------------------------------------------------------
  

 Cite this work as:
 Gaussian 16, Revision A.03,
 M. J. Frisch, G. W. Trucks, H. B. Schlegel, G. E. Scuseria, 
 M. A. Robb, J. R. Cheeseman, G. Scalmani, V. Barone, 
 G. A. Petersson, H. Nakatsuji, X. Li, M. Caricato, A. V. Marenich, 
 J. Bloino, B. G. Janesko, R. Gomperts, B. Mennucci, H. P. Hratchian, 
 J. V. Ortiz, A. F. Izmaylov, J. L. Sonnenberg, D. Williams-Young, 
 F. Ding, F. Lipparini, F. Egidi, J. Goings, B. Peng, A. Petrone, 
 T. Henderson, D. Ranasinghe, V. G. Zakrzewski, J. Gao, N. Rega, 
 G. Zheng, W. Liang, M. Hada, M. Ehara, K. Toyota, R. Fukuda, 
 J. Hasegawa, M. Ishida, T. Nakajima, Y. Honda, O. Kitao, H. Nakai, 
 T. Vreven, K. Throssell, J. A. Montgomery, Jr., J. E. Peralta, 
 F. Ogliaro, M. J. Bearpark, J. J. Heyd, E. N. Brothers, K. N. Kudin, 
 V. N. Staroverov, T. A. Keith, R. Kobayashi, J. Normand, 
 K. Raghavachari, A. P. Rendell, J. C. Burant, S. S. Iyengar, 
 J. Tomasi, M. Cossi, J. M. Millam, M. Klene, C. Adamo, R. Cammi, 
 J. W. Ochterski, R. L. Martin, K. Morokuma, O. Farkas, 
 J. B. Foresman, and D. J. Fox, Gaussian, Inc., Wallingford CT, 2016.
 
 ******************************************
 Gaussian 16:  ES64L-G16RevA.03 25-Dec-2016
                12-Sep-2021 
 ******************************************
 %nproc=24
 Will use up to   24 processors via shared memory.
 %mem=175gb
 -----------------------------------
 #p cam-b3lyp/Def2SVP td=(nstates=5)
 -----------------------------------
 1/38=1,172=1/1;
 2/12=2,17=6,18=5,40=1/2;
 3/5=43,7=101,11=9,25=1,30=1,74=-40/1,2,3,8;
 4//1;
 5/5=2,38=5/2;
 8/6=1,10=1,108=5/1;
 9/41=5,42=1,70=2/14;
 6/7=2,8=2,9=2,10=2/1;
 99/5=1,9=1/99;
 Leave Link    1 at Sun Sep 12 16:20:58 2021, MaxMem= 23488102400 cpu:               0.9 elap:               0.0
 (Enter /sw/apps/gaussian-16.0/g16/l101.exe)
 --------------------------------
 TDDFT excited states in gaussian
 --------------------------------
 Symbolic Z-matrix:
 Charge =  0 Multiplicity = 1
 Mg                    0.        0.        0. 
 C                    -0.217    -2.218     2.801 
 C                    -1.255     2.442     2.026 
 C                    -0.245     1.85     -2.564 
 C                     0.146    -2.824    -2.037 
 N                    -0.617    -0.009     2.126 
 C                    -0.594    -0.908     3.105 
 C                    -0.936    -0.309     4.502 
 C                    -1.773     0.964     4.032 
 C                    -1.155     1.168     2.66 
 C                    -3.263     0.685     3.863 
 C                     0.345     0.11      5.299 
 C                     0.124     0.397     6.787 
 H                     1.168     0.033     7.733 
 N                    -0.185     1.961    -0.152 
 C                    -0.703     2.8       0.777 
 C                    -0.62      4.156     0.193 
 C                    -0.187     4.015    -1.225 
 C                    -0.214     2.583    -1.38 
 C                    -0.887     5.406     0.974 
 C                     0.181     5.013    -2.277 
 O                     0.303     4.69     -3.508 
 C                     0.31      6.414    -1.837 
 N                    -0.265    -0.413    -2.029 
 C                    -0.279     0.569    -2.937 
 C                    -0.196     0.024    -4.332 
 C                     0.124    -1.533    -4.18 
 C                     0.086    -1.632    -2.635 
 C                    -1.451     0.205    -5.197 
 C                     1.373    -2.07     -4.923 
 C                     2.626    -1.49     -4.306 
 N                     0.15     -2.144     0.303 
 C                     0.173    -3.136    -0.688 
 C                     0.173    -4.438     0.004 
 C                     0.133    -4.111     1.358 
 C                     0.083    -2.695     1.502 
 C                     0.149    -5.715    -0.623 
 C                     0.096    -4.629     2.716 
 O                     0.208    -5.747     3.221 
 C                    -0.255    -3.428     3.701 
 C                     0.717    -3.482     4.848 
 O                     1.931    -3.255     4.669 
 O                     0.038    -3.556     6.003 
 C                     0.943    -3.583     7.183 
 H                    -1.859     3.22      2.497 
 H                    -0.218     2.453    -3.474 
 H                     0.276    -3.747    -2.605 
 H                    -1.554    -0.949     5.132 
 H                    -1.585     1.831     4.665 
 H                    -3.484    -0.377     3.969 
 H                    -3.511     1.027     2.858 
 H                    -3.852     1.301     4.543 
 H                     0.669     1.096     4.966 
 H                     1.13     -0.639     5.189 
 H                    -0.844     0.026     7.125 
 H                     0.062     1.477     6.921 
 H                    -1.344     5.186     1.938 
 H                    -1.651     5.963     0.432 
 H                     0.007     6.02      1.084 
 H                    -0.635     6.744    -1.405 
 H                     0.665     6.97     -2.704 
 H                     1.048     6.466    -1.036 
 H                     0.608     0.501    -4.891 
 H                    -0.692    -2.156    -4.547 
 H                    -1.267     0.74     -6.129 
 H                    -2.204     0.714    -4.596 
 H                    -1.967    -0.72     -5.453 
 H                     1.356    -1.759    -5.967 
 H                     1.452    -3.157    -4.902 
 H                     2.714    -0.522    -4.798 
 H                     3.487    -2.121    -4.529 
 H                     2.495    -1.303    -3.24 
 H                     0.867    -6.333    -0.084 
 H                     0.404    -5.642    -1.68 
 H                    -0.891    -5.999    -0.463 
 H                    -1.283    -3.581     4.028 
 H                     0.698    -4.478     7.755 
 H                     0.833    -2.619     7.68 
 H                     2.       -3.754     6.976 
 Mg                    31.53941   2.8463    2.3923 
 C                     30.91665   5.37251   4.86403 
 C                     30.62885   5.13851   0.0362 
 C                     31.64357   0.52246   0.23444 
 C                     31.28908   0.48512   4.94335 
 N                     30.87874   4.95102   2.5532 
 C                     30.7392   5.82391   3.53958 
 C                     30.46853   7.28042   3.07604 
 C                     29.84198   6.96081   1.63238 
 C                     30.51456   5.61562   1.36639 
 C                     28.33805   6.74501   1.66342 
 C                     31.78601   8.1242    2.95639 
 C                     31.57265   9.63237   2.80928 
 H                     32.53265   10.5357   3.43766 
 N                     31.66541   2.93569   0.41374 
 C                     31.26911   3.95122  -0.38182 
 C                     31.55814   3.52028  -1.75838 
 C                     32.0051   2.10127  -1.72159 
 C                     31.76351   1.78484  -0.32818 
 C                     31.47766   4.44844  -2.93544 
 C                     32.54676   1.1776   -2.77023 
 O                     32.64606  -0.08444  -2.56965 
 C                     32.87003   1.78072  -4.07147 
 N                     31.26643   0.7893    2.52112 
 C                     31.41953   0.00264   1.44147 
 C                     31.44657  -1.45658   1.82919 
 C                     31.52267  -1.47536   3.42651 
 C                     31.43252   0.04167   3.702 
 C                     30.25144  -2.28994   1.36706 
 C                     32.69094  -2.2746    4.06608 
 C                     34.00783  -1.59899   3.75829 
 N                     31.35595   2.89531   4.54451 
 C                     31.24054   1.7903    5.41613 
 C                     31.02425   2.32829   6.77488 
 C                     31.00569   3.71957   6.59459 
 C                     31.17673   4.02637   5.2176 
 C                     30.8279   1.55555   7.95405 
 C                     30.86967   4.9981    7.25456 
 O                     30.78975   5.36709   8.42554 
 C                     30.67945   6.12128   6.1461 
 C                     31.60626   7.25958   6.47443 
 O                     32.83928   7.10387   6.42928 
 O                     30.89137   8.39505   6.57448 
 C                     31.76825   9.55456   6.88825 
 H                     30.14656   5.70454  -0.76124 
 H                     31.78324  -0.31523  -0.45276 
 H                     31.29934  -0.18337   5.80689 
 H                     29.752    7.82372   3.68034 
 H                     30.15413   7.69564   0.89485 
 H                     27.95459   6.72545   2.67274 
 H                     28.16712   5.79446   1.17527 
 H                     27.8367   7.49554   1.04561 
 H                     32.26392   7.90714   1.99243 
 H                     32.43892   7.93076   3.7852 
 H                     30.54634   9.92956   3.0569 
 H                     31.68125   9.89696   1.75467 
 H                     30.96305   5.38214  -2.677 
 H                     30.82287   3.97274  -3.67357 
 H                     32.4516   4.63285  -3.3938 
 H                     31.97861   2.2462   -4.48519 
 H                     33.32671   0.98158  -4.65858 
 H                     33.5996   2.58287  -3.91371 
 H                     32.32598  -1.94664   1.42969 
 H                     30.62532  -1.9295    3.87187 
 H                     30.53993  -3.16302   0.75176 
 H                     29.57695  -1.64509   0.81956 
 H                     29.61424  -2.66602   2.16565 
 H                     32.74696  -3.27596   3.63215 
 H                     32.59557  -2.39394   5.14016 
 H                     34.24983  -1.97365   2.75922 
 H                     34.76587  -1.88922   4.48299 
 H                     33.88435  -0.51245   3.68191 
 H                     31.42339   2.01629   8.73097 
 H                     31.10978   0.51608   7.79973 
 H                     29.74907   1.67294   8.08677 
 H                     29.63267   6.42695   6.16572 
 H                     31.37174   10.01837   7.79673 
 H                     31.78363   10.17407   5.97189 
 H                     32.78896   9.34492   7.18599 
 
 ITRead=  0  0  0  0  0  0  0  0  0  0  0  0  0  0  0  0  0  0  0  0
 ITRead=  0  0  0  0  0  0  0  0  0  0  0  0  0  0  0  0  0  0  0  0
 ITRead=  0  0  0  0  0  0  0  0  0  0  0  0  0  0  0  0  0  0  0  0
 ITRead=  0  0  0  0  0  0  0  0  0  0  0  0  0  0  0  0  0  0  0  0
 ITRead=  0  0  0  0  0  0  0  0  0  0  0  0  0  0  0  0  0  0  0  0
 ITRead=  0  0  0  0  0  0  0  0  0  0  0  0  0  0  0  0  0  0  0  0
 ITRead=  0  0  0  0  0  0  0  0  0  0  0  0  0  0  0  0  0  0  0  0
 ITRead=  0  0  0  0  0  0  0  0  0  0  0  0  0  0  0  0  0  0
 MicOpt= -1 -1 -1 -1 -1 -1 -1 -1 -1 -1 -1 -1 -1 -1 -1 -1 -1 -1 -1 -1
 MicOpt= -1 -1 -1 -1 -1 -1 -1 -1 -1 -1 -1 -1 -1 -1 -1 -1 -1 -1 -1 -1
 MicOpt= -1 -1 -1 -1 -1 -1 -1 -1 -1 -1 -1 -1 -1 -1 -1 -1 -1 -1 -1 -1
 MicOpt= -1 -1 -1 -1 -1 -1 -1 -1 -1 -1 -1 -1 -1 -1 -1 -1 -1 -1 -1 -1
 MicOpt= -1 -1 -1 -1 -1 -1 -1 -1 -1 -1 -1 -1 -1 -1 -1 -1 -1 -1 -1 -1
 MicOpt= -1 -1 -1 -1 -1 -1 -1 -1 -1 -1 -1 -1 -1 -1 -1 -1 -1 -1 -1 -1
 MicOpt= -1 -1 -1 -1 -1 -1 -1 -1 -1 -1 -1 -1 -1 -1 -1 -1 -1 -1 -1 -1
 MicOpt= -1 -1 -1 -1 -1 -1 -1 -1 -1 -1 -1 -1 -1 -1 -1 -1 -1 -1
 NAtoms=    158 NQM=      158 NQMF=       0 NMMI=      0 NMMIF=      0
                NMic=       0 NMicF=      0.
                    Isotopes and Nuclear Properties:
 (Nuclear quadrupole moments (NQMom) in fm**2, nuclear magnetic moments (NMagM)
  in nuclear magnetons)

  Atom         1           2           3           4           5           6           7           8           9          10
 IAtWgt=          24          12          12          12          12          14          12          12          12          12
 AtmWgt=  23.9850450  12.0000000  12.0000000  12.0000000  12.0000000  14.0030740  12.0000000  12.0000000  12.0000000  12.0000000
 NucSpn=           0           0           0           0           0           2           0           0           0           0
 AtZEff=  -0.0000000  -0.0000000  -0.0000000  -0.0000000  -0.0000000  -0.0000000  -0.0000000  -0.0000000  -0.0000000  -0.0000000
 NQMom=    0.0000000   0.0000000   0.0000000   0.0000000   0.0000000   2.0440000   0.0000000   0.0000000   0.0000000   0.0000000
 NMagM=    0.0000000   0.0000000   0.0000000   0.0000000   0.0000000   0.4037610   0.0000000   0.0000000   0.0000000   0.0000000
 AtZNuc=  12.0000000   6.0000000   6.0000000   6.0000000   6.0000000   7.0000000   6.0000000   6.0000000   6.0000000   6.0000000

  Atom        11          12          13          14          15          16          17          18          19          20
 IAtWgt=          12          12          12           1          14          12          12          12          12          12
 AtmWgt=  12.0000000  12.0000000  12.0000000   1.0078250  14.0030740  12.0000000  12.0000000  12.0000000  12.0000000  12.0000000
 NucSpn=           0           0           0           1           2           0           0           0           0           0
 AtZEff=  -0.0000000  -0.0000000  -0.0000000  -0.0000000  -0.0000000  -0.0000000  -0.0000000  -0.0000000  -0.0000000  -0.0000000
 NQMom=    0.0000000   0.0000000   0.0000000   0.0000000   2.0440000   0.0000000   0.0000000   0.0000000   0.0000000   0.0000000
 NMagM=    0.0000000   0.0000000   0.0000000   2.7928460   0.4037610   0.0000000   0.0000000   0.0000000   0.0000000   0.0000000
 AtZNuc=   6.0000000   6.0000000   6.0000000   1.0000000   7.0000000   6.0000000   6.0000000   6.0000000   6.0000000   6.0000000

  Atom        21          22          23          24          25          26          27          28          29          30
 IAtWgt=          12          16          12          14          12          12          12          12          12          12
 AtmWgt=  12.0000000  15.9949146  12.0000000  14.0030740  12.0000000  12.0000000  12.0000000  12.0000000  12.0000000  12.0000000
 NucSpn=           0           0           0           2           0           0           0           0           0           0
 AtZEff=  -0.0000000  -0.0000000  -0.0000000  -0.0000000  -0.0000000  -0.0000000  -0.0000000  -0.0000000  -0.0000000  -0.0000000
 NQMom=    0.0000000   0.0000000   0.0000000   2.0440000   0.0000000   0.0000000   0.0000000   0.0000000   0.0000000   0.0000000
 NMagM=    0.0000000   0.0000000   0.0000000   0.4037610   0.0000000   0.0000000   0.0000000   0.0000000   0.0000000   0.0000000
 AtZNuc=   6.0000000   8.0000000   6.0000000   7.0000000   6.0000000   6.0000000   6.0000000   6.0000000   6.0000000   6.0000000

  Atom        31          32          33          34          35          36          37          38          39          40
 IAtWgt=          12          14          12          12          12          12          12          12          16          12
 AtmWgt=  12.0000000  14.0030740  12.0000000  12.0000000  12.0000000  12.0000000  12.0000000  12.0000000  15.9949146  12.0000000
 NucSpn=           0           2           0           0           0           0           0           0           0           0
 AtZEff=  -0.0000000  -0.0000000  -0.0000000  -0.0000000  -0.0000000  -0.0000000  -0.0000000  -0.0000000  -0.0000000  -0.0000000
 NQMom=    0.0000000   2.0440000   0.0000000   0.0000000   0.0000000   0.0000000   0.0000000   0.0000000   0.0000000   0.0000000
 NMagM=    0.0000000   0.4037610   0.0000000   0.0000000   0.0000000   0.0000000   0.0000000   0.0000000   0.0000000   0.0000000
 AtZNuc=   6.0000000   7.0000000   6.0000000   6.0000000   6.0000000   6.0000000   6.0000000   6.0000000   8.0000000   6.0000000

  Atom        41          42          43          44          45          46          47          48          49          50
 IAtWgt=          12          16          16          12           1           1           1           1           1           1
 AtmWgt=  12.0000000  15.9949146  15.9949146  12.0000000   1.0078250   1.0078250   1.0078250   1.0078250   1.0078250   1.0078250
 NucSpn=           0           0           0           0           1           1           1           1           1           1
 AtZEff=  -0.0000000  -0.0000000  -0.0000000  -0.0000000  -0.0000000  -0.0000000  -0.0000000  -0.0000000  -0.0000000  -0.0000000
 NQMom=    0.0000000   0.0000000   0.0000000   0.0000000   0.0000000   0.0000000   0.0000000   0.0000000   0.0000000   0.0000000
 NMagM=    0.0000000   0.0000000   0.0000000   0.0000000   2.7928460   2.7928460   2.7928460   2.7928460   2.7928460   2.7928460
 AtZNuc=   6.0000000   8.0000000   8.0000000   6.0000000   1.0000000   1.0000000   1.0000000   1.0000000   1.0000000   1.0000000

  Atom        51          52          53          54          55          56          57          58          59          60
 IAtWgt=           1           1           1           1           1           1           1           1           1           1
 AtmWgt=   1.0078250   1.0078250   1.0078250   1.0078250   1.0078250   1.0078250   1.0078250   1.0078250   1.0078250   1.0078250
 NucSpn=           1           1           1           1           1           1           1           1           1           1
 AtZEff=  -0.0000000  -0.0000000  -0.0000000  -0.0000000  -0.0000000  -0.0000000  -0.0000000  -0.0000000  -0.0000000  -0.0000000
 NQMom=    0.0000000   0.0000000   0.0000000   0.0000000   0.0000000   0.0000000   0.0000000   0.0000000   0.0000000   0.0000000
 NMagM=    2.7928460   2.7928460   2.7928460   2.7928460   2.7928460   2.7928460   2.7928460   2.7928460   2.7928460   2.7928460
 AtZNuc=   1.0000000   1.0000000   1.0000000   1.0000000   1.0000000   1.0000000   1.0000000   1.0000000   1.0000000   1.0000000

  Atom        61          62          63          64          65          66          67          68          69          70
 IAtWgt=           1           1           1           1           1           1           1           1           1           1
 AtmWgt=   1.0078250   1.0078250   1.0078250   1.0078250   1.0078250   1.0078250   1.0078250   1.0078250   1.0078250   1.0078250
 NucSpn=           1           1           1           1           1           1           1           1           1           1
 AtZEff=  -0.0000000  -0.0000000  -0.0000000  -0.0000000  -0.0000000  -0.0000000  -0.0000000  -0.0000000  -0.0000000  -0.0000000
 NQMom=    0.0000000   0.0000000   0.0000000   0.0000000   0.0000000   0.0000000   0.0000000   0.0000000   0.0000000   0.0000000
 NMagM=    2.7928460   2.7928460   2.7928460   2.7928460   2.7928460   2.7928460   2.7928460   2.7928460   2.7928460   2.7928460
 AtZNuc=   1.0000000   1.0000000   1.0000000   1.0000000   1.0000000   1.0000000   1.0000000   1.0000000   1.0000000   1.0000000

  Atom        71          72          73          74          75          76          77          78          79          80
 IAtWgt=           1           1           1           1           1           1           1           1           1          24
 AtmWgt=   1.0078250   1.0078250   1.0078250   1.0078250   1.0078250   1.0078250   1.0078250   1.0078250   1.0078250  23.9850450
 NucSpn=           1           1           1           1           1           1           1           1           1           0
 AtZEff=  -0.0000000  -0.0000000  -0.0000000  -0.0000000  -0.0000000  -0.0000000  -0.0000000  -0.0000000  -0.0000000  -0.0000000
 NQMom=    0.0000000   0.0000000   0.0000000   0.0000000   0.0000000   0.0000000   0.0000000   0.0000000   0.0000000   0.0000000
 NMagM=    2.7928460   2.7928460   2.7928460   2.7928460   2.7928460   2.7928460   2.7928460   2.7928460   2.7928460   0.0000000
 AtZNuc=   1.0000000   1.0000000   1.0000000   1.0000000   1.0000000   1.0000000   1.0000000   1.0000000   1.0000000  12.0000000

  Atom        81          82          83          84          85          86          87          88          89          90
 IAtWgt=          12          12          12          12          14          12          12          12          12          12
 AtmWgt=  12.0000000  12.0000000  12.0000000  12.0000000  14.0030740  12.0000000  12.0000000  12.0000000  12.0000000  12.0000000
 NucSpn=           0           0           0           0           2           0           0           0           0           0
 AtZEff=  -0.0000000  -0.0000000  -0.0000000  -0.0000000  -0.0000000  -0.0000000  -0.0000000  -0.0000000  -0.0000000  -0.0000000
 NQMom=    0.0000000   0.0000000   0.0000000   0.0000000   2.0440000   0.0000000   0.0000000   0.0000000   0.0000000   0.0000000
 NMagM=    0.0000000   0.0000000   0.0000000   0.0000000   0.4037610   0.0000000   0.0000000   0.0000000   0.0000000   0.0000000
 AtZNuc=   6.0000000   6.0000000   6.0000000   6.0000000   7.0000000   6.0000000   6.0000000   6.0000000   6.0000000   6.0000000

  Atom        91          92          93          94          95          96          97          98          99         100
 IAtWgt=          12          12           1          14          12          12          12          12          12          12
 AtmWgt=  12.0000000  12.0000000   1.0078250  14.0030740  12.0000000  12.0000000  12.0000000  12.0000000  12.0000000  12.0000000
 NucSpn=           0           0           1           2           0           0           0           0           0           0
 AtZEff=  -0.0000000  -0.0000000  -0.0000000  -0.0000000  -0.0000000  -0.0000000  -0.0000000  -0.0000000  -0.0000000  -0.0000000
 NQMom=    0.0000000   0.0000000   0.0000000   2.0440000   0.0000000   0.0000000   0.0000000   0.0000000   0.0000000   0.0000000
 NMagM=    0.0000000   0.0000000   2.7928460   0.4037610   0.0000000   0.0000000   0.0000000   0.0000000   0.0000000   0.0000000
 AtZNuc=   6.0000000   6.0000000   1.0000000   7.0000000   6.0000000   6.0000000   6.0000000   6.0000000   6.0000000   6.0000000

  Atom       101         102         103         104         105         106         107         108         109         110
 IAtWgt=          16          12          14          12          12          12          12          12          12          12
 AtmWgt=  15.9949146  12.0000000  14.0030740  12.0000000  12.0000000  12.0000000  12.0000000  12.0000000  12.0000000  12.0000000
 NucSpn=           0           0           2           0           0           0           0           0           0           0
 AtZEff=  -0.0000000  -0.0000000  -0.0000000  -0.0000000  -0.0000000  -0.0000000  -0.0000000  -0.0000000  -0.0000000  -0.0000000
 NQMom=    0.0000000   0.0000000   2.0440000   0.0000000   0.0000000   0.0000000   0.0000000   0.0000000   0.0000000   0.0000000
 NMagM=    0.0000000   0.0000000   0.4037610   0.0000000   0.0000000   0.0000000   0.0000000   0.0000000   0.0000000   0.0000000
 AtZNuc=   8.0000000   6.0000000   7.0000000   6.0000000   6.0000000   6.0000000   6.0000000   6.0000000   6.0000000   6.0000000

  Atom       111         112         113         114         115         116         117         118         119         120
 IAtWgt=          14          12          12          12          12          12          12          16          12          12
 AtmWgt=  14.0030740  12.0000000  12.0000000  12.0000000  12.0000000  12.0000000  12.0000000  15.9949146  12.0000000  12.0000000
 NucSpn=           2           0           0           0           0           0           0           0           0           0
 AtZEff=  -0.0000000  -0.0000000  -0.0000000  -0.0000000  -0.0000000  -0.0000000  -0.0000000  -0.0000000  -0.0000000  -0.0000000
 NQMom=    2.0440000   0.0000000   0.0000000   0.0000000   0.0000000   0.0000000   0.0000000   0.0000000   0.0000000   0.0000000
 NMagM=    0.4037610   0.0000000   0.0000000   0.0000000   0.0000000   0.0000000   0.0000000   0.0000000   0.0000000   0.0000000
 AtZNuc=   7.0000000   6.0000000   6.0000000   6.0000000   6.0000000   6.0000000   6.0000000   8.0000000   6.0000000   6.0000000

  Atom       121         122         123         124         125         126         127         128         129         130
 IAtWgt=          16          16          12           1           1           1           1           1           1           1
 AtmWgt=  15.9949146  15.9949146  12.0000000   1.0078250   1.0078250   1.0078250   1.0078250   1.0078250   1.0078250   1.0078250
 NucSpn=           0           0           0           1           1           1           1           1           1           1
 AtZEff=  -0.0000000  -0.0000000  -0.0000000  -0.0000000  -0.0000000  -0.0000000  -0.0000000  -0.0000000  -0.0000000  -0.0000000
 NQMom=    0.0000000   0.0000000   0.0000000   0.0000000   0.0000000   0.0000000   0.0000000   0.0000000   0.0000000   0.0000000
 NMagM=    0.0000000   0.0000000   0.0000000   2.7928460   2.7928460   2.7928460   2.7928460   2.7928460   2.7928460   2.7928460
 AtZNuc=   8.0000000   8.0000000   6.0000000   1.0000000   1.0000000   1.0000000   1.0000000   1.0000000   1.0000000   1.0000000

  Atom       131         132         133         134         135         136         137         138         139         140
 IAtWgt=           1           1           1           1           1           1           1           1           1           1
 AtmWgt=   1.0078250   1.0078250   1.0078250   1.0078250   1.0078250   1.0078250   1.0078250   1.0078250   1.0078250   1.0078250
 NucSpn=           1           1           1           1           1           1           1           1           1           1
 AtZEff=  -0.0000000  -0.0000000  -0.0000000  -0.0000000  -0.0000000  -0.0000000  -0.0000000  -0.0000000  -0.0000000  -0.0000000
 NQMom=    0.0000000   0.0000000   0.0000000   0.0000000   0.0000000   0.0000000   0.0000000   0.0000000   0.0000000   0.0000000
 NMagM=    2.7928460   2.7928460   2.7928460   2.7928460   2.7928460   2.7928460   2.7928460   2.7928460   2.7928460   2.7928460
 AtZNuc=   1.0000000   1.0000000   1.0000000   1.0000000   1.0000000   1.0000000   1.0000000   1.0000000   1.0000000   1.0000000

  Atom       141         142         143         144         145         146         147         148         149         150
 IAtWgt=           1           1           1           1           1           1           1           1           1           1
 AtmWgt=   1.0078250   1.0078250   1.0078250   1.0078250   1.0078250   1.0078250   1.0078250   1.0078250   1.0078250   1.0078250
 NucSpn=           1           1           1           1           1           1           1           1           1           1
 AtZEff=  -0.0000000  -0.0000000  -0.0000000  -0.0000000  -0.0000000  -0.0000000  -0.0000000  -0.0000000  -0.0000000  -0.0000000
 NQMom=    0.0000000   0.0000000   0.0000000   0.0000000   0.0000000   0.0000000   0.0000000   0.0000000   0.0000000   0.0000000
 NMagM=    2.7928460   2.7928460   2.7928460   2.7928460   2.7928460   2.7928460   2.7928460   2.7928460   2.7928460   2.7928460
 AtZNuc=   1.0000000   1.0000000   1.0000000   1.0000000   1.0000000   1.0000000   1.0000000   1.0000000   1.0000000   1.0000000

  Atom       151         152         153         154         155         156         157         158
 IAtWgt=           1           1           1           1           1           1           1           1
 AtmWgt=   1.0078250   1.0078250   1.0078250   1.0078250   1.0078250   1.0078250   1.0078250   1.0078250
 NucSpn=           1           1           1           1           1           1           1           1
 AtZEff=  -0.0000000  -0.0000000  -0.0000000  -0.0000000  -0.0000000  -0.0000000  -0.0000000  -0.0000000
 NQMom=    0.0000000   0.0000000   0.0000000   0.0000000   0.0000000   0.0000000   0.0000000   0.0000000
 NMagM=    2.7928460   2.7928460   2.7928460   2.7928460   2.7928460   2.7928460   2.7928460   2.7928460
 AtZNuc=   1.0000000   1.0000000   1.0000000   1.0000000   1.0000000   1.0000000   1.0000000   1.0000000
 Leave Link  101 at Sun Sep 12 16:20:58 2021, MaxMem= 23488102400 cpu:               4.0 elap:               0.2
 (Enter /sw/apps/gaussian-16.0/g16/l202.exe)
 Stoichiometry    C68H72Mg2N8O8
 Framework group  C1[X(C68H72Mg2N8O8)]
 Deg. of freedom   468
 Full point group                 C1      NOp   1
 Largest Abelian subgroup         C1      NOp   1
 Largest concise Abelian subgroup C1      NOp   1
                         Standard orientation:                         
 ---------------------------------------------------------------------
 Center     Atomic      Atomic             Coordinates (Angstroms)
 Number     Number       Type             X           Y           Z
 ---------------------------------------------------------------------
      1         12           0      -15.785188    0.620713    0.463424
      2          6           0      -16.078573   -1.916249   -2.044555
      3          6           0      -16.590585   -1.768379    2.762694
      4          6           0      -15.977910    2.926948    2.631548
      5          6           0      -16.125254    2.972654   -2.085770
      6          7           0      -16.251261   -1.533997    0.261820
      7          6           0      -16.271045   -2.398363   -0.747958
      8          6           0      -16.440640   -3.878229   -0.291219
      9          6           0      -17.146227   -3.627933    1.116437
     10          6           0      -16.603596   -2.241903    1.417095
     11          6           0      -18.667204   -3.551988    1.030622
     12          6           0      -15.066399   -4.609199   -0.121288
     13          6           0      -15.148033   -6.133422    0.002943
     14          1           0      -14.093827   -6.941875   -0.590692
     15          7           0      -15.739373    0.531391    2.436435
     16          6           0      -16.086057   -0.527206    3.207454
     17          6           0      -15.878406   -0.097424    4.607043
     18          6           0      -15.564231    1.358331    4.594153
     19          6           0      -15.776443    1.673473    3.204538
     20          6           0      -15.936543   -1.035784    5.773169
     21          6           0      -15.150226    2.315987    5.666359
     22          8           0      -15.153369    3.581716    5.486097
     23          6           0      -14.821239    1.730691    6.978700
     24          7           0      -16.237285    2.654719    0.336682
     25          6           0      -16.193582    3.440040    1.418507
     26          6           0      -16.273704    4.890311    1.044030
     27          6           0      -16.136524    4.944556   -0.545936
     28          6           0      -16.080178    3.423236   -0.829979
     29          6           0      -17.553613    5.622065    1.471092
     30          6           0      -15.016406    5.844937   -1.124788
     31          6           0      -13.662589    5.271414   -0.770741
     32          7           0      -15.877636    0.578603   -1.704691
     33          6           0      -16.044009    1.675131   -2.562957
     34          6           0      -16.155471    1.139119   -3.932020
     35          6           0      -16.062204   -0.242049   -3.772266
     36          6           0      -15.928942   -0.550843   -2.388366
     37          6           0      -16.378190    1.904033   -5.110891
     38          6           0      -16.068862   -1.530196   -4.446426
     39          8           0      -16.059800   -1.892879   -5.623657
     40          6           0      -16.202150   -2.671852   -3.344300
     41          6           0      -15.167587   -3.720736   -3.648985
     42          8           0      -13.950127   -3.469057   -3.540284
     43          8           0      -15.769641   -4.911872   -3.787793
     44          6           0      -14.795856   -6.002059   -4.062361
     45          1           0      -17.061309   -2.373701    3.539833
     46          1           0      -15.940022    3.761029    3.335332
     47          1           0      -16.148220    3.651379   -2.940321
     48          1           0      -17.087440   -4.479787   -0.930126
     49          1           0      -16.810772   -4.338281    1.871816
     50          1           0      -19.008412   -3.553639   -0.004508
     51          1           0      -18.939993   -2.616738    1.519894
     52          1           0      -19.128508   -4.344428    1.620550
     53          1           0      -14.648068   -4.365601    0.855298
     54          1           0      -14.388137   -4.349599   -0.934857
     55          1           0      -16.128584   -6.505665   -0.295156
     56          1           0      -15.068362   -6.394844    1.058173
     57          1           0      -16.349723   -2.002751    5.488911
     58          1           0      -16.662212   -0.626205    6.475564
     59          1           0      -14.968840   -1.140991    6.263897
     60          1           0      -15.686977    1.187045    7.357509
     61          1           0      -14.461372    2.554725    7.593771
     62          1           0      -14.029180    0.992840    6.847679
     63          1           0      -15.457765    5.455633    1.492450
     64          1           0      -17.045738    5.311671   -1.022625
     65          1           0      -17.370085    6.498701    2.092809
     66          1           0      -18.195787    4.906510    1.983815
     67          1           0      -18.195036    5.938690    0.649057
     68          1           0      -15.066935    6.841460   -0.687369
     69          1           0      -15.069459    5.955122   -2.207975
     70          1           0      -13.491044    5.654949    0.234398
     71          1           0      -12.902426    5.635662   -1.462614
     72          1           0      -13.696289    4.183855   -0.703174
     73          1           0      -15.705721    1.500600   -5.867857
     74          1           0      -16.189351    2.963180   -4.937250
     75          1           0      -17.431629    1.692088   -5.293106
     76          1           0      -17.216248   -3.063127   -3.419335
     77          1           0      -15.108449   -6.486141   -4.987663
     78          1           0      -14.752956   -6.613535   -3.160883
     79          1           0      -13.784364   -5.690091   -4.324847
     80         12           0       15.955038    0.536491   -0.590060
     81          6           0       15.816529   -2.251183    1.665755
     82          6           0       15.171580    2.531212    2.063585
     83          6           0       15.626315    2.947361   -2.626501
     84          6           0       15.594012   -1.739395   -3.204577
     85          7           0       15.568900    0.081591    1.539771
     86          6           0       15.605022   -1.006372    2.294348
     87          6           0       15.483030   -0.736615    3.818127
     88          6           0       14.724532    0.677310    3.752055
     89          6           0       15.207983    1.150283    2.382667
     90          6           0       13.211211    0.546833    3.705427
     91          6           0       16.882329   -0.605735    4.515886
     92          6           0       16.845112   -0.650407    6.045056
     93          1           0       17.949075   -1.296456    6.749578
     94          7           0       15.954888    2.495406   -0.271914
     95          6           0       15.631872    3.133940    0.872292
     96          6           0       15.770941    4.569948    0.584706
     97          6           0       16.042768    4.732958   -0.869342
     98          6           0       15.860579    3.369751   -1.326025
     99          6           0       15.723776    5.622293    1.654179
    100          6           0       16.394328    5.921645   -1.711740
    101          8           0       16.352331    5.875768   -2.991962
    102          6           0       16.698722    7.167546   -0.993020
    103          7           0       15.442446    0.621853   -2.603099
    104          6           0       15.423875    1.793401   -3.262680
    105          6           0       15.299103    1.578853   -4.752237
    106          6           0       15.481811    0.005996   -4.976545
    107          6           0       15.596681   -0.447857   -3.504735
    108          6           0       13.982283    2.032852   -5.381729
    109          6           0       16.584886   -0.438990   -5.975495
    110          6           0       17.950153   -0.102654   -5.420241
    111          7           0       15.927113   -1.614932   -0.786703
    112          6           0       15.737760   -2.360864   -1.970687
    113          6           0       15.682562   -3.785476   -1.583583
    114          6           0       15.821675   -3.767800   -0.187573
    115          6           0       15.933961   -2.425584    0.265562
    116          6           0       15.474747   -4.880610   -2.468804
    117          6           0       15.888401   -4.578770    1.006820
    118          8           0       15.934704   -5.786864    1.235077
    119          6           0       15.761097   -3.625744    2.272496
    120          6           0       16.840289   -4.004396    3.249467
    121          8           0       18.039043   -3.839840    2.962182
    122          8           0       16.277948   -4.292587    4.437359
    123          6           0       17.309292   -4.663385    5.442681
    124          1           0       14.708412    3.215948    2.774581
    125          1           0       15.615157    3.735125   -3.383323
    126          1           0       15.581832   -2.516900   -3.971403
    127          1           0       14.881381   -1.456345    4.360137
    128          1           0       15.072694    1.349154    4.532293
    129          1           0       12.898430   -0.481859    3.604876
    130          1           0       12.892400    1.124760    2.847865
    131          1           0       12.764028    1.031043    4.578299
    132          1           0       17.262853    0.412955    4.366881
    133          1           0       17.562080   -1.350061    4.149070
    134          1           0       15.882203   -1.014494    6.423469
    135          1           0       16.912550    0.372326    6.423834
    136          1           0       15.345979    5.216973    2.600961
    137          1           0       14.966690    6.353294    1.350311
    138          1           0       16.679165    6.135542    1.782507
    139          1           0       15.844522    7.450065   -0.382291
    140          1           0       17.013027    7.878043   -1.760017
    141          1           0       17.529867    6.979913   -0.304110
    142          1           0       16.082586    2.103221   -5.285449
    143          1           0       14.568432   -0.457166   -5.377849
    144          1           0       14.119093    2.765803   -6.199136
    145          1           0       13.355590    2.445227   -4.602160
    146          1           0       13.360268    1.232592   -5.779081
    147          1           0       16.488306    0.109857   -6.915492
    148          1           0       16.549618   -1.496531   -6.214971
    149          1           0       18.075440    0.949315   -5.693627
    150          1           0       18.715033   -0.724134   -5.881509
    151          1           0       17.955307   -0.161642   -4.325643
    152          1           0       16.173953   -5.653207   -2.177773
    153          1           0       15.616342   -4.585516   -3.506417
    154          1           0       14.429996   -5.114713   -2.247535
    155          1           0       14.763304   -3.766782    2.689730
    156          1           0       17.035683   -5.648663    5.832606
    157          1           0       17.337253   -3.825860    6.164841
    158          1           0       18.314783   -4.849676    5.083890
 ---------------------------------------------------------------------
 Rotational constants (GHZ):           0.0202559           0.0016300           0.0016259
 Leave Link  202 at Sun Sep 12 16:20:58 2021, MaxMem= 23488102400 cpu:               0.2 elap:               0.0
 (Enter /sw/apps/gaussian-16.0/g16/l301.exe)
 Standard basis: def2SVP (5D, 7F)
 Ernie: Thresh=  0.10000D-02 Tol=  0.10000D-05 Strict=F.
 There are  1658 symmetry adapted cartesian basis functions of A   symmetry.
 There are  1572 symmetry adapted basis functions of A   symmetry.
  1572 basis functions,  2678 primitive gaussians,  1658 cartesian basis functions
   312 alpha electrons      312 beta electrons
       nuclear repulsion energy     12305.9327072174 Hartrees.
 IExCor=20419 DFT=T Ex+Corr=CAM-B3LYP ExCW=0 ScaHFX=  1.000000
 ScaDFX=  1.000000  1.000000  1.000000  0.810000 ScalE2=  1.000000  1.000000
 IRadAn=      5 IRanWt=     -1 IRanGd=            0 ICorTp=0 IEmpDi=  4
 HFx  wShort=  0.000000 wLong=  0.330000 cFull=  0.190000 cShort=  0.000000 cLong=  0.460000
 DFx  wShort=  0.000000 wLong=  0.330000 cFull=  0.190000 cShort=  0.000000 cLong=  0.460000
 NAtoms=  158 NActive=  158 NUniq=  158 SFac= 1.00D+00 NAtFMM=   60 NAOKFM=T Big=T
 Integral buffers will be    131072 words long.
 Raffenetti 1 integral format.
 Two-electron integral symmetry is turned on.
 Leave Link  301 at Sun Sep 12 16:20:58 2021, MaxMem= 23488102400 cpu:               1.3 elap:               0.1
 (Enter /sw/apps/gaussian-16.0/g16/l302.exe)
 NPDir=0 NMtPBC=     1 NCelOv=     1 NCel=       1 NClECP=     1 NCelD=      1
         NCelK=      1 NCelE2=     1 NClLst=     1 CellRange=     0.0.
 One-electron integrals computed using PRISM.
 One-electron integral symmetry used in STVInt
   1 Symmetry operations used in ECPInt.
 ECPInt:  NShTT=  271216 NPrTT=  987664 LenC2=  103957 LenP2D=  239866.
 LDataN:  DoStor=T MaxTD1= 4 Len=   56
 NBasis=  1572 RedAO= T EigKep=  3.36D-04  NBF=  1572
 NBsUse=  1572 1.00D-06 EigRej= -1.00D+00 NBFU=  1572
 Precomputing XC quadrature grid using
 IXCGrd= 4 IRadAn=           5 IRanWt=          -1 IRanGd=           0 AccXCQ= 0.00D+00.
 Generated NRdTot=       0 NPtTot=           0 NUsed=           0 NTot=          32
 NSgBfM=   812   812   812   812   812 MxSgAt=   158 MxSgA2=    79.
 Leave Link  302 at Sun Sep 12 16:21:02 2021, MaxMem= 23488102400 cpu:              94.9 elap:               4.0
 (Enter /sw/apps/gaussian-16.0/g16/l303.exe)
 DipDrv:  MaxL=1.
 Leave Link  303 at Sun Sep 12 16:21:02 2021, MaxMem= 23488102400 cpu:               8.7 elap:               0.4
 (Enter /sw/apps/gaussian-16.0/g16/l308.exe)
 Leave Link  308 at Sun Sep 12 16:21:03 2021, MaxMem= 23488102400 cpu:              14.7 elap:               0.7
 (Enter /sw/apps/gaussian-16.0/g16/l401.exe)
 ExpMin= 3.36D-02 ExpMax= 4.95D+03 ExpMxC= 7.45D+02 IAcc=3 IRadAn=         5 AccDes= 0.00D+00
 Harris functional with IExCor=20419 and IRadAn=       5 diagonalized for initial guess.
 HarFok:  IExCor=20419 AccDes= 0.00D+00 IRadAn=         5 IDoV= 1 UseB2=F ITyADJ=14
 ICtDFT=  3500011 ScaDFX=  1.000000  1.000000  1.000000  1.000000
 FoFCou: FMM=F IPFlag=           0 FMFlag=      100000 FMFlg1=        2001
         NFxFlg=           0 DoJE=T BraDBF=F KetDBF=T FulRan=T
         wScrn=  0.000000 ICntrl=       500 IOpCl=  0 I1Cent=   200000004 NGrid=           0
         NMat0=    1 NMatS0=      1 NMatT0=    0 NMatD0=    1 NMtDS0=    0 NMtDT0=    0
 Petite list used in FoFCou.
 Harris En= -3918.65801449087    
 JPrj=0 DoOrth=F DoCkMO=F.
 Leave Link  401 at Sun Sep 12 16:21:09 2021, MaxMem= 23488102400 cpu:             154.6 elap:               6.5
 (Enter /sw/apps/gaussian-16.0/g16/l502.exe)
 Integral symmetry usage will be decided dynamically.
 Closed shell SCF:
 Using DIIS extrapolation, IDIIS=  1040.
 NGot= 23488102400 LenX= 23482547354 LenY= 23479796732
 Requested convergence on RMS density matrix=1.00D-08 within 128 cycles.
 Requested convergence on MAX density matrix=1.00D-06.
 Requested convergence on             energy=1.00D-06.
 No special actions if energy rises.
 Fock matrices will be formed incrementally for  20 cycles.

 Cycle   1  Pass 1  IDiag  1:
 FoFJK:  IHMeth= 1 ICntrl=       0 DoSepK=T KAlg= 0 I1Cent=           0 FoldK=F
 IRaf=         1 NMat=       1 IRICut=       1 DoRegI=T DoRafI=F ISym2E= 0 IDoP0=0 IntGTp=1.
 FoFCou: FMM=T IPFlag=           0 FMFlag=      100000 FMFlg1=        2001
         NFxFlg=           0 DoJE=T BraDBF=F KetDBF=F FulRan=T
         wScrn=  0.000000 ICntrl=       500 IOpCl=  0 I1Cent=           0 NGrid=           0
         NMat0=    1 NMatS0=      1 NMatT0=    0 NMatD0=    1 NMtDS0=    0 NMtDT0=    0
 Symmetry not used in FoFCou.
 FMM levels:  10  Number of levels for PrismC:   9
 E= -4068.94930167048    
 DIIS: error= 2.04D-02 at cycle   1 NSaved=   1.
 NSaved= 1 IEnMin= 1 EnMin= -4068.94930167048     IErMin= 1 ErrMin= 2.04D-02
 ErrMax= 2.04D-02  0.00D+00 EMaxC= 1.00D-01 BMatC= 1.69D+00 BMatP= 1.69D+00
 IDIUse=3 WtCom= 7.96D-01 WtEn= 2.04D-01
 Coeff-Com:  0.100D+01
 Coeff-En:   0.100D+01
 Coeff:      0.100D+01
 Gap=     0.120 Goal=   None    Shift=    0.000
 GapD=    0.120 DampG=1.000 DampE=0.500 DampFc=0.5000 IDamp=-1.
 Damping current iteration by 5.00D-01
 RMSDP=1.57D-03 MaxDP=1.35D-01              OVMax= 2.03D-01

 Cycle   2  Pass 1  IDiag  1:
 RMSU=  7.69D-04    CP:  9.82D-01
 E= -4069.33821277450     Delta-E=       -0.388911104021 Rises=F Damp=T
 DIIS: error= 1.27D-02 at cycle   2 NSaved=   2.
 NSaved= 2 IEnMin= 2 EnMin= -4069.33821277450     IErMin= 2 ErrMin= 1.27D-02
 ErrMax= 1.27D-02  0.00D+00 EMaxC= 1.00D-01 BMatC= 3.07D-01 BMatP= 1.69D+00
 IDIUse=3 WtCom= 8.73D-01 WtEn= 1.27D-01
 Coeff-Com: -0.213D+00 0.121D+01
 Coeff-En:   0.000D+00 0.100D+01
 Coeff:     -0.186D+00 0.119D+01
 Gap=     0.138 Goal=   None    Shift=    0.000
 RMSDP=7.65D-04 MaxDP=9.43D-02 DE=-3.89D-01 OVMax= 1.88D-01

 Cycle   3  Pass 1  IDiag  1:
 RMSU=  7.32D-04    CP:  9.68D-01  1.24D+00
 E= -4069.62799871600     Delta-E=       -0.289785941502 Rises=F Damp=F
 DIIS: error= 1.58D-02 at cycle   3 NSaved=   3.
 NSaved= 3 IEnMin= 3 EnMin= -4069.62799871600     IErMin= 2 ErrMin= 1.27D-02
 ErrMax= 1.58D-02  0.00D+00 EMaxC= 1.00D-01 BMatC= 2.02D-01 BMatP= 3.07D-01
 IDIUse=3 WtCom= 8.42D-01 WtEn= 1.58D-01
 Coeff-Com: -0.267D+00 0.652D+00 0.616D+00
 Coeff-En:   0.000D+00 0.000D+00 0.100D+01
 Coeff:     -0.225D+00 0.549D+00 0.676D+00
 Gap=     0.125 Goal=   None    Shift=    0.000
 RMSDP=5.08D-04 MaxDP=4.89D-02 DE=-2.90D-01 OVMax= 1.43D-01

 Cycle   4  Pass 1  IDiag  1:
 RMSU=  2.65D-04    CP:  9.65D-01  1.55D+00  5.06D-01
 E= -4069.76510663904     Delta-E=       -0.137107923045 Rises=F Damp=F
 DIIS: error= 7.31D-03 at cycle   4 NSaved=   4.
 NSaved= 4 IEnMin= 4 EnMin= -4069.76510663904     IErMin= 4 ErrMin= 7.31D-03
 ErrMax= 7.31D-03  0.00D+00 EMaxC= 1.00D-01 BMatC= 5.04D-02 BMatP= 2.02D-01
 IDIUse=3 WtCom= 9.27D-01 WtEn= 7.31D-02
 Coeff-Com: -0.109D+00 0.226D+00 0.409D+00 0.474D+00
 Coeff-En:   0.000D+00 0.000D+00 0.221D+00 0.779D+00
 Coeff:     -0.101D+00 0.209D+00 0.395D+00 0.497D+00
 Gap=     0.123 Goal=   None    Shift=    0.000
 RMSDP=2.00D-04 MaxDP=2.08D-02 DE=-1.37D-01 OVMax= 6.18D-02

 Cycle   5  Pass 1  IDiag  1:
 RMSU=  7.58D-05    CP:  9.64D-01  1.49D+00  6.89D-01  5.50D-01
 E= -4069.81054725099     Delta-E=       -0.045440611942 Rises=F Damp=F
 DIIS: error= 7.88D-04 at cycle   5 NSaved=   5.
 NSaved= 5 IEnMin= 5 EnMin= -4069.81054725099     IErMin= 5 ErrMin= 7.88D-04
 ErrMax= 7.88D-04  0.00D+00 EMaxC= 1.00D-01 BMatC= 1.16D-03 BMatP= 5.04D-02
 IDIUse=3 WtCom= 9.92D-01 WtEn= 7.88D-03
 Coeff-Com: -0.357D-01 0.701D-01 0.165D+00 0.249D+00 0.552D+00
 Coeff-En:   0.000D+00 0.000D+00 0.000D+00 0.000D+00 0.100D+01
 Coeff:     -0.354D-01 0.696D-01 0.164D+00 0.247D+00 0.555D+00
 Gap=     0.123 Goal=   None    Shift=    0.000
 RMSDP=4.07D-05 MaxDP=4.17D-03 DE=-4.54D-02 OVMax= 1.64D-02

 Cycle   6  Pass 1  IDiag  1:
 RMSU=  3.02D-05    CP:  9.64D-01  1.49D+00  6.81D-01  6.21D-01  7.60D-01
 E= -4069.81155184655     Delta-E=       -0.001004595561 Rises=F Damp=F
 DIIS: error= 2.19D-04 at cycle   6 NSaved=   6.
 NSaved= 6 IEnMin= 6 EnMin= -4069.81155184655     IErMin= 6 ErrMin= 2.19D-04
 ErrMax= 2.19D-04  0.00D+00 EMaxC= 1.00D-01 BMatC= 1.75D-04 BMatP= 1.16D-03
 IDIUse=3 WtCom= 9.98D-01 WtEn= 2.19D-03
 Coeff-Com:  0.232D-02-0.679D-02 0.108D-01 0.397D-01 0.306D+00 0.648D+00
 Coeff-En:   0.000D+00 0.000D+00 0.000D+00 0.000D+00 0.102D+00 0.898D+00
 Coeff:      0.231D-02-0.678D-02 0.108D-01 0.396D-01 0.306D+00 0.648D+00
 Gap=     0.123 Goal=   None    Shift=    0.000
 RMSDP=1.58D-05 MaxDP=1.24D-03 DE=-1.00D-03 OVMax= 7.26D-03

 Cycle   7  Pass 1  IDiag  1:
 RMSU=  1.06D-05    CP:  9.64D-01  1.50D+00  6.87D-01  6.21D-01  8.60D-01
                    CP:  7.50D-01
 E= -4069.81173992368     Delta-E=       -0.000188077129 Rises=F Damp=F
 DIIS: error= 8.40D-05 at cycle   7 NSaved=   7.
 NSaved= 7 IEnMin= 7 EnMin= -4069.81173992368     IErMin= 7 ErrMin= 8.40D-05
 ErrMax= 8.40D-05  0.00D+00 EMaxC= 1.00D-01 BMatC= 2.06D-05 BMatP= 1.75D-04
 IDIUse=1 WtCom= 1.00D+00 WtEn= 0.00D+00
 Coeff-Com:  0.445D-02-0.973D-02-0.899D-02-0.385D-02 0.102D+00 0.329D+00
 Coeff-Com:  0.588D+00
 Coeff:      0.445D-02-0.973D-02-0.899D-02-0.385D-02 0.102D+00 0.329D+00
 Coeff:      0.588D+00
 Gap=     0.123 Goal=   None    Shift=    0.000
 RMSDP=6.49D-06 MaxDP=1.12D-03 DE=-1.88D-04 OVMax= 3.42D-03

 Cycle   8  Pass 1  IDiag  1:
 RMSU=  4.66D-06    CP:  9.64D-01  1.50D+00  6.88D-01  6.26D-01  8.64D-01
                    CP:  8.76D-01  8.24D-01
 E= -4069.81176550630     Delta-E=       -0.000025582622 Rises=F Damp=F
 DIIS: error= 5.02D-05 at cycle   8 NSaved=   8.
 NSaved= 8 IEnMin= 8 EnMin= -4069.81176550630     IErMin= 8 ErrMin= 5.02D-05
 ErrMax= 5.02D-05  0.00D+00 EMaxC= 1.00D-01 BMatC= 4.80D-06 BMatP= 2.06D-05
 IDIUse=1 WtCom= 1.00D+00 WtEn= 0.00D+00
 Coeff-Com:  0.215D-02-0.425D-02-0.774D-02-0.121D-01-0.118D-01 0.334D-01
 Coeff-Com:  0.344D+00 0.656D+00
 Coeff:      0.215D-02-0.425D-02-0.774D-02-0.121D-01-0.118D-01 0.334D-01
 Coeff:      0.344D+00 0.656D+00
 Gap=     0.123 Goal=   None    Shift=    0.000
 RMSDP=3.26D-06 MaxDP=3.56D-04 DE=-2.56D-05 OVMax= 1.12D-03

 Cycle   9  Pass 1  IDiag  1:
 RMSU=  1.90D-06    CP:  9.64D-01  1.50D+00  6.88D-01  6.27D-01  8.81D-01
                    CP:  9.02D-01  1.02D+00  9.39D-01
 E= -4069.81177317807     Delta-E=       -0.000007671775 Rises=F Damp=F
 DIIS: error= 1.93D-05 at cycle   9 NSaved=   9.
 NSaved= 9 IEnMin= 9 EnMin= -4069.81177317807     IErMin= 9 ErrMin= 1.93D-05
 ErrMax= 1.93D-05  0.00D+00 EMaxC= 1.00D-01 BMatC= 6.84D-07 BMatP= 4.80D-06
 IDIUse=1 WtCom= 1.00D+00 WtEn= 0.00D+00
 Coeff-Com:  0.462D-03-0.766D-03-0.266D-02-0.598D-02-0.213D-01-0.385D-01
 Coeff-Com:  0.104D+00 0.326D+00 0.639D+00
 Coeff:      0.462D-03-0.766D-03-0.266D-02-0.598D-02-0.213D-01-0.385D-01
 Coeff:      0.104D+00 0.326D+00 0.639D+00
 Gap=     0.123 Goal=   None    Shift=    0.000
 RMSDP=1.41D-06 MaxDP=1.51D-04 DE=-7.67D-06 OVMax= 7.47D-04

 Cycle  10  Pass 1  IDiag  1:
 RMSU=  9.36D-07    CP:  9.64D-01  1.50D+00  6.88D-01  6.28D-01  8.84D-01
                    CP:  9.15D-01  1.07D+00  1.10D+00  1.05D+00
 E= -4069.81177475683     Delta-E=       -0.000001578754 Rises=F Damp=F
 DIIS: error= 1.03D-05 at cycle  10 NSaved=  10.
 NSaved=10 IEnMin=10 EnMin= -4069.81177475683     IErMin=10 ErrMin= 1.03D-05
 ErrMax= 1.03D-05  0.00D+00 EMaxC= 1.00D-01 BMatC= 1.71D-07 BMatP= 6.84D-07
 IDIUse=1 WtCom= 1.00D+00 WtEn= 0.00D+00
 Coeff-Com: -0.427D-03 0.894D-03 0.123D-02 0.112D-02-0.376D-02-0.309D-01
 Coeff-Com: -0.466D-01-0.764D-01 0.255D+00 0.900D+00
 Coeff:     -0.427D-03 0.894D-03 0.123D-02 0.112D-02-0.376D-02-0.309D-01
 Coeff:     -0.466D-01-0.764D-01 0.255D+00 0.900D+00
 Gap=     0.123 Goal=   None    Shift=    0.000
 RMSDP=1.22D-06 MaxDP=1.25D-04 DE=-1.58D-06 OVMax= 6.06D-04

 Cycle  11  Pass 1  IDiag  1:
 RMSU=  5.14D-07    CP:  9.64D-01  1.50D+00  6.88D-01  6.28D-01  8.87D-01
                    CP:  9.25D-01  1.12D+00  1.22D+00  1.39D+00  1.37D+00
 E= -4069.81177554044     Delta-E=       -0.000000783615 Rises=F Damp=F
 DIIS: error= 3.94D-06 at cycle  11 NSaved=  11.
 NSaved=11 IEnMin=11 EnMin= -4069.81177554044     IErMin=11 ErrMin= 3.94D-06
 ErrMax= 3.94D-06  0.00D+00 EMaxC= 1.00D-01 BMatC= 6.07D-08 BMatP= 1.71D-07
 IDIUse=1 WtCom= 1.00D+00 WtEn= 0.00D+00
 Coeff-Com: -0.326D-03 0.634D-03 0.132D-02 0.212D-02 0.441D-02-0.832D-02
 Coeff-Com: -0.436D-01-0.132D+00-0.231D-01 0.464D+00 0.735D+00
 Coeff:     -0.326D-03 0.634D-03 0.132D-02 0.212D-02 0.441D-02-0.832D-02
 Coeff:     -0.436D-01-0.132D+00-0.231D-01 0.464D+00 0.735D+00
 Gap=     0.123 Goal=   None    Shift=    0.000
 RMSDP=6.84D-07 MaxDP=5.75D-05 DE=-7.84D-07 OVMax= 3.69D-04

 Cycle  12  Pass 1  IDiag  1:
 RMSU=  2.62D-07    CP:  9.64D-01  1.50D+00  6.88D-01  6.28D-01  8.88D-01
                    CP:  9.28D-01  1.14D+00  1.28D+00  1.56D+00  1.76D+00
                    CP:  1.20D+00
 E= -4069.81177580163     Delta-E=       -0.000000261191 Rises=F Damp=F
 DIIS: error= 2.36D-06 at cycle  12 NSaved=  12.
 NSaved=12 IEnMin=12 EnMin= -4069.81177580163     IErMin=12 ErrMin= 2.36D-06
 ErrMax= 2.36D-06  0.00D+00 EMaxC= 1.00D-01 BMatC= 1.47D-08 BMatP= 6.07D-08
 IDIUse=1 WtCom= 1.00D+00 WtEn= 0.00D+00
 Coeff-Com:  0.974D-06-0.184D-04 0.175D-03 0.504D-03 0.328D-02 0.408D-02
 Coeff-Com:  0.291D-02-0.345D-01-0.679D-01-0.768D-01 0.249D+00 0.919D+00
 Coeff:      0.974D-06-0.184D-04 0.175D-03 0.504D-03 0.328D-02 0.408D-02
 Coeff:      0.291D-02-0.345D-01-0.679D-01-0.768D-01 0.249D+00 0.919D+00
 Gap=     0.123 Goal=   None    Shift=    0.000
 RMSDP=4.37D-07 MaxDP=3.12D-05 DE=-2.61D-07 OVMax= 2.47D-04

 Cycle  13  Pass 1  IDiag  1:
 RMSU=  1.65D-07    CP:  9.64D-01  1.50D+00  6.88D-01  6.28D-01  8.88D-01
                    CP:  9.28D-01  1.14D+00  1.31D+00  1.67D+00  1.99D+00
                    CP:  1.62D+00  1.28D+00
 E= -4069.81177589350     Delta-E=       -0.000000091872 Rises=F Damp=F
 DIIS: error= 1.23D-06 at cycle  13 NSaved=  13.
 NSaved=13 IEnMin=13 EnMin= -4069.81177589350     IErMin=13 ErrMin= 1.23D-06
 ErrMax= 1.23D-06  0.00D+00 EMaxC= 1.00D-01 BMatC= 8.07D-09 BMatP= 1.47D-08
 IDIUse=1 WtCom= 1.00D+00 WtEn= 0.00D+00
 Coeff-Com:  0.120D-03-0.245D-03-0.370D-03-0.458D-03 0.564D-03 0.508D-02
 Coeff-Com:  0.197D-01 0.228D-01-0.340D-01-0.241D+00-0.156D+00 0.600D+00
 Coeff-Com:  0.785D+00
 Coeff:      0.120D-03-0.245D-03-0.370D-03-0.458D-03 0.564D-03 0.508D-02
 Coeff:      0.197D-01 0.228D-01-0.340D-01-0.241D+00-0.156D+00 0.600D+00
 Coeff:      0.785D+00
 Gap=     0.123 Goal=   None    Shift=    0.000
 RMSDP=3.38D-07 MaxDP=2.28D-05 DE=-9.19D-08 OVMax= 1.95D-04

 Cycle  14  Pass 1  IDiag  1:
 RMSU=  7.59D-08    CP:  9.64D-01  1.50D+00  6.88D-01  6.28D-01  8.88D-01
                    CP:  9.29D-01  1.15D+00  1.33D+00  1.74D+00  2.18D+00
                    CP:  1.88D+00  1.79D+00  1.09D+00
 E= -4069.81177592913     Delta-E=       -0.000000035627 Rises=F Damp=F
 DIIS: error= 6.21D-07 at cycle  14 NSaved=  14.
 NSaved=14 IEnMin=14 EnMin= -4069.81177592913     IErMin=14 ErrMin= 6.21D-07
 ErrMax= 6.21D-07  0.00D+00 EMaxC= 1.00D-01 BMatC= 1.24D-09 BMatP= 8.07D-09
 IDIUse=1 WtCom= 1.00D+00 WtEn= 0.00D+00
 Coeff-Com:  0.661D-04-0.130D-03-0.245D-03-0.386D-03-0.485D-03 0.129D-02
 Coeff-Com:  0.107D-01 0.191D-01 0.365D-02-0.993D-01-0.142D+00 0.941D-01
 Coeff-Com:  0.404D+00 0.710D+00
 Coeff:      0.661D-04-0.130D-03-0.245D-03-0.386D-03-0.485D-03 0.129D-02
 Coeff:      0.107D-01 0.191D-01 0.365D-02-0.993D-01-0.142D+00 0.941D-01
 Coeff:      0.404D+00 0.710D+00
 Gap=     0.123 Goal=   None    Shift=    0.000
 RMSDP=1.01D-07 MaxDP=6.65D-06 DE=-3.56D-08 OVMax= 5.46D-05

 Cycle  15  Pass 1  IDiag  1:
 RMSU=  3.82D-08    CP:  9.64D-01  1.50D+00  6.88D-01  6.28D-01  8.88D-01
                    CP:  9.29D-01  1.15D+00  1.34D+00  1.76D+00  2.22D+00
                    CP:  1.98D+00  1.93D+00  1.32D+00  1.03D+00
 E= -4069.81177593308     Delta-E=       -0.000000003945 Rises=F Damp=F
 DIIS: error= 3.47D-07 at cycle  15 NSaved=  15.
 NSaved=15 IEnMin=15 EnMin= -4069.81177593308     IErMin=15 ErrMin= 3.47D-07
 ErrMax= 3.47D-07  0.00D+00 EMaxC= 1.00D-01 BMatC= 2.25D-10 BMatP= 1.24D-09
 IDIUse=1 WtCom= 1.00D+00 WtEn= 0.00D+00
 Coeff-Com:  0.512D-05-0.846D-05-0.318D-04-0.805D-04-0.299D-03-0.516D-03
 Coeff-Com:  0.111D-02 0.249D-02 0.875D-02 0.196D-02-0.307D-01-0.730D-01
 Coeff-Com:  0.282D-01 0.298D+00 0.764D+00
 Coeff:      0.512D-05-0.846D-05-0.318D-04-0.805D-04-0.299D-03-0.516D-03
 Coeff:      0.111D-02 0.249D-02 0.875D-02 0.196D-02-0.307D-01-0.730D-01
 Coeff:      0.282D-01 0.298D+00 0.764D+00
 Gap=     0.123 Goal=   None    Shift=    0.000
 RMSDP=4.07D-08 MaxDP=2.72D-06 DE=-3.95D-09 OVMax= 2.66D-05

 Cycle  16  Pass 1  IDiag  1:
 RMSU=  1.86D-08    CP:  9.64D-01  1.50D+00  6.88D-01  6.28D-01  8.88D-01
                    CP:  9.29D-01  1.15D+00  1.34D+00  1.76D+00  2.24D+00
                    CP:  2.01D+00  1.99D+00  1.40D+00  1.24D+00  1.14D+00
 E= -4069.81177593392     Delta-E=       -0.000000000844 Rises=F Damp=F
 DIIS: error= 1.74D-07 at cycle  16 NSaved=  16.
 NSaved=16 IEnMin=16 EnMin= -4069.81177593392     IErMin=16 ErrMin= 1.74D-07
 ErrMax= 1.74D-07  0.00D+00 EMaxC= 1.00D-01 BMatC= 8.08D-11 BMatP= 2.25D-10
 IDIUse=1 WtCom= 1.00D+00 WtEn= 0.00D+00
 Coeff-Com: -0.142D-04 0.288D-04 0.471D-04 0.539D-04-0.262D-04-0.633D-03
 Coeff-Com: -0.199D-02-0.426D-02 0.455D-02 0.256D-01 0.206D-01-0.646D-01
 Coeff-Com: -0.836D-01-0.367D-01 0.397D+00 0.744D+00
 Coeff:     -0.142D-04 0.288D-04 0.471D-04 0.539D-04-0.262D-04-0.633D-03
 Coeff:     -0.199D-02-0.426D-02 0.455D-02 0.256D-01 0.206D-01-0.646D-01
 Coeff:     -0.836D-01-0.367D-01 0.397D+00 0.744D+00
 Gap=     0.123 Goal=   None    Shift=    0.000
 RMSDP=2.28D-08 MaxDP=1.58D-06 DE=-8.44D-10 OVMax= 1.33D-05

 Cycle  17  Pass 1  IDiag  1:
 RMSU=  1.04D-08    CP:  9.64D-01  1.50D+00  6.88D-01  6.28D-01  8.88D-01
                    CP:  9.29D-01  1.15D+00  1.34D+00  1.77D+00  2.24D+00
                    CP:  2.02D+00  2.01D+00  1.45D+00  1.34D+00  1.44D+00
                    CP:  1.25D+00
 E= -4069.81177593424     Delta-E=       -0.000000000324 Rises=F Damp=F
 DIIS: error= 9.83D-08 at cycle  17 NSaved=  17.
 NSaved=17 IEnMin=17 EnMin= -4069.81177593424     IErMin=17 ErrMin= 9.83D-08
 ErrMax= 9.83D-08  0.00D+00 EMaxC= 1.00D-01 BMatC= 1.78D-11 BMatP= 8.08D-11
 IDIUse=1 WtCom= 1.00D+00 WtEn= 0.00D+00
 Coeff-Com: -0.720D-05 0.140D-04 0.286D-04 0.426D-04 0.841D-04-0.122D-03
 Coeff-Com: -0.967D-03-0.280D-02 0.143D-03 0.923D-02 0.175D-01-0.728D-02
 Coeff-Com: -0.371D-01-0.102D+00-0.322D-01 0.296D+00 0.859D+00
 Coeff:     -0.720D-05 0.140D-04 0.286D-04 0.426D-04 0.841D-04-0.122D-03
 Coeff:     -0.967D-03-0.280D-02 0.143D-03 0.923D-02 0.175D-01-0.728D-02
 Coeff:     -0.371D-01-0.102D+00-0.322D-01 0.296D+00 0.859D+00
 Gap=     0.123 Goal=   None    Shift=    0.000
 RMSDP=1.38D-08 MaxDP=1.07D-06 DE=-3.24D-10 OVMax= 8.76D-06

 Cycle  18  Pass 1  IDiag  1:
 RMSU=  4.85D-09    CP:  9.64D-01  1.50D+00  6.88D-01  6.28D-01  8.88D-01
                    CP:  9.29D-01  1.15D+00  1.34D+00  1.77D+00  2.24D+00
                    CP:  2.02D+00  2.02D+00  1.47D+00  1.41D+00  1.61D+00
                    CP:  1.66D+00  1.39D+00
 E= -4069.81177593435     Delta-E=       -0.000000000109 Rises=F Damp=F
 DIIS: error= 5.03D-08 at cycle  18 NSaved=  18.
 NSaved=18 IEnMin=18 EnMin= -4069.81177593435     IErMin=18 ErrMin= 5.03D-08
 ErrMax= 5.03D-08  0.00D+00 EMaxC= 1.00D-01 BMatC= 6.81D-12 BMatP= 1.78D-11
 IDIUse=1 WtCom= 1.00D+00 WtEn= 0.00D+00
 Coeff-Com:  0.207D-05-0.444D-05-0.463D-05-0.180D-05 0.590D-04 0.184D-03
 Coeff-Com:  0.407D-03 0.229D-03-0.129D-02-0.621D-02-0.137D-03 0.203D-01
 Coeff-Com:  0.185D-01-0.325D-01-0.163D+00-0.190D+00 0.347D+00 0.101D+01
 Coeff:      0.207D-05-0.444D-05-0.463D-05-0.180D-05 0.590D-04 0.184D-03
 Coeff:      0.407D-03 0.229D-03-0.129D-02-0.621D-02-0.137D-03 0.203D-01
 Coeff:      0.185D-01-0.325D-01-0.163D+00-0.190D+00 0.347D+00 0.101D+01
 Gap=     0.123 Goal=   None    Shift=    0.000
 RMSDP=1.17D-08 MaxDP=8.10D-07 DE=-1.09D-10 OVMax= 6.96D-06

 Cycle  19  Pass 1  IDiag  1:
 RMSU=  2.79D-09    CP:  9.64D-01  1.50D+00  6.88D-01  6.28D-01  8.88D-01
                    CP:  9.29D-01  1.15D+00  1.34D+00  1.77D+00  2.24D+00
                    CP:  2.03D+00  2.03D+00  1.48D+00  1.46D+00  1.77D+00
                    CP:  1.99D+00  1.94D+00  1.38D+00
 E= -4069.81177593451     Delta-E=       -0.000000000156 Rises=F Damp=F
 DIIS: error= 3.85D-08 at cycle  19 NSaved=  19.
 NSaved=19 IEnMin=19 EnMin= -4069.81177593451     IErMin=19 ErrMin= 3.85D-08
 ErrMax= 3.85D-08  0.00D+00 EMaxC= 1.00D-01 BMatC= 1.44D-12 BMatP= 6.81D-12
 IDIUse=1 WtCom= 1.00D+00 WtEn= 0.00D+00
 Coeff-Com:  0.289D-05-0.583D-05-0.989D-05-0.124D-04 0.108D-04 0.119D-03
 Coeff-Com:  0.477D-03 0.797D-03-0.603D-03-0.596D-02-0.482D-02 0.121D-01
 Coeff-Com:  0.201D-01 0.112D-01-0.694D-01-0.178D+00-0.351D-01 0.494D+00
 Coeff-Com:  0.754D+00
 Coeff:      0.289D-05-0.583D-05-0.989D-05-0.124D-04 0.108D-04 0.119D-03
 Coeff:      0.477D-03 0.797D-03-0.603D-03-0.596D-02-0.482D-02 0.121D-01
 Coeff:      0.201D-01 0.112D-01-0.694D-01-0.178D+00-0.351D-01 0.494D+00
 Coeff:      0.754D+00
 Gap=     0.123 Goal=   None    Shift=    0.000
 RMSDP=4.59D-09 MaxDP=3.28D-07 DE=-1.56D-10 OVMax= 2.81D-06

 SCF Done:  E(RCAM-B3LYP) =  -4069.81177593     A.U. after   19 cycles
            NFock= 19  Conv=0.46D-08     -V/T= 2.0102
 KE= 4.028802015685D+03 PE=-3.409269272363D+04 EE= 1.368814622479D+04
 Leave Link  502 at Sun Sep 12 16:29:23 2021, MaxMem= 23488102400 cpu:           11265.9 elap:             493.1
 (Enter /sw/apps/gaussian-16.0/g16/l801.exe)
 DoSCS=F DFT=T ScalE2(SS,OS)=  1.000000  1.000000
 ExpMin= 3.36D-02 ExpMax= 4.95D+03 ExpMxC= 7.45D+02 IAcc=3 IRadAn=         5 AccDes= 0.00D+00
 HarFok:  IExCor=  205 AccDes= 0.00D+00 IRadAn=         5 IDoV=-2 UseB2=F ITyADJ=14
 ICtDFT= 12500011 ScaDFX=  1.000000  1.000000  1.000000  1.000000
 GSVD:  LWork=       -9588 too small for GESVD, short by       45590 words or       45590 for optimal perf.
 Largest valence mixing into a core orbital is  2.03D-04
 Largest core mixing into a valence orbital is  5.24D-05
 Range of M.O.s used for correlation:    95  1572
 NBasis=  1572 NAE=   312 NBE=   312 NFC=    94 NFV=     0
 NROrb=   1478 NOA=   218 NOB=   218 NVA=  1260 NVB=  1260
 Leave Link  801 at Sun Sep 12 16:29:23 2021, MaxMem= 23488102400 cpu:               8.0 elap:               0.4
 (Enter /sw/apps/gaussian-16.0/g16/l914.exe)
 RHF ground state
 Two-electron integrals replicated using symmetry.
 MDV= 23488102400 DFT=T DoStab=F Mixed=T DoRPA=T DoScal=F NonHer=T
 Making orbital integer symmetry assigments:
 Orbital symmetries:
       Occupied  (A) (A) (A) (A) (A) (A) (A) (A) (A) (A) (A) (A)
                 (A) (A) (A) (A) (A) (A) (A) (A) (A) (A) (A) (A)
                 (A) (A) (A) (A) (A) (A) (A) (A) (A) (A) (A) (A)
                 (A) (A) (A) (A) (A) (A) (A) (A) (A) (A) (A) (A)
                 (A) (A) (A) (A) (A) (A) (A) (A) (A) (A) (A) (A)
                 (A) (A) (A) (A) (A) (A) (A) (A) (A) (A) (A) (A)
                 (A) (A) (A) (A) (A) (A) (A) (A) (A) (A) (A) (A)
                 (A) (A) (A) (A) (A) (A) (A) (A) (A) (A) (A) (A)
                 (A) (A) (A) (A) (A) (A) (A) (A) (A) (A) (A) (A)
                 (A) (A) (A) (A) (A) (A) (A) (A) (A) (A) (A) (A)
                 (A) (A) (A) (A) (A) (A) (A) (A) (A) (A) (A) (A)
                 (A) (A) (A) (A) (A) (A) (A) (A) (A) (A) (A) (A)
                 (A) (A) (A) (A) (A) (A) (A) (A) (A) (A) (A) (A)
                 (A) (A) (A) (A) (A) (A) (A) (A) (A) (A) (A) (A)
                 (A) (A) (A) (A) (A) (A) (A) (A) (A) (A) (A) (A)
                 (A) (A) (A) (A) (A) (A) (A) (A) (A) (A) (A) (A)
                 (A) (A) (A) (A) (A) (A) (A) (A) (A) (A) (A) (A)
                 (A) (A) (A) (A) (A) (A) (A) (A) (A) (A) (A) (A)
                 (A) (A) (A) (A) (A) (A) (A) (A) (A) (A) (A) (A)
                 (A) (A) (A) (A) (A) (A) (A) (A) (A) (A) (A) (A)
                 (A) (A) (A) (A) (A) (A) (A) (A) (A) (A) (A) (A)
                 (A) (A) (A) (A) (A) (A) (A) (A) (A) (A) (A) (A)
                 (A) (A) (A) (A) (A) (A) (A) (A) (A) (A) (A) (A)
                 (A) (A) (A) (A) (A) (A) (A) (A) (A) (A) (A) (A)
                 (A) (A) (A) (A) (A) (A) (A) (A) (A) (A) (A) (A)
                 (A) (A) (A) (A) (A) (A) (A) (A) (A) (A) (A) (A)
       Virtual   (A) (A) (A) (A) (A) (A) (A) (A) (A) (A) (A) (A)
                 (A) (A) (A) (A) (A) (A) (A) (A) (A) (A) (A) (A)
                 (A) (A) (A) (A) (A) (A) (A) (A) (A) (A) (A) (A)
                 (A) (A) (A) (A) (A) (A) (A) (A) (A) (A) (A) (A)
                 (A) (A) (A) (A) (A) (A) (A) (A) (A) (A) (A) (A)
                 (A) (A) (A) (A) (A) (A) (A) (A) (A) (A) (A) (A)
                 (A) (A) (A) (A) (A) (A) (A) (A) (A) (A) (A) (A)
                 (A) (A) (A) (A) (A) (A) (A) (A) (A) (A) (A) (A)
                 (A) (A) (A) (A) (A) (A) (A) (A) (A) (A) (A) (A)
                 (A) (A) (A) (A) (A) (A) (A) (A) (A) (A) (A) (A)
                 (A) (A) (A) (A) (A) (A) (A) (A) (A) (A) (A) (A)
                 (A) (A) (A) (A) (A) (A) (A) (A) (A) (A) (A) (A)
                 (A) (A) (A) (A) (A) (A) (A) (A) (A) (A) (A) (A)
                 (A) (A) (A) (A) (A) (A) (A) (A) (A) (A) (A) (A)
                 (A) (A) (A) (A) (A) (A) (A) (A) (A) (A) (A) (A)
                 (A) (A) (A) (A) (A) (A) (A) (A) (A) (A) (A) (A)
                 (A) (A) (A) (A) (A) (A) (A) (A) (A) (A) (A) (A)
                 (A) (A) (A) (A) (A) (A) (A) (A) (A) (A) (A) (A)
                 (A) (A) (A) (A) (A) (A) (A) (A) (A) (A) (A) (A)
                 (A) (A) (A) (A) (A) (A) (A) (A) (A) (A) (A) (A)
                 (A) (A) (A) (A) (A) (A) (A) (A) (A) (A) (A) (A)
                 (A) (A) (A) (A) (A) (A) (A) (A) (A) (A) (A) (A)
                 (A) (A) (A) (A) (A) (A) (A) (A) (A) (A) (A) (A)
                 (A) (A) (A) (A) (A) (A) (A) (A) (A) (A) (A) (A)
                 (A) (A) (A) (A) (A) (A) (A) (A) (A) (A) (A) (A)
                 (A) (A) (A) (A) (A) (A) (A) (A) (A) (A) (A) (A)
                 (A) (A) (A) (A) (A) (A) (A) (A) (A) (A) (A) (A)
                 (A) (A) (A) (A) (A) (A) (A) (A) (A) (A) (A) (A)
                 (A) (A) (A) (A) (A) (A) (A) (A) (A) (A) (A) (A)
                 (A) (A) (A) (A) (A) (A) (A) (A) (A) (A) (A) (A)
                 (A) (A) (A) (A) (A) (A) (A) (A) (A) (A) (A) (A)
                 (A) (A) (A) (A) (A) (A) (A) (A) (A) (A) (A) (A)
                 (A) (A) (A) (A) (A) (A) (A) (A) (A) (A) (A) (A)
                 (A) (A) (A) (A) (A) (A) (A) (A) (A) (A) (A) (A)
                 (A) (A) (A) (A) (A) (A) (A) (A) (A) (A) (A) (A)
                 (A) (A) (A) (A) (A) (A) (A) (A) (A) (A) (A) (A)
                 (A) (A) (A) (A) (A) (A) (A) (A) (A) (A) (A) (A)
                 (A) (A) (A) (A) (A) (A) (A) (A) (A) (A) (A) (A)
                 (A) (A) (A) (A) (A) (A) (A) (A) (A) (A) (A) (A)
                 (A) (A) (A) (A) (A) (A) (A) (A) (A) (A) (A) (A)
                 (A) (A) (A) (A) (A) (A) (A) (A) (A) (A) (A) (A)
                 (A) (A) (A) (A) (A) (A) (A) (A) (A) (A) (A) (A)
                 (A) (A) (A) (A) (A) (A) (A) (A) (A) (A) (A) (A)
                 (A) (A) (A) (A) (A) (A) (A) (A) (A) (A) (A) (A)
                 (A) (A) (A) (A) (A) (A) (A) (A) (A) (A) (A) (A)
                 (A) (A) (A) (A) (A) (A) (A) (A) (A) (A) (A) (A)
                 (A) (A) (A) (A) (A) (A) (A) (A) (A) (A) (A) (A)
                 (A) (A) (A) (A) (A) (A) (A) (A) (A) (A) (A) (A)
                 (A) (A) (A) (A) (A) (A) (A) (A) (A) (A) (A) (A)
                 (A) (A) (A) (A) (A) (A) (A) (A) (A) (A) (A) (A)
                 (A) (A) (A) (A) (A) (A) (A) (A) (A) (A) (A) (A)
                 (A) (A) (A) (A) (A) (A) (A) (A) (A) (A) (A) (A)
                 (A) (A) (A) (A) (A) (A) (A) (A) (A) (A) (A) (A)
                 (A) (A) (A) (A) (A) (A) (A) (A) (A) (A) (A) (A)
                 (A) (A) (A) (A) (A) (A) (A) (A) (A) (A) (A) (A)
                 (A) (A) (A) (A) (A) (A) (A) (A) (A) (A) (A) (A)
                 (A) (A) (A) (A) (A) (A) (A) (A) (A) (A) (A) (A)
                 (A) (A) (A) (A) (A) (A) (A) (A) (A) (A) (A) (A)
                 (A) (A) (A) (A) (A) (A) (A) (A) (A) (A) (A) (A)
                 (A) (A) (A) (A) (A) (A) (A) (A) (A) (A) (A) (A)
                 (A) (A) (A) (A) (A) (A) (A) (A) (A) (A) (A) (A)
                 (A) (A) (A) (A) (A) (A) (A) (A) (A) (A) (A) (A)
                 (A) (A) (A) (A) (A) (A) (A) (A) (A) (A) (A) (A)
                 (A) (A) (A) (A) (A) (A) (A) (A) (A) (A) (A) (A)
                 (A) (A) (A) (A) (A) (A) (A) (A) (A) (A) (A) (A)
                 (A) (A) (A) (A) (A) (A) (A) (A) (A) (A) (A) (A)
                 (A) (A) (A) (A) (A) (A) (A) (A) (A) (A) (A) (A)
                 (A) (A) (A) (A) (A) (A) (A) (A) (A) (A) (A) (A)
                 (A) (A) (A) (A) (A) (A) (A) (A) (A) (A) (A) (A)
                 (A) (A) (A) (A) (A) (A) (A) (A) (A) (A) (A) (A)
                 (A) (A) (A) (A) (A) (A) (A) (A) (A) (A) (A) (A)
                 (A) (A) (A) (A) (A) (A) (A) (A) (A) (A) (A) (A)
                 (A) (A) (A) (A) (A) (A) (A) (A) (A) (A) (A) (A)
                 (A) (A) (A) (A) (A) (A) (A) (A) (A) (A) (A) (A)
                 (A) (A) (A) (A) (A) (A) (A) (A) (A) (A) (A) (A)
                 (A) (A) (A) (A) (A) (A) (A) (A) (A) (A) (A) (A)
                 (A) (A) (A) (A) (A) (A) (A) (A) (A) (A) (A) (A)
                 (A) (A) (A) (A) (A) (A) (A) (A) (A) (A) (A) (A)
                 (A) (A) (A) (A) (A) (A) (A) (A) (A) (A) (A) (A)
                 (A) (A) (A) (A) (A) (A) (A) (A) (A) (A) (A) (A)
                 (A) (A) (A) (A) (A) (A) (A) (A) (A) (A) (A) (A)
                 (A) (A) (A) (A) (A) (A) (A) (A) (A) (A) (A) (A)
                 (A) (A) (A) (A) (A) (A) (A) (A) (A) (A) (A) (A)
                 (A) (A) (A) (A) (A) (A) (A) (A) (A) (A) (A) (A)
                 (A) (A) (A) (A) (A) (A) (A) (A) (A) (A) (A) (A)
                 (A) (A) (A) (A) (A) (A) (A) (A) (A) (A) (A) (A)
                 (A) (A) (A) (A) (A) (A) (A) (A) (A) (A) (A) (A)
                 (A) (A) (A) (A) (A) (A) (A) (A) (A) (A) (A) (A)
                 (A) (A) (A) (A) (A) (A) (A) (A) (A) (A) (A) (A)
                 (A) (A) (A) (A) (A) (A) (A) (A) (A) (A) (A) (A)
                 (A) (A) (A) (A) (A) (A) (A) (A) (A) (A) (A) (A)
                 (A) (A) (A) (A) (A) (A) (A) (A) (A) (A) (A) (A)
                 (A) (A) (A) (A) (A) (A) (A) (A) (A) (A) (A) (A)
                 (A) (A) (A) (A) (A) (A) (A) (A) (A) (A) (A) (A)
                 (A) (A) (A) (A) (A) (A) (A) (A) (A) (A) (A) (A)
                 (A) (A) (A) (A) (A) (A) (A) (A) (A) (A) (A) (A)
                 (A) (A) (A) (A) (A) (A) (A) (A) (A) (A) (A) (A)
                 (A) (A) (A) (A) (A) (A) (A) (A) (A) (A) (A) (A)
                 (A) (A) (A) (A) (A) (A) (A) (A) (A) (A) (A) (A)
                 (A) (A) (A) (A) (A) (A) (A) (A) (A) (A) (A) (A)
                 (A) (A) (A) (A) (A) (A) (A) (A) (A) (A) (A) (A)
                 (A) (A) (A) (A) (A) (A) (A) (A) (A) (A) (A) (A)
                 (A) (A) (A) (A) (A) (A) (A) (A) (A) (A) (A) (A)
                 (A) (A) (A) (A) (A) (A) (A) (A) (A) (A) (A) (A)
                 (A) (A) (A) (A) (A) (A) (A) (A) (A) (A) (A) (A)
    20 initial guesses have been made.
 Convergence on wavefunction:    0.001000000000000
 Davidson Disk Diagonalization:  ConvIn= 1.00D-03 SkipCon=T Conv= 1.00D-03.
 Max sub-space:  2000 roots to seek:    20 dimension of matrix:       549360
 Iteration     1 Dimension    20 NMult     0 NNew     20
 CISAX will form    20 AO SS matrices at one time.
 NMat=    20 NSing=    20 JSym2X= 0.
 FoFJK:  IHMeth= 1 ICntrl=       0 DoSepK=T KAlg= 0 I1Cent=           0 FoldK=F
 IRaf=         1 NMat=      40 IRICut=       1 DoRegI=T DoRafI=F ISym2E= 0 IDoP0=3 IntGTp=3.
 FoFCou: FMM=T IPFlag=           0 FMFlag=      100000 FMFlg1=        2001
         NFxFlg=           0 DoJE=F BraDBF=F KetDBF=F FulRan=T
         wScrn=  0.000000 ICntrl=       500 IOpCl=  0 I1Cent=           0 NGrid=           0
         NMat0=   20 NMatS0=     20 NMatT0=    0 NMatD0=   20 NMtDS0=    0 NMtDT0=    0
 Symmetry not used in FoFCou.
 FMM levels:  10  Number of levels for PrismC:   9
 New state      1 was old state      8
 New state      2 was old state      5
 New state      3 was old state      1
 New state      5 was old state      2
 Excitation Energies [eV] at current iteration:
 Root      1 :     2.614479533384907
 Root      2 :     2.619217161362133
 Root      3 :     2.680921891139747
 Root      4 :     2.689701474622475
 Root      5 :     3.065653055568658
 Root      6 :     3.067466966948055
 Root      7 :     3.628931584847859
 Root      8 :     3.669116266739867
 Root      9 :     3.735691011409358
 Root     10 :     3.759267215583733
 Root     11 :     3.861339727112222
 Root     12 :     3.868925598516410
 Root     13 :     4.304621056181404
 Root     14 :     4.305374277138927
 Root     15 :     4.978243533767919
 Root     16 :     4.999975457386070
 Root     17 :     5.272366871004119
 Root     18 :     5.294274600929067
 Root     19 :     5.304517254480962
 Root     20 :     5.328305538890822
 Iteration     2 Dimension    30 NMult    20 NNew     10
 CISAX will form    10 AO SS matrices at one time.
 NMat=    10 NSing=    10 JSym2X= 0.
 New state      1 was old state      3
 Root      1 not converged, maximum delta is    0.191261534123441
 New state      2 was old state      4
 Root      2 not converged, maximum delta is    0.192460217157341
 New state      3 was old state      2
 Root      3 not converged, maximum delta is    0.067412713311634
 New state      4 was old state      1
 Root      4 not converged, maximum delta is    0.089720473932803
 Root      5 has converged.
 Excitation Energies [eV] at current iteration:
 Root      1 :     1.801567361889462   Change is   -0.879354529250285
 Root      2 :     1.807188836454953   Change is   -0.882512638167522
 Root      3 :     2.235856342569056   Change is   -0.383360818793077
 Root      4 :     2.239096762033431   Change is   -0.375382771351476
 Root      5 :     3.065646885863979   Change is   -0.000006169704679
 Iteration     3 Dimension    38 NMult    30 NNew      8
 CISAX will form     8 AO SS matrices at one time.
 NMat=     8 NSing=     8 JSym2X= 0.
 Root      1 not converged, maximum delta is    0.072349419407670
 Root      2 not converged, maximum delta is    0.073519677336373
 Root      3 not converged, maximum delta is    0.043925742319448
 Root      4 not converged, maximum delta is    0.042570493660305
 Root      5 has converged.
 Excitation Energies [eV] at current iteration:
 Root      1 :     1.694328945579677   Change is   -0.107238416309785
 Root      2 :     1.698792106884698   Change is   -0.108396729570255
 Root      3 :     2.194409595648586   Change is   -0.041446746920470
 Root      4 :     2.200191133061660   Change is   -0.038905628971771
 Root      5 :     3.065646885863952   Change is   -0.000000000000027
 Iteration     4 Dimension    46 NMult    38 NNew      8
 CISAX will form     8 AO SS matrices at one time.
 NMat=     8 NSing=     8 JSym2X= 0.
 Root      1 not converged, maximum delta is    0.013453006108968
 Root      2 not converged, maximum delta is    0.013729877885958
 Root      3 not converged, maximum delta is    0.009720671700669
 Root      4 not converged, maximum delta is    0.008906662945141
 Root      5 has converged.
 Excitation Energies [eV] at current iteration:
 Root      1 :     1.677622574632360   Change is   -0.016706370947317
 Root      2 :     1.681902854305718   Change is   -0.016889252578979
 Root      3 :     2.187109816888751   Change is   -0.007299778759835
 Root      4 :     2.193413741977521   Change is   -0.006777391084139
 Root      5 :     3.065646885863925   Change is   -0.000000000000027
 Iteration     5 Dimension    54 NMult    46 NNew      8
 CISAX will form     8 AO SS matrices at one time.
 NMat=     8 NSing=     8 JSym2X= 0.
 Root      1 not converged, maximum delta is    0.002238539564120
 Root      2 not converged, maximum delta is    0.002235729935965
 Root      3 not converged, maximum delta is    0.002501443334620
 Root      4 not converged, maximum delta is    0.002390026365738
 Root      5 has converged.
 Excitation Energies [eV] at current iteration:
 Root      1 :     1.675843609768886   Change is   -0.001778964863473
 Root      2 :     1.680131690032066   Change is   -0.001771164273653
 Root      3 :     2.186264277857820   Change is   -0.000845539030931
 Root      4 :     2.192636989352980   Change is   -0.000776752624541
 Root      5 :     3.065646885863952   Change is    0.000000000000027
 Iteration     6 Dimension    62 NMult    54 NNew      8
 CISAX will form     8 AO SS matrices at one time.
 NMat=     8 NSing=     8 JSym2X= 0.
 Root      1 not converged, maximum delta is    0.001408015705183
 Root      2 not converged, maximum delta is    0.001430267201673
 Root      3 not converged, maximum delta is    0.001069446897845
 Root      4 not converged, maximum delta is    0.001016852441845
 Root      5 has converged.
 Excitation Energies [eV] at current iteration:
 Root      1 :     1.675590005981392   Change is   -0.000253603787495
 Root      2 :     1.679877004775287   Change is   -0.000254685256779
 Root      3 :     2.186136202152986   Change is   -0.000128075704835
 Root      4 :     2.192519231662830   Change is   -0.000117757690150
 Root      5 :     3.065646885863872   Change is   -0.000000000000080
 Iteration     7 Dimension    70 NMult    62 NNew      8
 CISAX will form     8 AO SS matrices at one time.
 NMat=     8 NSing=     8 JSym2X= 0.
 Root      1 has converged.
 Root      2 has converged.
 Root      3 has converged.
 Root      4 has converged.
 Root      5 has converged.
 Excitation Energies [eV] at current iteration:
 Root      1 :     1.675565854694200   Change is   -0.000024151287191
 Root      2 :     1.679853355893710   Change is   -0.000023648881577
[...]
 Alpha virt. eigenvalues --    1.85140   1.85302   1.85312   1.85442   1.85519
 Alpha virt. eigenvalues --    1.85854   1.85905   1.86337   1.86397   1.86593
 Alpha virt. eigenvalues --    1.86606   1.86780   1.86821   1.86996   1.87077
 Alpha virt. eigenvalues --    1.87435   1.87483   1.87719   1.87724   1.87906
 Alpha virt. eigenvalues --    1.87968   1.88078   1.88131   1.88527   1.88574
 Alpha virt. eigenvalues --    1.88862   1.88891   1.89027   1.89162   1.89614
 Alpha virt. eigenvalues --    1.89663   1.89784   1.89831   1.90142   1.90157
 Alpha virt. eigenvalues --    1.90790   1.90847   1.91381   1.91387   1.91477
 Alpha virt. eigenvalues --    1.91542   1.92134   1.92192   1.92612   1.92666
 Alpha virt. eigenvalues --    1.93019   1.93103   1.93374   1.93456   1.94263
 Alpha virt. eigenvalues --    1.94319   1.94725   1.94769   1.95510   1.95547
 Alpha virt. eigenvalues --    1.95764   1.95766   1.96001   1.96034   1.96124
 Alpha virt. eigenvalues --    1.96189   1.96434   1.96632   1.96888   1.96937
 Alpha virt. eigenvalues --    1.97487   1.97494   1.97753   1.97872   1.98118
 Alpha virt. eigenvalues --    1.98208   1.98299   1.98715   1.99024   1.99174
 Alpha virt. eigenvalues --    1.99861   1.99882   2.00677   2.00697   2.01035
 Alpha virt. eigenvalues --    2.01046   2.01460   2.01520   2.01557   2.01710
 Alpha virt. eigenvalues --    2.01758   2.01774   2.02661   2.02823   2.03093
 Alpha virt. eigenvalues --    2.03272   2.03329   2.03442   2.03470   2.03523
 Alpha virt. eigenvalues --    2.03976   2.04073   2.04928   2.04996   2.05551
 Alpha virt. eigenvalues --    2.05581   2.06116   2.06237   2.06942   2.06981
 Alpha virt. eigenvalues --    2.07221   2.07297   2.08506   2.08621   2.08953
 Alpha virt. eigenvalues --    2.09019   2.09561   2.09628   2.10813   2.10986
 Alpha virt. eigenvalues --    2.11220   2.11356   2.11480   2.11578   2.11765
 Alpha virt. eigenvalues --    2.11814   2.12414   2.12503   2.12751   2.12818
 Alpha virt. eigenvalues --    2.12841   2.12872   2.13578   2.13806   2.14172
 Alpha virt. eigenvalues --    2.14204   2.15356   2.15373   2.15963   2.16029
 Alpha virt. eigenvalues --    2.16542   2.16558   2.16791   2.17121   2.17453
 Alpha virt. eigenvalues --    2.17600   2.17741   2.17881   2.17954   2.18105
 Alpha virt. eigenvalues --    2.18362   2.18619   2.18906   2.19181   2.19678
 Alpha virt. eigenvalues --    2.19766   2.20076   2.20190   2.20248   2.20385
 Alpha virt. eigenvalues --    2.21124   2.21185   2.21706   2.21711   2.21781
 Alpha virt. eigenvalues --    2.21822   2.22649   2.22716   2.23290   2.23349
 Alpha virt. eigenvalues --    2.24367   2.24430   2.24955   2.24992   2.26336
 Alpha virt. eigenvalues --    2.26386   2.26815   2.26955   2.27139   2.27148
 Alpha virt. eigenvalues --    2.28174   2.28260   2.29304   2.29384   2.29772
 Alpha virt. eigenvalues --    2.29825   2.30492   2.30566   2.30769   2.31118
 Alpha virt. eigenvalues --    2.31147   2.31219   2.32155   2.32188   2.33171
 Alpha virt. eigenvalues --    2.33179   2.33429   2.33497   2.34087   2.34174
 Alpha virt. eigenvalues --    2.35242   2.35408   2.35833   2.35854   2.36278
 Alpha virt. eigenvalues --    2.36386   2.36396   2.36659   2.37624   2.37692
 Alpha virt. eigenvalues --    2.38292   2.38328   2.38725   2.38894   2.39612
 Alpha virt. eigenvalues --    2.39646   2.40213   2.40216   2.40521   2.40770
 Alpha virt. eigenvalues --    2.41155   2.41305   2.41639   2.41720   2.42070
 Alpha virt. eigenvalues --    2.42075   2.42768   2.42976   2.43008   2.43572
 Alpha virt. eigenvalues --    2.43919   2.44205   2.44748   2.44765   2.44930
 Alpha virt. eigenvalues --    2.44938   2.45513   2.45581   2.46227   2.46335
 Alpha virt. eigenvalues --    2.46437   2.46512   2.46739   2.46834   2.47287
 Alpha virt. eigenvalues --    2.47318   2.47747   2.47828   2.49336   2.49342
 Alpha virt. eigenvalues --    2.49835   2.50100   2.50397   2.50581   2.51155
 Alpha virt. eigenvalues --    2.51204   2.51550   2.51920   2.52333   2.52474
 Alpha virt. eigenvalues --    2.52843   2.53100   2.53909   2.53951   2.54181
 Alpha virt. eigenvalues --    2.54224   2.54744   2.54820   2.55551   2.55604
 Alpha virt. eigenvalues --    2.57897   2.58015   2.58676   2.58840   2.60233
 Alpha virt. eigenvalues --    2.60241   2.60647   2.60857   2.61743   2.61756
 Alpha virt. eigenvalues --    2.62364   2.62566   2.62988   2.63059   2.63969
 Alpha virt. eigenvalues --    2.64151   2.64274   2.64362   2.65032   2.65111
 Alpha virt. eigenvalues --    2.65792   2.65821   2.66754   2.66808   2.66942
 Alpha virt. eigenvalues --    2.66988   2.67912   2.67940   2.68751   2.68890
 Alpha virt. eigenvalues --    2.68960   2.69057   2.69421   2.69523   2.70030
 Alpha virt. eigenvalues --    2.70068   2.70996   2.71012   2.71822   2.72086
 Alpha virt. eigenvalues --    2.72419   2.72661   2.72686   2.72863   2.73217
 Alpha virt. eigenvalues --    2.73305   2.73393   2.73566   2.74435   2.74542
 Alpha virt. eigenvalues --    2.74981   2.75007   2.76448   2.76622   2.76991
 Alpha virt. eigenvalues --    2.77264   2.77488   2.77532   2.78220   2.78223
 Alpha virt. eigenvalues --    2.78616   2.78762   2.79080   2.79166   2.80191
 Alpha virt. eigenvalues --    2.80376   2.80612   2.80622   2.81074   2.81147
 Alpha virt. eigenvalues --    2.81911   2.81966   2.82258   2.82372   2.83772
 Alpha virt. eigenvalues --    2.83784   2.83798   2.83826   2.84451   2.84576
 Alpha virt. eigenvalues --    2.84809   2.84913   2.85617   2.85698   2.86581
 Alpha virt. eigenvalues --    2.87027   2.87093   2.87641   2.88162   2.88185
 Alpha virt. eigenvalues --    2.88538   2.88539   2.88793   2.88965   2.90529
 Alpha virt. eigenvalues --    2.90580   2.90990   2.91217   2.93187   2.93241
 Alpha virt. eigenvalues --    2.93691   2.94231   2.94496   2.94587   2.95391
 Alpha virt. eigenvalues --    2.95401   2.95756   2.96236   2.96295   2.96471
 Alpha virt. eigenvalues --    2.96789   2.97211   2.97850   2.97954   2.98239
 Alpha virt. eigenvalues --    2.98274   2.98396   2.98492   2.98632   2.98698
 Alpha virt. eigenvalues --    2.98842   2.98913   2.99615   2.99722   2.99933
 Alpha virt. eigenvalues --    3.00064   3.00252   3.00257   3.00494   3.00911
 Alpha virt. eigenvalues --    3.01822   3.02019   3.02034   3.02064   3.02740
 Alpha virt. eigenvalues --    3.02767   3.03011   3.03236   3.03358   3.03626
 Alpha virt. eigenvalues --    3.03971   3.04200   3.04350   3.04481   3.04578
 Alpha virt. eigenvalues --    3.04645   3.05272   3.05325   3.06084   3.06144
 Alpha virt. eigenvalues --    3.06837   3.06855   3.07842   3.08176   3.09278
 Alpha virt. eigenvalues --    3.09435   3.09726   3.10348   3.10475   3.10655
 Alpha virt. eigenvalues --    3.11359   3.11401   3.11820   3.11977   3.12204
 Alpha virt. eigenvalues --    3.12220   3.13316   3.13565   3.13608   3.13670
 Alpha virt. eigenvalues --    3.14127   3.14388   3.15909   3.15950   3.17296
 Alpha virt. eigenvalues --    3.17435   3.17799   3.18109   3.18950   3.19159
 Alpha virt. eigenvalues --    3.22341   3.22511   3.23980   3.24354   3.24708
 Alpha virt. eigenvalues --    3.25107   3.26538   3.26573   3.27311   3.27654
 Alpha virt. eigenvalues --    3.29135   3.29137   3.31295   3.31558   3.33101
 Alpha virt. eigenvalues --    3.33452   3.40173   3.40668   3.42736   3.42850
 Alpha virt. eigenvalues --    3.48612   3.48693   3.50056   3.50198   3.50753
 Alpha virt. eigenvalues --    3.51509   3.56584   3.56922   3.59133   3.59257
 Alpha virt. eigenvalues --    3.62431   3.62872   3.66035   3.66218   3.67223
 Alpha virt. eigenvalues --    3.67456   3.73308   3.73934   3.76092   3.76593
          Condensed to atoms (all electrons):
 Mulliken charges:
               1
     1  Mg   0.838829
     2  C   -0.002963
     3  C   -0.094094
     4  C   -0.045907
     5  C   -0.063980
     6  N   -0.256809
     7  C   -0.052436
     8  C   -0.014008
     9  C   -0.087020
    10  C    0.046335
    11  C    0.104809
    12  C    0.053471
    13  C   -0.071843
    14  H    0.036205
    15  N   -0.433149
    16  C    0.168407
    17  C   -0.177136
    18  C   -0.004030
    19  C    0.148715
    20  C    0.110164
    21  C    0.012270
    22  O   -0.249669
    23  C    0.062485
    24  N   -0.341159
    25  C    0.041240
    26  C   -0.028157
    27  C   -0.023971
    28  C    0.074839
    29  C    0.076169
    30  C    0.035136
    31  C   -0.004492
    32  N   -0.310489
    33  C    0.080431
    34  C   -0.169716
    35  C    0.008363
    36  C    0.082978
    37  C    0.127311
    38  C    0.046119
    39  O   -0.188413
    40  C   -0.005344
    41  C    0.212884
    42  O   -0.257098
    43  O   -0.304795
    44  C    0.157678
    45  H   -0.017584
    46  H   -0.016870
    47  H   -0.041507
    48  H    0.000958
    49  H   -0.004004
    50  H    0.025477
    51  H    0.016431
    52  H    0.016680
    53  H    0.011207
    54  H    0.044127
    55  H    0.017875
    56  H    0.017968
    57  H    0.005903
    58  H    0.026818
    59  H    0.039555
    60  H    0.037359
    61  H    0.035601
    62  H    0.031505
    63  H    0.016516
    64  H    0.009457
    65  H    0.023179
    66  H    0.012558
    67  H    0.004750
    68  H    0.006331
    69  H    0.004730
    70  H    0.008746
    71  H    0.018119
    72  H    0.029007
    73  H    0.047577
    74  H    0.009092
    75  H    0.046013
    76  H    0.035165
    77  H    0.042966
    78  H    0.046426
    79  H    0.053707
    80  Mg   0.837862
    81  C   -0.016833
    82  C   -0.087795
    83  C   -0.045478
    84  C   -0.064834
    85  N   -0.254554
    86  C   -0.049860
    87  C   -0.015096
    88  C   -0.090496
    89  C    0.045755
    90  C    0.114362
    91  C    0.062524
    92  C   -0.077887
    93  H    0.034874
    94  N   -0.423511
    95  C    0.162935
    96  C   -0.174600
    97  C   -0.007771
    98  C    0.152112
    99  C    0.099350
   100  C    0.015585
   101  O   -0.253139
   102  C    0.061194
   103  N   -0.350043
   104  C    0.037541
   105  C   -0.019871
   106  C   -0.034802
   107  C    0.088878
   108  C    0.073622
   109  C    0.034723
   110  C   -0.007679
   111  N   -0.324114
   112  C    0.078431
   113  C   -0.163119
   114  C    0.002224
   115  C    0.096191
   116  C    0.131490
   117  C    0.042375
   118  O   -0.187917
   119  C    0.000940
   120  C    0.211236
   121  O   -0.251020
   122  O   -0.305636
   123  C    0.152036
   124  H   -0.019638
   125  H   -0.015523
   126  H   -0.040429
   127  H   -0.000671
   128  H   -0.004329
   129  H    0.022458
   130  H    0.014473
   131  H    0.016286
   132  H    0.013926
   133  H    0.037672
   134  H    0.020773
   135  H    0.019599
   136  H    0.008766
   137  H    0.026196
   138  H    0.039805
   139  H    0.038277
   140  H    0.036431
   141  H    0.033885
   142  H    0.014419
   143  H    0.012472
   144  H    0.025191
   145  H    0.011672
   146  H    0.005748
   147  H    0.006310
   148  H    0.003659
   149  H    0.010943
   150  H    0.017930
   151  H    0.030074
   152  H    0.045983
   153  H    0.008535
   154  H    0.046962
   155  H    0.035012
   156  H    0.043882
   157  H    0.049490
   158  H    0.053579
 Sum of Mulliken charges =  -0.00000
 Mulliken charges with hydrogens summed into heavy atoms:
               1
     1  Mg   0.838829
     2  C   -0.002963
     3  C   -0.111678
     4  C   -0.062777
     5  C   -0.105487
     6  N   -0.256809
     7  C   -0.052436
     8  C   -0.013050
     9  C   -0.091024
    10  C    0.046335
    11  C    0.163398
    12  C    0.108805
    13  C    0.000206
    15  N   -0.433149
    16  C    0.168407
    17  C   -0.177136
    18  C   -0.004030
    19  C    0.148715
    20  C    0.182441
    21  C    0.012270
    22  O   -0.249669
    23  C    0.166950
    24  N   -0.341159
    25  C    0.041240
    26  C   -0.011641
    27  C   -0.014514
    28  C    0.074839
    29  C    0.116655
    30  C    0.046197
    31  C    0.051380
    32  N   -0.310489
    33  C    0.080431
    34  C   -0.169716
    35  C    0.008363
    36  C    0.082978
    37  C    0.229994
    38  C    0.046119
    39  O   -0.188413
    40  C    0.029821
    41  C    0.212884
    42  O   -0.257098
    43  O   -0.304795
    44  C    0.300777
    80  Mg   0.837862
    81  C   -0.016833
    82  C   -0.107432
    83  C   -0.061001
    84  C   -0.105263
    85  N   -0.254554
    86  C   -0.049860
    87  C   -0.015768
    88  C   -0.094825
    89  C    0.045755
    90  C    0.167579
    91  C    0.114123
    92  C   -0.002641
    94  N   -0.423511
    95  C    0.162935
    96  C   -0.174600
    97  C   -0.007771
    98  C    0.152112
    99  C    0.174117
   100  C    0.015585
   101  O   -0.253139
   102  C    0.169787
   103  N   -0.350043
   104  C    0.037541
   105  C   -0.005452
   106  C   -0.022330
   107  C    0.088878
   108  C    0.116233
   109  C    0.044691
   110  C    0.051269
   111  N   -0.324114
   112  C    0.078431
   113  C   -0.163119
   114  C    0.002224
   115  C    0.096191
   116  C    0.232970
   117  C    0.042375
   118  O   -0.187917
   119  C    0.035952
   120  C    0.211236
   121  O   -0.251020
   122  O   -0.305636
   123  C    0.298986
 Electronic spatial extent (au):  <R**2>=         614657.1696
 Charge=             -0.0000 electrons
 Dipole moment (field-independent basis, Debye):
    X=             -3.7972    Y=              1.8226    Z=              5.9954  Tot=              7.3270
 Quadrupole moment (field-independent basis, Debye-Ang):
   XX=           -517.5494   YY=           -505.2229   ZZ=           -493.6035
   XY=             85.0634   XZ=            -26.9005   YZ=             -5.3045
 Traceless Quadrupole moment (field-independent basis, Debye-Ang):
   XX=            -12.0908   YY=              0.2357   ZZ=             11.8551
   XY=             85.0634   XZ=            -26.9005   YZ=             -5.3045
 Octapole moment (field-independent basis, Debye-Ang**2):
  XXX=          -2887.9555  YYY=             46.5839  ZZZ=            253.2306  XYY=           -753.2576
  XXY=            511.0428  XXZ=           1456.1431  XZZ=            759.1649  YZZ=           -192.9641
  YYZ=            -28.5419  XYZ=            832.6466
 Hexadecapole moment (field-independent basis, Debye-Ang**3):
 XXXX=        -787732.2888 YYYY=         -33997.2291 ZZZZ=         -31947.2698 XXXY=          24152.4893
 XXXZ=          -6052.2596 YYYX=           4021.3431 YYYZ=            870.8083 ZZZX=          -1864.7571
 ZZZY=           -954.1397 XXYY=        -133908.7838 XXZZ=        -130302.0461 YYZZ=         -11244.6053
 XXYZ=          -1848.1270 YYXZ=           3874.0860 ZZXY=          -1410.8716
 N-N= 1.230593270722D+04 E-N=-3.409269271555D+04  KE= 4.028802015685D+03
 Leave Link  601 at Sun Sep 12 16:46:50 2021, MaxMem= 23488102400 cpu:              15.3 elap:               0.8
 (Enter /sw/apps/gaussian-16.0/g16/l9999.exe)
 1\1\GINC-BP1-COMPUTE00091\SP\RCAM-B3LYP TD-FC\def2SVP\C68H72Mg2N8O8\OF
 15641\12-Sep-2021\0\\#p cam-b3lyp/Def2SVP td=(nstates=5)\\TDDFT excite
 d states in gaussian\\0,1\Mg,0,0.,0.,0.\C,0,-0.217,-2.218,2.801\C,0,-1
 .255,2.442,2.026\C,0,-0.245,1.85,-2.564\C,0,0.146,-2.824,-2.037\N,0,-0
 .617,-0.009,2.126\C,0,-0.594,-0.908,3.105\C,0,-0.936,-0.309,4.502\C,0,
 -1.773,0.964,4.032\C,0,-1.155,1.168,2.66\C,0,-3.263,0.685,3.863\C,0,0.
 345,0.11,5.299\C,0,0.124,0.397,6.787\H,0,1.168,0.033,7.733\N,0,-0.185,
 1.961,-0.152\C,0,-0.703,2.8,0.777\C,0,-0.62,4.156,0.193\C,0,-0.187,4.0
 15,-1.225\C,0,-0.214,2.583,-1.38\C,0,-0.887,5.406,0.974\C,0,0.181,5.01
 3,-2.277\O,0,0.303,4.69,-3.508\C,0,0.31,6.414,-1.837\N,0,-0.265,-0.413
 ,-2.029\C,0,-0.279,0.569,-2.937\C,0,-0.196,0.024,-4.332\C,0,0.124,-1.5
 33,-4.18\C,0,0.086,-1.632,-2.635\C,0,-1.451,0.205,-5.197\C,0,1.373,-2.
 07,-4.923\C,0,2.626,-1.49,-4.306\N,0,0.15,-2.144,0.303\C,0,0.173,-3.13
 6,-0.688\C,0,0.173,-4.438,0.004\C,0,0.133,-4.111,1.358\C,0,0.083,-2.69
 5,1.502\C,0,0.149,-5.715,-0.623\C,0,0.096,-4.629,2.716\O,0,0.208,-5.74
 7,3.221\C,0,-0.255,-3.428,3.701\C,0,0.717,-3.482,4.848\O,0,1.931,-3.25
 5,4.669\O,0,0.038,-3.556,6.003\C,0,0.943,-3.583,7.183\H,0,-1.859,3.22,
 2.497\H,0,-0.218,2.453,-3.474\H,0,0.276,-3.747,-2.605\H,0,-1.554,-0.94
 9,5.132\H,0,-1.585,1.831,4.665\H,0,-3.484,-0.377,3.969\H,0,-3.511,1.02
 7,2.858\H,0,-3.852,1.301,4.543\H,0,0.669,1.096,4.966\H,0,1.13,-0.639,5
 .189\H,0,-0.844,0.026,7.125\H,0,0.062,1.477,6.921\H,0,-1.344,5.186,1.9
 38\H,0,-1.651,5.963,0.432\H,0,0.007,6.02,1.084\H,0,-0.635,6.744,-1.405
 \H,0,0.665,6.97,-2.704\H,0,1.048,6.466,-1.036\H,0,0.608,0.501,-4.891\H
 ,0,-0.692,-2.156,-4.547\H,0,-1.267,0.74,-6.129\H,0,-2.204,0.714,-4.596
 \H,0,-1.967,-0.72,-5.453\H,0,1.356,-1.759,-5.967\H,0,1.452,-3.157,-4.9
 02\H,0,2.714,-0.522,-4.798\H,0,3.487,-2.121,-4.529\H,0,2.495,-1.303,-3
 .24\H,0,0.867,-6.333,-0.084\H,0,0.404,-5.642,-1.68\H,0,-0.891,-5.999,-
 0.463\H,0,-1.283,-3.581,4.028\H,0,0.698,-4.478,7.755\H,0,0.833,-2.619,
 7.68\H,0,2.,-3.754,6.976\Mg,0,31.53941,2.8463,2.3923\C,0,30.91665,5.37
 251,4.86403\C,0,30.62885,5.13851,0.0362\C,0,31.64357,0.52246,0.23444\C
 ,0,31.28908,0.48512,4.94335\N,0,30.87874,4.95102,2.5532\C,0,30.7392,5.
 82391,3.53958\C,0,30.46853,7.28042,3.07604\C,0,29.84198,6.96081,1.6323
 8\C,0,30.51456,5.61562,1.36639\C,0,28.33805,6.74501,1.66342\C,0,31.786
 01,8.1242,2.95639\C,0,31.57265,9.63237,2.80928\H,0,32.53265,10.5357,3.
 43766\N,0,31.66541,2.93569,0.41374\C,0,31.26911,3.95122,-0.38182\C,0,3
 1.55814,3.52028,-1.75838\C,0,32.0051,2.10127,-1.72159\C,0,31.76351,1.7
 8484,-0.32818\C,0,31.47766,4.44844,-2.93544\C,0,32.54676,1.1776,-2.770
 23\O,0,32.64606,-0.08444,-2.56965\C,0,32.87003,1.78072,-4.07147\N,0,31
 .26643,0.7893,2.52112\C,0,31.41953,0.00264,1.44147\C,0,31.44657,-1.456
 58,1.82919\C,0,31.52267,-1.47536,3.42651\C,0,31.43252,0.04167,3.702\C,
 0,30.25144,-2.28994,1.36706\C,0,32.69094,-2.2746,4.06608\C,0,34.00783,
 -1.59899,3.75829\N,0,31.35595,2.89531,4.54451\C,0,31.24054,1.7903,5.41
 613\C,0,31.02425,2.32829,6.77488\C,0,31.00569,3.71957,6.59459\C,0,31.1
 7673,4.02637,5.2176\C,0,30.8279,1.55555,7.95405\C,0,30.86967,4.9981,7.
 25456\O,0,30.78975,5.36709,8.42554\C,0,30.67945,6.12128,6.1461\C,0,31.
 60626,7.25958,6.47443\O,0,32.83928,7.10387,6.42928\O,0,30.89137,8.3950
 5,6.57448\C,0,31.76825,9.55456,6.88825\H,0,30.14656,5.70454,-0.76124\H
 ,0,31.78324,-0.31523,-0.45276\H,0,31.29934,-0.18337,5.80689\H,0,29.752
 ,7.82372,3.68034\H,0,30.15413,7.69564,0.89485\H,0,27.95459,6.72545,2.6
 7274\H,0,28.16712,5.79446,1.17527\H,0,27.8367,7.49554,1.04561\H,0,32.2
 6392,7.90714,1.99243\H,0,32.43892,7.93076,3.7852\H,0,30.54634,9.92956,
 3.0569\H,0,31.68125,9.89696,1.75467\H,0,30.96305,5.38214,-2.677\H,0,30
 .82287,3.97274,-3.67357\H,0,32.4516,4.63285,-3.3938\H,0,31.97861,2.246
 2,-4.48519\H,0,33.32671,0.98158,-4.65858\H,0,33.5996,2.58287,-3.91371\
 H,0,32.32598,-1.94664,1.42969\H,0,30.62532,-1.9295,3.87187\H,0,30.5399
 3,-3.16302,0.75176\H,0,29.57695,-1.64509,0.81956\H,0,29.61424,-2.66602
 ,2.16565\H,0,32.74696,-3.27596,3.63215\H,0,32.59557,-2.39394,5.14016\H
 ,0,34.24983,-1.97365,2.75922\H,0,34.76587,-1.88922,4.48299\H,0,33.8843
 5,-0.51245,3.68191\H,0,31.42339,2.01629,8.73097\H,0,31.10978,0.51608,7
 .79973\H,0,29.74907,1.67294,8.08677\H,0,29.63267,6.42695,6.16572\H,0,3
 1.37174,10.01837,7.79673\H,0,31.78363,10.17407,5.97189\H,0,32.78896,9.
 34492,7.18599\\Version=ES64L-G16RevA.03\State=1-A\HF=-4069.8117759\RMS
 D=4.591e-09\PG=C01 [X(C68H72Mg2N8O8)]\\@


 A CHEMICAL PHYSICIST MAKES PRECISE MEASUREMENTS ON IMPURE COMPOUNDS.
 A THEORETICAL PHYSICAL CHEMIST MAKES IMPRECISE
     MEASUREMENTS ON PURE COMPOUNDS.
 AN EXPERIMENTAL PHYSICAL CHEMIST MAKES IMPRECISE
     MEASUREMENTS ON IMPURE COMPOUNDS.
 Job cpu time:       0 days 10 hours  6 minutes 52.8 seconds.
 Elapsed time:       0 days  0 hours 25 minutes 51.9 seconds.
 File lengths (MBytes):  RWF=  13225 Int=      0 D2E=      0 Chk=    574 Scr=      1
 Normal termination of Gaussian 16 at Sun Sep 12 16:46:51 2021.
