 Entering Gaussian System, Link 0=g16
 Initial command:
 /sw/apps/gaussian-16.0/g16/l1.exe "/tmp/Gau-175784.inp" -scrdir="/tmp/"
 Entering Link 1 = /sw/apps/gaussian-16.0/g16/l1.exe PID=    175785.
  
 Copyright (c) 1988,1990,1992,1993,1995,1998,2003,2009,2016,
            Gaussian, Inc.  All Rights Reserved.
  
 This is part of the Gaussian(R) 16 program.  It is based on
 the Gaussian(R) 09 system (copyright 2009, Gaussian, Inc.),
 the Gaussian(R) 03 system (copyright 2003, Gaussian, Inc.),
 the Gaussian(R) 98 system (copyright 1998, Gaussian, Inc.),
 the Gaussian(R) 94 system (copyright 1995, Gaussian, Inc.),
 the Gaussian 92(TM) system (copyright 1992, Gaussian, Inc.),
 the Gaussian 90(TM) system (copyright 1990, Gaussian, Inc.),
 the Gaussian 88(TM) system (copyright 1988, Gaussian, Inc.),
 the Gaussian 86(TM) system (copyright 1986, Carnegie Mellon
 University), and the Gaussian 82(TM) system (copyright 1983,
 Carnegie Mellon University). Gaussian is a federally registered
 trademark of Gaussian, Inc.
  
 This software contains proprietary and confidential information,
 including trade secrets, belonging to Gaussian, Inc.
  
 This software is provided under written license and may be
 used, copied, transmitted, or stored only in accord with that
 written license.
  
 The following legend is applicable only to US Government
 contracts under FAR:
  
                    RESTRICTED RIGHTS LEGEND
  
 Use, reproduction and disclosure by the US Government is
 subject to restrictions as set forth in subparagraphs (a)
 and (c) of the Commercial Computer Software - Restricted
 Rights clause in FAR 52.227-19.
  
 Gaussian, Inc.
 340 Quinnipiac St., Bldg. 40, Wallingford CT 06492
  
  
 ---------------------------------------------------------------
 Warning -- This program may not be used in any manner that
 competes with the business of Gaussian, Inc. or will provide
 assistance to any competitor of Gaussian, Inc.  The licensee
 of this program is prohibited from giving any competitor of
 Gaussian, Inc. access to this program.  By using this program,
 the user acknowledges that Gaussian, Inc. is engaged in the
 business of creating and licensing software in the field of
 computational chemistry and represents and warrants to the
 licensee that it is not a competitor of Gaussian, Inc. and that
 it will not use this program in any manner prohibited above.
 ---------------------------------------------------------------
  

 Cite this work as:
 Gaussian 16, Revision A.03,
 M. J. Frisch, G. W. Trucks, H. B. Schlegel, G. E. Scuseria, 
 M. A. Robb, J. R. Cheeseman, G. Scalmani, V. Barone, 
 G. A. Petersson, H. Nakatsuji, X. Li, M. Caricato, A. V. Marenich, 
 J. Bloino, B. G. Janesko, R. Gomperts, B. Mennucci, H. P. Hratchian, 
 J. V. Ortiz, A. F. Izmaylov, J. L. Sonnenberg, D. Williams-Young, 
 F. Ding, F. Lipparini, F. Egidi, J. Goings, B. Peng, A. Petrone, 
 T. Henderson, D. Ranasinghe, V. G. Zakrzewski, J. Gao, N. Rega, 
 G. Zheng, W. Liang, M. Hada, M. Ehara, K. Toyota, R. Fukuda, 
 J. Hasegawa, M. Ishida, T. Nakajima, Y. Honda, O. Kitao, H. Nakai, 
 T. Vreven, K. Throssell, J. A. Montgomery, Jr., J. E. Peralta, 
 F. Ogliaro, M. J. Bearpark, J. J. Heyd, E. N. Brothers, K. N. Kudin, 
 V. N. Staroverov, T. A. Keith, R. Kobayashi, J. Normand, 
 K. Raghavachari, A. P. Rendell, J. C. Burant, S. S. Iyengar, 
 J. Tomasi, M. Cossi, J. M. Millam, M. Klene, C. Adamo, R. Cammi, 
 J. W. Ochterski, R. L. Martin, K. Morokuma, O. Farkas, 
 J. B. Foresman, and D. J. Fox, Gaussian, Inc., Wallingford CT, 2016.
 
 ******************************************
 Gaussian 16:  ES64L-G16RevA.03 25-Dec-2016
                12-Sep-2021 
 ******************************************
 %nproc=24
 Will use up to   24 processors via shared memory.
 %mem=175gb
 -----------------------------------
 #p cam-b3lyp/Def2SVP td=(nstates=5)
 -----------------------------------
 1/38=1,172=1/1;
 2/12=2,17=6,18=5,40=1/2;
 3/5=43,7=101,11=9,25=1,30=1,74=-40/1,2,3,8;
 4//1;
 5/5=2,38=5/2;
 8/6=1,10=1,108=5/1;
 9/41=5,42=1,70=2/14;
 6/7=2,8=2,9=2,10=2/1;
 99/5=1,9=1/99;
 Leave Link    1 at Sun Sep 12 11:57:26 2021, MaxMem= 23488102400 cpu:               0.8 elap:               0.0
 (Enter /sw/apps/gaussian-16.0/g16/l101.exe)
 --------------------------------
 TDDFT excited states in gaussian
 --------------------------------
 Symbolic Z-matrix:
 Charge =  0 Multiplicity = 1
 Mg                    0.        0.        0. 
 C                    -0.217    -2.218     2.801 
 C                    -1.255     2.442     2.026 
 C                    -0.245     1.85     -2.564 
 C                     0.146    -2.824    -2.037 
 N                    -0.617    -0.009     2.126 
 C                    -0.594    -0.908     3.105 
 C                    -0.936    -0.309     4.502 
 C                    -1.773     0.964     4.032 
 C                    -1.155     1.168     2.66 
 C                    -3.263     0.685     3.863 
 C                     0.345     0.11      5.299 
 C                     0.124     0.397     6.787 
 H                     1.168     0.033     7.733 
 N                    -0.185     1.961    -0.152 
 C                    -0.703     2.8       0.777 
 C                    -0.62      4.156     0.193 
 C                    -0.187     4.015    -1.225 
 C                    -0.214     2.583    -1.38 
 C                    -0.887     5.406     0.974 
 C                     0.181     5.013    -2.277 
 O                     0.303     4.69     -3.508 
 C                     0.31      6.414    -1.837 
 N                    -0.265    -0.413    -2.029 
 C                    -0.279     0.569    -2.937 
 C                    -0.196     0.024    -4.332 
 C                     0.124    -1.533    -4.18 
 C                     0.086    -1.632    -2.635 
 C                    -1.451     0.205    -5.197 
 C                     1.373    -2.07     -4.923 
 C                     2.626    -1.49     -4.306 
 N                     0.15     -2.144     0.303 
 C                     0.173    -3.136    -0.688 
 C                     0.173    -4.438     0.004 
 C                     0.133    -4.111     1.358 
 C                     0.083    -2.695     1.502 
 C                     0.149    -5.715    -0.623 
 C                     0.096    -4.629     2.716 
 O                     0.208    -5.747     3.221 
 C                    -0.255    -3.428     3.701 
 C                     0.717    -3.482     4.848 
 O                     1.931    -3.255     4.669 
 O                     0.038    -3.556     6.003 
 C                     0.943    -3.583     7.183 
 H                    -1.859     3.22      2.497 
 H                    -0.218     2.453    -3.474 
 H                     0.276    -3.747    -2.605 
 H                    -1.554    -0.949     5.132 
 H                    -1.585     1.831     4.665 
 H                    -3.484    -0.377     3.969 
 H                    -3.511     1.027     2.858 
 H                    -3.852     1.301     4.543 
 H                     0.669     1.096     4.966 
 H                     1.13     -0.639     5.189 
 H                    -0.844     0.026     7.125 
 H                     0.062     1.477     6.921 
 H                    -1.344     5.186     1.938 
 H                    -1.651     5.963     0.432 
 H                     0.007     6.02      1.084 
 H                    -0.635     6.744    -1.405 
 H                     0.665     6.97     -2.704 
 H                     1.048     6.466    -1.036 
 H                     0.608     0.501    -4.891 
 H                    -0.692    -2.156    -4.547 
 H                    -1.267     0.74     -6.129 
 H                    -2.204     0.714    -4.596 
 H                    -1.967    -0.72     -5.453 
 H                     1.356    -1.759    -5.967 
 H                     1.452    -3.157    -4.902 
 H                     2.714    -0.522    -4.798 
 H                     3.487    -2.121    -4.529 
 H                     2.495    -1.303    -3.24 
 H                     0.867    -6.333    -0.084 
 H                     0.404    -5.642    -1.68 
 H                    -0.891    -5.999    -0.463 
 H                    -1.283    -3.581     4.028 
 H                     0.698    -4.478     7.755 
 H                     0.833    -2.619     7.68 
 H                     2.       -3.754     6.976 
 Mg                    31.52471   2.83588   2.40183 
 C                     31.5456   5.54855   4.75131 
 C                     32.17044   0.75484   5.02612 
 C                     31.95899   0.49204   0.30773 
 C                     32.01983   5.19506  -0.11508 
 N                     31.80006   3.22075   4.56246 
 C                     31.72466   4.28366   5.34915 
 C                     31.76775   3.96433   6.86762 
 C                     32.52906   2.55224   6.79487 
 C                     32.1172   2.12471   5.38765 
 C                     34.04273   2.68204   6.83081 
 C                     30.33428   3.8128    7.48747 
 C                     30.29235   3.80768   9.01716 
 H                     29.15325   4.43203   9.68432 
 N                     31.50895   0.86766   2.65564 
 C                     31.77254   0.19181   3.79364 
 C                     31.64893  -1.23389   3.45267 
 C                     31.45271  -1.34916   1.98198 
 C                     31.65789   0.02791   1.57993 
 C                     31.64102  -2.32052   4.48834 
 C                     31.14552  -2.50933   1.0843 
 O                     31.25366  -2.42192  -0.18987 
 C                     30.80472  -3.77752   1.74539 
 N                     32.14075   2.81529   0.41628 
 C                     32.19373   1.66578  -0.27924 
 C                     32.39531   1.92847  -1.75258 
 C                     32.22401   3.50804  -1.93473 
 C                     32.03305   3.91397  -0.45684 
 C                     33.74305   1.49333  -2.3276 
 C                     31.17395   3.98682  -2.97436 
 C                     29.78189   3.63453  -2.50167 
 N                     31.56217   4.99251   2.27701 
 C                     31.81229   5.77628   1.1293 
 C                     31.847    7.18748   1.5649 
 C                     31.63588   7.12462   2.95053 
 C                     31.50068   5.76854   3.35333 
 C                     32.10002   8.31052   0.72771 
 C                     31.50725   7.89642   4.16563 
 O                     31.44887   9.09652   4.43038 
 C                     31.56919   6.90258   5.40451 
 C                     30.44081   7.25078   6.33618 
 O                     29.25857   7.09733   5.98211 
 O                     30.94088   7.4994    7.56031 
 C                     29.85883   7.83876   8.5225 
 H                     32.59641   0.0467    5.73744 
 H                     32.00949  -0.27072  -0.47274 
 H                     32.07144   5.99706  -0.85454 
 H                     32.34037   4.66521   7.46314 
 H                     32.14119   1.85587   7.53379 
 H                     34.36     3.71301   6.78009 
 H                     34.40561   2.13185   5.97253 
 H                     34.4443   2.16908   7.70942 
 H                     29.96225   2.80003   7.28592 
 H                     29.6742   4.56961   7.11042 
 H                     31.2343   4.15791   9.4565 
 H                     30.2057   2.77327   9.35847 
 H                     31.96924  -1.94672   5.46607 
 H                     32.41301  -3.04231   4.20039 
 H                     30.68042  -2.83632   4.55033 
 H                     31.62626  -4.08094   2.38996 
 H                     30.53069  -4.46226   0.94046 
 H                     29.939   -3.61122   2.39616 
 H                     31.64061   1.42282  -2.34236 
 H                     33.1568   3.98273  -2.27299 
 H                     33.6489   0.78753  -3.1744 
 H                     34.32871   1.05494  -1.5305 
 H                     34.38456   2.30521  -2.666 
 H                     31.31917   3.46869  -3.92547 
 H                     31.22127   5.05154  -3.17715 
 H                     29.6712   2.59218  -2.81526 
 H                     29.04172   4.27175  -2.9814 
 H                     29.72012   3.6579   -1.40747 
 H                     31.38648   9.07423   1.00719 
 H                     32.01235   8.04951  -0.32489 
 H                     33.13186   8.53583   1.01019 
 H                     32.54404   7.02857   5.87714 
 H                     30.11163   8.81046   8.9579 
 H                     29.79379   6.97824   9.21462 
 H                     28.87318   8.03804   8.11847 
 
 ITRead=  0  0  0  0  0  0  0  0  0  0  0  0  0  0  0  0  0  0  0  0
 ITRead=  0  0  0  0  0  0  0  0  0  0  0  0  0  0  0  0  0  0  0  0
 ITRead=  0  0  0  0  0  0  0  0  0  0  0  0  0  0  0  0  0  0  0  0
 ITRead=  0  0  0  0  0  0  0  0  0  0  0  0  0  0  0  0  0  0  0  0
 ITRead=  0  0  0  0  0  0  0  0  0  0  0  0  0  0  0  0  0  0  0  0
 ITRead=  0  0  0  0  0  0  0  0  0  0  0  0  0  0  0  0  0  0  0  0
 ITRead=  0  0  0  0  0  0  0  0  0  0  0  0  0  0  0  0  0  0  0  0
 ITRead=  0  0  0  0  0  0  0  0  0  0  0  0  0  0  0  0  0  0
 MicOpt= -1 -1 -1 -1 -1 -1 -1 -1 -1 -1 -1 -1 -1 -1 -1 -1 -1 -1 -1 -1
 MicOpt= -1 -1 -1 -1 -1 -1 -1 -1 -1 -1 -1 -1 -1 -1 -1 -1 -1 -1 -1 -1
 MicOpt= -1 -1 -1 -1 -1 -1 -1 -1 -1 -1 -1 -1 -1 -1 -1 -1 -1 -1 -1 -1
 MicOpt= -1 -1 -1 -1 -1 -1 -1 -1 -1 -1 -1 -1 -1 -1 -1 -1 -1 -1 -1 -1
 MicOpt= -1 -1 -1 -1 -1 -1 -1 -1 -1 -1 -1 -1 -1 -1 -1 -1 -1 -1 -1 -1
 MicOpt= -1 -1 -1 -1 -1 -1 -1 -1 -1 -1 -1 -1 -1 -1 -1 -1 -1 -1 -1 -1
 MicOpt= -1 -1 -1 -1 -1 -1 -1 -1 -1 -1 -1 -1 -1 -1 -1 -1 -1 -1 -1 -1
 MicOpt= -1 -1 -1 -1 -1 -1 -1 -1 -1 -1 -1 -1 -1 -1 -1 -1 -1 -1
 NAtoms=    158 NQM=      158 NQMF=       0 NMMI=      0 NMMIF=      0
                NMic=       0 NMicF=      0.
                    Isotopes and Nuclear Properties:
 (Nuclear quadrupole moments (NQMom) in fm**2, nuclear magnetic moments (NMagM)
  in nuclear magnetons)

  Atom         1           2           3           4           5           6           7           8           9          10
 IAtWgt=          24          12          12          12          12          14          12          12          12          12
 AtmWgt=  23.9850450  12.0000000  12.0000000  12.0000000  12.0000000  14.0030740  12.0000000  12.0000000  12.0000000  12.0000000
 NucSpn=           0           0           0           0           0           2           0           0           0           0
 AtZEff=  -0.0000000  -0.0000000  -0.0000000  -0.0000000  -0.0000000  -0.0000000  -0.0000000  -0.0000000  -0.0000000  -0.0000000
 NQMom=    0.0000000   0.0000000   0.0000000   0.0000000   0.0000000   2.0440000   0.0000000   0.0000000   0.0000000   0.0000000
 NMagM=    0.0000000   0.0000000   0.0000000   0.0000000   0.0000000   0.4037610   0.0000000   0.0000000   0.0000000   0.0000000
 AtZNuc=  12.0000000   6.0000000   6.0000000   6.0000000   6.0000000   7.0000000   6.0000000   6.0000000   6.0000000   6.0000000

  Atom        11          12          13          14          15          16          17          18          19          20
 IAtWgt=          12          12          12           1          14          12          12          12          12          12
 AtmWgt=  12.0000000  12.0000000  12.0000000   1.0078250  14.0030740  12.0000000  12.0000000  12.0000000  12.0000000  12.0000000
 NucSpn=           0           0           0           1           2           0           0           0           0           0
 AtZEff=  -0.0000000  -0.0000000  -0.0000000  -0.0000000  -0.0000000  -0.0000000  -0.0000000  -0.0000000  -0.0000000  -0.0000000
 NQMom=    0.0000000   0.0000000   0.0000000   0.0000000   2.0440000   0.0000000   0.0000000   0.0000000   0.0000000   0.0000000
 NMagM=    0.0000000   0.0000000   0.0000000   2.7928460   0.4037610   0.0000000   0.0000000   0.0000000   0.0000000   0.0000000
 AtZNuc=   6.0000000   6.0000000   6.0000000   1.0000000   7.0000000   6.0000000   6.0000000   6.0000000   6.0000000   6.0000000

  Atom        21          22          23          24          25          26          27          28          29          30
 IAtWgt=          12          16          12          14          12          12          12          12          12          12
 AtmWgt=  12.0000000  15.9949146  12.0000000  14.0030740  12.0000000  12.0000000  12.0000000  12.0000000  12.0000000  12.0000000
 NucSpn=           0           0           0           2           0           0           0           0           0           0
 AtZEff=  -0.0000000  -0.0000000  -0.0000000  -0.0000000  -0.0000000  -0.0000000  -0.0000000  -0.0000000  -0.0000000  -0.0000000
 NQMom=    0.0000000   0.0000000   0.0000000   2.0440000   0.0000000   0.0000000   0.0000000   0.0000000   0.0000000   0.0000000
 NMagM=    0.0000000   0.0000000   0.0000000   0.4037610   0.0000000   0.0000000   0.0000000   0.0000000   0.0000000   0.0000000
 AtZNuc=   6.0000000   8.0000000   6.0000000   7.0000000   6.0000000   6.0000000   6.0000000   6.0000000   6.0000000   6.0000000

  Atom        31          32          33          34          35          36          37          38          39          40
 IAtWgt=          12          14          12          12          12          12          12          12          16          12
 AtmWgt=  12.0000000  14.0030740  12.0000000  12.0000000  12.0000000  12.0000000  12.0000000  12.0000000  15.9949146  12.0000000
 NucSpn=           0           2           0           0           0           0           0           0           0           0
 AtZEff=  -0.0000000  -0.0000000  -0.0000000  -0.0000000  -0.0000000  -0.0000000  -0.0000000  -0.0000000  -0.0000000  -0.0000000
 NQMom=    0.0000000   2.0440000   0.0000000   0.0000000   0.0000000   0.0000000   0.0000000   0.0000000   0.0000000   0.0000000
 NMagM=    0.0000000   0.4037610   0.0000000   0.0000000   0.0000000   0.0000000   0.0000000   0.0000000   0.0000000   0.0000000
 AtZNuc=   6.0000000   7.0000000   6.0000000   6.0000000   6.0000000   6.0000000   6.0000000   6.0000000   8.0000000   6.0000000

  Atom        41          42          43          44          45          46          47          48          49          50
 IAtWgt=          12          16          16          12           1           1           1           1           1           1
 AtmWgt=  12.0000000  15.9949146  15.9949146  12.0000000   1.0078250   1.0078250   1.0078250   1.0078250   1.0078250   1.0078250
 NucSpn=           0           0           0           0           1           1           1           1           1           1
 AtZEff=  -0.0000000  -0.0000000  -0.0000000  -0.0000000  -0.0000000  -0.0000000  -0.0000000  -0.0000000  -0.0000000  -0.0000000
 NQMom=    0.0000000   0.0000000   0.0000000   0.0000000   0.0000000   0.0000000   0.0000000   0.0000000   0.0000000   0.0000000
 NMagM=    0.0000000   0.0000000   0.0000000   0.0000000   2.7928460   2.7928460   2.7928460   2.7928460   2.7928460   2.7928460
 AtZNuc=   6.0000000   8.0000000   8.0000000   6.0000000   1.0000000   1.0000000   1.0000000   1.0000000   1.0000000   1.0000000

  Atom        51          52          53          54          55          56          57          58          59          60
 IAtWgt=           1           1           1           1           1           1           1           1           1           1
 AtmWgt=   1.0078250   1.0078250   1.0078250   1.0078250   1.0078250   1.0078250   1.0078250   1.0078250   1.0078250   1.0078250
 NucSpn=           1           1           1           1           1           1           1           1           1           1
 AtZEff=  -0.0000000  -0.0000000  -0.0000000  -0.0000000  -0.0000000  -0.0000000  -0.0000000  -0.0000000  -0.0000000  -0.0000000
 NQMom=    0.0000000   0.0000000   0.0000000   0.0000000   0.0000000   0.0000000   0.0000000   0.0000000   0.0000000   0.0000000
 NMagM=    2.7928460   2.7928460   2.7928460   2.7928460   2.7928460   2.7928460   2.7928460   2.7928460   2.7928460   2.7928460
 AtZNuc=   1.0000000   1.0000000   1.0000000   1.0000000   1.0000000   1.0000000   1.0000000   1.0000000   1.0000000   1.0000000

  Atom        61          62          63          64          65          66          67          68          69          70
 IAtWgt=           1           1           1           1           1           1           1           1           1           1
 AtmWgt=   1.0078250   1.0078250   1.0078250   1.0078250   1.0078250   1.0078250   1.0078250   1.0078250   1.0078250   1.0078250
 NucSpn=           1           1           1           1           1           1           1           1           1           1
 AtZEff=  -0.0000000  -0.0000000  -0.0000000  -0.0000000  -0.0000000  -0.0000000  -0.0000000  -0.0000000  -0.0000000  -0.0000000
 NQMom=    0.0000000   0.0000000   0.0000000   0.0000000   0.0000000   0.0000000   0.0000000   0.0000000   0.0000000   0.0000000
 NMagM=    2.7928460   2.7928460   2.7928460   2.7928460   2.7928460   2.7928460   2.7928460   2.7928460   2.7928460   2.7928460
 AtZNuc=   1.0000000   1.0000000   1.0000000   1.0000000   1.0000000   1.0000000   1.0000000   1.0000000   1.0000000   1.0000000

  Atom        71          72          73          74          75          76          77          78          79          80
 IAtWgt=           1           1           1           1           1           1           1           1           1          24
 AtmWgt=   1.0078250   1.0078250   1.0078250   1.0078250   1.0078250   1.0078250   1.0078250   1.0078250   1.0078250  23.9850450
 NucSpn=           1           1           1           1           1           1           1           1           1           0
 AtZEff=  -0.0000000  -0.0000000  -0.0000000  -0.0000000  -0.0000000  -0.0000000  -0.0000000  -0.0000000  -0.0000000  -0.0000000
 NQMom=    0.0000000   0.0000000   0.0000000   0.0000000   0.0000000   0.0000000   0.0000000   0.0000000   0.0000000   0.0000000
 NMagM=    2.7928460   2.7928460   2.7928460   2.7928460   2.7928460   2.7928460   2.7928460   2.7928460   2.7928460   0.0000000
 AtZNuc=   1.0000000   1.0000000   1.0000000   1.0000000   1.0000000   1.0000000   1.0000000   1.0000000   1.0000000  12.0000000

  Atom        81          82          83          84          85          86          87          88          89          90
 IAtWgt=          12          12          12          12          14          12          12          12          12          12
 AtmWgt=  12.0000000  12.0000000  12.0000000  12.0000000  14.0030740  12.0000000  12.0000000  12.0000000  12.0000000  12.0000000
 NucSpn=           0           0           0           0           2           0           0           0           0           0
 AtZEff=  -0.0000000  -0.0000000  -0.0000000  -0.0000000  -0.0000000  -0.0000000  -0.0000000  -0.0000000  -0.0000000  -0.0000000
 NQMom=    0.0000000   0.0000000   0.0000000   0.0000000   2.0440000   0.0000000   0.0000000   0.0000000   0.0000000   0.0000000
 NMagM=    0.0000000   0.0000000   0.0000000   0.0000000   0.4037610   0.0000000   0.0000000   0.0000000   0.0000000   0.0000000
 AtZNuc=   6.0000000   6.0000000   6.0000000   6.0000000   7.0000000   6.0000000   6.0000000   6.0000000   6.0000000   6.0000000

  Atom        91          92          93          94          95          96          97          98          99         100
 IAtWgt=          12          12           1          14          12          12          12          12          12          12
 AtmWgt=  12.0000000  12.0000000   1.0078250  14.0030740  12.0000000  12.0000000  12.0000000  12.0000000  12.0000000  12.0000000
 NucSpn=           0           0           1           2           0           0           0           0           0           0
 AtZEff=  -0.0000000  -0.0000000  -0.0000000  -0.0000000  -0.0000000  -0.0000000  -0.0000000  -0.0000000  -0.0000000  -0.0000000
 NQMom=    0.0000000   0.0000000   0.0000000   2.0440000   0.0000000   0.0000000   0.0000000   0.0000000   0.0000000   0.0000000
 NMagM=    0.0000000   0.0000000   2.7928460   0.4037610   0.0000000   0.0000000   0.0000000   0.0000000   0.0000000   0.0000000
 AtZNuc=   6.0000000   6.0000000   1.0000000   7.0000000   6.0000000   6.0000000   6.0000000   6.0000000   6.0000000   6.0000000

  Atom       101         102         103         104         105         106         107         108         109         110
 IAtWgt=          16          12          14          12          12          12          12          12          12          12
 AtmWgt=  15.9949146  12.0000000  14.0030740  12.0000000  12.0000000  12.0000000  12.0000000  12.0000000  12.0000000  12.0000000
 NucSpn=           0           0           2           0           0           0           0           0           0           0
 AtZEff=  -0.0000000  -0.0000000  -0.0000000  -0.0000000  -0.0000000  -0.0000000  -0.0000000  -0.0000000  -0.0000000  -0.0000000
 NQMom=    0.0000000   0.0000000   2.0440000   0.0000000   0.0000000   0.0000000   0.0000000   0.0000000   0.0000000   0.0000000
 NMagM=    0.0000000   0.0000000   0.4037610   0.0000000   0.0000000   0.0000000   0.0000000   0.0000000   0.0000000   0.0000000
 AtZNuc=   8.0000000   6.0000000   7.0000000   6.0000000   6.0000000   6.0000000   6.0000000   6.0000000   6.0000000   6.0000000

  Atom       111         112         113         114         115         116         117         118         119         120
 IAtWgt=          14          12          12          12          12          12          12          16          12          12
 AtmWgt=  14.0030740  12.0000000  12.0000000  12.0000000  12.0000000  12.0000000  12.0000000  15.9949146  12.0000000  12.0000000
 NucSpn=           2           0           0           0           0           0           0           0           0           0
 AtZEff=  -0.0000000  -0.0000000  -0.0000000  -0.0000000  -0.0000000  -0.0000000  -0.0000000  -0.0000000  -0.0000000  -0.0000000
 NQMom=    2.0440000   0.0000000   0.0000000   0.0000000   0.0000000   0.0000000   0.0000000   0.0000000   0.0000000   0.0000000
 NMagM=    0.4037610   0.0000000   0.0000000   0.0000000   0.0000000   0.0000000   0.0000000   0.0000000   0.0000000   0.0000000
 AtZNuc=   7.0000000   6.0000000   6.0000000   6.0000000   6.0000000   6.0000000   6.0000000   8.0000000   6.0000000   6.0000000

  Atom       121         122         123         124         125         126         127         128         129         130
 IAtWgt=          16          16          12           1           1           1           1           1           1           1
 AtmWgt=  15.9949146  15.9949146  12.0000000   1.0078250   1.0078250   1.0078250   1.0078250   1.0078250   1.0078250   1.0078250
 NucSpn=           0           0           0           1           1           1           1           1           1           1
 AtZEff=  -0.0000000  -0.0000000  -0.0000000  -0.0000000  -0.0000000  -0.0000000  -0.0000000  -0.0000000  -0.0000000  -0.0000000
 NQMom=    0.0000000   0.0000000   0.0000000   0.0000000   0.0000000   0.0000000   0.0000000   0.0000000   0.0000000   0.0000000
 NMagM=    0.0000000   0.0000000   0.0000000   2.7928460   2.7928460   2.7928460   2.7928460   2.7928460   2.7928460   2.7928460
 AtZNuc=   8.0000000   8.0000000   6.0000000   1.0000000   1.0000000   1.0000000   1.0000000   1.0000000   1.0000000   1.0000000

  Atom       131         132         133         134         135         136         137         138         139         140
 IAtWgt=           1           1           1           1           1           1           1           1           1           1
 AtmWgt=   1.0078250   1.0078250   1.0078250   1.0078250   1.0078250   1.0078250   1.0078250   1.0078250   1.0078250   1.0078250
 NucSpn=           1           1           1           1           1           1           1           1           1           1
 AtZEff=  -0.0000000  -0.0000000  -0.0000000  -0.0000000  -0.0000000  -0.0000000  -0.0000000  -0.0000000  -0.0000000  -0.0000000
 NQMom=    0.0000000   0.0000000   0.0000000   0.0000000   0.0000000   0.0000000   0.0000000   0.0000000   0.0000000   0.0000000
 NMagM=    2.7928460   2.7928460   2.7928460   2.7928460   2.7928460   2.7928460   2.7928460   2.7928460   2.7928460   2.7928460
 AtZNuc=   1.0000000   1.0000000   1.0000000   1.0000000   1.0000000   1.0000000   1.0000000   1.0000000   1.0000000   1.0000000

  Atom       141         142         143         144         145         146         147         148         149         150
 IAtWgt=           1           1           1           1           1           1           1           1           1           1
 AtmWgt=   1.0078250   1.0078250   1.0078250   1.0078250   1.0078250   1.0078250   1.0078250   1.0078250   1.0078250   1.0078250
 NucSpn=           1           1           1           1           1           1           1           1           1           1
 AtZEff=  -0.0000000  -0.0000000  -0.0000000  -0.0000000  -0.0000000  -0.0000000  -0.0000000  -0.0000000  -0.0000000  -0.0000000
 NQMom=    0.0000000   0.0000000   0.0000000   0.0000000   0.0000000   0.0000000   0.0000000   0.0000000   0.0000000   0.0000000
 NMagM=    2.7928460   2.7928460   2.7928460   2.7928460   2.7928460   2.7928460   2.7928460   2.7928460   2.7928460   2.7928460
 AtZNuc=   1.0000000   1.0000000   1.0000000   1.0000000   1.0000000   1.0000000   1.0000000   1.0000000   1.0000000   1.0000000

  Atom       151         152         153         154         155         156         157         158
 IAtWgt=           1           1           1           1           1           1           1           1
 AtmWgt=   1.0078250   1.0078250   1.0078250   1.0078250   1.0078250   1.0078250   1.0078250   1.0078250
 NucSpn=           1           1           1           1           1           1           1           1
 AtZEff=  -0.0000000  -0.0000000  -0.0000000  -0.0000000  -0.0000000  -0.0000000  -0.0000000  -0.0000000
 NQMom=    0.0000000   0.0000000   0.0000000   0.0000000   0.0000000   0.0000000   0.0000000   0.0000000
 NMagM=    2.7928460   2.7928460   2.7928460   2.7928460   2.7928460   2.7928460   2.7928460   2.7928460
 AtZNuc=   1.0000000   1.0000000   1.0000000   1.0000000   1.0000000   1.0000000   1.0000000   1.0000000
 Leave Link  101 at Sun Sep 12 11:57:26 2021, MaxMem= 23488102400 cpu:               3.4 elap:               0.2
 (Enter /sw/apps/gaussian-16.0/g16/l202.exe)
 Stoichiometry    C68H72Mg2N8O8
 Framework group  C1[X(C68H72Mg2N8O8)]
 Deg. of freedom   468
 Full point group                 C1      NOp   1
 Largest Abelian subgroup         C1      NOp   1
 Largest concise Abelian subgroup C1      NOp   1
                         Standard orientation:                         
 ---------------------------------------------------------------------
 Center     Atomic      Atomic             Coordinates (Angstroms)
 Number     Number       Type             X           Y           Z
 ---------------------------------------------------------------------
      1         12           0       15.885346   -0.635765    0.460665
      2          6           0       16.156706    1.964895   -1.983746
      3          6           0       16.691606    1.697910    2.815866
      4          6           0       16.097562   -2.995150    2.568956
      5          6           0       16.223216   -2.921170   -2.148631
      6          7           0       16.341652    1.525291    0.311434
      7          6           0       16.353213    2.414940   -0.676271
      8          6           0       16.518862    3.883509   -0.183077
      9          6           0       17.231988    3.600742    1.214597
     10          6           0       16.696438    2.205293    1.482610
     11          6           0       18.752849    3.533392    1.119999
     12          6           0       15.142443    4.604164    0.011489
     13          6           0       15.218409    6.125097    0.173804
     14          1           0       14.158160    6.943828   -0.394439
     15          7           0       15.848315   -0.596457    2.435490
     16          6           0       16.194232    0.443795    3.231419
     17          6           0       15.994835   -0.022042    4.620634
     18          6           0       15.686568   -1.478317    4.572406
     19          6           0       15.893623   -1.757394    3.174328
     20          6           0       16.054537    0.886827    5.809812
     21          6           0       15.281464   -2.464463    5.621949
     22          8           0       15.288955   -3.725215    5.409765
     23          6           0       14.956173   -1.913863    6.950131
     24          7           0       16.345176   -2.664003    0.280545
     25          6           0       16.309706   -3.476552    1.342378
     26          6           0       16.394029   -4.916561    0.931033
     27          6           0       16.249701   -4.931240   -0.659157
     28          6           0       16.185809   -3.403487   -0.904429
     29          6           0       17.678890   -5.653463    1.333673
     30          6           0       15.130607   -5.821435   -1.255481
     31          6           0       13.776109   -5.262735   -0.880931
     32          7           0       15.967566   -0.538563   -1.706092
     33          6           0       16.134446   -1.612372   -2.592523
     34          6           0       16.237363   -1.041515   -3.948103
     35          6           0       16.139182    0.334777   -3.753097
     36          6           0       16.011075    0.607983   -2.361250
     37          6           0       16.457743   -1.775490   -5.146914
     38          6           0       16.137438    1.639543   -4.394532
     39          8           0       16.121433    2.031779   -5.562174
     40          6           0       16.271159    2.753573   -3.264539
     41          6           0       15.230908    3.805446   -3.537944
     42          8           0       14.015007    3.545979   -3.430118
     43          8           0       15.827429    5.002230   -3.649353
     44          6           0       14.847925    6.094890   -3.891883
     45          1           0       17.163445    2.285404    3.605903
     46          1           0       16.066354   -3.846878    3.251615
     47          1           0       16.244997   -3.578010   -3.020147
     48          1           0       17.160224    4.503717   -0.809511
     49          1           0       16.897133    4.290381    1.989189
     50          1           0       19.089244    3.562602    0.083705
     51          1           0       19.031732    2.587249    1.584253
     52          1           0       19.213635    4.312627    1.727655
     53          1           0       14.729646    4.334239    0.983497
     54          1           0       14.461484    4.362325   -0.805295
     55          1           0       16.196035    6.508871   -0.119240
     56          1           0       15.142562    6.359468    1.235650
     57          1           0       16.462431    1.862391    5.548196
     58          1           0       16.785126    0.462711    6.498342
     59          1           0       15.088696    0.975540    6.307421
     60          1           0       15.821424   -1.376309    7.338622
     61          1           0       14.602539   -2.754665    7.545819
     62          1           0       14.160500   -1.176282    6.841378
     63          1           0       15.582500   -5.496450    1.368727
     64          1           0       17.158190   -5.282376   -1.149082
     65          1           0       17.501839   -6.546275    1.933876
     66          1           0       18.320499   -4.948378    1.861388
     67          1           0       18.317786   -5.946538    0.501004
     68          1           0       15.187244   -6.828458   -0.843604
     69          1           0       15.179088   -5.904023   -2.341336
     70          1           0       13.610799   -5.672233    0.114968
     71          1           0       13.014245   -5.612604   -1.578330
     72          1           0       13.805668   -4.177095   -0.786072
     73          1           0       15.780125   -1.355917   -5.890393
     74          1           0       16.274050   -2.839467   -4.999224
     75          1           0       17.509448   -1.554580   -5.328490
     76          1           0       17.283288    3.150883   -3.334264
     77          1           0       15.154239    6.603481   -4.806071
     78          1           0       14.806702    6.683234   -2.975064
     79          1           0       13.836513    5.785389   -4.157577
     80         12           0      -15.844415   -0.648870   -0.456105
     81          6           0      -16.357317    1.922725    1.993976
     82          6           0      -16.430634    1.716100   -2.843123
     83          6           0      -15.844500   -2.972418   -2.616792
     84          6           0      -16.428673   -2.978380    2.069312
     85          7           0      -16.320820    1.506632   -0.317863
     86          6           0      -16.429204    2.388386    0.664535
     87          6           0      -16.545460    3.863375    0.194990
     88          6           0      -17.127451    3.601452   -1.278633
     89          6           0      -16.566029    2.201364   -1.517880
     90          6           0      -18.644399    3.521468   -1.321161
     91          6           0      -15.153423    4.585539    0.142827
     92          6           0      -15.223378    6.106787   -0.007660
     93          1           0      -14.217869    6.920254    0.670342
     94          7           0      -15.615177   -0.570905   -2.425859
     95          6           0      -15.879853    0.476199   -3.235066
     96          6           0      -15.564242    0.021232   -4.597988
     97          6           0      -15.248563   -1.432166   -4.546023
     98          6           0      -15.584773   -1.725814   -3.167329
     99          6           0      -15.504084    0.953015   -5.773403
    100          6           0      -14.741688   -2.400582   -5.571420
    101          8           0      -14.765733   -3.666469   -5.371935
    102          6           0      -14.302999   -1.828750   -6.852845
    103          7           0      -16.306569   -2.673087   -0.349811
    104          6           0      -16.172445   -3.470184   -1.424322
    105          6           0      -16.295111   -4.925988   -1.042277
    106          6           0      -16.298496   -4.951719    0.556751
    107          6           0      -16.265569   -3.432754    0.834360
    108          6           0      -17.536314   -5.648694   -1.565257
    109          6           0      -15.238927   -5.852645    1.248368
    110          6           0      -13.853428   -5.297890    1.007507
    111          7           0      -16.126823   -0.583863    1.684935
    112          6           0      -16.382900   -1.674167    2.545026
    113          6           0      -16.615696   -1.119102    3.894154
    114          6           0      -16.500733    0.268248    3.719402
    115          6           0      -16.236356    0.558628    2.353655
    116          6           0      -16.937427   -1.871256    5.059005
    117          6           0      -16.553446    1.553740    4.377748
    118          8           0      -16.656629    1.928267    5.545149
    119          6           0      -16.588300    2.689597    3.266446
    120          6           0      -15.580205    3.740093    3.644198
    121          8           0      -14.365374    3.474380    3.657895
    122          8           0      -16.194457    4.935124    3.714707
    123          6           0      -15.233436    6.011229    4.075599
    124          1           0      -16.821043    2.323213   -3.660365
    125          1           0      -15.747327   -3.819179   -3.300194
    126          1           0      -16.520228   -3.645200    2.929335
    127          1           0      -17.238861    4.468700    0.766433
    128          1           0      -16.715319    4.305401   -1.996951
    129          1           0      -19.076520    3.536268   -0.331624
    130          1           0      -18.875958    2.590158   -1.821237
    131          1           0      -19.045931    4.314042   -1.959079
    132          1           0      -14.650735    4.326590   -0.797908
    133          1           0      -14.561408    4.334190    1.001300
    134          1           0      -16.229713    6.494845    0.191468
    135          1           0      -15.040528    6.360703   -1.054606
    136          1           0      -15.944867    1.929089   -5.535915
    137          1           0      -16.162331    0.538081   -6.544380
    138          1           0      -14.496478    1.049340   -6.183398
    139          1           0      -15.128005   -1.285092   -7.307005
    140          1           0      -13.891855   -2.665566   -7.420800
    141          1           0      -13.512974   -1.095312   -6.656483
    142          1           0      -15.444850   -5.492930   -1.401064
    143          1           0      -17.253468   -5.323558    0.956264
    144          1           0      -17.297754   -6.544058   -2.169823
    145          1           0      -18.122978   -4.945848   -2.141784
    146          1           0      -18.242604   -5.966168   -0.800035
    147          1           0      -15.251917   -6.854940    0.813174
    148          1           0      -15.396555   -5.963078    2.316053
    149          1           0      -13.597848   -5.692634    0.019610
    150          1           0      -13.160466   -5.655064    1.766633
    151          1           0      -13.875188   -4.204651    0.930112
    152          1           0      -16.341390   -1.465907    5.865809
    153          1           0      -16.742684   -2.931809    4.913814
    154          1           0      -18.006548   -1.657556    5.140032
    155          1           0      -17.603197    3.087962    3.236893
    156          1           0      -15.630338    6.508632    4.965959
    157          1           0      -15.118208    6.626983    3.163829
    158          1           0      -14.251248    5.710820    4.421314
 ---------------------------------------------------------------------
 Rotational constants (GHZ):           0.0202757           0.0016113           0.0016078
 Leave Link  202 at Sun Sep 12 11:57:26 2021, MaxMem= 23488102400 cpu:               0.2 elap:               0.0
 (Enter /sw/apps/gaussian-16.0/g16/l301.exe)
 Standard basis: def2SVP (5D, 7F)
 Ernie: Thresh=  0.10000D-02 Tol=  0.10000D-05 Strict=F.
 There are  1658 symmetry adapted cartesian basis functions of A   symmetry.
 There are  1572 symmetry adapted basis functions of A   symmetry.
  1572 basis functions,  2678 primitive gaussians,  1658 cartesian basis functions
   312 alpha electrons      312 beta electrons
       nuclear repulsion energy     12296.1944253509 Hartrees.
 IExCor=20419 DFT=T Ex+Corr=CAM-B3LYP ExCW=0 ScaHFX=  1.000000
 ScaDFX=  1.000000  1.000000  1.000000  0.810000 ScalE2=  1.000000  1.000000
 IRadAn=      5 IRanWt=     -1 IRanGd=            0 ICorTp=0 IEmpDi=  4
 HFx  wShort=  0.000000 wLong=  0.330000 cFull=  0.190000 cShort=  0.000000 cLong=  0.460000
 DFx  wShort=  0.000000 wLong=  0.330000 cFull=  0.190000 cShort=  0.000000 cLong=  0.460000
 NAtoms=  158 NActive=  158 NUniq=  158 SFac= 1.00D+00 NAtFMM=   60 NAOKFM=T Big=T
 Integral buffers will be    131072 words long.
 Raffenetti 1 integral format.
 Two-electron integral symmetry is turned on.
 Leave Link  301 at Sun Sep 12 11:57:26 2021, MaxMem= 23488102400 cpu:               1.3 elap:               0.1
 (Enter /sw/apps/gaussian-16.0/g16/l302.exe)
 NPDir=0 NMtPBC=     1 NCelOv=     1 NCel=       1 NClECP=     1 NCelD=      1
         NCelK=      1 NCelE2=     1 NClLst=     1 CellRange=     0.0.
 One-electron integrals computed using PRISM.
 One-electron integral symmetry used in STVInt
   1 Symmetry operations used in ECPInt.
 ECPInt:  NShTT=  271216 NPrTT=  987664 LenC2=  103957 LenP2D=  239866.
 LDataN:  DoStor=T MaxTD1= 4 Len=   56
 NBasis=  1572 RedAO= T EigKep=  3.36D-04  NBF=  1572
 NBsUse=  1572 1.00D-06 EigRej= -1.00D+00 NBFU=  1572
 Precomputing XC quadrature grid using
 IXCGrd= 4 IRadAn=           5 IRanWt=          -1 IRanGd=           0 AccXCQ= 0.00D+00.
 Generated NRdTot=       0 NPtTot=           0 NUsed=           0 NTot=          32
 NSgBfM=   812   812   812   812   812 MxSgAt=   158 MxSgA2=    79.
 Leave Link  302 at Sun Sep 12 11:57:30 2021, MaxMem= 23488102400 cpu:             100.5 elap:               4.2
 (Enter /sw/apps/gaussian-16.0/g16/l303.exe)
 DipDrv:  MaxL=1.
 Leave Link  303 at Sun Sep 12 11:57:30 2021, MaxMem= 23488102400 cpu:               7.7 elap:               0.4
 (Enter /sw/apps/gaussian-16.0/g16/l308.exe)
 Leave Link  308 at Sun Sep 12 11:57:31 2021, MaxMem= 23488102400 cpu:              12.4 elap:               0.6
 (Enter /sw/apps/gaussian-16.0/g16/l401.exe)
 ExpMin= 3.36D-02 ExpMax= 4.95D+03 ExpMxC= 7.45D+02 IAcc=3 IRadAn=         5 AccDes= 0.00D+00
 Harris functional with IExCor=20419 and IRadAn=       5 diagonalized for initial guess.
 HarFok:  IExCor=20419 AccDes= 0.00D+00 IRadAn=         5 IDoV= 1 UseB2=F ITyADJ=14
 ICtDFT=  3500011 ScaDFX=  1.000000  1.000000  1.000000  1.000000
 FoFCou: FMM=F IPFlag=           0 FMFlag=      100000 FMFlg1=        2001
         NFxFlg=           0 DoJE=T BraDBF=F KetDBF=T FulRan=T
         wScrn=  0.000000 ICntrl=       500 IOpCl=  0 I1Cent=   200000004 NGrid=           0
         NMat0=    1 NMatS0=      1 NMatT0=    0 NMatD0=    1 NMtDS0=    0 NMtDT0=    0
 Petite list used in FoFCou.
 Harris En= -3918.65801391800    
 JPrj=0 DoOrth=F DoCkMO=F.
 Leave Link  401 at Sun Sep 12 11:57:37 2021, MaxMem= 23488102400 cpu:             152.6 elap:               6.4
 (Enter /sw/apps/gaussian-16.0/g16/l502.exe)
 Integral symmetry usage will be decided dynamically.
 Closed shell SCF:
 Using DIIS extrapolation, IDIIS=  1040.
 NGot= 23488102400 LenX= 23482547354 LenY= 23479796732
 Requested convergence on RMS density matrix=1.00D-08 within 128 cycles.
 Requested convergence on MAX density matrix=1.00D-06.
 Requested convergence on             energy=1.00D-06.
 No special actions if energy rises.
 Fock matrices will be formed incrementally for  20 cycles.

 Cycle   1  Pass 1  IDiag  1:
 FoFJK:  IHMeth= 1 ICntrl=       0 DoSepK=T KAlg= 0 I1Cent=           0 FoldK=F
 IRaf=         1 NMat=       1 IRICut=       1 DoRegI=T DoRafI=F ISym2E= 0 IDoP0=0 IntGTp=1.
 FoFCou: FMM=T IPFlag=           0 FMFlag=      100000 FMFlg1=        2001
         NFxFlg=           0 DoJE=T BraDBF=F KetDBF=F FulRan=T
         wScrn=  0.000000 ICntrl=       500 IOpCl=  0 I1Cent=           0 NGrid=           0
         NMat0=    1 NMatS0=      1 NMatT0=    0 NMatD0=    1 NMtDS0=    0 NMtDT0=    0
 Symmetry not used in FoFCou.
 FMM levels:  10  Number of levels for PrismC:   9
 E= -4068.94931875468    
 DIIS: error= 2.04D-02 at cycle   1 NSaved=   1.
 NSaved= 1 IEnMin= 1 EnMin= -4068.94931875468     IErMin= 1 ErrMin= 2.04D-02
 ErrMax= 2.04D-02  0.00D+00 EMaxC= 1.00D-01 BMatC= 1.69D+00 BMatP= 1.69D+00
 IDIUse=3 WtCom= 7.96D-01 WtEn= 2.04D-01
 Coeff-Com:  0.100D+01
 Coeff-En:   0.100D+01
 Coeff:      0.100D+01
 Gap=     0.120 Goal=   None    Shift=    0.000
 GapD=    0.120 DampG=1.000 DampE=0.500 DampFc=0.5000 IDamp=-1.
 Damping current iteration by 5.00D-01
 RMSDP=1.57D-03 MaxDP=1.35D-01              OVMax= 2.02D-01

 Cycle   2  Pass 1  IDiag  1:
 RMSU=  7.69D-04    CP:  9.82D-01
 E= -4069.33823282196     Delta-E=       -0.388914067278 Rises=F Damp=T
 DIIS: error= 1.27D-02 at cycle   2 NSaved=   2.
 NSaved= 2 IEnMin= 2 EnMin= -4069.33823282196     IErMin= 2 ErrMin= 1.27D-02
 ErrMax= 1.27D-02  0.00D+00 EMaxC= 1.00D-01 BMatC= 3.07D-01 BMatP= 1.69D+00
 IDIUse=3 WtCom= 8.73D-01 WtEn= 1.27D-01
 Coeff-Com: -0.213D+00 0.121D+01
 Coeff-En:   0.000D+00 0.100D+01
 Coeff:     -0.186D+00 0.119D+01
 Gap=     0.138 Goal=   None    Shift=    0.000
 RMSDP=7.65D-04 MaxDP=9.43D-02 DE=-3.89D-01 OVMax= 1.88D-01

 Cycle   3  Pass 1  IDiag  1:
 RMSU=  7.32D-04    CP:  9.68D-01  1.24D+00
 E= -4069.62806892326     Delta-E=       -0.289836101294 Rises=F Damp=F
 DIIS: error= 1.58D-02 at cycle   3 NSaved=   3.
 NSaved= 3 IEnMin= 3 EnMin= -4069.62806892326     IErMin= 2 ErrMin= 1.27D-02
 ErrMax= 1.58D-02  0.00D+00 EMaxC= 1.00D-01 BMatC= 2.02D-01 BMatP= 3.07D-01
 IDIUse=3 WtCom= 8.42D-01 WtEn= 1.58D-01
 Coeff-Com: -0.267D+00 0.652D+00 0.616D+00
 Coeff-En:   0.000D+00 0.000D+00 0.100D+01
 Coeff:     -0.225D+00 0.549D+00 0.676D+00
 Gap=     0.125 Goal=   None    Shift=    0.000
 RMSDP=5.08D-04 MaxDP=4.94D-02 DE=-2.90D-01 OVMax= 1.42D-01

 Cycle   4  Pass 1  IDiag  1:
 RMSU=  2.65D-04    CP:  9.65D-01  1.55D+00  5.06D-01
 E= -4069.76514669237     Delta-E=       -0.137077769112 Rises=F Damp=F
 DIIS: error= 7.32D-03 at cycle   4 NSaved=   4.
 NSaved= 4 IEnMin= 4 EnMin= -4069.76514669237     IErMin= 4 ErrMin= 7.32D-03
 ErrMax= 7.32D-03  0.00D+00 EMaxC= 1.00D-01 BMatC= 5.04D-02 BMatP= 2.02D-01
 IDIUse=3 WtCom= 9.27D-01 WtEn= 7.32D-02
 Coeff-Com: -0.109D+00 0.226D+00 0.409D+00 0.474D+00
 Coeff-En:   0.000D+00 0.000D+00 0.221D+00 0.779D+00
 Coeff:     -0.101D+00 0.209D+00 0.395D+00 0.497D+00
 Gap=     0.123 Goal=   None    Shift=    0.000
 RMSDP=2.00D-04 MaxDP=2.09D-02 DE=-1.37D-01 OVMax= 6.13D-02

 Cycle   5  Pass 1  IDiag  1:
 RMSU=  7.57D-05    CP:  9.64D-01  1.49D+00  6.89D-01  5.50D-01
 E= -4069.81055457743     Delta-E=       -0.045407885067 Rises=F Damp=F
 DIIS: error= 7.89D-04 at cycle   5 NSaved=   5.
 NSaved= 5 IEnMin= 5 EnMin= -4069.81055457743     IErMin= 5 ErrMin= 7.89D-04
 ErrMax= 7.89D-04  0.00D+00 EMaxC= 1.00D-01 BMatC= 1.16D-03 BMatP= 5.04D-02
 IDIUse=3 WtCom= 9.92D-01 WtEn= 7.89D-03
 Coeff-Com: -0.357D-01 0.700D-01 0.165D+00 0.249D+00 0.552D+00
 Coeff-En:   0.000D+00 0.000D+00 0.000D+00 0.000D+00 0.100D+01
 Coeff:     -0.354D-01 0.694D-01 0.163D+00 0.247D+00 0.556D+00
 Gap=     0.122 Goal=   None    Shift=    0.000
 RMSDP=4.05D-05 MaxDP=4.16D-03 DE=-4.54D-02 OVMax= 1.62D-02

 Cycle   6  Pass 1  IDiag  1:
 RMSU=  3.01D-05    CP:  9.64D-01  1.49D+00  6.81D-01  6.21D-01  7.61D-01
 E= -4069.81155417200     Delta-E=       -0.000999594569 Rises=F Damp=F
 DIIS: error= 2.21D-04 at cycle   6 NSaved=   6.
 NSaved= 6 IEnMin= 6 EnMin= -4069.81155417200     IErMin= 6 ErrMin= 2.21D-04
 ErrMax= 2.21D-04  0.00D+00 EMaxC= 1.00D-01 BMatC= 1.74D-04 BMatP= 1.16D-03
 IDIUse=3 WtCom= 9.98D-01 WtEn= 2.21D-03
 Coeff-Com:  0.234D-02-0.683D-02 0.107D-01 0.396D-01 0.306D+00 0.648D+00
 Coeff-En:   0.000D+00 0.000D+00 0.000D+00 0.000D+00 0.101D+00 0.899D+00
 Coeff:      0.233D-02-0.681D-02 0.107D-01 0.395D-01 0.306D+00 0.649D+00
 Gap=     0.123 Goal=   None    Shift=    0.000
 RMSDP=1.57D-05 MaxDP=1.24D-03 DE=-1.00D-03 OVMax= 7.17D-03

 Cycle   7  Pass 1  IDiag  1:
 RMSU=  1.06D-05    CP:  9.64D-01  1.50D+00  6.87D-01  6.21D-01  8.60D-01
                    CP:  7.51D-01
 E= -4069.81174087075     Delta-E=       -0.000186698750 Rises=F Damp=F
 DIIS: error= 8.24D-05 at cycle   7 NSaved=   7.
 NSaved= 7 IEnMin= 7 EnMin= -4069.81174087075     IErMin= 7 ErrMin= 8.24D-05
 ErrMax= 8.24D-05  0.00D+00 EMaxC= 1.00D-01 BMatC= 2.04D-05 BMatP= 1.74D-04
 IDIUse=1 WtCom= 1.00D+00 WtEn= 0.00D+00
 Coeff-Com:  0.445D-02-0.972D-02-0.900D-02-0.391D-02 0.101D+00 0.328D+00
 Coeff-Com:  0.589D+00
 Coeff:      0.445D-02-0.972D-02-0.900D-02-0.391D-02 0.101D+00 0.328D+00
 Coeff:      0.589D+00
 Gap=     0.123 Goal=   None    Shift=    0.000
 RMSDP=6.46D-06 MaxDP=1.11D-03 DE=-1.87D-04 OVMax= 3.38D-03

 Cycle   8  Pass 1  IDiag  1:
 RMSU=  4.65D-06    CP:  9.64D-01  1.50D+00  6.88D-01  6.26D-01  8.65D-01
                    CP:  8.77D-01  8.25D-01
 E= -4069.81176616847     Delta-E=       -0.000025297721 Rises=F Damp=F
 DIIS: error= 5.00D-05 at cycle   8 NSaved=   8.
 NSaved= 8 IEnMin= 8 EnMin= -4069.81176616847     IErMin= 8 ErrMin= 5.00D-05
 ErrMax= 5.00D-05  0.00D+00 EMaxC= 1.00D-01 BMatC= 4.79D-06 BMatP= 2.04D-05
 IDIUse=1 WtCom= 1.00D+00 WtEn= 0.00D+00
 Coeff-Com:  0.214D-02-0.424D-02-0.773D-02-0.121D-01-0.119D-01 0.334D-01
 Coeff-Com:  0.346D+00 0.655D+00
 Coeff:      0.214D-02-0.424D-02-0.773D-02-0.121D-01-0.119D-01 0.334D-01
 Coeff:      0.346D+00 0.655D+00
 Gap=     0.123 Goal=   None    Shift=    0.000
 RMSDP=3.25D-06 MaxDP=3.52D-04 DE=-2.53D-05 OVMax= 1.13D-03

 Cycle   9  Pass 1  IDiag  1:
 RMSU=  1.90D-06    CP:  9.64D-01  1.50D+00  6.88D-01  6.27D-01  8.82D-01
                    CP:  9.02D-01  1.02D+00  9.38D-01
 E= -4069.81177380581     Delta-E=       -0.000007637340 Rises=F Damp=F
 DIIS: error= 1.93D-05 at cycle   9 NSaved=   9.
 NSaved= 9 IEnMin= 9 EnMin= -4069.81177380581     IErMin= 9 ErrMin= 1.93D-05
 ErrMax= 1.93D-05  0.00D+00 EMaxC= 1.00D-01 BMatC= 6.81D-07 BMatP= 4.79D-06
 IDIUse=1 WtCom= 1.00D+00 WtEn= 0.00D+00
 Coeff-Com:  0.461D-03-0.764D-03-0.265D-02-0.597D-02-0.213D-01-0.384D-01
 Coeff-Com:  0.105D+00 0.325D+00 0.638D+00
 Coeff:      0.461D-03-0.764D-03-0.265D-02-0.597D-02-0.213D-01-0.384D-01
 Coeff:      0.105D+00 0.325D+00 0.638D+00
 Gap=     0.123 Goal=   None    Shift=    0.000
 RMSDP=1.41D-06 MaxDP=1.50D-04 DE=-7.64D-06 OVMax= 7.45D-04

 Cycle  10  Pass 1  IDiag  1:
 RMSU=  9.34D-07    CP:  9.64D-01  1.50D+00  6.88D-01  6.28D-01  8.85D-01
                    CP:  9.16D-01  1.07D+00  1.10D+00  1.05D+00
 E= -4069.81177537525     Delta-E=       -0.000001569439 Rises=F Damp=F
 DIIS: error= 1.03D-05 at cycle  10 NSaved=  10.
 NSaved=10 IEnMin=10 EnMin= -4069.81177537525     IErMin=10 ErrMin= 1.03D-05
 ErrMax= 1.03D-05  0.00D+00 EMaxC= 1.00D-01 BMatC= 1.70D-07 BMatP= 6.81D-07
 IDIUse=1 WtCom= 1.00D+00 WtEn= 0.00D+00
 Coeff-Com: -0.425D-03 0.891D-03 0.123D-02 0.112D-02-0.378D-02-0.309D-01
 Coeff-Com: -0.467D-01-0.762D-01 0.256D+00 0.898D+00
 Coeff:     -0.425D-03 0.891D-03 0.123D-02 0.112D-02-0.378D-02-0.309D-01
 Coeff:     -0.467D-01-0.762D-01 0.256D+00 0.898D+00
 Gap=     0.123 Goal=   None    Shift=    0.000
 RMSDP=1.21D-06 MaxDP=1.25D-04 DE=-1.57D-06 OVMax= 6.03D-04

 Cycle  11  Pass 1  IDiag  1:
 RMSU=  5.12D-07    CP:  9.64D-01  1.50D+00  6.88D-01  6.28D-01  8.87D-01
                    CP:  9.26D-01  1.12D+00  1.21D+00  1.39D+00  1.37D+00
 E= -4069.81177615473     Delta-E=       -0.000000779482 Rises=F Damp=F
 DIIS: error= 3.91D-06 at cycle  11 NSaved=  11.
 NSaved=11 IEnMin=11 EnMin= -4069.81177615473     IErMin=11 ErrMin= 3.91D-06
 ErrMax= 3.91D-06  0.00D+00 EMaxC= 1.00D-01 BMatC= 6.02D-08 BMatP= 1.70D-07
 IDIUse=1 WtCom= 1.00D+00 WtEn= 0.00D+00
 Coeff-Com: -0.325D-03 0.632D-03 0.132D-02 0.211D-02 0.440D-02-0.831D-02
 Coeff-Com: -0.437D-01-0.132D+00-0.221D-01 0.463D+00 0.735D+00
 Coeff:     -0.325D-03 0.632D-03 0.132D-02 0.211D-02 0.440D-02-0.831D-02
 Coeff:     -0.437D-01-0.132D+00-0.221D-01 0.463D+00 0.735D+00
 Gap=     0.123 Goal=   None    Shift=    0.000
 RMSDP=6.82D-07 MaxDP=5.74D-05 DE=-7.79D-07 OVMax= 3.68D-04

 Cycle  12  Pass 1  IDiag  1:
 RMSU=  2.61D-07    CP:  9.64D-01  1.50D+00  6.88D-01  6.28D-01  8.88D-01
                    CP:  9.29D-01  1.14D+00  1.28D+00  1.55D+00  1.76D+00
                    CP:  1.20D+00
 E= -4069.81177641412     Delta-E=       -0.000000259382 Rises=F Damp=F
 DIIS: error= 2.34D-06 at cycle  12 NSaved=  12.
 NSaved=12 IEnMin=12 EnMin= -4069.81177641412     IErMin=12 ErrMin= 2.34D-06
 ErrMax= 2.34D-06  0.00D+00 EMaxC= 1.00D-01 BMatC= 1.46D-08 BMatP= 6.02D-08
 IDIUse=1 WtCom= 1.00D+00 WtEn= 0.00D+00
 Coeff-Com:  0.107D-05-0.185D-04 0.174D-03 0.503D-03 0.327D-02 0.408D-02
 Coeff-Com:  0.289D-02-0.346D-01-0.675D-01-0.773D-01 0.250D+00 0.919D+00
 Coeff:      0.107D-05-0.185D-04 0.174D-03 0.503D-03 0.327D-02 0.408D-02
 Coeff:      0.289D-02-0.346D-01-0.675D-01-0.773D-01 0.250D+00 0.919D+00
 Gap=     0.123 Goal=   None    Shift=    0.000
 RMSDP=4.35D-07 MaxDP=3.13D-05 DE=-2.59D-07 OVMax= 2.47D-04

 Cycle  13  Pass 1  IDiag  1:
 RMSU=  1.64D-07    CP:  9.64D-01  1.50D+00  6.88D-01  6.28D-01  8.89D-01
                    CP:  9.29D-01  1.14D+00  1.31D+00  1.66D+00  1.98D+00
                    CP:  1.61D+00  1.28D+00
 E= -4069.81177650501     Delta-E=       -0.000000090897 Rises=F Damp=F
 DIIS: error= 1.24D-06 at cycle  13 NSaved=  13.
 NSaved=13 IEnMin=13 EnMin= -4069.81177650501     IErMin=13 ErrMin= 1.24D-06
 ErrMax= 1.24D-06  0.00D+00 EMaxC= 1.00D-01 BMatC= 8.01D-09 BMatP= 1.46D-08
 IDIUse=1 WtCom= 1.00D+00 WtEn= 0.00D+00
 Coeff-Com:  0.120D-03-0.244D-03-0.369D-03-0.457D-03 0.560D-03 0.509D-02
 Coeff-Com:  0.198D-01 0.227D-01-0.341D-01-0.241D+00-0.155D+00 0.599D+00
 Coeff-Com:  0.784D+00
 Coeff:      0.120D-03-0.244D-03-0.369D-03-0.457D-03 0.560D-03 0.509D-02
 Coeff:      0.198D-01 0.227D-01-0.341D-01-0.241D+00-0.155D+00 0.599D+00
 Coeff:      0.784D+00
 Gap=     0.123 Goal=   None    Shift=    0.000
 RMSDP=3.37D-07 MaxDP=2.29D-05 DE=-9.09D-08 OVMax= 1.94D-04

 Cycle  14  Pass 1  IDiag  1:
 RMSU=  7.58D-08    CP:  9.64D-01  1.50D+00  6.88D-01  6.28D-01  8.89D-01
                    CP:  9.30D-01  1.15D+00  1.33D+00  1.74D+00  2.18D+00
                    CP:  1.88D+00  1.79D+00  1.09D+00
 E= -4069.81177654020     Delta-E=       -0.000000035188 Rises=F Damp=F
 DIIS: error= 6.17D-07 at cycle  14 NSaved=  14.
 NSaved=14 IEnMin=14 EnMin= -4069.81177654020     IErMin=14 ErrMin= 6.17D-07
 ErrMax= 6.17D-07  0.00D+00 EMaxC= 1.00D-01 BMatC= 1.24D-09 BMatP= 8.01D-09
 IDIUse=1 WtCom= 1.00D+00 WtEn= 0.00D+00
 Coeff-Com:  0.660D-04-0.130D-03-0.245D-03-0.385D-03-0.485D-03 0.130D-02
 Coeff-Com:  0.108D-01 0.191D-01 0.354D-02-0.993D-01-0.142D+00 0.941D-01
 Coeff-Com:  0.404D+00 0.710D+00
 Coeff:      0.660D-04-0.130D-03-0.245D-03-0.385D-03-0.485D-03 0.130D-02
 Coeff:      0.108D-01 0.191D-01 0.354D-02-0.993D-01-0.142D+00 0.941D-01
 Coeff:      0.404D+00 0.710D+00
 Gap=     0.123 Goal=   None    Shift=    0.000
 RMSDP=1.00D-07 MaxDP=6.71D-06 DE=-3.52D-08 OVMax= 5.48D-05

 Cycle  15  Pass 1  IDiag  1:
 RMSU=  3.81D-08    CP:  9.64D-01  1.50D+00  6.88D-01  6.28D-01  8.89D-01
                    CP:  9.30D-01  1.15D+00  1.33D+00  1.75D+00  2.22D+00
                    CP:  1.98D+00  1.93D+00  1.32D+00  1.03D+00
 E= -4069.81177654431     Delta-E=       -0.000000004111 Rises=F Damp=F
 DIIS: error= 3.52D-07 at cycle  15 NSaved=  15.
 NSaved=15 IEnMin=15 EnMin= -4069.81177654431     IErMin=15 ErrMin= 3.52D-07
 ErrMax= 3.52D-07  0.00D+00 EMaxC= 1.00D-01 BMatC= 2.25D-10 BMatP= 1.24D-09
 IDIUse=1 WtCom= 1.00D+00 WtEn= 0.00D+00
 Coeff-Com:  0.517D-05-0.856D-05-0.320D-04-0.808D-04-0.300D-03-0.513D-03
 Coeff-Com:  0.112D-02 0.251D-02 0.875D-02 0.187D-02-0.308D-01-0.731D-01
 Coeff-Com:  0.284D-01 0.299D+00 0.764D+00
 Coeff:      0.517D-05-0.856D-05-0.320D-04-0.808D-04-0.300D-03-0.513D-03
 Coeff:      0.112D-02 0.251D-02 0.875D-02 0.187D-02-0.308D-01-0.731D-01
 Coeff:      0.284D-01 0.299D+00 0.764D+00
 Gap=     0.123 Goal=   None    Shift=    0.000
 RMSDP=4.07D-08 MaxDP=2.77D-06 DE=-4.11D-09 OVMax= 2.64D-05

 Cycle  16  Pass 1  IDiag  1:
 RMSU=  1.86D-08    CP:  9.64D-01  1.50D+00  6.88D-01  6.28D-01  8.89D-01
                    CP:  9.30D-01  1.15D+00  1.34D+00  1.76D+00  2.23D+00
                    CP:  2.01D+00  1.99D+00  1.40D+00  1.24D+00  1.14D+00
 E= -4069.81177654500     Delta-E=       -0.000000000682 Rises=F Damp=F
 DIIS: error= 1.77D-07 at cycle  16 NSaved=  16.
 NSaved=16 IEnMin=16 EnMin= -4069.81177654500     IErMin=16 ErrMin= 1.77D-07
 ErrMax= 1.77D-07  0.00D+00 EMaxC= 1.00D-01 BMatC= 8.05D-11 BMatP= 2.25D-10
 IDIUse=1 WtCom= 1.00D+00 WtEn= 0.00D+00
 Coeff-Com: -0.142D-04 0.287D-04 0.470D-04 0.539D-04-0.262D-04-0.633D-03
 Coeff-Com: -0.200D-02-0.426D-02 0.458D-02 0.256D-01 0.206D-01-0.647D-01
 Coeff-Com: -0.837D-01-0.364D-01 0.396D+00 0.744D+00
 Coeff:     -0.142D-04 0.287D-04 0.470D-04 0.539D-04-0.262D-04-0.633D-03
 Coeff:     -0.200D-02-0.426D-02 0.458D-02 0.256D-01 0.206D-01-0.647D-01
 Coeff:     -0.837D-01-0.364D-01 0.396D+00 0.744D+00
 Gap=     0.123 Goal=   None    Shift=    0.000
 RMSDP=2.28D-08 MaxDP=1.56D-06 DE=-6.82D-10 OVMax= 1.35D-05

 Cycle  17  Pass 1  IDiag  1:
 RMSU=  1.04D-08    CP:  9.64D-01  1.50D+00  6.88D-01  6.28D-01  8.89D-01
                    CP:  9.30D-01  1.15D+00  1.34D+00  1.76D+00  2.24D+00
                    CP:  2.02D+00  2.01D+00  1.45D+00  1.34D+00  1.44D+00
                    CP:  1.25D+00
 E= -4069.81177654533     Delta-E=       -0.000000000333 Rises=F Damp=F
 DIIS: error= 1.02D-07 at cycle  17 NSaved=  17.
 NSaved=17 IEnMin=17 EnMin= -4069.81177654533     IErMin=17 ErrMin= 1.02D-07
 ErrMax= 1.02D-07  0.00D+00 EMaxC= 1.00D-01 BMatC= 1.79D-11 BMatP= 8.05D-11
 IDIUse=1 WtCom= 1.00D+00 WtEn= 0.00D+00
 Coeff-Com: -0.723D-05 0.141D-04 0.287D-04 0.428D-04 0.840D-04-0.124D-03
 Coeff-Com: -0.979D-03-0.281D-02 0.173D-03 0.931D-02 0.175D-01-0.745D-02
 Coeff-Com: -0.375D-01-0.102D+00-0.321D-01 0.299D+00 0.857D+00
 Coeff:     -0.723D-05 0.141D-04 0.287D-04 0.428D-04 0.840D-04-0.124D-03
 Coeff:     -0.979D-03-0.281D-02 0.173D-03 0.931D-02 0.175D-01-0.745D-02
 Coeff:     -0.375D-01-0.102D+00-0.321D-01 0.299D+00 0.857D+00
 Gap=     0.123 Goal=   None    Shift=    0.000
 RMSDP=1.38D-08 MaxDP=1.08D-06 DE=-3.33D-10 OVMax= 8.64D-06

 Cycle  18  Pass 1  IDiag  1:
 RMSU=  4.86D-09    CP:  9.64D-01  1.50D+00  6.88D-01  6.28D-01  8.89D-01
                    CP:  9.30D-01  1.15D+00  1.34D+00  1.76D+00  2.24D+00
                    CP:  2.02D+00  2.02D+00  1.47D+00  1.41D+00  1.62D+00
                    CP:  1.66D+00  1.39D+00
 E= -4069.81177654554     Delta-E=       -0.000000000213 Rises=F Damp=F
 DIIS: error= 5.10D-08 at cycle  18 NSaved=  18.
 NSaved=18 IEnMin=18 EnMin= -4069.81177654554     IErMin=18 ErrMin= 5.10D-08
 ErrMax= 5.10D-08  0.00D+00 EMaxC= 1.00D-01 BMatC= 6.78D-12 BMatP= 1.79D-11
 IDIUse=1 WtCom= 1.00D+00 WtEn= 0.00D+00
 Coeff-Com:  0.201D-05-0.434D-05-0.444D-05-0.155D-05 0.592D-04 0.182D-03
 Coeff-Com:  0.400D-03 0.209D-03-0.128D-02-0.614D-02-0.114D-04 0.203D-01
 Coeff-Com:  0.183D-01-0.329D-01-0.162D+00-0.187D+00 0.347D+00 0.100D+01
 Coeff:      0.201D-05-0.434D-05-0.444D-05-0.155D-05 0.592D-04 0.182D-03
 Coeff:      0.400D-03 0.209D-03-0.128D-02-0.614D-02-0.114D-04 0.203D-01
 Coeff:      0.183D-01-0.329D-01-0.162D+00-0.187D+00 0.347D+00 0.100D+01
 Gap=     0.123 Goal=   None    Shift=    0.000
 RMSDP=1.17D-08 MaxDP=8.18D-07 DE=-2.13D-10 OVMax= 7.08D-06

 Cycle  19  Pass 1  IDiag  1:
 RMSU=  2.81D-09    CP:  9.64D-01  1.50D+00  6.88D-01  6.28D-01  8.89D-01
                    CP:  9.30D-01  1.15D+00  1.34D+00  1.76D+00  2.24D+00
                    CP:  2.03D+00  2.03D+00  1.48D+00  1.46D+00  1.77D+00
                    CP:  1.99D+00  1.93D+00  1.37D+00
 E= -4069.81177654546     Delta-E=        0.000000000080 Rises=F Damp=F
 DIIS: error= 4.19D-08 at cycle  19 NSaved=  19.
 NSaved=19 IEnMin=18 EnMin= -4069.81177654554     IErMin=19 ErrMin= 4.19D-08
 ErrMax= 4.19D-08  0.00D+00 EMaxC= 1.00D-01 BMatC= 1.54D-12 BMatP= 6.78D-12
 IDIUse=1 WtCom= 1.00D+00 WtEn= 0.00D+00
 Coeff-Com:  0.293D-05-0.592D-05-0.100D-04-0.125D-04 0.114D-04 0.123D-03
 Coeff-Com:  0.486D-03 0.808D-03-0.630D-03-0.608D-02-0.485D-02 0.124D-01
 Coeff-Com:  0.205D-01 0.108D-01-0.721D-01-0.181D+00-0.345D-01 0.508D+00
 Coeff-Com:  0.746D+00
 Coeff:      0.293D-05-0.592D-05-0.100D-04-0.125D-04 0.114D-04 0.123D-03
 Coeff:      0.486D-03 0.808D-03-0.630D-03-0.608D-02-0.485D-02 0.124D-01
 Coeff:      0.205D-01 0.108D-01-0.721D-01-0.181D+00-0.345D-01 0.508D+00
 Coeff:      0.746D+00
 Gap=     0.123 Goal=   None    Shift=    0.000
 RMSDP=4.74D-09 MaxDP=3.32D-07 DE= 8.00D-11 OVMax= 2.74D-06

 SCF Done:  E(RCAM-B3LYP) =  -4069.81177655     A.U. after   19 cycles
            NFock= 19  Conv=0.47D-08     -V/T= 2.0102
 KE= 4.028802033180D+03 PE=-3.407332622266D+04 EE= 1.367851798759D+04
 Leave Link  502 at Sun Sep 12 12:05:57 2021, MaxMem= 23488102400 cpu:           11423.5 elap:             499.8
 (Enter /sw/apps/gaussian-16.0/g16/l801.exe)
 DoSCS=F DFT=T ScalE2(SS,OS)=  1.000000  1.000000
 ExpMin= 3.36D-02 ExpMax= 4.95D+03 ExpMxC= 7.45D+02 IAcc=3 IRadAn=         5 AccDes= 0.00D+00
 HarFok:  IExCor=  205 AccDes= 0.00D+00 IRadAn=         5 IDoV=-2 UseB2=F ITyADJ=14
 ICtDFT= 12500011 ScaDFX=  1.000000  1.000000  1.000000  1.000000
 GSVD:  LWork=       -9588 too small for GESVD, short by       45590 words or       45590 for optimal perf.
 Largest valence mixing into a core orbital is  2.03D-04
 Largest core mixing into a valence orbital is  5.24D-05
 Range of M.O.s used for correlation:    95  1572
 NBasis=  1572 NAE=   312 NBE=   312 NFC=    94 NFV=     0
 NROrb=   1478 NOA=   218 NOB=   218 NVA=  1260 NVB=  1260
 Leave Link  801 at Sun Sep 12 12:05:58 2021, MaxMem= 23488102400 cpu:               7.7 elap:               0.3
 (Enter /sw/apps/gaussian-16.0/g16/l914.exe)
 RHF ground state
 Two-electron integrals replicated using symmetry.
 MDV= 23488102400 DFT=T DoStab=F Mixed=T DoRPA=T DoScal=F NonHer=T
 Making orbital integer symmetry assigments:
 Orbital symmetries:
       Occupied  (A) (A) (A) (A) (A) (A) (A) (A) (A) (A) (A) (A)
                 (A) (A) (A) (A) (A) (A) (A) (A) (A) (A) (A) (A)
                 (A) (A) (A) (A) (A) (A) (A) (A) (A) (A) (A) (A)
                 (A) (A) (A) (A) (A) (A) (A) (A) (A) (A) (A) (A)
                 (A) (A) (A) (A) (A) (A) (A) (A) (A) (A) (A) (A)
                 (A) (A) (A) (A) (A) (A) (A) (A) (A) (A) (A) (A)
                 (A) (A) (A) (A) (A) (A) (A) (A) (A) (A) (A) (A)
                 (A) (A) (A) (A) (A) (A) (A) (A) (A) (A) (A) (A)
                 (A) (A) (A) (A) (A) (A) (A) (A) (A) (A) (A) (A)
                 (A) (A) (A) (A) (A) (A) (A) (A) (A) (A) (A) (A)
                 (A) (A) (A) (A) (A) (A) (A) (A) (A) (A) (A) (A)
                 (A) (A) (A) (A) (A) (A) (A) (A) (A) (A) (A) (A)
                 (A) (A) (A) (A) (A) (A) (A) (A) (A) (A) (A) (A)
                 (A) (A) (A) (A) (A) (A) (A) (A) (A) (A) (A) (A)
                 (A) (A) (A) (A) (A) (A) (A) (A) (A) (A) (A) (A)
                 (A) (A) (A) (A) (A) (A) (A) (A) (A) (A) (A) (A)
                 (A) (A) (A) (A) (A) (A) (A) (A) (A) (A) (A) (A)
                 (A) (A) (A) (A) (A) (A) (A) (A) (A) (A) (A) (A)
                 (A) (A) (A) (A) (A) (A) (A) (A) (A) (A) (A) (A)
                 (A) (A) (A) (A) (A) (A) (A) (A) (A) (A) (A) (A)
                 (A) (A) (A) (A) (A) (A) (A) (A) (A) (A) (A) (A)
                 (A) (A) (A) (A) (A) (A) (A) (A) (A) (A) (A) (A)
                 (A) (A) (A) (A) (A) (A) (A) (A) (A) (A) (A) (A)
                 (A) (A) (A) (A) (A) (A) (A) (A) (A) (A) (A) (A)
                 (A) (A) (A) (A) (A) (A) (A) (A) (A) (A) (A) (A)
                 (A) (A) (A) (A) (A) (A) (A) (A) (A) (A) (A) (A)
       Virtual   (A) (A) (A) (A) (A) (A) (A) (A) (A) (A) (A) (A)
                 (A) (A) (A) (A) (A) (A) (A) (A) (A) (A) (A) (A)
                 (A) (A) (A) (A) (A) (A) (A) (A) (A) (A) (A) (A)
                 (A) (A) (A) (A) (A) (A) (A) (A) (A) (A) (A) (A)
                 (A) (A) (A) (A) (A) (A) (A) (A) (A) (A) (A) (A)
                 (A) (A) (A) (A) (A) (A) (A) (A) (A) (A) (A) (A)
                 (A) (A) (A) (A) (A) (A) (A) (A) (A) (A) (A) (A)
                 (A) (A) (A) (A) (A) (A) (A) (A) (A) (A) (A) (A)
                 (A) (A) (A) (A) (A) (A) (A) (A) (A) (A) (A) (A)
                 (A) (A) (A) (A) (A) (A) (A) (A) (A) (A) (A) (A)
                 (A) (A) (A) (A) (A) (A) (A) (A) (A) (A) (A) (A)
                 (A) (A) (A) (A) (A) (A) (A) (A) (A) (A) (A) (A)
                 (A) (A) (A) (A) (A) (A) (A) (A) (A) (A) (A) (A)
                 (A) (A) (A) (A) (A) (A) (A) (A) (A) (A) (A) (A)
                 (A) (A) (A) (A) (A) (A) (A) (A) (A) (A) (A) (A)
                 (A) (A) (A) (A) (A) (A) (A) (A) (A) (A) (A) (A)
                 (A) (A) (A) (A) (A) (A) (A) (A) (A) (A) (A) (A)
                 (A) (A) (A) (A) (A) (A) (A) (A) (A) (A) (A) (A)
                 (A) (A) (A) (A) (A) (A) (A) (A) (A) (A) (A) (A)
                 (A) (A) (A) (A) (A) (A) (A) (A) (A) (A) (A) (A)
                 (A) (A) (A) (A) (A) (A) (A) (A) (A) (A) (A) (A)
                 (A) (A) (A) (A) (A) (A) (A) (A) (A) (A) (A) (A)
                 (A) (A) (A) (A) (A) (A) (A) (A) (A) (A) (A) (A)
                 (A) (A) (A) (A) (A) (A) (A) (A) (A) (A) (A) (A)
                 (A) (A) (A) (A) (A) (A) (A) (A) (A) (A) (A) (A)
                 (A) (A) (A) (A) (A) (A) (A) (A) (A) (A) (A) (A)
                 (A) (A) (A) (A) (A) (A) (A) (A) (A) (A) (A) (A)
                 (A) (A) (A) (A) (A) (A) (A) (A) (A) (A) (A) (A)
                 (A) (A) (A) (A) (A) (A) (A) (A) (A) (A) (A) (A)
                 (A) (A) (A) (A) (A) (A) (A) (A) (A) (A) (A) (A)
                 (A) (A) (A) (A) (A) (A) (A) (A) (A) (A) (A) (A)
                 (A) (A) (A) (A) (A) (A) (A) (A) (A) (A) (A) (A)
                 (A) (A) (A) (A) (A) (A) (A) (A) (A) (A) (A) (A)
                 (A) (A) (A) (A) (A) (A) (A) (A) (A) (A) (A) (A)
                 (A) (A) (A) (A) (A) (A) (A) (A) (A) (A) (A) (A)
                 (A) (A) (A) (A) (A) (A) (A) (A) (A) (A) (A) (A)
                 (A) (A) (A) (A) (A) (A) (A) (A) (A) (A) (A) (A)
                 (A) (A) (A) (A) (A) (A) (A) (A) (A) (A) (A) (A)
                 (A) (A) (A) (A) (A) (A) (A) (A) (A) (A) (A) (A)
                 (A) (A) (A) (A) (A) (A) (A) (A) (A) (A) (A) (A)
                 (A) (A) (A) (A) (A) (A) (A) (A) (A) (A) (A) (A)
                 (A) (A) (A) (A) (A) (A) (A) (A) (A) (A) (A) (A)
                 (A) (A) (A) (A) (A) (A) (A) (A) (A) (A) (A) (A)
                 (A) (A) (A) (A) (A) (A) (A) (A) (A) (A) (A) (A)
                 (A) (A) (A) (A) (A) (A) (A) (A) (A) (A) (A) (A)
                 (A) (A) (A) (A) (A) (A) (A) (A) (A) (A) (A) (A)
                 (A) (A) (A) (A) (A) (A) (A) (A) (A) (A) (A) (A)
                 (A) (A) (A) (A) (A) (A) (A) (A) (A) (A) (A) (A)
                 (A) (A) (A) (A) (A) (A) (A) (A) (A) (A) (A) (A)
                 (A) (A) (A) (A) (A) (A) (A) (A) (A) (A) (A) (A)
                 (A) (A) (A) (A) (A) (A) (A) (A) (A) (A) (A) (A)
                 (A) (A) (A) (A) (A) (A) (A) (A) (A) (A) (A) (A)
                 (A) (A) (A) (A) (A) (A) (A) (A) (A) (A) (A) (A)
                 (A) (A) (A) (A) (A) (A) (A) (A) (A) (A) (A) (A)
                 (A) (A) (A) (A) (A) (A) (A) (A) (A) (A) (A) (A)
                 (A) (A) (A) (A) (A) (A) (A) (A) (A) (A) (A) (A)
                 (A) (A) (A) (A) (A) (A) (A) (A) (A) (A) (A) (A)
                 (A) (A) (A) (A) (A) (A) (A) (A) (A) (A) (A) (A)
                 (A) (A) (A) (A) (A) (A) (A) (A) (A) (A) (A) (A)
                 (A) (A) (A) (A) (A) (A) (A) (A) (A) (A) (A) (A)
                 (A) (A) (A) (A) (A) (A) (A) (A) (A) (A) (A) (A)
                 (A) (A) (A) (A) (A) (A) (A) (A) (A) (A) (A) (A)
                 (A) (A) (A) (A) (A) (A) (A) (A) (A) (A) (A) (A)
                 (A) (A) (A) (A) (A) (A) (A) (A) (A) (A) (A) (A)
                 (A) (A) (A) (A) (A) (A) (A) (A) (A) (A) (A) (A)
                 (A) (A) (A) (A) (A) (A) (A) (A) (A) (A) (A) (A)
                 (A) (A) (A) (A) (A) (A) (A) (A) (A) (A) (A) (A)
                 (A) (A) (A) (A) (A) (A) (A) (A) (A) (A) (A) (A)
                 (A) (A) (A) (A) (A) (A) (A) (A) (A) (A) (A) (A)
                 (A) (A) (A) (A) (A) (A) (A) (A) (A) (A) (A) (A)
                 (A) (A) (A) (A) (A) (A) (A) (A) (A) (A) (A) (A)
                 (A) (A) (A) (A) (A) (A) (A) (A) (A) (A) (A) (A)
                 (A) (A) (A) (A) (A) (A) (A) (A) (A) (A) (A) (A)
                 (A) (A) (A) (A) (A) (A) (A) (A) (A) (A) (A) (A)
                 (A) (A) (A) (A) (A) (A) (A) (A) (A) (A) (A) (A)
                 (A) (A) (A) (A) (A) (A) (A) (A) (A) (A) (A) (A)
                 (A) (A) (A) (A) (A) (A) (A) (A) (A) (A) (A) (A)
                 (A) (A) (A) (A) (A) (A) (A) (A) (A) (A) (A) (A)
                 (A) (A) (A) (A) (A) (A) (A) (A) (A) (A) (A) (A)
                 (A) (A) (A) (A) (A) (A) (A) (A) (A) (A) (A) (A)
                 (A) (A) (A) (A) (A) (A) (A) (A) (A) (A) (A) (A)
                 (A) (A) (A) (A) (A) (A) (A) (A) (A) (A) (A) (A)
                 (A) (A) (A) (A) (A) (A) (A) (A) (A) (A) (A) (A)
                 (A) (A) (A) (A) (A) (A) (A) (A) (A) (A) (A) (A)
                 (A) (A) (A) (A) (A) (A) (A) (A) (A) (A) (A) (A)
                 (A) (A) (A) (A) (A) (A) (A) (A) (A) (A) (A) (A)
                 (A) (A) (A) (A) (A) (A) (A) (A) (A) (A) (A) (A)
                 (A) (A) (A) (A) (A) (A) (A) (A) (A) (A) (A) (A)
                 (A) (A) (A) (A) (A) (A) (A) (A) (A) (A) (A) (A)
                 (A) (A) (A) (A) (A) (A) (A) (A) (A) (A) (A) (A)
                 (A) (A) (A) (A) (A) (A) (A) (A) (A) (A) (A) (A)
                 (A) (A) (A) (A) (A) (A) (A) (A) (A) (A) (A) (A)
                 (A) (A) (A) (A) (A) (A) (A) (A) (A) (A) (A) (A)
                 (A) (A) (A) (A) (A) (A) (A) (A) (A) (A) (A) (A)
                 (A) (A) (A) (A) (A) (A) (A) (A) (A) (A) (A) (A)
                 (A) (A) (A) (A) (A) (A) (A) (A) (A) (A) (A) (A)
                 (A) (A) (A) (A) (A) (A) (A) (A) (A) (A) (A) (A)
                 (A) (A) (A) (A) (A) (A) (A) (A) (A) (A) (A) (A)
                 (A) (A) (A) (A) (A) (A) (A) (A) (A) (A) (A) (A)
                 (A) (A) (A) (A) (A) (A) (A) (A) (A) (A) (A) (A)
                 (A) (A) (A) (A) (A) (A) (A) (A) (A) (A) (A) (A)
                 (A) (A) (A) (A) (A) (A) (A) (A) (A) (A) (A) (A)
                 (A) (A) (A) (A) (A) (A) (A) (A) (A) (A) (A) (A)
                 (A) (A) (A) (A) (A) (A) (A) (A) (A) (A) (A) (A)
                 (A) (A) (A) (A) (A) (A) (A) (A) (A) (A) (A) (A)
    20 initial guesses have been made.
 Convergence on wavefunction:    0.001000000000000
 Davidson Disk Diagonalization:  ConvIn= 1.00D-03 SkipCon=T Conv= 1.00D-03.
 Max sub-space:  2000 roots to seek:    20 dimension of matrix:       549360
 Iteration     1 Dimension    20 NMult     0 NNew     20
 CISAX will form    20 AO SS matrices at one time.
 NMat=    20 NSing=    20 JSym2X= 0.
 FoFJK:  IHMeth= 1 ICntrl=       0 DoSepK=T KAlg= 0 I1Cent=           0 FoldK=F
 IRaf=         1 NMat=      40 IRICut=       1 DoRegI=T DoRafI=F ISym2E= 0 IDoP0=3 IntGTp=3.
 FoFCou: FMM=T IPFlag=           0 FMFlag=      100000 FMFlg1=        2001
         NFxFlg=           0 DoJE=F BraDBF=F KetDBF=F FulRan=T
         wScrn=  0.000000 ICntrl=       500 IOpCl=  0 I1Cent=           0 NGrid=           0
         NMat0=   20 NMatS0=     20 NMatT0=    0 NMatD0=   20 NMtDS0=    0 NMtDT0=    0
 Symmetry not used in FoFCou.
 FMM levels:  10  Number of levels for PrismC:   9
 New state      1 was old state      8
 New state      2 was old state      5
 New state      3 was old state      2
 New state      4 was old state      3
 New state      5 was old state      1
 Excitation Energies [eV] at current iteration:
 Root      1 :     2.614367337457898
 Root      2 :     2.619258455594544
 Root      3 :     2.680410476506423
 Root      4 :     2.690273653609704
 Root      5 :     3.060410769076751
 Root      6 :     3.083065653113549
 Root      7 :     3.629148473561107
 Root      8 :     3.669529735667969
 Root      9 :     3.735293397163444
 Root     10 :     3.758968382477349
 Root     11 :     3.863776798736562
 Root     12 :     3.877530907182065
 Root     13 :     4.303593990572693
 Root     14 :     4.306944998191126
 Root     15 :     4.993708057297780
 Root     16 :     4.994020662701249
 Root     17 :     5.285870823649567
 Root     18 :     5.289079629929401
 Root     19 :     5.313864627075269
 Root     20 :     5.322927141919721
 Iteration     2 Dimension    30 NMult    20 NNew     10
 CISAX will form    10 AO SS matrices at one time.
 NMat=    10 NSing=    10 JSym2X= 0.
 New state      1 was old state      3
 Root      1 not converged, maximum delta is    0.187269589402463
 New state      2 was old state      4
 Root      2 not converged, maximum delta is    0.188621264382643
 New state      3 was old state      2
 Root      3 not converged, maximum delta is    0.065903206410139
 New state      4 was old state      1
 Root      4 not converged, maximum delta is    0.089278559908090
 Root      5 has converged.
 Excitation Energies [eV] at current iteration:
 Root      1 :     1.801358181162836   Change is   -0.879052295343587
 Root      2 :     1.807477735982726   Change is   -0.882795917626978
 Root      3 :     2.235881375701172   Change is   -0.383377079893371
 Root      4 :     2.239118962526231   Change is   -0.375248374931667
 Root      5 :     3.060404248799387   Change is   -0.000006520277364
 Iteration     3 Dimension    38 NMult    30 NNew      8
 CISAX will form     8 AO SS matrices at one time.
 NMat=     8 NSing=     8 JSym2X= 0.
 Root      1 not converged, maximum delta is    0.069471771030925
 Root      2 not converged, maximum delta is    0.070633928423795
 Root      3 not converged, maximum delta is    0.043923128412892
 Root      4 not converged, maximum delta is    0.042477252375449
 Root      5 has converged.
 Excitation Energies [eV] at current iteration:
 Root      1 :     1.694117893559469   Change is   -0.107240287603367
 Root      2 :     1.699089489364312   Change is   -0.108388246618414
 Root      3 :     2.194455895205869   Change is   -0.041425480495303
 Root      4 :     2.200282591385729   Change is   -0.038836371140502
 Root      5 :     3.060404248799494   Change is    0.000000000000107
 Iteration     4 Dimension    46 NMult    38 NNew      8
 CISAX will form     8 AO SS matrices at one time.
 NMat=     8 NSing=     8 JSym2X= 0.
 Root      1 not converged, maximum delta is    0.013034995716019
 Root      2 not converged, maximum delta is    0.013294787730551
 Root      3 not converged, maximum delta is    0.009710341016643
 Root      4 not converged, maximum delta is    0.008874367998680
 Root      5 has converged.
 Excitation Energies [eV] at current iteration:
 Root      1 :     1.677403389288287   Change is   -0.016714504271181
 Root      2 :     1.682212091547375   Change is   -0.016877397816936
 Root      3 :     2.187159751382998   Change is   -0.007296143822871
 Root      4 :     2.193513690979108   Change is   -0.006768900406621
 Root      5 :     3.060404248799440   Change is   -0.000000000000054
 Iteration     5 Dimension    54 NMult    46 NNew      8
 CISAX will form     8 AO SS matrices at one time.
 NMat=     8 NSing=     8 JSym2X= 0.
 Root      1 not converged, maximum delta is    0.002168210823690
 Root      2 not converged, maximum delta is    0.002168912445865
 Root      3 not converged, maximum delta is    0.002499257483372
 Root      4 not converged, maximum delta is    0.002384909372167
 Root      5 has converged.
 Excitation Energies [eV] at current iteration:
 Root      1 :     1.675625055840821   Change is   -0.001778333447466
 Root      2 :     1.680439700633555   Change is   -0.001772390913821
 Root      3 :     2.186314491491221   Change is   -0.000845259891777
 Root      4 :     2.192738459142467   Change is   -0.000775231836641
 Root      5 :     3.060404248799494   Change is    0.000000000000054
 Iteration     6 Dimension    62 NMult    54 NNew      8
 CISAX will form     8 AO SS matrices at one time.
 NMat=     8 NSing=     8 JSym2X= 0.
 Root      1 not converged, maximum delta is    0.001357737635092
 Root      2 not converged, maximum delta is    0.001378153161230
 Root      3 not converged, maximum delta is    0.001066847751468
 Root      4 not converged, maximum delta is    0.001012103799064
 Root      5 has converged.
 Excitation Energies [eV] at current iteration:
 Root      1 :     1.675371357266950   Change is   -0.000253698573871
 Root      2 :     1.680184662347437   Change is   -0.000255038286118
 Root      3 :     2.186186421804872   Change is   -0.000128069686349
 Root      4 :     2.192620858329016   Change is   -0.000117600813451
 Root      5 :     3.060404248799387   Change is   -0.000000000000107
 Iteration     7 Dimension    70 NMult    62 NNew      8
 CISAX will form     8 AO SS matrices at one time.
 NMat=     8 NSing=     8 JSym2X= 0.
 Root      1 has converged.
 Root      2 has converged.
 Root      3 has converged.
 Root      4 has converged.
 Root      5 has converged.
 Excitation Energies [eV] at current iteration:
 Root      1 :     1.675347121751465   Change is   -0.000024235515485
[...]
 Alpha virt. eigenvalues --    1.84481   1.84524   1.84742   1.84885   1.85080
 Alpha virt. eigenvalues --    1.85176   1.85305   1.85348   1.85444   1.85562
 Alpha virt. eigenvalues --    1.85854   1.85941   1.86337   1.86435   1.86607
 Alpha virt. eigenvalues --    1.86631   1.86779   1.86857   1.86996   1.87111
 Alpha virt. eigenvalues --    1.87436   1.87519   1.87724   1.87753   1.87942
 Alpha virt. eigenvalues --    1.87968   1.88114   1.88132   1.88527   1.88610
 Alpha virt. eigenvalues --    1.88891   1.88895   1.89025   1.89199   1.89615
 Alpha virt. eigenvalues --    1.89702   1.89822   1.89833   1.90143   1.90193
 Alpha virt. eigenvalues --    1.90824   1.90846   1.91378   1.91422   1.91513
 Alpha virt. eigenvalues --    1.91542   1.92134   1.92227   1.92613   1.92699
 Alpha virt. eigenvalues --    1.93056   1.93102   1.93412   1.93455   1.94262
 Alpha virt. eigenvalues --    1.94356   1.94763   1.94768   1.95545   1.95548
 Alpha virt. eigenvalues --    1.95764   1.95800   1.96000   1.96067   1.96124
 Alpha virt. eigenvalues --    1.96226   1.96434   1.96668   1.96889   1.96973
 Alpha virt. eigenvalues --    1.97493   1.97523   1.97752   1.97908   1.98117
 Alpha virt. eigenvalues --    1.98242   1.98299   1.98745   1.99023   1.99208
 Alpha virt. eigenvalues --    1.99883   1.99894   2.00676   2.00733   2.01047
 Alpha virt. eigenvalues --    2.01069   2.01459   2.01552   2.01558   2.01746
 Alpha virt. eigenvalues --    2.01775   2.01792   2.02661   2.02859   2.03091
 Alpha virt. eigenvalues --    2.03308   2.03329   2.03470   2.03477   2.03556
 Alpha virt. eigenvalues --    2.03976   2.04108   2.04928   2.05033   2.05582
 Alpha virt. eigenvalues --    2.05588   2.06153   2.06238   2.06974   2.06981
 Alpha virt. eigenvalues --    2.07255   2.07296   2.08508   2.08662   2.08954
 Alpha virt. eigenvalues --    2.09055   2.09562   2.09662   2.10852   2.10984
 Alpha virt. eigenvalues --    2.11255   2.11356   2.11481   2.11611   2.11801
 Alpha virt. eigenvalues --    2.11815   2.12414   2.12537   2.12751   2.12817
 Alpha virt. eigenvalues --    2.12878   2.12907   2.13578   2.13838   2.14201
 Alpha virt. eigenvalues --    2.14210   2.15357   2.15409   2.15997   2.16028
 Alpha virt. eigenvalues --    2.16541   2.16595   2.16825   2.17120   2.17488
 Alpha virt. eigenvalues --    2.17598   2.17777   2.17880   2.17952   2.18142
 Alpha virt. eigenvalues --    2.18396   2.18619   2.18939   2.19181   2.19713
 Alpha virt. eigenvalues --    2.19766   2.20111   2.20189   2.20282   2.20386
 Alpha virt. eigenvalues --    2.21122   2.21224   2.21711   2.21743   2.21814
 Alpha virt. eigenvalues --    2.21822   2.22649   2.22752   2.23288   2.23385
 Alpha virt. eigenvalues --    2.24367   2.24467   2.24955   2.25032   2.26369
 Alpha virt. eigenvalues --    2.26386   2.26851   2.26955   2.27148   2.27172
 Alpha virt. eigenvalues --    2.28208   2.28260   2.29340   2.29383   2.29806
 Alpha virt. eigenvalues --    2.29824   2.30525   2.30566   2.30770   2.31146
 Alpha virt. eigenvalues --    2.31153   2.31249   2.32187   2.32193   2.33180
 Alpha virt. eigenvalues --    2.33206   2.33428   2.33532   2.34086   2.34210
 Alpha virt. eigenvalues --    2.35242   2.35439   2.35854   2.35867   2.36279
 Alpha virt. eigenvalues --    2.36395   2.36424   2.36695   2.37622   2.37729
 Alpha virt. eigenvalues --    2.38329   2.38331   2.38727   2.38927   2.39612
 Alpha virt. eigenvalues --    2.39681   2.40211   2.40253   2.40555   2.40772
 Alpha virt. eigenvalues --    2.41156   2.41338   2.41639   2.41758   2.42070
 Alpha virt. eigenvalues --    2.42107   2.42767   2.43008   2.43015   2.43599
 Alpha virt. eigenvalues --    2.43921   2.44239   2.44748   2.44801   2.44929
 Alpha virt. eigenvalues --    2.44973   2.45512   2.45616   2.46229   2.46373
 Alpha virt. eigenvalues --    2.46437   2.46547   2.46739   2.46868   2.47317
 Alpha virt. eigenvalues --    2.47322   2.47783   2.47827   2.49336   2.49381
 Alpha virt. eigenvalues --    2.49834   2.50139   2.50398   2.50621   2.51189
 Alpha virt. eigenvalues --    2.51204   2.51551   2.51955   2.52335   2.52508
 Alpha virt. eigenvalues --    2.52877   2.53100   2.53909   2.53988   2.54222
 Alpha virt. eigenvalues --    2.54225   2.54743   2.54856   2.55589   2.55603
 Alpha virt. eigenvalues --    2.57934   2.58015   2.58712   2.58838   2.60234
 Alpha virt. eigenvalues --    2.60273   2.60680   2.60858   2.61756   2.61780
 Alpha virt. eigenvalues --    2.62364   2.62601   2.63023   2.63058   2.64004
 Alpha virt. eigenvalues --    2.64152   2.64313   2.64359   2.65030   2.65147
 Alpha virt. eigenvalues --    2.65793   2.65855   2.66753   2.66846   2.66978
 Alpha virt. eigenvalues --    2.66987   2.67911   2.67976   2.68751   2.68926
 Alpha virt. eigenvalues --    2.68961   2.69090   2.69458   2.69523   2.70066
 Alpha virt. eigenvalues --    2.70067   2.70996   2.71047   2.71822   2.72120
 Alpha virt. eigenvalues --    2.72419   2.72662   2.72719   2.72892   2.73216
 Alpha virt. eigenvalues --    2.73344   2.73394   2.73596   2.74434   2.74577
 Alpha virt. eigenvalues --    2.74981   2.75041   2.76447   2.76658   2.76990
 Alpha virt. eigenvalues --    2.77298   2.77525   2.77533   2.78225   2.78261
 Alpha virt. eigenvalues --    2.78615   2.78796   2.79081   2.79201   2.80193
 Alpha virt. eigenvalues --    2.80414   2.80612   2.80655   2.81074   2.81181
 Alpha virt. eigenvalues --    2.81911   2.82000   2.82257   2.82408   2.83773
 Alpha virt. eigenvalues --    2.83817   2.83825   2.83836   2.84450   2.84612
 Alpha virt. eigenvalues --    2.84807   2.84950   2.85618   2.85737   2.86580
 Alpha virt. eigenvalues --    2.87062   2.87094   2.87671   2.88163   2.88225
 Alpha virt. eigenvalues --    2.88536   2.88573   2.88793   2.89001   2.90564
 Alpha virt. eigenvalues --    2.90580   2.90989   2.91255   2.93221   2.93241
 Alpha virt. eigenvalues --    2.93691   2.94267   2.94496   2.94626   2.95392
 Alpha virt. eigenvalues --    2.95433   2.95757   2.96266   2.96295   2.96507
 Alpha virt. eigenvalues --    2.96789   2.97241   2.97882   2.97955   2.98275
 Alpha virt. eigenvalues --    2.98277   2.98430   2.98492   2.98665   2.98696
 Alpha virt. eigenvalues --    2.98841   2.98950   2.99655   2.99723   2.99934
 Alpha virt. eigenvalues --    3.00097   3.00259   3.00286   3.00527   3.00911
 Alpha virt. eigenvalues --    3.01821   3.02035   3.02056   3.02101   3.02742
 Alpha virt. eigenvalues --    3.02798   3.03044   3.03238   3.03397   3.03626
 Alpha virt. eigenvalues --    3.03970   3.04237   3.04350   3.04514   3.04614
 Alpha virt. eigenvalues --    3.04643   3.05271   3.05363   3.06081   3.06180
 Alpha virt. eigenvalues --    3.06854   3.06870   3.07844   3.08215   3.09277
 Alpha virt. eigenvalues --    3.09470   3.09761   3.10351   3.10509   3.10656
 Alpha virt. eigenvalues --    3.11398   3.11398   3.11818   3.12010   3.12220
 Alpha virt. eigenvalues --    3.12244   3.13350   3.13566   3.13607   3.13709
 Alpha virt. eigenvalues --    3.14156   3.14389   3.15908   3.15990   3.17330
 Alpha virt. eigenvalues --    3.17434   3.17800   3.18150   3.18951   3.19197
 Alpha virt. eigenvalues --    3.22370   3.22512   3.24015   3.24353   3.24740
 Alpha virt. eigenvalues --    3.25107   3.26572   3.26573   3.27310   3.27689
 Alpha virt. eigenvalues --    3.29136   3.29166   3.31294   3.31594   3.33101
 Alpha virt. eigenvalues --    3.33488   3.40175   3.40695   3.42738   3.42889
 Alpha virt. eigenvalues --    3.48611   3.48727   3.50092   3.50198   3.50753
 Alpha virt. eigenvalues --    3.51545   3.56621   3.56921   3.59170   3.59256
 Alpha virt. eigenvalues --    3.62430   3.62907   3.66037   3.66260   3.67252
 Alpha virt. eigenvalues --    3.67457   3.73337   3.73934   3.76123   3.76593
          Condensed to atoms (all electrons):
 Mulliken charges:
               1
     1  Mg   0.838861
     2  C   -0.002965
     3  C   -0.094097
     4  C   -0.045871
     5  C   -0.063977
     6  N   -0.256798
     7  C   -0.052472
     8  C   -0.014007
     9  C   -0.087026
    10  C    0.046345
    11  C    0.104820
    12  C    0.053474
    13  C   -0.071815
    14  H    0.036136
    15  N   -0.433158
    16  C    0.168436
    17  C   -0.177123
    18  C   -0.003979
    19  C    0.148738
    20  C    0.110168
    21  C    0.012320
    22  O   -0.249602
    23  C    0.062458
    24  N   -0.341156
    25  C    0.041243
    26  C   -0.028160
    27  C   -0.023971
    28  C    0.074847
    29  C    0.076172
    30  C    0.035131
    31  C   -0.004505
    32  N   -0.310468
    33  C    0.080422
    34  C   -0.169733
    35  C    0.008324
    36  C    0.082975
    37  C    0.127315
    38  C    0.046093
    39  O   -0.188524
    40  C   -0.005343
    41  C    0.212858
    42  O   -0.257070
    43  O   -0.304807
    44  C    0.157703
    45  H   -0.017602
    46  H   -0.016820
    47  H   -0.041525
    48  H    0.000897
    49  H   -0.004010
    50  H    0.025440
    51  H    0.016440
    52  H    0.016641
    53  H    0.011262
    54  H    0.044130
    55  H    0.017821
    56  H    0.017984
    57  H    0.005873
    58  H    0.026822
    59  H    0.039649
    60  H    0.037323
    61  H    0.035708
    62  H    0.031583
    63  H    0.016592
    64  H    0.009415
    65  H    0.023220
    66  H    0.012529
    67  H    0.004715
    68  H    0.006355
    69  H    0.004692
    70  H    0.008820
    71  H    0.018162
    72  H    0.029001
    73  H    0.047533
    74  H    0.009098
    75  H    0.045952
    76  H    0.035106
    77  H    0.042879
    78  H    0.046417
    79  H    0.053689
    80  Mg   0.837886
    81  C   -0.016822
    82  C   -0.087768
    83  C   -0.045504
    84  C   -0.064878
    85  N   -0.254560
    86  C   -0.049849
    87  C   -0.015107
    88  C   -0.090504
    89  C    0.045756
    90  C    0.114380
    91  C    0.062509
    92  C   -0.077910
    93  H    0.034919
    94  N   -0.423508
    95  C    0.162954
    96  C   -0.174603
    97  C   -0.007759
    98  C    0.152153
    99  C    0.099364
   100  C    0.015620
   101  O   -0.253147
   102  C    0.061168
   103  N   -0.350087
   104  C    0.037541
   105  C   -0.019851
   106  C   -0.034802
   107  C    0.088911
   108  C    0.073652
   109  C    0.034733
   110  C   -0.007682
   111  N   -0.324109
   112  C    0.078431
   113  C   -0.163154
   114  C    0.002215
   115  C    0.096199
   116  C    0.131493
   117  C    0.042362
   118  O   -0.187945
   119  C    0.000929
   120  C    0.211249
   121  O   -0.250986
   122  O   -0.305645
   123  C    0.152032
   124  H   -0.019633
   125  H   -0.015533
   126  H   -0.040482
   127  H   -0.000683
   128  H   -0.004282
   129  H    0.022429
   130  H    0.014419
   131  H    0.016295
   132  H    0.013973
   133  H    0.037683
   134  H    0.020753
   135  H    0.019636
   136  H    0.008775
   137  H    0.026171
   138  H    0.039911
   139  H    0.038247
   140  H    0.036490
   141  H    0.033982
   142  H    0.014454
   143  H    0.012384
   144  H    0.025178
   145  H    0.011626
   146  H    0.005646
   147  H    0.006274
   148  H    0.003622
   149  H    0.010984
   150  H    0.017959
   151  H    0.030107
   152  H    0.045985
   153  H    0.008510
   154  H    0.046890
   155  H    0.034990
   156  H    0.043866
   157  H    0.049514
   158  H    0.053585
 Sum of Mulliken charges =  -0.00000
 Mulliken charges with hydrogens summed into heavy atoms:
               1
     1  Mg   0.838861
     2  C   -0.002965
     3  C   -0.111700
     4  C   -0.062691
     5  C   -0.105503
     6  N   -0.256798
     7  C   -0.052472
     8  C   -0.013110
     9  C   -0.091036
    10  C    0.046345
    11  C    0.163341
    12  C    0.108866
    13  C    0.000126
    15  N   -0.433158
    16  C    0.168436
    17  C   -0.177123
    18  C   -0.003979
    19  C    0.148738
    20  C    0.182512
    21  C    0.012320
    22  O   -0.249602
    23  C    0.167072
    24  N   -0.341156
    25  C    0.041243
    26  C   -0.011569
    27  C   -0.014557
    28  C    0.074847
    29  C    0.116636
    30  C    0.046178
    31  C    0.051479
    32  N   -0.310468
    33  C    0.080422
    34  C   -0.169733
    35  C    0.008324
    36  C    0.082975
    37  C    0.229899
    38  C    0.046093
    39  O   -0.188524
    40  C    0.029763
    41  C    0.212858
    42  O   -0.257070
    43  O   -0.304807
    44  C    0.300688
    80  Mg   0.837886
    81  C   -0.016822
    82  C   -0.107401
    83  C   -0.061036
    84  C   -0.105360
    85  N   -0.254560
    86  C   -0.049849
    87  C   -0.015790
    88  C   -0.094786
    89  C    0.045756
    90  C    0.167522
    91  C    0.114165
    92  C   -0.002603
    94  N   -0.423508
    95  C    0.162954
    96  C   -0.174603
    97  C   -0.007759
    98  C    0.152153
    99  C    0.174220
   100  C    0.015620
   101  O   -0.253147
   102  C    0.169887
   103  N   -0.350087
   104  C    0.037541
   105  C   -0.005396
   106  C   -0.022419
   107  C    0.088911
   108  C    0.116103
   109  C    0.044629
   110  C    0.051368
   111  N   -0.324109
   112  C    0.078431
   113  C   -0.163154
   114  C    0.002215
   115  C    0.096199
   116  C    0.232878
   117  C    0.042362
   118  O   -0.187945
   119  C    0.035919
   120  C    0.211249
   121  O   -0.250986
   122  O   -0.305645
   123  C    0.298997
 Electronic spatial extent (au):  <R**2>=         621356.1155
 Charge=             -0.0000 electrons
 Dipole moment (field-independent basis, Debye):
    X=              0.4204    Y=              3.1480    Z=              0.0387  Tot=              3.1762
 Quadrupole moment (field-independent basis, Debye-Ang):
   XX=           -408.9737   YY=           -460.0855   ZZ=           -538.9457
   XY=              1.3877   XZ=            122.7441   YZ=              0.4905
 Traceless Quadrupole moment (field-independent basis, Debye-Ang):
   XX=             60.3612   YY=              9.2495   ZZ=            -69.6107
   XY=              1.3877   XZ=            122.7441   YZ=              0.4905
 Octapole moment (field-independent basis, Debye-Ang**2):
  XXX=            309.8849  YYY=            233.8074  ZZZ=              9.5755  XYY=            -23.1714
  XXY=            808.9693  XXZ=            -29.0178  XZZ=             37.2505  YZZ=            108.2086
  YYZ=              1.7812  XYZ=            958.9597
 Hexadecapole moment (field-independent basis, Debye-Ang**3):
 XXXX=        -741108.5405 YYYY=         -32880.3527 ZZZZ=         -32433.7674 XXXY=           1878.8768
 XXXZ=          30584.4352 YYYX=             83.1266 YYYZ=             19.8346 ZZZX=           6107.2203
 ZZZY=             31.8002 XXYY=        -123811.6280 XXZZ=        -144043.4872 YYZZ=         -11447.6201
 XXYZ=            246.1074 YYXZ=          -4006.8630 ZZXY=            -26.9238
 N-N= 1.229619442535D+04 E-N=-3.407332621530D+04  KE= 4.028802033180D+03
 Leave Link  601 at Sun Sep 12 12:23:26 2021, MaxMem= 23488102400 cpu:              18.2 elap:               0.9
 (Enter /sw/apps/gaussian-16.0/g16/l9999.exe)
 1\1\GINC-BP1-COMPUTE00092\SP\RCAM-B3LYP TD-FC\def2SVP\C68H72Mg2N8O8\OF
 15641\12-Sep-2021\0\\#p cam-b3lyp/Def2SVP td=(nstates=5)\\TDDFT excite
 d states in gaussian\\0,1\Mg,0,0.,0.,0.\C,0,-0.217,-2.218,2.801\C,0,-1
 .255,2.442,2.026\C,0,-0.245,1.85,-2.564\C,0,0.146,-2.824,-2.037\N,0,-0
 .617,-0.009,2.126\C,0,-0.594,-0.908,3.105\C,0,-0.936,-0.309,4.502\C,0,
 -1.773,0.964,4.032\C,0,-1.155,1.168,2.66\C,0,-3.263,0.685,3.863\C,0,0.
 345,0.11,5.299\C,0,0.124,0.397,6.787\H,0,1.168,0.033,7.733\N,0,-0.185,
 1.961,-0.152\C,0,-0.703,2.8,0.777\C,0,-0.62,4.156,0.193\C,0,-0.187,4.0
 15,-1.225\C,0,-0.214,2.583,-1.38\C,0,-0.887,5.406,0.974\C,0,0.181,5.01
 3,-2.277\O,0,0.303,4.69,-3.508\C,0,0.31,6.414,-1.837\N,0,-0.265,-0.413
 ,-2.029\C,0,-0.279,0.569,-2.937\C,0,-0.196,0.024,-4.332\C,0,0.124,-1.5
 33,-4.18\C,0,0.086,-1.632,-2.635\C,0,-1.451,0.205,-5.197\C,0,1.373,-2.
 07,-4.923\C,0,2.626,-1.49,-4.306\N,0,0.15,-2.144,0.303\C,0,0.173,-3.13
 6,-0.688\C,0,0.173,-4.438,0.004\C,0,0.133,-4.111,1.358\C,0,0.083,-2.69
 5,1.502\C,0,0.149,-5.715,-0.623\C,0,0.096,-4.629,2.716\O,0,0.208,-5.74
 7,3.221\C,0,-0.255,-3.428,3.701\C,0,0.717,-3.482,4.848\O,0,1.931,-3.25
 5,4.669\O,0,0.038,-3.556,6.003\C,0,0.943,-3.583,7.183\H,0,-1.859,3.22,
 2.497\H,0,-0.218,2.453,-3.474\H,0,0.276,-3.747,-2.605\H,0,-1.554,-0.94
 9,5.132\H,0,-1.585,1.831,4.665\H,0,-3.484,-0.377,3.969\H,0,-3.511,1.02
 7,2.858\H,0,-3.852,1.301,4.543\H,0,0.669,1.096,4.966\H,0,1.13,-0.639,5
 .189\H,0,-0.844,0.026,7.125\H,0,0.062,1.477,6.921\H,0,-1.344,5.186,1.9
 38\H,0,-1.651,5.963,0.432\H,0,0.007,6.02,1.084\H,0,-0.635,6.744,-1.405
 \H,0,0.665,6.97,-2.704\H,0,1.048,6.466,-1.036\H,0,0.608,0.501,-4.891\H
 ,0,-0.692,-2.156,-4.547\H,0,-1.267,0.74,-6.129\H,0,-2.204,0.714,-4.596
 \H,0,-1.967,-0.72,-5.453\H,0,1.356,-1.759,-5.967\H,0,1.452,-3.157,-4.9
 02\H,0,2.714,-0.522,-4.798\H,0,3.487,-2.121,-4.529\H,0,2.495,-1.303,-3
 .24\H,0,0.867,-6.333,-0.084\H,0,0.404,-5.642,-1.68\H,0,-0.891,-5.999,-
 0.463\H,0,-1.283,-3.581,4.028\H,0,0.698,-4.478,7.755\H,0,0.833,-2.619,
 7.68\H,0,2.,-3.754,6.976\Mg,0,31.52471,2.83588,2.40183\C,0,31.5456,5.5
 4855,4.75131\C,0,32.17044,0.75484,5.02612\C,0,31.95899,0.49204,0.30773
 \C,0,32.01983,5.19506,-0.11508\N,0,31.80006,3.22075,4.56246\C,0,31.724
 66,4.28366,5.34915\C,0,31.76775,3.96433,6.86762\C,0,32.52906,2.55224,6
 .79487\C,0,32.1172,2.12471,5.38765\C,0,34.04273,2.68204,6.83081\C,0,30
 .33428,3.8128,7.48747\C,0,30.29235,3.80768,9.01716\H,0,29.15325,4.4320
 3,9.68432\N,0,31.50895,0.86766,2.65564\C,0,31.77254,0.19181,3.79364\C,
 0,31.64893,-1.23389,3.45267\C,0,31.45271,-1.34916,1.98198\C,0,31.65789
 ,0.02791,1.57993\C,0,31.64102,-2.32052,4.48834\C,0,31.14552,-2.50933,1
 .0843\O,0,31.25366,-2.42192,-0.18987\C,0,30.80472,-3.77752,1.74539\N,0
 ,32.14075,2.81529,0.41628\C,0,32.19373,1.66578,-0.27924\C,0,32.39531,1
 .92847,-1.75258\C,0,32.22401,3.50804,-1.93473\C,0,32.03305,3.91397,-0.
 45684\C,0,33.74305,1.49333,-2.3276\C,0,31.17395,3.98682,-2.97436\C,0,2
 9.78189,3.63453,-2.50167\N,0,31.56217,4.99251,2.27701\C,0,31.81229,5.7
 7628,1.1293\C,0,31.847,7.18748,1.5649\C,0,31.63588,7.12462,2.95053\C,0
 ,31.50068,5.76854,3.35333\C,0,32.10002,8.31052,0.72771\C,0,31.50725,7.
 89642,4.16563\O,0,31.44887,9.09652,4.43038\C,0,31.56919,6.90258,5.4045
 1\C,0,30.44081,7.25078,6.33618\O,0,29.25857,7.09733,5.98211\O,0,30.940
 88,7.4994,7.56031\C,0,29.85883,7.83876,8.5225\H,0,32.59641,0.0467,5.73
 744\H,0,32.00949,-0.27072,-0.47274\H,0,32.07144,5.99706,-0.85454\H,0,3
 2.34037,4.66521,7.46314\H,0,32.14119,1.85587,7.53379\H,0,34.36,3.71301
 ,6.78009\H,0,34.40561,2.13185,5.97253\H,0,34.4443,2.16908,7.70942\H,0,
 29.96225,2.80003,7.28592\H,0,29.6742,4.56961,7.11042\H,0,31.2343,4.157
 91,9.4565\H,0,30.2057,2.77327,9.35847\H,0,31.96924,-1.94672,5.46607\H,
 0,32.41301,-3.04231,4.20039\H,0,30.68042,-2.83632,4.55033\H,0,31.62626
 ,-4.08094,2.38996\H,0,30.53069,-4.46226,0.94046\H,0,29.939,-3.61122,2.
 39616\H,0,31.64061,1.42282,-2.34236\H,0,33.1568,3.98273,-2.27299\H,0,3
 3.6489,0.78753,-3.1744\H,0,34.32871,1.05494,-1.5305\H,0,34.38456,2.305
 21,-2.666\H,0,31.31917,3.46869,-3.92547\H,0,31.22127,5.05154,-3.17715\
 H,0,29.6712,2.59218,-2.81526\H,0,29.04172,4.27175,-2.9814\H,0,29.72012
 ,3.6579,-1.40747\H,0,31.38648,9.07423,1.00719\H,0,32.01235,8.04951,-0.
 32489\H,0,33.13186,8.53583,1.01019\H,0,32.54404,7.02857,5.87714\H,0,30
 .11163,8.81046,8.9579\H,0,29.79379,6.97824,9.21462\H,0,28.87318,8.0380
 4,8.11847\\Version=ES64L-G16RevA.03\State=1-A\HF=-4069.8117765\RMSD=4.
 738e-09\PG=C01 [X(C68H72Mg2N8O8)]\\@


 ... SUBJECTS WHICH DISCLOSE THEIR FULL POWER, MEANING AND BEAUTY AS SOON
 AS THEY ARE PRESENTED TO THE MIND HAVE VERY LITTLE OF THOSE QUALITIES
 TO DISCLOSE.
                           -- CHARLES DUTTON (1882)
 Job cpu time:       0 days 10 hours 10 minutes 25.0 seconds.
 Elapsed time:       0 days  0 hours 26 minutes  0.8 seconds.
 File lengths (MBytes):  RWF=  13225 Int=      0 D2E=      0 Chk=    574 Scr=      1
 Normal termination of Gaussian 16 at Sun Sep 12 12:23:27 2021.
