 Entering Gaussian System, Link 0=g16
 Initial command:
 /sw/apps/gaussian-16.0/g16/l1.exe "/tmp/Gau-145679.inp" -scrdir="/tmp/"
 Entering Link 1 = /sw/apps/gaussian-16.0/g16/l1.exe PID=    145680.
  
 Copyright (c) 1988,1990,1992,1993,1995,1998,2003,2009,2016,
            Gaussian, Inc.  All Rights Reserved.
  
 This is part of the Gaussian(R) 16 program.  It is based on
 the Gaussian(R) 09 system (copyright 2009, Gaussian, Inc.),
 the Gaussian(R) 03 system (copyright 2003, Gaussian, Inc.),
 the Gaussian(R) 98 system (copyright 1998, Gaussian, Inc.),
 the Gaussian(R) 94 system (copyright 1995, Gaussian, Inc.),
 the Gaussian 92(TM) system (copyright 1992, Gaussian, Inc.),
 the Gaussian 90(TM) system (copyright 1990, Gaussian, Inc.),
 the Gaussian 88(TM) system (copyright 1988, Gaussian, Inc.),
 the Gaussian 86(TM) system (copyright 1986, Carnegie Mellon
 University), and the Gaussian 82(TM) system (copyright 1983,
 Carnegie Mellon University). Gaussian is a federally registered
 trademark of Gaussian, Inc.
  
 This software contains proprietary and confidential information,
 including trade secrets, belonging to Gaussian, Inc.
  
 This software is provided under written license and may be
 used, copied, transmitted, or stored only in accord with that
 written license.
  
 The following legend is applicable only to US Government
 contracts under FAR:
  
                    RESTRICTED RIGHTS LEGEND
  
 Use, reproduction and disclosure by the US Government is
 subject to restrictions as set forth in subparagraphs (a)
 and (c) of the Commercial Computer Software - Restricted
 Rights clause in FAR 52.227-19.
  
 Gaussian, Inc.
 340 Quinnipiac St., Bldg. 40, Wallingford CT 06492
  
  
 ---------------------------------------------------------------
 Warning -- This program may not be used in any manner that
 competes with the business of Gaussian, Inc. or will provide
 assistance to any competitor of Gaussian, Inc.  The licensee
 of this program is prohibited from giving any competitor of
 Gaussian, Inc. access to this program.  By using this program,
 the user acknowledges that Gaussian, Inc. is engaged in the
 business of creating and licensing software in the field of
 computational chemistry and represents and warrants to the
 licensee that it is not a competitor of Gaussian, Inc. and that
 it will not use this program in any manner prohibited above.
 ---------------------------------------------------------------
  

 Cite this work as:
 Gaussian 16, Revision A.03,
 M. J. Frisch, G. W. Trucks, H. B. Schlegel, G. E. Scuseria, 
 M. A. Robb, J. R. Cheeseman, G. Scalmani, V. Barone, 
 G. A. Petersson, H. Nakatsuji, X. Li, M. Caricato, A. V. Marenich, 
 J. Bloino, B. G. Janesko, R. Gomperts, B. Mennucci, H. P. Hratchian, 
 J. V. Ortiz, A. F. Izmaylov, J. L. Sonnenberg, D. Williams-Young, 
 F. Ding, F. Lipparini, F. Egidi, J. Goings, B. Peng, A. Petrone, 
 T. Henderson, D. Ranasinghe, V. G. Zakrzewski, J. Gao, N. Rega, 
 G. Zheng, W. Liang, M. Hada, M. Ehara, K. Toyota, R. Fukuda, 
 J. Hasegawa, M. Ishida, T. Nakajima, Y. Honda, O. Kitao, H. Nakai, 
 T. Vreven, K. Throssell, J. A. Montgomery, Jr., J. E. Peralta, 
 F. Ogliaro, M. J. Bearpark, J. J. Heyd, E. N. Brothers, K. N. Kudin, 
 V. N. Staroverov, T. A. Keith, R. Kobayashi, J. Normand, 
 K. Raghavachari, A. P. Rendell, J. C. Burant, S. S. Iyengar, 
 J. Tomasi, M. Cossi, J. M. Millam, M. Klene, C. Adamo, R. Cammi, 
 J. W. Ochterski, R. L. Martin, K. Morokuma, O. Farkas, 
 J. B. Foresman, and D. J. Fox, Gaussian, Inc., Wallingford CT, 2016.
 
 ******************************************
 Gaussian 16:  ES64L-G16RevA.03 25-Dec-2016
                11-Sep-2021 
 ******************************************
 %nproc=24
 Will use up to   24 processors via shared memory.
 %mem=175gb
 -----------------------------------
 #p cam-b3lyp/Def2SVP td=(nstates=5)
 -----------------------------------
 1/38=1,172=1/1;
 2/12=2,17=6,18=5,40=1/2;
 3/5=43,7=101,11=9,25=1,30=1,74=-40/1,2,3,8;
 4//1;
 5/5=2,38=5/2;
 8/6=1,10=1,108=5/1;
 9/41=5,42=1,70=2/14;
 6/7=2,8=2,9=2,10=2/1;
 99/5=1,9=1/99;
 Leave Link    1 at Sat Sep 11 07:06:30 2021, MaxMem= 23488102400 cpu:               0.9 elap:               0.0
 (Enter /sw/apps/gaussian-16.0/g16/l101.exe)
 --------------------------------
 TDDFT excited states in gaussian
 --------------------------------
 Symbolic Z-matrix:
 Charge =  0 Multiplicity = 1
 Mg                    0.        0.        0. 
 C                    -0.217    -2.218     2.801 
 C                    -1.255     2.442     2.026 
 C                    -0.245     1.85     -2.564 
 C                     0.146    -2.824    -2.037 
 N                    -0.617    -0.009     2.126 
 C                    -0.594    -0.908     3.105 
 C                    -0.936    -0.309     4.502 
 C                    -1.773     0.964     4.032 
 C                    -1.155     1.168     2.66 
 C                    -3.263     0.685     3.863 
 C                     0.345     0.11      5.299 
 C                     0.124     0.397     6.787 
 H                     1.168     0.033     7.733 
 N                    -0.185     1.961    -0.152 
 C                    -0.703     2.8       0.777 
 C                    -0.62      4.156     0.193 
 C                    -0.187     4.015    -1.225 
 C                    -0.214     2.583    -1.38 
 C                    -0.887     5.406     0.974 
 C                     0.181     5.013    -2.277 
 O                     0.303     4.69     -3.508 
 C                     0.31      6.414    -1.837 
 N                    -0.265    -0.413    -2.029 
 C                    -0.279     0.569    -2.937 
 C                    -0.196     0.024    -4.332 
 C                     0.124    -1.533    -4.18 
 C                     0.086    -1.632    -2.635 
 C                    -1.451     0.205    -5.197 
 C                     1.373    -2.07     -4.923 
 C                     2.626    -1.49     -4.306 
 N                     0.15     -2.144     0.303 
 C                     0.173    -3.136    -0.688 
 C                     0.173    -4.438     0.004 
 C                     0.133    -4.111     1.358 
 C                     0.083    -2.695     1.502 
 C                     0.149    -5.715    -0.623 
 C                     0.096    -4.629     2.716 
 O                     0.208    -5.747     3.221 
 C                    -0.255    -3.428     3.701 
 C                     0.717    -3.482     4.848 
 O                     1.931    -3.255     4.669 
 O                     0.038    -3.556     6.003 
 C                     0.943    -3.583     7.183 
 H                    -1.859     3.22      2.497 
 H                    -0.218     2.453    -3.474 
 H                     0.276    -3.747    -2.605 
 H                    -1.554    -0.949     5.132 
 H                    -1.585     1.831     4.665 
 H                    -3.484    -0.377     3.969 
 H                    -3.511     1.027     2.858 
 H                    -3.852     1.301     4.543 
 H                     0.669     1.096     4.966 
 H                     1.13     -0.639     5.189 
 H                    -0.844     0.026     7.125 
 H                     0.062     1.477     6.921 
 H                    -1.344     5.186     1.938 
 H                    -1.651     5.963     0.432 
 H                     0.007     6.02      1.084 
 H                    -0.635     6.744    -1.405 
 H                     0.665     6.97     -2.704 
 H                     1.048     6.466    -1.036 
 H                     0.608     0.501    -4.891 
 H                    -0.692    -2.156    -4.547 
 H                    -1.267     0.74     -6.129 
 H                    -2.204     0.714    -4.596 
 H                    -1.967    -0.72     -5.453 
 H                     1.356    -1.759    -5.967 
 H                     1.452    -3.157    -4.902 
 H                     2.714    -0.522    -4.798 
 H                     3.487    -2.121    -4.529 
 H                     2.495    -1.303    -3.24 
 H                     0.867    -6.333    -0.084 
 H                     0.404    -5.642    -1.68 
 H                    -0.891    -5.999    -0.463 
 H                    -1.283    -3.581     4.028 
 H                     0.698    -4.478     7.755 
 H                     0.833    -2.619     7.68 
 H                     2.       -3.754     6.976 
 Mg                    13.12983   1.18513   0.9925 
 C                     13.02139  -1.59148  -1.27856 
 C                     13.33129   3.21871  -1.73853 
 C                     13.67954   3.6107    2.96274 
 C                     14.06185  -1.06732   3.48319 
 N                     13.1625   0.7513   -1.17614 
 C                     13.05343  -0.33719  -1.92289 
 C                     12.89338  -0.06156  -3.44209 
 C                     13.57534   1.39133  -3.49604 
 C                     13.31347   1.83777  -2.0591 
 C                     15.07839   1.3429   -3.71475 
 C                     11.38893  -0.00672  -3.88438 
 C                     11.16135  -0.04965  -5.39703 
 H                     9.9875   -0.75462  -5.90456 
 N                     12.97012   3.14112   0.69724 
 C                     13.05424   3.79593  -0.4798 
 C                     12.8911   5.22237  -0.15919 
 C                     12.86859   5.37077   1.32142 
 C                     13.19999   4.01952   1.72684 
 C                     12.69497   6.27549  -1.2108 
 C                     12.60641   6.53889   2.22306 
 O                     12.87331   6.49563   3.47595 
 C                     12.11544   7.76635   1.57981 
 N                     13.98019   1.29854   2.88627 
 C                     14.05098   2.46953   3.54332 
 C                     14.44474   2.26237   4.98638 
 C                     14.38802   0.68198   5.22457 
 C                     14.04271   0.22225   3.79111 
 C                     15.82503   2.78707   5.3812 
 C                     13.50128   0.17821   6.39613 
 C                     12.04417   0.44009   6.09013 
 N                     13.30623  -0.96159   1.16146 
 C                     13.73855  -1.69592   2.28748 
 C                     13.80128  -3.11555   1.88357 
 C                     13.42021  -3.10574   0.53332 
 C                     13.15928  -1.77166   0.11903 
 C                     14.21829  -4.19764   2.70898 
 C                     13.18963  -3.9194   -0.63864 
 O                     13.1687  -5.12828  -0.86647 
 C                     13.04339  -2.96117  -1.89832 
 C                     11.83215  -3.39785  -2.67597 
 O                     10.6948  -3.2983   -2.1829 
 O                     12.19337  -3.65547  -3.94622 
 C                     11.02383  -4.08172  -4.76004 
 H                     13.62627   3.92734  -2.51295 
 H                     13.78044   4.39808   3.71329 
 H                     14.24893  -1.84285   4.22899 
 H                     13.42884  -0.74782  -4.08715 
 H                     13.06119   2.04319  -4.19754 
 H                     15.45828   0.33266  -3.67965 
 H                     15.51053   1.93742  -2.92049 
 H                     15.34012   1.85039  -4.64764 
 H                     10.98645   0.98993  -3.66204 
 H                     10.82417  -0.78663  -3.41171 
 H                     12.06157  -0.36121  -5.94062 
 H                     10.97451   0.96785  -5.74886 
 H                     12.923    5.89099  -2.21258 
 H                     13.45337   7.04644  -1.03664 
 H                     11.70586   6.73629  -1.16614 
 H                     12.8338   8.09451   0.83233 
 H                     11.90222   8.45898   2.39631 
 H                     11.18813   7.53388   1.04439 
 H                     13.73939   2.74371   5.65263 
 H                     15.38074   0.26899   5.45647 
 H                     15.79393   3.51173   6.21665 
 H                     16.28337   3.23256   4.50827 
 H                     16.54854   2.02171   5.65682 
 H                     13.73084   0.73169   7.30998 
 H                     13.63406  -0.87582   6.61607 
 H                     11.91257   1.4838    6.39083 
 H                     11.40564  -0.22175   6.67176 
 H                     11.85145   0.38067   5.01264 
 H                     13.52125  -5.007     2.53701 
 H                     14.2442  -3.91041   3.75808 
 H                     15.21945  -4.37494   2.30709 
 H                     13.95925  -3.04812  -2.48415 
 H                     11.2774  -5.05085  -5.20069 
 H                     10.82582  -3.2471   -5.45857 
 H                     10.10765  -4.32205  -4.23343 
 
 ITRead=  0  0  0  0  0  0  0  0  0  0  0  0  0  0  0  0  0  0  0  0
 ITRead=  0  0  0  0  0  0  0  0  0  0  0  0  0  0  0  0  0  0  0  0
 ITRead=  0  0  0  0  0  0  0  0  0  0  0  0  0  0  0  0  0  0  0  0
 ITRead=  0  0  0  0  0  0  0  0  0  0  0  0  0  0  0  0  0  0  0  0
 ITRead=  0  0  0  0  0  0  0  0  0  0  0  0  0  0  0  0  0  0  0  0
 ITRead=  0  0  0  0  0  0  0  0  0  0  0  0  0  0  0  0  0  0  0  0
 ITRead=  0  0  0  0  0  0  0  0  0  0  0  0  0  0  0  0  0  0  0  0
 ITRead=  0  0  0  0  0  0  0  0  0  0  0  0  0  0  0  0  0  0
 MicOpt= -1 -1 -1 -1 -1 -1 -1 -1 -1 -1 -1 -1 -1 -1 -1 -1 -1 -1 -1 -1
 MicOpt= -1 -1 -1 -1 -1 -1 -1 -1 -1 -1 -1 -1 -1 -1 -1 -1 -1 -1 -1 -1
 MicOpt= -1 -1 -1 -1 -1 -1 -1 -1 -1 -1 -1 -1 -1 -1 -1 -1 -1 -1 -1 -1
 MicOpt= -1 -1 -1 -1 -1 -1 -1 -1 -1 -1 -1 -1 -1 -1 -1 -1 -1 -1 -1 -1
 MicOpt= -1 -1 -1 -1 -1 -1 -1 -1 -1 -1 -1 -1 -1 -1 -1 -1 -1 -1 -1 -1
 MicOpt= -1 -1 -1 -1 -1 -1 -1 -1 -1 -1 -1 -1 -1 -1 -1 -1 -1 -1 -1 -1
 MicOpt= -1 -1 -1 -1 -1 -1 -1 -1 -1 -1 -1 -1 -1 -1 -1 -1 -1 -1 -1 -1
 MicOpt= -1 -1 -1 -1 -1 -1 -1 -1 -1 -1 -1 -1 -1 -1 -1 -1 -1 -1
 NAtoms=    158 NQM=      158 NQMF=       0 NMMI=      0 NMMIF=      0
                NMic=       0 NMicF=      0.
                    Isotopes and Nuclear Properties:
 (Nuclear quadrupole moments (NQMom) in fm**2, nuclear magnetic moments (NMagM)
  in nuclear magnetons)

  Atom         1           2           3           4           5           6           7           8           9          10
 IAtWgt=          24          12          12          12          12          14          12          12          12          12
 AtmWgt=  23.9850450  12.0000000  12.0000000  12.0000000  12.0000000  14.0030740  12.0000000  12.0000000  12.0000000  12.0000000
 NucSpn=           0           0           0           0           0           2           0           0           0           0
 AtZEff=  -0.0000000  -0.0000000  -0.0000000  -0.0000000  -0.0000000  -0.0000000  -0.0000000  -0.0000000  -0.0000000  -0.0000000
 NQMom=    0.0000000   0.0000000   0.0000000   0.0000000   0.0000000   2.0440000   0.0000000   0.0000000   0.0000000   0.0000000
 NMagM=    0.0000000   0.0000000   0.0000000   0.0000000   0.0000000   0.4037610   0.0000000   0.0000000   0.0000000   0.0000000
 AtZNuc=  12.0000000   6.0000000   6.0000000   6.0000000   6.0000000   7.0000000   6.0000000   6.0000000   6.0000000   6.0000000

  Atom        11          12          13          14          15          16          17          18          19          20
 IAtWgt=          12          12          12           1          14          12          12          12          12          12
 AtmWgt=  12.0000000  12.0000000  12.0000000   1.0078250  14.0030740  12.0000000  12.0000000  12.0000000  12.0000000  12.0000000
 NucSpn=           0           0           0           1           2           0           0           0           0           0
 AtZEff=  -0.0000000  -0.0000000  -0.0000000  -0.0000000  -0.0000000  -0.0000000  -0.0000000  -0.0000000  -0.0000000  -0.0000000
 NQMom=    0.0000000   0.0000000   0.0000000   0.0000000   2.0440000   0.0000000   0.0000000   0.0000000   0.0000000   0.0000000
 NMagM=    0.0000000   0.0000000   0.0000000   2.7928460   0.4037610   0.0000000   0.0000000   0.0000000   0.0000000   0.0000000
 AtZNuc=   6.0000000   6.0000000   6.0000000   1.0000000   7.0000000   6.0000000   6.0000000   6.0000000   6.0000000   6.0000000

  Atom        21          22          23          24          25          26          27          28          29          30
 IAtWgt=          12          16          12          14          12          12          12          12          12          12
 AtmWgt=  12.0000000  15.9949146  12.0000000  14.0030740  12.0000000  12.0000000  12.0000000  12.0000000  12.0000000  12.0000000
 NucSpn=           0           0           0           2           0           0           0           0           0           0
 AtZEff=  -0.0000000  -0.0000000  -0.0000000  -0.0000000  -0.0000000  -0.0000000  -0.0000000  -0.0000000  -0.0000000  -0.0000000
 NQMom=    0.0000000   0.0000000   0.0000000   2.0440000   0.0000000   0.0000000   0.0000000   0.0000000   0.0000000   0.0000000
 NMagM=    0.0000000   0.0000000   0.0000000   0.4037610   0.0000000   0.0000000   0.0000000   0.0000000   0.0000000   0.0000000
 AtZNuc=   6.0000000   8.0000000   6.0000000   7.0000000   6.0000000   6.0000000   6.0000000   6.0000000   6.0000000   6.0000000

  Atom        31          32          33          34          35          36          37          38          39          40
 IAtWgt=          12          14          12          12          12          12          12          12          16          12
 AtmWgt=  12.0000000  14.0030740  12.0000000  12.0000000  12.0000000  12.0000000  12.0000000  12.0000000  15.9949146  12.0000000
 NucSpn=           0           2           0           0           0           0           0           0           0           0
 AtZEff=  -0.0000000  -0.0000000  -0.0000000  -0.0000000  -0.0000000  -0.0000000  -0.0000000  -0.0000000  -0.0000000  -0.0000000
 NQMom=    0.0000000   2.0440000   0.0000000   0.0000000   0.0000000   0.0000000   0.0000000   0.0000000   0.0000000   0.0000000
 NMagM=    0.0000000   0.4037610   0.0000000   0.0000000   0.0000000   0.0000000   0.0000000   0.0000000   0.0000000   0.0000000
 AtZNuc=   6.0000000   7.0000000   6.0000000   6.0000000   6.0000000   6.0000000   6.0000000   6.0000000   8.0000000   6.0000000

  Atom        41          42          43          44          45          46          47          48          49          50
 IAtWgt=          12          16          16          12           1           1           1           1           1           1
 AtmWgt=  12.0000000  15.9949146  15.9949146  12.0000000   1.0078250   1.0078250   1.0078250   1.0078250   1.0078250   1.0078250
 NucSpn=           0           0           0           0           1           1           1           1           1           1
 AtZEff=  -0.0000000  -0.0000000  -0.0000000  -0.0000000  -0.0000000  -0.0000000  -0.0000000  -0.0000000  -0.0000000  -0.0000000
 NQMom=    0.0000000   0.0000000   0.0000000   0.0000000   0.0000000   0.0000000   0.0000000   0.0000000   0.0000000   0.0000000
 NMagM=    0.0000000   0.0000000   0.0000000   0.0000000   2.7928460   2.7928460   2.7928460   2.7928460   2.7928460   2.7928460
 AtZNuc=   6.0000000   8.0000000   8.0000000   6.0000000   1.0000000   1.0000000   1.0000000   1.0000000   1.0000000   1.0000000

  Atom        51          52          53          54          55          56          57          58          59          60
 IAtWgt=           1           1           1           1           1           1           1           1           1           1
 AtmWgt=   1.0078250   1.0078250   1.0078250   1.0078250   1.0078250   1.0078250   1.0078250   1.0078250   1.0078250   1.0078250
 NucSpn=           1           1           1           1           1           1           1           1           1           1
 AtZEff=  -0.0000000  -0.0000000  -0.0000000  -0.0000000  -0.0000000  -0.0000000  -0.0000000  -0.0000000  -0.0000000  -0.0000000
 NQMom=    0.0000000   0.0000000   0.0000000   0.0000000   0.0000000   0.0000000   0.0000000   0.0000000   0.0000000   0.0000000
 NMagM=    2.7928460   2.7928460   2.7928460   2.7928460   2.7928460   2.7928460   2.7928460   2.7928460   2.7928460   2.7928460
 AtZNuc=   1.0000000   1.0000000   1.0000000   1.0000000   1.0000000   1.0000000   1.0000000   1.0000000   1.0000000   1.0000000

  Atom        61          62          63          64          65          66          67          68          69          70
 IAtWgt=           1           1           1           1           1           1           1           1           1           1
 AtmWgt=   1.0078250   1.0078250   1.0078250   1.0078250   1.0078250   1.0078250   1.0078250   1.0078250   1.0078250   1.0078250
 NucSpn=           1           1           1           1           1           1           1           1           1           1
 AtZEff=  -0.0000000  -0.0000000  -0.0000000  -0.0000000  -0.0000000  -0.0000000  -0.0000000  -0.0000000  -0.0000000  -0.0000000
 NQMom=    0.0000000   0.0000000   0.0000000   0.0000000   0.0000000   0.0000000   0.0000000   0.0000000   0.0000000   0.0000000
 NMagM=    2.7928460   2.7928460   2.7928460   2.7928460   2.7928460   2.7928460   2.7928460   2.7928460   2.7928460   2.7928460
 AtZNuc=   1.0000000   1.0000000   1.0000000   1.0000000   1.0000000   1.0000000   1.0000000   1.0000000   1.0000000   1.0000000

  Atom        71          72          73          74          75          76          77          78          79          80
 IAtWgt=           1           1           1           1           1           1           1           1           1          24
 AtmWgt=   1.0078250   1.0078250   1.0078250   1.0078250   1.0078250   1.0078250   1.0078250   1.0078250   1.0078250  23.9850450
 NucSpn=           1           1           1           1           1           1           1           1           1           0
 AtZEff=  -0.0000000  -0.0000000  -0.0000000  -0.0000000  -0.0000000  -0.0000000  -0.0000000  -0.0000000  -0.0000000  -0.0000000
 NQMom=    0.0000000   0.0000000   0.0000000   0.0000000   0.0000000   0.0000000   0.0000000   0.0000000   0.0000000   0.0000000
 NMagM=    2.7928460   2.7928460   2.7928460   2.7928460   2.7928460   2.7928460   2.7928460   2.7928460   2.7928460   0.0000000
 AtZNuc=   1.0000000   1.0000000   1.0000000   1.0000000   1.0000000   1.0000000   1.0000000   1.0000000   1.0000000  12.0000000

  Atom        81          82          83          84          85          86          87          88          89          90
 IAtWgt=          12          12          12          12          14          12          12          12          12          12
 AtmWgt=  12.0000000  12.0000000  12.0000000  12.0000000  14.0030740  12.0000000  12.0000000  12.0000000  12.0000000  12.0000000
 NucSpn=           0           0           0           0           2           0           0           0           0           0
 AtZEff=  -0.0000000  -0.0000000  -0.0000000  -0.0000000  -0.0000000  -0.0000000  -0.0000000  -0.0000000  -0.0000000  -0.0000000
 NQMom=    0.0000000   0.0000000   0.0000000   0.0000000   2.0440000   0.0000000   0.0000000   0.0000000   0.0000000   0.0000000
 NMagM=    0.0000000   0.0000000   0.0000000   0.0000000   0.4037610   0.0000000   0.0000000   0.0000000   0.0000000   0.0000000
 AtZNuc=   6.0000000   6.0000000   6.0000000   6.0000000   7.0000000   6.0000000   6.0000000   6.0000000   6.0000000   6.0000000

  Atom        91          92          93          94          95          96          97          98          99         100
 IAtWgt=          12          12           1          14          12          12          12          12          12          12
 AtmWgt=  12.0000000  12.0000000   1.0078250  14.0030740  12.0000000  12.0000000  12.0000000  12.0000000  12.0000000  12.0000000
 NucSpn=           0           0           1           2           0           0           0           0           0           0
 AtZEff=  -0.0000000  -0.0000000  -0.0000000  -0.0000000  -0.0000000  -0.0000000  -0.0000000  -0.0000000  -0.0000000  -0.0000000
 NQMom=    0.0000000   0.0000000   0.0000000   2.0440000   0.0000000   0.0000000   0.0000000   0.0000000   0.0000000   0.0000000
 NMagM=    0.0000000   0.0000000   2.7928460   0.4037610   0.0000000   0.0000000   0.0000000   0.0000000   0.0000000   0.0000000
 AtZNuc=   6.0000000   6.0000000   1.0000000   7.0000000   6.0000000   6.0000000   6.0000000   6.0000000   6.0000000   6.0000000

  Atom       101         102         103         104         105         106         107         108         109         110
 IAtWgt=          16          12          14          12          12          12          12          12          12          12
 AtmWgt=  15.9949146  12.0000000  14.0030740  12.0000000  12.0000000  12.0000000  12.0000000  12.0000000  12.0000000  12.0000000
 NucSpn=           0           0           2           0           0           0           0           0           0           0
 AtZEff=  -0.0000000  -0.0000000  -0.0000000  -0.0000000  -0.0000000  -0.0000000  -0.0000000  -0.0000000  -0.0000000  -0.0000000
 NQMom=    0.0000000   0.0000000   2.0440000   0.0000000   0.0000000   0.0000000   0.0000000   0.0000000   0.0000000   0.0000000
 NMagM=    0.0000000   0.0000000   0.4037610   0.0000000   0.0000000   0.0000000   0.0000000   0.0000000   0.0000000   0.0000000
 AtZNuc=   8.0000000   6.0000000   7.0000000   6.0000000   6.0000000   6.0000000   6.0000000   6.0000000   6.0000000   6.0000000

  Atom       111         112         113         114         115         116         117         118         119         120
 IAtWgt=          14          12          12          12          12          12          12          16          12          12
 AtmWgt=  14.0030740  12.0000000  12.0000000  12.0000000  12.0000000  12.0000000  12.0000000  15.9949146  12.0000000  12.0000000
 NucSpn=           2           0           0           0           0           0           0           0           0           0
 AtZEff=  -0.0000000  -0.0000000  -0.0000000  -0.0000000  -0.0000000  -0.0000000  -0.0000000  -0.0000000  -0.0000000  -0.0000000
 NQMom=    2.0440000   0.0000000   0.0000000   0.0000000   0.0000000   0.0000000   0.0000000   0.0000000   0.0000000   0.0000000
 NMagM=    0.4037610   0.0000000   0.0000000   0.0000000   0.0000000   0.0000000   0.0000000   0.0000000   0.0000000   0.0000000
 AtZNuc=   7.0000000   6.0000000   6.0000000   6.0000000   6.0000000   6.0000000   6.0000000   8.0000000   6.0000000   6.0000000

  Atom       121         122         123         124         125         126         127         128         129         130
 IAtWgt=          16          16          12           1           1           1           1           1           1           1
 AtmWgt=  15.9949146  15.9949146  12.0000000   1.0078250   1.0078250   1.0078250   1.0078250   1.0078250   1.0078250   1.0078250
 NucSpn=           0           0           0           1           1           1           1           1           1           1
 AtZEff=  -0.0000000  -0.0000000  -0.0000000  -0.0000000  -0.0000000  -0.0000000  -0.0000000  -0.0000000  -0.0000000  -0.0000000
 NQMom=    0.0000000   0.0000000   0.0000000   0.0000000   0.0000000   0.0000000   0.0000000   0.0000000   0.0000000   0.0000000
 NMagM=    0.0000000   0.0000000   0.0000000   2.7928460   2.7928460   2.7928460   2.7928460   2.7928460   2.7928460   2.7928460
 AtZNuc=   8.0000000   8.0000000   6.0000000   1.0000000   1.0000000   1.0000000   1.0000000   1.0000000   1.0000000   1.0000000

  Atom       131         132         133         134         135         136         137         138         139         140
 IAtWgt=           1           1           1           1           1           1           1           1           1           1
 AtmWgt=   1.0078250   1.0078250   1.0078250   1.0078250   1.0078250   1.0078250   1.0078250   1.0078250   1.0078250   1.0078250
 NucSpn=           1           1           1           1           1           1           1           1           1           1
 AtZEff=  -0.0000000  -0.0000000  -0.0000000  -0.0000000  -0.0000000  -0.0000000  -0.0000000  -0.0000000  -0.0000000  -0.0000000
 NQMom=    0.0000000   0.0000000   0.0000000   0.0000000   0.0000000   0.0000000   0.0000000   0.0000000   0.0000000   0.0000000
 NMagM=    2.7928460   2.7928460   2.7928460   2.7928460   2.7928460   2.7928460   2.7928460   2.7928460   2.7928460   2.7928460
 AtZNuc=   1.0000000   1.0000000   1.0000000   1.0000000   1.0000000   1.0000000   1.0000000   1.0000000   1.0000000   1.0000000

  Atom       141         142         143         144         145         146         147         148         149         150
 IAtWgt=           1           1           1           1           1           1           1           1           1           1
 AtmWgt=   1.0078250   1.0078250   1.0078250   1.0078250   1.0078250   1.0078250   1.0078250   1.0078250   1.0078250   1.0078250
 NucSpn=           1           1           1           1           1           1           1           1           1           1
 AtZEff=  -0.0000000  -0.0000000  -0.0000000  -0.0000000  -0.0000000  -0.0000000  -0.0000000  -0.0000000  -0.0000000  -0.0000000
 NQMom=    0.0000000   0.0000000   0.0000000   0.0000000   0.0000000   0.0000000   0.0000000   0.0000000   0.0000000   0.0000000
 NMagM=    2.7928460   2.7928460   2.7928460   2.7928460   2.7928460   2.7928460   2.7928460   2.7928460   2.7928460   2.7928460
 AtZNuc=   1.0000000   1.0000000   1.0000000   1.0000000   1.0000000   1.0000000   1.0000000   1.0000000   1.0000000   1.0000000

  Atom       151         152         153         154         155         156         157         158
 IAtWgt=           1           1           1           1           1           1           1           1
 AtmWgt=   1.0078250   1.0078250   1.0078250   1.0078250   1.0078250   1.0078250   1.0078250   1.0078250
 NucSpn=           1           1           1           1           1           1           1           1
 AtZEff=  -0.0000000  -0.0000000  -0.0000000  -0.0000000  -0.0000000  -0.0000000  -0.0000000  -0.0000000
 NQMom=    0.0000000   0.0000000   0.0000000   0.0000000   0.0000000   0.0000000   0.0000000   0.0000000
 NMagM=    2.7928460   2.7928460   2.7928460   2.7928460   2.7928460   2.7928460   2.7928460   2.7928460
 AtZNuc=   1.0000000   1.0000000   1.0000000   1.0000000   1.0000000   1.0000000   1.0000000   1.0000000
 Leave Link  101 at Sat Sep 11 07:06:30 2021, MaxMem= 23488102400 cpu:               3.2 elap:               0.2
 (Enter /sw/apps/gaussian-16.0/g16/l202.exe)
 Stoichiometry    C68H72Mg2N8O8
 Framework group  C1[X(C68H72Mg2N8O8)]
 Deg. of freedom   468
 Full point group                 C1      NOp   1
 Largest Abelian subgroup         C1      NOp   1
 Largest concise Abelian subgroup C1      NOp   1
                         Standard orientation:                         
 ---------------------------------------------------------------------
 Center     Atomic      Atomic             Coordinates (Angstroms)
 Number     Number       Type             X           Y           Z
 ---------------------------------------------------------------------
      1         12           0        6.489761   -0.592640    0.460085
      2          6           0        6.932407    2.236428   -1.687624
      3          6           0        7.526689    1.389061    3.037042
      4          6           0        6.543050   -3.183653    2.287770
      5          6           0        6.592457   -2.589578   -2.394272
      6          7           0        7.120250    1.527948    0.539050
      7          6           0        7.188065    2.519291   -0.344020
      8          6           0        7.482922    3.905017    0.304206
      9          6           0        8.194429    3.410564    1.642590
     10          6           0        7.550242    2.041224    1.768515
     11          6           0        9.702666    3.232693    1.500869
     12          6           0        6.174279    4.707113    0.613765
     13          6           0        6.378350    6.189118    0.941438
     14          1           0        5.379603    7.148865    0.495635
     15          7           0        6.490393   -0.772969    2.427401
     16          6           0        6.934772    0.140041    3.324187
     17          6           0        6.721749   -0.461688    4.658063
     18          6           0        6.293523   -1.873889    4.457048
     19          6           0        6.452529   -2.009549    3.031673
     20          6           0        6.876914    0.299869    5.938572
     21          6           0        5.826677   -2.936240    5.401291
     22          8           0        5.726378   -4.161631    5.050675
     23          6           0        5.571058   -2.514324    6.790423
     24          7           0        6.777387   -2.617997    0.044354
     25          6           0        6.693401   -3.539406    1.010241
     26          6           0        6.651405   -4.926077    0.439875
     27          6           0        6.478771   -4.750112   -1.137778
     28          6           0        6.536968   -3.204285   -1.210581
     29          6           0        7.877843   -5.804134    0.724263
     30          6           0        5.279825   -5.475038   -1.799163
     31          6           0        3.982780   -4.855355   -1.329305
     32          7           0        6.542093   -0.259130   -1.683995
     33          6           0        6.604342   -1.236263   -2.687992
     34          6           0        6.730482   -0.526577   -3.974267
     35          6           0        6.749655    0.822442   -3.625521
     36          6           0        6.668723    0.946666   -2.209078
     37          6           0        6.868672   -1.136267   -5.252397
     38          6           0        6.844493    2.187023   -4.118250
     39          8           0        6.840652    2.708175   -5.234440
     40          6           0        7.089322    3.152507   -2.875783
     41          6           0        6.134868    4.308381   -3.003376
     42          8           0        4.903753    4.136654   -2.892781
     43          8           0        6.826126    5.458454   -2.997330
     44          6           0        5.936105    6.646384   -3.091341
     45          1           0        8.059063    1.844230    3.874503
     46          1           0        6.453493   -4.101537    2.872497
     47          1           0        6.544806   -3.143795   -3.333434
     48          1           0        8.162321    4.538405   -0.266460
     49          1           0        7.931147    4.033248    2.497382
     50          1           0       10.022281    3.351294    0.465639
     51          1           0        9.910508    2.221040    1.849944
     52          1           0       10.236687    3.899174    2.178660
     53          1           0        5.757546    4.363457    1.560494
     54          1           0        5.461602    4.614044   -0.206452
     55          1           0        7.379085    6.523888    0.666906
     56          1           0        6.340557    6.307828    2.024341
     57          1           0        7.359347    1.262852    5.775886
     58          1           0        7.581841   -0.256177    6.556309
     59          1           0        5.930479    0.409093    6.468349
     60          1           0        6.484347   -2.094941    7.212999
     61          1           0        5.159616   -3.385776    7.298494
     62          1           0        4.837222   -1.707847    6.785129
     63          1           0        5.802496   -5.484663    0.831999
     64          1           0        7.346528   -5.115515   -1.687461
     65          1           0        7.638139   -6.741749    1.226384
     66          1           0        8.584534   -5.216580    1.309633
     67          1           0        8.475810   -6.051871   -0.152366
     68          1           0        5.260278   -6.523294   -1.502980
     69          1           0        5.302462   -5.438527   -2.888385
     70          1           0        3.801544   -5.359757   -0.380851
     71          1           0        3.182640   -5.062372   -2.040734
     72          1           0        4.103503   -3.793163   -1.115624
     73          1           0        6.215198   -0.582779   -5.926632
     74          1           0        6.600363   -2.191953   -5.218625
     75          1           0        7.931713   -0.981276   -5.436184
     76          1           0        8.129432    3.472790   -2.927863
     77          1           0        6.267441    7.228440   -3.951377
     78          1           0        5.959516    7.129221   -2.114241
     79          1           0        4.898135    6.450756   -3.362794
     80         12           0       -6.685874    0.495476    0.434016
     81          6           0       -6.335947   -1.738308   -2.352882
     82          6           0       -7.095383   -2.261246    2.400573
     83          6           0       -7.444653    2.437032    2.826092
     84          6           0       -7.386268    3.024539   -1.859239
     85          7           0       -6.693688   -1.666682   -0.032125
     86          6           0       -6.489205   -2.399405   -1.116398
     87          6           0       -6.366465   -3.923535   -0.848970
     88          6           0       -7.181023   -3.991500    0.533327
     89          6           0       -6.951464   -2.563073    1.022797
     90          6           0       -8.674586   -4.196708    0.342279
     91          6           0       -4.876876   -4.379341   -0.660919
     92          6           0       -4.657212   -5.893149   -0.704269
     93          1           0       -3.426554   -6.400995   -1.304324
     94          7           0       -6.710989    0.172189    2.391932
     95          6           0       -6.864165   -1.012921    3.019090
     96          6           0       -6.832147   -0.713217    4.458982
     97          6           0       -6.812857    0.764983    4.630116
     98          6           0       -7.014156    1.191623    3.259888
     99          6           0       -6.742452   -1.780740    5.510534
    100          6           0       -6.654002    1.648324    5.830396
    101          8           0       -6.906669    2.903918    5.780547
    102          6           0       -6.284028    0.984215    7.088791
    103          7           0       -7.529406    2.394701    0.495138
    104          6           0       -7.704101    3.036283    1.663812
    105          6           0       -8.066451    4.485341    1.441735
    106          6           0       -7.861210    4.744592   -0.122953
    107          6           0       -7.484978    3.314650   -0.569176
    108          6           0       -9.486688    4.884712    1.841512
    109          6           0       -6.923011    5.915319   -0.525227
    110          6           0       -5.498835    5.593362   -0.133493
    111          7           0       -6.660541    0.695225   -1.717154
    112          6           0       -7.014520    1.834810   -2.472208
    113          6           0       -6.947801    1.450868   -3.897187
    114          6           0       -6.579053    0.097410   -3.871430
    115          6           0       -6.446383   -0.337263   -2.524973
    116          6           0       -7.256350    2.294498   -5.001363
    117          6           0       -6.282231   -1.065255   -4.676915
    118          8           0       -6.150555   -1.276730   -5.881770
    119          6           0       -6.234880   -2.339101   -3.727462
    120          6           0       -4.993908   -3.121013   -4.060827
    121          8           0       -3.867226   -2.639061   -3.848925
    122          8           0       -5.338750   -4.384502   -4.369149
    123          6           0       -4.140527   -5.202367   -4.696526
    124          1           0       -7.460601   -3.042725    3.067507
    125          1           0       -7.612958    3.177596    3.611403
    126          1           0       -7.494988    3.782425   -2.637990
    127          1           0       -6.840390   -4.554578   -1.591231
    128          1           0       -6.734833   -4.706191    1.219989
    129          1           0       -8.958566   -4.144582   -0.698284
    130          1           0       -9.154425   -3.406984    0.905429
    131          1           0       -8.989127   -5.134174    0.809776
    132          1           0       -4.567282   -4.174067    0.371917
    133          1           0       -4.238601   -3.900899   -1.378087
    134          1           0       -5.528438   -6.424741   -1.105930
    135          1           0       -4.568402   -6.260417    0.321024
    136          1           0       -6.940941   -2.775197    5.092135
    137          1           0       -7.568019   -1.610663    6.210091
    138          1           0       -5.800212   -1.750808    6.061858
    139          1           0       -7.035182    0.238475    7.337982
    140          1           0       -6.130291    1.789335    7.809913
    141          1           0       -5.342999    0.444133    6.935828
    142          1           0       -7.404157    5.138920    1.996078
    143          1           0       -8.809497    4.990563   -0.623036
    144          1           0       -9.517121    5.709896    2.577869
    145          1           0       -9.990780    4.009721    2.229874
    146          1           0      -10.133838    5.176913    1.016269
    147          1           0       -7.196472    6.823451    0.017612
    148          1           0       -6.955550    6.150752   -1.583762
    149          1           0       -5.462752    5.878653    0.922147
    150          1           0       -4.797313    6.178510   -0.724691
    151          1           0       -5.309205    4.515180   -0.190240
    152          1           0       -6.488285    2.127658   -5.744830
    153          1           0       -7.301300    3.339762   -4.702721
    154          1           0       -8.239544    1.903615   -5.276701
    155          1           0       -7.142881   -2.915860   -3.907570
    156          1           0       -4.305998   -5.627568   -5.691265
    157          1           0       -4.026081   -5.913889   -3.857251
    158          1           0       -3.202183   -4.680354   -4.843069
 ---------------------------------------------------------------------
 Rotational constants (GHZ):           0.0204924           0.0077587           0.0077167
 Leave Link  202 at Sat Sep 11 07:06:30 2021, MaxMem= 23488102400 cpu:               0.2 elap:               0.0
 (Enter /sw/apps/gaussian-16.0/g16/l301.exe)
 Standard basis: def2SVP (5D, 7F)
 Ernie: Thresh=  0.10000D-02 Tol=  0.10000D-05 Strict=F.
 There are  1658 symmetry adapted cartesian basis functions of A   symmetry.
 There are  1572 symmetry adapted basis functions of A   symmetry.
  1572 basis functions,  2678 primitive gaussians,  1658 cartesian basis functions
   312 alpha electrons      312 beta electrons
       nuclear repulsion energy     14242.6620444715 Hartrees.
 IExCor=20419 DFT=T Ex+Corr=CAM-B3LYP ExCW=0 ScaHFX=  1.000000
 ScaDFX=  1.000000  1.000000  1.000000  0.810000 ScalE2=  1.000000  1.000000
 IRadAn=      5 IRanWt=     -1 IRanGd=            0 ICorTp=0 IEmpDi=  4
 HFx  wShort=  0.000000 wLong=  0.330000 cFull=  0.190000 cShort=  0.000000 cLong=  0.460000
 DFx  wShort=  0.000000 wLong=  0.330000 cFull=  0.190000 cShort=  0.000000 cLong=  0.460000
 NAtoms=  158 NActive=  158 NUniq=  158 SFac= 1.00D+00 NAtFMM=   60 NAOKFM=T Big=T
 Integral buffers will be    131072 words long.
 Raffenetti 1 integral format.
 Two-electron integral symmetry is turned on.
 Leave Link  301 at Sat Sep 11 07:06:30 2021, MaxMem= 23488102400 cpu:               1.3 elap:               0.1
 (Enter /sw/apps/gaussian-16.0/g16/l302.exe)
 NPDir=0 NMtPBC=     1 NCelOv=     1 NCel=       1 NClECP=     1 NCelD=      1
         NCelK=      1 NCelE2=     1 NClLst=     1 CellRange=     0.0.
 One-electron integrals computed using PRISM.
 One-electron integral symmetry used in STVInt
   1 Symmetry operations used in ECPInt.
 ECPInt:  NShTT=  271216 NPrTT=  987664 LenC2=  115563 LenP2D=  254300.
 LDataN:  DoStor=T MaxTD1= 4 Len=   56
 NBasis=  1572 RedAO= T EigKep=  3.36D-04  NBF=  1572
 NBsUse=  1572 1.00D-06 EigRej= -1.00D+00 NBFU=  1572
 Precomputing XC quadrature grid using
 IXCGrd= 4 IRadAn=           5 IRanWt=          -1 IRanGd=           0 AccXCQ= 0.00D+00.
 Generated NRdTot=       0 NPtTot=           0 NUsed=           0 NTot=          32
 NSgBfM=   991   987   987   987   991 MxSgAt=   158 MxSgA2=   153.
 Leave Link  302 at Sat Sep 11 07:06:35 2021, MaxMem= 23488102400 cpu:             112.5 elap:               4.7
 (Enter /sw/apps/gaussian-16.0/g16/l303.exe)
 DipDrv:  MaxL=1.
 Leave Link  303 at Sat Sep 11 07:06:35 2021, MaxMem= 23488102400 cpu:               9.0 elap:               0.4
 (Enter /sw/apps/gaussian-16.0/g16/l308.exe)
 Leave Link  308 at Sat Sep 11 07:06:36 2021, MaxMem= 23488102400 cpu:              13.6 elap:               0.6
 (Enter /sw/apps/gaussian-16.0/g16/l401.exe)
 ExpMin= 3.36D-02 ExpMax= 4.95D+03 ExpMxC= 7.45D+02 IAcc=3 IRadAn=         5 AccDes= 0.00D+00
 Harris functional with IExCor=20419 and IRadAn=       5 diagonalized for initial guess.
 HarFok:  IExCor=20419 AccDes= 0.00D+00 IRadAn=         5 IDoV= 1 UseB2=F ITyADJ=14
 ICtDFT=  3500011 ScaDFX=  1.000000  1.000000  1.000000  1.000000
 FoFCou: FMM=F IPFlag=           0 FMFlag=      100000 FMFlg1=        2001
         NFxFlg=           0 DoJE=T BraDBF=F KetDBF=T FulRan=T
         wScrn=  0.000000 ICntrl=       500 IOpCl=  0 I1Cent=   200000004 NGrid=           0
         NMat0=    1 NMatS0=      1 NMatT0=    0 NMatD0=    1 NMtDS0=    0 NMtDT0=    0
 Petite list used in FoFCou.
 Harris En= -3918.65800761793    
 JPrj=0 DoOrth=F DoCkMO=F.
 Leave Link  401 at Sat Sep 11 07:06:43 2021, MaxMem= 23488102400 cpu:             161.4 elap:               6.8
 (Enter /sw/apps/gaussian-16.0/g16/l502.exe)
 Integral symmetry usage will be decided dynamically.
 Closed shell SCF:
 Using DIIS extrapolation, IDIIS=  1040.
 NGot= 23488102400 LenX= 23482547354 LenY= 23479796732
 Requested convergence on RMS density matrix=1.00D-08 within 128 cycles.
 Requested convergence on MAX density matrix=1.00D-06.
 Requested convergence on             energy=1.00D-06.
 No special actions if energy rises.
 Fock matrices will be formed incrementally for  20 cycles.

 Cycle   1  Pass 1  IDiag  1:
 FoFJK:  IHMeth= 1 ICntrl=       0 DoSepK=T KAlg= 0 I1Cent=           0 FoldK=F
 IRaf=         1 NMat=       1 IRICut=       1 DoRegI=T DoRafI=F ISym2E= 0 IDoP0=0 IntGTp=1.
 FoFCou: FMM=T IPFlag=           0 FMFlag=      100000 FMFlg1=        2001
         NFxFlg=           0 DoJE=T BraDBF=F KetDBF=F FulRan=T
         wScrn=  0.000000 ICntrl=       500 IOpCl=  0 I1Cent=           0 NGrid=           0
         NMat0=    1 NMatS0=      1 NMatT0=    0 NMatD0=    1 NMtDS0=    0 NMtDT0=    0
 Symmetry not used in FoFCou.
 FMM levels:  10  Number of levels for PrismC:   9
 E= -4068.94855828686    
 DIIS: error= 2.04D-02 at cycle   1 NSaved=   1.
 NSaved= 1 IEnMin= 1 EnMin= -4068.94855828686     IErMin= 1 ErrMin= 2.04D-02
 ErrMax= 2.04D-02  0.00D+00 EMaxC= 1.00D-01 BMatC= 1.69D+00 BMatP= 1.69D+00
 IDIUse=3 WtCom= 7.96D-01 WtEn= 2.04D-01
 Coeff-Com:  0.100D+01
 Coeff-En:   0.100D+01
 Coeff:      0.100D+01
 Gap=     0.120 Goal=   None    Shift=    0.000
 GapD=    0.120 DampG=1.000 DampE=0.500 DampFc=0.5000 IDamp=-1.
 Damping current iteration by 5.00D-01
 RMSDP=1.57D-03 MaxDP=1.35D-01              OVMax= 2.08D-01

 Cycle   2  Pass 1  IDiag  1:
 RMSU=  7.70D-04    CP:  9.82D-01
 E= -4069.33732134121     Delta-E=       -0.388763054347 Rises=F Damp=T
 DIIS: error= 1.27D-02 at cycle   2 NSaved=   2.
 NSaved= 2 IEnMin= 2 EnMin= -4069.33732134121     IErMin= 2 ErrMin= 1.27D-02
 ErrMax= 1.27D-02  0.00D+00 EMaxC= 1.00D-01 BMatC= 3.07D-01 BMatP= 1.69D+00
 IDIUse=3 WtCom= 8.73D-01 WtEn= 1.27D-01
 Coeff-Com: -0.212D+00 0.121D+01
 Coeff-En:   0.000D+00 0.100D+01
 Coeff:     -0.185D+00 0.119D+01
 Gap=     0.138 Goal=   None    Shift=    0.000
 RMSDP=7.66D-04 MaxDP=9.48D-02 DE=-3.89D-01 OVMax= 1.87D-01

 Cycle   3  Pass 1  IDiag  1:
 RMSU=  7.34D-04    CP:  9.68D-01  1.24D+00
 E= -4069.62596460526     Delta-E=       -0.288643264052 Rises=F Damp=F
 DIIS: error= 1.58D-02 at cycle   3 NSaved=   3.
 NSaved= 3 IEnMin= 3 EnMin= -4069.62596460526     IErMin= 2 ErrMin= 1.27D-02
 ErrMax= 1.58D-02  0.00D+00 EMaxC= 1.00D-01 BMatC= 2.03D-01 BMatP= 3.07D-01
 IDIUse=3 WtCom= 8.42D-01 WtEn= 1.58D-01
 Coeff-Com: -0.267D+00 0.653D+00 0.615D+00
 Coeff-En:   0.000D+00 0.000D+00 0.100D+01
 Coeff:     -0.225D+00 0.549D+00 0.676D+00
 Gap=     0.125 Goal=   None    Shift=    0.000
 RMSDP=5.12D-04 MaxDP=4.89D-02 DE=-2.89D-01 OVMax= 1.49D-01

 Cycle   4  Pass 1  IDiag  1:
 RMSU=  2.67D-04    CP:  9.65D-01  1.55D+00  5.02D-01
 E= -4069.76360084231     Delta-E=       -0.137636237043 Rises=F Damp=F
 DIIS: error= 7.37D-03 at cycle   4 NSaved=   4.
 NSaved= 4 IEnMin= 4 EnMin= -4069.76360084231     IErMin= 4 ErrMin= 7.37D-03
 ErrMax= 7.37D-03  0.00D+00 EMaxC= 1.00D-01 BMatC= 5.14D-02 BMatP= 2.03D-01
 IDIUse=3 WtCom= 9.26D-01 WtEn= 7.37D-02
 Coeff-Com: -0.109D+00 0.227D+00 0.410D+00 0.473D+00
 Coeff-En:   0.000D+00 0.000D+00 0.224D+00 0.776D+00
 Coeff:     -0.101D+00 0.210D+00 0.396D+00 0.495D+00
 Gap=     0.123 Goal=   None    Shift=    0.000
 RMSDP=2.04D-04 MaxDP=2.10D-02 DE=-1.38D-01 OVMax= 6.64D-02

 Cycle   5  Pass 1  IDiag  1:
 RMSU=  7.77D-05    CP:  9.64D-01  1.49D+00  6.88D-01  5.45D-01
 E= -4069.81014701215     Delta-E=       -0.046546169840 Rises=F Damp=F
 DIIS: error= 7.85D-04 at cycle   5 NSaved=   5.
 NSaved= 5 IEnMin= 5 EnMin= -4069.81014701215     IErMin= 5 ErrMin= 7.85D-04
 ErrMax= 7.85D-04  0.00D+00 EMaxC= 1.00D-01 BMatC= 1.25D-03 BMatP= 5.14D-02
 IDIUse=3 WtCom= 9.92D-01 WtEn= 7.85D-03
 Coeff-Com: -0.367D-01 0.722D-01 0.169D+00 0.253D+00 0.543D+00
 Coeff-En:   0.000D+00 0.000D+00 0.000D+00 0.000D+00 0.100D+01
 Coeff:     -0.364D-01 0.716D-01 0.168D+00 0.251D+00 0.546D+00
 Gap=     0.122 Goal=   None    Shift=    0.000
 RMSDP=4.28D-05 MaxDP=4.29D-03 DE=-4.65D-02 OVMax= 1.86D-02

 Cycle   6  Pass 1  IDiag  1:
 RMSU=  3.13D-05    CP:  9.64D-01  1.49D+00  6.80D-01  6.19D-01  7.42D-01
 E= -4069.81124630417     Delta-E=       -0.001099292025 Rises=F Damp=F
 DIIS: error= 2.02D-04 at cycle   6 NSaved=   6.
 NSaved= 6 IEnMin= 6 EnMin= -4069.81124630417     IErMin= 6 ErrMin= 2.02D-04
 ErrMax= 2.02D-04  0.00D+00 EMaxC= 1.00D-01 BMatC= 1.87D-04 BMatP= 1.25D-03
 IDIUse=3 WtCom= 9.98D-01 WtEn= 2.02D-03
 Coeff-Com:  0.210D-02-0.639D-02 0.121D-01 0.415D-01 0.305D+00 0.646D+00
 Coeff-En:   0.000D+00 0.000D+00 0.000D+00 0.000D+00 0.108D+00 0.892D+00
 Coeff:      0.210D-02-0.638D-02 0.121D-01 0.414D-01 0.304D+00 0.646D+00
 Gap=     0.123 Goal=   None    Shift=    0.000
 RMSDP=1.66D-05 MaxDP=1.21D-03 DE=-1.10D-03 OVMax= 7.76D-03

 Cycle   7  Pass 1  IDiag  1:
 RMSU=  1.11D-05    CP:  9.64D-01  1.50D+00  6.86D-01  6.18D-01  8.48D-01
                    CP:  7.44D-01
 E= -4069.81144980705     Delta-E=       -0.000203502877 Rises=F Damp=F
 DIIS: error= 9.23D-05 at cycle   7 NSaved=   7.
 NSaved= 7 IEnMin= 7 EnMin= -4069.81144980705     IErMin= 7 ErrMin= 9.23D-05
 ErrMax= 9.23D-05  0.00D+00 EMaxC= 1.00D-01 BMatC= 2.35D-05 BMatP= 1.87D-04
 IDIUse=1 WtCom= 1.00D+00 WtEn= 0.00D+00
 Coeff-Com:  0.452D-02-0.992D-02-0.885D-02-0.322D-02 0.105D+00 0.336D+00
 Coeff-Com:  0.576D+00
 Coeff:      0.452D-02-0.992D-02-0.885D-02-0.322D-02 0.105D+00 0.336D+00
 Coeff:      0.576D+00
 Gap=     0.123 Goal=   None    Shift=    0.000
 RMSDP=6.75D-06 MaxDP=1.13D-03 DE=-2.04D-04 OVMax= 3.56D-03

 Cycle   8  Pass 1  IDiag  1:
 RMSU=  4.80D-06    CP:  9.64D-01  1.50D+00  6.86D-01  6.23D-01  8.50D-01
                    CP:  8.70D-01  8.11D-01
 E= -4069.81147884634     Delta-E=       -0.000029039293 Rises=F Damp=F
 DIIS: error= 5.11D-05 at cycle   8 NSaved=   8.
 NSaved= 8 IEnMin= 8 EnMin= -4069.81147884634     IErMin= 8 ErrMin= 5.11D-05
 ErrMax= 5.11D-05  0.00D+00 EMaxC= 1.00D-01 BMatC= 4.99D-06 BMatP= 2.35D-05
 IDIUse=1 WtCom= 1.00D+00 WtEn= 0.00D+00
 Coeff-Com:  0.220D-02-0.437D-02-0.784D-02-0.121D-01-0.990D-02 0.344D-01
 Coeff-Com:  0.332D+00 0.666D+00
 Coeff:      0.220D-02-0.437D-02-0.784D-02-0.121D-01-0.990D-02 0.344D-01
 Coeff:      0.332D+00 0.666D+00
 Gap=     0.123 Goal=   None    Shift=    0.000
 RMSDP=3.35D-06 MaxDP=3.58D-04 DE=-2.90D-05 OVMax= 1.10D-03

 Cycle   9  Pass 1  IDiag  1:
 RMSU=  1.96D-06    CP:  9.64D-01  1.50D+00  6.87D-01  6.25D-01  8.67D-01
                    CP:  8.97D-01  1.00D+00  9.56D-01
 E= -4069.81148690441     Delta-E=       -0.000008058072 Rises=F Damp=F
 DIIS: error= 1.98D-05 at cycle   9 NSaved=   9.
 NSaved= 9 IEnMin= 9 EnMin= -4069.81148690441     IErMin= 9 ErrMin= 1.98D-05
 ErrMax= 1.98D-05  0.00D+00 EMaxC= 1.00D-01 BMatC= 7.43D-07 BMatP= 4.99D-06
 IDIUse=1 WtCom= 1.00D+00 WtEn= 0.00D+00
 Coeff-Com:  0.471D-03-0.780D-03-0.271D-02-0.608D-02-0.208D-01-0.402D-01
 Coeff-Com:  0.981D-01 0.332D+00 0.640D+00
 Coeff:      0.471D-03-0.780D-03-0.271D-02-0.608D-02-0.208D-01-0.402D-01
 Coeff:      0.981D-01 0.332D+00 0.640D+00
 Gap=     0.123 Goal=   None    Shift=    0.000
 RMSDP=1.47D-06 MaxDP=1.52D-04 DE=-8.06D-06 OVMax= 7.65D-04

 Cycle  10  Pass 1  IDiag  1:
 RMSU=  9.61D-07    CP:  9.64D-01  1.50D+00  6.87D-01  6.25D-01  8.70D-01
                    CP:  9.10D-01  1.05D+00  1.12D+00  1.06D+00
 E= -4069.81148861666     Delta-E=       -0.000001712247 Rises=F Damp=F
 DIIS: error= 9.95D-06 at cycle  10 NSaved=  10.
 NSaved=10 IEnMin=10 EnMin= -4069.81148861666     IErMin=10 ErrMin= 9.95D-06
 ErrMax= 9.95D-06  0.00D+00 EMaxC= 1.00D-01 BMatC= 1.77D-07 BMatP= 7.43D-07
 IDIUse=1 WtCom= 1.00D+00 WtEn= 0.00D+00
 Coeff-Com: -0.433D-03 0.909D-03 0.125D-02 0.111D-02-0.362D-02-0.314D-01
 Coeff-Com: -0.455D-01-0.753D-01 0.242D+00 0.911D+00
 Coeff:     -0.433D-03 0.909D-03 0.125D-02 0.111D-02-0.362D-02-0.314D-01
 Coeff:     -0.455D-01-0.753D-01 0.242D+00 0.911D+00
 Gap=     0.123 Goal=   None    Shift=    0.000
 RMSDP=1.27D-06 MaxDP=1.22D-04 DE=-1.71D-06 OVMax= 6.33D-04

 Cycle  11  Pass 1  IDiag  1:
 RMSU=  5.35D-07    CP:  9.64D-01  1.50D+00  6.87D-01  6.25D-01  8.73D-01
                    CP:  9.21D-01  1.10D+00  1.24D+00  1.40D+00  1.39D+00
 E= -4069.81148946005     Delta-E=       -0.000000843389 Rises=F Damp=F
 DIIS: error= 4.61D-06 at cycle  11 NSaved=  11.
 NSaved=11 IEnMin=11 EnMin= -4069.81148946005     IErMin=11 ErrMin= 4.61D-06
 ErrMax= 4.61D-06  0.00D+00 EMaxC= 1.00D-01 BMatC= 6.67D-08 BMatP= 1.77D-07
 IDIUse=1 WtCom= 1.00D+00 WtEn= 0.00D+00
 Coeff-Com: -0.335D-03 0.652D-03 0.136D-02 0.216D-02 0.453D-02-0.832D-02
 Coeff-Com: -0.422D-01-0.133D+00-0.356D-01 0.475D+00 0.736D+00
 Coeff:     -0.335D-03 0.652D-03 0.136D-02 0.216D-02 0.453D-02-0.832D-02
 Coeff:     -0.422D-01-0.133D+00-0.356D-01 0.475D+00 0.736D+00
 Gap=     0.123 Goal=   None    Shift=    0.000
 RMSDP=7.19D-07 MaxDP=6.51D-05 DE=-8.43D-07 OVMax= 3.93D-04

 Cycle  12  Pass 1  IDiag  1:
 RMSU=  2.71D-07    CP:  9.64D-01  1.50D+00  6.87D-01  6.26D-01  8.74D-01
                    CP:  9.23D-01  1.12D+00  1.30D+00  1.57D+00  1.78D+00
                    CP:  1.20D+00
 E= -4069.81148974729     Delta-E=       -0.000000287240 Rises=F Damp=F
 DIIS: error= 2.51D-06 at cycle  12 NSaved=  12.
 NSaved=12 IEnMin=12 EnMin= -4069.81148974729     IErMin=12 ErrMin= 2.51D-06
 ErrMax= 2.51D-06  0.00D+00 EMaxC= 1.00D-01 BMatC= 1.60D-08 BMatP= 6.67D-08
 IDIUse=1 WtCom= 1.00D+00 WtEn= 0.00D+00
 Coeff-Com: -0.148D-06-0.170D-04 0.187D-03 0.521D-03 0.341D-02 0.416D-02
 Coeff-Com:  0.305D-02-0.344D-01-0.711D-01-0.736D-01 0.246D+00 0.922D+00
 Coeff:     -0.148D-06-0.170D-04 0.187D-03 0.521D-03 0.341D-02 0.416D-02
 Coeff:      0.305D-02-0.344D-01-0.711D-01-0.736D-01 0.246D+00 0.922D+00
 Gap=     0.123 Goal=   None    Shift=    0.000
 RMSDP=4.57D-07 MaxDP=3.36D-05 DE=-2.87D-07 OVMax= 2.59D-04

 Cycle  13  Pass 1  IDiag  1:
 RMSU=  1.70D-07    CP:  9.64D-01  1.50D+00  6.87D-01  6.26D-01  8.74D-01
                    CP:  9.23D-01  1.13D+00  1.33D+00  1.69D+00  2.02D+00
                    CP:  1.62D+00  1.28D+00
 E= -4069.81148984680     Delta-E=       -0.000000099513 Rises=F Damp=F
 DIIS: error= 1.53D-06 at cycle  13 NSaved=  13.
 NSaved=13 IEnMin=13 EnMin= -4069.81148984680     IErMin=13 ErrMin= 1.53D-06
 ErrMax= 1.53D-06  0.00D+00 EMaxC= 1.00D-01 BMatC= 8.79D-09 BMatP= 1.60D-08
 IDIUse=1 WtCom= 1.00D+00 WtEn= 0.00D+00
 Coeff-Com:  0.122D-03-0.250D-03-0.377D-03-0.466D-03 0.615D-03 0.504D-02
 Coeff-Com:  0.193D-01 0.237D-01-0.315D-01-0.243D+00-0.163D+00 0.601D+00
 Coeff-Com:  0.788D+00
 Coeff:      0.122D-03-0.250D-03-0.377D-03-0.466D-03 0.615D-03 0.504D-02
 Coeff:      0.193D-01 0.237D-01-0.315D-01-0.243D+00-0.163D+00 0.601D+00
 Coeff:      0.788D+00
 Gap=     0.123 Goal=   None    Shift=    0.000
 RMSDP=3.55D-07 MaxDP=2.37D-05 DE=-9.95D-08 OVMax= 2.09D-04

 Cycle  14  Pass 1  IDiag  1:
 RMSU=  7.87D-08    CP:  9.64D-01  1.50D+00  6.87D-01  6.26D-01  8.74D-01
                    CP:  9.24D-01  1.14D+00  1.36D+00  1.76D+00  2.22D+00
                    CP:  1.88D+00  1.80D+00  1.09D+00
 E= -4069.81148988552     Delta-E=       -0.000000038715 Rises=F Damp=F
 DIIS: error= 6.97D-07 at cycle  14 NSaved=  14.
 NSaved=14 IEnMin=14 EnMin= -4069.81148988552     IErMin=14 ErrMin= 6.97D-07
 ErrMax= 6.97D-07  0.00D+00 EMaxC= 1.00D-01 BMatC= 1.35D-09 BMatP= 8.79D-09
 IDIUse=1 WtCom= 1.00D+00 WtEn= 0.00D+00
 Coeff-Com:  0.676D-04-0.133D-03-0.251D-03-0.394D-03-0.462D-03 0.124D-02
 Coeff-Com:  0.105D-01 0.195D-01 0.515D-02-0.101D+00-0.144D+00 0.957D-01
 Coeff-Com:  0.405D+00 0.709D+00
 Coeff:      0.676D-04-0.133D-03-0.251D-03-0.394D-03-0.462D-03 0.124D-02
 Coeff:      0.105D-01 0.195D-01 0.515D-02-0.101D+00-0.144D+00 0.957D-01
 Coeff:      0.405D+00 0.709D+00
 Gap=     0.123 Goal=   None    Shift=    0.000
 RMSDP=1.04D-07 MaxDP=7.29D-06 DE=-3.87D-08 OVMax= 5.63D-05

 Cycle  15  Pass 1  IDiag  1:
 RMSU=  3.91D-08    CP:  9.64D-01  1.50D+00  6.87D-01  6.26D-01  8.74D-01
                    CP:  9.24D-01  1.14D+00  1.36D+00  1.78D+00  2.26D+00
                    CP:  1.99D+00  1.93D+00  1.32D+00  1.02D+00
 E= -4069.81148988991     Delta-E=       -0.000000004395 Rises=F Damp=F
 DIIS: error= 3.45D-07 at cycle  15 NSaved=  15.
 NSaved=15 IEnMin=15 EnMin= -4069.81148988991     IErMin=15 ErrMin= 3.45D-07
 ErrMax= 3.45D-07  0.00D+00 EMaxC= 1.00D-01 BMatC= 2.41D-10 BMatP= 1.35D-09
 IDIUse=1 WtCom= 1.00D+00 WtEn= 0.00D+00
 Coeff-Com:  0.558D-05-0.932D-05-0.339D-04-0.844D-04-0.295D-03-0.542D-03
 Coeff-Com:  0.112D-02 0.259D-02 0.887D-02 0.174D-02-0.311D-01-0.717D-01
 Coeff-Com:  0.311D-01 0.299D+00 0.759D+00
 Coeff:      0.558D-05-0.932D-05-0.339D-04-0.844D-04-0.295D-03-0.542D-03
 Coeff:      0.112D-02 0.259D-02 0.887D-02 0.174D-02-0.311D-01-0.717D-01
 Coeff:      0.311D-01 0.299D+00 0.759D+00
 Gap=     0.123 Goal=   None    Shift=    0.000
 RMSDP=4.07D-08 MaxDP=2.96D-06 DE=-4.39D-09 OVMax= 2.85D-05

 Cycle  16  Pass 1  IDiag  1:
 RMSU=  1.93D-08    CP:  9.64D-01  1.50D+00  6.87D-01  6.26D-01  8.74D-01
                    CP:  9.24D-01  1.14D+00  1.36D+00  1.78D+00  2.27D+00
                    CP:  2.01D+00  1.99D+00  1.39D+00  1.23D+00  1.13D+00
 E= -4069.81148989057     Delta-E=       -0.000000000655 Rises=F Damp=F
 DIIS: error= 1.93D-07 at cycle  16 NSaved=  16.
 NSaved=16 IEnMin=16 EnMin= -4069.81148989057     IErMin=16 ErrMin= 1.93D-07
 ErrMax= 1.93D-07  0.00D+00 EMaxC= 1.00D-01 BMatC= 8.84D-11 BMatP= 2.41D-10
 IDIUse=1 WtCom= 1.00D+00 WtEn= 0.00D+00
 Coeff-Com: -0.141D-04 0.286D-04 0.462D-04 0.517D-04-0.312D-04-0.637D-03
 Coeff-Com: -0.186D-02-0.421D-02 0.415D-02 0.254D-01 0.199D-01-0.642D-01
 Coeff-Com: -0.805D-01-0.320D-01 0.402D+00 0.732D+00
 Coeff:     -0.141D-04 0.286D-04 0.462D-04 0.517D-04-0.312D-04-0.637D-03
 Coeff:     -0.186D-02-0.421D-02 0.415D-02 0.254D-01 0.199D-01-0.642D-01
 Coeff:     -0.805D-01-0.320D-01 0.402D+00 0.732D+00
 Gap=     0.123 Goal=   None    Shift=    0.000
 RMSDP=2.32D-08 MaxDP=1.51D-06 DE=-6.55D-10 OVMax= 1.21D-05

 Cycle  17  Pass 1  IDiag  1:
 RMSU=  1.08D-08    CP:  9.64D-01  1.50D+00  6.87D-01  6.26D-01  8.74D-01
                    CP:  9.24D-01  1.14D+00  1.36D+00  1.79D+00  2.28D+00
                    CP:  2.02D+00  2.02D+00  1.44D+00  1.33D+00  1.42D+00
                    CP:  1.21D+00
 E= -4069.81148989091     Delta-E=       -0.000000000342 Rises=F Damp=F
 DIIS: error= 9.63D-08 at cycle  17 NSaved=  17.
 NSaved=17 IEnMin=17 EnMin= -4069.81148989091     IErMin=17 ErrMin= 9.63D-08
 ErrMax= 9.63D-08  0.00D+00 EMaxC= 1.00D-01 BMatC= 1.92D-11 BMatP= 8.84D-11
 IDIUse=1 WtCom= 1.00D+00 WtEn= 0.00D+00
 Coeff-Com: -0.748D-05 0.146D-04 0.294D-04 0.431D-04 0.810D-04-0.137D-03
 Coeff-Com: -0.933D-03-0.286D-02 0.399D-04 0.994D-02 0.175D-01-0.889D-02
 Coeff-Com: -0.379D-01-0.996D-01-0.184D-01 0.301D+00 0.840D+00
 Coeff:     -0.748D-05 0.146D-04 0.294D-04 0.431D-04 0.810D-04-0.137D-03
 Coeff:     -0.933D-03-0.286D-02 0.399D-04 0.994D-02 0.175D-01-0.889D-02
 Coeff:     -0.379D-01-0.996D-01-0.184D-01 0.301D+00 0.840D+00
 Gap=     0.123 Goal=   None    Shift=    0.000
 RMSDP=1.37D-08 MaxDP=1.07D-06 DE=-3.42D-10 OVMax= 9.50D-06

 Cycle  18  Pass 1  IDiag  1:
 RMSU=  5.35D-09    CP:  9.64D-01  1.50D+00  6.87D-01  6.26D-01  8.74D-01
                    CP:  9.24D-01  1.14D+00  1.36D+00  1.79D+00  2.28D+00
                    CP:  2.03D+00  2.02D+00  1.46D+00  1.39D+00  1.59D+00
                    CP:  1.61D+00  1.34D+00
 E= -4069.81148989087     Delta-E=        0.000000000036 Rises=F Damp=F
 DIIS: error= 6.72D-08 at cycle  18 NSaved=  18.
 NSaved=18 IEnMin=17 EnMin= -4069.81148989091     IErMin=18 ErrMin= 6.72D-08
 ErrMax= 6.72D-08  0.00D+00 EMaxC= 1.00D-01 BMatC= 8.18D-12 BMatP= 1.92D-11
 IDIUse=1 WtCom= 1.00D+00 WtEn= 0.00D+00
 Coeff-Com:  0.110D-05-0.255D-05-0.106D-05 0.326D-05 0.641D-04 0.158D-03
 Coeff-Com:  0.265D-03-0.833D-04-0.121D-02-0.470D-02 0.161D-02 0.176D-01
 Coeff-Com:  0.126D-01-0.416D-01-0.152D+00-0.146D+00 0.410D+00 0.903D+00
 Coeff:      0.110D-05-0.255D-05-0.106D-05 0.326D-05 0.641D-04 0.158D-03
 Coeff:      0.265D-03-0.833D-04-0.121D-02-0.470D-02 0.161D-02 0.176D-01
 Coeff:      0.126D-01-0.416D-01-0.152D+00-0.146D+00 0.410D+00 0.903D+00
 Gap=     0.123 Goal=   None    Shift=    0.000
 RMSDP=1.11D-08 MaxDP=7.48D-07 DE= 3.64D-11 OVMax= 5.85D-06

 Cycle  19  Pass 1  IDiag  1:
 RMSU=  3.18D-09    CP:  9.64D-01  1.50D+00  6.87D-01  6.26D-01  8.74D-01
                    CP:  9.24D-01  1.14D+00  1.36D+00  1.79D+00  2.28D+00
                    CP:  2.03D+00  2.03D+00  1.47D+00  1.44D+00  1.72D+00
                    CP:  1.89D+00  1.86D+00  1.21D+00
 E= -4069.81148989105     Delta-E=       -0.000000000178 Rises=F Damp=F
 DIIS: error= 2.77D-08 at cycle  19 NSaved=  19.
 NSaved=19 IEnMin=19 EnMin= -4069.81148989105     IErMin=19 ErrMin= 2.77D-08
 ErrMax= 2.77D-08  0.00D+00 EMaxC= 1.00D-01 BMatC= 2.29D-12 BMatP= 8.18D-12
 IDIUse=1 WtCom= 1.00D+00 WtEn= 0.00D+00
 Coeff-Com:  0.312D-05-0.632D-05-0.103D-04-0.124D-04 0.181D-04 0.138D-03
 Coeff-Com:  0.499D-03 0.833D-03-0.662D-03-0.649D-02-0.480D-02 0.140D-01
 Coeff-Com:  0.217D-01 0.729D-02-0.864D-01-0.198D+00-0.308D-02 0.545D+00
 Coeff-Com:  0.710D+00
 Coeff:      0.312D-05-0.632D-05-0.103D-04-0.124D-04 0.181D-04 0.138D-03
 Coeff:      0.499D-03 0.833D-03-0.662D-03-0.649D-02-0.480D-02 0.140D-01
 Coeff:      0.217D-01 0.729D-02-0.864D-01-0.198D+00-0.308D-02 0.545D+00
 Coeff:      0.710D+00
 Gap=     0.123 Goal=   None    Shift=    0.000
 RMSDP=5.47D-09 MaxDP=3.81D-07 DE=-1.78D-10 OVMax= 3.81D-06

 SCF Done:  E(RCAM-B3LYP) =  -4069.81148989     A.U. after   19 cycles
            NFock= 19  Conv=0.55D-08     -V/T= 2.0102
 KE= 4.028802040539D+03 PE=-3.796682396460D+04 EE= 1.562554838969D+04
 Leave Link  502 at Sat Sep 11 07:15:41 2021, MaxMem= 23488102400 cpu:           12327.4 elap:             538.4
 (Enter /sw/apps/gaussian-16.0/g16/l801.exe)
 DoSCS=F DFT=T ScalE2(SS,OS)=  1.000000  1.000000
 ExpMin= 3.36D-02 ExpMax= 4.95D+03 ExpMxC= 7.45D+02 IAcc=3 IRadAn=         5 AccDes= 0.00D+00
 HarFok:  IExCor=  205 AccDes= 0.00D+00 IRadAn=         5 IDoV=-2 UseB2=F ITyADJ=14
 ICtDFT= 12500011 ScaDFX=  1.000000  1.000000  1.000000  1.000000
 GSVD:  LWork=       -9588 too small for GESVD, short by       45590 words or       45590 for optimal perf.
 Largest valence mixing into a core orbital is  2.03D-04
 Largest core mixing into a valence orbital is  5.24D-05
 Range of M.O.s used for correlation:    95  1572
 NBasis=  1572 NAE=   312 NBE=   312 NFC=    94 NFV=     0
 NROrb=   1478 NOA=   218 NOB=   218 NVA=  1260 NVB=  1260
 Leave Link  801 at Sat Sep 11 07:15:42 2021, MaxMem= 23488102400 cpu:               8.3 elap:               0.4
 (Enter /sw/apps/gaussian-16.0/g16/l914.exe)
 RHF ground state
 Two-electron integrals replicated using symmetry.
 MDV= 23488102400 DFT=T DoStab=F Mixed=T DoRPA=T DoScal=F NonHer=T
 Making orbital integer symmetry assigments:
 Orbital symmetries:
       Occupied  (A) (A) (A) (A) (A) (A) (A) (A) (A) (A) (A) (A)
                 (A) (A) (A) (A) (A) (A) (A) (A) (A) (A) (A) (A)
                 (A) (A) (A) (A) (A) (A) (A) (A) (A) (A) (A) (A)
                 (A) (A) (A) (A) (A) (A) (A) (A) (A) (A) (A) (A)
                 (A) (A) (A) (A) (A) (A) (A) (A) (A) (A) (A) (A)
                 (A) (A) (A) (A) (A) (A) (A) (A) (A) (A) (A) (A)
                 (A) (A) (A) (A) (A) (A) (A) (A) (A) (A) (A) (A)
                 (A) (A) (A) (A) (A) (A) (A) (A) (A) (A) (A) (A)
                 (A) (A) (A) (A) (A) (A) (A) (A) (A) (A) (A) (A)
                 (A) (A) (A) (A) (A) (A) (A) (A) (A) (A) (A) (A)
                 (A) (A) (A) (A) (A) (A) (A) (A) (A) (A) (A) (A)
                 (A) (A) (A) (A) (A) (A) (A) (A) (A) (A) (A) (A)
                 (A) (A) (A) (A) (A) (A) (A) (A) (A) (A) (A) (A)
                 (A) (A) (A) (A) (A) (A) (A) (A) (A) (A) (A) (A)
                 (A) (A) (A) (A) (A) (A) (A) (A) (A) (A) (A) (A)
                 (A) (A) (A) (A) (A) (A) (A) (A) (A) (A) (A) (A)
                 (A) (A) (A) (A) (A) (A) (A) (A) (A) (A) (A) (A)
                 (A) (A) (A) (A) (A) (A) (A) (A) (A) (A) (A) (A)
                 (A) (A) (A) (A) (A) (A) (A) (A) (A) (A) (A) (A)
                 (A) (A) (A) (A) (A) (A) (A) (A) (A) (A) (A) (A)
                 (A) (A) (A) (A) (A) (A) (A) (A) (A) (A) (A) (A)
                 (A) (A) (A) (A) (A) (A) (A) (A) (A) (A) (A) (A)
                 (A) (A) (A) (A) (A) (A) (A) (A) (A) (A) (A) (A)
                 (A) (A) (A) (A) (A) (A) (A) (A) (A) (A) (A) (A)
                 (A) (A) (A) (A) (A) (A) (A) (A) (A) (A) (A) (A)
                 (A) (A) (A) (A) (A) (A) (A) (A) (A) (A) (A) (A)
       Virtual   (A) (A) (A) (A) (A) (A) (A) (A) (A) (A) (A) (A)
                 (A) (A) (A) (A) (A) (A) (A) (A) (A) (A) (A) (A)
                 (A) (A) (A) (A) (A) (A) (A) (A) (A) (A) (A) (A)
                 (A) (A) (A) (A) (A) (A) (A) (A) (A) (A) (A) (A)
                 (A) (A) (A) (A) (A) (A) (A) (A) (A) (A) (A) (A)
                 (A) (A) (A) (A) (A) (A) (A) (A) (A) (A) (A) (A)
                 (A) (A) (A) (A) (A) (A) (A) (A) (A) (A) (A) (A)
                 (A) (A) (A) (A) (A) (A) (A) (A) (A) (A) (A) (A)
                 (A) (A) (A) (A) (A) (A) (A) (A) (A) (A) (A) (A)
                 (A) (A) (A) (A) (A) (A) (A) (A) (A) (A) (A) (A)
                 (A) (A) (A) (A) (A) (A) (A) (A) (A) (A) (A) (A)
                 (A) (A) (A) (A) (A) (A) (A) (A) (A) (A) (A) (A)
                 (A) (A) (A) (A) (A) (A) (A) (A) (A) (A) (A) (A)
                 (A) (A) (A) (A) (A) (A) (A) (A) (A) (A) (A) (A)
                 (A) (A) (A) (A) (A) (A) (A) (A) (A) (A) (A) (A)
                 (A) (A) (A) (A) (A) (A) (A) (A) (A) (A) (A) (A)
                 (A) (A) (A) (A) (A) (A) (A) (A) (A) (A) (A) (A)
                 (A) (A) (A) (A) (A) (A) (A) (A) (A) (A) (A) (A)
                 (A) (A) (A) (A) (A) (A) (A) (A) (A) (A) (A) (A)
                 (A) (A) (A) (A) (A) (A) (A) (A) (A) (A) (A) (A)
                 (A) (A) (A) (A) (A) (A) (A) (A) (A) (A) (A) (A)
                 (A) (A) (A) (A) (A) (A) (A) (A) (A) (A) (A) (A)
                 (A) (A) (A) (A) (A) (A) (A) (A) (A) (A) (A) (A)
                 (A) (A) (A) (A) (A) (A) (A) (A) (A) (A) (A) (A)
                 (A) (A) (A) (A) (A) (A) (A) (A) (A) (A) (A) (A)
                 (A) (A) (A) (A) (A) (A) (A) (A) (A) (A) (A) (A)
                 (A) (A) (A) (A) (A) (A) (A) (A) (A) (A) (A) (A)
                 (A) (A) (A) (A) (A) (A) (A) (A) (A) (A) (A) (A)
                 (A) (A) (A) (A) (A) (A) (A) (A) (A) (A) (A) (A)
                 (A) (A) (A) (A) (A) (A) (A) (A) (A) (A) (A) (A)
                 (A) (A) (A) (A) (A) (A) (A) (A) (A) (A) (A) (A)
                 (A) (A) (A) (A) (A) (A) (A) (A) (A) (A) (A) (A)
                 (A) (A) (A) (A) (A) (A) (A) (A) (A) (A) (A) (A)
                 (A) (A) (A) (A) (A) (A) (A) (A) (A) (A) (A) (A)
                 (A) (A) (A) (A) (A) (A) (A) (A) (A) (A) (A) (A)
                 (A) (A) (A) (A) (A) (A) (A) (A) (A) (A) (A) (A)
                 (A) (A) (A) (A) (A) (A) (A) (A) (A) (A) (A) (A)
                 (A) (A) (A) (A) (A) (A) (A) (A) (A) (A) (A) (A)
                 (A) (A) (A) (A) (A) (A) (A) (A) (A) (A) (A) (A)
                 (A) (A) (A) (A) (A) (A) (A) (A) (A) (A) (A) (A)
                 (A) (A) (A) (A) (A) (A) (A) (A) (A) (A) (A) (A)
                 (A) (A) (A) (A) (A) (A) (A) (A) (A) (A) (A) (A)
                 (A) (A) (A) (A) (A) (A) (A) (A) (A) (A) (A) (A)
                 (A) (A) (A) (A) (A) (A) (A) (A) (A) (A) (A) (A)
                 (A) (A) (A) (A) (A) (A) (A) (A) (A) (A) (A) (A)
                 (A) (A) (A) (A) (A) (A) (A) (A) (A) (A) (A) (A)
                 (A) (A) (A) (A) (A) (A) (A) (A) (A) (A) (A) (A)
                 (A) (A) (A) (A) (A) (A) (A) (A) (A) (A) (A) (A)
                 (A) (A) (A) (A) (A) (A) (A) (A) (A) (A) (A) (A)
                 (A) (A) (A) (A) (A) (A) (A) (A) (A) (A) (A) (A)
                 (A) (A) (A) (A) (A) (A) (A) (A) (A) (A) (A) (A)
                 (A) (A) (A) (A) (A) (A) (A) (A) (A) (A) (A) (A)
                 (A) (A) (A) (A) (A) (A) (A) (A) (A) (A) (A) (A)
                 (A) (A) (A) (A) (A) (A) (A) (A) (A) (A) (A) (A)
                 (A) (A) (A) (A) (A) (A) (A) (A) (A) (A) (A) (A)
                 (A) (A) (A) (A) (A) (A) (A) (A) (A) (A) (A) (A)
                 (A) (A) (A) (A) (A) (A) (A) (A) (A) (A) (A) (A)
                 (A) (A) (A) (A) (A) (A) (A) (A) (A) (A) (A) (A)
                 (A) (A) (A) (A) (A) (A) (A) (A) (A) (A) (A) (A)
                 (A) (A) (A) (A) (A) (A) (A) (A) (A) (A) (A) (A)
                 (A) (A) (A) (A) (A) (A) (A) (A) (A) (A) (A) (A)
                 (A) (A) (A) (A) (A) (A) (A) (A) (A) (A) (A) (A)
                 (A) (A) (A) (A) (A) (A) (A) (A) (A) (A) (A) (A)
                 (A) (A) (A) (A) (A) (A) (A) (A) (A) (A) (A) (A)
                 (A) (A) (A) (A) (A) (A) (A) (A) (A) (A) (A) (A)
                 (A) (A) (A) (A) (A) (A) (A) (A) (A) (A) (A) (A)
                 (A) (A) (A) (A) (A) (A) (A) (A) (A) (A) (A) (A)
                 (A) (A) (A) (A) (A) (A) (A) (A) (A) (A) (A) (A)
                 (A) (A) (A) (A) (A) (A) (A) (A) (A) (A) (A) (A)
                 (A) (A) (A) (A) (A) (A) (A) (A) (A) (A) (A) (A)
                 (A) (A) (A) (A) (A) (A) (A) (A) (A) (A) (A) (A)
                 (A) (A) (A) (A) (A) (A) (A) (A) (A) (A) (A) (A)
                 (A) (A) (A) (A) (A) (A) (A) (A) (A) (A) (A) (A)
                 (A) (A) (A) (A) (A) (A) (A) (A) (A) (A) (A) (A)
                 (A) (A) (A) (A) (A) (A) (A) (A) (A) (A) (A) (A)
                 (A) (A) (A) (A) (A) (A) (A) (A) (A) (A) (A) (A)
                 (A) (A) (A) (A) (A) (A) (A) (A) (A) (A) (A) (A)
                 (A) (A) (A) (A) (A) (A) (A) (A) (A) (A) (A) (A)
                 (A) (A) (A) (A) (A) (A) (A) (A) (A) (A) (A) (A)
                 (A) (A) (A) (A) (A) (A) (A) (A) (A) (A) (A) (A)
                 (A) (A) (A) (A) (A) (A) (A) (A) (A) (A) (A) (A)
                 (A) (A) (A) (A) (A) (A) (A) (A) (A) (A) (A) (A)
                 (A) (A) (A) (A) (A) (A) (A) (A) (A) (A) (A) (A)
                 (A) (A) (A) (A) (A) (A) (A) (A) (A) (A) (A) (A)
                 (A) (A) (A) (A) (A) (A) (A) (A) (A) (A) (A) (A)
                 (A) (A) (A) (A) (A) (A) (A) (A) (A) (A) (A) (A)
                 (A) (A) (A) (A) (A) (A) (A) (A) (A) (A) (A) (A)
                 (A) (A) (A) (A) (A) (A) (A) (A) (A) (A) (A) (A)
                 (A) (A) (A) (A) (A) (A) (A) (A) (A) (A) (A) (A)
                 (A) (A) (A) (A) (A) (A) (A) (A) (A) (A) (A) (A)
                 (A) (A) (A) (A) (A) (A) (A) (A) (A) (A) (A) (A)
                 (A) (A) (A) (A) (A) (A) (A) (A) (A) (A) (A) (A)
                 (A) (A) (A) (A) (A) (A) (A) (A) (A) (A) (A) (A)
                 (A) (A) (A) (A) (A) (A) (A) (A) (A) (A) (A) (A)
                 (A) (A) (A) (A) (A) (A) (A) (A) (A) (A) (A) (A)
                 (A) (A) (A) (A) (A) (A) (A) (A) (A) (A) (A) (A)
                 (A) (A) (A) (A) (A) (A) (A) (A) (A) (A) (A) (A)
                 (A) (A) (A) (A) (A) (A) (A) (A) (A) (A) (A) (A)
                 (A) (A) (A) (A) (A) (A) (A) (A) (A) (A) (A) (A)
                 (A) (A) (A) (A) (A) (A) (A) (A) (A) (A) (A) (A)
                 (A) (A) (A) (A) (A) (A) (A) (A) (A) (A) (A) (A)
                 (A) (A) (A) (A) (A) (A) (A) (A) (A) (A) (A) (A)
                 (A) (A) (A) (A) (A) (A) (A) (A) (A) (A) (A) (A)
                 (A) (A) (A) (A) (A) (A) (A) (A) (A) (A) (A) (A)
                 (A) (A) (A) (A) (A) (A) (A) (A) (A) (A) (A) (A)
    20 initial guesses have been made.
 Convergence on wavefunction:    0.001000000000000
 Davidson Disk Diagonalization:  ConvIn= 1.00D-03 SkipCon=T Conv= 1.00D-03.
 Max sub-space:  2000 roots to seek:    20 dimension of matrix:       549360
 Iteration     1 Dimension    20 NMult     0 NNew     20
 CISAX will form    20 AO SS matrices at one time.
 NMat=    20 NSing=    20 JSym2X= 0.
 FoFJK:  IHMeth= 1 ICntrl=       0 DoSepK=T KAlg= 0 I1Cent=           0 FoldK=F
 IRaf=         1 NMat=      40 IRICut=       1 DoRegI=T DoRafI=F ISym2E= 0 IDoP0=3 IntGTp=3.
 FoFCou: FMM=T IPFlag=           0 FMFlag=      100000 FMFlg1=        2001
         NFxFlg=           0 DoJE=F BraDBF=F KetDBF=F FulRan=T
         wScrn=  0.000000 ICntrl=       500 IOpCl=  0 I1Cent=           0 NGrid=           0
         NMat0=   20 NMatS0=     20 NMatT0=    0 NMatD0=   20 NMtDS0=    0 NMtDT0=    0
 Symmetry not used in FoFCou.
 FMM levels:  10  Number of levels for PrismC:   9
 New state      1 was old state      8
 New state      2 was old state      5
 New state      3 was old state      2
 New state      4 was old state      1
 New state      5 was old state      3
 Excitation Energies [eV] at current iteration:
 Root      1 :     2.613780747764311
 Root      2 :     2.618968830801729
 Root      3 :     2.660274516757592
 Root      4 :     2.706548524867091
 Root      5 :     2.711130023640493
 Root      6 :     2.726583305485651
 Root      7 :     3.507074970871718
 Root      8 :     3.516338878858495
 Root      9 :     3.625053736015627
 Root     10 :     3.664575202233734
 Root     11 :     3.738362967987202
 Root     12 :     3.761640216892562
 Root     13 :     4.284918782507259
 Root     14 :     4.320529230155977
 Root     15 :     4.632216096850716
 Root     16 :     4.643178498348425
 Root     17 :     4.923320467949252
 Root     18 :     4.930247673781734
 Root     19 :     4.958864186749321
 Root     20 :     4.966816481195133
 Iteration     2 Dimension    30 NMult    20 NNew     10
 CISAX will form    10 AO SS matrices at one time.
 NMat=    10 NSing=    10 JSym2X= 0.
 New state      1 was old state      3
 Root      1 not converged, maximum delta is    0.145716443838384
 New state      2 was old state      5
 Root      2 not converged, maximum delta is    0.151461087300679
 New state      3 was old state      2
 Root      3 not converged, maximum delta is    0.321866505855554
 New state      4 was old state      1
 Root      4 not converged, maximum delta is    0.344894288014087
 New state      5 was old state      4
 Root      5 not converged, maximum delta is    0.001392256701196
 Excitation Energies [eV] at current iteration:
 Root      1 :     1.790535166961317   Change is   -0.869739349796274
 Root      2 :     1.816947733955306   Change is   -0.894182289685187
 Root      3 :     2.234139052956043   Change is   -0.384829777845685
 Root      4 :     2.239955711557134   Change is   -0.373825036207177
 Root      5 :     2.706372835689033   Change is   -0.000175689178058
 Iteration     3 Dimension    40 NMult    30 NNew     10
 CISAX will form    10 AO SS matrices at one time.
 NMat=    10 NSing=    10 JSym2X= 0.
 Root      1 not converged, maximum delta is    0.053780424971251
 Root      2 not converged, maximum delta is    0.054596205885436
 Root      3 not converged, maximum delta is    0.079782260868927
 Root      4 not converged, maximum delta is    0.079558132688918
 Root      5 has converged.
 Excitation Energies [eV] at current iteration:
 Root      1 :     1.684131226066861   Change is   -0.106403940894456
 Root      2 :     1.707875605783935   Change is   -0.109072128171371
 Root      3 :     2.192855771947678   Change is   -0.041283281008365
 Root      4 :     2.200146126652790   Change is   -0.039809584904344
 Root      5 :     2.706372011444248   Change is   -0.000000824244785
 Iteration     4 Dimension    48 NMult    40 NNew      8
 CISAX will form     8 AO SS matrices at one time.
 NMat=     8 NSing=     8 JSym2X= 0.
 Root      1 not converged, maximum delta is    0.010430576580389
 Root      2 not converged, maximum delta is    0.010257981763364
 Root      3 not converged, maximum delta is    0.014092032252311
 Root      4 not converged, maximum delta is    0.013978368765449
 Root      5 has converged.
 Excitation Energies [eV] at current iteration:
 Root      1 :     1.667398686313904   Change is   -0.016732539752958
 Root      2 :     1.691022438854970   Change is   -0.016853166928965
 Root      3 :     2.185583257132780   Change is   -0.007272514814899
 Root      4 :     2.193234722247797   Change is   -0.006911404404992
 Root      5 :     2.706372011440968   Change is   -0.000000000003281
 Iteration     5 Dimension    56 NMult    48 NNew      8
 CISAX will form     8 AO SS matrices at one time.
 NMat=     8 NSing=     8 JSym2X= 0.
 Root      1 not converged, maximum delta is    0.001678510501252
 Root      2 not converged, maximum delta is    0.001703588316543
 Root      3 not converged, maximum delta is    0.002389619892562
 Root      4 not converged, maximum delta is    0.002289177021619
 Root      5 has converged.
 Excitation Energies [eV] at current iteration:
 Root      1 :     1.665650088613592   Change is   -0.001748597700311
 Root      2 :     1.689219533610727   Change is   -0.001802905244243
 Root      3 :     2.184738765678453   Change is   -0.000844491454327
 Root      4 :     2.192443071921593   Change is   -0.000791650326205
 Root      5 :     2.706372011439024   Change is   -0.000000000001944
 Iteration     6 Dimension    64 NMult    56 NNew      8
 CISAX will form     8 AO SS matrices at one time.
 NMat=     8 NSing=     8 JSym2X= 0.
 Root      1 not converged, maximum delta is    0.001055457281776
 Root      2 not converged, maximum delta is    0.001064794897006
 Root      3 not converged, maximum delta is    0.001008641381534
 Root      4 has converged.
 Root      5 has converged.
 Excitation Energies [eV] at current iteration:
 Root      1 :     1.665401465801782   Change is   -0.000248622811810
 Root      2 :     1.688960236656019   Change is   -0.000259296954708
 Root      3 :     2.184610368801207   Change is   -0.000128396877247
 Root      4 :     2.192322508973293   Change is   -0.000120562948299
 Root      5 :     2.706372011437839   Change is   -0.000000000001185
 Iteration     7 Dimension    70 NMult    64 NNew      6
 CISAX will form     6 AO SS matrices at one time.
 NMat=     6 NSing=     6 JSym2X= 0.
 Root      1 has converged.
 Root      2 has converged.
 Root      3 has converged.
 Root      4 has converged.
 Root      5 has converged.
 Excitation Energies [eV] at current iteration:
 Root      1 :     1.665377194868770   Change is   -0.000024270933012
[...]
 Alpha virt. eigenvalues --    1.96308   1.96529   1.96756   1.96972   1.97049
 Alpha virt. eigenvalues --    1.97585   1.97610   1.97849   1.97997   1.98211
 Alpha virt. eigenvalues --    1.98334   1.98394   1.98844   1.99110   1.99293
 Alpha virt. eigenvalues --    1.99971   1.99982   2.00770   2.00819   2.01139
 Alpha virt. eigenvalues --    2.01161   2.01548   2.01647   2.01647   2.01830
 Alpha virt. eigenvalues --    2.01870   2.01882   2.02751   2.02940   2.03177
 Alpha virt. eigenvalues --    2.03383   2.03421   2.03565   2.03566   2.03655
 Alpha virt. eigenvalues --    2.04068   2.04194   2.05014   2.05109   2.05662
 Alpha virt. eigenvalues --    2.05664   2.06226   2.06319   2.07074   2.07079
 Alpha virt. eigenvalues --    2.07352   2.07394   2.08571   2.08715   2.09049
 Alpha virt. eigenvalues --    2.09141   2.09654   2.09752   2.10927   2.11075
 Alpha virt. eigenvalues --    2.11344   2.11449   2.11575   2.11702   2.11881
 Alpha virt. eigenvalues --    2.11902   2.12504   2.12624   2.12839   2.12912
 Alpha virt. eigenvalues --    2.12956   2.12997   2.13670   2.13930   2.14282
 Alpha virt. eigenvalues --    2.14286   2.15443   2.15490   2.16087   2.16122
 Alpha virt. eigenvalues --    2.16628   2.16674   2.16925   2.17219   2.17568
 Alpha virt. eigenvalues --    2.17681   2.17853   2.17971   2.18046   2.18229
 Alpha virt. eigenvalues --    2.18486   2.18712   2.19033   2.19278   2.19801
 Alpha virt. eigenvalues --    2.19858   2.20196   2.20285   2.20382   2.20476
 Alpha virt. eigenvalues --    2.21208   2.21296   2.21804   2.21820   2.21914
 Alpha virt. eigenvalues --    2.21917   2.22740   2.22837   2.23385   2.23476
 Alpha virt. eigenvalues --    2.24460   2.24546   2.25038   2.25107   2.26466
 Alpha virt. eigenvalues --    2.26481   2.26932   2.27045   2.27244   2.27269
 Alpha virt. eigenvalues --    2.28293   2.28350   2.29420   2.29472   2.29897
 Alpha virt. eigenvalues --    2.29920   2.30615   2.30658   2.30862   2.31240
 Alpha virt. eigenvalues --    2.31242   2.31352   2.32267   2.32272   2.33270
 Alpha virt. eigenvalues --    2.33294   2.33525   2.33624   2.34177   2.34293
 Alpha virt. eigenvalues --    2.35339   2.35541   2.35943   2.35953   2.36367
 Alpha virt. eigenvalues --    2.36484   2.36499   2.36778   2.37719   2.37817
 Alpha virt. eigenvalues --    2.38393   2.38403   2.38814   2.39014   2.39703
 Alpha virt. eigenvalues --    2.39764   2.40303   2.40335   2.40647   2.40864
 Alpha virt. eigenvalues --    2.41248   2.41430   2.41731   2.41839   2.42166
 Alpha virt. eigenvalues --    2.42209   2.42853   2.43085   2.43102   2.43706
 Alpha virt. eigenvalues --    2.43998   2.44319   2.44837   2.44883   2.45023
 Alpha virt. eigenvalues --    2.45058   2.45604   2.45707   2.46307   2.46440
 Alpha virt. eigenvalues --    2.46528   2.46638   2.46836   2.46960   2.47414
 Alpha virt. eigenvalues --    2.47414   2.47866   2.47916   2.49414   2.49446
 Alpha virt. eigenvalues --    2.49929   2.50217   2.50480   2.50694   2.51282
 Alpha virt. eigenvalues --    2.51300   2.51637   2.52040   2.52428   2.52598
 Alpha virt. eigenvalues --    2.52964   2.53190   2.53990   2.54065   2.54272
 Alpha virt. eigenvalues --    2.54289   2.54838   2.54944   2.55663   2.55690
 Alpha virt. eigenvalues --    2.58008   2.58098   2.58789   2.58924   2.60331
 Alpha virt. eigenvalues --    2.60373   2.60765   2.60945   2.61841   2.61855
 Alpha virt. eigenvalues --    2.62454   2.62687   2.63115   2.63154   2.64087
 Alpha virt. eigenvalues --    2.64240   2.64387   2.64448   2.65123   2.65233
 Alpha virt. eigenvalues --    2.65881   2.65938   2.66847   2.66931   2.67057
 Alpha virt. eigenvalues --    2.67075   2.68003   2.68059   2.68837   2.69006
 Alpha virt. eigenvalues --    2.69056   2.69184   2.69546   2.69618   2.70156
 Alpha virt. eigenvalues --    2.70163   2.71087   2.71137   2.71914   2.72210
 Alpha virt. eigenvalues --    2.72516   2.72758   2.72817   2.73000   2.73307
 Alpha virt. eigenvalues --    2.73422   2.73506   2.73717   2.74532   2.74672
 Alpha virt. eigenvalues --    2.75075   2.75134   2.76541   2.76743   2.77092
 Alpha virt. eigenvalues --    2.77400   2.77596   2.77612   2.78294   2.78312
 Alpha virt. eigenvalues --    2.78708   2.78890   2.79173   2.79285   2.80266
 Alpha virt. eigenvalues --    2.80483   2.80716   2.80758   2.81172   2.81283
 Alpha virt. eigenvalues --    2.82010   2.82091   2.82353   2.82495   2.83851
 Alpha virt. eigenvalues --    2.83893   2.83928   2.83929   2.84542   2.84702
 Alpha virt. eigenvalues --    2.84901   2.85032   2.85694   2.85802   2.86673
 Alpha virt. eigenvalues --    2.87149   2.87192   2.87779   2.88236   2.88285
 Alpha virt. eigenvalues --    2.88637   2.88672   2.88887   2.89091   2.90654
 Alpha virt. eigenvalues --    2.90674   2.91080   2.91334   2.93311   2.93333
 Alpha virt. eigenvalues --    2.93783   2.94352   2.94578   2.94693   2.95481
 Alpha virt. eigenvalues --    2.95521   2.95858   2.96374   2.96386   2.96597
 Alpha virt. eigenvalues --    2.96888   2.97347   2.97976   2.98029   2.98345
 Alpha virt. eigenvalues --    2.98369   2.98529   2.98582   2.98771   2.98802
 Alpha virt. eigenvalues --    2.98936   2.99026   2.99728   2.99808   3.00034
 Alpha virt. eigenvalues --    3.00187   3.00343   3.00375   3.00620   3.01001
 Alpha virt. eigenvalues --    3.01914   3.02114   3.02139   3.02163   3.02822
 Alpha virt. eigenvalues --    3.02892   3.03137   3.03307   3.03459   3.03719
 Alpha virt. eigenvalues --    3.04063   3.04324   3.04444   3.04627   3.04703
 Alpha virt. eigenvalues --    3.04756   3.05352   3.05422   3.06166   3.06256
 Alpha virt. eigenvalues --    3.06941   3.06958   3.07916   3.08274   3.09352
 Alpha virt. eigenvalues --    3.09548   3.09837   3.10441   3.10592   3.10747
 Alpha virt. eigenvalues --    3.11455   3.11474   3.11914   3.12103   3.12311
 Alpha virt. eigenvalues --    3.12323   3.13442   3.13662   3.13693   3.13783
 Alpha virt. eigenvalues --    3.14268   3.14491   3.16004   3.16068   3.17429
 Alpha virt. eigenvalues --    3.17535   3.17869   3.18203   3.19036   3.19271
 Alpha virt. eigenvalues --    3.22491   3.22621   3.24111   3.24456   3.24853
 Alpha virt. eigenvalues --    3.25215   3.26668   3.26671   3.27408   3.27783
 Alpha virt. eigenvalues --    3.29251   3.29291   3.31390   3.31686   3.33196
 Alpha virt. eigenvalues --    3.33576   3.40284   3.40821   3.42811   3.42949
 Alpha virt. eigenvalues --    3.48715   3.48832   3.50182   3.50293   3.50846
 Alpha virt. eigenvalues --    3.51631   3.56705   3.57014   3.59255   3.59349
 Alpha virt. eigenvalues --    3.62530   3.63004   3.66099   3.66303   3.67376
 Alpha virt. eigenvalues --    3.67570   3.73463   3.74050   3.76246   3.76710
          Condensed to atoms (all electrons):
 Mulliken charges:
               1
     1  Mg   0.839450
     2  C   -0.002727
     3  C   -0.094173
     4  C   -0.046044
     5  C   -0.063714
     6  N   -0.256730
     7  C   -0.052336
     8  C   -0.014024
     9  C   -0.086981
    10  C    0.046289
    11  C    0.104880
    12  C    0.053479
    13  C   -0.071743
    14  H    0.036218
    15  N   -0.432989
    16  C    0.168304
    17  C   -0.177377
    18  C   -0.004371
    19  C    0.148667
    20  C    0.110253
    21  C    0.011939
    22  O   -0.250297
    23  C    0.062635
    24  N   -0.341176
    25  C    0.041224
    26  C   -0.027983
    27  C   -0.024019
    28  C    0.075060
    29  C    0.076320
    30  C    0.035117
    31  C   -0.004356
    32  N   -0.310708
    33  C    0.081016
    34  C   -0.168829
    35  C    0.008582
    36  C    0.083594
    37  C    0.127114
    38  C    0.046711
    39  O   -0.187957
    40  C   -0.005602
    41  C    0.212847
    42  O   -0.256218
    43  O   -0.305030
    44  C    0.157651
    45  H   -0.017909
    46  H   -0.017402
    47  H   -0.041315
    48  H    0.000852
    49  H   -0.004155
    50  H    0.025388
    51  H    0.016301
    52  H    0.016405
    53  H    0.011290
    54  H    0.044576
    55  H    0.017656
    56  H    0.017809
    57  H    0.005836
    58  H    0.026402
    59  H    0.039156
    60  H    0.037357
    61  H    0.034789
    62  H    0.031277
    63  H    0.016077
    64  H    0.009259
    65  H    0.022643
    66  H    0.012469
    67  H    0.004583
    68  H    0.005513
    69  H    0.004986
    70  H    0.007743
    71  H    0.018848
    72  H    0.030054
    73  H    0.048635
    74  H    0.009314
    75  H    0.045674
    76  H    0.034910
    77  H    0.042775
    78  H    0.046144
    79  H    0.054091
    80  Mg   0.838454
    81  C   -0.016641
    82  C   -0.087791
    83  C   -0.045611
    84  C   -0.064781
    85  N   -0.254558
    86  C   -0.049702
    87  C   -0.015165
    88  C   -0.090523
    89  C    0.045762
    90  C    0.114433
    91  C    0.062495
    92  C   -0.077663
    93  H    0.034507
    94  N   -0.423388
    95  C    0.162835
    96  C   -0.174798
    97  C   -0.008058
    98  C    0.152079
    99  C    0.099440
   100  C    0.015315
   101  O   -0.253582
   102  C    0.061321
   103  N   -0.350131
   104  C    0.037508
   105  C   -0.019737
   106  C   -0.034856
   107  C    0.089105
   108  C    0.073783
   109  C    0.034728
   110  C   -0.007670
   111  N   -0.324271
   112  C    0.078884
   113  C   -0.162494
   114  C    0.002396
   115  C    0.096706
   116  C    0.131324
   117  C    0.042932
   118  O   -0.187505
   119  C    0.000673
   120  C    0.211208
   121  O   -0.250149
   122  O   -0.305813
   123  C    0.152076
   124  H   -0.019893
   125  H   -0.015925
   126  H   -0.040284
   127  H   -0.000783
   128  H   -0.004356
   129  H    0.022355
   130  H    0.014319
   131  H    0.016071
   132  H    0.014191
   133  H    0.038030
   134  H    0.020553
   135  H    0.019674
   136  H    0.008765
   137  H    0.025791
   138  H    0.039534
   139  H    0.038222
   140  H    0.035797
   141  H    0.033687
   142  H    0.014199
   143  H    0.012254
   144  H    0.024795
   145  H    0.011508
   146  H    0.005530
   147  H    0.005836
   148  H    0.003866
   149  H    0.010384
   150  H    0.018576
   151  H    0.030671
   152  H    0.046835
   153  H    0.008690
   154  H    0.046654
   155  H    0.034781
   156  H    0.043700
   157  H    0.049134
   158  H    0.053766
 Sum of Mulliken charges =  -0.00000
 Mulliken charges with hydrogens summed into heavy atoms:
               1
     1  Mg   0.839450
     2  C   -0.002727
     3  C   -0.112082
     4  C   -0.063446
     5  C   -0.105029
     6  N   -0.256730
     7  C   -0.052336
     8  C   -0.013172
     9  C   -0.091136
    10  C    0.046289
    11  C    0.162974
    12  C    0.109346
    13  C   -0.000060
    15  N   -0.432989
    16  C    0.168304
    17  C   -0.177377
    18  C   -0.004371
    19  C    0.148667
    20  C    0.181648
    21  C    0.011939
    22  O   -0.250297
    23  C    0.166060
    24  N   -0.341176
    25  C    0.041224
    26  C   -0.011906
    27  C   -0.014761
    28  C    0.075060
    29  C    0.116015
    30  C    0.045616
    31  C    0.052289
    32  N   -0.310708
    33  C    0.081016
    34  C   -0.168829
    35  C    0.008582
    36  C    0.083594
    37  C    0.230736
    38  C    0.046711
    39  O   -0.187957
    40  C    0.029308
    41  C    0.212847
    42  O   -0.256218
    43  O   -0.305030
    44  C    0.300662
    80  Mg   0.838454
    81  C   -0.016641
    82  C   -0.107684
    83  C   -0.061536
    84  C   -0.105064
    85  N   -0.254558
    86  C   -0.049702
    87  C   -0.015948
    88  C   -0.094879
    89  C    0.045762
    90  C    0.167177
    91  C    0.114715
    92  C   -0.002929
    94  N   -0.423388
    95  C    0.162835
    96  C   -0.174798
    97  C   -0.008058
    98  C    0.152079
    99  C    0.173530
   100  C    0.015315
   101  O   -0.253582
   102  C    0.169026
   103  N   -0.350131
   104  C    0.037508
   105  C   -0.005538
   106  C   -0.022602
   107  C    0.089105
   108  C    0.115615
   109  C    0.044430
   110  C    0.051961
   111  N   -0.324271
   112  C    0.078884
   113  C   -0.162494
   114  C    0.002396
   115  C    0.096706
   116  C    0.233503
   117  C    0.042932
   118  O   -0.187505
   119  C    0.035454
   120  C    0.211208
   121  O   -0.250149
   122  O   -0.305813
   123  C    0.298677
 Electronic spatial extent (au):  <R**2>=         150182.6263
 Charge=             -0.0000 electrons
 Dipole moment (field-independent basis, Debye):
    X=              0.4638    Y=             -1.4126    Z=              7.0187  Tot=              7.1744
 Quadrupole moment (field-independent basis, Debye-Ang):
   XX=           -468.9853   YY=           -461.7308   ZZ=           -538.2874
   XY=             22.5628   XZ=             12.8988   YZ=             10.9754
 Traceless Quadrupole moment (field-independent basis, Debye-Ang):
   XX=             20.6825   YY=             27.9370   ZZ=            -48.6196
   XY=             22.5628   XZ=             12.8988   YZ=             10.9754
 Octapole moment (field-independent basis, Debye-Ang**2):
  XXX=             75.0973  YYY=            109.1562  ZZZ=            355.9157  XYY=            -72.6928
  XXY=             41.9154  XXZ=            223.5967  XZZ=            122.0821  YZZ=            -97.9129
  YYZ=           -243.7009  XYZ=            410.1749
 Hexadecapole moment (field-independent basis, Debye-Ang**3):
 XXXX=        -136472.1430 YYYY=         -32207.6979 ZZZZ=         -32631.3977 XXXY=           1301.6094
 XXXZ=           1501.4639 YYYX=           1014.2868 YYYZ=            164.8471 ZZZX=            368.3187
 ZZZY=            -26.7500 XXYY=         -26838.2227 XXZZ=         -29704.8046 YYZZ=         -11366.4857
 XXYZ=             49.4415 YYXZ=            -74.3097 ZZXY=            541.5757
 N-N= 1.424266204447D+04 E-N=-3.796682395874D+04  KE= 4.028802040539D+03
 Leave Link  601 at Sat Sep 11 07:36:53 2021, MaxMem= 23488102400 cpu:              17.5 elap:               0.8
 (Enter /sw/apps/gaussian-16.0/g16/l9999.exe)
 1\1\GINC-BP1-COMPUTE00092\SP\RCAM-B3LYP TD-FC\def2SVP\C68H72Mg2N8O8\OF
 15641\11-Sep-2021\0\\#p cam-b3lyp/Def2SVP td=(nstates=5)\\TDDFT excite
 d states in gaussian\\0,1\Mg,0,0.,0.,0.\C,0,-0.217,-2.218,2.801\C,0,-1
 .255,2.442,2.026\C,0,-0.245,1.85,-2.564\C,0,0.146,-2.824,-2.037\N,0,-0
 .617,-0.009,2.126\C,0,-0.594,-0.908,3.105\C,0,-0.936,-0.309,4.502\C,0,
 -1.773,0.964,4.032\C,0,-1.155,1.168,2.66\C,0,-3.263,0.685,3.863\C,0,0.
 345,0.11,5.299\C,0,0.124,0.397,6.787\H,0,1.168,0.033,7.733\N,0,-0.185,
 1.961,-0.152\C,0,-0.703,2.8,0.777\C,0,-0.62,4.156,0.193\C,0,-0.187,4.0
 15,-1.225\C,0,-0.214,2.583,-1.38\C,0,-0.887,5.406,0.974\C,0,0.181,5.01
 3,-2.277\O,0,0.303,4.69,-3.508\C,0,0.31,6.414,-1.837\N,0,-0.265,-0.413
 ,-2.029\C,0,-0.279,0.569,-2.937\C,0,-0.196,0.024,-4.332\C,0,0.124,-1.5
 33,-4.18\C,0,0.086,-1.632,-2.635\C,0,-1.451,0.205,-5.197\C,0,1.373,-2.
 07,-4.923\C,0,2.626,-1.49,-4.306\N,0,0.15,-2.144,0.303\C,0,0.173,-3.13
 6,-0.688\C,0,0.173,-4.438,0.004\C,0,0.133,-4.111,1.358\C,0,0.083,-2.69
 5,1.502\C,0,0.149,-5.715,-0.623\C,0,0.096,-4.629,2.716\O,0,0.208,-5.74
 7,3.221\C,0,-0.255,-3.428,3.701\C,0,0.717,-3.482,4.848\O,0,1.931,-3.25
 5,4.669\O,0,0.038,-3.556,6.003\C,0,0.943,-3.583,7.183\H,0,-1.859,3.22,
 2.497\H,0,-0.218,2.453,-3.474\H,0,0.276,-3.747,-2.605\H,0,-1.554,-0.94
 9,5.132\H,0,-1.585,1.831,4.665\H,0,-3.484,-0.377,3.969\H,0,-3.511,1.02
 7,2.858\H,0,-3.852,1.301,4.543\H,0,0.669,1.096,4.966\H,0,1.13,-0.639,5
 .189\H,0,-0.844,0.026,7.125\H,0,0.062,1.477,6.921\H,0,-1.344,5.186,1.9
 38\H,0,-1.651,5.963,0.432\H,0,0.007,6.02,1.084\H,0,-0.635,6.744,-1.405
 \H,0,0.665,6.97,-2.704\H,0,1.048,6.466,-1.036\H,0,0.608,0.501,-4.891\H
 ,0,-0.692,-2.156,-4.547\H,0,-1.267,0.74,-6.129\H,0,-2.204,0.714,-4.596
 \H,0,-1.967,-0.72,-5.453\H,0,1.356,-1.759,-5.967\H,0,1.452,-3.157,-4.9
 02\H,0,2.714,-0.522,-4.798\H,0,3.487,-2.121,-4.529\H,0,2.495,-1.303,-3
 .24\H,0,0.867,-6.333,-0.084\H,0,0.404,-5.642,-1.68\H,0,-0.891,-5.999,-
 0.463\H,0,-1.283,-3.581,4.028\H,0,0.698,-4.478,7.755\H,0,0.833,-2.619,
 7.68\H,0,2.,-3.754,6.976\Mg,0,13.12983,1.18513,0.9925\C,0,13.02139,-1.
 59148,-1.27856\C,0,13.33129,3.21871,-1.73853\C,0,13.67954,3.6107,2.962
 74\C,0,14.06185,-1.06732,3.48319\N,0,13.1625,0.7513,-1.17614\C,0,13.05
 343,-0.33719,-1.92289\C,0,12.89338,-0.06156,-3.44209\C,0,13.57534,1.39
 133,-3.49604\C,0,13.31347,1.83777,-2.0591\C,0,15.07839,1.3429,-3.71475
 \C,0,11.38893,-0.00672,-3.88438\C,0,11.16135,-0.04965,-5.39703\H,0,9.9
 875,-0.75462,-5.90456\N,0,12.97012,3.14112,0.69724\C,0,13.05424,3.7959
 3,-0.4798\C,0,12.8911,5.22237,-0.15919\C,0,12.86859,5.37077,1.32142\C,
 0,13.19999,4.01952,1.72684\C,0,12.69497,6.27549,-1.2108\C,0,12.60641,6
 .53889,2.22306\O,0,12.87331,6.49563,3.47595\C,0,12.11544,7.76635,1.579
 81\N,0,13.98019,1.29854,2.88627\C,0,14.05098,2.46953,3.54332\C,0,14.44
 474,2.26237,4.98638\C,0,14.38802,0.68198,5.22457\C,0,14.04271,0.22225,
 3.79111\C,0,15.82503,2.78707,5.3812\C,0,13.50128,0.17821,6.39613\C,0,1
 2.04417,0.44009,6.09013\N,0,13.30623,-0.96159,1.16146\C,0,13.73855,-1.
 69592,2.28748\C,0,13.80128,-3.11555,1.88357\C,0,13.42021,-3.10574,0.53
 332\C,0,13.15928,-1.77166,0.11903\C,0,14.21829,-4.19764,2.70898\C,0,13
 .18963,-3.9194,-0.63864\O,0,13.1687,-5.12828,-0.86647\C,0,13.04339,-2.
 96117,-1.89832\C,0,11.83215,-3.39785,-2.67597\O,0,10.6948,-3.2983,-2.1
 829\O,0,12.19337,-3.65547,-3.94622\C,0,11.02383,-4.08172,-4.76004\H,0,
 13.62627,3.92734,-2.51295\H,0,13.78044,4.39808,3.71329\H,0,14.24893,-1
 .84285,4.22899\H,0,13.42884,-0.74782,-4.08715\H,0,13.06119,2.04319,-4.
 19754\H,0,15.45828,0.33266,-3.67965\H,0,15.51053,1.93742,-2.92049\H,0,
 15.34012,1.85039,-4.64764\H,0,10.98645,0.98993,-3.66204\H,0,10.82417,-
 0.78663,-3.41171\H,0,12.06157,-0.36121,-5.94062\H,0,10.97451,0.96785,-
 5.74886\H,0,12.923,5.89099,-2.21258\H,0,13.45337,7.04644,-1.03664\H,0,
 11.70586,6.73629,-1.16614\H,0,12.8338,8.09451,0.83233\H,0,11.90222,8.4
 5898,2.39631\H,0,11.18813,7.53388,1.04439\H,0,13.73939,2.74371,5.65263
 \H,0,15.38074,0.26899,5.45647\H,0,15.79393,3.51173,6.21665\H,0,16.2833
 7,3.23256,4.50827\H,0,16.54854,2.02171,5.65682\H,0,13.73084,0.73169,7.
 30998\H,0,13.63406,-0.87582,6.61607\H,0,11.91257,1.4838,6.39083\H,0,11
 .40564,-0.22175,6.67176\H,0,11.85145,0.38067,5.01264\H,0,13.52125,-5.0
 07,2.53701\H,0,14.2442,-3.91041,3.75808\H,0,15.21945,-4.37494,2.30709\
 H,0,13.95925,-3.04812,-2.48415\H,0,11.2774,-5.05085,-5.20069\H,0,10.82
 582,-3.2471,-5.45857\H,0,10.10765,-4.32205,-4.23343\\Version=ES64L-G16
 RevA.03\State=1-A\HF=-4069.8114899\RMSD=5.466e-09\PG=C01 [X(C68H72Mg2N
 8O8)]\\@


 EXPERIMENTALISTS THINK SILICON IS REALLY FUN TO USE
     ITS PLACE IN NOVEL COMPOUNDS IS CERTAIN TO AMUSE
 THEY SIT ALL DAY IN LABORATORIES MAKING ALL THIS SLUDGE
     "LOADED WITH THE SILICON THEY SAY", TO ME IT LOOKS LIKE FUDGE.
 FOR HAPPY THOUGH THEY BE WITH CRUD, I'D LIKE TO KNOW A LITTLE
      ABOUT THE PI BONDS ON THE EDGE AND SIGMAS IN THE MIDDLE.

 SO LETS DERIVE A WAVEFUNCTION.....6-31G*
     USE AN OPTIMAL GEOMETRY AND SEE WHERE ELECTRONS ARE.
 BUT WHAT OF CORRELATION?  ASKS THE WIRY LITTLE SKEPTIC.
     WE'LL THROW IN PERTURBATION AS AN ELECTRON ANTISEPTIC.
 AND WHEN THE PROGRAM GIVES US ANSWERS IN THEM WE CAN TRUST
     SINCE NOBODY CAN MAKE THE STUFF, WE HAVE NO CHOICE, WE MUST.

 SO THEORY GUYS HAVE GOT IT MADE, IN ROOMS FREE OF POLLUTION.
     INSTEAD OF PROBLEMS WITH THE REFLUX, THEY HAVE ONLY SOLUTIONS.
 AND WHEN THE FEDS ANNOUNCE THE LIST OF CARCINOGENIC TERRORS,
     THE THEORISTS SIT SAFELY AT THEIR TERMINALS FIXING ERRORS.
 IN OTHER WORDS, EXPERIMENTALISTS WILL LIKELY DIE OF CANCER
     FROM WORKING HARD YET FRUITLESSLY...TILL THEORY GIVES THE ANSWER.
          -- THOMAS A. HOLME, 1983
 Job cpu time:       0 days 11 hours 54 minutes 44.8 seconds.
 Elapsed time:       0 days  0 hours 30 minutes 23.2 seconds.
 File lengths (MBytes):  RWF=  13225 Int=      0 D2E=      0 Chk=    574 Scr=      1
 Normal termination of Gaussian 16 at Sat Sep 11 07:36:54 2021.
