 Entering Gaussian System, Link 0=g16
 Initial command:
 /sw/apps/gaussian-16.0/g16/l1.exe "/tmp/Gau-29990.inp" -scrdir="/tmp/"
 Entering Link 1 = /sw/apps/gaussian-16.0/g16/l1.exe PID=     29991.
  
 Copyright (c) 1988,1990,1992,1993,1995,1998,2003,2009,2016,
            Gaussian, Inc.  All Rights Reserved.
  
 This is part of the Gaussian(R) 16 program.  It is based on
 the Gaussian(R) 09 system (copyright 2009, Gaussian, Inc.),
 the Gaussian(R) 03 system (copyright 2003, Gaussian, Inc.),
 the Gaussian(R) 98 system (copyright 1998, Gaussian, Inc.),
 the Gaussian(R) 94 system (copyright 1995, Gaussian, Inc.),
 the Gaussian 92(TM) system (copyright 1992, Gaussian, Inc.),
 the Gaussian 90(TM) system (copyright 1990, Gaussian, Inc.),
 the Gaussian 88(TM) system (copyright 1988, Gaussian, Inc.),
 the Gaussian 86(TM) system (copyright 1986, Carnegie Mellon
 University), and the Gaussian 82(TM) system (copyright 1983,
 Carnegie Mellon University). Gaussian is a federally registered
 trademark of Gaussian, Inc.
  
 This software contains proprietary and confidential information,
 including trade secrets, belonging to Gaussian, Inc.
  
 This software is provided under written license and may be
 used, copied, transmitted, or stored only in accord with that
 written license.
  
 The following legend is applicable only to US Government
 contracts under FAR:
  
                    RESTRICTED RIGHTS LEGEND
  
 Use, reproduction and disclosure by the US Government is
 subject to restrictions as set forth in subparagraphs (a)
 and (c) of the Commercial Computer Software - Restricted
 Rights clause in FAR 52.227-19.
  
 Gaussian, Inc.
 340 Quinnipiac St., Bldg. 40, Wallingford CT 06492
  
  
 ---------------------------------------------------------------
 Warning -- This program may not be used in any manner that
 competes with the business of Gaussian, Inc. or will provide
 assistance to any competitor of Gaussian, Inc.  The licensee
 of this program is prohibited from giving any competitor of
 Gaussian, Inc. access to this program.  By using this program,
 the user acknowledges that Gaussian, Inc. is engaged in the
 business of creating and licensing software in the field of
 computational chemistry and represents and warrants to the
 licensee that it is not a competitor of Gaussian, Inc. and that
 it will not use this program in any manner prohibited above.
 ---------------------------------------------------------------
  

 Cite this work as:
 Gaussian 16, Revision A.03,
 M. J. Frisch, G. W. Trucks, H. B. Schlegel, G. E. Scuseria, 
 M. A. Robb, J. R. Cheeseman, G. Scalmani, V. Barone, 
 G. A. Petersson, H. Nakatsuji, X. Li, M. Caricato, A. V. Marenich, 
 J. Bloino, B. G. Janesko, R. Gomperts, B. Mennucci, H. P. Hratchian, 
 J. V. Ortiz, A. F. Izmaylov, J. L. Sonnenberg, D. Williams-Young, 
 F. Ding, F. Lipparini, F. Egidi, J. Goings, B. Peng, A. Petrone, 
 T. Henderson, D. Ranasinghe, V. G. Zakrzewski, J. Gao, N. Rega, 
 G. Zheng, W. Liang, M. Hada, M. Ehara, K. Toyota, R. Fukuda, 
 J. Hasegawa, M. Ishida, T. Nakajima, Y. Honda, O. Kitao, H. Nakai, 
 T. Vreven, K. Throssell, J. A. Montgomery, Jr., J. E. Peralta, 
 F. Ogliaro, M. J. Bearpark, J. J. Heyd, E. N. Brothers, K. N. Kudin, 
 V. N. Staroverov, T. A. Keith, R. Kobayashi, J. Normand, 
 K. Raghavachari, A. P. Rendell, J. C. Burant, S. S. Iyengar, 
 J. Tomasi, M. Cossi, J. M. Millam, M. Klene, C. Adamo, R. Cammi, 
 J. W. Ochterski, R. L. Martin, K. Morokuma, O. Farkas, 
 J. B. Foresman, and D. J. Fox, Gaussian, Inc., Wallingford CT, 2016.
 
 ******************************************
 Gaussian 16:  ES64L-G16RevA.03 25-Dec-2016
                 3-Sep-2021 
 ******************************************
 %nproc=24
 Will use up to   24 processors via shared memory.
 %mem=175gb
 -----------------------------------
 #p cam-b3lyp/Def2SVP td=(nstates=5)
 -----------------------------------
 1/38=1,172=1/1;
 2/12=2,17=6,18=5,40=1/2;
 3/5=43,7=101,11=9,25=1,30=1,74=-40/1,2,3,8;
 4//1;
 5/5=2,38=5/2;
 8/6=1,10=1,108=5/1;
 9/41=5,42=1,70=2/14;
 6/7=2,8=2,9=2,10=2/1;
 99/5=1,9=1/99;
 Leave Link    1 at Fri Sep  3 17:05:49 2021, MaxMem= 23488102400 cpu:               0.8 elap:               0.0
 (Enter /sw/apps/gaussian-16.0/g16/l101.exe)
 --------------------------------
 TDDFT excited states in gaussian
 --------------------------------
 Symbolic Z-matrix:
 Charge =  0 Multiplicity = 1
 Mg                    0.        0.        0. 
 C                    -0.217    -2.218     2.801 
 C                    -1.255     2.442     2.026 
 C                    -0.245     1.85     -2.564 
 C                     0.146    -2.824    -2.037 
 N                    -0.617    -0.009     2.126 
 C                    -0.594    -0.908     3.105 
 C                    -0.936    -0.309     4.502 
 C                    -1.773     0.964     4.032 
 C                    -1.155     1.168     2.66 
 C                    -3.263     0.685     3.863 
 C                     0.345     0.11      5.299 
 C                     0.124     0.397     6.787 
 H                     1.168     0.033     7.733 
 N                    -0.185     1.961    -0.152 
 C                    -0.703     2.8       0.777 
 C                    -0.62      4.156     0.193 
 C                    -0.187     4.015    -1.225 
 C                    -0.214     2.583    -1.38 
 C                    -0.887     5.406     0.974 
 C                     0.181     5.013    -2.277 
 O                     0.303     4.69     -3.508 
 C                     0.31      6.414    -1.837 
 N                    -0.265    -0.413    -2.029 
 C                    -0.279     0.569    -2.937 
 C                    -0.196     0.024    -4.332 
 C                     0.124    -1.533    -4.18 
 C                     0.086    -1.632    -2.635 
 C                    -1.451     0.205    -5.197 
 C                     1.373    -2.07     -4.923 
 C                     2.626    -1.49     -4.306 
 N                     0.15     -2.144     0.303 
 C                     0.173    -3.136    -0.688 
 C                     0.173    -4.438     0.004 
 C                     0.133    -4.111     1.358 
 C                     0.083    -2.695     1.502 
 C                     0.149    -5.715    -0.623 
 C                     0.096    -4.629     2.716 
 O                     0.208    -5.747     3.221 
 C                    -0.255    -3.428     3.701 
 C                     0.717    -3.482     4.848 
 O                     1.931    -3.255     4.669 
 O                     0.038    -3.556     6.003 
 C                     0.943    -3.583     7.183 
 H                    -1.859     3.22      2.497 
 H                    -0.218     2.453    -3.474 
 H                     0.276    -3.747    -2.605 
 H                    -1.554    -0.949     5.132 
 H                    -1.585     1.831     4.665 
 H                    -3.484    -0.377     3.969 
 H                    -3.511     1.027     2.858 
 H                    -3.852     1.301     4.543 
 H                     0.669     1.096     4.966 
 H                     1.13     -0.639     5.189 
 H                    -0.844     0.026     7.125 
 H                     0.062     1.477     6.921 
 H                    -1.344     5.186     1.938 
 H                    -1.651     5.963     0.432 
 H                     0.007     6.02      1.084 
 H                    -0.635     6.744    -1.405 
 H                     0.665     6.97     -2.704 
 H                     1.048     6.466    -1.036 
 H                     0.608     0.501    -4.891 
 H                    -0.692    -2.156    -4.547 
 H                    -1.267     0.74     -6.129 
 H                    -2.204     0.714    -4.596 
 H                    -1.967    -0.72     -5.453 
 H                     1.356    -1.759    -5.967 
 H                     1.452    -3.157    -4.902 
 H                     2.714    -0.522    -4.798 
 H                     3.487    -2.121    -4.529 
 H                     2.495    -1.303    -3.24 
 H                     0.867    -6.333    -0.084 
 H                     0.404    -5.642    -1.68 
 H                    -0.891    -5.999    -0.463 
 H                    -1.283    -3.581     4.028 
 H                     0.698    -4.478     7.755 
 H                     0.833    -2.619     7.68 
 H                     2.       -3.754     6.976 
 Mg                    7.89004   0.7076    0.6066 
 C                     8.01713  -2.87536   0.44732 
 C                     6.7926    0.3768    3.8192 
 C                     7.33767   3.83194   0.63457 
 C                     7.88421   0.72372  -2.87843 
 N                     7.49608  -1.07189   1.85979 
 C                     7.63902  -2.38045   1.71284 
 C                     7.43902  -3.19968   3.01607 
 C                     6.51914  -2.15558   3.81766 
 C                     6.98422  -0.86075   3.15449 
 C                     5.03445  -2.32667   3.54239 
 C                     8.79057  -3.46848   3.76645 
 C                     8.71216  -4.51954   4.8759 
 H                     9.86341  -5.3918    5.09095 
 N                     7.64571   1.95498   2.13071 
 C                     7.21372   1.6484    3.37194 
 C                     7.18867   2.91822   4.11429 
 C                     7.48343   4.02379   3.16269 
 C                     7.47977   3.2993    1.90762 
 C                     6.98317   2.98851   5.59964 
 C                     7.71584   5.49252   3.34979 
 O                     7.71885   6.30539   2.3588 
 C                     7.84678   5.96417   4.73612 
 N                     7.4328    2.07208  -0.89389 
 C                     7.29436   3.38103  -0.61927 
 C                     7.24183   4.20154  -1.88592 
 C                     7.61825   3.19197  -3.06772 
 C                     7.74148   1.88486  -2.25429 
 C                     5.90004   4.86624  -2.19278 
 C                     8.79671   3.60029  -3.99355 
 C                     10.09427   3.57673  -3.2182 
 N                     8.12582  -0.76574  -0.95601 
 C                     8.06345  -0.54825  -2.34988 
 C                     8.1673   -1.86984  -3.00182 
 C                     8.26049  -2.77385  -1.9329 
 C                     8.19741  -2.06748  -0.70141 
 C                     8.11925  -2.11199  -4.40366 
 C                     8.38719  -4.16603  -1.56619 
 O                     8.57073  -5.21392  -2.18425 
 C                     8.10805  -4.30551  -0.00766 
 C                     9.19438  -5.16127   0.58402 
 O                     10.37304  -4.76492   0.60001 
 O                     8.63446  -6.20347   1.22486 
 C                     9.67149  -7.07551   1.83799 
 H                     6.22926   0.38253   4.75274 
 H                     7.2555    4.92019   0.58525 
 H                     7.98865   0.65304  -3.96322 
 H                     6.91151  -4.13713   2.88689 
 H                     6.76034  -2.14918   4.87744 
 H                     4.85026  -3.04755   2.75974 
 H                     4.67518  -1.3491    3.24854 
 H                     4.50602  -2.57662   4.46684 
 H                     9.05084  -2.58466   4.363 
 H                     9.56543  -3.73205   3.07309 
 H                     7.78861  -5.10861   4.82111 
 H                     8.64509  -4.0048    5.83745 
 H                     6.62779   2.03196   6.00227 
 H                     6.15371   3.68208   5.77522 
 H                     7.86589   3.3517    6.13027 
 H                     6.94662   5.70985   5.29064 
 H                     8.09714   7.0242    4.66175 
 H                     8.67292   5.42469   5.21264 
 H                     7.97288   5.00029  -1.85987 
 H                     6.77958   3.05021  -3.76512 
 H                     5.97312   5.96415  -2.30823 
 H                     5.20492   4.6123   -1.40357 
 H                     5.39073   4.49105  -3.0788 
 H                     8.66397   4.62634  -4.34536 
 H                     8.89561   2.96939  -4.87057 
 H                     10.10107   4.55022  -2.71884 
 H                     10.94179   3.47322  -3.89276 
 H                     10.07292   2.80646  -2.43853 
 H                     8.89665  -2.83202  -4.62207 
 H                     8.25622  -1.19357  -4.9707 
 H                     7.10374  -2.50561  -4.4989 
 H                     7.12199  -4.75669   0.10945 
 H                     9.50595  -8.08699   1.45433 
 H                     9.57689  -6.9294    2.93044 
 H                     10.70256  -6.90634   1.55038 
 
 ITRead=  0  0  0  0  0  0  0  0  0  0  0  0  0  0  0  0  0  0  0  0
 ITRead=  0  0  0  0  0  0  0  0  0  0  0  0  0  0  0  0  0  0  0  0
 ITRead=  0  0  0  0  0  0  0  0  0  0  0  0  0  0  0  0  0  0  0  0
 ITRead=  0  0  0  0  0  0  0  0  0  0  0  0  0  0  0  0  0  0  0  0
 ITRead=  0  0  0  0  0  0  0  0  0  0  0  0  0  0  0  0  0  0  0  0
 ITRead=  0  0  0  0  0  0  0  0  0  0  0  0  0  0  0  0  0  0  0  0
 ITRead=  0  0  0  0  0  0  0  0  0  0  0  0  0  0  0  0  0  0  0  0
 ITRead=  0  0  0  0  0  0  0  0  0  0  0  0  0  0  0  0  0  0
 MicOpt= -1 -1 -1 -1 -1 -1 -1 -1 -1 -1 -1 -1 -1 -1 -1 -1 -1 -1 -1 -1
 MicOpt= -1 -1 -1 -1 -1 -1 -1 -1 -1 -1 -1 -1 -1 -1 -1 -1 -1 -1 -1 -1
 MicOpt= -1 -1 -1 -1 -1 -1 -1 -1 -1 -1 -1 -1 -1 -1 -1 -1 -1 -1 -1 -1
 MicOpt= -1 -1 -1 -1 -1 -1 -1 -1 -1 -1 -1 -1 -1 -1 -1 -1 -1 -1 -1 -1
 MicOpt= -1 -1 -1 -1 -1 -1 -1 -1 -1 -1 -1 -1 -1 -1 -1 -1 -1 -1 -1 -1
 MicOpt= -1 -1 -1 -1 -1 -1 -1 -1 -1 -1 -1 -1 -1 -1 -1 -1 -1 -1 -1 -1
 MicOpt= -1 -1 -1 -1 -1 -1 -1 -1 -1 -1 -1 -1 -1 -1 -1 -1 -1 -1 -1 -1
 MicOpt= -1 -1 -1 -1 -1 -1 -1 -1 -1 -1 -1 -1 -1 -1 -1 -1 -1 -1
 NAtoms=    158 NQM=      158 NQMF=       0 NMMI=      0 NMMIF=      0
                NMic=       0 NMicF=      0.
                    Isotopes and Nuclear Properties:
 (Nuclear quadrupole moments (NQMom) in fm**2, nuclear magnetic moments (NMagM)
  in nuclear magnetons)

  Atom         1           2           3           4           5           6           7           8           9          10
 IAtWgt=          24          12          12          12          12          14          12          12          12          12
 AtmWgt=  23.9850450  12.0000000  12.0000000  12.0000000  12.0000000  14.0030740  12.0000000  12.0000000  12.0000000  12.0000000
 NucSpn=           0           0           0           0           0           2           0           0           0           0
 AtZEff=  -0.0000000  -0.0000000  -0.0000000  -0.0000000  -0.0000000  -0.0000000  -0.0000000  -0.0000000  -0.0000000  -0.0000000
 NQMom=    0.0000000   0.0000000   0.0000000   0.0000000   0.0000000   2.0440000   0.0000000   0.0000000   0.0000000   0.0000000
 NMagM=    0.0000000   0.0000000   0.0000000   0.0000000   0.0000000   0.4037610   0.0000000   0.0000000   0.0000000   0.0000000
 AtZNuc=  12.0000000   6.0000000   6.0000000   6.0000000   6.0000000   7.0000000   6.0000000   6.0000000   6.0000000   6.0000000

  Atom        11          12          13          14          15          16          17          18          19          20
 IAtWgt=          12          12          12           1          14          12          12          12          12          12
 AtmWgt=  12.0000000  12.0000000  12.0000000   1.0078250  14.0030740  12.0000000  12.0000000  12.0000000  12.0000000  12.0000000
 NucSpn=           0           0           0           1           2           0           0           0           0           0
 AtZEff=  -0.0000000  -0.0000000  -0.0000000  -0.0000000  -0.0000000  -0.0000000  -0.0000000  -0.0000000  -0.0000000  -0.0000000
 NQMom=    0.0000000   0.0000000   0.0000000   0.0000000   2.0440000   0.0000000   0.0000000   0.0000000   0.0000000   0.0000000
 NMagM=    0.0000000   0.0000000   0.0000000   2.7928460   0.4037610   0.0000000   0.0000000   0.0000000   0.0000000   0.0000000
 AtZNuc=   6.0000000   6.0000000   6.0000000   1.0000000   7.0000000   6.0000000   6.0000000   6.0000000   6.0000000   6.0000000

  Atom        21          22          23          24          25          26          27          28          29          30
 IAtWgt=          12          16          12          14          12          12          12          12          12          12
 AtmWgt=  12.0000000  15.9949146  12.0000000  14.0030740  12.0000000  12.0000000  12.0000000  12.0000000  12.0000000  12.0000000
 NucSpn=           0           0           0           2           0           0           0           0           0           0
 AtZEff=  -0.0000000  -0.0000000  -0.0000000  -0.0000000  -0.0000000  -0.0000000  -0.0000000  -0.0000000  -0.0000000  -0.0000000
 NQMom=    0.0000000   0.0000000   0.0000000   2.0440000   0.0000000   0.0000000   0.0000000   0.0000000   0.0000000   0.0000000
 NMagM=    0.0000000   0.0000000   0.0000000   0.4037610   0.0000000   0.0000000   0.0000000   0.0000000   0.0000000   0.0000000
 AtZNuc=   6.0000000   8.0000000   6.0000000   7.0000000   6.0000000   6.0000000   6.0000000   6.0000000   6.0000000   6.0000000

  Atom        31          32          33          34          35          36          37          38          39          40
 IAtWgt=          12          14          12          12          12          12          12          12          16          12
 AtmWgt=  12.0000000  14.0030740  12.0000000  12.0000000  12.0000000  12.0000000  12.0000000  12.0000000  15.9949146  12.0000000
 NucSpn=           0           2           0           0           0           0           0           0           0           0
 AtZEff=  -0.0000000  -0.0000000  -0.0000000  -0.0000000  -0.0000000  -0.0000000  -0.0000000  -0.0000000  -0.0000000  -0.0000000
 NQMom=    0.0000000   2.0440000   0.0000000   0.0000000   0.0000000   0.0000000   0.0000000   0.0000000   0.0000000   0.0000000
 NMagM=    0.0000000   0.4037610   0.0000000   0.0000000   0.0000000   0.0000000   0.0000000   0.0000000   0.0000000   0.0000000
 AtZNuc=   6.0000000   7.0000000   6.0000000   6.0000000   6.0000000   6.0000000   6.0000000   6.0000000   8.0000000   6.0000000

  Atom        41          42          43          44          45          46          47          48          49          50
 IAtWgt=          12          16          16          12           1           1           1           1           1           1
 AtmWgt=  12.0000000  15.9949146  15.9949146  12.0000000   1.0078250   1.0078250   1.0078250   1.0078250   1.0078250   1.0078250
 NucSpn=           0           0           0           0           1           1           1           1           1           1
 AtZEff=  -0.0000000  -0.0000000  -0.0000000  -0.0000000  -0.0000000  -0.0000000  -0.0000000  -0.0000000  -0.0000000  -0.0000000
 NQMom=    0.0000000   0.0000000   0.0000000   0.0000000   0.0000000   0.0000000   0.0000000   0.0000000   0.0000000   0.0000000
 NMagM=    0.0000000   0.0000000   0.0000000   0.0000000   2.7928460   2.7928460   2.7928460   2.7928460   2.7928460   2.7928460
 AtZNuc=   6.0000000   8.0000000   8.0000000   6.0000000   1.0000000   1.0000000   1.0000000   1.0000000   1.0000000   1.0000000

  Atom        51          52          53          54          55          56          57          58          59          60
 IAtWgt=           1           1           1           1           1           1           1           1           1           1
 AtmWgt=   1.0078250   1.0078250   1.0078250   1.0078250   1.0078250   1.0078250   1.0078250   1.0078250   1.0078250   1.0078250
 NucSpn=           1           1           1           1           1           1           1           1           1           1
 AtZEff=  -0.0000000  -0.0000000  -0.0000000  -0.0000000  -0.0000000  -0.0000000  -0.0000000  -0.0000000  -0.0000000  -0.0000000
 NQMom=    0.0000000   0.0000000   0.0000000   0.0000000   0.0000000   0.0000000   0.0000000   0.0000000   0.0000000   0.0000000
 NMagM=    2.7928460   2.7928460   2.7928460   2.7928460   2.7928460   2.7928460   2.7928460   2.7928460   2.7928460   2.7928460
 AtZNuc=   1.0000000   1.0000000   1.0000000   1.0000000   1.0000000   1.0000000   1.0000000   1.0000000   1.0000000   1.0000000

  Atom        61          62          63          64          65          66          67          68          69          70
 IAtWgt=           1           1           1           1           1           1           1           1           1           1
 AtmWgt=   1.0078250   1.0078250   1.0078250   1.0078250   1.0078250   1.0078250   1.0078250   1.0078250   1.0078250   1.0078250
 NucSpn=           1           1           1           1           1           1           1           1           1           1
 AtZEff=  -0.0000000  -0.0000000  -0.0000000  -0.0000000  -0.0000000  -0.0000000  -0.0000000  -0.0000000  -0.0000000  -0.0000000
 NQMom=    0.0000000   0.0000000   0.0000000   0.0000000   0.0000000   0.0000000   0.0000000   0.0000000   0.0000000   0.0000000
 NMagM=    2.7928460   2.7928460   2.7928460   2.7928460   2.7928460   2.7928460   2.7928460   2.7928460   2.7928460   2.7928460
 AtZNuc=   1.0000000   1.0000000   1.0000000   1.0000000   1.0000000   1.0000000   1.0000000   1.0000000   1.0000000   1.0000000

  Atom        71          72          73          74          75          76          77          78          79          80
 IAtWgt=           1           1           1           1           1           1           1           1           1          24
 AtmWgt=   1.0078250   1.0078250   1.0078250   1.0078250   1.0078250   1.0078250   1.0078250   1.0078250   1.0078250  23.9850450
 NucSpn=           1           1           1           1           1           1           1           1           1           0
 AtZEff=  -0.0000000  -0.0000000  -0.0000000  -0.0000000  -0.0000000  -0.0000000  -0.0000000  -0.0000000  -0.0000000  -0.0000000
 NQMom=    0.0000000   0.0000000   0.0000000   0.0000000   0.0000000   0.0000000   0.0000000   0.0000000   0.0000000   0.0000000
 NMagM=    2.7928460   2.7928460   2.7928460   2.7928460   2.7928460   2.7928460   2.7928460   2.7928460   2.7928460   0.0000000
 AtZNuc=   1.0000000   1.0000000   1.0000000   1.0000000   1.0000000   1.0000000   1.0000000   1.0000000   1.0000000  12.0000000

  Atom        81          82          83          84          85          86          87          88          89          90
 IAtWgt=          12          12          12          12          14          12          12          12          12          12
 AtmWgt=  12.0000000  12.0000000  12.0000000  12.0000000  14.0030740  12.0000000  12.0000000  12.0000000  12.0000000  12.0000000
 NucSpn=           0           0           0           0           2           0           0           0           0           0
 AtZEff=  -0.0000000  -0.0000000  -0.0000000  -0.0000000  -0.0000000  -0.0000000  -0.0000000  -0.0000000  -0.0000000  -0.0000000
 NQMom=    0.0000000   0.0000000   0.0000000   0.0000000   2.0440000   0.0000000   0.0000000   0.0000000   0.0000000   0.0000000
 NMagM=    0.0000000   0.0000000   0.0000000   0.0000000   0.4037610   0.0000000   0.0000000   0.0000000   0.0000000   0.0000000
 AtZNuc=   6.0000000   6.0000000   6.0000000   6.0000000   7.0000000   6.0000000   6.0000000   6.0000000   6.0000000   6.0000000

  Atom        91          92          93          94          95          96          97          98          99         100
 IAtWgt=          12          12           1          14          12          12          12          12          12          12
 AtmWgt=  12.0000000  12.0000000   1.0078250  14.0030740  12.0000000  12.0000000  12.0000000  12.0000000  12.0000000  12.0000000
 NucSpn=           0           0           1           2           0           0           0           0           0           0
 AtZEff=  -0.0000000  -0.0000000  -0.0000000  -0.0000000  -0.0000000  -0.0000000  -0.0000000  -0.0000000  -0.0000000  -0.0000000
 NQMom=    0.0000000   0.0000000   0.0000000   2.0440000   0.0000000   0.0000000   0.0000000   0.0000000   0.0000000   0.0000000
 NMagM=    0.0000000   0.0000000   2.7928460   0.4037610   0.0000000   0.0000000   0.0000000   0.0000000   0.0000000   0.0000000
 AtZNuc=   6.0000000   6.0000000   1.0000000   7.0000000   6.0000000   6.0000000   6.0000000   6.0000000   6.0000000   6.0000000

  Atom       101         102         103         104         105         106         107         108         109         110
 IAtWgt=          16          12          14          12          12          12          12          12          12          12
 AtmWgt=  15.9949146  12.0000000  14.0030740  12.0000000  12.0000000  12.0000000  12.0000000  12.0000000  12.0000000  12.0000000
 NucSpn=           0           0           2           0           0           0           0           0           0           0
 AtZEff=  -0.0000000  -0.0000000  -0.0000000  -0.0000000  -0.0000000  -0.0000000  -0.0000000  -0.0000000  -0.0000000  -0.0000000
 NQMom=    0.0000000   0.0000000   2.0440000   0.0000000   0.0000000   0.0000000   0.0000000   0.0000000   0.0000000   0.0000000
 NMagM=    0.0000000   0.0000000   0.4037610   0.0000000   0.0000000   0.0000000   0.0000000   0.0000000   0.0000000   0.0000000
 AtZNuc=   8.0000000   6.0000000   7.0000000   6.0000000   6.0000000   6.0000000   6.0000000   6.0000000   6.0000000   6.0000000

  Atom       111         112         113         114         115         116         117         118         119         120
 IAtWgt=          14          12          12          12          12          12          12          16          12          12
 AtmWgt=  14.0030740  12.0000000  12.0000000  12.0000000  12.0000000  12.0000000  12.0000000  15.9949146  12.0000000  12.0000000
 NucSpn=           2           0           0           0           0           0           0           0           0           0
 AtZEff=  -0.0000000  -0.0000000  -0.0000000  -0.0000000  -0.0000000  -0.0000000  -0.0000000  -0.0000000  -0.0000000  -0.0000000
 NQMom=    2.0440000   0.0000000   0.0000000   0.0000000   0.0000000   0.0000000   0.0000000   0.0000000   0.0000000   0.0000000
 NMagM=    0.4037610   0.0000000   0.0000000   0.0000000   0.0000000   0.0000000   0.0000000   0.0000000   0.0000000   0.0000000
 AtZNuc=   7.0000000   6.0000000   6.0000000   6.0000000   6.0000000   6.0000000   6.0000000   8.0000000   6.0000000   6.0000000

  Atom       121         122         123         124         125         126         127         128         129         130
 IAtWgt=          16          16          12           1           1           1           1           1           1           1
 AtmWgt=  15.9949146  15.9949146  12.0000000   1.0078250   1.0078250   1.0078250   1.0078250   1.0078250   1.0078250   1.0078250
 NucSpn=           0           0           0           1           1           1           1           1           1           1
 AtZEff=  -0.0000000  -0.0000000  -0.0000000  -0.0000000  -0.0000000  -0.0000000  -0.0000000  -0.0000000  -0.0000000  -0.0000000
 NQMom=    0.0000000   0.0000000   0.0000000   0.0000000   0.0000000   0.0000000   0.0000000   0.0000000   0.0000000   0.0000000
 NMagM=    0.0000000   0.0000000   0.0000000   2.7928460   2.7928460   2.7928460   2.7928460   2.7928460   2.7928460   2.7928460
 AtZNuc=   8.0000000   8.0000000   6.0000000   1.0000000   1.0000000   1.0000000   1.0000000   1.0000000   1.0000000   1.0000000

  Atom       131         132         133         134         135         136         137         138         139         140
 IAtWgt=           1           1           1           1           1           1           1           1           1           1
 AtmWgt=   1.0078250   1.0078250   1.0078250   1.0078250   1.0078250   1.0078250   1.0078250   1.0078250   1.0078250   1.0078250
 NucSpn=           1           1           1           1           1           1           1           1           1           1
 AtZEff=  -0.0000000  -0.0000000  -0.0000000  -0.0000000  -0.0000000  -0.0000000  -0.0000000  -0.0000000  -0.0000000  -0.0000000
 NQMom=    0.0000000   0.0000000   0.0000000   0.0000000   0.0000000   0.0000000   0.0000000   0.0000000   0.0000000   0.0000000
 NMagM=    2.7928460   2.7928460   2.7928460   2.7928460   2.7928460   2.7928460   2.7928460   2.7928460   2.7928460   2.7928460
 AtZNuc=   1.0000000   1.0000000   1.0000000   1.0000000   1.0000000   1.0000000   1.0000000   1.0000000   1.0000000   1.0000000

  Atom       141         142         143         144         145         146         147         148         149         150
 IAtWgt=           1           1           1           1           1           1           1           1           1           1
 AtmWgt=   1.0078250   1.0078250   1.0078250   1.0078250   1.0078250   1.0078250   1.0078250   1.0078250   1.0078250   1.0078250
 NucSpn=           1           1           1           1           1           1           1           1           1           1
 AtZEff=  -0.0000000  -0.0000000  -0.0000000  -0.0000000  -0.0000000  -0.0000000  -0.0000000  -0.0000000  -0.0000000  -0.0000000
 NQMom=    0.0000000   0.0000000   0.0000000   0.0000000   0.0000000   0.0000000   0.0000000   0.0000000   0.0000000   0.0000000
 NMagM=    2.7928460   2.7928460   2.7928460   2.7928460   2.7928460   2.7928460   2.7928460   2.7928460   2.7928460   2.7928460
 AtZNuc=   1.0000000   1.0000000   1.0000000   1.0000000   1.0000000   1.0000000   1.0000000   1.0000000   1.0000000   1.0000000

  Atom       151         152         153         154         155         156         157         158
 IAtWgt=           1           1           1           1           1           1           1           1
 AtmWgt=   1.0078250   1.0078250   1.0078250   1.0078250   1.0078250   1.0078250   1.0078250   1.0078250
 NucSpn=           1           1           1           1           1           1           1           1
 AtZEff=  -0.0000000  -0.0000000  -0.0000000  -0.0000000  -0.0000000  -0.0000000  -0.0000000  -0.0000000
 NQMom=    0.0000000   0.0000000   0.0000000   0.0000000   0.0000000   0.0000000   0.0000000   0.0000000
 NMagM=    2.7928460   2.7928460   2.7928460   2.7928460   2.7928460   2.7928460   2.7928460   2.7928460
 AtZNuc=   1.0000000   1.0000000   1.0000000   1.0000000   1.0000000   1.0000000   1.0000000   1.0000000
 Leave Link  101 at Fri Sep  3 17:05:49 2021, MaxMem= 23488102400 cpu:               3.3 elap:               0.2
 (Enter /sw/apps/gaussian-16.0/g16/l202.exe)
 Stoichiometry    C68H72Mg2N8O8
 Framework group  C1[X(C68H72Mg2N8O8)]
 Deg. of freedom   468
 Full point group                 C1      NOp   1
 Largest Abelian subgroup         C1      NOp   1
 Largest concise Abelian subgroup C1      NOp   1
                         Standard orientation:                         
 ---------------------------------------------------------------------
 Center     Atomic      Atomic             Coordinates (Angstroms)
 Number     Number       Type             X           Y           Z
 ---------------------------------------------------------------------
      1         12           0       -3.833796    0.360939   -0.877309
      2          6           0       -4.031049   -2.967580    0.424329
      3          6           0       -5.439905    1.401402    1.947743
      4          6           0       -4.077407    3.231131   -2.203685
      5          6           0       -3.293629   -1.056232   -4.015064
      6          7           0       -4.587033   -0.738452    0.890350
      7          6           0       -4.546375   -2.004248    1.294429
      8          6           0       -5.033992   -2.200550    2.761082
      9          6           0       -5.951590   -0.903806    2.896975
     10          6           0       -5.265335   -0.012643    1.876776
     11          6           0       -7.395071   -1.130267    2.459275
     12          6           0       -3.852714   -2.176714    3.788576
     13          6           0       -4.197428   -2.682675    5.192332
     14          1           0       -3.189426   -3.421561    5.937534
     15          7           0       -4.188038    2.124199   -0.059827
     16          6           0       -4.841561    2.361176    1.102944
     17          6           0       -4.845179    3.829697    1.276481
     18          6           0       -4.307918    4.436841    0.027153
     19          6           0       -4.192637    3.274630   -0.816264
     20          6           0       -5.277339    4.507835    2.540252
     21          6           0       -3.964371    5.843025   -0.350675
     22          8           0       -3.731754    6.184753   -1.560504
     23          6           0       -3.994366    6.840727    0.734099
     24          7           0       -3.924451    1.005652   -2.860680
     25          6           0       -3.968518    2.308157   -3.161551
     26          6           0       -3.743332    2.538052   -4.626604
     27          6           0       -3.292153    1.130493   -5.230730
     28          6           0       -3.423297    0.270770   -3.949345
     29          6           0       -4.949499    3.068320   -5.413996
     30          6           0       -1.952491    1.095888   -6.008245
     31          6           0       -0.801912    1.347632   -5.059620
     32          7           0       -3.507501   -1.637703   -1.658336
     33          6           0       -3.327582   -1.999146   -3.001341
     34          6           0       -3.253637   -3.471074   -3.046382
     35          6           0       -3.413312   -3.866996   -1.719884
     36          6           0       -3.602893   -2.716722   -0.901824
     37          6           0       -3.118328   -4.263150   -4.220580
     38          6           0       -3.492485   -4.995555   -0.806680
     39          8           0       -3.311795   -6.209640   -0.910808
     40          6           0       -4.017127   -4.465698    0.600384
     41          6           0       -3.122532   -5.040331    1.664717
     42          8           0       -1.925394   -4.697782    1.747702
     43          8           0       -3.866963   -5.713443    2.555383
     44          6           0       -3.043610   -6.284355    3.654612
     45          1           0       -6.142872    1.810553    2.676011
     46          1           0       -4.045717    4.208783   -2.689103
     47          1           0       -3.041817   -1.564453   -4.947670
     48          1           0       -5.630882   -3.097860    2.925339
     49          1           0       -5.886613   -0.461642    3.890952
     50          1           0       -7.523913   -2.112033    2.003801
     51          1           0       -7.606275   -0.343701    1.734568
     52          1           0       -8.082087   -0.964993    3.289618
     53          1           0       -3.599480   -1.142385    4.021165
     54          1           0       -2.996537   -2.732783    3.405076
     55          1           0       -5.147448   -3.217741    5.201014
     56          1           0       -4.367338   -1.818545    5.834680
     57          1           0       -5.775092    3.814316    3.216874
     58          1           0       -6.051721    5.224768    2.268129
     59          1           0       -4.452933    5.025644    3.030721
     60          1           0       -4.992302    6.865990    1.172316
     61          1           0       -3.635320    7.771570    0.296529
     62          1           0       -3.319062    6.519787    1.527768
     63          1           0       -2.951348    3.267598   -4.790768
     64          1           0       -4.021183    0.737018   -5.939508
     65          1           0       -4.754104    4.005501   -5.935741
     66          1           0       -5.784366    3.172882   -4.721641
     67          1           0       -5.360031    2.372205   -6.144957
     68          1           0       -1.928746    1.885938   -6.758046
     69          1           0       -1.775331    0.149016   -6.518440
     70          1           0       -0.770948    2.434844   -4.997620
     71          1           0        0.126409    0.953652   -5.474603
     72          1           0       -1.020004    0.970349   -4.060331
     73          1           0       -2.383836   -5.033487   -3.985912
     74          1           0       -2.801568   -3.659713   -5.070951
     75          1           0       -4.136083   -4.637361   -4.330114
     76          1           0       -5.046098   -4.809537    0.700959
     77          1           0       -3.242588   -7.355765    3.681492
     78          1           0       -3.274615   -5.704249    4.548210
     79          1           0       -1.963962   -6.279350    3.500747
     80         12           0        3.899900    1.038507    0.811548
     81          6           0        4.366568   -1.974569   -1.081259
     82          6           0        2.626859   -0.904825    3.309032
     83          6           0        3.061630    3.700716    2.320635
     84          6           0        4.123839    2.794304   -2.190578
     85          7           0        3.589153   -1.145317    0.974717
     86          6           0        3.861380   -2.196853    0.216747
     87          6           0        3.651623   -3.566166    0.917127
     88          6           0        2.588387   -3.106909    2.029550
     89          6           0        2.975265   -1.633852    2.144034
     90          6           0        1.147299   -3.186675    1.553890
     91          6           0        4.969404   -4.110555    1.572188
     92          6           0        4.914649   -5.577807    2.003380
     93          1           0        6.124492   -6.385843    1.877607
     94          7           0        3.441203    1.343967    2.718078
     95          6           0        2.957875    0.438156    3.593954
     96          6           0        2.766842    1.164067    4.859148
     97          6           0        3.021058    2.609667    4.613539
     98          6           0        3.167383    2.610334    3.171773
     99          6           0        2.457653    0.472738    6.155258
    100          6           0        3.104350    3.797200    5.524043
    101          8           0        3.098258    4.995718    5.069789
    102          6           0        3.099049    3.518206    6.967526
    103          7           0        3.419556    2.947249    0.141983
    104          6           0        3.143294    3.935513    1.010859
    105          6           0        3.099607    5.275841    0.316589
    106          6           0        3.644939    5.011104   -1.163310
    107          6           0        3.833733    3.479816   -1.093271
    108          6           0        1.725653    5.941360    0.240937
    109          6           0        4.839624    5.882134   -1.639429
    110          6           0        6.079532    5.534829   -0.847347
    111          7           0        4.373458    0.556477   -1.240637
    112          6           0        4.383946    1.438433   -2.343411
    113          6           0        4.652038    0.626239   -3.547935
    114          6           0        4.756928   -0.685558   -3.061422
    115          6           0        4.547526   -0.693227   -1.655862
    116          6           0        4.719595    1.115340   -4.882969
    117          6           0        4.986638   -2.066944   -3.418774
    118          8           0        5.306462   -2.655645   -4.450714
    119          6           0        4.618739   -2.979711   -2.170617
    120          6           0        5.737575   -3.964785   -1.969722
    121          8           0        6.871076   -3.574904   -1.638425
    122          8           0        5.234695   -5.212632   -1.988608
    123          6           0        6.304625   -6.224813   -1.782322
    124          1           0        2.004694   -1.392872    4.059767
    125          1           0        2.883083    4.662677    2.806664
    126          1           0        4.306082    3.280335   -3.151428
    127          1           0        3.222388   -4.336982    0.288346
    128          1           0        2.757129   -3.619871    2.972814
    129          1           0        1.082585   -3.427484    0.503195
    130          1           0        0.719855   -2.211150    1.745479
    131          1           0        0.583959   -3.889665    2.174191
    132          1           0        5.107054   -3.632245    2.550463
    133          1           0        5.809523   -3.955670    0.923470
    134          1           0        4.054926   -6.103037    1.569836
    135          1           0        4.736833   -5.616450    3.080841
    136          1           0        2.165911   -0.572396    5.994089
    137          1           0        1.558054    0.946009    6.563435
    138          1           0        3.266033    0.562844    6.884005
    139          1           0        2.191325    2.978983    7.227785
    140          1           0        3.255145    4.483829    7.452377
    141          1           0        3.937901    2.852063    7.198176
    142          1           0        3.750678    5.987775    0.808901
    143          1           0        2.871005    5.197922   -1.922227
    144          1           0        1.704852    6.951991    0.690680
    145          1           0        1.006039    5.294733    0.725249
    146          1           0        1.312954    6.035988   -0.762019
    147          1           0        4.636629    6.939150   -1.450541
    148          1           0        5.054150    5.779551   -2.697935
    149          1           0        5.963543    6.127422    0.065050
    150          1           0        6.975860    5.822136   -1.393319
    151          1           0        6.077500    4.477932   -0.556449
    152          1           0        5.572748    0.638162   -5.346574
    153          1           0        4.808756    2.199474   -4.905177
    154          1           0        3.753198    0.775062   -5.264486
    155          1           0        3.672812   -3.474543   -2.394124
    156          1           0        6.258720   -6.915520   -2.629971
    157          1           0        6.124707   -6.648980   -0.776610
    158          1           0        7.332544   -5.886536   -1.840584
 ---------------------------------------------------------------------
 Rotational constants (GHZ):           0.0205035           0.0167741           0.0146575
 Leave Link  202 at Fri Sep  3 17:05:49 2021, MaxMem= 23488102400 cpu:               0.2 elap:               0.0
 (Enter /sw/apps/gaussian-16.0/g16/l301.exe)
 Standard basis: def2SVP (5D, 7F)
 Ernie: Thresh=  0.10000D-02 Tol=  0.10000D-05 Strict=F.
 There are  1658 symmetry adapted cartesian basis functions of A   symmetry.
 There are  1572 symmetry adapted basis functions of A   symmetry.
  1572 basis functions,  2678 primitive gaussians,  1658 cartesian basis functions
   312 alpha electrons      312 beta electrons
       nuclear repulsion energy     15945.3395715989 Hartrees.
 IExCor=20419 DFT=T Ex+Corr=CAM-B3LYP ExCW=0 ScaHFX=  1.000000
 ScaDFX=  1.000000  1.000000  1.000000  0.810000 ScalE2=  1.000000  1.000000
 IRadAn=      5 IRanWt=     -1 IRanGd=            0 ICorTp=0 IEmpDi=  4
 HFx  wShort=  0.000000 wLong=  0.330000 cFull=  0.190000 cShort=  0.000000 cLong=  0.460000
 DFx  wShort=  0.000000 wLong=  0.330000 cFull=  0.190000 cShort=  0.000000 cLong=  0.460000
 NAtoms=  158 NActive=  158 NUniq=  158 SFac= 1.00D+00 NAtFMM=   60 NAOKFM=T Big=T
 Integral buffers will be    131072 words long.
 Raffenetti 1 integral format.
 Two-electron integral symmetry is turned on.
 Leave Link  301 at Fri Sep  3 17:05:50 2021, MaxMem= 23488102400 cpu:               1.3 elap:               0.1
 (Enter /sw/apps/gaussian-16.0/g16/l302.exe)
 NPDir=0 NMtPBC=     1 NCelOv=     1 NCel=       1 NClECP=     1 NCelD=      1
         NCelK=      1 NCelE2=     1 NClLst=     1 CellRange=     0.0.
 One-electron integrals computed using PRISM.
 One-electron integral symmetry used in STVInt
   1 Symmetry operations used in ECPInt.
 ECPInt:  NShTT=  271216 NPrTT=  987664 LenC2=  164236 LenP2D=  344838.
 LDataN:  DoStor=T MaxTD1= 4 Len=   56
 NBasis=  1572 RedAO= T EigKep=  3.35D-04  NBF=  1572
 NBsUse=  1572 1.00D-06 EigRej= -1.00D+00 NBFU=  1572
 Precomputing XC quadrature grid using
 IXCGrd= 4 IRadAn=           5 IRanWt=          -1 IRanGd=           0 AccXCQ= 0.00D+00.
 Generated NRdTot=       0 NPtTot=           0 NUsed=           0 NTot=          32
 NSgBfM=  1250  1241  1242  1245  1250 MxSgAt=   158 MxSgA2=   158.
 Leave Link  302 at Fri Sep  3 17:05:55 2021, MaxMem= 23488102400 cpu:             131.5 elap:               5.5
 (Enter /sw/apps/gaussian-16.0/g16/l303.exe)
 DipDrv:  MaxL=1.
 Leave Link  303 at Fri Sep  3 17:05:55 2021, MaxMem= 23488102400 cpu:               9.6 elap:               0.5
 (Enter /sw/apps/gaussian-16.0/g16/l308.exe)
 Leave Link  308 at Fri Sep  3 17:05:56 2021, MaxMem= 23488102400 cpu:              15.4 elap:               0.7
 (Enter /sw/apps/gaussian-16.0/g16/l401.exe)
 ExpMin= 3.36D-02 ExpMax= 4.95D+03 ExpMxC= 7.45D+02 IAcc=3 IRadAn=         5 AccDes= 0.00D+00
 Harris functional with IExCor=20419 and IRadAn=       5 diagonalized for initial guess.
 HarFok:  IExCor=20419 AccDes= 0.00D+00 IRadAn=         5 IDoV= 1 UseB2=F ITyADJ=14
 ICtDFT=  3500011 ScaDFX=  1.000000  1.000000  1.000000  1.000000
 FoFCou: FMM=F IPFlag=           0 FMFlag=      100000 FMFlg1=        2001
         NFxFlg=           0 DoJE=T BraDBF=F KetDBF=T FulRan=T
         wScrn=  0.000000 ICntrl=       500 IOpCl=  0 I1Cent=   200000004 NGrid=           0
         NMat0=    1 NMatS0=      1 NMatT0=    0 NMatD0=    1 NMtDS0=    0 NMtDT0=    0
 Petite list used in FoFCou.
 Harris En= -3918.66160405661    
 JPrj=0 DoOrth=F DoCkMO=F.
 Leave Link  401 at Fri Sep  3 17:06:05 2021, MaxMem= 23488102400 cpu:             204.0 elap:               8.5
 (Enter /sw/apps/gaussian-16.0/g16/l502.exe)
 Integral symmetry usage will be decided dynamically.
 Closed shell SCF:
 Using DIIS extrapolation, IDIIS=  1040.
 NGot= 23488102400 LenX= 23482547354 LenY= 23479796732
 Requested convergence on RMS density matrix=1.00D-08 within 128 cycles.
 Requested convergence on MAX density matrix=1.00D-06.
 Requested convergence on             energy=1.00D-06.
 No special actions if energy rises.
 Fock matrices will be formed incrementally for  20 cycles.

 Cycle   1  Pass 1  IDiag  1:
 FoFJK:  IHMeth= 1 ICntrl=       0 DoSepK=T KAlg= 0 I1Cent=           0 FoldK=F
 IRaf=         1 NMat=       1 IRICut=       1 DoRegI=T DoRafI=F ISym2E= 0 IDoP0=0 IntGTp=1.
 FoFCou: FMM=T IPFlag=           0 FMFlag=      100000 FMFlg1=        2001
         NFxFlg=           0 DoJE=T BraDBF=F KetDBF=F FulRan=T
         wScrn=  0.000000 ICntrl=       500 IOpCl=  0 I1Cent=           0 NGrid=           0
         NMat0=    1 NMatS0=      1 NMatT0=    0 NMatD0=    1 NMtDS0=    0 NMtDT0=    0
 Symmetry not used in FoFCou.
 FMM levels:  10  Number of levels for PrismC:   9
 E= -4068.95085411612    
 DIIS: error= 2.01D-02 at cycle   1 NSaved=   1.
 NSaved= 1 IEnMin= 1 EnMin= -4068.95085411612     IErMin= 1 ErrMin= 2.01D-02
 ErrMax= 2.01D-02  0.00D+00 EMaxC= 1.00D-01 BMatC= 1.69D+00 BMatP= 1.69D+00
 IDIUse=3 WtCom= 7.99D-01 WtEn= 2.01D-01
 Coeff-Com:  0.100D+01
 Coeff-En:   0.100D+01
 Coeff:      0.100D+01
 Gap=     0.119 Goal=   None    Shift=    0.000
 GapD=    0.119 DampG=1.000 DampE=0.500 DampFc=0.5000 IDamp=-1.
 Damping current iteration by 5.00D-01
 RMSDP=1.58D-03 MaxDP=1.37D-01              OVMax= 2.02D-01

 Cycle   2  Pass 1  IDiag  1:
 RMSU=  7.75D-04    CP:  9.82D-01
 E= -4069.34109483204     Delta-E=       -0.390240715918 Rises=F Damp=T
 DIIS: error= 1.25D-02 at cycle   2 NSaved=   2.
 NSaved= 2 IEnMin= 2 EnMin= -4069.34109483204     IErMin= 2 ErrMin= 1.25D-02
 ErrMax= 1.25D-02  0.00D+00 EMaxC= 1.00D-01 BMatC= 3.06D-01 BMatP= 1.69D+00
 IDIUse=3 WtCom= 8.75D-01 WtEn= 1.25D-01
 Coeff-Com: -0.214D+00 0.121D+01
 Coeff-En:   0.000D+00 0.100D+01
 Coeff:     -0.188D+00 0.119D+01
 Gap=     0.131 Goal=   None    Shift=    0.000
 RMSDP=7.71D-04 MaxDP=9.42D-02 DE=-3.90D-01 OVMax= 1.94D-01

 Cycle   3  Pass 1  IDiag  1:
 RMSU=  7.38D-04    CP:  9.68D-01  1.24D+00
 E= -4069.63051587658     Delta-E=       -0.289421044537 Rises=F Damp=F
 DIIS: error= 1.47D-02 at cycle   3 NSaved=   3.
 NSaved= 3 IEnMin= 3 EnMin= -4069.63051587658     IErMin= 2 ErrMin= 1.25D-02
 ErrMax= 1.47D-02  0.00D+00 EMaxC= 1.00D-01 BMatC= 2.00D-01 BMatP= 3.06D-01
 IDIUse=3 WtCom= 8.53D-01 WtEn= 1.47D-01
 Coeff-Com: -0.267D+00 0.651D+00 0.616D+00
 Coeff-En:   0.000D+00 0.000D+00 0.100D+01
 Coeff:     -0.228D+00 0.556D+00 0.672D+00
 Gap=     0.117 Goal=   None    Shift=    0.000
 RMSDP=5.13D-04 MaxDP=4.66D-02 DE=-2.89D-01 OVMax= 1.49D-01

 Cycle   4  Pass 1  IDiag  1:
 RMSU=  2.68D-04    CP:  9.64D-01  1.54D+00  5.02D-01
 E= -4069.76921993824     Delta-E=       -0.138704061668 Rises=F Damp=F
 DIIS: error= 6.39D-03 at cycle   4 NSaved=   4.
 NSaved= 4 IEnMin= 4 EnMin= -4069.76921993824     IErMin= 4 ErrMin= 6.39D-03
 ErrMax= 6.39D-03  0.00D+00 EMaxC= 1.00D-01 BMatC= 4.80D-02 BMatP= 2.00D-01
 IDIUse=3 WtCom= 9.36D-01 WtEn= 6.39D-02
 Coeff-Com: -0.111D+00 0.230D+00 0.406D+00 0.475D+00
 Coeff-En:   0.000D+00 0.000D+00 0.216D+00 0.784D+00
 Coeff:     -0.103D+00 0.215D+00 0.394D+00 0.495D+00
 Gap=     0.117 Goal=   None    Shift=    0.000
 RMSDP=2.03D-04 MaxDP=1.82D-02 DE=-1.39D-01 OVMax= 6.95D-02

 Cycle   5  Pass 1  IDiag  1:
 RMSU=  7.91D-05    CP:  9.64D-01  1.49D+00  6.86D-01  5.46D-01
 E= -4069.81356802585     Delta-E=       -0.044348087609 Rises=F Damp=F
 DIIS: error= 6.38D-04 at cycle   5 NSaved=   5.
 NSaved= 5 IEnMin= 5 EnMin= -4069.81356802585     IErMin= 5 ErrMin= 6.38D-04
 ErrMax= 6.38D-04  0.00D+00 EMaxC= 1.00D-01 BMatC= 1.29D-03 BMatP= 4.80D-02
 IDIUse=3 WtCom= 9.94D-01 WtEn= 6.38D-03
 Coeff-Com: -0.398D-01 0.785D-01 0.174D+00 0.258D+00 0.529D+00
 Coeff-En:   0.000D+00 0.000D+00 0.000D+00 0.000D+00 0.100D+01
 Coeff:     -0.395D-01 0.780D-01 0.173D+00 0.256D+00 0.532D+00
 Gap=     0.117 Goal=   None    Shift=    0.000
 RMSDP=4.62D-05 MaxDP=5.05D-03 DE=-4.43D-02 OVMax= 2.28D-02

 Cycle   6  Pass 1  IDiag  1:
 RMSU=  3.34D-05    CP:  9.64D-01  1.50D+00  6.77D-01  6.21D-01  7.08D-01
 E= -4069.81475346729     Delta-E=       -0.001185441433 Rises=F Damp=F
 DIIS: error= 2.41D-04 at cycle   6 NSaved=   6.
 NSaved= 6 IEnMin= 6 EnMin= -4069.81475346729     IErMin= 6 ErrMin= 2.41D-04
 ErrMax= 2.41D-04  0.00D+00 EMaxC= 1.00D-01 BMatC= 2.17D-04 BMatP= 1.29D-03
 IDIUse=3 WtCom= 9.98D-01 WtEn= 2.41D-03
 Coeff-Com:  0.992D-03-0.422D-02 0.157D-01 0.455D-01 0.312D+00 0.630D+00
 Coeff-En:   0.000D+00 0.000D+00 0.000D+00 0.000D+00 0.143D+00 0.857D+00
 Coeff:      0.990D-03-0.421D-02 0.157D-01 0.454D-01 0.311D+00 0.631D+00
 Gap=     0.117 Goal=   None    Shift=    0.000
 RMSDP=1.86D-05 MaxDP=1.33D-03 DE=-1.19D-03 OVMax= 9.10D-03

 Cycle   7  Pass 1  IDiag  1:
 RMSU=  1.16D-05    CP:  9.64D-01  1.50D+00  6.83D-01  6.18D-01  8.31D-01
                    CP:  7.16D-01
 E= -4069.81500125647     Delta-E=       -0.000247789179 Rises=F Damp=F
 DIIS: error= 1.26D-04 at cycle   7 NSaved=   7.
 NSaved= 7 IEnMin= 7 EnMin= -4069.81500125647     IErMin= 7 ErrMin= 1.26D-04
 ErrMax= 1.26D-04  0.00D+00 EMaxC= 1.00D-01 BMatC= 2.92D-05 BMatP= 2.17D-04
 IDIUse=3 WtCom= 9.99D-01 WtEn= 1.26D-03
 Coeff-Com:  0.451D-02-0.998D-02-0.825D-02-0.235D-02 0.114D+00 0.345D+00
 Coeff-Com:  0.557D+00
 Coeff-En:   0.000D+00 0.000D+00 0.000D+00 0.000D+00 0.000D+00 0.000D+00
 Coeff-En:   0.100D+01
 Coeff:      0.451D-02-0.997D-02-0.824D-02-0.235D-02 0.114D+00 0.344D+00
 Coeff:      0.558D+00
 Gap=     0.117 Goal=   None    Shift=    0.000
 RMSDP=6.89D-06 MaxDP=1.24D-03 DE=-2.48D-04 OVMax= 3.70D-03

 Cycle   8  Pass 1  IDiag  1:
 RMSU=  4.81D-06    CP:  9.64D-01  1.50D+00  6.84D-01  6.24D-01  8.30D-01
                    CP:  8.36D-01  8.03D-01
 E= -4069.81503639026     Delta-E=       -0.000035133799 Rises=F Damp=F
 DIIS: error= 5.62D-05 at cycle   8 NSaved=   8.
 NSaved= 8 IEnMin= 8 EnMin= -4069.81503639026     IErMin= 8 ErrMin= 5.62D-05
 ErrMax= 5.62D-05  0.00D+00 EMaxC= 1.00D-01 BMatC= 4.64D-06 BMatP= 2.92D-05
 IDIUse=1 WtCom= 1.00D+00 WtEn= 0.00D+00
 Coeff-Com:  0.230D-02-0.458D-02-0.792D-02-0.123D-01-0.858D-02 0.334D-01
 Coeff-Com:  0.297D+00 0.701D+00
 Coeff:      0.230D-02-0.458D-02-0.792D-02-0.123D-01-0.858D-02 0.334D-01
 Coeff:      0.297D+00 0.701D+00
 Gap=     0.117 Goal=   None    Shift=    0.000
 RMSDP=3.42D-06 MaxDP=4.69D-04 DE=-3.51D-05 OVMax= 1.21D-03

 Cycle   9  Pass 1  IDiag  1:
 RMSU=  1.97D-06    CP:  9.64D-01  1.50D+00  6.85D-01  6.25D-01  8.47D-01
                    CP:  8.65D-01  9.88D-01  9.87D-01
 E= -4069.81504390556     Delta-E=       -0.000007515293 Rises=F Damp=F
 DIIS: error= 2.06D-05 at cycle   9 NSaved=   9.
 NSaved= 9 IEnMin= 9 EnMin= -4069.81504390556     IErMin= 9 ErrMin= 2.06D-05
 ErrMax= 2.06D-05  0.00D+00 EMaxC= 1.00D-01 BMatC= 7.91D-07 BMatP= 4.64D-06
 IDIUse=1 WtCom= 1.00D+00 WtEn= 0.00D+00
 Coeff-Com:  0.558D-03-0.955D-03-0.291D-02-0.630D-02-0.205D-01-0.387D-01
 Coeff-Com:  0.836D-01 0.360D+00 0.625D+00
 Coeff:      0.558D-03-0.955D-03-0.291D-02-0.630D-02-0.205D-01-0.387D-01
 Coeff:      0.836D-01 0.360D+00 0.625D+00
 Gap=     0.117 Goal=   None    Shift=    0.000
 RMSDP=1.41D-06 MaxDP=1.33D-04 DE=-7.52D-06 OVMax= 6.95D-04

 Cycle  10  Pass 1  IDiag  1:
 RMSU=  9.52D-07    CP:  9.64D-01  1.50D+00  6.85D-01  6.26D-01  8.50D-01
                    CP:  8.75D-01  1.03D+00  1.15D+00  1.04D+00
 E= -4069.81504555847     Delta-E=       -0.000001652908 Rises=F Damp=F
 DIIS: error= 9.27D-06 at cycle  10 NSaved=  10.
 NSaved=10 IEnMin=10 EnMin= -4069.81504555847     IErMin=10 ErrMin= 9.27D-06
 ErrMax= 9.27D-06  0.00D+00 EMaxC= 1.00D-01 BMatC= 1.55D-07 BMatP= 7.91D-07
 IDIUse=1 WtCom= 1.00D+00 WtEn= 0.00D+00
 Coeff-Com: -0.400D-03 0.846D-03 0.108D-02 0.887D-03-0.401D-02-0.297D-01
 Coeff-Com: -0.414D-01-0.555D-01 0.220D+00 0.909D+00
 Coeff:     -0.400D-03 0.846D-03 0.108D-02 0.887D-03-0.401D-02-0.297D-01
 Coeff:     -0.414D-01-0.555D-01 0.220D+00 0.909D+00
 Gap=     0.117 Goal=   None    Shift=    0.000
 RMSDP=1.19D-06 MaxDP=1.23D-04 DE=-1.65D-06 OVMax= 6.29D-04

 Cycle  11  Pass 1  IDiag  1:
 RMSU=  5.37D-07    CP:  9.63D-01  1.50D+00  6.85D-01  6.26D-01  8.52D-01
                    CP:  8.84D-01  1.07D+00  1.25D+00  1.36D+00  1.33D+00
 E= -4069.81504629292     Delta-E=       -0.000000734453 Rises=F Damp=F
 DIIS: error= 4.33D-06 at cycle  11 NSaved=  11.
 NSaved=11 IEnMin=11 EnMin= -4069.81504629292     IErMin=11 ErrMin= 4.33D-06
 ErrMax= 4.33D-06  0.00D+00 EMaxC= 1.00D-01 BMatC= 6.86D-08 BMatP= 1.55D-07
 IDIUse=1 WtCom= 1.00D+00 WtEn= 0.00D+00
 Coeff-Com: -0.350D-03 0.686D-03 0.134D-02 0.208D-02 0.401D-02-0.873D-02
 Coeff-Com: -0.392D-01-0.125D+00-0.445D-01 0.509D+00 0.701D+00
 Coeff:     -0.350D-03 0.686D-03 0.134D-02 0.208D-02 0.401D-02-0.873D-02
 Coeff:     -0.392D-01-0.125D+00-0.445D-01 0.509D+00 0.701D+00
 Gap=     0.117 Goal=   None    Shift=    0.000
 RMSDP=6.72D-07 MaxDP=6.27D-05 DE=-7.34D-07 OVMax= 3.62D-04

 Cycle  12  Pass 1  IDiag  1:
 RMSU=  2.76D-07    CP:  9.63D-01  1.50D+00  6.85D-01  6.26D-01  8.53D-01
                    CP:  8.86D-01  1.09D+00  1.32D+00  1.51D+00  1.72D+00
                    CP:  1.15D+00
 E= -4069.81504654817     Delta-E=       -0.000000255255 Rises=F Damp=F
 DIIS: error= 2.58D-06 at cycle  12 NSaved=  12.
 NSaved=12 IEnMin=12 EnMin= -4069.81504654817     IErMin=12 ErrMin= 2.58D-06
 ErrMax= 2.58D-06  0.00D+00 EMaxC= 1.00D-01 BMatC= 1.62D-08 BMatP= 6.86D-08
 IDIUse=1 WtCom= 1.00D+00 WtEn= 0.00D+00
 Coeff-Com: -0.449D-04 0.726D-04 0.325D-03 0.704D-03 0.354D-02 0.248D-02
 Coeff-Com: -0.187D-02-0.416D-01-0.762D-01 0.871D-03 0.278D+00 0.834D+00
 Coeff:     -0.449D-04 0.726D-04 0.325D-03 0.704D-03 0.354D-02 0.248D-02
 Coeff:     -0.187D-02-0.416D-01-0.762D-01 0.871D-03 0.278D+00 0.834D+00
 Gap=     0.117 Goal=   None    Shift=    0.000
 RMSDP=3.97D-07 MaxDP=2.56D-05 DE=-2.55D-07 OVMax= 2.31D-04

 Cycle  13  Pass 1  IDiag  1:
 RMSU=  1.70D-07    CP:  9.63D-01  1.50D+00  6.85D-01  6.26D-01  8.53D-01
                    CP:  8.86D-01  1.09D+00  1.34D+00  1.60D+00  1.91D+00
                    CP:  1.53D+00  1.16D+00
 E= -4069.81504663204     Delta-E=       -0.000000083870 Rises=F Damp=F
 DIIS: error= 1.63D-06 at cycle  13 NSaved=  13.
 NSaved=13 IEnMin=13 EnMin= -4069.81504663204     IErMin=13 ErrMin= 1.63D-06
 ErrMax= 1.63D-06  0.00D+00 EMaxC= 1.00D-01 BMatC= 9.27D-09 BMatP= 1.62D-08
 IDIUse=1 WtCom= 1.00D+00 WtEn= 0.00D+00
 Coeff-Com:  0.113D-03-0.233D-03-0.329D-03-0.393D-03 0.868D-03 0.438D-02
 Coeff-Com:  0.166D-01 0.217D-01-0.338D-01-0.223D+00-0.160D+00 0.568D+00
 Coeff-Com:  0.807D+00
 Coeff:      0.113D-03-0.233D-03-0.329D-03-0.393D-03 0.868D-03 0.438D-02
 Coeff:      0.166D-01 0.217D-01-0.338D-01-0.223D+00-0.160D+00 0.568D+00
 Coeff:      0.807D+00
 Gap=     0.117 Goal=   None    Shift=    0.000
 RMSDP=3.43D-07 MaxDP=2.12D-05 DE=-8.39D-08 OVMax= 1.87D-04

 Cycle  14  Pass 1  IDiag  1:
 RMSU=  8.03D-08    CP:  9.63D-01  1.50D+00  6.85D-01  6.26D-01  8.54D-01
                    CP:  8.86D-01  1.10D+00  1.36D+00  1.67D+00  2.11D+00
                    CP:  1.77D+00  1.69D+00  1.13D+00
 E= -4069.81504667208     Delta-E=       -0.000000040032 Rises=F Damp=F
 DIIS: error= 8.67D-07 at cycle  14 NSaved=  14.
 NSaved=14 IEnMin=14 EnMin= -4069.81504667208     IErMin=14 ErrMin= 8.67D-07
 ErrMax= 8.67D-07  0.00D+00 EMaxC= 1.00D-01 BMatC= 1.40D-09 BMatP= 9.27D-09
 IDIUse=1 WtCom= 1.00D+00 WtEn= 0.00D+00
 Coeff-Com:  0.732D-04-0.145D-03-0.260D-03-0.403D-03-0.386D-03 0.117D-02
 Coeff-Com:  0.997D-02 0.212D-01 0.409D-02-0.108D+00-0.157D+00 0.866D-01
 Coeff-Com:  0.408D+00 0.735D+00
 Coeff:      0.732D-04-0.145D-03-0.260D-03-0.403D-03-0.386D-03 0.117D-02
 Coeff:      0.997D-02 0.212D-01 0.409D-02-0.108D+00-0.157D+00 0.866D-01
 Coeff:      0.408D+00 0.735D+00
 Gap=     0.117 Goal=   None    Shift=    0.000
 RMSDP=1.19D-07 MaxDP=7.53D-06 DE=-4.00D-08 OVMax= 7.14D-05

 Cycle  15  Pass 1  IDiag  1:
 RMSU=  3.99D-08    CP:  9.63D-01  1.50D+00  6.85D-01  6.26D-01  8.54D-01
                    CP:  8.86D-01  1.10D+00  1.37D+00  1.69D+00  2.16D+00
                    CP:  1.89D+00  1.84D+00  1.38D+00  1.03D+00
 E= -4069.81504667719     Delta-E=       -0.000000005119 Rises=F Damp=F
 DIIS: error= 4.81D-07 at cycle  15 NSaved=  15.
 NSaved=15 IEnMin=15 EnMin= -4069.81504667719     IErMin=15 ErrMin= 4.81D-07
 ErrMax= 4.81D-07  0.00D+00 EMaxC= 1.00D-01 BMatC= 2.70D-10 BMatP= 1.40D-09
 IDIUse=1 WtCom= 1.00D+00 WtEn= 0.00D+00
 Coeff-Com:  0.130D-04-0.241D-04-0.580D-04-0.118D-03-0.303D-03-0.422D-03
 Coeff-Com:  0.184D-02 0.491D-02 0.850D-02-0.748D-02-0.424D-01-0.628D-01
 Coeff-Com:  0.455D-01 0.338D+00 0.715D+00
 Coeff:      0.130D-04-0.241D-04-0.580D-04-0.118D-03-0.303D-03-0.422D-03
 Coeff:      0.184D-02 0.491D-02 0.850D-02-0.748D-02-0.424D-01-0.628D-01
 Coeff:      0.455D-01 0.338D+00 0.715D+00
 Gap=     0.117 Goal=   None    Shift=    0.000
 RMSDP=3.81D-08 MaxDP=2.57D-06 DE=-5.12D-09 OVMax= 2.21D-05

 Cycle  16  Pass 1  IDiag  1:
 RMSU=  1.95D-08    CP:  9.63D-01  1.50D+00  6.85D-01  6.26D-01  8.54D-01
                    CP:  8.86D-01  1.10D+00  1.37D+00  1.69D+00  2.17D+00
                    CP:  1.92D+00  1.90D+00  1.45D+00  1.23D+00  1.10D+00
 E= -4069.81504667786     Delta-E=       -0.000000000669 Rises=F Damp=F
 DIIS: error= 2.08D-07 at cycle  16 NSaved=  16.
 NSaved=16 IEnMin=16 EnMin= -4069.81504667786     IErMin=16 ErrMin= 2.08D-07
 ErrMax= 2.08D-07  0.00D+00 EMaxC= 1.00D-01 BMatC= 9.07D-11 BMatP= 2.70D-10
 IDIUse=1 WtCom= 1.00D+00 WtEn= 0.00D+00
 Coeff-Com: -0.121D-04 0.247D-04 0.376D-04 0.388D-04-0.466D-04-0.587D-03
 Coeff-Com: -0.142D-02-0.348D-02 0.377D-02 0.226D-01 0.177D-01-0.579D-01
 Coeff-Com: -0.773D-01-0.161D-01 0.375D+00 0.738D+00
 Coeff:     -0.121D-04 0.247D-04 0.376D-04 0.388D-04-0.466D-04-0.587D-03
 Coeff:     -0.142D-02-0.348D-02 0.377D-02 0.226D-01 0.177D-01-0.579D-01
 Coeff:     -0.773D-01-0.161D-01 0.375D+00 0.738D+00
 Gap=     0.117 Goal=   None    Shift=    0.000
 RMSDP=2.39D-08 MaxDP=1.65D-06 DE=-6.69D-10 OVMax= 1.70D-05

 Cycle  17  Pass 1  IDiag  1:
 RMSU=  1.14D-08    CP:  9.63D-01  1.50D+00  6.85D-01  6.26D-01  8.54D-01
                    CP:  8.86D-01  1.10D+00  1.37D+00  1.70D+00  2.18D+00
                    CP:  1.93D+00  1.92D+00  1.50D+00  1.32D+00  1.38D+00
                    CP:  1.15D+00
 E= -4069.81504667841     Delta-E=       -0.000000000542 Rises=F Damp=F
 DIIS: error= 1.10D-07 at cycle  17 NSaved=  17.
 NSaved=17 IEnMin=17 EnMin= -4069.81504667841     IErMin=17 ErrMin= 1.10D-07
 ErrMax= 1.10D-07  0.00D+00 EMaxC= 1.00D-01 BMatC= 2.37D-11 BMatP= 9.07D-11
 IDIUse=1 WtCom= 1.00D+00 WtEn= 0.00D+00
 Coeff-Com: -0.913D-05 0.180D-04 0.335D-04 0.470D-04 0.712D-04-0.204D-03
 Coeff-Com: -0.101D-02-0.321D-02 0.160D-03 0.128D-01 0.200D-01-0.132D-01
 Coeff-Com: -0.455D-01-0.962D-01-0.458D-02 0.356D+00 0.775D+00
 Coeff:     -0.913D-05 0.180D-04 0.335D-04 0.470D-04 0.712D-04-0.204D-03
 Coeff:     -0.101D-02-0.321D-02 0.160D-03 0.128D-01 0.200D-01-0.132D-01
 Coeff:     -0.455D-01-0.962D-01-0.458D-02 0.356D+00 0.775D+00
 Gap=     0.117 Goal=   None    Shift=    0.000
 RMSDP=1.32D-08 MaxDP=9.62D-07 DE=-5.42D-10 OVMax= 7.73D-06

 Cycle  18  Pass 1  IDiag  1:
 RMSU=  5.51D-09    CP:  9.63D-01  1.50D+00  6.85D-01  6.26D-01  8.54D-01
                    CP:  8.86D-01  1.10D+00  1.37D+00  1.70D+00  2.18D+00
                    CP:  1.93D+00  1.93D+00  1.52D+00  1.38D+00  1.53D+00
                    CP:  1.53D+00  1.31D+00
 E= -4069.81504667825     Delta-E=        0.000000000156 Rises=F Damp=F
 DIIS: error= 7.97D-08 at cycle  18 NSaved=  18.
 NSaved=18 IEnMin=17 EnMin= -4069.81504667841     IErMin=18 ErrMin= 7.97D-08
 ErrMax= 7.97D-08  0.00D+00 EMaxC= 1.00D-01 BMatC= 7.99D-12 BMatP= 2.37D-11
 IDIUse=1 WtCom= 1.00D+00 WtEn= 0.00D+00
 Coeff-Com: -0.506D-06 0.660D-06 0.453D-05 0.993D-05 0.684D-04 0.932D-04
 Coeff-Com:  0.735D-04-0.568D-03-0.103D-02-0.199D-02 0.401D-02 0.131D-01
 Coeff-Com:  0.708D-02-0.437D-01-0.135D+00-0.761D-01 0.370D+00 0.864D+00
 Coeff:     -0.506D-06 0.660D-06 0.453D-05 0.993D-05 0.684D-04 0.932D-04
 Coeff:      0.735D-04-0.568D-03-0.103D-02-0.199D-02 0.401D-02 0.131D-01
 Coeff:      0.708D-02-0.437D-01-0.135D+00-0.761D-01 0.370D+00 0.864D+00
 Gap=     0.117 Goal=   None    Shift=    0.000
 RMSDP=9.96D-09 MaxDP=7.11D-07 DE= 1.56D-10 OVMax= 7.10D-06

 SCF Done:  E(RCAM-B3LYP) =  -4069.81504668     A.U. after   18 cycles
            NFock= 18  Conv=0.10D-07     -V/T= 2.0102
 KE= 4.028793981290D+03 PE=-4.137198782246D+04 EE= 1.732803922290D+04
 Leave Link  502 at Fri Sep  3 17:18:06 2021, MaxMem= 23488102400 cpu:           16674.1 elap:             721.0
 (Enter /sw/apps/gaussian-16.0/g16/l801.exe)
 DoSCS=F DFT=T ScalE2(SS,OS)=  1.000000  1.000000
 ExpMin= 3.36D-02 ExpMax= 4.95D+03 ExpMxC= 7.45D+02 IAcc=3 IRadAn=         5 AccDes= 0.00D+00
 HarFok:  IExCor=  205 AccDes= 0.00D+00 IRadAn=         5 IDoV=-2 UseB2=F ITyADJ=14
 ICtDFT= 12500011 ScaDFX=  1.000000  1.000000  1.000000  1.000000
 GSVD:  LWork=       -9588 too small for GESVD, short by       45590 words or       45590 for optimal perf.
 Largest valence mixing into a core orbital is  2.03D-04
 Largest core mixing into a valence orbital is  5.25D-05
 Range of M.O.s used for correlation:    95  1572
 NBasis=  1572 NAE=   312 NBE=   312 NFC=    94 NFV=     0
 NROrb=   1478 NOA=   218 NOB=   218 NVA=  1260 NVB=  1260
 Leave Link  801 at Fri Sep  3 17:18:06 2021, MaxMem= 23488102400 cpu:               9.0 elap:               0.4
 (Enter /sw/apps/gaussian-16.0/g16/l914.exe)
 RHF ground state
 Two-electron integrals replicated using symmetry.
 MDV= 23488102400 DFT=T DoStab=F Mixed=T DoRPA=T DoScal=F NonHer=T
 Making orbital integer symmetry assigments:
 Orbital symmetries:
       Occupied  (A) (A) (A) (A) (A) (A) (A) (A) (A) (A) (A) (A)
                 (A) (A) (A) (A) (A) (A) (A) (A) (A) (A) (A) (A)
                 (A) (A) (A) (A) (A) (A) (A) (A) (A) (A) (A) (A)
                 (A) (A) (A) (A) (A) (A) (A) (A) (A) (A) (A) (A)
                 (A) (A) (A) (A) (A) (A) (A) (A) (A) (A) (A) (A)
                 (A) (A) (A) (A) (A) (A) (A) (A) (A) (A) (A) (A)
                 (A) (A) (A) (A) (A) (A) (A) (A) (A) (A) (A) (A)
                 (A) (A) (A) (A) (A) (A) (A) (A) (A) (A) (A) (A)
                 (A) (A) (A) (A) (A) (A) (A) (A) (A) (A) (A) (A)
                 (A) (A) (A) (A) (A) (A) (A) (A) (A) (A) (A) (A)
                 (A) (A) (A) (A) (A) (A) (A) (A) (A) (A) (A) (A)
                 (A) (A) (A) (A) (A) (A) (A) (A) (A) (A) (A) (A)
                 (A) (A) (A) (A) (A) (A) (A) (A) (A) (A) (A) (A)
                 (A) (A) (A) (A) (A) (A) (A) (A) (A) (A) (A) (A)
                 (A) (A) (A) (A) (A) (A) (A) (A) (A) (A) (A) (A)
                 (A) (A) (A) (A) (A) (A) (A) (A) (A) (A) (A) (A)
                 (A) (A) (A) (A) (A) (A) (A) (A) (A) (A) (A) (A)
                 (A) (A) (A) (A) (A) (A) (A) (A) (A) (A) (A) (A)
                 (A) (A) (A) (A) (A) (A) (A) (A) (A) (A) (A) (A)
                 (A) (A) (A) (A) (A) (A) (A) (A) (A) (A) (A) (A)
                 (A) (A) (A) (A) (A) (A) (A) (A) (A) (A) (A) (A)
                 (A) (A) (A) (A) (A) (A) (A) (A) (A) (A) (A) (A)
                 (A) (A) (A) (A) (A) (A) (A) (A) (A) (A) (A) (A)
                 (A) (A) (A) (A) (A) (A) (A) (A) (A) (A) (A) (A)
                 (A) (A) (A) (A) (A) (A) (A) (A) (A) (A) (A) (A)
                 (A) (A) (A) (A) (A) (A) (A) (A) (A) (A) (A) (A)
       Virtual   (A) (A) (A) (A) (A) (A) (A) (A) (A) (A) (A) (A)
                 (A) (A) (A) (A) (A) (A) (A) (A) (A) (A) (A) (A)
                 (A) (A) (A) (A) (A) (A) (A) (A) (A) (A) (A) (A)
                 (A) (A) (A) (A) (A) (A) (A) (A) (A) (A) (A) (A)
                 (A) (A) (A) (A) (A) (A) (A) (A) (A) (A) (A) (A)
                 (A) (A) (A) (A) (A) (A) (A) (A) (A) (A) (A) (A)
                 (A) (A) (A) (A) (A) (A) (A) (A) (A) (A) (A) (A)
                 (A) (A) (A) (A) (A) (A) (A) (A) (A) (A) (A) (A)
                 (A) (A) (A) (A) (A) (A) (A) (A) (A) (A) (A) (A)
                 (A) (A) (A) (A) (A) (A) (A) (A) (A) (A) (A) (A)
                 (A) (A) (A) (A) (A) (A) (A) (A) (A) (A) (A) (A)
                 (A) (A) (A) (A) (A) (A) (A) (A) (A) (A) (A) (A)
                 (A) (A) (A) (A) (A) (A) (A) (A) (A) (A) (A) (A)
                 (A) (A) (A) (A) (A) (A) (A) (A) (A) (A) (A) (A)
                 (A) (A) (A) (A) (A) (A) (A) (A) (A) (A) (A) (A)
                 (A) (A) (A) (A) (A) (A) (A) (A) (A) (A) (A) (A)
                 (A) (A) (A) (A) (A) (A) (A) (A) (A) (A) (A) (A)
                 (A) (A) (A) (A) (A) (A) (A) (A) (A) (A) (A) (A)
                 (A) (A) (A) (A) (A) (A) (A) (A) (A) (A) (A) (A)
                 (A) (A) (A) (A) (A) (A) (A) (A) (A) (A) (A) (A)
                 (A) (A) (A) (A) (A) (A) (A) (A) (A) (A) (A) (A)
                 (A) (A) (A) (A) (A) (A) (A) (A) (A) (A) (A) (A)
                 (A) (A) (A) (A) (A) (A) (A) (A) (A) (A) (A) (A)
                 (A) (A) (A) (A) (A) (A) (A) (A) (A) (A) (A) (A)
                 (A) (A) (A) (A) (A) (A) (A) (A) (A) (A) (A) (A)
                 (A) (A) (A) (A) (A) (A) (A) (A) (A) (A) (A) (A)
                 (A) (A) (A) (A) (A) (A) (A) (A) (A) (A) (A) (A)
                 (A) (A) (A) (A) (A) (A) (A) (A) (A) (A) (A) (A)
                 (A) (A) (A) (A) (A) (A) (A) (A) (A) (A) (A) (A)
                 (A) (A) (A) (A) (A) (A) (A) (A) (A) (A) (A) (A)
                 (A) (A) (A) (A) (A) (A) (A) (A) (A) (A) (A) (A)
                 (A) (A) (A) (A) (A) (A) (A) (A) (A) (A) (A) (A)
                 (A) (A) (A) (A) (A) (A) (A) (A) (A) (A) (A) (A)
                 (A) (A) (A) (A) (A) (A) (A) (A) (A) (A) (A) (A)
                 (A) (A) (A) (A) (A) (A) (A) (A) (A) (A) (A) (A)
                 (A) (A) (A) (A) (A) (A) (A) (A) (A) (A) (A) (A)
                 (A) (A) (A) (A) (A) (A) (A) (A) (A) (A) (A) (A)
                 (A) (A) (A) (A) (A) (A) (A) (A) (A) (A) (A) (A)
                 (A) (A) (A) (A) (A) (A) (A) (A) (A) (A) (A) (A)
                 (A) (A) (A) (A) (A) (A) (A) (A) (A) (A) (A) (A)
                 (A) (A) (A) (A) (A) (A) (A) (A) (A) (A) (A) (A)
                 (A) (A) (A) (A) (A) (A) (A) (A) (A) (A) (A) (A)
                 (A) (A) (A) (A) (A) (A) (A) (A) (A) (A) (A) (A)
                 (A) (A) (A) (A) (A) (A) (A) (A) (A) (A) (A) (A)
                 (A) (A) (A) (A) (A) (A) (A) (A) (A) (A) (A) (A)
                 (A) (A) (A) (A) (A) (A) (A) (A) (A) (A) (A) (A)
                 (A) (A) (A) (A) (A) (A) (A) (A) (A) (A) (A) (A)
                 (A) (A) (A) (A) (A) (A) (A) (A) (A) (A) (A) (A)
                 (A) (A) (A) (A) (A) (A) (A) (A) (A) (A) (A) (A)
                 (A) (A) (A) (A) (A) (A) (A) (A) (A) (A) (A) (A)
                 (A) (A) (A) (A) (A) (A) (A) (A) (A) (A) (A) (A)
                 (A) (A) (A) (A) (A) (A) (A) (A) (A) (A) (A) (A)
                 (A) (A) (A) (A) (A) (A) (A) (A) (A) (A) (A) (A)
                 (A) (A) (A) (A) (A) (A) (A) (A) (A) (A) (A) (A)
                 (A) (A) (A) (A) (A) (A) (A) (A) (A) (A) (A) (A)
                 (A) (A) (A) (A) (A) (A) (A) (A) (A) (A) (A) (A)
                 (A) (A) (A) (A) (A) (A) (A) (A) (A) (A) (A) (A)
                 (A) (A) (A) (A) (A) (A) (A) (A) (A) (A) (A) (A)
                 (A) (A) (A) (A) (A) (A) (A) (A) (A) (A) (A) (A)
                 (A) (A) (A) (A) (A) (A) (A) (A) (A) (A) (A) (A)
                 (A) (A) (A) (A) (A) (A) (A) (A) (A) (A) (A) (A)
                 (A) (A) (A) (A) (A) (A) (A) (A) (A) (A) (A) (A)
                 (A) (A) (A) (A) (A) (A) (A) (A) (A) (A) (A) (A)
                 (A) (A) (A) (A) (A) (A) (A) (A) (A) (A) (A) (A)
                 (A) (A) (A) (A) (A) (A) (A) (A) (A) (A) (A) (A)
                 (A) (A) (A) (A) (A) (A) (A) (A) (A) (A) (A) (A)
                 (A) (A) (A) (A) (A) (A) (A) (A) (A) (A) (A) (A)
                 (A) (A) (A) (A) (A) (A) (A) (A) (A) (A) (A) (A)
                 (A) (A) (A) (A) (A) (A) (A) (A) (A) (A) (A) (A)
                 (A) (A) (A) (A) (A) (A) (A) (A) (A) (A) (A) (A)
                 (A) (A) (A) (A) (A) (A) (A) (A) (A) (A) (A) (A)
                 (A) (A) (A) (A) (A) (A) (A) (A) (A) (A) (A) (A)
                 (A) (A) (A) (A) (A) (A) (A) (A) (A) (A) (A) (A)
                 (A) (A) (A) (A) (A) (A) (A) (A) (A) (A) (A) (A)
                 (A) (A) (A) (A) (A) (A) (A) (A) (A) (A) (A) (A)
                 (A) (A) (A) (A) (A) (A) (A) (A) (A) (A) (A) (A)
                 (A) (A) (A) (A) (A) (A) (A) (A) (A) (A) (A) (A)
                 (A) (A) (A) (A) (A) (A) (A) (A) (A) (A) (A) (A)
                 (A) (A) (A) (A) (A) (A) (A) (A) (A) (A) (A) (A)
                 (A) (A) (A) (A) (A) (A) (A) (A) (A) (A) (A) (A)
                 (A) (A) (A) (A) (A) (A) (A) (A) (A) (A) (A) (A)
                 (A) (A) (A) (A) (A) (A) (A) (A) (A) (A) (A) (A)
                 (A) (A) (A) (A) (A) (A) (A) (A) (A) (A) (A) (A)
                 (A) (A) (A) (A) (A) (A) (A) (A) (A) (A) (A) (A)
                 (A) (A) (A) (A) (A) (A) (A) (A) (A) (A) (A) (A)
                 (A) (A) (A) (A) (A) (A) (A) (A) (A) (A) (A) (A)
                 (A) (A) (A) (A) (A) (A) (A) (A) (A) (A) (A) (A)
                 (A) (A) (A) (A) (A) (A) (A) (A) (A) (A) (A) (A)
                 (A) (A) (A) (A) (A) (A) (A) (A) (A) (A) (A) (A)
                 (A) (A) (A) (A) (A) (A) (A) (A) (A) (A) (A) (A)
                 (A) (A) (A) (A) (A) (A) (A) (A) (A) (A) (A) (A)
                 (A) (A) (A) (A) (A) (A) (A) (A) (A) (A) (A) (A)
                 (A) (A) (A) (A) (A) (A) (A) (A) (A) (A) (A) (A)
                 (A) (A) (A) (A) (A) (A) (A) (A) (A) (A) (A) (A)
                 (A) (A) (A) (A) (A) (A) (A) (A) (A) (A) (A) (A)
                 (A) (A) (A) (A) (A) (A) (A) (A) (A) (A) (A) (A)
                 (A) (A) (A) (A) (A) (A) (A) (A) (A) (A) (A) (A)
                 (A) (A) (A) (A) (A) (A) (A) (A) (A) (A) (A) (A)
                 (A) (A) (A) (A) (A) (A) (A) (A) (A) (A) (A) (A)
                 (A) (A) (A) (A) (A) (A) (A) (A) (A) (A) (A) (A)
                 (A) (A) (A) (A) (A) (A) (A) (A) (A) (A) (A) (A)
                 (A) (A) (A) (A) (A) (A) (A) (A) (A) (A) (A) (A)
                 (A) (A) (A) (A) (A) (A) (A) (A) (A) (A) (A) (A)
                 (A) (A) (A) (A) (A) (A) (A) (A) (A) (A) (A) (A)
                 (A) (A) (A) (A) (A) (A) (A) (A) (A) (A) (A) (A)
    20 initial guesses have been made.
 Convergence on wavefunction:    0.001000000000000
 Davidson Disk Diagonalization:  ConvIn= 1.00D-03 SkipCon=T Conv= 1.00D-03.
 Max sub-space:  2000 roots to seek:    20 dimension of matrix:       549360
 Iteration     1 Dimension    20 NMult     0 NNew     20
 CISAX will form    20 AO SS matrices at one time.
 NMat=    20 NSing=    20 JSym2X= 0.
 FoFJK:  IHMeth= 1 ICntrl=       0 DoSepK=T KAlg= 0 I1Cent=           0 FoldK=F
 IRaf=         1 NMat=      40 IRICut=       1 DoRegI=T DoRafI=F ISym2E= 0 IDoP0=3 IntGTp=3.
 FoFCou: FMM=T IPFlag=           0 FMFlag=      100000 FMFlg1=        2001
         NFxFlg=           0 DoJE=F BraDBF=F KetDBF=F FulRan=T
         wScrn=  0.000000 ICntrl=       500 IOpCl=  0 I1Cent=           0 NGrid=           0
         NMat0=   20 NMatS0=     20 NMatT0=    0 NMatD0=   20 NMtDS0=    0 NMtDT0=    0
 Symmetry not used in FoFCou.
 FMM levels:  10  Number of levels for PrismC:   9
 New state      2 was old state      4
 New state      3 was old state      6
 New state      4 was old state      7
 New state      5 was old state     11
 Excitation Energies [eV] at current iteration:
 Root      1 :     2.183077007608132
 Root      2 :     2.495729185496685
 Root      3 :     2.603048848226913
 Root      4 :     2.609062169690537
 Root      5 :     2.649093653016599
 Root      6 :     2.735417796705779
 Root      7 :     2.964734095655378
 Root      8 :     3.294689243758658
 Root      9 :     3.631340346717048
 Root     10 :     3.675464140311285
 Root     11 :     3.745072346056215
 Root     12 :     3.754923711437484
 Root     13 :     4.083191544057881
 Root     14 :     4.247206252808040
 Root     15 :     4.349861143589483
 Root     16 :     4.435068766886173
 Root     17 :     4.441724386228923
 Root     18 :     4.483738464509841
 Root     19 :     4.579448546245153
 Root     20 :     4.718364841595239
 Iteration     2 Dimension    30 NMult    20 NNew     10
 CISAX will form    10 AO SS matrices at one time.
 NMat=    10 NSing=    10 JSym2X= 0.
 New state      1 was old state      3
 Root      1 not converged, maximum delta is    0.357601059063710
 New state      2 was old state      1
 Root      2 not converged, maximum delta is    0.033621295849939
 New state      3 was old state      4
 Root      3 not converged, maximum delta is    0.391215968996692
 New state      4 was old state      5
 Root      4 not converged, maximum delta is    0.284641586869958
 New state      5 was old state      2
 Root      5 not converged, maximum delta is    0.005666244078856
 Excitation Energies [eV] at current iteration:
 Root      1 :     1.771974858890458   Change is   -0.831073989336455
 Root      2 :     2.181704677346705   Change is   -0.001372330261427
 Root      3 :     2.188704158850043   Change is   -0.420358010840494
 Root      4 :     2.245088213617201   Change is   -0.404005439399399
 Root      5 :     2.494113629865879   Change is   -0.001615555630805
 Iteration     3 Dimension    40 NMult    30 NNew     10
 CISAX will form    10 AO SS matrices at one time.
 NMat=    10 NSing=    10 JSym2X= 0.
 Root      1 not converged, maximum delta is    0.054178726291666
 New state      2 was old state      3
 Root      2 not converged, maximum delta is    0.390022990099560
 New state      3 was old state      2
 Root      3 not converged, maximum delta is    0.031981912213348
 Root      4 not converged, maximum delta is    0.469485072881327
 No map to state      5
 Excitation Energies [eV] at current iteration:
 Root      1 :     1.667785809647413   Change is   -0.104189049243045
 Root      2 :     1.788020766855899   Change is   -0.400683391994144
 Root      3 :     2.181738289218327   Change is    0.000033611871623
 Root      4 :     2.193135019115980   Change is   -0.051953194501220
 Root      5 :     2.209629880390119
 Iteration     4 Dimension    50 NMult    40 NNew     10
 CISAX will form    10 AO SS matrices at one time.
 NMat=    10 NSing=    10 JSym2X= 0.
 Root      1 not converged, maximum delta is    0.013234178845635
 Root      2 not converged, maximum delta is    0.036582908960242
 New state      3 was old state      4
 Root      3 not converged, maximum delta is    0.149665132927754
 New state      4 was old state      3
 Root      4 not converged, maximum delta is    0.012627903677847
 Root      5 not converged, maximum delta is    0.145708005618932
 Excitation Energies [eV] at current iteration:
 Root      1 :     1.651208182100590   Change is   -0.016577627546823
 Root      2 :     1.704661940252358   Change is   -0.083358826603541
 Root      3 :     2.180309066954533   Change is   -0.012825952161448
 Root      4 :     2.181736335342210   Change is   -0.000001953876117
 Root      5 :     2.198357958047545   Change is   -0.011271922342574
 Iteration     5 Dimension    60 NMult    50 NNew     10
 CISAX will form    10 AO SS matrices at one time.
 NMat=    10 NSing=    10 JSym2X= 0.
 Root      1 not converged, maximum delta is    0.003971274971241
 Root      2 not converged, maximum delta is    0.009741083407436
 Root      3 not converged, maximum delta is    0.015580201551376
 Root      4 not converged, maximum delta is    0.004972247719584
 Root      5 not converged, maximum delta is    0.015278006863859
 Excitation Energies [eV] at current iteration:
 Root      1 :     1.649475846328687   Change is   -0.001732335771902
 Root      2 :     1.691988575238532   Change is   -0.012673365013826
 Root      3 :     2.178476274624156   Change is   -0.001832792330377
 Root      4 :     2.181735619278815   Change is   -0.000000716063396
 Root      5 :     2.197206385415167   Change is   -0.001151572632378
 Iteration     6 Dimension    70 NMult    60 NNew     10
 CISAX will form    10 AO SS matrices at one time.
 NMat=    10 NSing=    10 JSym2X= 0.
 Root      1 has converged.
 Root      2 not converged, maximum delta is    0.001894432374017
 Root      3 not converged, maximum delta is    0.001321611855103
 Root      4 has converged.
 Root      5 not converged, maximum delta is    0.001198355744701
 Excitation Energies [eV] at current iteration:
 Root      1 :     1.649225257211540   Change is   -0.000250589117147
 Root      2 :     1.690847583194512   Change is   -0.001140992044020
 Root      3 :     2.178268683417007   Change is   -0.000207591207149
 Root      4 :     2.181735400260298   Change is   -0.000000219018517
 Root      5 :     2.197061339672543   Change is   -0.000145045742624
 Iteration     7 Dimension    76 NMult    70 NNew      6
 CISAX will form     6 AO SS matrices at one time.
 NMat=     6 NSing=     6 JSym2X= 0.
 Root      1 has converged.
 Root      2 has converged.
 Root      3 has converged.
 Root      4 has converged.
 Root      5 has converged.
 Excitation Energies [eV] at current iteration:
 Root      1 :     1.649223904944329   Change is   -0.000001352267211
 Root      2 :     1.690698961083858   Change is   -0.000148622110654
 Root      3 :     2.178235215368121   Change is   -0.000033468048887
 Root      4 :     2.181735383672110   Change is   -0.000000016588188
 Root      5 :     2.197039741162387   Change is   -0.000021598510156
 Convergence achieved on expansion vectors.
 ***********************************************************************
 Excited states from <AA,BB:AA,BB> singles matrix:
 ***********************************************************************
 
 1PDM for each excited state written to RWF  633
 Ground to excited state transition densities written to RWF  633
 Ground to excited state transition electric dipole moments (Au):
       state          X           Y           Z        Dip. S.      Osc.
         1         0.2108      1.0309     -1.4426      3.1881      0.1288
         2         0.9290     -2.4466     -2.4573     12.8873      0.5338
         3         0.1284     -1.0226     -0.3320      1.1725      0.0626
[...]
 Alpha virt. eigenvalues --    1.86145   1.86230   1.86377   1.86419   1.86613
 Alpha virt. eigenvalues --    1.86761   1.86833   1.87006   1.87126   1.87282
 Alpha virt. eigenvalues --    1.87400   1.87493   1.87710   1.87878   1.87956
 Alpha virt. eigenvalues --    1.88144   1.88330   1.88369   1.88537   1.88618
 Alpha virt. eigenvalues --    1.88990   1.89177   1.89309   1.89484   1.89608
 Alpha virt. eigenvalues --    1.89874   1.89935   1.90164   1.90231   1.90561
 Alpha virt. eigenvalues --    1.90997   1.91108   1.91275   1.91678   1.91880
 Alpha virt. eigenvalues --    1.91963   1.92270   1.92369   1.92836   1.92950
 Alpha virt. eigenvalues --    1.93216   1.93423   1.93745   1.93925   1.94224
 Alpha virt. eigenvalues --    1.94551   1.94657   1.95110   1.95351   1.95515
 Alpha virt. eigenvalues --    1.95725   1.95870   1.96022   1.96335   1.96435
 Alpha virt. eigenvalues --    1.96490   1.96630   1.96770   1.96924   1.97239
 Alpha virt. eigenvalues --    1.97414   1.97669   1.97893   1.97953   1.98212
 Alpha virt. eigenvalues --    1.98341   1.98706   1.98807   1.98980   1.99572
 Alpha virt. eigenvalues --    1.99612   2.00441   2.00563   2.00833   2.01103
 Alpha virt. eigenvalues --    2.01250   2.01454   2.01540   2.01612   2.01813
 Alpha virt. eigenvalues --    2.02046   2.02415   2.02578   2.03062   2.03099
 Alpha virt. eigenvalues --    2.03220   2.03230   2.03528   2.03771   2.03891
 Alpha virt. eigenvalues --    2.04007   2.04421   2.04830   2.05270   2.05371
 Alpha virt. eigenvalues --    2.05904   2.05963   2.06601   2.06693   2.07035
 Alpha virt. eigenvalues --    2.07439   2.07703   2.08481   2.08737   2.08807
 Alpha virt. eigenvalues --    2.09350   2.09429   2.09986   2.10699   2.10996
 Alpha virt. eigenvalues --    2.11267   2.11296   2.11566   2.11755   2.11996
 Alpha virt. eigenvalues --    2.12226   2.12411   2.12633   2.12680   2.12959
 Alpha virt. eigenvalues --    2.13351   2.13486   2.13515   2.14011   2.14474
 Alpha virt. eigenvalues --    2.14641   2.15175   2.15701   2.15735   2.16370
 Alpha virt. eigenvalues --    2.16535   2.16642   2.17117   2.17284   2.17554
 Alpha virt. eigenvalues --    2.17570   2.17915   2.17953   2.18128   2.18339
 Alpha virt. eigenvalues --    2.18615   2.18712   2.19146   2.19431   2.19833
 Alpha virt. eigenvalues --    2.19926   2.20016   2.20412   2.20669   2.21039
 Alpha virt. eigenvalues --    2.21103   2.21416   2.21477   2.21570   2.22188
 Alpha virt. eigenvalues --    2.22207   2.22550   2.23170   2.23252   2.23666
 Alpha virt. eigenvalues --    2.24268   2.24736   2.24932   2.25257   2.26049
 Alpha virt. eigenvalues --    2.26614   2.26853   2.26889   2.27381   2.27666
 Alpha virt. eigenvalues --    2.27946   2.29019   2.29137   2.29537   2.30011
 Alpha virt. eigenvalues --    2.30204   2.30602   2.30812   2.30982   2.31148
 Alpha virt. eigenvalues --    2.31484   2.31721   2.32012   2.32532   2.32933
 Alpha virt. eigenvalues --    2.33251   2.33722   2.33835   2.34036   2.34567
 Alpha virt. eigenvalues --    2.35050   2.35594   2.35701   2.36271   2.36449
 Alpha virt. eigenvalues --    2.36507   2.36670   2.36726   2.37578   2.37966
 Alpha virt. eigenvalues --    2.38159   2.38588   2.38659   2.39419   2.39429
 Alpha virt. eigenvalues --    2.40001   2.40163   2.40271   2.40562   2.41020
 Alpha virt. eigenvalues --    2.41337   2.41631   2.41741   2.41850   2.42017
 Alpha virt. eigenvalues --    2.42534   2.42864   2.43057   2.43085   2.43449
 Alpha virt. eigenvalues --    2.43947   2.44412   2.44562   2.44699   2.45157
 Alpha virt. eigenvalues --    2.45386   2.45615   2.45951   2.46177   2.46293
 Alpha virt. eigenvalues --    2.46583   2.46626   2.46877   2.47103   2.47215
 Alpha virt. eigenvalues --    2.47575   2.47707   2.48195   2.49200   2.49618
 Alpha virt. eigenvalues --    2.50002   2.50171   2.50520   2.50760   2.50917
 Alpha virt. eigenvalues --    2.51633   2.51750   2.51906   2.52184   2.52613
 Alpha virt. eigenvalues --    2.52882   2.53712   2.53758   2.54054   2.54336
 Alpha virt. eigenvalues --    2.54488   2.54619   2.55101   2.55369   2.55990
 Alpha virt. eigenvalues --    2.57716   2.58439   2.58485   2.59425   2.59909
 Alpha virt. eigenvalues --    2.60374   2.60750   2.61526   2.61571   2.62228
 Alpha virt. eigenvalues --    2.62308   2.62750   2.62872   2.63526   2.63751
 Alpha virt. eigenvalues --    2.64131   2.64685   2.64806   2.64908   2.65499
 Alpha virt. eigenvalues --    2.65554   2.66431   2.66644   2.66745   2.67138
 Alpha virt. eigenvalues --    2.67593   2.67749   2.68471   2.68631   2.68811
 Alpha virt. eigenvalues --    2.69129   2.69246   2.69526   2.69813   2.70112
 Alpha virt. eigenvalues --    2.70536   2.70781   2.71582   2.71807   2.72220
 Alpha virt. eigenvalues --    2.72397   2.72508   2.72834   2.72924   2.73185
 Alpha virt. eigenvalues --    2.73265   2.73590   2.73820   2.74298   2.74751
 Alpha virt. eigenvalues --    2.74826   2.75416   2.76450   2.76856   2.77003
 Alpha virt. eigenvalues --    2.77267   2.77405   2.77931   2.78044   2.78375
 Alpha virt. eigenvalues --    2.78560   2.78934   2.79008   2.79568   2.80014
 Alpha virt. eigenvalues --    2.80317   2.80480   2.80883   2.81055   2.81430
 Alpha virt. eigenvalues --    2.81711   2.82172   2.82330   2.82689   2.83454
 Alpha virt. eigenvalues --    2.83642   2.84061   2.84228   2.84395   2.84737
 Alpha virt. eigenvalues --    2.84799   2.85140   2.85520   2.85937   2.86698
 Alpha virt. eigenvalues --    2.86944   2.87251   2.87541   2.88028   2.88337
 Alpha virt. eigenvalues --    2.88451   2.88755   2.88995   2.89142   2.90277
 Alpha virt. eigenvalues --    2.91047   2.91132   2.91559   2.92941   2.93738
 Alpha virt. eigenvalues --    2.94061   2.94209   2.94453   2.94803   2.95089
 Alpha virt. eigenvalues --    2.95704   2.96018   2.96241   2.96351   2.96729
 Alpha virt. eigenvalues --    2.96851   2.97254   2.97615   2.98035   2.98200
 Alpha virt. eigenvalues --    2.98243   2.98436   2.98730   2.98854   2.98926
 Alpha virt. eigenvalues --    2.99157   2.99419   2.99619   2.99697   3.00031
 Alpha virt. eigenvalues --    3.00135   3.00252   3.00400   3.00594   3.01508
 Alpha virt. eigenvalues --    3.01817   3.01850   3.02355   3.02391   3.02668
 Alpha virt. eigenvalues --    3.02810   3.03100   3.03214   3.03921   3.04121
 Alpha virt. eigenvalues --    3.04303   3.04404   3.04557   3.04745   3.04963
 Alpha virt. eigenvalues --    3.05204   3.05281   3.05691   3.05944   3.06525
 Alpha virt. eigenvalues --    3.06587   3.07650   3.08057   3.08370   3.09235
 Alpha virt. eigenvalues --    3.09521   3.09591   3.10244   3.11035   3.11221
 Alpha virt. eigenvalues --    3.11472   3.11653   3.11821   3.12113   3.12174
 Alpha virt. eigenvalues --    3.13018   3.13122   3.13527   3.13681   3.13912
 Alpha virt. eigenvalues --    3.14160   3.14842   3.15891   3.16177   3.17074
 Alpha virt. eigenvalues --    3.17799   3.17973   3.18036   3.18997   3.19248
 Alpha virt. eigenvalues --    3.21843   3.22924   3.23761   3.24368   3.24718
 Alpha virt. eigenvalues --    3.25467   3.26332   3.26945   3.27430   3.27715
 Alpha virt. eigenvalues --    3.28505   3.29544   3.31331   3.31673   3.33252
 Alpha virt. eigenvalues --    3.33491   3.40485   3.40597   3.42681   3.43019
 Alpha virt. eigenvalues --    3.48432   3.48972   3.49855   3.50600   3.51177
 Alpha virt. eigenvalues --    3.51302   3.56387   3.57255   3.58960   3.59596
 Alpha virt. eigenvalues --    3.62687   3.62780   3.66074   3.66241   3.67021
 Alpha virt. eigenvalues --    3.67871   3.73410   3.74318   3.76582   3.76964
          Condensed to atoms (all electrons):
 Mulliken charges:
               1
     1  Mg   0.839501
     2  C   -0.005211
     3  C   -0.094177
     4  C   -0.045434
     5  C   -0.062659
     6  N   -0.256946
     7  C   -0.052992
     8  C   -0.014168
     9  C   -0.087063
    10  C    0.046359
    11  C    0.104662
    12  C    0.053323
    13  C   -0.071289
    14  H    0.032313
    15  N   -0.433355
    16  C    0.169203
    17  C   -0.176169
    18  C   -0.003179
    19  C    0.148981
    20  C    0.109808
    21  C    0.012476
    22  O   -0.249899
    23  C    0.061726
    24  N   -0.341009
    25  C    0.041727
    26  C   -0.028315
    27  C   -0.023912
    28  C    0.074589
    29  C    0.076049
    30  C    0.034653
    31  C   -0.005205
    32  N   -0.310428
    33  C    0.080112
    34  C   -0.169270
    35  C    0.007564
    36  C    0.082840
    37  C    0.127371
    38  C    0.044641
    39  O   -0.189000
    40  C   -0.005637
    41  C    0.217367
    42  O   -0.255358
    43  O   -0.302395
    44  C    0.157201
    45  H   -0.017289
    46  H   -0.016529
    47  H   -0.040142
    48  H    0.000805
    49  H   -0.004088
    50  H    0.025565
    51  H    0.017230
    52  H    0.017099
    53  H    0.011769
    54  H    0.040542
    55  H    0.019358
    56  H    0.018942
    57  H    0.005655
    58  H    0.027239
    59  H    0.041711
    60  H    0.037484
    61  H    0.035905
    62  H    0.033945
    63  H    0.016417
    64  H    0.009998
    65  H    0.023461
    66  H    0.012544
    67  H    0.005329
    68  H    0.006430
    69  H    0.006263
    70  H    0.007361
    71  H    0.019699
    72  H    0.030202
    73  H    0.047810
    74  H    0.010902
    75  H    0.046138
    76  H    0.036555
    77  H    0.045161
    78  H    0.047493
    79  H    0.050939
    80  Mg   0.835853
    81  C   -0.017072
    82  C   -0.088030
    83  C   -0.047322
    84  C   -0.065695
    85  N   -0.255916
    86  C   -0.047196
    87  C   -0.015196
    88  C   -0.091957
    89  C    0.047462
    90  C    0.119461
    91  C    0.062361
    92  C   -0.076947
    93  H    0.031361
    94  N   -0.423483
    95  C    0.163262
    96  C   -0.175621
    97  C   -0.009301
    98  C    0.152444
    99  C    0.100120
   100  C    0.014251
   101  O   -0.254719
   102  C    0.061629
   103  N   -0.350580
   104  C    0.037877
   105  C   -0.019818
   106  C   -0.034569
   107  C    0.088945
   108  C    0.072711
   109  C    0.034972
   110  C   -0.007477
   111  N   -0.324057
   112  C    0.078481
   113  C   -0.164499
   114  C    0.001916
   115  C    0.096098
   116  C    0.131496
   117  C    0.041204
   118  O   -0.189254
   119  C    0.001636
   120  C    0.211067
   121  O   -0.251998
   122  O   -0.304372
   123  C    0.152612
   124  H   -0.018661
   125  H   -0.017606
   126  H   -0.041762
   127  H    0.002930
   128  H   -0.008781
   129  H    0.023308
   130  H    0.006233
   131  H    0.030276
   132  H    0.012040
   133  H    0.035672
   134  H    0.024072
   135  H    0.018200
   136  H    0.009037
   137  H    0.023222
   138  H    0.038806
   139  H    0.036703
   140  H    0.035084
   141  H    0.034137
   142  H    0.013321
   143  H    0.012908
   144  H    0.023049
   145  H    0.009788
   146  H    0.010296
   147  H    0.005738
   148  H    0.003067
   149  H    0.010363
   150  H    0.017120
   151  H    0.030511
   152  H    0.045337
   153  H    0.008055
   154  H    0.044774
   155  H    0.037476
   156  H    0.043208
   157  H    0.050292
   158  H    0.052345
 Sum of Mulliken charges =  -0.00000
 Mulliken charges with hydrogens summed into heavy atoms:
               1
     1  Mg   0.839501
     2  C   -0.005211
     3  C   -0.111466
     4  C   -0.061963
     5  C   -0.102801
     6  N   -0.256946
     7  C   -0.052992
     8  C   -0.013363
     9  C   -0.091151
    10  C    0.046359
    11  C    0.164556
    12  C    0.105634
    13  C   -0.000675
    15  N   -0.433355
    16  C    0.169203
    17  C   -0.176169
    18  C   -0.003179
    19  C    0.148981
    20  C    0.184413
    21  C    0.012476
    22  O   -0.249899
    23  C    0.169060
    24  N   -0.341009
    25  C    0.041727
    26  C   -0.011898
    27  C   -0.013914
    28  C    0.074589
    29  C    0.117384
    30  C    0.047346
    31  C    0.052057
    32  N   -0.310428
    33  C    0.080112
    34  C   -0.169270
    35  C    0.007564
    36  C    0.082840
    37  C    0.232220
    38  C    0.044641
    39  O   -0.189000
    40  C    0.030918
    41  C    0.217367
    42  O   -0.255358
    43  O   -0.302395
    44  C    0.300794
    80  Mg   0.835853
    81  C   -0.017072
    82  C   -0.106690
    83  C   -0.064928
    84  C   -0.107457
    85  N   -0.255916
    86  C   -0.047196
    87  C   -0.012266
    88  C   -0.100738
    89  C    0.047462
    90  C    0.179279
    91  C    0.110073
    92  C   -0.003313
    94  N   -0.423483
    95  C    0.163262
    96  C   -0.175621
    97  C   -0.009301
    98  C    0.152444
    99  C    0.171185
   100  C    0.014251
   101  O   -0.254719
   102  C    0.167552
   103  N   -0.350580
   104  C    0.037877
   105  C   -0.006497
   106  C   -0.021662
   107  C    0.088945
   108  C    0.115844
   109  C    0.043777
   110  C    0.050517
   111  N   -0.324057
   112  C    0.078481
   113  C   -0.164499
   114  C    0.001916
   115  C    0.096098
   116  C    0.229662
   117  C    0.041204
   118  O   -0.189254
   119  C    0.039113
   120  C    0.211067
   121  O   -0.251998
   122  O   -0.304372
   123  C    0.298457
 Electronic spatial extent (au):  <R**2>=          87586.7770
 Charge=              0.0000 electrons
 Dipole moment (field-independent basis, Debye):
    X=             -6.2720    Y=              1.2055    Z=              5.6055  Tot=              8.4979
 Quadrupole moment (field-independent basis, Debye-Ang):
   XX=           -517.7377   YY=           -528.2159   ZZ=           -473.0351
   XY=             -3.3456   XZ=             -3.3854   YZ=            -30.8431
 Traceless Quadrupole moment (field-independent basis, Debye-Ang):
   XX=            -11.4081   YY=            -21.8863   ZZ=             33.2944
   XY=             -3.3456   XZ=             -3.3854   YZ=            -30.8431
 Octapole moment (field-independent basis, Debye-Ang**2):
  XXX=           -347.5971  YYY=           -139.2444  ZZZ=             96.1650  XYY=            164.3311
  XXY=             44.1043  XXZ=            206.5821  XZZ=           -163.4344  YZZ=            -62.4050
  YYZ=             77.3700  XYZ=           -149.9323
 Hexadecapole moment (field-independent basis, Debye-Ang**3):
 XXXX=         -53638.7735 YYYY=         -38960.6948 ZZZZ=         -26632.4641 XXXY=             34.0462
 XXXZ=           -228.4968 YYYX=          -1310.5481 YYYZ=           -637.7549 ZZZX=            758.6742
 ZZZY=           -614.5129 XXYY=         -14674.4978 XXZZ=         -13305.4053 YYZZ=         -11192.8472
 XXYZ=           -269.2568 YYXZ=          -1197.5427 ZZXY=            276.8409
 N-N= 1.594533957160D+04 E-N=-4.137198781824D+04  KE= 4.028793981290D+03
 Leave Link  601 at Fri Sep  3 17:46:14 2021, MaxMem= 23488102400 cpu:              15.1 elap:               0.8
 (Enter /sw/apps/gaussian-16.0/g16/l9999.exe)
 1\1\GINC-BP1-COMPUTE00100\SP\RCAM-B3LYP TD-FC\def2SVP\C68H72Mg2N8O8\OF
 15641\03-Sep-2021\0\\#p cam-b3lyp/Def2SVP td=(nstates=5)\\TDDFT excite
 d states in gaussian\\0,1\Mg,0,0.,0.,0.\C,0,-0.217,-2.218,2.801\C,0,-1
 .255,2.442,2.026\C,0,-0.245,1.85,-2.564\C,0,0.146,-2.824,-2.037\N,0,-0
 .617,-0.009,2.126\C,0,-0.594,-0.908,3.105\C,0,-0.936,-0.309,4.502\C,0,
 -1.773,0.964,4.032\C,0,-1.155,1.168,2.66\C,0,-3.263,0.685,3.863\C,0,0.
 345,0.11,5.299\C,0,0.124,0.397,6.787\H,0,1.168,0.033,7.733\N,0,-0.185,
 1.961,-0.152\C,0,-0.703,2.8,0.777\C,0,-0.62,4.156,0.193\C,0,-0.187,4.0
 15,-1.225\C,0,-0.214,2.583,-1.38\C,0,-0.887,5.406,0.974\C,0,0.181,5.01
 3,-2.277\O,0,0.303,4.69,-3.508\C,0,0.31,6.414,-1.837\N,0,-0.265,-0.413
 ,-2.029\C,0,-0.279,0.569,-2.937\C,0,-0.196,0.024,-4.332\C,0,0.124,-1.5
 33,-4.18\C,0,0.086,-1.632,-2.635\C,0,-1.451,0.205,-5.197\C,0,1.373,-2.
 07,-4.923\C,0,2.626,-1.49,-4.306\N,0,0.15,-2.144,0.303\C,0,0.173,-3.13
 6,-0.688\C,0,0.173,-4.438,0.004\C,0,0.133,-4.111,1.358\C,0,0.083,-2.69
 5,1.502\C,0,0.149,-5.715,-0.623\C,0,0.096,-4.629,2.716\O,0,0.208,-5.74
 7,3.221\C,0,-0.255,-3.428,3.701\C,0,0.717,-3.482,4.848\O,0,1.931,-3.25
 5,4.669\O,0,0.038,-3.556,6.003\C,0,0.943,-3.583,7.183\H,0,-1.859,3.22,
 2.497\H,0,-0.218,2.453,-3.474\H,0,0.276,-3.747,-2.605\H,0,-1.554,-0.94
 9,5.132\H,0,-1.585,1.831,4.665\H,0,-3.484,-0.377,3.969\H,0,-3.511,1.02
 7,2.858\H,0,-3.852,1.301,4.543\H,0,0.669,1.096,4.966\H,0,1.13,-0.639,5
 .189\H,0,-0.844,0.026,7.125\H,0,0.062,1.477,6.921\H,0,-1.344,5.186,1.9
 38\H,0,-1.651,5.963,0.432\H,0,0.007,6.02,1.084\H,0,-0.635,6.744,-1.405
 \H,0,0.665,6.97,-2.704\H,0,1.048,6.466,-1.036\H,0,0.608,0.501,-4.891\H
 ,0,-0.692,-2.156,-4.547\H,0,-1.267,0.74,-6.129\H,0,-2.204,0.714,-4.596
 \H,0,-1.967,-0.72,-5.453\H,0,1.356,-1.759,-5.967\H,0,1.452,-3.157,-4.9
 02\H,0,2.714,-0.522,-4.798\H,0,3.487,-2.121,-4.529\H,0,2.495,-1.303,-3
 .24\H,0,0.867,-6.333,-0.084\H,0,0.404,-5.642,-1.68\H,0,-0.891,-5.999,-
 0.463\H,0,-1.283,-3.581,4.028\H,0,0.698,-4.478,7.755\H,0,0.833,-2.619,
 7.68\H,0,2.,-3.754,6.976\Mg,0,7.89004,0.7076,0.6066\C,0,8.01713,-2.875
 36,0.44732\C,0,6.7926,0.3768,3.8192\C,0,7.33767,3.83194,0.63457\C,0,7.
 88421,0.72372,-2.87843\N,0,7.49608,-1.07189,1.85979\C,0,7.63902,-2.380
 45,1.71284\C,0,7.43902,-3.19968,3.01607\C,0,6.51914,-2.15558,3.81766\C
 ,0,6.98422,-0.86075,3.15449\C,0,5.03445,-2.32667,3.54239\C,0,8.79057,-
 3.46848,3.76645\C,0,8.71216,-4.51954,4.8759\H,0,9.86341,-5.3918,5.0909
 5\N,0,7.64571,1.95498,2.13071\C,0,7.21372,1.6484,3.37194\C,0,7.18867,2
 .91822,4.11429\C,0,7.48343,4.02379,3.16269\C,0,7.47977,3.2993,1.90762\
 C,0,6.98317,2.98851,5.59964\C,0,7.71584,5.49252,3.34979\O,0,7.71885,6.
 30539,2.3588\C,0,7.84678,5.96417,4.73612\N,0,7.4328,2.07208,-0.89389\C
 ,0,7.29436,3.38103,-0.61927\C,0,7.24183,4.20154,-1.88592\C,0,7.61825,3
 .19197,-3.06772\C,0,7.74148,1.88486,-2.25429\C,0,5.90004,4.86624,-2.19
 278\C,0,8.79671,3.60029,-3.99355\C,0,10.09427,3.57673,-3.2182\N,0,8.12
 582,-0.76574,-0.95601\C,0,8.06345,-0.54825,-2.34988\C,0,8.1673,-1.8698
 4,-3.00182\C,0,8.26049,-2.77385,-1.9329\C,0,8.19741,-2.06748,-0.70141\
 C,0,8.11925,-2.11199,-4.40366\C,0,8.38719,-4.16603,-1.56619\O,0,8.5707
 3,-5.21392,-2.18425\C,0,8.10805,-4.30551,-0.00766\C,0,9.19438,-5.16127
 ,0.58402\O,0,10.37304,-4.76492,0.60001\O,0,8.63446,-6.20347,1.22486\C,
 0,9.67149,-7.07551,1.83799\H,0,6.22926,0.38253,4.75274\H,0,7.2555,4.92
 019,0.58525\H,0,7.98865,0.65304,-3.96322\H,0,6.91151,-4.13713,2.88689\
 H,0,6.76034,-2.14918,4.87744\H,0,4.85026,-3.04755,2.75974\H,0,4.67518,
 -1.3491,3.24854\H,0,4.50602,-2.57662,4.46684\H,0,9.05084,-2.58466,4.36
 3\H,0,9.56543,-3.73205,3.07309\H,0,7.78861,-5.10861,4.82111\H,0,8.6450
 9,-4.0048,5.83745\H,0,6.62779,2.03196,6.00227\H,0,6.15371,3.68208,5.77
 522\H,0,7.86589,3.3517,6.13027\H,0,6.94662,5.70985,5.29064\H,0,8.09714
 ,7.0242,4.66175\H,0,8.67292,5.42469,5.21264\H,0,7.97288,5.00029,-1.859
 87\H,0,6.77958,3.05021,-3.76512\H,0,5.97312,5.96415,-2.30823\H,0,5.204
 92,4.6123,-1.40357\H,0,5.39073,4.49105,-3.0788\H,0,8.66397,4.62634,-4.
 34536\H,0,8.89561,2.96939,-4.87057\H,0,10.10107,4.55022,-2.71884\H,0,1
 0.94179,3.47322,-3.89276\H,0,10.07292,2.80646,-2.43853\H,0,8.89665,-2.
 83202,-4.62207\H,0,8.25622,-1.19357,-4.9707\H,0,7.10374,-2.50561,-4.49
 89\H,0,7.12199,-4.75669,0.10945\H,0,9.50595,-8.08699,1.45433\H,0,9.576
 89,-6.9294,2.93044\H,0,10.70256,-6.90634,1.55038\\Version=ES64L-G16Rev
 A.03\State=1-A\HF=-4069.8150467\RMSD=9.956e-09\PG=C01 [X(C68H72Mg2N8O8
 )]\\@


 THE MORE PROGRESS PHYSICAL SCIENCES MAKE, THE MORE THEY TEND TO ENTER
 THE DOMAIN OF MATHEMATICS, WHICH IS A KIND OF CENTRE TO WHICH THEY ALL
 CONVERGE.  WE MAY EVEN JUDGE THE DEGREE OF PERFECTION TO WHICH A 
 SCIENCE HAS ARRIVED BY THE FACILITY WITH WHICH IT MAY BE SUBMITTED
 TO CALCULATION.

                               -- ADOLPHE QUETELET, 1796-1874
 Job cpu time:       0 days 15 hours 53 minutes 13.0 seconds.
 Elapsed time:       0 days  0 hours 40 minutes 23.6 seconds.
 File lengths (MBytes):  RWF=  13225 Int=      0 D2E=      0 Chk=    574 Scr=      1
 Normal termination of Gaussian 16 at Fri Sep  3 17:46:15 2021.
