 Entering Gaussian System, Link 0=g16
 Initial command:
 /sw/apps/gaussian-16.0/g16/l1.exe "/tmp/Gau-95592.inp" -scrdir="/tmp/"
 Entering Link 1 = /sw/apps/gaussian-16.0/g16/l1.exe PID=     95593.
  
 Copyright (c) 1988,1990,1992,1993,1995,1998,2003,2009,2016,
            Gaussian, Inc.  All Rights Reserved.
  
 This is part of the Gaussian(R) 16 program.  It is based on
 the Gaussian(R) 09 system (copyright 2009, Gaussian, Inc.),
 the Gaussian(R) 03 system (copyright 2003, Gaussian, Inc.),
 the Gaussian(R) 98 system (copyright 1998, Gaussian, Inc.),
 the Gaussian(R) 94 system (copyright 1995, Gaussian, Inc.),
 the Gaussian 92(TM) system (copyright 1992, Gaussian, Inc.),
 the Gaussian 90(TM) system (copyright 1990, Gaussian, Inc.),
 the Gaussian 88(TM) system (copyright 1988, Gaussian, Inc.),
 the Gaussian 86(TM) system (copyright 1986, Carnegie Mellon
 University), and the Gaussian 82(TM) system (copyright 1983,
 Carnegie Mellon University). Gaussian is a federally registered
 trademark of Gaussian, Inc.
  
 This software contains proprietary and confidential information,
 including trade secrets, belonging to Gaussian, Inc.
  
 This software is provided under written license and may be
 used, copied, transmitted, or stored only in accord with that
 written license.
  
 The following legend is applicable only to US Government
 contracts under FAR:
  
                    RESTRICTED RIGHTS LEGEND
  
 Use, reproduction and disclosure by the US Government is
 subject to restrictions as set forth in subparagraphs (a)
 and (c) of the Commercial Computer Software - Restricted
 Rights clause in FAR 52.227-19.
  
 Gaussian, Inc.
 340 Quinnipiac St., Bldg. 40, Wallingford CT 06492
  
  
 ---------------------------------------------------------------
 Warning -- This program may not be used in any manner that
 competes with the business of Gaussian, Inc. or will provide
 assistance to any competitor of Gaussian, Inc.  The licensee
 of this program is prohibited from giving any competitor of
 Gaussian, Inc. access to this program.  By using this program,
 the user acknowledges that Gaussian, Inc. is engaged in the
 business of creating and licensing software in the field of
 computational chemistry and represents and warrants to the
 licensee that it is not a competitor of Gaussian, Inc. and that
 it will not use this program in any manner prohibited above.
 ---------------------------------------------------------------
  

 Cite this work as:
 Gaussian 16, Revision A.03,
 M. J. Frisch, G. W. Trucks, H. B. Schlegel, G. E. Scuseria, 
 M. A. Robb, J. R. Cheeseman, G. Scalmani, V. Barone, 
 G. A. Petersson, H. Nakatsuji, X. Li, M. Caricato, A. V. Marenich, 
 J. Bloino, B. G. Janesko, R. Gomperts, B. Mennucci, H. P. Hratchian, 
 J. V. Ortiz, A. F. Izmaylov, J. L. Sonnenberg, D. Williams-Young, 
 F. Ding, F. Lipparini, F. Egidi, J. Goings, B. Peng, A. Petrone, 
 T. Henderson, D. Ranasinghe, V. G. Zakrzewski, J. Gao, N. Rega, 
 G. Zheng, W. Liang, M. Hada, M. Ehara, K. Toyota, R. Fukuda, 
 J. Hasegawa, M. Ishida, T. Nakajima, Y. Honda, O. Kitao, H. Nakai, 
 T. Vreven, K. Throssell, J. A. Montgomery, Jr., J. E. Peralta, 
 F. Ogliaro, M. J. Bearpark, J. J. Heyd, E. N. Brothers, K. N. Kudin, 
 V. N. Staroverov, T. A. Keith, R. Kobayashi, J. Normand, 
 K. Raghavachari, A. P. Rendell, J. C. Burant, S. S. Iyengar, 
 J. Tomasi, M. Cossi, J. M. Millam, M. Klene, C. Adamo, R. Cammi, 
 J. W. Ochterski, R. L. Martin, K. Morokuma, O. Farkas, 
 J. B. Foresman, and D. J. Fox, Gaussian, Inc., Wallingford CT, 2016.
 
 ******************************************
 Gaussian 16:  ES64L-G16RevA.03 25-Dec-2016
                10-Sep-2021 
 ******************************************
 %nproc=24
 Will use up to   24 processors via shared memory.
 %mem=175gb
 -----------------------------------
 #p cam-b3lyp/Def2SVP td=(nstates=5)
 -----------------------------------
 1/38=1,172=1/1;
 2/12=2,17=6,18=5,40=1/2;
 3/5=43,7=101,11=9,25=1,30=1,74=-40/1,2,3,8;
 4//1;
 5/5=2,38=5/2;
 8/6=1,10=1,108=5/1;
 9/41=5,42=1,70=2/14;
 6/7=2,8=2,9=2,10=2/1;
 99/5=1,9=1/99;
 Leave Link    1 at Fri Sep 10 02:32:37 2021, MaxMem= 23488102400 cpu:               0.9 elap:               0.0
 (Enter /sw/apps/gaussian-16.0/g16/l101.exe)
 --------------------------------
 TDDFT excited states in gaussian
 --------------------------------
 Symbolic Z-matrix:
 Charge =  0 Multiplicity = 1
 Mg                    0.        0.        0. 
 C                    -0.217    -2.218     2.801 
 C                    -1.255     2.442     2.026 
 C                    -0.245     1.85     -2.564 
 C                     0.146    -2.824    -2.037 
 N                    -0.617    -0.009     2.126 
 C                    -0.594    -0.908     3.105 
 C                    -0.936    -0.309     4.502 
 C                    -1.773     0.964     4.032 
 C                    -1.155     1.168     2.66 
 C                    -3.263     0.685     3.863 
 C                     0.345     0.11      5.299 
 C                     0.124     0.397     6.787 
 H                     1.168     0.033     7.733 
 N                    -0.185     1.961    -0.152 
 C                    -0.703     2.8       0.777 
 C                    -0.62      4.156     0.193 
 C                    -0.187     4.015    -1.225 
 C                    -0.214     2.583    -1.38 
 C                    -0.887     5.406     0.974 
 C                     0.181     5.013    -2.277 
 O                     0.303     4.69     -3.508 
 C                     0.31      6.414    -1.837 
 N                    -0.265    -0.413    -2.029 
 C                    -0.279     0.569    -2.937 
 C                    -0.196     0.024    -4.332 
 C                     0.124    -1.533    -4.18 
 C                     0.086    -1.632    -2.635 
 C                    -1.451     0.205    -5.197 
 C                     1.373    -2.07     -4.923 
 C                     2.626    -1.49     -4.306 
 N                     0.15     -2.144     0.303 
 C                     0.173    -3.136    -0.688 
 C                     0.173    -4.438     0.004 
 C                     0.133    -4.111     1.358 
 C                     0.083    -2.695     1.502 
 C                     0.149    -5.715    -0.623 
 C                     0.096    -4.629     2.716 
 O                     0.208    -5.747     3.221 
 C                    -0.255    -3.428     3.701 
 C                     0.717    -3.482     4.848 
 O                     1.931    -3.255     4.669 
 O                     0.038    -3.556     6.003 
 C                     0.943    -3.583     7.183 
 H                    -1.859     3.22      2.497 
 H                    -0.218     2.453    -3.474 
 H                     0.276    -3.747    -2.605 
 H                    -1.554    -0.949     5.132 
 H                    -1.585     1.831     4.665 
 H                    -3.484    -0.377     3.969 
 H                    -3.511     1.027     2.858 
 H                    -3.852     1.301     4.543 
 H                     0.669     1.096     4.966 
 H                     1.13     -0.639     5.189 
 H                    -0.844     0.026     7.125 
 H                     0.062     1.477     6.921 
 H                    -1.344     5.186     1.938 
 H                    -1.651     5.963     0.432 
 H                     0.007     6.02      1.084 
 H                    -0.635     6.744    -1.405 
 H                     0.665     6.97     -2.704 
 H                     1.048     6.466    -1.036 
 H                     0.608     0.501    -4.891 
 H                    -0.692    -2.156    -4.547 
 H                    -1.267     0.74     -6.129 
 H                    -2.204     0.714    -4.596 
 H                    -1.967    -0.72     -5.453 
 H                     1.356    -1.759    -5.967 
 H                     1.452    -3.157    -4.902 
 H                     2.714    -0.522    -4.798 
 H                     3.487    -2.121    -4.529 
 H                     2.495    -1.303    -3.24 
 H                     0.867    -6.333    -0.084 
 H                     0.404    -5.642    -1.68 
 H                    -0.891    -5.999    -0.463 
 H                    -1.283    -3.581     4.028 
 H                     0.698    -4.478     7.755 
 H                     0.833    -2.619     7.68 
 H                     2.       -3.754     6.976 
 Mg                    8.94169   0.80588   0.68604 
 C                     7.65728  -1.18413   3.38219 
 C                     8.74473   3.49503   2.77512 
 C                     9.64086   2.65791  -1.79359 
 C                     7.96968  -1.74756  -1.4775 
 N                     8.27214   1.00315   2.78486 
 C                     7.86349   0.16768   3.72791 
 C                     7.74157   0.80127   5.13974 
 C                     7.54715   2.33342   4.69975 
 C                     8.26132   2.29271   3.35032 
 C                     6.0948    2.71115   4.46031 
 C                     9.043     0.61      5.99514 
 C                     8.88684   0.9289    7.48366 
 H                     9.63422   0.12791   8.44922 
 N                     9.6222    2.66918   0.62629 
 C                     9.47159   3.62116   1.57092 
 C                     10.13594   4.82213   1.04131 
 C                     10.54776   4.5498   -0.3626 
 C                     9.92073   3.26084  -0.57593 
 C                     10.39569   6.04296   1.87529 
 C                     11.35949   5.32736  -1.3539 
 O                     11.39225   5.00879  -2.59498 
 C                     12.04013   6.52759  -0.84628 
 N                     8.634     0.59873  -1.35963 
 C                     9.08241   1.5263   -2.2236 
 C                     8.99206   1.03374  -3.64825 
 C                     8.61349  -0.51653  -3.54363 
 C                     8.45611  -0.63578  -2.01184 
 C                     7.97248   1.74758  -4.53553 
 C                     9.54967  -1.52022  -4.27085 
 C                     10.90294  -1.54458  -3.59747 
 N                     8.15762  -1.19642   0.89601 
 C                     7.79548  -2.08377  -0.14109 
 C                     7.20642  -3.27985   0.49518 
 C                     7.24596  -2.99334   1.86807 
 C                     7.80064  -1.70093   2.0718 
 C                     6.68124  -4.41242  -0.18862 
 C                     6.93481  -3.48595   3.19065 
 O                     6.52887  -4.55419   3.64652 
 C                     7.07081  -2.28449   4.22235 
 C                     7.87224  -2.77083   5.39866 
 O                     9.06701  -3.08771   5.26185 
 O                     7.16344  -2.57593   6.5256 
 C                     7.92118  -3.03259   7.72105 
 H                     8.51011   4.43789   3.26995 
 H                     9.96523   3.21003  -2.6787 
 H                     7.73238  -2.62847  -2.0778 
 H                     6.88595   0.46812   5.7148 
 H                     8.05841   3.00807   5.38153 
 H                     5.44161   1.85271   4.51109 
 H                     6.06447   3.15174   3.47238 
 H                     5.79197   3.50207   5.15246 
 H                     9.77289   1.3799    5.71362 
 H                     9.43413  -0.38183   5.87717 
 H                     7.83377   1.00495   7.78064 
 H                     9.29031   1.92737   7.66882 
 H                     9.83331   6.0141    2.81672 
 H                     9.97407   6.89624   1.33308 
 H                     11.46031   6.22088   2.04141 
 H                     11.30415   7.2111   -0.42963 
 H                     12.64048   6.89758  -1.67969 
 H                     12.69903   6.23369  -0.02161 
 H                     9.94627   1.12927  -4.1517 
 H                     7.62477  -0.72474  -3.97828 
 H                     8.41911   2.18619  -5.44779 
 H                     7.48321   2.51185  -3.94644 
 H                     7.13382   1.13432  -4.86076 
 H                     9.72146  -1.19949  -5.30127 
 H                     9.15405  -2.52967  -4.30949 
 H                     11.41574  -0.68689  -4.04298 
 H                     11.42389  -2.47411  -3.81802 
 H                     10.81106  -1.35167  -2.5223 
 H                     7.03496  -5.28725   0.34059 
 H                     6.99048  -4.42575  -1.23167 
 H                     5.60944  -4.22577  -0.08059 
 H                     6.06258  -1.98399   4.51002 
 H                     7.28619  -3.7531    8.24578 
 H                     8.19778  -2.11224   8.26895 
 H                     8.81514  -3.62167   7.5529 
 
 ITRead=  0  0  0  0  0  0  0  0  0  0  0  0  0  0  0  0  0  0  0  0
 ITRead=  0  0  0  0  0  0  0  0  0  0  0  0  0  0  0  0  0  0  0  0
 ITRead=  0  0  0  0  0  0  0  0  0  0  0  0  0  0  0  0  0  0  0  0
 ITRead=  0  0  0  0  0  0  0  0  0  0  0  0  0  0  0  0  0  0  0  0
 ITRead=  0  0  0  0  0  0  0  0  0  0  0  0  0  0  0  0  0  0  0  0
 ITRead=  0  0  0  0  0  0  0  0  0  0  0  0  0  0  0  0  0  0  0  0
 ITRead=  0  0  0  0  0  0  0  0  0  0  0  0  0  0  0  0  0  0  0  0
 ITRead=  0  0  0  0  0  0  0  0  0  0  0  0  0  0  0  0  0  0
 MicOpt= -1 -1 -1 -1 -1 -1 -1 -1 -1 -1 -1 -1 -1 -1 -1 -1 -1 -1 -1 -1
 MicOpt= -1 -1 -1 -1 -1 -1 -1 -1 -1 -1 -1 -1 -1 -1 -1 -1 -1 -1 -1 -1
 MicOpt= -1 -1 -1 -1 -1 -1 -1 -1 -1 -1 -1 -1 -1 -1 -1 -1 -1 -1 -1 -1
 MicOpt= -1 -1 -1 -1 -1 -1 -1 -1 -1 -1 -1 -1 -1 -1 -1 -1 -1 -1 -1 -1
 MicOpt= -1 -1 -1 -1 -1 -1 -1 -1 -1 -1 -1 -1 -1 -1 -1 -1 -1 -1 -1 -1
 MicOpt= -1 -1 -1 -1 -1 -1 -1 -1 -1 -1 -1 -1 -1 -1 -1 -1 -1 -1 -1 -1
 MicOpt= -1 -1 -1 -1 -1 -1 -1 -1 -1 -1 -1 -1 -1 -1 -1 -1 -1 -1 -1 -1
 MicOpt= -1 -1 -1 -1 -1 -1 -1 -1 -1 -1 -1 -1 -1 -1 -1 -1 -1 -1
 NAtoms=    158 NQM=      158 NQMF=       0 NMMI=      0 NMMIF=      0
                NMic=       0 NMicF=      0.
                    Isotopes and Nuclear Properties:
 (Nuclear quadrupole moments (NQMom) in fm**2, nuclear magnetic moments (NMagM)
  in nuclear magnetons)

  Atom         1           2           3           4           5           6           7           8           9          10
 IAtWgt=          24          12          12          12          12          14          12          12          12          12
 AtmWgt=  23.9850450  12.0000000  12.0000000  12.0000000  12.0000000  14.0030740  12.0000000  12.0000000  12.0000000  12.0000000
 NucSpn=           0           0           0           0           0           2           0           0           0           0
 AtZEff=  -0.0000000  -0.0000000  -0.0000000  -0.0000000  -0.0000000  -0.0000000  -0.0000000  -0.0000000  -0.0000000  -0.0000000
 NQMom=    0.0000000   0.0000000   0.0000000   0.0000000   0.0000000   2.0440000   0.0000000   0.0000000   0.0000000   0.0000000
 NMagM=    0.0000000   0.0000000   0.0000000   0.0000000   0.0000000   0.4037610   0.0000000   0.0000000   0.0000000   0.0000000
 AtZNuc=  12.0000000   6.0000000   6.0000000   6.0000000   6.0000000   7.0000000   6.0000000   6.0000000   6.0000000   6.0000000

  Atom        11          12          13          14          15          16          17          18          19          20
 IAtWgt=          12          12          12           1          14          12          12          12          12          12
 AtmWgt=  12.0000000  12.0000000  12.0000000   1.0078250  14.0030740  12.0000000  12.0000000  12.0000000  12.0000000  12.0000000
 NucSpn=           0           0           0           1           2           0           0           0           0           0
 AtZEff=  -0.0000000  -0.0000000  -0.0000000  -0.0000000  -0.0000000  -0.0000000  -0.0000000  -0.0000000  -0.0000000  -0.0000000
 NQMom=    0.0000000   0.0000000   0.0000000   0.0000000   2.0440000   0.0000000   0.0000000   0.0000000   0.0000000   0.0000000
 NMagM=    0.0000000   0.0000000   0.0000000   2.7928460   0.4037610   0.0000000   0.0000000   0.0000000   0.0000000   0.0000000
 AtZNuc=   6.0000000   6.0000000   6.0000000   1.0000000   7.0000000   6.0000000   6.0000000   6.0000000   6.0000000   6.0000000

  Atom        21          22          23          24          25          26          27          28          29          30
 IAtWgt=          12          16          12          14          12          12          12          12          12          12
 AtmWgt=  12.0000000  15.9949146  12.0000000  14.0030740  12.0000000  12.0000000  12.0000000  12.0000000  12.0000000  12.0000000
 NucSpn=           0           0           0           2           0           0           0           0           0           0
 AtZEff=  -0.0000000  -0.0000000  -0.0000000  -0.0000000  -0.0000000  -0.0000000  -0.0000000  -0.0000000  -0.0000000  -0.0000000
 NQMom=    0.0000000   0.0000000   0.0000000   2.0440000   0.0000000   0.0000000   0.0000000   0.0000000   0.0000000   0.0000000
 NMagM=    0.0000000   0.0000000   0.0000000   0.4037610   0.0000000   0.0000000   0.0000000   0.0000000   0.0000000   0.0000000
 AtZNuc=   6.0000000   8.0000000   6.0000000   7.0000000   6.0000000   6.0000000   6.0000000   6.0000000   6.0000000   6.0000000

  Atom        31          32          33          34          35          36          37          38          39          40
 IAtWgt=          12          14          12          12          12          12          12          12          16          12
 AtmWgt=  12.0000000  14.0030740  12.0000000  12.0000000  12.0000000  12.0000000  12.0000000  12.0000000  15.9949146  12.0000000
 NucSpn=           0           2           0           0           0           0           0           0           0           0
 AtZEff=  -0.0000000  -0.0000000  -0.0000000  -0.0000000  -0.0000000  -0.0000000  -0.0000000  -0.0000000  -0.0000000  -0.0000000
 NQMom=    0.0000000   2.0440000   0.0000000   0.0000000   0.0000000   0.0000000   0.0000000   0.0000000   0.0000000   0.0000000
 NMagM=    0.0000000   0.4037610   0.0000000   0.0000000   0.0000000   0.0000000   0.0000000   0.0000000   0.0000000   0.0000000
 AtZNuc=   6.0000000   7.0000000   6.0000000   6.0000000   6.0000000   6.0000000   6.0000000   6.0000000   8.0000000   6.0000000

  Atom        41          42          43          44          45          46          47          48          49          50
 IAtWgt=          12          16          16          12           1           1           1           1           1           1
 AtmWgt=  12.0000000  15.9949146  15.9949146  12.0000000   1.0078250   1.0078250   1.0078250   1.0078250   1.0078250   1.0078250
 NucSpn=           0           0           0           0           1           1           1           1           1           1
 AtZEff=  -0.0000000  -0.0000000  -0.0000000  -0.0000000  -0.0000000  -0.0000000  -0.0000000  -0.0000000  -0.0000000  -0.0000000
 NQMom=    0.0000000   0.0000000   0.0000000   0.0000000   0.0000000   0.0000000   0.0000000   0.0000000   0.0000000   0.0000000
 NMagM=    0.0000000   0.0000000   0.0000000   0.0000000   2.7928460   2.7928460   2.7928460   2.7928460   2.7928460   2.7928460
 AtZNuc=   6.0000000   8.0000000   8.0000000   6.0000000   1.0000000   1.0000000   1.0000000   1.0000000   1.0000000   1.0000000

  Atom        51          52          53          54          55          56          57          58          59          60
 IAtWgt=           1           1           1           1           1           1           1           1           1           1
 AtmWgt=   1.0078250   1.0078250   1.0078250   1.0078250   1.0078250   1.0078250   1.0078250   1.0078250   1.0078250   1.0078250
 NucSpn=           1           1           1           1           1           1           1           1           1           1
 AtZEff=  -0.0000000  -0.0000000  -0.0000000  -0.0000000  -0.0000000  -0.0000000  -0.0000000  -0.0000000  -0.0000000  -0.0000000
 NQMom=    0.0000000   0.0000000   0.0000000   0.0000000   0.0000000   0.0000000   0.0000000   0.0000000   0.0000000   0.0000000
 NMagM=    2.7928460   2.7928460   2.7928460   2.7928460   2.7928460   2.7928460   2.7928460   2.7928460   2.7928460   2.7928460
 AtZNuc=   1.0000000   1.0000000   1.0000000   1.0000000   1.0000000   1.0000000   1.0000000   1.0000000   1.0000000   1.0000000

  Atom        61          62          63          64          65          66          67          68          69          70
 IAtWgt=           1           1           1           1           1           1           1           1           1           1
 AtmWgt=   1.0078250   1.0078250   1.0078250   1.0078250   1.0078250   1.0078250   1.0078250   1.0078250   1.0078250   1.0078250
 NucSpn=           1           1           1           1           1           1           1           1           1           1
 AtZEff=  -0.0000000  -0.0000000  -0.0000000  -0.0000000  -0.0000000  -0.0000000  -0.0000000  -0.0000000  -0.0000000  -0.0000000
 NQMom=    0.0000000   0.0000000   0.0000000   0.0000000   0.0000000   0.0000000   0.0000000   0.0000000   0.0000000   0.0000000
 NMagM=    2.7928460   2.7928460   2.7928460   2.7928460   2.7928460   2.7928460   2.7928460   2.7928460   2.7928460   2.7928460
 AtZNuc=   1.0000000   1.0000000   1.0000000   1.0000000   1.0000000   1.0000000   1.0000000   1.0000000   1.0000000   1.0000000

  Atom        71          72          73          74          75          76          77          78          79          80
 IAtWgt=           1           1           1           1           1           1           1           1           1          24
 AtmWgt=   1.0078250   1.0078250   1.0078250   1.0078250   1.0078250   1.0078250   1.0078250   1.0078250   1.0078250  23.9850450
 NucSpn=           1           1           1           1           1           1           1           1           1           0
 AtZEff=  -0.0000000  -0.0000000  -0.0000000  -0.0000000  -0.0000000  -0.0000000  -0.0000000  -0.0000000  -0.0000000  -0.0000000
 NQMom=    0.0000000   0.0000000   0.0000000   0.0000000   0.0000000   0.0000000   0.0000000   0.0000000   0.0000000   0.0000000
 NMagM=    2.7928460   2.7928460   2.7928460   2.7928460   2.7928460   2.7928460   2.7928460   2.7928460   2.7928460   0.0000000
 AtZNuc=   1.0000000   1.0000000   1.0000000   1.0000000   1.0000000   1.0000000   1.0000000   1.0000000   1.0000000  12.0000000

  Atom        81          82          83          84          85          86          87          88          89          90
 IAtWgt=          12          12          12          12          14          12          12          12          12          12
 AtmWgt=  12.0000000  12.0000000  12.0000000  12.0000000  14.0030740  12.0000000  12.0000000  12.0000000  12.0000000  12.0000000
 NucSpn=           0           0           0           0           2           0           0           0           0           0
 AtZEff=  -0.0000000  -0.0000000  -0.0000000  -0.0000000  -0.0000000  -0.0000000  -0.0000000  -0.0000000  -0.0000000  -0.0000000
 NQMom=    0.0000000   0.0000000   0.0000000   0.0000000   2.0440000   0.0000000   0.0000000   0.0000000   0.0000000   0.0000000
 NMagM=    0.0000000   0.0000000   0.0000000   0.0000000   0.4037610   0.0000000   0.0000000   0.0000000   0.0000000   0.0000000
 AtZNuc=   6.0000000   6.0000000   6.0000000   6.0000000   7.0000000   6.0000000   6.0000000   6.0000000   6.0000000   6.0000000

  Atom        91          92          93          94          95          96          97          98          99         100
 IAtWgt=          12          12           1          14          12          12          12          12          12          12
 AtmWgt=  12.0000000  12.0000000   1.0078250  14.0030740  12.0000000  12.0000000  12.0000000  12.0000000  12.0000000  12.0000000
 NucSpn=           0           0           1           2           0           0           0           0           0           0
 AtZEff=  -0.0000000  -0.0000000  -0.0000000  -0.0000000  -0.0000000  -0.0000000  -0.0000000  -0.0000000  -0.0000000  -0.0000000
 NQMom=    0.0000000   0.0000000   0.0000000   2.0440000   0.0000000   0.0000000   0.0000000   0.0000000   0.0000000   0.0000000
 NMagM=    0.0000000   0.0000000   2.7928460   0.4037610   0.0000000   0.0000000   0.0000000   0.0000000   0.0000000   0.0000000
 AtZNuc=   6.0000000   6.0000000   1.0000000   7.0000000   6.0000000   6.0000000   6.0000000   6.0000000   6.0000000   6.0000000

  Atom       101         102         103         104         105         106         107         108         109         110
 IAtWgt=          16          12          14          12          12          12          12          12          12          12
 AtmWgt=  15.9949146  12.0000000  14.0030740  12.0000000  12.0000000  12.0000000  12.0000000  12.0000000  12.0000000  12.0000000
 NucSpn=           0           0           2           0           0           0           0           0           0           0
 AtZEff=  -0.0000000  -0.0000000  -0.0000000  -0.0000000  -0.0000000  -0.0000000  -0.0000000  -0.0000000  -0.0000000  -0.0000000
 NQMom=    0.0000000   0.0000000   2.0440000   0.0000000   0.0000000   0.0000000   0.0000000   0.0000000   0.0000000   0.0000000
 NMagM=    0.0000000   0.0000000   0.4037610   0.0000000   0.0000000   0.0000000   0.0000000   0.0000000   0.0000000   0.0000000
 AtZNuc=   8.0000000   6.0000000   7.0000000   6.0000000   6.0000000   6.0000000   6.0000000   6.0000000   6.0000000   6.0000000

  Atom       111         112         113         114         115         116         117         118         119         120
 IAtWgt=          14          12          12          12          12          12          12          16          12          12
 AtmWgt=  14.0030740  12.0000000  12.0000000  12.0000000  12.0000000  12.0000000  12.0000000  15.9949146  12.0000000  12.0000000
 NucSpn=           2           0           0           0           0           0           0           0           0           0
 AtZEff=  -0.0000000  -0.0000000  -0.0000000  -0.0000000  -0.0000000  -0.0000000  -0.0000000  -0.0000000  -0.0000000  -0.0000000
 NQMom=    2.0440000   0.0000000   0.0000000   0.0000000   0.0000000   0.0000000   0.0000000   0.0000000   0.0000000   0.0000000
 NMagM=    0.4037610   0.0000000   0.0000000   0.0000000   0.0000000   0.0000000   0.0000000   0.0000000   0.0000000   0.0000000
 AtZNuc=   7.0000000   6.0000000   6.0000000   6.0000000   6.0000000   6.0000000   6.0000000   8.0000000   6.0000000   6.0000000

  Atom       121         122         123         124         125         126         127         128         129         130
 IAtWgt=          16          16          12           1           1           1           1           1           1           1
 AtmWgt=  15.9949146  15.9949146  12.0000000   1.0078250   1.0078250   1.0078250   1.0078250   1.0078250   1.0078250   1.0078250
 NucSpn=           0           0           0           1           1           1           1           1           1           1
 AtZEff=  -0.0000000  -0.0000000  -0.0000000  -0.0000000  -0.0000000  -0.0000000  -0.0000000  -0.0000000  -0.0000000  -0.0000000
 NQMom=    0.0000000   0.0000000   0.0000000   0.0000000   0.0000000   0.0000000   0.0000000   0.0000000   0.0000000   0.0000000
 NMagM=    0.0000000   0.0000000   0.0000000   2.7928460   2.7928460   2.7928460   2.7928460   2.7928460   2.7928460   2.7928460
 AtZNuc=   8.0000000   8.0000000   6.0000000   1.0000000   1.0000000   1.0000000   1.0000000   1.0000000   1.0000000   1.0000000

  Atom       131         132         133         134         135         136         137         138         139         140
 IAtWgt=           1           1           1           1           1           1           1           1           1           1
 AtmWgt=   1.0078250   1.0078250   1.0078250   1.0078250   1.0078250   1.0078250   1.0078250   1.0078250   1.0078250   1.0078250
 NucSpn=           1           1           1           1           1           1           1           1           1           1
 AtZEff=  -0.0000000  -0.0000000  -0.0000000  -0.0000000  -0.0000000  -0.0000000  -0.0000000  -0.0000000  -0.0000000  -0.0000000
 NQMom=    0.0000000   0.0000000   0.0000000   0.0000000   0.0000000   0.0000000   0.0000000   0.0000000   0.0000000   0.0000000
 NMagM=    2.7928460   2.7928460   2.7928460   2.7928460   2.7928460   2.7928460   2.7928460   2.7928460   2.7928460   2.7928460
 AtZNuc=   1.0000000   1.0000000   1.0000000   1.0000000   1.0000000   1.0000000   1.0000000   1.0000000   1.0000000   1.0000000

  Atom       141         142         143         144         145         146         147         148         149         150
 IAtWgt=           1           1           1           1           1           1           1           1           1           1
 AtmWgt=   1.0078250   1.0078250   1.0078250   1.0078250   1.0078250   1.0078250   1.0078250   1.0078250   1.0078250   1.0078250
 NucSpn=           1           1           1           1           1           1           1           1           1           1
 AtZEff=  -0.0000000  -0.0000000  -0.0000000  -0.0000000  -0.0000000  -0.0000000  -0.0000000  -0.0000000  -0.0000000  -0.0000000
 NQMom=    0.0000000   0.0000000   0.0000000   0.0000000   0.0000000   0.0000000   0.0000000   0.0000000   0.0000000   0.0000000
 NMagM=    2.7928460   2.7928460   2.7928460   2.7928460   2.7928460   2.7928460   2.7928460   2.7928460   2.7928460   2.7928460
 AtZNuc=   1.0000000   1.0000000   1.0000000   1.0000000   1.0000000   1.0000000   1.0000000   1.0000000   1.0000000   1.0000000

  Atom       151         152         153         154         155         156         157         158
 IAtWgt=           1           1           1           1           1           1           1           1
 AtmWgt=   1.0078250   1.0078250   1.0078250   1.0078250   1.0078250   1.0078250   1.0078250   1.0078250
 NucSpn=           1           1           1           1           1           1           1           1
 AtZEff=  -0.0000000  -0.0000000  -0.0000000  -0.0000000  -0.0000000  -0.0000000  -0.0000000  -0.0000000
 NQMom=    0.0000000   0.0000000   0.0000000   0.0000000   0.0000000   0.0000000   0.0000000   0.0000000
 NMagM=    2.7928460   2.7928460   2.7928460   2.7928460   2.7928460   2.7928460   2.7928460   2.7928460
 AtZNuc=   1.0000000   1.0000000   1.0000000   1.0000000   1.0000000   1.0000000   1.0000000   1.0000000
 Leave Link  101 at Fri Sep 10 02:32:37 2021, MaxMem= 23488102400 cpu:               3.4 elap:               0.2
 (Enter /sw/apps/gaussian-16.0/g16/l202.exe)
 Stoichiometry    C68H72Mg2N8O8
 Framework group  C1[X(C68H72Mg2N8O8)]
 Deg. of freedom   468
 Full point group                 C1      NOp   1
 Largest Abelian subgroup         C1      NOp   1
 Largest concise Abelian subgroup C1      NOp   1
                         Standard orientation:                         
 ---------------------------------------------------------------------
 Center     Atomic      Atomic             Coordinates (Angstroms)
 Number     Number       Type             X           Y           Z
 ---------------------------------------------------------------------
      1         12           0        4.106554   -1.528656    0.296820
      2          6           0        4.983565    1.905649   -0.201799
      3          6           0        4.817581   -1.075621    3.603218
      4          6           0        3.777514   -4.658814    0.684716
      5          6           0        4.562562   -1.989019   -3.127473
      6          7           0        4.801903    0.237850    1.435502
      7          6           0        5.042870    1.510522    1.136485
      8          6           0        5.290773    2.403217    2.389088
      9          6           0        5.769984    1.276518    3.410315
     10          6           0        5.059945    0.079780    2.802380
     11          6           0        7.273896    1.024191    3.377417
     12          6           0        3.983369    3.107615    2.885322
     13          6           0        4.194247    4.242157    3.892149
     14          1           0        3.314130    5.399629    3.837377
     15          7           0        3.800584   -2.591636    1.933679
     16          6           0        4.139434   -2.245903    3.198959
     17          6           0        3.702030   -3.366682    4.058735
     18          6           0        3.253304   -4.473996    3.169581
     19          6           0        3.621824   -3.955651    1.876952
     20          6           0        3.690821   -3.300008    5.555124
     21          6           0        2.606128   -5.794901    3.442536
     22          8           0        2.511475   -6.703670    2.548247
     23          6           0        2.159151   -6.033889    4.826783
     24          7           0        4.372940   -3.154219   -0.985451
     25          6           0        4.106194   -4.401552   -0.582972
     26          6           0        4.096115   -5.357779   -1.738597
     27          6           0        4.172751   -4.459367   -3.056449
     28          6           0        4.303068   -3.069012   -2.386970
     29          6           0        5.228915   -6.393300   -1.760309
     30          6           0        3.060424   -4.667059   -4.114755
     31          6           0        1.732791   -4.198397   -3.562628
     32          7           0        4.497849   -0.255026   -1.416597
     33          6           0        4.673070   -0.661988   -2.747144
     34          6           0        5.021743    0.541367   -3.524597
     35          6           0        5.041505    1.568647   -2.583242
     36          6           0        4.750988    1.036008   -1.294759
     37          6           0        5.328358    0.576280   -4.913554
     38          6           0        5.264669    2.988216   -2.362156
     39          8           0        5.451562    3.961017   -3.094428
     40          6           0        5.355945    3.242642   -0.792836
     41          6           0        4.478979    4.422139   -0.471856
     42          8           0        3.239506    4.350986   -0.598385
     43          8           0        5.206659    5.359882    0.153972
     44          6           0        4.389495    6.545355    0.526866
     45          1           0        5.234065   -1.115722    4.611620
     46          1           0        3.563413   -5.727320    0.754666
     47          1           0        4.636284   -2.041144   -4.215269
     48          1           0        6.073862    3.151590    2.266070
     49          1           0        5.404778    1.460890    4.420440
     50          1           0        7.751812    1.570385    2.564282
     51          1           0        7.385606   -0.050394    3.231539
     52          1           0        7.724748    1.243611    4.345593
     53          1           0        3.414021    2.413973    3.504002
     54          1           0        3.400672    3.478290    2.041290
     55          1           0        5.237672    4.556932    3.925158
     56          1           0        3.996870    3.853309    4.891169
     57          1           0        4.230480   -2.427478    5.921190
     58          1           0        4.270742   -4.149212    5.916030
     59          1           0        2.679916   -3.346329    5.960412
     60          1           0        3.013513   -5.955482    5.499440
     61          1           0        1.640696   -6.991957    4.814189
     62          1           0        1.467484   -5.242171    5.116143
     63          1           0        3.175787   -5.940110   -1.756297
     64          1           0        5.098752   -4.621419   -3.608659
     65          1           0        4.878321   -7.425262   -1.789309
     66          1           0        5.861198   -6.219400   -0.890097
     67          1           0        5.942943   -6.272650   -2.574572
     68          1           0        2.954164   -5.725406   -4.350457
     69          1           0        3.249998   -4.136822   -5.048116
     70          1           0        1.389322   -5.059652   -2.990701
     71          1           0        1.042612   -3.968873   -4.375144
     72          1           0        1.861932   -3.372795   -2.862493
     73          1           0        4.807745    1.443706   -5.319142
     74          1           0        5.016071   -0.341565   -5.411189
     75          1           0        6.412320    0.684200   -4.878406
     76          1           0        6.403822    3.438244   -0.567415
     77          1           0        4.870842    7.418479    0.086191
     78          1           0        4.283210    6.519688    1.611509
     79          1           0        3.397947    6.608096    0.077161
     80         12           0       -4.721508    0.097782   -0.405994
     81          6           0       -2.870764    3.168879   -0.554951
     82          6           0       -5.092915    0.657689    2.938126
     83          6           0       -5.961921   -2.812035   -0.157481
     84          6           0       -3.254106   -0.772221   -3.445006
     85          7           0       -4.026788    1.737522    0.905828
     86          6           0       -3.384771    2.882130    0.726847
     87          6           0       -3.357843    3.806279    1.973759
     88          6           0       -3.563001    2.687116    3.107011
     89          6           0       -4.305498    1.637593    2.282477
     90          6           0       -2.258927    2.077283    3.593659
     91          6           0       -4.533548    4.845380    1.973116
     92          6           0       -4.393242    5.975846    2.994946
     93          1           0       -4.878531    7.304898    2.633584
     94          7           0       -5.837967   -0.704425    1.025275
     95          6           0       -5.881885   -0.339550    2.323818
     96          6           0       -6.842213   -1.250705    2.965490
     97          6           0       -7.237752   -2.288656    1.975071
     98          6           0       -6.325464   -1.980787    0.892001
     99          6           0       -7.354218   -1.042010    4.361096
    100          6           0       -8.258293   -3.385862    2.003625
    101          8           0       -8.268028   -4.319422    1.125439
    102          6           0       -9.187660   -3.387282    3.142824
    103          7           0       -4.464729   -1.643624   -1.512303
    104          6           0       -5.164180   -2.755206   -1.224109
    105          6           0       -5.020450   -3.788537   -2.315885
    106          6           0       -4.270842   -3.043781   -3.516311
    107          6           0       -4.020529   -1.674321   -2.847511
    108          6           0       -4.246694   -5.051625   -1.938677
    109          6           0       -4.965571   -3.072080   -4.905277
    110          6           0       -6.240383   -2.260724   -4.861337
    111          7           0       -3.464073    1.079026   -1.863416
    112          6           0       -2.943345    0.523495   -3.052676
    113          6           0       -2.052359    1.537419   -3.653127
    114          6           0       -2.098927    2.612249   -2.752544
    115          6           0       -2.942399    2.283098   -1.657229
    116          6           0       -1.298007    1.377998   -4.849643
    117          6           0       -1.617964    3.946351   -2.474080
    118          8           0       -0.943659    4.772411   -3.087822
    119          6           0       -1.996485    4.317480   -0.975617
    120          6           0       -2.601431    5.694638   -0.976826
    121          8           0       -3.687707    5.907309   -1.543730
    122          8           0       -1.911736    6.479618   -0.129180
    123          6           0       -2.480738    7.853044   -0.087376
    124          1           0       -5.073415    0.620370    4.027674
    125          1           0       -6.450570   -3.788939   -0.176240
    126          1           0       -2.836280   -0.929313   -4.441709
    127          1           0       -2.421878    4.328480    2.132013
    128          1           0       -4.192254    3.053035    3.914171
    129          1           0       -1.414462    2.414130    3.010935
    130          1           0       -2.381370    1.006322    3.498293
    131          1           0       -2.127427    2.271649    4.661958
    132          1           0       -5.441076    4.359469    2.353934
    133          1           0       -4.675805    5.259144    0.993735
    134          1           0       -3.378300    6.036024    3.406295
    135          1           0       -5.019359    5.741916    3.859393
    136          1           0       -6.760112   -0.293516    4.899788
    137          1           0       -7.178261   -1.974063    4.908963
    138          1           0       -8.421514   -0.812208    4.388228
    139          1           0       -8.622711   -3.452097    4.069691
    140          1           0       -9.896916   -4.192169    2.940347
    141          1           0       -9.717258   -2.428268    3.163466
    142          1           0       -5.990745   -4.123527   -2.661449
    143          1           0       -3.281738   -3.482582   -3.713715
    144          1           0       -4.827312   -5.981002   -2.091048
    145          1           0       -3.932705   -4.964245   -0.907029
    146          1           0       -3.299242   -5.185174   -2.458015
    147          1           0       -5.256487   -4.093531   -5.162476
    148          1           0       -4.337804   -2.703775   -5.709800
    149          1           0       -6.966382   -2.964273   -4.442982
    150          1           0       -6.528205   -1.944994   -5.862102
    151          1           0       -6.150169   -1.423709   -4.159259
    152          1           0       -1.403513    2.297980   -5.409116
    153          1           0       -1.641154    0.520497   -5.424711
    154          1           0       -0.300382    1.219224   -4.431554
    155          1           0       -1.080152    4.273377   -0.385726
    156          1           0       -1.666275    8.543723   -0.326753
    157          1           0       -2.948609    7.952338    0.910112
    158          1           0       -3.210610    8.116409   -0.843933
 ---------------------------------------------------------------------
 Rotational constants (GHZ):           0.0213387           0.0150692           0.0125563
 Leave Link  202 at Fri Sep 10 02:32:37 2021, MaxMem= 23488102400 cpu:               0.2 elap:               0.0
 (Enter /sw/apps/gaussian-16.0/g16/l301.exe)
 Standard basis: def2SVP (5D, 7F)
 Ernie: Thresh=  0.10000D-02 Tol=  0.10000D-05 Strict=F.
 There are  1658 symmetry adapted cartesian basis functions of A   symmetry.
 There are  1572 symmetry adapted basis functions of A   symmetry.
  1572 basis functions,  2678 primitive gaussians,  1658 cartesian basis functions
   312 alpha electrons      312 beta electrons
       nuclear repulsion energy     15646.2480915485 Hartrees.
 IExCor=20419 DFT=T Ex+Corr=CAM-B3LYP ExCW=0 ScaHFX=  1.000000
 ScaDFX=  1.000000  1.000000  1.000000  0.810000 ScalE2=  1.000000  1.000000
 IRadAn=      5 IRanWt=     -1 IRanGd=            0 ICorTp=0 IEmpDi=  4
 HFx  wShort=  0.000000 wLong=  0.330000 cFull=  0.190000 cShort=  0.000000 cLong=  0.460000
 DFx  wShort=  0.000000 wLong=  0.330000 cFull=  0.190000 cShort=  0.000000 cLong=  0.460000
 NAtoms=  158 NActive=  158 NUniq=  158 SFac= 1.00D+00 NAtFMM=   60 NAOKFM=T Big=T
 Integral buffers will be    131072 words long.
 Raffenetti 1 integral format.
 Two-electron integral symmetry is turned on.
 Leave Link  301 at Fri Sep 10 02:32:37 2021, MaxMem= 23488102400 cpu:               1.3 elap:               0.1
 (Enter /sw/apps/gaussian-16.0/g16/l302.exe)
 NPDir=0 NMtPBC=     1 NCelOv=     1 NCel=       1 NClECP=     1 NCelD=      1
         NCelK=      1 NCelE2=     1 NClLst=     1 CellRange=     0.0.
 One-electron integrals computed using PRISM.
 One-electron integral symmetry used in STVInt
   1 Symmetry operations used in ECPInt.
 ECPInt:  NShTT=  271216 NPrTT=  987664 LenC2=  156085 LenP2D=  325893.
 LDataN:  DoStor=T MaxTD1= 4 Len=   56
 NBasis=  1572 RedAO= T EigKep=  3.36D-04  NBF=  1572
 NBsUse=  1572 1.00D-06 EigRej= -1.00D+00 NBFU=  1572
 Precomputing XC quadrature grid using
 IXCGrd= 4 IRadAn=           5 IRanWt=          -1 IRanGd=           0 AccXCQ= 0.00D+00.
 Generated NRdTot=       0 NPtTot=           0 NUsed=           0 NTot=          32
 NSgBfM=  1162  1142  1153  1159  1162 MxSgAt=   158 MxSgA2=   158.
 Leave Link  302 at Fri Sep 10 02:32:43 2021, MaxMem= 23488102400 cpu:             129.3 elap:               5.4
 (Enter /sw/apps/gaussian-16.0/g16/l303.exe)
 DipDrv:  MaxL=1.
 Leave Link  303 at Fri Sep 10 02:32:43 2021, MaxMem= 23488102400 cpu:               8.7 elap:               0.4
 (Enter /sw/apps/gaussian-16.0/g16/l308.exe)
 Leave Link  308 at Fri Sep 10 02:32:44 2021, MaxMem= 23488102400 cpu:              16.3 elap:               0.8
 (Enter /sw/apps/gaussian-16.0/g16/l401.exe)
 ExpMin= 3.36D-02 ExpMax= 4.95D+03 ExpMxC= 7.45D+02 IAcc=3 IRadAn=         5 AccDes= 0.00D+00
 Harris functional with IExCor=20419 and IRadAn=       5 diagonalized for initial guess.
 HarFok:  IExCor=20419 AccDes= 0.00D+00 IRadAn=         5 IDoV= 1 UseB2=F ITyADJ=14
 ICtDFT=  3500011 ScaDFX=  1.000000  1.000000  1.000000  1.000000
 FoFCou: FMM=F IPFlag=           0 FMFlag=      100000 FMFlg1=        2001
         NFxFlg=           0 DoJE=T BraDBF=F KetDBF=T FulRan=T
         wScrn=  0.000000 ICntrl=       500 IOpCl=  0 I1Cent=   200000004 NGrid=           0
         NMat0=    1 NMatS0=      1 NMatT0=    0 NMatD0=    1 NMtDS0=    0 NMtDT0=    0
 Petite list used in FoFCou.
 Harris En= -3918.65809027185    
 JPrj=0 DoOrth=F DoCkMO=F.
 Leave Link  401 at Fri Sep 10 02:32:52 2021, MaxMem= 23488102400 cpu:             191.3 elap:               8.0
 (Enter /sw/apps/gaussian-16.0/g16/l502.exe)
 Integral symmetry usage will be decided dynamically.
 Closed shell SCF:
 Using DIIS extrapolation, IDIIS=  1040.
 NGot= 23488102400 LenX= 23482547354 LenY= 23479796732
 Requested convergence on RMS density matrix=1.00D-08 within 128 cycles.
 Requested convergence on MAX density matrix=1.00D-06.
 Requested convergence on             energy=1.00D-06.
 No special actions if energy rises.
 Fock matrices will be formed incrementally for  20 cycles.

 Cycle   1  Pass 1  IDiag  1:
 FoFJK:  IHMeth= 1 ICntrl=       0 DoSepK=T KAlg= 0 I1Cent=           0 FoldK=F
 IRaf=         1 NMat=       1 IRICut=       1 DoRegI=T DoRafI=F ISym2E= 0 IDoP0=0 IntGTp=1.
 FoFCou: FMM=T IPFlag=           0 FMFlag=      100000 FMFlg1=        2001
         NFxFlg=           0 DoJE=T BraDBF=F KetDBF=F FulRan=T
         wScrn=  0.000000 ICntrl=       500 IOpCl=  0 I1Cent=           0 NGrid=           0
         NMat0=    1 NMatS0=      1 NMatT0=    0 NMatD0=    1 NMtDS0=    0 NMtDT0=    0
 Symmetry not used in FoFCou.
 FMM levels:  10  Number of levels for PrismC:   9
 E= -4068.94550406476    
 DIIS: error= 2.04D-02 at cycle   1 NSaved=   1.
 NSaved= 1 IEnMin= 1 EnMin= -4068.94550406476     IErMin= 1 ErrMin= 2.04D-02
 ErrMax= 2.04D-02  0.00D+00 EMaxC= 1.00D-01 BMatC= 1.69D+00 BMatP= 1.69D+00
 IDIUse=3 WtCom= 7.96D-01 WtEn= 2.04D-01
 Coeff-Com:  0.100D+01
 Coeff-En:   0.100D+01
 Coeff:      0.100D+01
 Gap=     0.120 Goal=   None    Shift=    0.000
 GapD=    0.120 DampG=1.000 DampE=0.500 DampFc=0.5000 IDamp=-1.
 Damping current iteration by 5.00D-01
 RMSDP=1.58D-03 MaxDP=1.35D-01              OVMax= 2.15D-01

 Cycle   2  Pass 1  IDiag  1:
 RMSU=  7.73D-04    CP:  9.82D-01
 E= -4069.33392838073     Delta-E=       -0.388424315974 Rises=F Damp=T
 DIIS: error= 1.27D-02 at cycle   2 NSaved=   2.
 NSaved= 2 IEnMin= 2 EnMin= -4069.33392838073     IErMin= 2 ErrMin= 1.27D-02
 ErrMax= 1.27D-02  0.00D+00 EMaxC= 1.00D-01 BMatC= 3.08D-01 BMatP= 1.69D+00
 IDIUse=3 WtCom= 8.73D-01 WtEn= 1.27D-01
 Coeff-Com: -0.211D+00 0.121D+01
 Coeff-En:   0.000D+00 0.100D+01
 Coeff:     -0.184D+00 0.118D+01
 Gap=     0.134 Goal=   None    Shift=    0.000
 RMSDP=7.73D-04 MaxDP=9.93D-02 DE=-3.88D-01 OVMax= 1.99D-01

 Cycle   3  Pass 1  IDiag  1:
 RMSU=  7.43D-04    CP:  9.68D-01  1.23D+00
 E= -4069.61802175850     Delta-E=       -0.284093377770 Rises=F Damp=F
 DIIS: error= 1.58D-02 at cycle   3 NSaved=   3.
 NSaved= 3 IEnMin= 3 EnMin= -4069.61802175850     IErMin= 2 ErrMin= 1.27D-02
 ErrMax= 1.58D-02  0.00D+00 EMaxC= 1.00D-01 BMatC= 2.07D-01 BMatP= 3.08D-01
 IDIUse=3 WtCom= 8.42D-01 WtEn= 1.58D-01
 Coeff-Com: -0.268D+00 0.655D+00 0.612D+00
 Coeff-En:   0.000D+00 0.000D+00 0.100D+01
 Coeff:     -0.225D+00 0.552D+00 0.674D+00
 Gap=     0.122 Goal=   None    Shift=    0.000
 RMSDP=5.31D-04 MaxDP=4.82D-02 DE=-2.84D-01 OVMax= 1.69D-01

 Cycle   4  Pass 1  IDiag  1:
 RMSU=  2.75D-04    CP:  9.65D-01  1.55D+00  4.90D-01
 E= -4069.75821679958     Delta-E=       -0.140195041080 Rises=F Damp=F
 DIIS: error= 7.21D-03 at cycle   4 NSaved=   4.
 NSaved= 4 IEnMin= 4 EnMin= -4069.75821679958     IErMin= 4 ErrMin= 7.21D-03
 ErrMax= 7.21D-03  0.00D+00 EMaxC= 1.00D-01 BMatC= 5.36D-02 BMatP= 2.07D-01
 IDIUse=3 WtCom= 9.28D-01 WtEn= 7.21D-02
 Coeff-Com: -0.111D+00 0.230D+00 0.411D+00 0.469D+00
 Coeff-En:   0.000D+00 0.000D+00 0.234D+00 0.766D+00
 Coeff:     -0.103D+00 0.214D+00 0.398D+00 0.490D+00
 Gap=     0.120 Goal=   None    Shift=    0.000
 RMSDP=2.17D-04 MaxDP=1.96D-02 DE=-1.40D-01 OVMax= 8.17D-02

 Cycle   5  Pass 1  IDiag  1:
 RMSU=  8.37D-05    CP:  9.64D-01  1.48D+00  6.85D-01  5.29D-01
 E= -4069.80849376774     Delta-E=       -0.050276968159 Rises=F Damp=F
 DIIS: error= 6.70D-04 at cycle   5 NSaved=   5.
 NSaved= 5 IEnMin= 5 EnMin= -4069.80849376774     IErMin= 5 ErrMin= 6.70D-04
 ErrMax= 6.70D-04  0.00D+00 EMaxC= 1.00D-01 BMatC= 1.53D-03 BMatP= 5.36D-02
 IDIUse=3 WtCom= 9.93D-01 WtEn= 6.70D-03
 Coeff-Com: -0.400D-01 0.789D-01 0.180D+00 0.262D+00 0.519D+00
 Coeff-En:   0.000D+00 0.000D+00 0.000D+00 0.000D+00 0.100D+01
 Coeff:     -0.397D-01 0.784D-01 0.179D+00 0.260D+00 0.522D+00
 Gap=     0.120 Goal=   None    Shift=    0.000
 RMSDP=5.00D-05 MaxDP=4.74D-03 DE=-5.03D-02 OVMax= 2.46D-02

 Cycle   6  Pass 1  IDiag  1:
 RMSU=  3.48D-05    CP:  9.64D-01  1.49D+00  6.74D-01  6.14D-01  6.95D-01
 E= -4069.80997407564     Delta-E=       -0.001480307896 Rises=F Damp=F
 DIIS: error= 2.29D-04 at cycle   6 NSaved=   6.
 NSaved= 6 IEnMin= 6 EnMin= -4069.80997407564     IErMin= 6 ErrMin= 2.29D-04
 ErrMax= 2.29D-04  0.00D+00 EMaxC= 1.00D-01 BMatC= 2.31D-04 BMatP= 1.53D-03
 IDIUse=3 WtCom= 9.98D-01 WtEn= 2.29D-03
 Coeff-Com:  0.165D-02-0.560D-02 0.149D-01 0.449D-01 0.302D+00 0.642D+00
 Coeff-En:   0.000D+00 0.000D+00 0.000D+00 0.000D+00 0.124D+00 0.876D+00
 Coeff:      0.165D-02-0.559D-02 0.149D-01 0.448D-01 0.301D+00 0.643D+00
 Gap=     0.120 Goal=   None    Shift=    0.000
 RMSDP=1.90D-05 MaxDP=1.44D-03 DE=-1.48D-03 OVMax= 9.30D-03

 Cycle   7  Pass 1  IDiag  1:
 RMSU=  1.20D-05    CP:  9.64D-01  1.49D+00  6.81D-01  6.10D-01  8.17D-01
                    CP:  7.33D-01
 E= -4069.81024281346     Delta-E=       -0.000268737826 Rises=F Damp=F
 DIIS: error= 1.26D-04 at cycle   7 NSaved=   7.
 NSaved= 7 IEnMin= 7 EnMin= -4069.81024281346     IErMin= 7 ErrMin= 1.26D-04
 ErrMax= 1.26D-04  0.00D+00 EMaxC= 1.00D-01 BMatC= 3.04D-05 BMatP= 2.31D-04
 IDIUse=3 WtCom= 9.99D-01 WtEn= 1.26D-03
 Coeff-Com:  0.478D-02-0.105D-01-0.897D-02-0.288D-02 0.110D+00 0.345D+00
 Coeff-Com:  0.563D+00
 Coeff-En:   0.000D+00 0.000D+00 0.000D+00 0.000D+00 0.000D+00 0.000D+00
 Coeff-En:   0.100D+01
 Coeff:      0.477D-02-0.105D-01-0.896D-02-0.288D-02 0.109D+00 0.344D+00
 Coeff:      0.564D+00
 Gap=     0.120 Goal=   None    Shift=    0.000
 RMSDP=7.02D-06 MaxDP=1.12D-03 DE=-2.69D-04 OVMax= 3.48D-03

 Cycle   8  Pass 1  IDiag  1:
 RMSU=  5.06D-06    CP:  9.64D-01  1.49D+00  6.82D-01  6.16D-01  8.16D-01
                    CP:  8.47D-01  8.18D-01
 E= -4069.81027944330     Delta-E=       -0.000036629837 Rises=F Damp=F
 DIIS: error= 5.87D-05 at cycle   8 NSaved=   8.
 NSaved= 8 IEnMin= 8 EnMin= -4069.81027944330     IErMin= 8 ErrMin= 5.87D-05
 ErrMax= 5.87D-05  0.00D+00 EMaxC= 1.00D-01 BMatC= 5.12D-06 BMatP= 3.04D-05
 IDIUse=1 WtCom= 1.00D+00 WtEn= 0.00D+00
 Coeff-Com:  0.227D-02-0.452D-02-0.794D-02-0.120D-01-0.628D-02 0.318D-01
 Coeff-Com:  0.301D+00 0.696D+00
 Coeff:      0.227D-02-0.452D-02-0.794D-02-0.120D-01-0.628D-02 0.318D-01
 Coeff:      0.301D+00 0.696D+00
 Gap=     0.121 Goal=   None    Shift=    0.000
 RMSDP=3.54D-06 MaxDP=4.25D-04 DE=-3.66D-05 OVMax= 1.24D-03

 Cycle   9  Pass 1  IDiag  1:
 RMSU=  2.09D-06    CP:  9.64D-01  1.49D+00  6.82D-01  6.17D-01  8.32D-01
                    CP:  8.77D-01  1.00D+00  9.91D-01
 E= -4069.81028785890     Delta-E=       -0.000008415598 Rises=F Damp=F
 DIIS: error= 2.19D-05 at cycle   9 NSaved=   9.
 NSaved= 9 IEnMin= 9 EnMin= -4069.81028785890     IErMin= 9 ErrMin= 2.19D-05
 ErrMax= 2.19D-05  0.00D+00 EMaxC= 1.00D-01 BMatC= 8.96D-07 BMatP= 5.12D-06
 IDIUse=1 WtCom= 1.00D+00 WtEn= 0.00D+00
 Coeff-Com:  0.497D-03-0.826D-03-0.281D-02-0.617D-02-0.186D-01-0.424D-01
 Coeff-Com:  0.843D-01 0.354D+00 0.632D+00
 Coeff:      0.497D-03-0.826D-03-0.281D-02-0.617D-02-0.186D-01-0.424D-01
 Coeff:      0.843D-01 0.354D+00 0.632D+00
 Gap=     0.121 Goal=   None    Shift=    0.000
 RMSDP=1.57D-06 MaxDP=1.52D-04 DE=-8.42D-06 OVMax= 8.63D-04

 Cycle  10  Pass 1  IDiag  1:
 RMSU=  1.04D-06    CP:  9.64D-01  1.49D+00  6.82D-01  6.18D-01  8.36D-01
                    CP:  8.87D-01  1.05D+00  1.16D+00  1.05D+00
 E= -4069.81028985476     Delta-E=       -0.000001995861 Rises=F Damp=F
 DIIS: error= 1.07D-05 at cycle  10 NSaved=  10.
 NSaved=10 IEnMin=10 EnMin= -4069.81028985476     IErMin=10 ErrMin= 1.07D-05
 ErrMax= 1.07D-05  0.00D+00 EMaxC= 1.00D-01 BMatC= 2.07D-07 BMatP= 8.96D-07
 IDIUse=1 WtCom= 1.00D+00 WtEn= 0.00D+00
 Coeff-Com: -0.437D-03 0.925D-03 0.121D-02 0.926D-03-0.367D-02-0.329D-01
 Coeff-Com: -0.428D-01-0.630D-01 0.235D+00 0.905D+00
 Coeff:     -0.437D-03 0.925D-03 0.121D-02 0.926D-03-0.367D-02-0.329D-01
 Coeff:     -0.428D-01-0.630D-01 0.235D+00 0.905D+00
 Gap=     0.121 Goal=   None    Shift=    0.000
 RMSDP=1.34D-06 MaxDP=1.27D-04 DE=-2.00D-06 OVMax= 7.13D-04

 Cycle  11  Pass 1  IDiag  1:
 RMSU=  6.08D-07    CP:  9.64D-01  1.49D+00  6.82D-01  6.18D-01  8.38D-01
                    CP:  8.97D-01  1.09D+00  1.28D+00  1.40D+00  1.34D+00
 E= -4069.81029081136     Delta-E=       -0.000000956607 Rises=F Damp=F
 DIIS: error= 5.10D-06 at cycle  11 NSaved=  11.
 NSaved=11 IEnMin=11 EnMin= -4069.81029081136     IErMin=11 ErrMin= 5.10D-06
 ErrMax= 5.10D-06  0.00D+00 EMaxC= 1.00D-01 BMatC= 9.38D-08 BMatP= 2.07D-07
 IDIUse=1 WtCom= 1.00D+00 WtEn= 0.00D+00
 Coeff-Com: -0.371D-03 0.725D-03 0.145D-02 0.216D-02 0.417D-02-0.101D-01
 Coeff-Com: -0.413D-01-0.135D+00-0.385D-01 0.526D+00 0.691D+00
 Coeff:     -0.371D-03 0.725D-03 0.145D-02 0.216D-02 0.417D-02-0.101D-01
 Coeff:     -0.413D-01-0.135D+00-0.385D-01 0.526D+00 0.691D+00
 Gap=     0.121 Goal=   None    Shift=    0.000
 RMSDP=7.82D-07 MaxDP=7.72D-05 DE=-9.57D-07 OVMax= 4.71D-04

 Cycle  12  Pass 1  IDiag  1:
 RMSU=  3.04D-07    CP:  9.64D-01  1.49D+00  6.82D-01  6.18D-01  8.39D-01
                    CP:  8.99D-01  1.12D+00  1.35D+00  1.56D+00  1.75D+00
                    CP:  1.14D+00
 E= -4069.81029116070     Delta-E=       -0.000000349333 Rises=F Damp=F
 DIIS: error= 3.44D-06 at cycle  12 NSaved=  12.
 NSaved=12 IEnMin=12 EnMin= -4069.81029116070     IErMin=12 ErrMin= 3.44D-06
 ErrMax= 3.44D-06  0.00D+00 EMaxC= 1.00D-01 BMatC= 2.34D-08 BMatP= 9.38D-08
 IDIUse=1 WtCom= 1.00D+00 WtEn= 0.00D+00
 Coeff-Com: -0.402D-04 0.598D-04 0.351D-03 0.752D-03 0.398D-02 0.330D-02
 Coeff-Com: -0.133D-02-0.470D-01-0.842D-01-0.642D-02 0.280D+00 0.851D+00
 Coeff:     -0.402D-04 0.598D-04 0.351D-03 0.752D-03 0.398D-02 0.330D-02
 Coeff:     -0.133D-02-0.470D-01-0.842D-01-0.642D-02 0.280D+00 0.851D+00
 Gap=     0.121 Goal=   None    Shift=    0.000
 RMSDP=4.89D-07 MaxDP=3.04D-05 DE=-3.49D-07 OVMax= 2.88D-04

 Cycle  13  Pass 1  IDiag  1:
 RMSU=  1.83D-07    CP:  9.64D-01  1.49D+00  6.82D-01  6.18D-01  8.40D-01
                    CP:  8.99D-01  1.12D+00  1.38D+00  1.68D+00  1.97D+00
                    CP:  1.55D+00  1.21D+00
 E= -4069.81029128448     Delta-E=       -0.000000123782 Rises=F Damp=F
 DIIS: error= 1.81D-06 at cycle  13 NSaved=  13.
 NSaved=13 IEnMin=13 EnMin= -4069.81029128448     IErMin=13 ErrMin= 1.81D-06
 ErrMax= 1.81D-06  0.00D+00 EMaxC= 1.00D-01 BMatC= 1.12D-08 BMatP= 2.34D-08
 IDIUse=1 WtCom= 1.00D+00 WtEn= 0.00D+00
 Coeff-Com:  0.123D-03-0.253D-03-0.361D-03-0.424D-03 0.997D-03 0.512D-02
 Coeff-Com:  0.180D-01 0.231D-01-0.361D-01-0.233D+00-0.166D+00 0.538D+00
 Coeff-Com:  0.851D+00
 Coeff:      0.123D-03-0.253D-03-0.361D-03-0.424D-03 0.997D-03 0.512D-02
 Coeff:      0.180D-01 0.231D-01-0.361D-01-0.233D+00-0.166D+00 0.538D+00
 Coeff:      0.851D+00
 Gap=     0.121 Goal=   None    Shift=    0.000
 RMSDP=4.17D-07 MaxDP=2.46D-05 DE=-1.24D-07 OVMax= 2.78D-04

 Cycle  14  Pass 1  IDiag  1:
 RMSU=  8.75D-08    CP:  9.64D-01  1.49D+00  6.82D-01  6.18D-01  8.40D-01
                    CP:  9.00D-01  1.13D+00  1.41D+00  1.76D+00  2.19D+00
                    CP:  1.82D+00  1.75D+00  1.18D+00
 E= -4069.81029133864     Delta-E=       -0.000000054166 Rises=F Damp=F
 DIIS: error= 8.99D-07 at cycle  14 NSaved=  14.
 NSaved=14 IEnMin=14 EnMin= -4069.81029133864     IErMin=14 ErrMin= 8.99D-07
 ErrMax= 8.99D-07  0.00D+00 EMaxC= 1.00D-01 BMatC= 1.76D-09 BMatP= 1.12D-08
 IDIUse=1 WtCom= 1.00D+00 WtEn= 0.00D+00
 Coeff-Com:  0.744D-04-0.147D-03-0.272D-03-0.416D-03-0.378D-03 0.132D-02
 Coeff-Com:  0.101D-01 0.218D-01 0.534D-02-0.107D+00-0.151D+00 0.548D-01
 Coeff-Com:  0.426D+00 0.741D+00
 Coeff:      0.744D-04-0.147D-03-0.272D-03-0.416D-03-0.378D-03 0.132D-02
 Coeff:      0.101D-01 0.218D-01 0.534D-02-0.107D+00-0.151D+00 0.548D-01
 Coeff:      0.426D+00 0.741D+00
 Gap=     0.121 Goal=   None    Shift=    0.000
 RMSDP=1.36D-07 MaxDP=8.89D-06 DE=-5.42D-08 OVMax= 7.83D-05

 Cycle  15  Pass 1  IDiag  1:
 RMSU=  4.29D-08    CP:  9.64D-01  1.49D+00  6.82D-01  6.18D-01  8.40D-01
                    CP:  9.00D-01  1.13D+00  1.41D+00  1.79D+00  2.24D+00
                    CP:  1.93D+00  1.91D+00  1.44D+00  1.06D+00
 E= -4069.81029134478     Delta-E=       -0.000000006134 Rises=F Damp=F
 DIIS: error= 4.22D-07 at cycle  15 NSaved=  15.
 NSaved=15 IEnMin=15 EnMin= -4069.81029134478     IErMin=15 ErrMin= 4.22D-07
 ErrMax= 4.22D-07  0.00D+00 EMaxC= 1.00D-01 BMatC= 2.72D-10 BMatP= 1.76D-09
 IDIUse=1 WtCom= 1.00D+00 WtEn= 0.00D+00
 Coeff-Com:  0.966D-05-0.173D-04-0.493D-04-0.107D-03-0.305D-03-0.496D-03
 Coeff-Com:  0.137D-02 0.404D-02 0.929D-02-0.436D-02-0.324D-01-0.717D-01
 Coeff-Com:  0.499D-01 0.308D+00 0.736D+00
 Coeff:      0.966D-05-0.173D-04-0.493D-04-0.107D-03-0.305D-03-0.496D-03
 Coeff:      0.137D-02 0.404D-02 0.929D-02-0.436D-02-0.324D-01-0.717D-01
 Coeff:      0.499D-01 0.308D+00 0.736D+00
 Gap=     0.121 Goal=   None    Shift=    0.000
 RMSDP=3.81D-08 MaxDP=2.16D-06 DE=-6.13D-09 OVMax= 3.04D-05

 Cycle  16  Pass 1  IDiag  1:
 RMSU=  2.07D-08    CP:  9.64D-01  1.49D+00  6.82D-01  6.18D-01  8.40D-01
                    CP:  9.00D-01  1.13D+00  1.41D+00  1.79D+00  2.25D+00
                    CP:  1.95D+00  1.95D+00  1.51D+00  1.24D+00  1.12D+00
 E= -4069.81029134546     Delta-E=       -0.000000000684 Rises=F Damp=F
 DIIS: error= 2.21D-07 at cycle  16 NSaved=  16.
 NSaved=16 IEnMin=16 EnMin= -4069.81029134546     IErMin=16 ErrMin= 2.21D-07
 ErrMax= 2.21D-07  0.00D+00 EMaxC= 1.00D-01 BMatC= 1.08D-10 BMatP= 2.72D-10
 IDIUse=1 WtCom= 1.00D+00 WtEn= 0.00D+00
 Coeff-Com: -0.136D-04 0.277D-04 0.428D-04 0.443D-04-0.626D-04-0.633D-03
 Coeff-Com: -0.169D-02-0.388D-02 0.427D-02 0.233D-01 0.217D-01-0.589D-01
 Coeff-Com: -0.749D-01-0.397D-01 0.390D+00 0.741D+00
 Coeff:     -0.136D-04 0.277D-04 0.428D-04 0.443D-04-0.626D-04-0.633D-03
 Coeff:     -0.169D-02-0.388D-02 0.427D-02 0.233D-01 0.217D-01-0.589D-01
 Coeff:     -0.749D-01-0.397D-01 0.390D+00 0.741D+00
 Gap=     0.121 Goal=   None    Shift=    0.000
 RMSDP=2.63D-08 MaxDP=1.73D-06 DE=-6.84D-10 OVMax= 1.53D-05

 Cycle  17  Pass 1  IDiag  1:
 RMSU=  1.16D-08    CP:  9.64D-01  1.49D+00  6.82D-01  6.18D-01  8.40D-01
                    CP:  9.00D-01  1.13D+00  1.41D+00  1.79D+00  2.26D+00
                    CP:  1.97D+00  1.98D+00  1.56D+00  1.34D+00  1.40D+00
                    CP:  1.21D+00
 E= -4069.81029134593     Delta-E=       -0.000000000469 Rises=F Damp=F
 DIIS: error= 8.84D-08 at cycle  17 NSaved=  17.
 NSaved=17 IEnMin=17 EnMin= -4069.81029134593     IErMin=17 ErrMin= 8.84D-08
 ErrMax= 8.84D-08  0.00D+00 EMaxC= 1.00D-01 BMatC= 2.19D-11 BMatP= 1.08D-10
 IDIUse=1 WtCom= 1.00D+00 WtEn= 0.00D+00
 Coeff-Com: -0.832D-05 0.163D-04 0.316D-04 0.447D-04 0.674D-04-0.158D-03
 Coeff-Com: -0.940D-03-0.299D-02 0.119D-04 0.105D-01 0.190D-01-0.897D-02
 Coeff-Com: -0.369D-01-0.997D-01-0.825D-02 0.301D+00 0.827D+00
 Coeff:     -0.832D-05 0.163D-04 0.316D-04 0.447D-04 0.674D-04-0.158D-03
 Coeff:     -0.940D-03-0.299D-02 0.119D-04 0.105D-01 0.190D-01-0.897D-02
 Coeff:     -0.369D-01-0.997D-01-0.825D-02 0.301D+00 0.827D+00
 Gap=     0.121 Goal=   None    Shift=    0.000
 RMSDP=1.39D-08 MaxDP=8.60D-07 DE=-4.69D-10 OVMax= 9.98D-06

 Cycle  18  Pass 1  IDiag  1:
 RMSU=  5.82D-09    CP:  9.64D-01  1.49D+00  6.82D-01  6.18D-01  8.40D-01
                    CP:  9.00D-01  1.13D+00  1.41D+00  1.79D+00  2.26D+00
                    CP:  1.97D+00  1.98D+00  1.57D+00  1.39D+00  1.56D+00
                    CP:  1.58D+00  1.33D+00
 E= -4069.81029134621     Delta-E=       -0.000000000280 Rises=F Damp=F
 DIIS: error= 7.19D-08 at cycle  18 NSaved=  18.
 NSaved=18 IEnMin=18 EnMin= -4069.81029134621     IErMin=18 ErrMin= 7.19D-08
 ErrMax= 7.19D-08  0.00D+00 EMaxC= 1.00D-01 BMatC= 9.40D-12 BMatP= 2.19D-11
 IDIUse=1 WtCom= 1.00D+00 WtEn= 0.00D+00
 Coeff-Com:  0.448D-06-0.126D-05 0.142D-05 0.667D-05 0.675D-04 0.144D-03
 Coeff-Com:  0.182D-03-0.242D-03-0.122D-02-0.356D-02 0.236D-02 0.138D-01
 Coeff-Com:  0.113D-01-0.398D-01-0.140D+00-0.134D+00 0.417D+00 0.874D+00
 Coeff:      0.448D-06-0.126D-05 0.142D-05 0.667D-05 0.675D-04 0.144D-03
 Coeff:      0.182D-03-0.242D-03-0.122D-02-0.356D-02 0.236D-02 0.138D-01
 Coeff:      0.113D-01-0.398D-01-0.140D+00-0.134D+00 0.417D+00 0.874D+00
 Gap=     0.121 Goal=   None    Shift=    0.000
 RMSDP=1.11D-08 MaxDP=6.34D-07 DE=-2.80D-10 OVMax= 6.23D-06

 Cycle  19  Pass 1  IDiag  1:
 RMSU=  3.28D-09    CP:  9.64D-01  1.49D+00  6.82D-01  6.18D-01  8.40D-01
                    CP:  9.00D-01  1.13D+00  1.41D+00  1.79D+00  2.26D+00
                    CP:  1.97D+00  1.99D+00  1.58D+00  1.43D+00  1.68D+00
                    CP:  1.84D+00  1.83D+00  1.20D+00
 E= -4069.81029134611     Delta-E=        0.000000000106 Rises=F Damp=F
 DIIS: error= 2.72D-08 at cycle  19 NSaved=  19.
 NSaved=19 IEnMin=18 EnMin= -4069.81029134621     IErMin=19 ErrMin= 2.72D-08
 ErrMax= 2.72D-08  0.00D+00 EMaxC= 1.00D-01 BMatC= 2.50D-12 BMatP= 9.40D-12
 IDIUse=1 WtCom= 1.00D+00 WtEn= 0.00D+00
 Coeff-Com:  0.310D-05-0.629D-05-0.100D-04-0.115D-04 0.235D-04 0.140D-03
 Coeff-Com:  0.456D-03 0.846D-03-0.682D-03-0.618D-02-0.506D-02 0.113D-01
 Coeff-Com:  0.217D-01 0.102D-01-0.817D-01-0.197D+00-0.168D-01 0.508D+00
 Coeff-Com:  0.755D+00
 Coeff:      0.310D-05-0.629D-05-0.100D-04-0.115D-04 0.235D-04 0.140D-03
 Coeff:      0.456D-03 0.846D-03-0.682D-03-0.618D-02-0.506D-02 0.113D-01
 Coeff:      0.217D-01 0.102D-01-0.817D-01-0.197D+00-0.168D-01 0.508D+00
 Coeff:      0.755D+00
 Gap=     0.121 Goal=   None    Shift=    0.000
 RMSDP=6.17D-09 MaxDP=5.01D-07 DE= 1.06D-10 OVMax= 4.29D-06

 SCF Done:  E(RCAM-B3LYP) =  -4069.81029135     A.U. after   19 cycles
            NFock= 19  Conv=0.62D-08     -V/T= 2.0102
 KE= 4.028800450472D+03 PE=-4.077427521546D+04 EE= 1.702941638210D+04
 Leave Link  502 at Fri Sep 10 02:44:27 2021, MaxMem= 23488102400 cpu:           16051.4 elap:             695.4
 (Enter /sw/apps/gaussian-16.0/g16/l801.exe)
 DoSCS=F DFT=T ScalE2(SS,OS)=  1.000000  1.000000
 ExpMin= 3.36D-02 ExpMax= 4.95D+03 ExpMxC= 7.45D+02 IAcc=3 IRadAn=         5 AccDes= 0.00D+00
 HarFok:  IExCor=  205 AccDes= 0.00D+00 IRadAn=         5 IDoV=-2 UseB2=F ITyADJ=14
 ICtDFT= 12500011 ScaDFX=  1.000000  1.000000  1.000000  1.000000
 GSVD:  LWork=       -9588 too small for GESVD, short by       45590 words or       45590 for optimal perf.
 Largest valence mixing into a core orbital is  2.03D-04
 Largest core mixing into a valence orbital is  5.23D-05
 Range of M.O.s used for correlation:    95  1572
 NBasis=  1572 NAE=   312 NBE=   312 NFC=    94 NFV=     0
 NROrb=   1478 NOA=   218 NOB=   218 NVA=  1260 NVB=  1260
 Leave Link  801 at Fri Sep 10 02:44:28 2021, MaxMem= 23488102400 cpu:               9.3 elap:               0.4
 (Enter /sw/apps/gaussian-16.0/g16/l914.exe)
 RHF ground state
 Two-electron integrals replicated using symmetry.
 MDV= 23488102400 DFT=T DoStab=F Mixed=T DoRPA=T DoScal=F NonHer=T
 Making orbital integer symmetry assigments:
 Orbital symmetries:
       Occupied  (A) (A) (A) (A) (A) (A) (A) (A) (A) (A) (A) (A)
                 (A) (A) (A) (A) (A) (A) (A) (A) (A) (A) (A) (A)
                 (A) (A) (A) (A) (A) (A) (A) (A) (A) (A) (A) (A)
                 (A) (A) (A) (A) (A) (A) (A) (A) (A) (A) (A) (A)
                 (A) (A) (A) (A) (A) (A) (A) (A) (A) (A) (A) (A)
                 (A) (A) (A) (A) (A) (A) (A) (A) (A) (A) (A) (A)
                 (A) (A) (A) (A) (A) (A) (A) (A) (A) (A) (A) (A)
                 (A) (A) (A) (A) (A) (A) (A) (A) (A) (A) (A) (A)
                 (A) (A) (A) (A) (A) (A) (A) (A) (A) (A) (A) (A)
                 (A) (A) (A) (A) (A) (A) (A) (A) (A) (A) (A) (A)
                 (A) (A) (A) (A) (A) (A) (A) (A) (A) (A) (A) (A)
                 (A) (A) (A) (A) (A) (A) (A) (A) (A) (A) (A) (A)
                 (A) (A) (A) (A) (A) (A) (A) (A) (A) (A) (A) (A)
                 (A) (A) (A) (A) (A) (A) (A) (A) (A) (A) (A) (A)
                 (A) (A) (A) (A) (A) (A) (A) (A) (A) (A) (A) (A)
                 (A) (A) (A) (A) (A) (A) (A) (A) (A) (A) (A) (A)
                 (A) (A) (A) (A) (A) (A) (A) (A) (A) (A) (A) (A)
                 (A) (A) (A) (A) (A) (A) (A) (A) (A) (A) (A) (A)
                 (A) (A) (A) (A) (A) (A) (A) (A) (A) (A) (A) (A)
                 (A) (A) (A) (A) (A) (A) (A) (A) (A) (A) (A) (A)
                 (A) (A) (A) (A) (A) (A) (A) (A) (A) (A) (A) (A)
                 (A) (A) (A) (A) (A) (A) (A) (A) (A) (A) (A) (A)
                 (A) (A) (A) (A) (A) (A) (A) (A) (A) (A) (A) (A)
                 (A) (A) (A) (A) (A) (A) (A) (A) (A) (A) (A) (A)
                 (A) (A) (A) (A) (A) (A) (A) (A) (A) (A) (A) (A)
                 (A) (A) (A) (A) (A) (A) (A) (A) (A) (A) (A) (A)
       Virtual   (A) (A) (A) (A) (A) (A) (A) (A) (A) (A) (A) (A)
                 (A) (A) (A) (A) (A) (A) (A) (A) (A) (A) (A) (A)
                 (A) (A) (A) (A) (A) (A) (A) (A) (A) (A) (A) (A)
                 (A) (A) (A) (A) (A) (A) (A) (A) (A) (A) (A) (A)
                 (A) (A) (A) (A) (A) (A) (A) (A) (A) (A) (A) (A)
                 (A) (A) (A) (A) (A) (A) (A) (A) (A) (A) (A) (A)
                 (A) (A) (A) (A) (A) (A) (A) (A) (A) (A) (A) (A)
                 (A) (A) (A) (A) (A) (A) (A) (A) (A) (A) (A) (A)
                 (A) (A) (A) (A) (A) (A) (A) (A) (A) (A) (A) (A)
                 (A) (A) (A) (A) (A) (A) (A) (A) (A) (A) (A) (A)
                 (A) (A) (A) (A) (A) (A) (A) (A) (A) (A) (A) (A)
                 (A) (A) (A) (A) (A) (A) (A) (A) (A) (A) (A) (A)
                 (A) (A) (A) (A) (A) (A) (A) (A) (A) (A) (A) (A)
                 (A) (A) (A) (A) (A) (A) (A) (A) (A) (A) (A) (A)
                 (A) (A) (A) (A) (A) (A) (A) (A) (A) (A) (A) (A)
                 (A) (A) (A) (A) (A) (A) (A) (A) (A) (A) (A) (A)
                 (A) (A) (A) (A) (A) (A) (A) (A) (A) (A) (A) (A)
                 (A) (A) (A) (A) (A) (A) (A) (A) (A) (A) (A) (A)
                 (A) (A) (A) (A) (A) (A) (A) (A) (A) (A) (A) (A)
                 (A) (A) (A) (A) (A) (A) (A) (A) (A) (A) (A) (A)
                 (A) (A) (A) (A) (A) (A) (A) (A) (A) (A) (A) (A)
                 (A) (A) (A) (A) (A) (A) (A) (A) (A) (A) (A) (A)
                 (A) (A) (A) (A) (A) (A) (A) (A) (A) (A) (A) (A)
                 (A) (A) (A) (A) (A) (A) (A) (A) (A) (A) (A) (A)
                 (A) (A) (A) (A) (A) (A) (A) (A) (A) (A) (A) (A)
                 (A) (A) (A) (A) (A) (A) (A) (A) (A) (A) (A) (A)
                 (A) (A) (A) (A) (A) (A) (A) (A) (A) (A) (A) (A)
                 (A) (A) (A) (A) (A) (A) (A) (A) (A) (A) (A) (A)
                 (A) (A) (A) (A) (A) (A) (A) (A) (A) (A) (A) (A)
                 (A) (A) (A) (A) (A) (A) (A) (A) (A) (A) (A) (A)
                 (A) (A) (A) (A) (A) (A) (A) (A) (A) (A) (A) (A)
                 (A) (A) (A) (A) (A) (A) (A) (A) (A) (A) (A) (A)
                 (A) (A) (A) (A) (A) (A) (A) (A) (A) (A) (A) (A)
                 (A) (A) (A) (A) (A) (A) (A) (A) (A) (A) (A) (A)
                 (A) (A) (A) (A) (A) (A) (A) (A) (A) (A) (A) (A)
                 (A) (A) (A) (A) (A) (A) (A) (A) (A) (A) (A) (A)
                 (A) (A) (A) (A) (A) (A) (A) (A) (A) (A) (A) (A)
                 (A) (A) (A) (A) (A) (A) (A) (A) (A) (A) (A) (A)
                 (A) (A) (A) (A) (A) (A) (A) (A) (A) (A) (A) (A)
                 (A) (A) (A) (A) (A) (A) (A) (A) (A) (A) (A) (A)
                 (A) (A) (A) (A) (A) (A) (A) (A) (A) (A) (A) (A)
                 (A) (A) (A) (A) (A) (A) (A) (A) (A) (A) (A) (A)
                 (A) (A) (A) (A) (A) (A) (A) (A) (A) (A) (A) (A)
                 (A) (A) (A) (A) (A) (A) (A) (A) (A) (A) (A) (A)
                 (A) (A) (A) (A) (A) (A) (A) (A) (A) (A) (A) (A)
                 (A) (A) (A) (A) (A) (A) (A) (A) (A) (A) (A) (A)
                 (A) (A) (A) (A) (A) (A) (A) (A) (A) (A) (A) (A)
                 (A) (A) (A) (A) (A) (A) (A) (A) (A) (A) (A) (A)
                 (A) (A) (A) (A) (A) (A) (A) (A) (A) (A) (A) (A)
                 (A) (A) (A) (A) (A) (A) (A) (A) (A) (A) (A) (A)
                 (A) (A) (A) (A) (A) (A) (A) (A) (A) (A) (A) (A)
                 (A) (A) (A) (A) (A) (A) (A) (A) (A) (A) (A) (A)
                 (A) (A) (A) (A) (A) (A) (A) (A) (A) (A) (A) (A)
                 (A) (A) (A) (A) (A) (A) (A) (A) (A) (A) (A) (A)
                 (A) (A) (A) (A) (A) (A) (A) (A) (A) (A) (A) (A)
                 (A) (A) (A) (A) (A) (A) (A) (A) (A) (A) (A) (A)
                 (A) (A) (A) (A) (A) (A) (A) (A) (A) (A) (A) (A)
                 (A) (A) (A) (A) (A) (A) (A) (A) (A) (A) (A) (A)
                 (A) (A) (A) (A) (A) (A) (A) (A) (A) (A) (A) (A)
                 (A) (A) (A) (A) (A) (A) (A) (A) (A) (A) (A) (A)
                 (A) (A) (A) (A) (A) (A) (A) (A) (A) (A) (A) (A)
                 (A) (A) (A) (A) (A) (A) (A) (A) (A) (A) (A) (A)
                 (A) (A) (A) (A) (A) (A) (A) (A) (A) (A) (A) (A)
                 (A) (A) (A) (A) (A) (A) (A) (A) (A) (A) (A) (A)
                 (A) (A) (A) (A) (A) (A) (A) (A) (A) (A) (A) (A)
                 (A) (A) (A) (A) (A) (A) (A) (A) (A) (A) (A) (A)
                 (A) (A) (A) (A) (A) (A) (A) (A) (A) (A) (A) (A)
                 (A) (A) (A) (A) (A) (A) (A) (A) (A) (A) (A) (A)
                 (A) (A) (A) (A) (A) (A) (A) (A) (A) (A) (A) (A)
                 (A) (A) (A) (A) (A) (A) (A) (A) (A) (A) (A) (A)
                 (A) (A) (A) (A) (A) (A) (A) (A) (A) (A) (A) (A)
                 (A) (A) (A) (A) (A) (A) (A) (A) (A) (A) (A) (A)
                 (A) (A) (A) (A) (A) (A) (A) (A) (A) (A) (A) (A)
                 (A) (A) (A) (A) (A) (A) (A) (A) (A) (A) (A) (A)
                 (A) (A) (A) (A) (A) (A) (A) (A) (A) (A) (A) (A)
                 (A) (A) (A) (A) (A) (A) (A) (A) (A) (A) (A) (A)
                 (A) (A) (A) (A) (A) (A) (A) (A) (A) (A) (A) (A)
                 (A) (A) (A) (A) (A) (A) (A) (A) (A) (A) (A) (A)
                 (A) (A) (A) (A) (A) (A) (A) (A) (A) (A) (A) (A)
                 (A) (A) (A) (A) (A) (A) (A) (A) (A) (A) (A) (A)
                 (A) (A) (A) (A) (A) (A) (A) (A) (A) (A) (A) (A)
                 (A) (A) (A) (A) (A) (A) (A) (A) (A) (A) (A) (A)
                 (A) (A) (A) (A) (A) (A) (A) (A) (A) (A) (A) (A)
                 (A) (A) (A) (A) (A) (A) (A) (A) (A) (A) (A) (A)
                 (A) (A) (A) (A) (A) (A) (A) (A) (A) (A) (A) (A)
                 (A) (A) (A) (A) (A) (A) (A) (A) (A) (A) (A) (A)
                 (A) (A) (A) (A) (A) (A) (A) (A) (A) (A) (A) (A)
                 (A) (A) (A) (A) (A) (A) (A) (A) (A) (A) (A) (A)
                 (A) (A) (A) (A) (A) (A) (A) (A) (A) (A) (A) (A)
                 (A) (A) (A) (A) (A) (A) (A) (A) (A) (A) (A) (A)
                 (A) (A) (A) (A) (A) (A) (A) (A) (A) (A) (A) (A)
                 (A) (A) (A) (A) (A) (A) (A) (A) (A) (A) (A) (A)
                 (A) (A) (A) (A) (A) (A) (A) (A) (A) (A) (A) (A)
                 (A) (A) (A) (A) (A) (A) (A) (A) (A) (A) (A) (A)
                 (A) (A) (A) (A) (A) (A) (A) (A) (A) (A) (A) (A)
                 (A) (A) (A) (A) (A) (A) (A) (A) (A) (A) (A) (A)
                 (A) (A) (A) (A) (A) (A) (A) (A) (A) (A) (A) (A)
                 (A) (A) (A) (A) (A) (A) (A) (A) (A) (A) (A) (A)
                 (A) (A) (A) (A) (A) (A) (A) (A) (A) (A) (A) (A)
                 (A) (A) (A) (A) (A) (A) (A) (A) (A) (A) (A) (A)
                 (A) (A) (A) (A) (A) (A) (A) (A) (A) (A) (A) (A)
                 (A) (A) (A) (A) (A) (A) (A) (A) (A) (A) (A) (A)
                 (A) (A) (A) (A) (A) (A) (A) (A) (A) (A) (A) (A)
                 (A) (A) (A) (A) (A) (A) (A) (A) (A) (A) (A) (A)
                 (A) (A) (A) (A) (A) (A) (A) (A) (A) (A) (A) (A)
    20 initial guesses have been made.
 Convergence on wavefunction:    0.001000000000000
 Davidson Disk Diagonalization:  ConvIn= 1.00D-03 SkipCon=T Conv= 1.00D-03.
 Max sub-space:  2000 roots to seek:    20 dimension of matrix:       549360
 Iteration     1 Dimension    20 NMult     0 NNew     20
 CISAX will form    20 AO SS matrices at one time.
 NMat=    20 NSing=    20 JSym2X= 0.
 FoFJK:  IHMeth= 1 ICntrl=       0 DoSepK=T KAlg= 0 I1Cent=           0 FoldK=F
 IRaf=         1 NMat=      40 IRICut=       1 DoRegI=T DoRafI=F ISym2E= 0 IDoP0=3 IntGTp=3.
 FoFCou: FMM=T IPFlag=           0 FMFlag=      100000 FMFlg1=        2001
         NFxFlg=           0 DoJE=F BraDBF=F KetDBF=F FulRan=T
         wScrn=  0.000000 ICntrl=       500 IOpCl=  0 I1Cent=           0 NGrid=           0
         NMat0=   20 NMatS0=     20 NMatT0=    0 NMatD0=   20 NMtDS0=    0 NMtDT0=    0
 Symmetry not used in FoFCou.
 FMM levels:  10  Number of levels for PrismC:   9
 New state      2 was old state      4
 New state      3 was old state      7
 New state      4 was old state      6
 New state      5 was old state     10
 Excitation Energies [eV] at current iteration:
 Root      1 :     2.347819754490024
 Root      2 :     2.509802529302702
 Root      3 :     2.598911116083629
 Root      4 :     2.620414995377444
 Root      5 :     2.627453378274123
 Root      6 :     2.761461212356591
 Root      7 :     3.122603072377372
 Root      8 :     3.302534419040296
 Root      9 :     3.604339345561957
 Root     10 :     3.660320265437528
 Root     11 :     3.744872074039991
 Root     12 :     3.760025388085459
 Root     13 :     4.244279136716419
 Root     14 :     4.247069498912465
 Root     15 :     4.362459516015992
 Root     16 :     4.414743008231079
 Root     17 :     4.456102369936931
 Root     18 :     4.587934629474093
 Root     19 :     4.714576421766911
 Root     20 :     4.743902043836228
 Iteration     2 Dimension    30 NMult    20 NNew     10
 CISAX will form    10 AO SS matrices at one time.
 NMat=    10 NSing=    10 JSym2X= 0.
 New state      1 was old state      3
 Root      1 not converged, maximum delta is    0.353619472556573
 New state      2 was old state      4
 Root      2 not converged, maximum delta is    0.252864883166335
 New state      3 was old state      5
 Root      3 not converged, maximum delta is    0.190672787855491
 New state      4 was old state      1
 Root      4 not converged, maximum delta is    0.009136391161285
 New state      5 was old state      2
 Root      5 not converged, maximum delta is    0.019741453497035
 Excitation Energies [eV] at current iteration:
 Root      1 :     1.768310147839980   Change is   -0.830600968243649
 Root      2 :     2.228179597954488   Change is   -0.392235397422957
 Root      3 :     2.243426711324568   Change is   -0.384026666949555
 Root      4 :     2.346135502789894   Change is   -0.001684251700131
 Root      5 :     2.506607579291903   Change is   -0.003194950010799
 Iteration     3 Dimension    40 NMult    30 NNew     10
 CISAX will form    10 AO SS matrices at one time.
 NMat=    10 NSing=    10 JSym2X= 0.
 Root      1 not converged, maximum delta is    0.052601698307947
 Root      2 not converged, maximum delta is    0.354184953647667
 Root      3 not converged, maximum delta is    0.369022932595926
 Root      4 has converged.
 Root      5 has converged.
 Excitation Energies [eV] at current iteration:
 Root      1 :     1.664297477031202   Change is   -0.104012670808778
 Root      2 :     2.185949577680069   Change is   -0.042230020274419
 Root      3 :     2.193162276422667   Change is   -0.050264434901901
 Root      4 :     2.346121800911060   Change is   -0.000013701878834
 Root      5 :     2.506579749697248   Change is   -0.000027829594655
 Iteration     4 Dimension    46 NMult    40 NNew      6
 CISAX will form     6 AO SS matrices at one time.
 NMat=     6 NSing=     6 JSym2X= 0.
 Root      1 not converged, maximum delta is    0.009727364051794
 Root      2 not converged, maximum delta is    0.434509780577889
 Root      3 not converged, maximum delta is    0.458401882826562
 No map to state      4
 New state      5 was old state      4
 Root      5 has converged.
 Excitation Energies [eV] at current iteration:
 Root      1 :     1.647823173388746   Change is   -0.016474303642457
 Root      2 :     2.023430892834891   Change is   -0.162518684845178
 Root      3 :     2.182609986941449   Change is   -0.010552289481218
 Root      4 :     2.250048335135824
 Root      5 :     2.346122184980055   Change is    0.000000384068996
 Iteration     5 Dimension    54 NMult    46 NNew      8
 CISAX will form     8 AO SS matrices at one time.
 NMat=     8 NSing=     8 JSym2X= 0.
 Root      1 not converged, maximum delta is    0.001424772317408
 Root      2 not converged, maximum delta is    0.189336318714880
 Root      3 not converged, maximum delta is    0.082534284435534
 Root      4 not converged, maximum delta is    0.144431402396384
 Root      5 has converged.
 Excitation Energies [eV] at current iteration:
 Root      1 :     1.646133369580852   Change is   -0.001689803807893
 Root      2 :     1.753827462802886   Change is   -0.269603430032004
 Root      3 :     2.181131619147746   Change is   -0.001478367793703
 Root      4 :     2.199832068593029   Change is   -0.050216266542795
 Root      5 :     2.346121974470177   Change is   -0.000000210509879
 Iteration     6 Dimension    62 NMult    54 NNew      8
 CISAX will form     8 AO SS matrices at one time.
 NMat=     8 NSing=     8 JSym2X= 0.
 Root      1 has converged.
 Root      2 not converged, maximum delta is    0.015908738286171
 Root      3 not converged, maximum delta is    0.015830656031414
 Root      4 not converged, maximum delta is    0.015544245947720
 Root      5 has converged.
 Excitation Energies [eV] at current iteration:
 Root      1 :     1.645892916342794   Change is   -0.000240453238058
 Root      2 :     1.712707179943812   Change is   -0.041120282859074
 Root      3 :     2.180882804839093   Change is   -0.000248814308653
 Root      4 :     2.197520127302293   Change is   -0.002311941290736
 Root      5 :     2.346121966084465   Change is   -0.000000008385712
 Iteration     7 Dimension    68 NMult    62 NNew      6
 CISAX will form     6 AO SS matrices at one time.
 NMat=     6 NSing=     6 JSym2X= 0.
 Root      1 has converged.
 Root      2 not converged, maximum delta is    0.004040334446696
 Root      3 not converged, maximum delta is    0.001905439710736
 Root      4 not converged, maximum delta is    0.002064733375063
 Root      5 has converged.
 Excitation Energies [eV] at current iteration:
[...]
 Alpha virt. eigenvalues --    1.83752   1.83781   1.84025   1.84106   1.84387
 Alpha virt. eigenvalues --    1.84481   1.84733   1.84839   1.84999   1.85104
 Alpha virt. eigenvalues --    1.85312   1.85320   1.85501   1.85531   1.85702
 Alpha virt. eigenvalues --    1.85895   1.86128   1.86360   1.86580   1.86590
 Alpha virt. eigenvalues --    1.86804   1.86866   1.87021   1.87090   1.87257
 Alpha virt. eigenvalues --    1.87462   1.87715   1.87763   1.87887   1.88016
 Alpha virt. eigenvalues --    1.88063   1.88229   1.88399   1.88553   1.88777
 Alpha virt. eigenvalues --    1.88842   1.89125   1.89137   1.89287   1.89647
 Alpha virt. eigenvalues --    1.89773   1.89870   1.90101   1.90162   1.90425
 Alpha virt. eigenvalues --    1.90801   1.91130   1.91372   1.91486   1.91641
 Alpha virt. eigenvalues --    1.91820   1.92189   1.92417   1.92621   1.92850
 Alpha virt. eigenvalues --    1.93015   1.93341   1.93395   1.93714   1.94279
 Alpha virt. eigenvalues --    1.94511   1.94711   1.95049   1.95467   1.95750
 Alpha virt. eigenvalues --    1.95802   1.96036   1.96044   1.96149   1.96241
 Alpha virt. eigenvalues --    1.96445   1.96624   1.96715   1.96915   1.97132
 Alpha virt. eigenvalues --    1.97477   1.97749   1.97848   1.98053   1.98205
 Alpha virt. eigenvalues --    1.98406   1.98596   1.98777   1.99187   1.99287
 Alpha virt. eigenvalues --    1.99859   2.00141   2.00681   2.00945   2.01071
 Alpha virt. eigenvalues --    2.01361   2.01514   2.01680   2.01711   2.01795
 Alpha virt. eigenvalues --    2.01859   2.02063   2.02810   2.02942   2.03228
 Alpha virt. eigenvalues --    2.03370   2.03466   2.03545   2.03626   2.03790
 Alpha virt. eigenvalues --    2.04090   2.04267   2.04980   2.05200   2.05542
 Alpha virt. eigenvalues --    2.05854   2.06126   2.06542   2.07007   2.07247
 Alpha virt. eigenvalues --    2.07339   2.07621   2.08608   2.08748   2.09006
 Alpha virt. eigenvalues --    2.09236   2.09632   2.09861   2.10775   2.11223
 Alpha virt. eigenvalues --    2.11241   2.11546   2.11639   2.11752   2.11775
 Alpha virt. eigenvalues --    2.12086   2.12493   2.12678   2.12831   2.12861
 Alpha virt. eigenvalues --    2.13016   2.13122   2.13770   2.13830   2.14152
 Alpha virt. eigenvalues --    2.14503   2.15366   2.15622   2.15977   2.16327
 Alpha virt. eigenvalues --    2.16539   2.16787   2.16843   2.17438   2.17491
 Alpha virt. eigenvalues --    2.17740   2.17865   2.18078   2.18155   2.18257
 Alpha virt. eigenvalues --    2.18416   2.18912   2.18964   2.19504   2.19673
 Alpha virt. eigenvalues --    2.20047   2.20060   2.20277   2.20498   2.20652
 Alpha virt. eigenvalues --    2.21119   2.21423   2.21714   2.21834   2.22031
 Alpha virt. eigenvalues --    2.22153   2.22698   2.22917   2.23351   2.23605
 Alpha virt. eigenvalues --    2.24422   2.24646   2.24954   2.25202   2.26361
 Alpha virt. eigenvalues --    2.26703   2.26808   2.27166   2.27239   2.27467
 Alpha virt. eigenvalues --    2.28160   2.28524   2.29289   2.29648   2.29776
 Alpha virt. eigenvalues --    2.30137   2.30474   2.30864   2.31070   2.31105
 Alpha virt. eigenvalues --    2.31297   2.31420   2.32139   2.32454   2.33178
 Alpha virt. eigenvalues --    2.33463   2.33491   2.33726   2.34140   2.34350
 Alpha virt. eigenvalues --    2.35463   2.35602   2.35822   2.36140   2.36355
 Alpha virt. eigenvalues --    2.36587   2.36644   2.36668   2.37681   2.37894
 Alpha virt. eigenvalues --    2.38275   2.38580   2.38869   2.38970   2.39641
 Alpha virt. eigenvalues --    2.39907   2.40191   2.40469   2.40507   2.41037
 Alpha virt. eigenvalues --    2.41266   2.41403   2.41678   2.41910   2.42122
 Alpha virt. eigenvalues --    2.42421   2.42918   2.43032   2.43299   2.43685
 Alpha virt. eigenvalues --    2.44172   2.44248   2.44764   2.44927   2.45046
 Alpha virt. eigenvalues --    2.45228   2.45590   2.45813   2.46339   2.46500
 Alpha virt. eigenvalues --    2.46531   2.46763   2.46857   2.47080   2.47310
 Alpha virt. eigenvalues --    2.47624   2.47747   2.48110   2.49322   2.49579
 Alpha virt. eigenvalues --    2.50038   2.50090   2.50541   2.50638   2.51158
 Alpha virt. eigenvalues --    2.51529   2.51817   2.51913   2.52459   2.52587
 Alpha virt. eigenvalues --    2.52831   2.53364   2.53935   2.54158   2.54180
 Alpha virt. eigenvalues --    2.54475   2.54839   2.55089   2.55559   2.55929
 Alpha virt. eigenvalues --    2.57888   2.58291   2.58656   2.59104   2.60277
 Alpha virt. eigenvalues --    2.60579   2.60614   2.61108   2.61726   2.62021
 Alpha virt. eigenvalues --    2.62539   2.62634   2.62993   2.63372   2.63949
 Alpha virt. eigenvalues --    2.64223   2.64406   2.64599   2.65093   2.65305
 Alpha virt. eigenvalues --    2.65792   2.66042   2.66767   2.66913   2.67007
 Alpha virt. eigenvalues --    2.67234   2.67924   2.68180   2.68875   2.69007
 Alpha virt. eigenvalues --    2.69091   2.69277   2.69377   2.69780   2.70002
 Alpha virt. eigenvalues --    2.70334   2.71012   2.71260   2.72096   2.72125
 Alpha virt. eigenvalues --    2.72710   2.72733   2.72949   2.72997   2.73261
 Alpha virt. eigenvalues --    2.73466   2.73727   2.73753   2.74572   2.74770
 Alpha virt. eigenvalues --    2.75029   2.75291   2.76608   2.76723   2.77314
 Alpha virt. eigenvalues --    2.77373   2.77483   2.77800   2.78217   2.78478
 Alpha virt. eigenvalues --    2.78791   2.78908   2.79173   2.79365   2.80393
 Alpha virt. eigenvalues --    2.80444   2.80703   2.80946   2.81227   2.81444
 Alpha virt. eigenvalues --    2.81991   2.82322   2.82375   2.82579   2.83782
 Alpha virt. eigenvalues --    2.83876   2.84039   2.84269   2.84587   2.84748
 Alpha virt. eigenvalues --    2.84902   2.85117   2.85685   2.85877   2.86879
 Alpha virt. eigenvalues --    2.87046   2.87410   2.87740   2.88186   2.88433
 Alpha virt. eigenvalues --    2.88541   2.88848   2.88979   2.89111   2.90489
 Alpha virt. eigenvalues --    2.90824   2.91194   2.91271   2.93181   2.93527
 Alpha virt. eigenvalues --    2.93962   2.94228   2.94562   2.94742   2.95353
 Alpha virt. eigenvalues --    2.95611   2.96088   2.96286   2.96466   2.96565
 Alpha virt. eigenvalues --    2.97109   2.97291   2.97860   2.98191   2.98238
 Alpha virt. eigenvalues --    2.98414   2.98560   2.98670   2.98755   2.98918
 Alpha virt. eigenvalues --    2.99034   2.99187   2.99568   2.99946   3.00090
 Alpha virt. eigenvalues --    3.00264   3.00304   3.00499   3.00530   3.01169
 Alpha virt. eigenvalues --    3.01968   3.02042   3.02076   3.02280   3.02850
 Alpha virt. eigenvalues --    3.03003   3.03051   3.03334   3.03461   3.03848
 Alpha virt. eigenvalues --    3.04088   3.04312   3.04512   3.04536   3.04688
 Alpha virt. eigenvalues --    3.04998   3.05302   3.05529   3.06128   3.06343
 Alpha virt. eigenvalues --    3.06805   3.07105   3.08070   3.08144   3.09399
 Alpha virt. eigenvalues --    3.09527   3.09681   3.10446   3.10559   3.10916
 Alpha virt. eigenvalues --    3.11330   3.11655   3.11940   3.11976   3.12262
 Alpha virt. eigenvalues --    3.12478   3.13307   3.13643   3.13837   3.13875
 Alpha virt. eigenvalues --    3.14253   3.14776   3.15876   3.16139   3.17339
 Alpha virt. eigenvalues --    3.17812   3.18055   3.18100   3.19158   3.19248
 Alpha virt. eigenvalues --    3.22497   3.22900   3.24014   3.24748   3.24832
 Alpha virt. eigenvalues --    3.25586   3.26559   3.26907   3.27638   3.27676
 Alpha virt. eigenvalues --    3.29317   3.29545   3.31586   3.31635   3.33403
 Alpha virt. eigenvalues --    3.33456   3.40551   3.40879   3.42850   3.43008
 Alpha virt. eigenvalues --    3.48768   3.49038   3.50054   3.50502   3.51058
 Alpha virt. eigenvalues --    3.51514   3.56597   3.57243   3.59127   3.59550
 Alpha virt. eigenvalues --    3.62807   3.62924   3.66223   3.66292   3.67421
 Alpha virt. eigenvalues --    3.67852   3.73511   3.74401   3.76290   3.77098
          Condensed to atoms (all electrons):
 Mulliken charges:
               1
     1  Mg   0.838404
     2  C   -0.002753
     3  C   -0.094740
     4  C   -0.045874
     5  C   -0.064765
     6  N   -0.256483
     7  C   -0.053043
     8  C   -0.013538
     9  C   -0.086838
    10  C    0.045735
    11  C    0.104833
    12  C    0.053603
    13  C   -0.071213
    14  H    0.035030
    15  N   -0.433082
    16  C    0.168024
    17  C   -0.177631
    18  C   -0.004138
    19  C    0.148667
    20  C    0.110304
    21  C    0.012362
    22  O   -0.249649
    23  C    0.062571
    24  N   -0.341050
    25  C    0.041010
    26  C   -0.028196
    27  C   -0.023856
    28  C    0.074940
    29  C    0.076140
    30  C    0.035273
    31  C   -0.004846
    32  N   -0.310666
    33  C    0.080209
    34  C   -0.169966
    35  C    0.009695
    36  C    0.083089
    37  C    0.126713
    38  C    0.048707
    39  O   -0.185365
    40  C   -0.006282
    41  C    0.213801
    42  O   -0.253937
    43  O   -0.305739
    44  C    0.156208
    45  H   -0.017925
    46  H   -0.017008
    47  H   -0.041692
    48  H    0.001513
    49  H   -0.004817
    50  H    0.025768
    51  H    0.016544
    52  H    0.016416
    53  H    0.009499
    54  H    0.043971
    55  H    0.018699
    56  H    0.016930
    57  H    0.005383
    58  H    0.026817
    59  H    0.038502
    60  H    0.037171
    61  H    0.035833
    62  H    0.030946
    63  H    0.016160
    64  H    0.009748
    65  H    0.023162
    66  H    0.012772
    67  H    0.004771
    68  H    0.006336
    69  H    0.004672
    70  H    0.008710
    71  H    0.015289
    72  H    0.030239
    73  H    0.049765
    74  H    0.008284
    75  H    0.046151
    76  H    0.034852
    77  H    0.043069
    78  H    0.044284
    79  H    0.057854
    80  Mg   0.836500
    81  C   -0.016085
    82  C   -0.088221
    83  C   -0.045807
    84  C   -0.065834
    85  N   -0.254140
    86  C   -0.049860
    87  C   -0.014763
    88  C   -0.090567
    89  C    0.045120
    90  C    0.113890
    91  C    0.062727
    92  C   -0.077071
    93  H    0.034236
    94  N   -0.423285
    95  C    0.162156
    96  C   -0.175693
    97  C   -0.008483
    98  C    0.151577
    99  C    0.099828
   100  C    0.015006
   101  O   -0.253920
   102  C    0.061461
   103  N   -0.350191
   104  C    0.037230
   105  C   -0.019645
   106  C   -0.034831
   107  C    0.089709
   108  C    0.073615
   109  C    0.034863
   110  C   -0.007497
   111  N   -0.324646
   112  C    0.078921
   113  C   -0.163237
   114  C    0.005039
   115  C    0.094882
   116  C    0.130910
   117  C    0.049009
   118  O   -0.181345
   119  C   -0.001580
   120  C    0.210501
   121  O   -0.252517
   122  O   -0.304385
   123  C    0.152562
   124  H   -0.021473
   125  H   -0.016250
   126  H   -0.041329
   127  H    0.000084
   128  H   -0.005493
   129  H    0.024514
   130  H    0.013586
   131  H    0.013407
   132  H    0.013565
   133  H    0.038034
   134  H    0.019770
   135  H    0.018768
   136  H    0.007620
   137  H    0.024755
   138  H    0.038905
   139  H    0.037603
   140  H    0.035639
   141  H    0.033510
   142  H    0.013771
   143  H    0.011798
   144  H    0.024456
   145  H    0.012581
   146  H    0.005354
   147  H    0.005574
   148  H    0.002839
   149  H    0.010787
   150  H    0.017406
   151  H    0.030609
   152  H    0.046397
   153  H    0.005876
   154  H    0.051433
   155  H    0.045672
   156  H    0.042783
   157  H    0.047836
   158  H    0.053141
 Sum of Mulliken charges =  -0.00000
 Mulliken charges with hydrogens summed into heavy atoms:
               1
     1  Mg   0.838404
     2  C   -0.002753
     3  C   -0.112665
     4  C   -0.062882
     5  C   -0.106457
     6  N   -0.256483
     7  C   -0.053043
     8  C   -0.012025
     9  C   -0.091655
    10  C    0.045735
    11  C    0.163562
    12  C    0.107073
    13  C   -0.000554
    15  N   -0.433082
    16  C    0.168024
    17  C   -0.177631
    18  C   -0.004138
    19  C    0.148667
    20  C    0.181007
    21  C    0.012362
    22  O   -0.249649
    23  C    0.166521
    24  N   -0.341050
    25  C    0.041010
    26  C   -0.012036
    27  C   -0.014108
    28  C    0.074940
    29  C    0.116844
    30  C    0.046281
    31  C    0.049392
    32  N   -0.310666
    33  C    0.080209
    34  C   -0.169966
    35  C    0.009695
    36  C    0.083089
    37  C    0.230913
    38  C    0.048707
    39  O   -0.185365
    40  C    0.028570
    41  C    0.213801
    42  O   -0.253937
    43  O   -0.305739
    44  C    0.301415
    80  Mg   0.836500
    81  C   -0.016085
    82  C   -0.109694
    83  C   -0.062057
    84  C   -0.107163
    85  N   -0.254140
    86  C   -0.049860
    87  C   -0.014678
    88  C   -0.096060
    89  C    0.045120
    90  C    0.165396
    91  C    0.114325
    92  C   -0.004297
    94  N   -0.423285
    95  C    0.162156
    96  C   -0.175693
    97  C   -0.008483
    98  C    0.151577
    99  C    0.171108
   100  C    0.015006
   101  O   -0.253920
   102  C    0.168213
   103  N   -0.350191
   104  C    0.037230
   105  C   -0.005875
   106  C   -0.023033
   107  C    0.089709
   108  C    0.116005
   109  C    0.043277
   110  C    0.051305
   111  N   -0.324646
   112  C    0.078921
   113  C   -0.163237
   114  C    0.005039
   115  C    0.094882
   116  C    0.234617
   117  C    0.049009
   118  O   -0.181345
   119  C    0.044091
   120  C    0.210501
   121  O   -0.252517
   122  O   -0.304385
   123  C    0.296322
 Electronic spatial extent (au):  <R**2>=          95484.0900
 Charge=             -0.0000 electrons
 Dipole moment (field-independent basis, Debye):
    X=              1.7747    Y=             -1.6544    Z=              7.8864  Tot=              8.2512
 Quadrupole moment (field-independent basis, Debye-Ang):
   XX=           -509.7557   YY=           -535.2400   ZZ=           -460.2776
   XY=            -17.4145   XZ=              1.0244   YZ=             54.2216
 Traceless Quadrupole moment (field-independent basis, Debye-Ang):
   XX=             -7.9979   YY=            -33.4823   ZZ=             41.4801
   XY=            -17.4145   XZ=              1.0244   YZ=             54.2216
 Octapole moment (field-independent basis, Debye-Ang**2):
  XXX=            128.9130  YYY=            442.9611  ZZZ=            115.6370  XYY=             71.0474
  XXY=             68.4422  XXZ=            251.5442  XZZ=            -27.5179  YZZ=           -206.5285
  YYZ=             99.3642  XYZ=             44.8349
 Hexadecapole moment (field-independent basis, Debye-Ang**3):
 XXXX=         -66545.8091 YYYY=         -39289.3286 ZZZZ=         -22615.7788 XXXY=          -1018.2985
 XXXZ=           -649.7829 YYYX=           -110.5799 YYYZ=           1339.4286 ZZZX=            171.7496
 ZZZY=           -158.1468 XXYY=         -18942.4115 XXZZ=         -13696.9823 YYZZ=         -10686.9495
 XXYZ=            695.2827 YYXZ=             21.4228 ZZXY=            -97.2485
 N-N= 1.564624809155D+04 E-N=-4.077427519958D+04  KE= 4.028800450472D+03
 Leave Link  601 at Fri Sep 10 03:15:30 2021, MaxMem= 23488102400 cpu:              18.8 elap:               0.9
 (Enter /sw/apps/gaussian-16.0/g16/l9999.exe)
 1\1\GINC-BP1-COMPUTE00114\SP\RCAM-B3LYP TD-FC\def2SVP\C68H72Mg2N8O8\OF
 15641\10-Sep-2021\0\\#p cam-b3lyp/Def2SVP td=(nstates=5)\\TDDFT excite
 d states in gaussian\\0,1\Mg,0,0.,0.,0.\C,0,-0.217,-2.218,2.801\C,0,-1
 .255,2.442,2.026\C,0,-0.245,1.85,-2.564\C,0,0.146,-2.824,-2.037\N,0,-0
 .617,-0.009,2.126\C,0,-0.594,-0.908,3.105\C,0,-0.936,-0.309,4.502\C,0,
 -1.773,0.964,4.032\C,0,-1.155,1.168,2.66\C,0,-3.263,0.685,3.863\C,0,0.
 345,0.11,5.299\C,0,0.124,0.397,6.787\H,0,1.168,0.033,7.733\N,0,-0.185,
 1.961,-0.152\C,0,-0.703,2.8,0.777\C,0,-0.62,4.156,0.193\C,0,-0.187,4.0
 15,-1.225\C,0,-0.214,2.583,-1.38\C,0,-0.887,5.406,0.974\C,0,0.181,5.01
 3,-2.277\O,0,0.303,4.69,-3.508\C,0,0.31,6.414,-1.837\N,0,-0.265,-0.413
 ,-2.029\C,0,-0.279,0.569,-2.937\C,0,-0.196,0.024,-4.332\C,0,0.124,-1.5
 33,-4.18\C,0,0.086,-1.632,-2.635\C,0,-1.451,0.205,-5.197\C,0,1.373,-2.
 07,-4.923\C,0,2.626,-1.49,-4.306\N,0,0.15,-2.144,0.303\C,0,0.173,-3.13
 6,-0.688\C,0,0.173,-4.438,0.004\C,0,0.133,-4.111,1.358\C,0,0.083,-2.69
 5,1.502\C,0,0.149,-5.715,-0.623\C,0,0.096,-4.629,2.716\O,0,0.208,-5.74
 7,3.221\C,0,-0.255,-3.428,3.701\C,0,0.717,-3.482,4.848\O,0,1.931,-3.25
 5,4.669\O,0,0.038,-3.556,6.003\C,0,0.943,-3.583,7.183\H,0,-1.859,3.22,
 2.497\H,0,-0.218,2.453,-3.474\H,0,0.276,-3.747,-2.605\H,0,-1.554,-0.94
 9,5.132\H,0,-1.585,1.831,4.665\H,0,-3.484,-0.377,3.969\H,0,-3.511,1.02
 7,2.858\H,0,-3.852,1.301,4.543\H,0,0.669,1.096,4.966\H,0,1.13,-0.639,5
 .189\H,0,-0.844,0.026,7.125\H,0,0.062,1.477,6.921\H,0,-1.344,5.186,1.9
 38\H,0,-1.651,5.963,0.432\H,0,0.007,6.02,1.084\H,0,-0.635,6.744,-1.405
 \H,0,0.665,6.97,-2.704\H,0,1.048,6.466,-1.036\H,0,0.608,0.501,-4.891\H
 ,0,-0.692,-2.156,-4.547\H,0,-1.267,0.74,-6.129\H,0,-2.204,0.714,-4.596
 \H,0,-1.967,-0.72,-5.453\H,0,1.356,-1.759,-5.967\H,0,1.452,-3.157,-4.9
 02\H,0,2.714,-0.522,-4.798\H,0,3.487,-2.121,-4.529\H,0,2.495,-1.303,-3
 .24\H,0,0.867,-6.333,-0.084\H,0,0.404,-5.642,-1.68\H,0,-0.891,-5.999,-
 0.463\H,0,-1.283,-3.581,4.028\H,0,0.698,-4.478,7.755\H,0,0.833,-2.619,
 7.68\H,0,2.,-3.754,6.976\Mg,0,8.94169,0.80588,0.68604\C,0,7.65728,-1.1
 8413,3.38219\C,0,8.74473,3.49503,2.77512\C,0,9.64086,2.65791,-1.79359\
 C,0,7.96968,-1.74756,-1.4775\N,0,8.27214,1.00315,2.78486\C,0,7.86349,0
 .16768,3.72791\C,0,7.74157,0.80127,5.13974\C,0,7.54715,2.33342,4.69975
 \C,0,8.26132,2.29271,3.35032\C,0,6.0948,2.71115,4.46031\C,0,9.043,0.61
 ,5.99514\C,0,8.88684,0.9289,7.48366\H,0,9.63422,0.12791,8.44922\N,0,9.
 6222,2.66918,0.62629\C,0,9.47159,3.62116,1.57092\C,0,10.13594,4.82213,
 1.04131\C,0,10.54776,4.5498,-0.3626\C,0,9.92073,3.26084,-0.57593\C,0,1
 0.39569,6.04296,1.87529\C,0,11.35949,5.32736,-1.3539\O,0,11.39225,5.00
 879,-2.59498\C,0,12.04013,6.52759,-0.84628\N,0,8.634,0.59873,-1.35963\
 C,0,9.08241,1.5263,-2.2236\C,0,8.99206,1.03374,-3.64825\C,0,8.61349,-0
 .51653,-3.54363\C,0,8.45611,-0.63578,-2.01184\C,0,7.97248,1.74758,-4.5
 3553\C,0,9.54967,-1.52022,-4.27085\C,0,10.90294,-1.54458,-3.59747\N,0,
 8.15762,-1.19642,0.89601\C,0,7.79548,-2.08377,-0.14109\C,0,7.20642,-3.
 27985,0.49518\C,0,7.24596,-2.99334,1.86807\C,0,7.80064,-1.70093,2.0718
 \C,0,6.68124,-4.41242,-0.18862\C,0,6.93481,-3.48595,3.19065\O,0,6.5288
 7,-4.55419,3.64652\C,0,7.07081,-2.28449,4.22235\C,0,7.87224,-2.77083,5
 .39866\O,0,9.06701,-3.08771,5.26185\O,0,7.16344,-2.57593,6.5256\C,0,7.
 92118,-3.03259,7.72105\H,0,8.51011,4.43789,3.26995\H,0,9.96523,3.21003
 ,-2.6787\H,0,7.73238,-2.62847,-2.0778\H,0,6.88595,0.46812,5.7148\H,0,8
 .05841,3.00807,5.38153\H,0,5.44161,1.85271,4.51109\H,0,6.06447,3.15174
 ,3.47238\H,0,5.79197,3.50207,5.15246\H,0,9.77289,1.3799,5.71362\H,0,9.
 43413,-0.38183,5.87717\H,0,7.83377,1.00495,7.78064\H,0,9.29031,1.92737
 ,7.66882\H,0,9.83331,6.0141,2.81672\H,0,9.97407,6.89624,1.33308\H,0,11
 .46031,6.22088,2.04141\H,0,11.30415,7.2111,-0.42963\H,0,12.64048,6.897
 58,-1.67969\H,0,12.69903,6.23369,-0.02161\H,0,9.94627,1.12927,-4.1517\
 H,0,7.62477,-0.72474,-3.97828\H,0,8.41911,2.18619,-5.44779\H,0,7.48321
 ,2.51185,-3.94644\H,0,7.13382,1.13432,-4.86076\H,0,9.72146,-1.19949,-5
 .30127\H,0,9.15405,-2.52967,-4.30949\H,0,11.41574,-0.68689,-4.04298\H,
 0,11.42389,-2.47411,-3.81802\H,0,10.81106,-1.35167,-2.5223\H,0,7.03496
 ,-5.28725,0.34059\H,0,6.99048,-4.42575,-1.23167\H,0,5.60944,-4.22577,-
 0.08059\H,0,6.06258,-1.98399,4.51002\H,0,7.28619,-3.7531,8.24578\H,0,8
 .19778,-2.11224,8.26895\H,0,8.81514,-3.62167,7.5529\\Version=ES64L-G16
 RevA.03\State=1-A\HF=-4069.8102913\RMSD=6.175e-09\PG=C01 [X(C68H72Mg2N
 8O8)]\\@


 ... FOR AFTERWARDS A MAN FINDS PLEASURE IN HIS PAINS,
 WHEN HE HAS SUFFERED LONG AND WANDERED FAR.

                                    -- HOMER
 Job cpu time:       0 days 16 hours 51 minutes 30.1 seconds.
 Elapsed time:       0 days  0 hours 42 minutes 52.0 seconds.
 File lengths (MBytes):  RWF=  13225 Int=      0 D2E=      0 Chk=    574 Scr=      1
 Normal termination of Gaussian 16 at Fri Sep 10 03:15:30 2021.
