 Entering Gaussian System, Link 0=g16
 Initial command:
 /sw/apps/gaussian-16.0/g16/l1.exe "/tmp/Gau-277925.inp" -scrdir="/tmp/"
 Entering Link 1 = /sw/apps/gaussian-16.0/g16/l1.exe PID=    277926.
  
 Copyright (c) 1988,1990,1992,1993,1995,1998,2003,2009,2016,
            Gaussian, Inc.  All Rights Reserved.
  
 This is part of the Gaussian(R) 16 program.  It is based on
 the Gaussian(R) 09 system (copyright 2009, Gaussian, Inc.),
 the Gaussian(R) 03 system (copyright 2003, Gaussian, Inc.),
 the Gaussian(R) 98 system (copyright 1998, Gaussian, Inc.),
 the Gaussian(R) 94 system (copyright 1995, Gaussian, Inc.),
 the Gaussian 92(TM) system (copyright 1992, Gaussian, Inc.),
 the Gaussian 90(TM) system (copyright 1990, Gaussian, Inc.),
 the Gaussian 88(TM) system (copyright 1988, Gaussian, Inc.),
 the Gaussian 86(TM) system (copyright 1986, Carnegie Mellon
 University), and the Gaussian 82(TM) system (copyright 1983,
 Carnegie Mellon University). Gaussian is a federally registered
 trademark of Gaussian, Inc.
  
 This software contains proprietary and confidential information,
 including trade secrets, belonging to Gaussian, Inc.
  
 This software is provided under written license and may be
 used, copied, transmitted, or stored only in accord with that
 written license.
  
 The following legend is applicable only to US Government
 contracts under FAR:
  
                    RESTRICTED RIGHTS LEGEND
  
 Use, reproduction and disclosure by the US Government is
 subject to restrictions as set forth in subparagraphs (a)
 and (c) of the Commercial Computer Software - Restricted
 Rights clause in FAR 52.227-19.
  
 Gaussian, Inc.
 340 Quinnipiac St., Bldg. 40, Wallingford CT 06492
  
  
 ---------------------------------------------------------------
 Warning -- This program may not be used in any manner that
 competes with the business of Gaussian, Inc. or will provide
 assistance to any competitor of Gaussian, Inc.  The licensee
 of this program is prohibited from giving any competitor of
 Gaussian, Inc. access to this program.  By using this program,
 the user acknowledges that Gaussian, Inc. is engaged in the
 business of creating and licensing software in the field of
 computational chemistry and represents and warrants to the
 licensee that it is not a competitor of Gaussian, Inc. and that
 it will not use this program in any manner prohibited above.
 ---------------------------------------------------------------
  

 Cite this work as:
 Gaussian 16, Revision A.03,
 M. J. Frisch, G. W. Trucks, H. B. Schlegel, G. E. Scuseria, 
 M. A. Robb, J. R. Cheeseman, G. Scalmani, V. Barone, 
 G. A. Petersson, H. Nakatsuji, X. Li, M. Caricato, A. V. Marenich, 
 J. Bloino, B. G. Janesko, R. Gomperts, B. Mennucci, H. P. Hratchian, 
 J. V. Ortiz, A. F. Izmaylov, J. L. Sonnenberg, D. Williams-Young, 
 F. Ding, F. Lipparini, F. Egidi, J. Goings, B. Peng, A. Petrone, 
 T. Henderson, D. Ranasinghe, V. G. Zakrzewski, J. Gao, N. Rega, 
 G. Zheng, W. Liang, M. Hada, M. Ehara, K. Toyota, R. Fukuda, 
 J. Hasegawa, M. Ishida, T. Nakajima, Y. Honda, O. Kitao, H. Nakai, 
 T. Vreven, K. Throssell, J. A. Montgomery, Jr., J. E. Peralta, 
 F. Ogliaro, M. J. Bearpark, J. J. Heyd, E. N. Brothers, K. N. Kudin, 
 V. N. Staroverov, T. A. Keith, R. Kobayashi, J. Normand, 
 K. Raghavachari, A. P. Rendell, J. C. Burant, S. S. Iyengar, 
 J. Tomasi, M. Cossi, J. M. Millam, M. Klene, C. Adamo, R. Cammi, 
 J. W. Ochterski, R. L. Martin, K. Morokuma, O. Farkas, 
 J. B. Foresman, and D. J. Fox, Gaussian, Inc., Wallingford CT, 2016.
 
 ******************************************
 Gaussian 16:  ES64L-G16RevA.03 25-Dec-2016
                 4-Sep-2021 
 ******************************************
 %nproc=24
 Will use up to   24 processors via shared memory.
 %mem=175gb
 -----------------------------------
 #p cam-b3lyp/Def2SVP td=(nstates=5)
 -----------------------------------
 1/38=1,172=1/1;
 2/12=2,17=6,18=5,40=1/2;
 3/5=43,7=101,11=9,25=1,30=1,74=-40/1,2,3,8;
 4//1;
 5/5=2,38=5/2;
 8/6=1,10=1,108=5/1;
 9/41=5,42=1,70=2/14;
 6/7=2,8=2,9=2,10=2/1;
 99/5=1,9=1/99;
 Leave Link    1 at Sat Sep  4 16:31:09 2021, MaxMem= 23488102400 cpu:               0.7 elap:               0.0
 (Enter /sw/apps/gaussian-16.0/g16/l101.exe)
 --------------------------------
 TDDFT excited states in gaussian
 --------------------------------
 Symbolic Z-matrix:
 Charge =  0 Multiplicity = 1
 Mg                    0.        0.        0. 
 C                    -0.217    -2.218     2.801 
 C                    -1.255     2.442     2.026 
 C                    -0.245     1.85     -2.564 
 C                     0.146    -2.824    -2.037 
 N                    -0.617    -0.009     2.126 
 C                    -0.594    -0.908     3.105 
 C                    -0.936    -0.309     4.502 
 C                    -1.773     0.964     4.032 
 C                    -1.155     1.168     2.66 
 C                    -3.263     0.685     3.863 
 C                     0.345     0.11      5.299 
 C                     0.124     0.397     6.787 
 H                     1.168     0.033     7.733 
 N                    -0.185     1.961    -0.152 
 C                    -0.703     2.8       0.777 
 C                    -0.62      4.156     0.193 
 C                    -0.187     4.015    -1.225 
 C                    -0.214     2.583    -1.38 
 C                    -0.887     5.406     0.974 
 C                     0.181     5.013    -2.277 
 O                     0.303     4.69     -3.508 
 C                     0.31      6.414    -1.837 
 N                    -0.265    -0.413    -2.029 
 C                    -0.279     0.569    -2.937 
 C                    -0.196     0.024    -4.332 
 C                     0.124    -1.533    -4.18 
 C                     0.086    -1.632    -2.635 
 C                    -1.451     0.205    -5.197 
 C                     1.373    -2.07     -4.923 
 C                     2.626    -1.49     -4.306 
 N                     0.15     -2.144     0.303 
 C                     0.173    -3.136    -0.688 
 C                     0.173    -4.438     0.004 
 C                     0.133    -4.111     1.358 
 C                     0.083    -2.695     1.502 
 C                     0.149    -5.715    -0.623 
 C                     0.096    -4.629     2.716 
 O                     0.208    -5.747     3.221 
 C                    -0.255    -3.428     3.701 
 C                     0.717    -3.482     4.848 
 O                     1.931    -3.255     4.669 
 O                     0.038    -3.556     6.003 
 C                     0.943    -3.583     7.183 
 H                    -1.859     3.22      2.497 
 H                    -0.218     2.453    -3.474 
 H                     0.276    -3.747    -2.605 
 H                    -1.554    -0.949     5.132 
 H                    -1.585     1.831     4.665 
 H                    -3.484    -0.377     3.969 
 H                    -3.511     1.027     2.858 
 H                    -3.852     1.301     4.543 
 H                     0.669     1.096     4.966 
 H                     1.13     -0.639     5.189 
 H                    -0.844     0.026     7.125 
 H                     0.062     1.477     6.921 
 H                    -1.344     5.186     1.938 
 H                    -1.651     5.963     0.432 
 H                     0.007     6.02      1.084 
 H                    -0.635     6.744    -1.405 
 H                     0.665     6.97     -2.704 
 H                     1.048     6.466    -1.036 
 H                     0.608     0.501    -4.891 
 H                    -0.692    -2.156    -4.547 
 H                    -1.267     0.74     -6.129 
 H                    -2.204     0.714    -4.596 
 H                    -1.967    -0.72     -5.453 
 H                     1.356    -1.759    -5.967 
 H                     1.452    -3.157    -4.902 
 H                     2.714    -0.522    -4.798 
 H                     3.487    -2.121    -4.529 
 H                     2.495    -1.303    -3.24 
 H                     0.867    -6.333    -0.084 
 H                     0.404    -5.642    -1.68 
 H                    -0.891    -5.999    -0.463 
 H                    -1.283    -3.581     4.028 
 H                     0.698    -4.478     7.755 
 H                     0.833    -2.619     7.68 
 H                     2.       -3.754     6.976 
 Mg                    31.53895   2.84242   2.40297 
 C                     31.39766   0.12845   4.74678 
 C                     30.28861   4.84021   4.86875 
 C                     31.22682   5.14494   0.24232 
 C                     31.67726   0.45936  -0.13625 
 N                     30.9588   2.42266   4.49569 
 C                     31.007    1.3678    5.29525 
 C                     30.69158   1.67418   6.78394 
 C                     29.82228   3.00832   6.57592 
 C                     30.41197   3.47975   5.24826 
 C                     28.34139   2.73582   6.37087 
 C                     31.98667   1.95751   7.62328 
 C                     31.78256   1.95907   9.13989 
 H                     32.85384   1.44195   9.9869 
 N                     31.3286   4.80205   2.63572 
 C                     30.82386   5.44437   3.70994 
 C                     30.86573   6.87702   3.37842 
 C                     31.28307   7.01753   1.95687 
 C                     31.27539   5.62921   1.54143 
 C                     30.60549   7.95444   4.39077 
 C                     31.61943   8.20593   1.10788 
 O                     31.72531   8.11493  -0.16622 
 C                     31.72915   9.4974    1.80182 
 N                     31.24947   2.8144    0.34439 
 C                     31.20055   3.95715  -0.36248 
 C                     31.263    3.68381  -1.84632 
 C                     31.60912   2.12841  -1.98245 
 C                     31.59842   1.73512  -0.48893 
 C                     29.98978   3.9924   -2.63375 
 C                     32.85236   1.75615  -2.83593 
 C                     34.11142   2.23615  -2.15054 
 N                     31.72507   0.69254   2.29602 
 C                     31.73674  -0.10573   1.13124 
 C                     31.7657  -1.516     1.57023 
 C                     31.74547  -1.44026   2.97107 
 C                     31.68624  -0.07946   3.37629 
 C                     31.75676  -2.65382   0.715 
 C                     31.75002  -2.20239   4.19901 
 O                     31.87795  -3.39287   4.48206 
 C                     31.39735  -1.22493   5.40175 
 C                     32.38977  -1.46946   6.5053 
 O                     33.59369  -1.20319   6.34312 
 O                     31.72587  -1.77024   7.63629 
 C                     32.66705  -2.0105    8.76247 
 H                     29.68956   5.50141   5.49552 
 H                     31.23033   5.90332  -0.54402 
 H                     31.82038  -0.3403   -0.86614 
 H                     30.09956   0.91939   7.28751 
 H                     30.01961   3.73461   7.36009 
 H                     28.13477   1.67973   6.28074 
 H                     28.0704   3.25344   5.46 
 H                     27.75791   3.20421   7.16867 
 H                     32.28918   3.00189   7.47334 
 H                     32.76684   1.26835   7.36438 
 H                     30.81963   1.51921   9.42666 
 H                     31.71574   2.99537   9.47997 
 H                     30.16168   7.54651   5.3073 
 H                     29.82509   8.60142   3.97574 
 H                     31.49094   8.55844   4.60014 
 H                     30.79018   9.71864   2.30367 
 H                     32.06281   10.20892   1.044 
 H                     32.49131   9.4105    2.58424 
 H                     32.0514   4.26142  -2.31311 
 H                     30.79136   1.56933  -2.46049 
 H                     30.1514   4.70807  -3.46186 
 H                     29.24547   4.36954  -1.94505 
 H                     29.48998   3.12518  -3.06192 
 H                     32.81314   2.26289  -3.80332 
 H                     32.93852   0.69273  -3.03269 
 H                     34.17228   3.28582  -2.45315 
 H                     34.97546   1.67411  -2.49923 
 H                     33.99919   2.21336  -1.06034 
 H                     32.48503  -3.34801   1.11277 
 H                     31.98681  -2.38054  -0.3127 
 H                     30.71885  -2.97705   0.83128 
 H                     30.37567  -1.44483   5.71381 
 H                     32.4404  -3.00387   9.16188 
 H                     32.53921  -1.15108   9.44717 
 H                     33.71898  -2.11371   8.5232 
 
 ITRead=  0  0  0  0  0  0  0  0  0  0  0  0  0  0  0  0  0  0  0  0
 ITRead=  0  0  0  0  0  0  0  0  0  0  0  0  0  0  0  0  0  0  0  0
 ITRead=  0  0  0  0  0  0  0  0  0  0  0  0  0  0  0  0  0  0  0  0
 ITRead=  0  0  0  0  0  0  0  0  0  0  0  0  0  0  0  0  0  0  0  0
 ITRead=  0  0  0  0  0  0  0  0  0  0  0  0  0  0  0  0  0  0  0  0
 ITRead=  0  0  0  0  0  0  0  0  0  0  0  0  0  0  0  0  0  0  0  0
 ITRead=  0  0  0  0  0  0  0  0  0  0  0  0  0  0  0  0  0  0  0  0
 ITRead=  0  0  0  0  0  0  0  0  0  0  0  0  0  0  0  0  0  0
 MicOpt= -1 -1 -1 -1 -1 -1 -1 -1 -1 -1 -1 -1 -1 -1 -1 -1 -1 -1 -1 -1
 MicOpt= -1 -1 -1 -1 -1 -1 -1 -1 -1 -1 -1 -1 -1 -1 -1 -1 -1 -1 -1 -1
 MicOpt= -1 -1 -1 -1 -1 -1 -1 -1 -1 -1 -1 -1 -1 -1 -1 -1 -1 -1 -1 -1
 MicOpt= -1 -1 -1 -1 -1 -1 -1 -1 -1 -1 -1 -1 -1 -1 -1 -1 -1 -1 -1 -1
 MicOpt= -1 -1 -1 -1 -1 -1 -1 -1 -1 -1 -1 -1 -1 -1 -1 -1 -1 -1 -1 -1
 MicOpt= -1 -1 -1 -1 -1 -1 -1 -1 -1 -1 -1 -1 -1 -1 -1 -1 -1 -1 -1 -1
 MicOpt= -1 -1 -1 -1 -1 -1 -1 -1 -1 -1 -1 -1 -1 -1 -1 -1 -1 -1 -1 -1
 MicOpt= -1 -1 -1 -1 -1 -1 -1 -1 -1 -1 -1 -1 -1 -1 -1 -1 -1 -1
 NAtoms=    158 NQM=      158 NQMF=       0 NMMI=      0 NMMIF=      0
                NMic=       0 NMicF=      0.
                    Isotopes and Nuclear Properties:
 (Nuclear quadrupole moments (NQMom) in fm**2, nuclear magnetic moments (NMagM)
  in nuclear magnetons)

  Atom         1           2           3           4           5           6           7           8           9          10
 IAtWgt=          24          12          12          12          12          14          12          12          12          12
 AtmWgt=  23.9850450  12.0000000  12.0000000  12.0000000  12.0000000  14.0030740  12.0000000  12.0000000  12.0000000  12.0000000
 NucSpn=           0           0           0           0           0           2           0           0           0           0
 AtZEff=  -0.0000000  -0.0000000  -0.0000000  -0.0000000  -0.0000000  -0.0000000  -0.0000000  -0.0000000  -0.0000000  -0.0000000
 NQMom=    0.0000000   0.0000000   0.0000000   0.0000000   0.0000000   2.0440000   0.0000000   0.0000000   0.0000000   0.0000000
 NMagM=    0.0000000   0.0000000   0.0000000   0.0000000   0.0000000   0.4037610   0.0000000   0.0000000   0.0000000   0.0000000
 AtZNuc=  12.0000000   6.0000000   6.0000000   6.0000000   6.0000000   7.0000000   6.0000000   6.0000000   6.0000000   6.0000000

  Atom        11          12          13          14          15          16          17          18          19          20
 IAtWgt=          12          12          12           1          14          12          12          12          12          12
 AtmWgt=  12.0000000  12.0000000  12.0000000   1.0078250  14.0030740  12.0000000  12.0000000  12.0000000  12.0000000  12.0000000
 NucSpn=           0           0           0           1           2           0           0           0           0           0
 AtZEff=  -0.0000000  -0.0000000  -0.0000000  -0.0000000  -0.0000000  -0.0000000  -0.0000000  -0.0000000  -0.0000000  -0.0000000
 NQMom=    0.0000000   0.0000000   0.0000000   0.0000000   2.0440000   0.0000000   0.0000000   0.0000000   0.0000000   0.0000000
 NMagM=    0.0000000   0.0000000   0.0000000   2.7928460   0.4037610   0.0000000   0.0000000   0.0000000   0.0000000   0.0000000
 AtZNuc=   6.0000000   6.0000000   6.0000000   1.0000000   7.0000000   6.0000000   6.0000000   6.0000000   6.0000000   6.0000000

  Atom        21          22          23          24          25          26          27          28          29          30
 IAtWgt=          12          16          12          14          12          12          12          12          12          12
 AtmWgt=  12.0000000  15.9949146  12.0000000  14.0030740  12.0000000  12.0000000  12.0000000  12.0000000  12.0000000  12.0000000
 NucSpn=           0           0           0           2           0           0           0           0           0           0
 AtZEff=  -0.0000000  -0.0000000  -0.0000000  -0.0000000  -0.0000000  -0.0000000  -0.0000000  -0.0000000  -0.0000000  -0.0000000
 NQMom=    0.0000000   0.0000000   0.0000000   2.0440000   0.0000000   0.0000000   0.0000000   0.0000000   0.0000000   0.0000000
 NMagM=    0.0000000   0.0000000   0.0000000   0.4037610   0.0000000   0.0000000   0.0000000   0.0000000   0.0000000   0.0000000
 AtZNuc=   6.0000000   8.0000000   6.0000000   7.0000000   6.0000000   6.0000000   6.0000000   6.0000000   6.0000000   6.0000000

  Atom        31          32          33          34          35          36          37          38          39          40
 IAtWgt=          12          14          12          12          12          12          12          12          16          12
 AtmWgt=  12.0000000  14.0030740  12.0000000  12.0000000  12.0000000  12.0000000  12.0000000  12.0000000  15.9949146  12.0000000
 NucSpn=           0           2           0           0           0           0           0           0           0           0
 AtZEff=  -0.0000000  -0.0000000  -0.0000000  -0.0000000  -0.0000000  -0.0000000  -0.0000000  -0.0000000  -0.0000000  -0.0000000
 NQMom=    0.0000000   2.0440000   0.0000000   0.0000000   0.0000000   0.0000000   0.0000000   0.0000000   0.0000000   0.0000000
 NMagM=    0.0000000   0.4037610   0.0000000   0.0000000   0.0000000   0.0000000   0.0000000   0.0000000   0.0000000   0.0000000
 AtZNuc=   6.0000000   7.0000000   6.0000000   6.0000000   6.0000000   6.0000000   6.0000000   6.0000000   8.0000000   6.0000000

  Atom        41          42          43          44          45          46          47          48          49          50
 IAtWgt=          12          16          16          12           1           1           1           1           1           1
 AtmWgt=  12.0000000  15.9949146  15.9949146  12.0000000   1.0078250   1.0078250   1.0078250   1.0078250   1.0078250   1.0078250
 NucSpn=           0           0           0           0           1           1           1           1           1           1
 AtZEff=  -0.0000000  -0.0000000  -0.0000000  -0.0000000  -0.0000000  -0.0000000  -0.0000000  -0.0000000  -0.0000000  -0.0000000
 NQMom=    0.0000000   0.0000000   0.0000000   0.0000000   0.0000000   0.0000000   0.0000000   0.0000000   0.0000000   0.0000000
 NMagM=    0.0000000   0.0000000   0.0000000   0.0000000   2.7928460   2.7928460   2.7928460   2.7928460   2.7928460   2.7928460
 AtZNuc=   6.0000000   8.0000000   8.0000000   6.0000000   1.0000000   1.0000000   1.0000000   1.0000000   1.0000000   1.0000000

  Atom        51          52          53          54          55          56          57          58          59          60
 IAtWgt=           1           1           1           1           1           1           1           1           1           1
 AtmWgt=   1.0078250   1.0078250   1.0078250   1.0078250   1.0078250   1.0078250   1.0078250   1.0078250   1.0078250   1.0078250
 NucSpn=           1           1           1           1           1           1           1           1           1           1
 AtZEff=  -0.0000000  -0.0000000  -0.0000000  -0.0000000  -0.0000000  -0.0000000  -0.0000000  -0.0000000  -0.0000000  -0.0000000
 NQMom=    0.0000000   0.0000000   0.0000000   0.0000000   0.0000000   0.0000000   0.0000000   0.0000000   0.0000000   0.0000000
 NMagM=    2.7928460   2.7928460   2.7928460   2.7928460   2.7928460   2.7928460   2.7928460   2.7928460   2.7928460   2.7928460
 AtZNuc=   1.0000000   1.0000000   1.0000000   1.0000000   1.0000000   1.0000000   1.0000000   1.0000000   1.0000000   1.0000000

  Atom        61          62          63          64          65          66          67          68          69          70
 IAtWgt=           1           1           1           1           1           1           1           1           1           1
 AtmWgt=   1.0078250   1.0078250   1.0078250   1.0078250   1.0078250   1.0078250   1.0078250   1.0078250   1.0078250   1.0078250
 NucSpn=           1           1           1           1           1           1           1           1           1           1
 AtZEff=  -0.0000000  -0.0000000  -0.0000000  -0.0000000  -0.0000000  -0.0000000  -0.0000000  -0.0000000  -0.0000000  -0.0000000
 NQMom=    0.0000000   0.0000000   0.0000000   0.0000000   0.0000000   0.0000000   0.0000000   0.0000000   0.0000000   0.0000000
 NMagM=    2.7928460   2.7928460   2.7928460   2.7928460   2.7928460   2.7928460   2.7928460   2.7928460   2.7928460   2.7928460
 AtZNuc=   1.0000000   1.0000000   1.0000000   1.0000000   1.0000000   1.0000000   1.0000000   1.0000000   1.0000000   1.0000000

  Atom        71          72          73          74          75          76          77          78          79          80
 IAtWgt=           1           1           1           1           1           1           1           1           1          24
 AtmWgt=   1.0078250   1.0078250   1.0078250   1.0078250   1.0078250   1.0078250   1.0078250   1.0078250   1.0078250  23.9850450
 NucSpn=           1           1           1           1           1           1           1           1           1           0
 AtZEff=  -0.0000000  -0.0000000  -0.0000000  -0.0000000  -0.0000000  -0.0000000  -0.0000000  -0.0000000  -0.0000000  -0.0000000
 NQMom=    0.0000000   0.0000000   0.0000000   0.0000000   0.0000000   0.0000000   0.0000000   0.0000000   0.0000000   0.0000000
 NMagM=    2.7928460   2.7928460   2.7928460   2.7928460   2.7928460   2.7928460   2.7928460   2.7928460   2.7928460   0.0000000
 AtZNuc=   1.0000000   1.0000000   1.0000000   1.0000000   1.0000000   1.0000000   1.0000000   1.0000000   1.0000000  12.0000000

  Atom        81          82          83          84          85          86          87          88          89          90
 IAtWgt=          12          12          12          12          14          12          12          12          12          12
 AtmWgt=  12.0000000  12.0000000  12.0000000  12.0000000  14.0030740  12.0000000  12.0000000  12.0000000  12.0000000  12.0000000
 NucSpn=           0           0           0           0           2           0           0           0           0           0
 AtZEff=  -0.0000000  -0.0000000  -0.0000000  -0.0000000  -0.0000000  -0.0000000  -0.0000000  -0.0000000  -0.0000000  -0.0000000
 NQMom=    0.0000000   0.0000000   0.0000000   0.0000000   2.0440000   0.0000000   0.0000000   0.0000000   0.0000000   0.0000000
 NMagM=    0.0000000   0.0000000   0.0000000   0.0000000   0.4037610   0.0000000   0.0000000   0.0000000   0.0000000   0.0000000
 AtZNuc=   6.0000000   6.0000000   6.0000000   6.0000000   7.0000000   6.0000000   6.0000000   6.0000000   6.0000000   6.0000000

  Atom        91          92          93          94          95          96          97          98          99         100
 IAtWgt=          12          12           1          14          12          12          12          12          12          12
 AtmWgt=  12.0000000  12.0000000   1.0078250  14.0030740  12.0000000  12.0000000  12.0000000  12.0000000  12.0000000  12.0000000
 NucSpn=           0           0           1           2           0           0           0           0           0           0
 AtZEff=  -0.0000000  -0.0000000  -0.0000000  -0.0000000  -0.0000000  -0.0000000  -0.0000000  -0.0000000  -0.0000000  -0.0000000
 NQMom=    0.0000000   0.0000000   0.0000000   2.0440000   0.0000000   0.0000000   0.0000000   0.0000000   0.0000000   0.0000000
 NMagM=    0.0000000   0.0000000   2.7928460   0.4037610   0.0000000   0.0000000   0.0000000   0.0000000   0.0000000   0.0000000
 AtZNuc=   6.0000000   6.0000000   1.0000000   7.0000000   6.0000000   6.0000000   6.0000000   6.0000000   6.0000000   6.0000000

  Atom       101         102         103         104         105         106         107         108         109         110
 IAtWgt=          16          12          14          12          12          12          12          12          12          12
 AtmWgt=  15.9949146  12.0000000  14.0030740  12.0000000  12.0000000  12.0000000  12.0000000  12.0000000  12.0000000  12.0000000
 NucSpn=           0           0           2           0           0           0           0           0           0           0
 AtZEff=  -0.0000000  -0.0000000  -0.0000000  -0.0000000  -0.0000000  -0.0000000  -0.0000000  -0.0000000  -0.0000000  -0.0000000
 NQMom=    0.0000000   0.0000000   2.0440000   0.0000000   0.0000000   0.0000000   0.0000000   0.0000000   0.0000000   0.0000000
 NMagM=    0.0000000   0.0000000   0.4037610   0.0000000   0.0000000   0.0000000   0.0000000   0.0000000   0.0000000   0.0000000
 AtZNuc=   8.0000000   6.0000000   7.0000000   6.0000000   6.0000000   6.0000000   6.0000000   6.0000000   6.0000000   6.0000000

  Atom       111         112         113         114         115         116         117         118         119         120
 IAtWgt=          14          12          12          12          12          12          12          16          12          12
 AtmWgt=  14.0030740  12.0000000  12.0000000  12.0000000  12.0000000  12.0000000  12.0000000  15.9949146  12.0000000  12.0000000
 NucSpn=           2           0           0           0           0           0           0           0           0           0
 AtZEff=  -0.0000000  -0.0000000  -0.0000000  -0.0000000  -0.0000000  -0.0000000  -0.0000000  -0.0000000  -0.0000000  -0.0000000
 NQMom=    2.0440000   0.0000000   0.0000000   0.0000000   0.0000000   0.0000000   0.0000000   0.0000000   0.0000000   0.0000000
 NMagM=    0.4037610   0.0000000   0.0000000   0.0000000   0.0000000   0.0000000   0.0000000   0.0000000   0.0000000   0.0000000
 AtZNuc=   7.0000000   6.0000000   6.0000000   6.0000000   6.0000000   6.0000000   6.0000000   8.0000000   6.0000000   6.0000000

  Atom       121         122         123         124         125         126         127         128         129         130
 IAtWgt=          16          16          12           1           1           1           1           1           1           1
 AtmWgt=  15.9949146  15.9949146  12.0000000   1.0078250   1.0078250   1.0078250   1.0078250   1.0078250   1.0078250   1.0078250
 NucSpn=           0           0           0           1           1           1           1           1           1           1
 AtZEff=  -0.0000000  -0.0000000  -0.0000000  -0.0000000  -0.0000000  -0.0000000  -0.0000000  -0.0000000  -0.0000000  -0.0000000
 NQMom=    0.0000000   0.0000000   0.0000000   0.0000000   0.0000000   0.0000000   0.0000000   0.0000000   0.0000000   0.0000000
 NMagM=    0.0000000   0.0000000   0.0000000   2.7928460   2.7928460   2.7928460   2.7928460   2.7928460   2.7928460   2.7928460
 AtZNuc=   8.0000000   8.0000000   6.0000000   1.0000000   1.0000000   1.0000000   1.0000000   1.0000000   1.0000000   1.0000000

  Atom       131         132         133         134         135         136         137         138         139         140
 IAtWgt=           1           1           1           1           1           1           1           1           1           1
 AtmWgt=   1.0078250   1.0078250   1.0078250   1.0078250   1.0078250   1.0078250   1.0078250   1.0078250   1.0078250   1.0078250
 NucSpn=           1           1           1           1           1           1           1           1           1           1
 AtZEff=  -0.0000000  -0.0000000  -0.0000000  -0.0000000  -0.0000000  -0.0000000  -0.0000000  -0.0000000  -0.0000000  -0.0000000
 NQMom=    0.0000000   0.0000000   0.0000000   0.0000000   0.0000000   0.0000000   0.0000000   0.0000000   0.0000000   0.0000000
 NMagM=    2.7928460   2.7928460   2.7928460   2.7928460   2.7928460   2.7928460   2.7928460   2.7928460   2.7928460   2.7928460
 AtZNuc=   1.0000000   1.0000000   1.0000000   1.0000000   1.0000000   1.0000000   1.0000000   1.0000000   1.0000000   1.0000000

  Atom       141         142         143         144         145         146         147         148         149         150
 IAtWgt=           1           1           1           1           1           1           1           1           1           1
 AtmWgt=   1.0078250   1.0078250   1.0078250   1.0078250   1.0078250   1.0078250   1.0078250   1.0078250   1.0078250   1.0078250
 NucSpn=           1           1           1           1           1           1           1           1           1           1
 AtZEff=  -0.0000000  -0.0000000  -0.0000000  -0.0000000  -0.0000000  -0.0000000  -0.0000000  -0.0000000  -0.0000000  -0.0000000
 NQMom=    0.0000000   0.0000000   0.0000000   0.0000000   0.0000000   0.0000000   0.0000000   0.0000000   0.0000000   0.0000000
 NMagM=    2.7928460   2.7928460   2.7928460   2.7928460   2.7928460   2.7928460   2.7928460   2.7928460   2.7928460   2.7928460
 AtZNuc=   1.0000000   1.0000000   1.0000000   1.0000000   1.0000000   1.0000000   1.0000000   1.0000000   1.0000000   1.0000000

  Atom       151         152         153         154         155         156         157         158
 IAtWgt=           1           1           1           1           1           1           1           1
 AtmWgt=   1.0078250   1.0078250   1.0078250   1.0078250   1.0078250   1.0078250   1.0078250   1.0078250
 NucSpn=           1           1           1           1           1           1           1           1
 AtZEff=  -0.0000000  -0.0000000  -0.0000000  -0.0000000  -0.0000000  -0.0000000  -0.0000000  -0.0000000
 NQMom=    0.0000000   0.0000000   0.0000000   0.0000000   0.0000000   0.0000000   0.0000000   0.0000000
 NMagM=    2.7928460   2.7928460   2.7928460   2.7928460   2.7928460   2.7928460   2.7928460   2.7928460
 AtZNuc=   1.0000000   1.0000000   1.0000000   1.0000000   1.0000000   1.0000000   1.0000000   1.0000000
 Leave Link  101 at Sat Sep  4 16:31:10 2021, MaxMem= 23488102400 cpu:               3.3 elap:               0.2
 (Enter /sw/apps/gaussian-16.0/g16/l202.exe)
 Stoichiometry    C68H72Mg2N8O8
 Framework group  C1[X(C68H72Mg2N8O8)]
 Deg. of freedom   468
 Full point group                 C1      NOp   1
 Largest Abelian subgroup         C1      NOp   1
 Largest concise Abelian subgroup C1      NOp   1
                         Standard orientation:                         
 ---------------------------------------------------------------------
 Center     Atomic      Atomic             Coordinates (Angstroms)
 Number     Number       Type             X           Y           Z
 ---------------------------------------------------------------------
      1         12           0      -15.794197   -0.748450    0.166542
      2          6           0      -15.990913    2.823436    0.043452
      3          6           0      -16.687996   -0.762547   -3.126480
      4          6           0      -16.070143   -3.901264    0.367140
      5          6           0      -16.035370   -0.494893    3.633991
      6          7           0      -16.252409    0.887651   -1.252565
      7          6           0      -16.233325    2.215405   -1.190314
      8          6           0      -16.420597    2.901645   -2.576452
      9          6           0      -17.179938    1.725345   -3.339156
     10          6           0      -16.649140    0.541664   -2.549803
     11          6           0      -18.696462    1.778389   -3.184744
     12          6           0      -15.054025    3.240278   -3.261682
     13          6           0      -15.140578    4.196465   -4.454816
     14          1           0      -14.064353    5.152924   -4.665231
     15          7           0      -15.824549   -2.124614   -1.250533
     16          6           0      -16.200852   -1.950798   -2.540289
     17          6           0      -16.047301   -3.269789   -3.190953
     18          6           0      -15.732684   -4.266621   -2.130088
     19          6           0      -15.891086   -3.465147   -0.943527
     20          6           0      -16.150501   -3.474021   -4.671287
     21          6           0      -15.360237   -5.714779   -2.177582
     22          8           0      -15.356268   -6.450700   -1.132126
     23          6           0      -15.082200   -6.278184   -3.511116
     24          7           0      -16.240819   -2.037132    1.746878
     25          6           0      -16.238791   -3.363839    1.577090
     26          6           0      -16.304227   -4.082681    2.891975
     27          6           0      -16.105800   -2.966414    4.016399
     28          6           0      -16.038722   -1.718916    3.101239
     29          6           0      -17.599570   -4.859023    3.166551
     30          6           0      -14.964072   -3.193371    5.038831
     31          6           0      -13.624993   -3.096051    4.342776
     32          7           0      -15.802932    0.861082    1.622693
     33          6           0      -15.935934    0.739156    3.013419
     34          6           0      -15.994558    2.106018    3.563255
     35          6           0      -15.907693    2.933434    2.445363
     36          6           0      -15.827961    2.133981    1.269433
     37          6           0      -16.171535    2.446232    4.933425
     38          6           0      -15.888493    4.306890    1.968806
     39          8           0      -15.834064    5.411990    2.510363
     40          6           0      -16.064344    4.290635    0.386201
     41          6           0      -15.018925    5.202060   -0.196649
     42          8           0      -13.806535    4.916391   -0.120037
     43          8           0      -15.615321    6.136070   -0.953272
     44          6           0      -14.631801    7.055576   -1.585215
     45          1           0      -17.188427   -0.900271   -4.086970
     46          1           0      -16.059334   -4.986054    0.491843
     47          1           0      -16.025265   -0.337283    4.714042
     48          1           0      -17.042339    3.796962   -2.560053
     49          1           0      -16.873963    1.652829   -4.382632
     50          1           0      -18.997479    2.542512   -2.468207
     51          1           0      -18.987810    0.789122   -2.831245
     52          1           0      -19.180280    1.904869   -4.153609
     53          1           0      -14.673654    2.350836   -3.763948
     54          1           0      -14.344848    3.635575   -2.533579
     55          1           0      -16.108944    4.695957   -4.495862
     56          1           0      -15.101711    3.605284   -5.369800
     57          1           0      -16.552524   -2.593026   -5.170054
     58          1           0      -16.902679   -4.245559   -4.834587
     59          1           0      -15.202464   -3.786235   -5.109557
     60          1           0      -15.961974   -6.157169   -4.143493
     61          1           0      -14.746230   -7.300542   -3.341534
     62          1           0      -14.285765   -5.699473   -3.979874
     63          1           0      -15.506127   -4.819261    2.975110
     64          1           0      -16.995900   -2.845504    4.634280
     65          1           0      -17.440058   -5.917317    3.374576
     66          1           0      -18.261135   -4.723959    2.311343
     67          1           0      -18.208761   -4.459658    3.976989
     68          1           0      -15.031317   -4.193104    5.466568
     69          1           0      -14.975281   -2.478966    5.862088
     70          1           0      -13.492309   -4.095240    3.929438
     71          1           0      -12.838658   -2.863327    5.061614
     72          1           0      -13.661407   -2.399144    3.505231
     73          1           0      -15.470411    3.254769    5.139974
     74          1           0      -15.989406    1.588879    5.581019
     75          1           0      -17.217185    2.753590    4.931736
     76          1           0      -17.074840    4.641747    0.179466
     77          1           0      -14.908521    8.069496   -1.296033
     78          1           0      -14.623788    6.817174   -2.648937
     79          1           0      -13.610897    7.004543   -1.205097
     80         12           0       15.963030   -0.802612   -0.019317
     81          6           0       15.766433    2.737504    0.535630
     82          6           0       15.068779   -0.194313   -3.254262
     83          6           0       15.687903   -3.937009   -0.428335
     84          6           0       15.714452   -1.217187    3.432072
     85          7           0       15.504518    1.071855   -1.100236
     86          6           0       15.522418    2.362218   -0.801921
     87          6           0       15.343711    3.306687   -2.020772
     88          6           0       14.576591    2.291902   -3.000886
     89          6           0       15.104952    0.970411   -2.446669
     90          6           0       13.067025    2.313127   -2.827395
     91          6           0       16.715996    3.764910   -2.628136
     92          6           0       16.624360    4.926400   -3.620261
     93          1           0       17.707591    5.905344   -3.647826
     94          7           0       15.935549   -1.883041   -1.683795
     95          6           0       15.566548   -1.471600   -2.914990
     96          6           0       15.704151   -2.646302   -3.789796
     97          6           0       16.026578   -3.826714   -2.942807
     98          6           0       15.871969   -3.252903   -1.621097
     99          6           0       15.610124   -2.562389   -5.285633
    100          6           0       16.398435   -5.241600   -3.268437
    101          8           0       16.402704   -6.159589   -2.373953
    102          6           0       16.666715   -5.540010   -4.682814
    103          7           0       15.522235   -2.361287    1.283975
    104          6           0       15.517785   -3.637105    0.859468
    105          6           0       15.448227   -4.598536    2.021883
    106          6           0       15.651644   -3.704124    3.331939
    107          6           0       15.717375   -2.307024    2.676817
    108          6           0       14.151170   -5.397390    2.147735
    109          6           0       16.793386   -4.121578    4.298794
    110          6           0       18.135101   -3.907612    3.635913
    111          7           0       15.959673    0.496510    1.707048
    112          6           0       15.818949    0.116968    3.059907
    113          6           0       15.761485    1.359480    3.856949
    114          6           0       15.850333    2.384197    2.902717
    115          6           0       15.935391    1.820385    1.601037
    116          6           0       15.594444    1.435353    5.268499
    117          6           0       15.880804    3.814783    2.699749
    118          8           0       15.928725    4.796362    3.439974
    119          6           0       15.700475    4.109010    1.148202
    120          6           0       16.747009    5.109529    0.740473
    121          8           0       17.953911    4.811535    0.775316
    122          8           0       16.144822    6.170834    0.173577
    123          6           0       17.142451    7.186060   -0.257558
    124          1           0       14.574870   -0.137641   -4.224689
    125          1           0       15.697468   -5.026842   -0.503530
    126          1           0       15.736093   -1.262904    4.522998
    127          1           0       14.728891    4.178836   -1.833342
    128          1           0       14.891096    2.425612   -4.032664
    129          1           0       12.766430    2.923144   -1.988549
    130          1           0       12.774467    1.283184   -2.670303
    131          1           0       12.584928    2.624707   -3.758429
    132          1           0       17.093319    2.978263   -3.294123
    133          1           0       17.414492    4.007676   -1.851088
    134          1           0       15.651500    5.430876   -3.575593
    135          1           0       16.669861    4.521212   -4.634061
    136          1           0       15.201955   -1.597034   -5.609498
    137          1           0       14.858501   -3.294424   -5.600346
    138          1           0       16.556102   -2.792020   -5.780677
    139          1           0       15.788918   -5.295600   -5.276280
    140          1           0       17.002530   -6.578600   -4.703754
    141          1           0       17.474137   -4.886332   -5.031233
    142          1           0       16.246024   -5.329080    1.967788
    143          1           0       14.757029   -3.709364    3.971830
    144          1           0       14.311217   -6.492129    2.149345
    145          1           0       13.493594   -5.110417    1.337933
    146          1           0       13.550319   -5.167108    3.025886
    147          1           0       16.726103   -5.188342    4.526071
    148          1           0       16.775324   -3.589192    5.243907
    149          1           0       18.261541   -4.814108    3.036446
    150          1           0       18.921041   -3.815512    4.382810
    151          1           0       18.101500   -3.057396    2.944787
    152          1           0       16.289034    2.184614    5.624380
    153          1           0       15.770738    0.471809    5.742075
    154          1           0       14.544376    1.734417    5.324830
    155          1           0       14.689548    4.491649    1.002659
    156          1           0       16.863069    8.130910    0.218767
    157          1           0       17.137702    7.158718   -1.363447
    158          1           0       18.161645    7.066752    0.090967
 ---------------------------------------------------------------------
 Rotational constants (GHZ):           0.0202626           0.0016483           0.0016114
 Leave Link  202 at Sat Sep  4 16:31:10 2021, MaxMem= 23488102400 cpu:               0.3 elap:               0.0
 (Enter /sw/apps/gaussian-16.0/g16/l301.exe)
 Standard basis: def2SVP (5D, 7F)
 Ernie: Thresh=  0.10000D-02 Tol=  0.10000D-05 Strict=F.
 There are  1658 symmetry adapted cartesian basis functions of A   symmetry.
 There are  1572 symmetry adapted basis functions of A   symmetry.
  1572 basis functions,  2678 primitive gaussians,  1658 cartesian basis functions
   312 alpha electrons      312 beta electrons
       nuclear repulsion energy     12306.8745502331 Hartrees.
 IExCor=20419 DFT=T Ex+Corr=CAM-B3LYP ExCW=0 ScaHFX=  1.000000
 ScaDFX=  1.000000  1.000000  1.000000  0.810000 ScalE2=  1.000000  1.000000
 IRadAn=      5 IRanWt=     -1 IRanGd=            0 ICorTp=0 IEmpDi=  4
 HFx  wShort=  0.000000 wLong=  0.330000 cFull=  0.190000 cShort=  0.000000 cLong=  0.460000
 DFx  wShort=  0.000000 wLong=  0.330000 cFull=  0.190000 cShort=  0.000000 cLong=  0.460000
 NAtoms=  158 NActive=  158 NUniq=  158 SFac= 1.00D+00 NAtFMM=   60 NAOKFM=T Big=T
 Integral buffers will be    131072 words long.
 Raffenetti 1 integral format.
 Two-electron integral symmetry is turned on.
 Leave Link  301 at Sat Sep  4 16:31:10 2021, MaxMem= 23488102400 cpu:               1.3 elap:               0.1
 (Enter /sw/apps/gaussian-16.0/g16/l302.exe)
 NPDir=0 NMtPBC=     1 NCelOv=     1 NCel=       1 NClECP=     1 NCelD=      1
         NCelK=      1 NCelE2=     1 NClLst=     1 CellRange=     0.0.
 One-electron integrals computed using PRISM.
 One-electron integral symmetry used in STVInt
   1 Symmetry operations used in ECPInt.
 ECPInt:  NShTT=  271216 NPrTT=  987664 LenC2=  103957 LenP2D=  239866.
 LDataN:  DoStor=T MaxTD1= 4 Len=   56
 NBasis=  1572 RedAO= T EigKep=  3.36D-04  NBF=  1572
 NBsUse=  1572 1.00D-06 EigRej= -1.00D+00 NBFU=  1572
 Precomputing XC quadrature grid using
 IXCGrd= 4 IRadAn=           5 IRanWt=          -1 IRanGd=           0 AccXCQ= 0.00D+00.
 Generated NRdTot=       0 NPtTot=           0 NUsed=           0 NTot=          32
 NSgBfM=   812   812   812   812   812 MxSgAt=   158 MxSgA2=    79.
 Leave Link  302 at Sat Sep  4 16:31:14 2021, MaxMem= 23488102400 cpu:              99.3 elap:               4.2
 (Enter /sw/apps/gaussian-16.0/g16/l303.exe)
 DipDrv:  MaxL=1.
 Leave Link  303 at Sat Sep  4 16:31:14 2021, MaxMem= 23488102400 cpu:               8.3 elap:               0.4
 (Enter /sw/apps/gaussian-16.0/g16/l308.exe)
 Leave Link  308 at Sat Sep  4 16:31:15 2021, MaxMem= 23488102400 cpu:              13.4 elap:               0.6
 (Enter /sw/apps/gaussian-16.0/g16/l401.exe)
 ExpMin= 3.36D-02 ExpMax= 4.95D+03 ExpMxC= 7.45D+02 IAcc=3 IRadAn=         5 AccDes= 0.00D+00
 Harris functional with IExCor=20419 and IRadAn=       5 diagonalized for initial guess.
 HarFok:  IExCor=20419 AccDes= 0.00D+00 IRadAn=         5 IDoV= 1 UseB2=F ITyADJ=14
 ICtDFT=  3500011 ScaDFX=  1.000000  1.000000  1.000000  1.000000
 FoFCou: FMM=F IPFlag=           0 FMFlag=      100000 FMFlg1=        2001
         NFxFlg=           0 DoJE=T BraDBF=F KetDBF=T FulRan=T
         wScrn=  0.000000 ICntrl=       500 IOpCl=  0 I1Cent=   200000004 NGrid=           0
         NMat0=    1 NMatS0=      1 NMatT0=    0 NMatD0=    1 NMtDS0=    0 NMtDT0=    0
 Petite list used in FoFCou.
 Harris En= -3918.65801135770    
 JPrj=0 DoOrth=F DoCkMO=F.
 Leave Link  401 at Sat Sep  4 16:31:21 2021, MaxMem= 23488102400 cpu:             154.9 elap:               6.5
 (Enter /sw/apps/gaussian-16.0/g16/l502.exe)
 Integral symmetry usage will be decided dynamically.
 Closed shell SCF:
 Using DIIS extrapolation, IDIIS=  1040.
 NGot= 23488102400 LenX= 23482547354 LenY= 23479796732
 Requested convergence on RMS density matrix=1.00D-08 within 128 cycles.
 Requested convergence on MAX density matrix=1.00D-06.
 Requested convergence on             energy=1.00D-06.
 No special actions if energy rises.
 Fock matrices will be formed incrementally for  20 cycles.

 Cycle   1  Pass 1  IDiag  1:
 FoFJK:  IHMeth= 1 ICntrl=       0 DoSepK=T KAlg= 0 I1Cent=           0 FoldK=F
 IRaf=         1 NMat=       1 IRICut=       1 DoRegI=T DoRafI=F ISym2E= 0 IDoP0=0 IntGTp=1.
 FoFCou: FMM=T IPFlag=           0 FMFlag=      100000 FMFlg1=        2001
         NFxFlg=           0 DoJE=T BraDBF=F KetDBF=F FulRan=T
         wScrn=  0.000000 ICntrl=       500 IOpCl=  0 I1Cent=           0 NGrid=           0
         NMat0=    1 NMatS0=      1 NMatT0=    0 NMatD0=    1 NMtDS0=    0 NMtDT0=    0
 Symmetry not used in FoFCou.
 FMM levels:  10  Number of levels for PrismC:   9
 E= -4068.94926221252    
 DIIS: error= 2.04D-02 at cycle   1 NSaved=   1.
 NSaved= 1 IEnMin= 1 EnMin= -4068.94926221252     IErMin= 1 ErrMin= 2.04D-02
 ErrMax= 2.04D-02  0.00D+00 EMaxC= 1.00D-01 BMatC= 1.69D+00 BMatP= 1.69D+00
 IDIUse=3 WtCom= 7.96D-01 WtEn= 2.04D-01
 Coeff-Com:  0.100D+01
 Coeff-En:   0.100D+01
 Coeff:      0.100D+01
 Gap=     0.120 Goal=   None    Shift=    0.000
 GapD=    0.120 DampG=1.000 DampE=0.500 DampFc=0.5000 IDamp=-1.
 Damping current iteration by 5.00D-01
 RMSDP=1.57D-03 MaxDP=1.35D-01              OVMax= 2.03D-01

 Cycle   2  Pass 1  IDiag  1:
 RMSU=  7.69D-04    CP:  9.82D-01
 E= -4069.33817188474     Delta-E=       -0.388909672216 Rises=F Damp=T
 DIIS: error= 1.27D-02 at cycle   2 NSaved=   2.
 NSaved= 2 IEnMin= 2 EnMin= -4069.33817188474     IErMin= 2 ErrMin= 1.27D-02
 ErrMax= 1.27D-02  0.00D+00 EMaxC= 1.00D-01 BMatC= 3.07D-01 BMatP= 1.69D+00
 IDIUse=3 WtCom= 8.73D-01 WtEn= 1.27D-01
 Coeff-Com: -0.213D+00 0.121D+01
 Coeff-En:   0.000D+00 0.100D+01
 Coeff:     -0.186D+00 0.119D+01
 Gap=     0.138 Goal=   None    Shift=    0.000
 RMSDP=7.65D-04 MaxDP=9.43D-02 DE=-3.89D-01 OVMax= 1.88D-01

 Cycle   3  Pass 1  IDiag  1:
 RMSU=  7.32D-04    CP:  9.68D-01  1.24D+00
 E= -4069.62791094062     Delta-E=       -0.289739055879 Rises=F Damp=F
 DIIS: error= 1.58D-02 at cycle   3 NSaved=   3.
 NSaved= 3 IEnMin= 3 EnMin= -4069.62791094062     IErMin= 2 ErrMin= 1.27D-02
 ErrMax= 1.58D-02  0.00D+00 EMaxC= 1.00D-01 BMatC= 2.02D-01 BMatP= 3.07D-01
 IDIUse=3 WtCom= 8.42D-01 WtEn= 1.58D-01
 Coeff-Com: -0.267D+00 0.652D+00 0.616D+00
 Coeff-En:   0.000D+00 0.000D+00 0.100D+01
 Coeff:     -0.225D+00 0.549D+00 0.676D+00
 Gap=     0.125 Goal=   None    Shift=    0.000
 RMSDP=5.08D-04 MaxDP=4.85D-02 DE=-2.90D-01 OVMax= 1.43D-01

 Cycle   4  Pass 1  IDiag  1:
 RMSU=  2.65D-04    CP:  9.65D-01  1.55D+00  5.06D-01
 E= -4069.76504691636     Delta-E=       -0.137135975747 Rises=F Damp=F
 DIIS: error= 7.31D-03 at cycle   4 NSaved=   4.
 NSaved= 4 IEnMin= 4 EnMin= -4069.76504691636     IErMin= 4 ErrMin= 7.31D-03
 ErrMax= 7.31D-03  0.00D+00 EMaxC= 1.00D-01 BMatC= 5.04D-02 BMatP= 2.02D-01
 IDIUse=3 WtCom= 9.27D-01 WtEn= 7.31D-02
 Coeff-Com: -0.109D+00 0.226D+00 0.409D+00 0.474D+00
 Coeff-En:   0.000D+00 0.000D+00 0.221D+00 0.779D+00
 Coeff:     -0.101D+00 0.209D+00 0.395D+00 0.497D+00
 Gap=     0.123 Goal=   None    Shift=    0.000
 RMSDP=2.00D-04 MaxDP=1.99D-02 DE=-1.37D-01 OVMax= 6.18D-02

 Cycle   5  Pass 1  IDiag  1:
 RMSU=  7.58D-05    CP:  9.64D-01  1.49D+00  6.89D-01  5.49D-01
 E= -4069.81052713153     Delta-E=       -0.045480215163 Rises=F Damp=F
 DIIS: error= 7.85D-04 at cycle   5 NSaved=   5.
 NSaved= 5 IEnMin= 5 EnMin= -4069.81052713153     IErMin= 5 ErrMin= 7.85D-04
 ErrMax= 7.85D-04  0.00D+00 EMaxC= 1.00D-01 BMatC= 1.17D-03 BMatP= 5.04D-02
 IDIUse=3 WtCom= 9.92D-01 WtEn= 7.85D-03
 Coeff-Com: -0.358D-01 0.702D-01 0.165D+00 0.249D+00 0.551D+00
 Coeff-En:   0.000D+00 0.000D+00 0.000D+00 0.000D+00 0.100D+01
 Coeff:     -0.355D-01 0.696D-01 0.164D+00 0.247D+00 0.555D+00
 Gap=     0.123 Goal=   None    Shift=    0.000
 RMSDP=4.08D-05 MaxDP=4.16D-03 DE=-4.55D-02 OVMax= 1.64D-02

 Cycle   6  Pass 1  IDiag  1:
 RMSU=  3.02D-05    CP:  9.64D-01  1.49D+00  6.81D-01  6.21D-01  7.59D-01
 E= -4069.81153569149     Delta-E=       -0.001008559964 Rises=F Damp=F
 DIIS: error= 2.18D-04 at cycle   6 NSaved=   6.
 NSaved= 6 IEnMin= 6 EnMin= -4069.81153569149     IErMin= 6 ErrMin= 2.18D-04
 ErrMax= 2.18D-04  0.00D+00 EMaxC= 1.00D-01 BMatC= 1.76D-04 BMatP= 1.17D-03
 IDIUse=3 WtCom= 9.98D-01 WtEn= 2.18D-03
 Coeff-Com:  0.231D-02-0.677D-02 0.109D-01 0.398D-01 0.306D+00 0.648D+00
 Coeff-En:   0.000D+00 0.000D+00 0.000D+00 0.000D+00 0.103D+00 0.897D+00
 Coeff:      0.230D-02-0.675D-02 0.109D-01 0.397D-01 0.306D+00 0.648D+00
 Gap=     0.123 Goal=   None    Shift=    0.000
 RMSDP=1.58D-05 MaxDP=1.23D-03 DE=-1.01D-03 OVMax= 7.24D-03

 Cycle   7  Pass 1  IDiag  1:
 RMSU=  1.07D-05    CP:  9.64D-01  1.50D+00  6.87D-01  6.21D-01  8.60D-01
                    CP:  7.49D-01
 E= -4069.81172473209     Delta-E=       -0.000189040597 Rises=F Damp=F
 DIIS: error= 8.33D-05 at cycle   7 NSaved=   7.
 NSaved= 7 IEnMin= 7 EnMin= -4069.81172473209     IErMin= 7 ErrMin= 8.33D-05
 ErrMax= 8.33D-05  0.00D+00 EMaxC= 1.00D-01 BMatC= 2.08D-05 BMatP= 1.76D-04
 IDIUse=1 WtCom= 1.00D+00 WtEn= 0.00D+00
 Coeff-Com:  0.446D-02-0.974D-02-0.898D-02-0.382D-02 0.102D+00 0.329D+00
 Coeff-Com:  0.587D+00
 Coeff:      0.446D-02-0.974D-02-0.898D-02-0.382D-02 0.102D+00 0.329D+00
 Coeff:      0.587D+00
 Gap=     0.123 Goal=   None    Shift=    0.000
 RMSDP=6.50D-06 MaxDP=1.11D-03 DE=-1.89D-04 OVMax= 3.40D-03

 Cycle   8  Pass 1  IDiag  1:
 RMSU=  4.67D-06    CP:  9.64D-01  1.50D+00  6.88D-01  6.26D-01  8.64D-01
                    CP:  8.75D-01  8.23D-01
 E= -4069.81175050239     Delta-E=       -0.000025770305 Rises=F Damp=F
 DIIS: error= 5.01D-05 at cycle   8 NSaved=   8.
 NSaved= 8 IEnMin= 8 EnMin= -4069.81175050239     IErMin= 8 ErrMin= 5.01D-05
 ErrMax= 5.01D-05  0.00D+00 EMaxC= 1.00D-01 BMatC= 4.82D-06 BMatP= 2.08D-05
 IDIUse=1 WtCom= 1.00D+00 WtEn= 0.00D+00
 Coeff-Com:  0.215D-02-0.426D-02-0.775D-02-0.121D-01-0.116D-01 0.335D-01
 Coeff-Com:  0.344D+00 0.656D+00
 Coeff:      0.215D-02-0.426D-02-0.775D-02-0.121D-01-0.116D-01 0.335D-01
 Coeff:      0.344D+00 0.656D+00
 Gap=     0.123 Goal=   None    Shift=    0.000
 RMSDP=3.27D-06 MaxDP=3.53D-04 DE=-2.58D-05 OVMax= 1.11D-03

 Cycle   9  Pass 1  IDiag  1:
 RMSU=  1.91D-06    CP:  9.64D-01  1.50D+00  6.88D-01  6.27D-01  8.81D-01
                    CP:  9.01D-01  1.02D+00  9.40D-01
 E= -4069.81175820266     Delta-E=       -0.000007700264 Rises=F Damp=F
 DIIS: error= 1.95D-05 at cycle   9 NSaved=   9.
 NSaved= 9 IEnMin= 9 EnMin= -4069.81175820266     IErMin= 9 ErrMin= 1.95D-05
 ErrMax= 1.95D-05  0.00D+00 EMaxC= 1.00D-01 BMatC= 6.87D-07 BMatP= 4.82D-06
 IDIUse=1 WtCom= 1.00D+00 WtEn= 0.00D+00
 Coeff-Com:  0.463D-03-0.768D-03-0.266D-02-0.598D-02-0.212D-01-0.386D-01
 Coeff-Com:  0.104D+00 0.326D+00 0.639D+00
 Coeff:      0.463D-03-0.768D-03-0.266D-02-0.598D-02-0.212D-01-0.386D-01
 Coeff:      0.104D+00 0.326D+00 0.639D+00
 Gap=     0.123 Goal=   None    Shift=    0.000
 RMSDP=1.41D-06 MaxDP=1.49D-04 DE=-7.70D-06 OVMax= 7.43D-04

 Cycle  10  Pass 1  IDiag  1:
 RMSU=  9.37D-07    CP:  9.64D-01  1.50D+00  6.88D-01  6.28D-01  8.84D-01
                    CP:  9.15D-01  1.07D+00  1.11D+00  1.05D+00
 E= -4069.81175978768     Delta-E=       -0.000001585024 Rises=F Damp=F
 DIIS: error= 1.02D-05 at cycle  10 NSaved=  10.
 NSaved=10 IEnMin=10 EnMin= -4069.81175978768     IErMin=10 ErrMin= 1.02D-05
 ErrMax= 1.02D-05  0.00D+00 EMaxC= 1.00D-01 BMatC= 1.71D-07 BMatP= 6.87D-07
 IDIUse=1 WtCom= 1.00D+00 WtEn= 0.00D+00
 Coeff-Com: -0.427D-03 0.894D-03 0.123D-02 0.112D-02-0.376D-02-0.310D-01
 Coeff-Com: -0.464D-01-0.764D-01 0.255D+00 0.900D+00
 Coeff:     -0.427D-03 0.894D-03 0.123D-02 0.112D-02-0.376D-02-0.310D-01
 Coeff:     -0.464D-01-0.764D-01 0.255D+00 0.900D+00
 Gap=     0.123 Goal=   None    Shift=    0.000
 RMSDP=1.22D-06 MaxDP=1.24D-04 DE=-1.59D-06 OVMax= 6.09D-04

 Cycle  11  Pass 1  IDiag  1:
 RMSU=  5.15D-07    CP:  9.64D-01  1.50D+00  6.88D-01  6.28D-01  8.86D-01
                    CP:  9.25D-01  1.11D+00  1.22D+00  1.39D+00  1.37D+00
 E= -4069.81176057448     Delta-E=       -0.000000786797 Rises=F Damp=F
 DIIS: error= 3.96D-06 at cycle  11 NSaved=  11.
 NSaved=11 IEnMin=11 EnMin= -4069.81176057448     IErMin=11 ErrMin= 3.96D-06
 ErrMax= 3.96D-06  0.00D+00 EMaxC= 1.00D-01 BMatC= 6.12D-08 BMatP= 1.71D-07
 IDIUse=1 WtCom= 1.00D+00 WtEn= 0.00D+00
 Coeff-Com: -0.327D-03 0.636D-03 0.133D-02 0.212D-02 0.441D-02-0.836D-02
 Coeff-Com: -0.435D-01-0.132D+00-0.234D-01 0.465D+00 0.734D+00
 Coeff:     -0.327D-03 0.636D-03 0.133D-02 0.212D-02 0.441D-02-0.836D-02
 Coeff:     -0.435D-01-0.132D+00-0.234D-01 0.465D+00 0.734D+00
 Gap=     0.123 Goal=   None    Shift=    0.000
 RMSDP=6.86D-07 MaxDP=5.85D-05 DE=-7.87D-07 OVMax= 3.72D-04

 Cycle  12  Pass 1  IDiag  1:
 RMSU=  2.63D-07    CP:  9.64D-01  1.50D+00  6.88D-01  6.28D-01  8.87D-01
                    CP:  9.27D-01  1.14D+00  1.28D+00  1.56D+00  1.76D+00
                    CP:  1.20D+00
 E= -4069.81176083737     Delta-E=       -0.000000262897 Rises=F Damp=F
 DIIS: error= 2.34D-06 at cycle  12 NSaved=  12.
 NSaved=12 IEnMin=12 EnMin= -4069.81176083737     IErMin=12 ErrMin= 2.34D-06
 ErrMax= 2.34D-06  0.00D+00 EMaxC= 1.00D-01 BMatC= 1.48D-08 BMatP= 6.12D-08
 IDIUse=1 WtCom= 1.00D+00 WtEn= 0.00D+00
 Coeff-Com: -0.805D-08-0.165D-04 0.179D-03 0.511D-03 0.330D-02 0.405D-02
 Coeff-Com:  0.281D-02-0.349D-01-0.680D-01-0.752D-01 0.251D+00 0.917D+00
 Coeff:     -0.805D-08-0.165D-04 0.179D-03 0.511D-03 0.330D-02 0.405D-02
 Coeff:      0.281D-02-0.349D-01-0.680D-01-0.752D-01 0.251D+00 0.917D+00
 Gap=     0.123 Goal=   None    Shift=    0.000
 RMSDP=4.37D-07 MaxDP=3.10D-05 DE=-2.63D-07 OVMax= 2.49D-04

 Cycle  13  Pass 1  IDiag  1:
 RMSU=  1.65D-07    CP:  9.64D-01  1.50D+00  6.88D-01  6.28D-01  8.87D-01
                    CP:  9.28D-01  1.14D+00  1.31D+00  1.67D+00  1.99D+00
                    CP:  1.61D+00  1.27D+00
 E= -4069.81176092942     Delta-E=       -0.000000092048 Rises=F Damp=F
 DIIS: error= 1.24D-06 at cycle  13 NSaved=  13.
 NSaved=13 IEnMin=13 EnMin= -4069.81176092942     IErMin=13 ErrMin= 1.24D-06
 ErrMax= 1.24D-06  0.00D+00 EMaxC= 1.00D-01 BMatC= 8.14D-09 BMatP= 1.48D-08
 IDIUse=1 WtCom= 1.00D+00 WtEn= 0.00D+00
 Coeff-Com:  0.120D-03-0.245D-03-0.370D-03-0.457D-03 0.574D-03 0.508D-02
 Coeff-Com:  0.197D-01 0.228D-01-0.339D-01-0.241D+00-0.156D+00 0.598D+00
 Coeff-Com:  0.786D+00
 Coeff:      0.120D-03-0.245D-03-0.370D-03-0.457D-03 0.574D-03 0.508D-02
 Coeff:      0.197D-01 0.228D-01-0.339D-01-0.241D+00-0.156D+00 0.598D+00
 Coeff:      0.786D+00
 Gap=     0.123 Goal=   None    Shift=    0.000
 RMSDP=3.40D-07 MaxDP=2.28D-05 DE=-9.20D-08 OVMax= 1.97D-04

 Cycle  14  Pass 1  IDiag  1:
 RMSU=  7.61D-08    CP:  9.64D-01  1.50D+00  6.88D-01  6.28D-01  8.88D-01
                    CP:  9.28D-01  1.15D+00  1.33D+00  1.74D+00  2.18D+00
                    CP:  1.88D+00  1.79D+00  1.09D+00
 E= -4069.81176096517     Delta-E=       -0.000000035750 Rises=F Damp=F
 DIIS: error= 6.38D-07 at cycle  14 NSaved=  14.
 NSaved=14 IEnMin=14 EnMin= -4069.81176096517     IErMin=14 ErrMin= 6.38D-07
 ErrMax= 6.38D-07  0.00D+00 EMaxC= 1.00D-01 BMatC= 1.25D-09 BMatP= 8.14D-09
 IDIUse=1 WtCom= 1.00D+00 WtEn= 0.00D+00
 Coeff-Com:  0.663D-04-0.131D-03-0.246D-03-0.387D-03-0.483D-03 0.129D-02
 Coeff-Com:  0.107D-01 0.192D-01 0.369D-02-0.997D-01-0.142D+00 0.933D-01
 Coeff-Com:  0.405D+00 0.710D+00
 Coeff:      0.663D-04-0.131D-03-0.246D-03-0.387D-03-0.483D-03 0.129D-02
 Coeff:      0.107D-01 0.192D-01 0.369D-02-0.997D-01-0.142D+00 0.933D-01
 Coeff:      0.405D+00 0.710D+00
 Gap=     0.123 Goal=   None    Shift=    0.000
 RMSDP=1.01D-07 MaxDP=6.66D-06 DE=-3.58D-08 OVMax= 5.43D-05

 Cycle  15  Pass 1  IDiag  1:
 RMSU=  3.83D-08    CP:  9.64D-01  1.50D+00  6.88D-01  6.28D-01  8.88D-01
                    CP:  9.28D-01  1.15D+00  1.34D+00  1.76D+00  2.22D+00
                    CP:  1.98D+00  1.92D+00  1.33D+00  1.03D+00
 E= -4069.81176096935     Delta-E=       -0.000000004182 Rises=F Damp=F
 DIIS: error= 3.37D-07 at cycle  15 NSaved=  15.
 NSaved=15 IEnMin=15 EnMin= -4069.81176096935     IErMin=15 ErrMin= 3.37D-07
 ErrMax= 3.37D-07  0.00D+00 EMaxC= 1.00D-01 BMatC= 2.25D-10 BMatP= 1.25D-09
 IDIUse=1 WtCom= 1.00D+00 WtEn= 0.00D+00
 Coeff-Com:  0.518D-05-0.858D-05-0.320D-04-0.809D-04-0.299D-03-0.516D-03
 Coeff-Com:  0.112D-02 0.250D-02 0.875D-02 0.185D-02-0.306D-01-0.731D-01
 Coeff-Com:  0.289D-01 0.296D+00 0.765D+00
 Coeff:      0.518D-05-0.858D-05-0.320D-04-0.809D-04-0.299D-03-0.516D-03
 Coeff:      0.112D-02 0.250D-02 0.875D-02 0.185D-02-0.306D-01-0.731D-01
 Coeff:      0.289D-01 0.296D+00 0.765D+00
 Gap=     0.123 Goal=   None    Shift=    0.000
 RMSDP=4.06D-08 MaxDP=2.70D-06 DE=-4.18D-09 OVMax= 2.69D-05

 Cycle  16  Pass 1  IDiag  1:
 RMSU=  1.87D-08    CP:  9.64D-01  1.50D+00  6.88D-01  6.28D-01  8.88D-01
                    CP:  9.28D-01  1.15D+00  1.34D+00  1.76D+00  2.24D+00
                    CP:  2.01D+00  1.98D+00  1.40D+00  1.24D+00  1.15D+00
 E= -4069.81176097001     Delta-E=       -0.000000000657 Rises=F Damp=F
 DIIS: error= 1.64D-07 at cycle  16 NSaved=  16.
 NSaved=16 IEnMin=16 EnMin= -4069.81176097001     IErMin=16 ErrMin= 1.64D-07
 ErrMax= 1.64D-07  0.00D+00 EMaxC= 1.00D-01 BMatC= 8.17D-11 BMatP= 2.25D-10
 IDIUse=1 WtCom= 1.00D+00 WtEn= 0.00D+00
 Coeff-Com: -0.142D-04 0.288D-04 0.470D-04 0.538D-04-0.268D-04-0.633D-03
 Coeff-Com: -0.198D-02-0.426D-02 0.453D-02 0.256D-01 0.207D-01-0.646D-01
 Coeff-Com: -0.831D-01-0.378D-01 0.398D+00 0.743D+00
 Coeff:     -0.142D-04 0.288D-04 0.470D-04 0.538D-04-0.268D-04-0.633D-03
 Coeff:     -0.198D-02-0.426D-02 0.453D-02 0.256D-01 0.207D-01-0.646D-01
 Coeff:     -0.831D-01-0.378D-01 0.398D+00 0.743D+00
 Gap=     0.123 Goal=   None    Shift=    0.000
 RMSDP=2.29D-08 MaxDP=1.59D-06 DE=-6.57D-10 OVMax= 1.30D-05

 Cycle  17  Pass 1  IDiag  1:
 RMSU=  1.04D-08    CP:  9.64D-01  1.50D+00  6.88D-01  6.28D-01  8.88D-01
                    CP:  9.28D-01  1.15D+00  1.34D+00  1.77D+00  2.24D+00
                    CP:  2.02D+00  2.01D+00  1.45D+00  1.34D+00  1.44D+00
                    CP:  1.25D+00
 E= -4069.81176097035     Delta-E=       -0.000000000342 Rises=F Damp=F
 DIIS: error= 9.35D-08 at cycle  17 NSaved=  17.
 NSaved=17 IEnMin=17 EnMin= -4069.81176097035     IErMin=17 ErrMin= 9.35D-08
 ErrMax= 9.35D-08  0.00D+00 EMaxC= 1.00D-01 BMatC= 1.77D-11 BMatP= 8.17D-11
 IDIUse=1 WtCom= 1.00D+00 WtEn= 0.00D+00
 Coeff-Com: -0.717D-05 0.140D-04 0.285D-04 0.424D-04 0.840D-04-0.122D-03
 Coeff-Com: -0.958D-03-0.280D-02 0.135D-03 0.918D-02 0.174D-01-0.719D-02
 Coeff-Com: -0.366D-01-0.102D+00-0.314D-01 0.293D+00 0.861D+00
 Coeff:     -0.717D-05 0.140D-04 0.285D-04 0.424D-04 0.840D-04-0.122D-03
 Coeff:     -0.958D-03-0.280D-02 0.135D-03 0.918D-02 0.174D-01-0.719D-02
 Coeff:     -0.366D-01-0.102D+00-0.314D-01 0.293D+00 0.861D+00
 Gap=     0.123 Goal=   None    Shift=    0.000
 RMSDP=1.37D-08 MaxDP=1.07D-06 DE=-3.42D-10 OVMax= 8.93D-06

 Cycle  18  Pass 1  IDiag  1:
 RMSU=  4.87D-09    CP:  9.64D-01  1.50D+00  6.88D-01  6.28D-01  8.88D-01
                    CP:  9.28D-01  1.15D+00  1.34D+00  1.77D+00  2.24D+00
                    CP:  2.02D+00  2.02D+00  1.47D+00  1.41D+00  1.61D+00
                    CP:  1.66D+00  1.39D+00
 E= -4069.81176097053     Delta-E=       -0.000000000175 Rises=F Damp=F
 DIIS: error= 5.14D-08 at cycle  18 NSaved=  18.
 NSaved=18 IEnMin=18 EnMin= -4069.81176097053     IErMin=18 ErrMin= 5.14D-08
 ErrMax= 5.14D-08  0.00D+00 EMaxC= 1.00D-01 BMatC= 6.92D-12 BMatP= 1.77D-11
 IDIUse=1 WtCom= 1.00D+00 WtEn= 0.00D+00
 Coeff-Com:  0.207D-05-0.445D-05-0.465D-05-0.181D-05 0.591D-04 0.184D-03
 Coeff-Com:  0.407D-03 0.233D-03-0.129D-02-0.622D-02-0.162D-03 0.202D-01
 Coeff-Com:  0.186D-01-0.324D-01-0.163D+00-0.193D+00 0.349D+00 0.101D+01
 Coeff:      0.207D-05-0.445D-05-0.465D-05-0.181D-05 0.591D-04 0.184D-03
 Coeff:      0.407D-03 0.233D-03-0.129D-02-0.622D-02-0.162D-03 0.202D-01
 Coeff:      0.186D-01-0.324D-01-0.163D+00-0.193D+00 0.349D+00 0.101D+01
 Gap=     0.123 Goal=   None    Shift=    0.000
 RMSDP=1.18D-08 MaxDP=8.03D-07 DE=-1.75D-10 OVMax= 6.80D-06

 Cycle  19  Pass 1  IDiag  1:
 RMSU=  2.79D-09    CP:  9.64D-01  1.50D+00  6.88D-01  6.28D-01  8.88D-01
                    CP:  9.28D-01  1.15D+00  1.34D+00  1.77D+00  2.24D+00
                    CP:  2.03D+00  2.02D+00  1.48D+00  1.46D+00  1.77D+00
                    CP:  1.99D+00  1.94D+00  1.38D+00
 E= -4069.81176097037     Delta-E=        0.000000000158 Rises=F Damp=F
 DIIS: error= 3.32D-08 at cycle  19 NSaved=  19.
 NSaved=19 IEnMin=18 EnMin= -4069.81176097053     IErMin=19 ErrMin= 3.32D-08
 ErrMax= 3.32D-08  0.00D+00 EMaxC= 1.00D-01 BMatC= 1.40D-12 BMatP= 6.92D-12
 IDIUse=1 WtCom= 1.00D+00 WtEn= 0.00D+00
 Coeff-Com:  0.286D-05-0.577D-05-0.980D-05-0.123D-04 0.107D-04 0.118D-03
 Coeff-Com:  0.471D-03 0.788D-03-0.587D-03-0.589D-02-0.478D-02 0.119D-01
 Coeff-Com:  0.199D-01 0.114D-01-0.677D-01-0.176D+00-0.333D-01 0.487D+00
 Coeff-Com:  0.757D+00
 Coeff:      0.286D-05-0.577D-05-0.980D-05-0.123D-04 0.107D-04 0.118D-03
 Coeff:      0.471D-03 0.788D-03-0.587D-03-0.589D-02-0.478D-02 0.119D-01
 Coeff:      0.199D-01 0.114D-01-0.677D-01-0.176D+00-0.333D-01 0.487D+00
 Coeff:      0.757D+00
 Gap=     0.123 Goal=   None    Shift=    0.000
 RMSDP=4.48D-09 MaxDP=3.24D-07 DE= 1.58D-10 OVMax= 2.93D-06

 SCF Done:  E(RCAM-B3LYP) =  -4069.81176097     A.U. after   19 cycles
            NFock= 19  Conv=0.45D-08     -V/T= 2.0102
 KE= 4.028802032705D+03 PE=-3.409457779135D+04 EE= 1.368908944744D+04
 Leave Link  502 at Sat Sep  4 16:39:39 2021, MaxMem= 23488102400 cpu:           11365.0 elap:             497.7
 (Enter /sw/apps/gaussian-16.0/g16/l801.exe)
 DoSCS=F DFT=T ScalE2(SS,OS)=  1.000000  1.000000
 ExpMin= 3.36D-02 ExpMax= 4.95D+03 ExpMxC= 7.45D+02 IAcc=3 IRadAn=         5 AccDes= 0.00D+00
 HarFok:  IExCor=  205 AccDes= 0.00D+00 IRadAn=         5 IDoV=-2 UseB2=F ITyADJ=14
 ICtDFT= 12500011 ScaDFX=  1.000000  1.000000  1.000000  1.000000
 GSVD:  LWork=       -9588 too small for GESVD, short by       45590 words or       45590 for optimal perf.
 Largest valence mixing into a core orbital is  2.03D-04
 Largest core mixing into a valence orbital is  5.24D-05
 Range of M.O.s used for correlation:    95  1572
 NBasis=  1572 NAE=   312 NBE=   312 NFC=    94 NFV=     0
 NROrb=   1478 NOA=   218 NOB=   218 NVA=  1260 NVB=  1260
 Leave Link  801 at Sat Sep  4 16:39:39 2021, MaxMem= 23488102400 cpu:               8.1 elap:               0.4
 (Enter /sw/apps/gaussian-16.0/g16/l914.exe)
 RHF ground state
 Two-electron integrals replicated using symmetry.
 MDV= 23488102400 DFT=T DoStab=F Mixed=T DoRPA=T DoScal=F NonHer=T
 Making orbital integer symmetry assigments:
 Orbital symmetries:
       Occupied  (A) (A) (A) (A) (A) (A) (A) (A) (A) (A) (A) (A)
                 (A) (A) (A) (A) (A) (A) (A) (A) (A) (A) (A) (A)
                 (A) (A) (A) (A) (A) (A) (A) (A) (A) (A) (A) (A)
                 (A) (A) (A) (A) (A) (A) (A) (A) (A) (A) (A) (A)
                 (A) (A) (A) (A) (A) (A) (A) (A) (A) (A) (A) (A)
                 (A) (A) (A) (A) (A) (A) (A) (A) (A) (A) (A) (A)
                 (A) (A) (A) (A) (A) (A) (A) (A) (A) (A) (A) (A)
                 (A) (A) (A) (A) (A) (A) (A) (A) (A) (A) (A) (A)
                 (A) (A) (A) (A) (A) (A) (A) (A) (A) (A) (A) (A)
                 (A) (A) (A) (A) (A) (A) (A) (A) (A) (A) (A) (A)
                 (A) (A) (A) (A) (A) (A) (A) (A) (A) (A) (A) (A)
                 (A) (A) (A) (A) (A) (A) (A) (A) (A) (A) (A) (A)
                 (A) (A) (A) (A) (A) (A) (A) (A) (A) (A) (A) (A)
                 (A) (A) (A) (A) (A) (A) (A) (A) (A) (A) (A) (A)
                 (A) (A) (A) (A) (A) (A) (A) (A) (A) (A) (A) (A)
                 (A) (A) (A) (A) (A) (A) (A) (A) (A) (A) (A) (A)
                 (A) (A) (A) (A) (A) (A) (A) (A) (A) (A) (A) (A)
                 (A) (A) (A) (A) (A) (A) (A) (A) (A) (A) (A) (A)
                 (A) (A) (A) (A) (A) (A) (A) (A) (A) (A) (A) (A)
                 (A) (A) (A) (A) (A) (A) (A) (A) (A) (A) (A) (A)
                 (A) (A) (A) (A) (A) (A) (A) (A) (A) (A) (A) (A)
                 (A) (A) (A) (A) (A) (A) (A) (A) (A) (A) (A) (A)
                 (A) (A) (A) (A) (A) (A) (A) (A) (A) (A) (A) (A)
                 (A) (A) (A) (A) (A) (A) (A) (A) (A) (A) (A) (A)
                 (A) (A) (A) (A) (A) (A) (A) (A) (A) (A) (A) (A)
                 (A) (A) (A) (A) (A) (A) (A) (A) (A) (A) (A) (A)
       Virtual   (A) (A) (A) (A) (A) (A) (A) (A) (A) (A) (A) (A)
                 (A) (A) (A) (A) (A) (A) (A) (A) (A) (A) (A) (A)
                 (A) (A) (A) (A) (A) (A) (A) (A) (A) (A) (A) (A)
                 (A) (A) (A) (A) (A) (A) (A) (A) (A) (A) (A) (A)
                 (A) (A) (A) (A) (A) (A) (A) (A) (A) (A) (A) (A)
                 (A) (A) (A) (A) (A) (A) (A) (A) (A) (A) (A) (A)
                 (A) (A) (A) (A) (A) (A) (A) (A) (A) (A) (A) (A)
                 (A) (A) (A) (A) (A) (A) (A) (A) (A) (A) (A) (A)
                 (A) (A) (A) (A) (A) (A) (A) (A) (A) (A) (A) (A)
                 (A) (A) (A) (A) (A) (A) (A) (A) (A) (A) (A) (A)
                 (A) (A) (A) (A) (A) (A) (A) (A) (A) (A) (A) (A)
                 (A) (A) (A) (A) (A) (A) (A) (A) (A) (A) (A) (A)
                 (A) (A) (A) (A) (A) (A) (A) (A) (A) (A) (A) (A)
                 (A) (A) (A) (A) (A) (A) (A) (A) (A) (A) (A) (A)
                 (A) (A) (A) (A) (A) (A) (A) (A) (A) (A) (A) (A)
                 (A) (A) (A) (A) (A) (A) (A) (A) (A) (A) (A) (A)
                 (A) (A) (A) (A) (A) (A) (A) (A) (A) (A) (A) (A)
                 (A) (A) (A) (A) (A) (A) (A) (A) (A) (A) (A) (A)
                 (A) (A) (A) (A) (A) (A) (A) (A) (A) (A) (A) (A)
                 (A) (A) (A) (A) (A) (A) (A) (A) (A) (A) (A) (A)
                 (A) (A) (A) (A) (A) (A) (A) (A) (A) (A) (A) (A)
                 (A) (A) (A) (A) (A) (A) (A) (A) (A) (A) (A) (A)
                 (A) (A) (A) (A) (A) (A) (A) (A) (A) (A) (A) (A)
                 (A) (A) (A) (A) (A) (A) (A) (A) (A) (A) (A) (A)
                 (A) (A) (A) (A) (A) (A) (A) (A) (A) (A) (A) (A)
                 (A) (A) (A) (A) (A) (A) (A) (A) (A) (A) (A) (A)
                 (A) (A) (A) (A) (A) (A) (A) (A) (A) (A) (A) (A)
                 (A) (A) (A) (A) (A) (A) (A) (A) (A) (A) (A) (A)
                 (A) (A) (A) (A) (A) (A) (A) (A) (A) (A) (A) (A)
                 (A) (A) (A) (A) (A) (A) (A) (A) (A) (A) (A) (A)
                 (A) (A) (A) (A) (A) (A) (A) (A) (A) (A) (A) (A)
                 (A) (A) (A) (A) (A) (A) (A) (A) (A) (A) (A) (A)
                 (A) (A) (A) (A) (A) (A) (A) (A) (A) (A) (A) (A)
                 (A) (A) (A) (A) (A) (A) (A) (A) (A) (A) (A) (A)
                 (A) (A) (A) (A) (A) (A) (A) (A) (A) (A) (A) (A)
                 (A) (A) (A) (A) (A) (A) (A) (A) (A) (A) (A) (A)
                 (A) (A) (A) (A) (A) (A) (A) (A) (A) (A) (A) (A)
                 (A) (A) (A) (A) (A) (A) (A) (A) (A) (A) (A) (A)
                 (A) (A) (A) (A) (A) (A) (A) (A) (A) (A) (A) (A)
                 (A) (A) (A) (A) (A) (A) (A) (A) (A) (A) (A) (A)
                 (A) (A) (A) (A) (A) (A) (A) (A) (A) (A) (A) (A)
                 (A) (A) (A) (A) (A) (A) (A) (A) (A) (A) (A) (A)
                 (A) (A) (A) (A) (A) (A) (A) (A) (A) (A) (A) (A)
                 (A) (A) (A) (A) (A) (A) (A) (A) (A) (A) (A) (A)
                 (A) (A) (A) (A) (A) (A) (A) (A) (A) (A) (A) (A)
                 (A) (A) (A) (A) (A) (A) (A) (A) (A) (A) (A) (A)
                 (A) (A) (A) (A) (A) (A) (A) (A) (A) (A) (A) (A)
                 (A) (A) (A) (A) (A) (A) (A) (A) (A) (A) (A) (A)
                 (A) (A) (A) (A) (A) (A) (A) (A) (A) (A) (A) (A)
                 (A) (A) (A) (A) (A) (A) (A) (A) (A) (A) (A) (A)
                 (A) (A) (A) (A) (A) (A) (A) (A) (A) (A) (A) (A)
                 (A) (A) (A) (A) (A) (A) (A) (A) (A) (A) (A) (A)
                 (A) (A) (A) (A) (A) (A) (A) (A) (A) (A) (A) (A)
                 (A) (A) (A) (A) (A) (A) (A) (A) (A) (A) (A) (A)
                 (A) (A) (A) (A) (A) (A) (A) (A) (A) (A) (A) (A)
                 (A) (A) (A) (A) (A) (A) (A) (A) (A) (A) (A) (A)
                 (A) (A) (A) (A) (A) (A) (A) (A) (A) (A) (A) (A)
                 (A) (A) (A) (A) (A) (A) (A) (A) (A) (A) (A) (A)
                 (A) (A) (A) (A) (A) (A) (A) (A) (A) (A) (A) (A)
                 (A) (A) (A) (A) (A) (A) (A) (A) (A) (A) (A) (A)
                 (A) (A) (A) (A) (A) (A) (A) (A) (A) (A) (A) (A)
                 (A) (A) (A) (A) (A) (A) (A) (A) (A) (A) (A) (A)
                 (A) (A) (A) (A) (A) (A) (A) (A) (A) (A) (A) (A)
                 (A) (A) (A) (A) (A) (A) (A) (A) (A) (A) (A) (A)
                 (A) (A) (A) (A) (A) (A) (A) (A) (A) (A) (A) (A)
                 (A) (A) (A) (A) (A) (A) (A) (A) (A) (A) (A) (A)
                 (A) (A) (A) (A) (A) (A) (A) (A) (A) (A) (A) (A)
                 (A) (A) (A) (A) (A) (A) (A) (A) (A) (A) (A) (A)
                 (A) (A) (A) (A) (A) (A) (A) (A) (A) (A) (A) (A)
                 (A) (A) (A) (A) (A) (A) (A) (A) (A) (A) (A) (A)
                 (A) (A) (A) (A) (A) (A) (A) (A) (A) (A) (A) (A)
                 (A) (A) (A) (A) (A) (A) (A) (A) (A) (A) (A) (A)
                 (A) (A) (A) (A) (A) (A) (A) (A) (A) (A) (A) (A)
                 (A) (A) (A) (A) (A) (A) (A) (A) (A) (A) (A) (A)
                 (A) (A) (A) (A) (A) (A) (A) (A) (A) (A) (A) (A)
                 (A) (A) (A) (A) (A) (A) (A) (A) (A) (A) (A) (A)
                 (A) (A) (A) (A) (A) (A) (A) (A) (A) (A) (A) (A)
                 (A) (A) (A) (A) (A) (A) (A) (A) (A) (A) (A) (A)
                 (A) (A) (A) (A) (A) (A) (A) (A) (A) (A) (A) (A)
                 (A) (A) (A) (A) (A) (A) (A) (A) (A) (A) (A) (A)
                 (A) (A) (A) (A) (A) (A) (A) (A) (A) (A) (A) (A)
                 (A) (A) (A) (A) (A) (A) (A) (A) (A) (A) (A) (A)
                 (A) (A) (A) (A) (A) (A) (A) (A) (A) (A) (A) (A)
                 (A) (A) (A) (A) (A) (A) (A) (A) (A) (A) (A) (A)
                 (A) (A) (A) (A) (A) (A) (A) (A) (A) (A) (A) (A)
                 (A) (A) (A) (A) (A) (A) (A) (A) (A) (A) (A) (A)
                 (A) (A) (A) (A) (A) (A) (A) (A) (A) (A) (A) (A)
                 (A) (A) (A) (A) (A) (A) (A) (A) (A) (A) (A) (A)
                 (A) (A) (A) (A) (A) (A) (A) (A) (A) (A) (A) (A)
                 (A) (A) (A) (A) (A) (A) (A) (A) (A) (A) (A) (A)
                 (A) (A) (A) (A) (A) (A) (A) (A) (A) (A) (A) (A)
                 (A) (A) (A) (A) (A) (A) (A) (A) (A) (A) (A) (A)
                 (A) (A) (A) (A) (A) (A) (A) (A) (A) (A) (A) (A)
                 (A) (A) (A) (A) (A) (A) (A) (A) (A) (A) (A) (A)
                 (A) (A) (A) (A) (A) (A) (A) (A) (A) (A) (A) (A)
                 (A) (A) (A) (A) (A) (A) (A) (A) (A) (A) (A) (A)
                 (A) (A) (A) (A) (A) (A) (A) (A) (A) (A) (A) (A)
                 (A) (A) (A) (A) (A) (A) (A) (A) (A) (A) (A) (A)
                 (A) (A) (A) (A) (A) (A) (A) (A) (A) (A) (A) (A)
                 (A) (A) (A) (A) (A) (A) (A) (A) (A) (A) (A) (A)
                 (A) (A) (A) (A) (A) (A) (A) (A) (A) (A) (A) (A)
                 (A) (A) (A) (A) (A) (A) (A) (A) (A) (A) (A) (A)
                 (A) (A) (A) (A) (A) (A) (A) (A) (A) (A) (A) (A)
                 (A) (A) (A) (A) (A) (A) (A) (A) (A) (A) (A) (A)
                 (A) (A) (A) (A) (A) (A) (A) (A) (A) (A) (A) (A)
    20 initial guesses have been made.
 Convergence on wavefunction:    0.001000000000000
 Davidson Disk Diagonalization:  ConvIn= 1.00D-03 SkipCon=T Conv= 1.00D-03.
 Max sub-space:  2000 roots to seek:    20 dimension of matrix:       549360
 Iteration     1 Dimension    20 NMult     0 NNew     20
 CISAX will form    20 AO SS matrices at one time.
 NMat=    20 NSing=    20 JSym2X= 0.
 FoFJK:  IHMeth= 1 ICntrl=       0 DoSepK=T KAlg= 0 I1Cent=           0 FoldK=F
 IRaf=         1 NMat=      40 IRICut=       1 DoRegI=T DoRafI=F ISym2E= 0 IDoP0=3 IntGTp=3.
 FoFCou: FMM=T IPFlag=           0 FMFlag=      100000 FMFlg1=        2001
         NFxFlg=           0 DoJE=F BraDBF=F KetDBF=F FulRan=T
         wScrn=  0.000000 ICntrl=       500 IOpCl=  0 I1Cent=           0 NGrid=           0
         NMat0=   20 NMatS0=     20 NMatT0=    0 NMatD0=   20 NMtDS0=    0 NMtDT0=    0
 Symmetry not used in FoFCou.
 FMM levels:  10  Number of levels for PrismC:   9
 New state      1 was old state      8
 New state      2 was old state      5
 New state      3 was old state      1
 New state      5 was old state      2
 Excitation Energies [eV] at current iteration:
 Root      1 :     2.614349701404504
 Root      2 :     2.619334207283968
 Root      3 :     2.680339124761146
 Root      4 :     2.690271972234289
 Root      5 :     3.065861568227747
 Root      6 :     3.067235024839877
 Root      7 :     3.628509635723485
 Root      8 :     3.669121748983538
 Root      9 :     3.735927817535567
 Root     10 :     3.759299330362450
 Root     11 :     3.861034292744332
 Root     12 :     3.869174882754845
 Root     13 :     4.303152399582093
 Root     14 :     4.306762311262482
 Root     15 :     4.978133109094246
 Root     16 :     5.000176378080140
 Root     17 :     5.272002500241459
 Root     18 :     5.294338090977273
 Root     19 :     5.304263396850844
 Root     20 :     5.328579274567634
 Iteration     2 Dimension    30 NMult    20 NNew     10
 CISAX will form    10 AO SS matrices at one time.
 NMat=    10 NSing=    10 JSym2X= 0.
 New state      1 was old state      3
 Root      1 not converged, maximum delta is    0.187233699564201
 New state      2 was old state      4
 Root      2 not converged, maximum delta is    0.188619122216625
 New state      3 was old state      2
 Root      3 not converged, maximum delta is    0.075673866878951
 New state      4 was old state      1
 Root      4 not converged, maximum delta is    0.089634243349368
 Root      5 has converged.
 Excitation Energies [eV] at current iteration:
 Root      1 :     1.801326746884236   Change is   -0.879012377876910
 Root      2 :     1.807418741167966   Change is   -0.882853231066323
 Root      3 :     2.235844133348065   Change is   -0.383490073935903
 Root      4 :     2.239084742756929   Change is   -0.375264958647575
 Root      5 :     3.065855380162308   Change is   -0.000006188065439
 Iteration     3 Dimension    38 NMult    30 NNew      8
 CISAX will form     8 AO SS matrices at one time.
 NMat=     8 NSing=     8 JSym2X= 0.
 Root      1 not converged, maximum delta is    0.069397322108261
 Root      2 not converged, maximum delta is    0.070565532899600
 Root      3 not converged, maximum delta is    0.044057037342018
 Root      4 not converged, maximum delta is    0.042564983430786
 Root      5 has converged.
 Excitation Energies [eV] at current iteration:
 Root      1 :     1.694082256924274   Change is   -0.107244489959961
 Root      2 :     1.699030187405718   Change is   -0.108388553762247
 Root      3 :     2.194363372727675   Change is   -0.041480760620391
 Root      4 :     2.200216262456067   Change is   -0.038868480300862
 Root      5 :     3.065855380162254   Change is   -0.000000000000054
 Iteration     4 Dimension    46 NMult    38 NNew      8
 CISAX will form     8 AO SS matrices at one time.
 NMat=     8 NSing=     8 JSym2X= 0.
 Root      1 not converged, maximum delta is    0.013033543554497
 Root      2 not converged, maximum delta is    0.013292680047242
 Root      3 not converged, maximum delta is    0.009745947616928
 Root      4 not converged, maximum delta is    0.008896859440610
 Root      5 has converged.
 Excitation Energies [eV] at current iteration:
 Root      1 :     1.677369307541960   Change is   -0.016712949382315
 Root      2 :     1.682150841046751   Change is   -0.016879346358967
 Root      3 :     2.187057691524418   Change is   -0.007305681203256
 Root      4 :     2.193442490630653   Change is   -0.006773771825414
 Root      5 :     3.065855380162308   Change is    0.000000000000054
 Iteration     5 Dimension    54 NMult    46 NNew      8
 CISAX will form     8 AO SS matrices at one time.
 NMat=     8 NSing=     8 JSym2X= 0.
 Root      1 not converged, maximum delta is    0.002166140040682
 Root      2 not converged, maximum delta is    0.002168993304300
 Root      3 not converged, maximum delta is    0.002500947180383
 Root      4 not converged, maximum delta is    0.002384937458914
 Root      5 has converged.
 Excitation Energies [eV] at current iteration:
 Root      1 :     1.675591127201667   Change is   -0.001778180340293
 Root      2 :     1.680377902507161   Change is   -0.001772938539591
 Root      3 :     2.186211289411123   Change is   -0.000846402113295
 Root      4 :     2.192666683965814   Change is   -0.000775806664839
 Root      5 :     3.065855380162227   Change is   -0.000000000000080
 Iteration     6 Dimension    62 NMult    54 NNew      8
 CISAX will form     8 AO SS matrices at one time.
 NMat=     8 NSing=     8 JSym2X= 0.
 Root      1 not converged, maximum delta is    0.001356736765843
 Root      2 not converged, maximum delta is    0.001377696007615
 Root      3 not converged, maximum delta is    0.001070876772510
 Root      4 not converged, maximum delta is    0.001013629400947
 Root      5 has converged.
 Excitation Energies [eV] at current iteration:
 Root      1 :     1.675337374001999   Change is   -0.000253753199667
 Root      2 :     1.680122825129492   Change is   -0.000255077377669
 Root      3 :     2.186082972287460   Change is   -0.000128317123664
 Root      4 :     2.192548943691603   Change is   -0.000117740274211
 Root      5 :     3.065855380162281   Change is    0.000000000000054
 Iteration     7 Dimension    70 NMult    62 NNew      8
 CISAX will form     8 AO SS matrices at one time.
 NMat=     8 NSing=     8 JSym2X= 0.
 Root      1 has converged.
 Root      2 has converged.
 Root      3 has converged.
 Root      4 has converged.
 Root      5 has converged.
 Excitation Energies [eV] at current iteration:
 Root      1 :     1.675313138768736   Change is   -0.000024235233263
 Root      2 :     1.680098995088888   Change is   -0.000023830040604
[...]
 Alpha virt. eigenvalues --    1.84481   1.84488   1.84742   1.84848   1.85080
 Alpha virt. eigenvalues --    1.85140   1.85301   1.85312   1.85442   1.85520
 Alpha virt. eigenvalues --    1.85855   1.85905   1.86337   1.86398   1.86593
 Alpha virt. eigenvalues --    1.86606   1.86779   1.86821   1.86998   1.87076
 Alpha virt. eigenvalues --    1.87437   1.87482   1.87717   1.87726   1.87905
 Alpha virt. eigenvalues --    1.87968   1.88077   1.88132   1.88527   1.88573
 Alpha virt. eigenvalues --    1.88859   1.88893   1.89027   1.89164   1.89613
 Alpha virt. eigenvalues --    1.89663   1.89783   1.89831   1.90143   1.90156
 Alpha virt. eigenvalues --    1.90789   1.90848   1.91380   1.91386   1.91477
 Alpha virt. eigenvalues --    1.91545   1.92137   1.92191   1.92614   1.92662
 Alpha virt. eigenvalues --    1.93019   1.93103   1.93375   1.93455   1.94262
 Alpha virt. eigenvalues --    1.94320   1.94726   1.94768   1.95513   1.95545
 Alpha virt. eigenvalues --    1.95764   1.95767   1.96001   1.96032   1.96126
 Alpha virt. eigenvalues --    1.96190   1.96435   1.96632   1.96889   1.96936
 Alpha virt. eigenvalues --    1.97487   1.97495   1.97755   1.97873   1.98120
 Alpha virt. eigenvalues --    1.98206   1.98302   1.98711   1.99024   1.99172
 Alpha virt. eigenvalues --    1.99858   1.99884   2.00678   2.00697   2.01033
 Alpha virt. eigenvalues --    2.01048   2.01459   2.01516   2.01559   2.01710
 Alpha virt. eigenvalues --    2.01755   2.01776   2.02662   2.02822   2.03093
 Alpha virt. eigenvalues --    2.03272   2.03331   2.03441   2.03473   2.03520
 Alpha virt. eigenvalues --    2.03978   2.04072   2.04928   2.04995   2.05551
 Alpha virt. eigenvalues --    2.05581   2.06116   2.06238   2.06939   2.06985
 Alpha virt. eigenvalues --    2.07221   2.07299   2.08504   2.08623   2.08955
 Alpha virt. eigenvalues --    2.09018   2.09563   2.09625   2.10816   2.10985
 Alpha virt. eigenvalues --    2.11219   2.11358   2.11483   2.11574   2.11764
 Alpha virt. eigenvalues --    2.11816   2.12416   2.12501   2.12751   2.12820
 Alpha virt. eigenvalues --    2.12841   2.12871   2.13581   2.13801   2.14174
 Alpha virt. eigenvalues --    2.14202   2.15356   2.15372   2.15961   2.16031
 Alpha virt. eigenvalues --    2.16542   2.16559   2.16791   2.17123   2.17452
 Alpha virt. eigenvalues --    2.17599   2.17741   2.17883   2.17953   2.18106
 Alpha virt. eigenvalues --    2.18360   2.18622   2.18903   2.19184   2.19676
 Alpha virt. eigenvalues --    2.19768   2.20074   2.20192   2.20247   2.20387
 Alpha virt. eigenvalues --    2.21122   2.21187   2.21706   2.21713   2.21780
 Alpha virt. eigenvalues --    2.21824   2.22650   2.22716   2.23290   2.23350
 Alpha virt. eigenvalues --    2.24367   2.24430   2.24953   2.24995   2.26333
 Alpha virt. eigenvalues --    2.26388   2.26815   2.26956   2.27137   2.27151
 Alpha virt. eigenvalues --    2.28172   2.28262   2.29303   2.29384   2.29769
 Alpha virt. eigenvalues --    2.29826   2.30489   2.30569   2.30774   2.31117
 Alpha virt. eigenvalues --    2.31148   2.31215   2.32156   2.32187   2.33169
 Alpha virt. eigenvalues --    2.33181   2.33430   2.33496   2.34088   2.34175
 Alpha virt. eigenvalues --    2.35246   2.35404   2.35831   2.35855   2.36279
 Alpha virt. eigenvalues --    2.36388   2.36395   2.36658   2.37623   2.37694
 Alpha virt. eigenvalues --    2.38292   2.38327   2.38728   2.38890   2.39613
 Alpha virt. eigenvalues --    2.39645   2.40212   2.40216   2.40519   2.40773
 Alpha virt. eigenvalues --    2.41157   2.41302   2.41639   2.41721   2.42073
 Alpha virt. eigenvalues --    2.42073   2.42766   2.42978   2.43015   2.43566
 Alpha virt. eigenvalues --    2.43920   2.44202   2.44748   2.44764   2.44932
 Alpha virt. eigenvalues --    2.44937   2.45514   2.45581   2.46227   2.46335
 Alpha virt. eigenvalues --    2.46438   2.46511   2.46741   2.46832   2.47287
 Alpha virt. eigenvalues --    2.47319   2.47747   2.47827   2.49334   2.49344
 Alpha virt. eigenvalues --    2.49833   2.50102   2.50396   2.50583   2.51153
 Alpha virt. eigenvalues --    2.51207   2.51551   2.51918   2.52336   2.52471
 Alpha virt. eigenvalues --    2.52841   2.53102   2.53908   2.53951   2.54182
 Alpha virt. eigenvalues --    2.54222   2.54745   2.54821   2.55552   2.55604
 Alpha virt. eigenvalues --    2.57896   2.58015   2.58676   2.58840   2.60237
 Alpha virt. eigenvalues --    2.60238   2.60644   2.60859   2.61743   2.61756
 Alpha virt. eigenvalues --    2.62365   2.62564   2.62988   2.63060   2.63967
 Alpha virt. eigenvalues --    2.64153   2.64277   2.64360   2.65032   2.65111
 Alpha virt. eigenvalues --    2.65794   2.65817   2.66753   2.66810   2.66941
 Alpha virt. eigenvalues --    2.66989   2.67913   2.67940   2.68751   2.68889
 Alpha virt. eigenvalues --    2.68964   2.69054   2.69422   2.69525   2.70029
 Alpha virt. eigenvalues --    2.70069   2.70998   2.71011   2.71824   2.72085
 Alpha virt. eigenvalues --    2.72423   2.72665   2.72684   2.72858   2.73216
 Alpha virt. eigenvalues --    2.73307   2.73399   2.73562   2.74436   2.74542
 Alpha virt. eigenvalues --    2.74983   2.75006   2.76448   2.76622   2.76993
 Alpha virt. eigenvalues --    2.77263   2.77487   2.77532   2.78221   2.78222
 Alpha virt. eigenvalues --    2.78616   2.78760   2.79082   2.79165   2.80190
 Alpha virt. eigenvalues --    2.80375   2.80615   2.80619   2.81076   2.81146
 Alpha virt. eigenvalues --    2.81914   2.81964   2.82259   2.82372   2.83771
 Alpha virt. eigenvalues --    2.83782   2.83798   2.83830   2.84451   2.84576
 Alpha virt. eigenvalues --    2.84809   2.84914   2.85616   2.85698   2.86583
 Alpha virt. eigenvalues --    2.87027   2.87098   2.87637   2.88160   2.88186
 Alpha virt. eigenvalues --    2.88539   2.88539   2.88794   2.88965   2.90527
 Alpha virt. eigenvalues --    2.90581   2.90990   2.91219   2.93185   2.93243
 Alpha virt. eigenvalues --    2.93692   2.94230   2.94494   2.94588   2.95394
 Alpha virt. eigenvalues --    2.95397   2.95763   2.96232   2.96295   2.96471
 Alpha virt. eigenvalues --    2.96794   2.97207   2.97846   2.97952   2.98238
 Alpha virt. eigenvalues --    2.98278   2.98396   2.98493   2.98632   2.98700
 Alpha virt. eigenvalues --    2.98842   2.98914   2.99617   2.99720   2.99938
 Alpha virt. eigenvalues --    3.00061   3.00250   3.00256   3.00491   3.00913
 Alpha virt. eigenvalues --    3.01822   3.02020   3.02036   3.02063   3.02743
 Alpha virt. eigenvalues --    3.02763   3.03008   3.03236   3.03358   3.03629
 Alpha virt. eigenvalues --    3.03973   3.04201   3.04351   3.04481   3.04578
 Alpha virt. eigenvalues --    3.04648   3.05271   3.05327   3.06084   3.06144
 Alpha virt. eigenvalues --    3.06834   3.06856   3.07841   3.08176   3.09276
 Alpha virt. eigenvalues --    3.09432   3.09723   3.10352   3.10473   3.10657
 Alpha virt. eigenvalues --    3.11362   3.11399   3.11818   3.11973   3.12208
 Alpha virt. eigenvalues --    3.12223   3.13313   3.13568   3.13607   3.13672
 Alpha virt. eigenvalues --    3.14123   3.14394   3.15907   3.15954   3.17295
 Alpha virt. eigenvalues --    3.17437   3.17797   3.18110   3.18950   3.19159
 Alpha virt. eigenvalues --    3.22337   3.22516   3.23979   3.24356   3.24707
 Alpha virt. eigenvalues --    3.25111   3.26537   3.26574   3.27312   3.27654
 Alpha virt. eigenvalues --    3.29132   3.29141   3.31296   3.31557   3.33102
 Alpha virt. eigenvalues --    3.33451   3.40181   3.40662   3.42735   3.42850
 Alpha virt. eigenvalues --    3.48615   3.48693   3.50056   3.50199   3.50754
 Alpha virt. eigenvalues --    3.51508   3.56584   3.56922   3.59134   3.59257
 Alpha virt. eigenvalues --    3.62433   3.62871   3.66033   3.66220   3.67218
 Alpha virt. eigenvalues --    3.67462   3.73304   3.73940   3.76090   3.76598
          Condensed to atoms (all electrons):
 Mulliken charges:
               1
     1  Mg   0.838724
     2  C   -0.002974
     3  C   -0.094132
     4  C   -0.045884
     5  C   -0.063954
     6  N   -0.256773
     7  C   -0.052466
     8  C   -0.014014
     9  C   -0.086993
    10  C    0.046309
    11  C    0.104811
    12  C    0.053480
    13  C   -0.071805
    14  H    0.036105
    15  N   -0.433144
    16  C    0.168430
    17  C   -0.177170
    18  C   -0.004001
    19  C    0.148716
    20  C    0.110184
    21  C    0.012277
    22  O   -0.249617
    23  C    0.062474
    24  N   -0.341161
    25  C    0.041259
    26  C   -0.028173
    27  C   -0.024001
    28  C    0.074861
    29  C    0.076178
    30  C    0.035137
    31  C   -0.004512
    32  N   -0.310467
    33  C    0.080415
    34  C   -0.169702
    35  C    0.008377
    36  C    0.083001
    37  C    0.127308
    38  C    0.046115
    39  O   -0.188418
    40  C   -0.005335
    41  C    0.212872
    42  O   -0.257101
    43  O   -0.304791
    44  C    0.157684
    45  H   -0.017615
    46  H   -0.016834
    47  H   -0.041472
    48  H    0.000940
    49  H   -0.004050
    50  H    0.025480
    51  H    0.016455
    52  H    0.016649
    53  H    0.011191
    54  H    0.044125
    55  H    0.017881
    56  H    0.017934
    57  H    0.005863
    58  H    0.026820
    59  H    0.039526
    60  H    0.037345
    61  H    0.035646
    62  H    0.031485
    63  H    0.016556
    64  H    0.009472
    65  H    0.023213
    66  H    0.012540
    67  H    0.004760
    68  H    0.006375
    69  H    0.004747
    70  H    0.008774
    71  H    0.018165
    72  H    0.028974
    73  H    0.047592
    74  H    0.009128
    75  H    0.046017
    76  H    0.035154
    77  H    0.042959
    78  H    0.046385
    79  H    0.053691
    80  Mg   0.837904
    81  C   -0.016818
    82  C   -0.087792
    83  C   -0.045528
    84  C   -0.064859
    85  N   -0.254594
    86  C   -0.049811
    87  C   -0.015108
    88  C   -0.090504
    89  C    0.045765
    90  C    0.114371
    91  C    0.062531
    92  C   -0.077907
    93  H    0.034902
    94  N   -0.423500
    95  C    0.162912
    96  C   -0.174621
    97  C   -0.007830
    98  C    0.152125
    99  C    0.099370
   100  C    0.015582
   101  O   -0.253184
   102  C    0.061188
   103  N   -0.350059
   104  C    0.037548
   105  C   -0.019865
   106  C   -0.034787
   107  C    0.088886
   108  C    0.073653
   109  C    0.034734
   110  C   -0.007678
   111  N   -0.324126
   112  C    0.078443
   113  C   -0.163122
   114  C    0.002262
   115  C    0.096211
   116  C    0.131493
   117  C    0.042405
   118  O   -0.187813
   119  C    0.000895
   120  C    0.211275
   121  O   -0.251045
   122  O   -0.305612
   123  C    0.152021
   124  H   -0.019658
   125  H   -0.015572
   126  H   -0.040430
   127  H   -0.000606
   128  H   -0.004337
   129  H    0.022511
   130  H    0.014435
   131  H    0.016292
   132  H    0.013900
   133  H    0.037681
   134  H    0.020818
   135  H    0.019579
   136  H    0.008760
   137  H    0.026133
   138  H    0.039781
   139  H    0.038248
   140  H    0.036386
   141  H    0.033892
   142  H    0.014392
   143  H    0.012454
   144  H    0.025135
   145  H    0.011654
   146  H    0.005711
   147  H    0.006268
   148  H    0.003668
   149  H    0.010925
   150  H    0.017934
   151  H    0.030095
   152  H    0.046018
   153  H    0.008516
   154  H    0.047009
   155  H    0.035085
   156  H    0.043950
   157  H    0.049490
   158  H    0.053573
 Sum of Mulliken charges =  -0.00000
 Mulliken charges with hydrogens summed into heavy atoms:
               1
     1  Mg   0.838724
     2  C   -0.002974
     3  C   -0.111747
     4  C   -0.062719
     5  C   -0.105426
     6  N   -0.256773
     7  C   -0.052466
     8  C   -0.013075
     9  C   -0.091043
    10  C    0.046309
    11  C    0.163396
    12  C    0.108796
    13  C    0.000114
    15  N   -0.433144
    16  C    0.168430
    17  C   -0.177170
    18  C   -0.004001
    19  C    0.148716
    20  C    0.182393
    21  C    0.012277
    22  O   -0.249617
    23  C    0.166950
    24  N   -0.341161
    25  C    0.041259
    26  C   -0.011616
    27  C   -0.014528
    28  C    0.074861
    29  C    0.116691
    30  C    0.046259
    31  C    0.051402
    32  N   -0.310467
    33  C    0.080415
    34  C   -0.169702
    35  C    0.008377
    36  C    0.083001
    37  C    0.230045
    38  C    0.046115
    39  O   -0.188418
    40  C    0.029820
    41  C    0.212872
    42  O   -0.257101
    43  O   -0.304791
    44  C    0.300719
    80  Mg   0.837904
    81  C   -0.016818
    82  C   -0.107450
    83  C   -0.061100
    84  C   -0.105290
    85  N   -0.254594
    86  C   -0.049811
    87  C   -0.015714
    88  C   -0.094841
    89  C    0.045765
    90  C    0.167609
    91  C    0.114111
    92  C   -0.002608
    94  N   -0.423500
    95  C    0.162912
    96  C   -0.174621
    97  C   -0.007830
    98  C    0.152125
    99  C    0.174044
   100  C    0.015582
   101  O   -0.253184
   102  C    0.169715
   103  N   -0.350059
   104  C    0.037548
   105  C   -0.005473
   106  C   -0.022333
   107  C    0.088886
   108  C    0.116153
   109  C    0.044670
   110  C    0.051276
   111  N   -0.324126
   112  C    0.078443
   113  C   -0.163122
   114  C    0.002262
   115  C    0.096211
   116  C    0.233035
   117  C    0.042405
   118  O   -0.187813
   119  C    0.035979
   120  C    0.211275
   121  O   -0.251045
   122  O   -0.305612
   123  C    0.299034
 Electronic spatial extent (au):  <R**2>=         614049.2614
 Charge=             -0.0000 electrons
 Dipole moment (field-independent basis, Debye):
    X=             -4.0486    Y=             -2.4366    Z=             -7.6915  Tot=              9.0270
 Quadrupole moment (field-independent basis, Debye-Ang):
   XX=           -516.1954   YY=           -550.8411   ZZ=           -448.0768
   XY=              7.8827   XZ=             -2.1043   YZ=            -47.7957
 Traceless Quadrupole moment (field-independent basis, Debye-Ang):
   XX=            -11.1576   YY=            -45.8033   ZZ=             56.9610
   XY=              7.8827   XZ=             -2.1043   YZ=            -47.7957
 Octapole moment (field-independent basis, Debye-Ang**2):
  XXX=          -3067.0800  YYY=            405.0704  ZZZ=            -87.1002  XYY=            156.0474
  XXY=           -603.8738  XXZ=          -1974.5123  XZZ=           -153.8125  YZZ=           -214.1503
  YYZ=           -207.9256  XYZ=           -167.1296
 Hexadecapole moment (field-independent basis, Debye-Ang**3):
 XXXX=        -786353.6039 YYYY=         -42677.8593 ZZZZ=         -23937.6649 XXXY=          -1126.8311
 XXXZ=           -578.5490 YYYX=           1842.5431 YYYZ=          -1579.7410 ZZZX=           -859.6609
 ZZZY=            196.9214 XXYY=        -146323.8557 XXZZ=        -117768.1002 YYZZ=         -10897.5063
 XXYZ=         -11935.3592 YYXZ=           1145.8801 ZZXY=           -544.7814
 N-N= 1.230687455023D+04 E-N=-3.409457778270D+04  KE= 4.028802032705D+03
 Leave Link  601 at Sat Sep  4 16:57:16 2021, MaxMem= 23488102400 cpu:              17.3 elap:               0.8
 (Enter /sw/apps/gaussian-16.0/g16/l9999.exe)
 1\1\GINC-BP1-COMPUTE00089\SP\RCAM-B3LYP TD-FC\def2SVP\C68H72Mg2N8O8\OF
 15641\04-Sep-2021\0\\#p cam-b3lyp/Def2SVP td=(nstates=5)\\TDDFT excite
 d states in gaussian\\0,1\Mg,0,0.,0.,0.\C,0,-0.217,-2.218,2.801\C,0,-1
 .255,2.442,2.026\C,0,-0.245,1.85,-2.564\C,0,0.146,-2.824,-2.037\N,0,-0
 .617,-0.009,2.126\C,0,-0.594,-0.908,3.105\C,0,-0.936,-0.309,4.502\C,0,
 -1.773,0.964,4.032\C,0,-1.155,1.168,2.66\C,0,-3.263,0.685,3.863\C,0,0.
 345,0.11,5.299\C,0,0.124,0.397,6.787\H,0,1.168,0.033,7.733\N,0,-0.185,
 1.961,-0.152\C,0,-0.703,2.8,0.777\C,0,-0.62,4.156,0.193\C,0,-0.187,4.0
 15,-1.225\C,0,-0.214,2.583,-1.38\C,0,-0.887,5.406,0.974\C,0,0.181,5.01
 3,-2.277\O,0,0.303,4.69,-3.508\C,0,0.31,6.414,-1.837\N,0,-0.265,-0.413
 ,-2.029\C,0,-0.279,0.569,-2.937\C,0,-0.196,0.024,-4.332\C,0,0.124,-1.5
 33,-4.18\C,0,0.086,-1.632,-2.635\C,0,-1.451,0.205,-5.197\C,0,1.373,-2.
 07,-4.923\C,0,2.626,-1.49,-4.306\N,0,0.15,-2.144,0.303\C,0,0.173,-3.13
 6,-0.688\C,0,0.173,-4.438,0.004\C,0,0.133,-4.111,1.358\C,0,0.083,-2.69
 5,1.502\C,0,0.149,-5.715,-0.623\C,0,0.096,-4.629,2.716\O,0,0.208,-5.74
 7,3.221\C,0,-0.255,-3.428,3.701\C,0,0.717,-3.482,4.848\O,0,1.931,-3.25
 5,4.669\O,0,0.038,-3.556,6.003\C,0,0.943,-3.583,7.183\H,0,-1.859,3.22,
 2.497\H,0,-0.218,2.453,-3.474\H,0,0.276,-3.747,-2.605\H,0,-1.554,-0.94
 9,5.132\H,0,-1.585,1.831,4.665\H,0,-3.484,-0.377,3.969\H,0,-3.511,1.02
 7,2.858\H,0,-3.852,1.301,4.543\H,0,0.669,1.096,4.966\H,0,1.13,-0.639,5
 .189\H,0,-0.844,0.026,7.125\H,0,0.062,1.477,6.921\H,0,-1.344,5.186,1.9
 38\H,0,-1.651,5.963,0.432\H,0,0.007,6.02,1.084\H,0,-0.635,6.744,-1.405
 \H,0,0.665,6.97,-2.704\H,0,1.048,6.466,-1.036\H,0,0.608,0.501,-4.891\H
 ,0,-0.692,-2.156,-4.547\H,0,-1.267,0.74,-6.129\H,0,-2.204,0.714,-4.596
 \H,0,-1.967,-0.72,-5.453\H,0,1.356,-1.759,-5.967\H,0,1.452,-3.157,-4.9
 02\H,0,2.714,-0.522,-4.798\H,0,3.487,-2.121,-4.529\H,0,2.495,-1.303,-3
 .24\H,0,0.867,-6.333,-0.084\H,0,0.404,-5.642,-1.68\H,0,-0.891,-5.999,-
 0.463\H,0,-1.283,-3.581,4.028\H,0,0.698,-4.478,7.755\H,0,0.833,-2.619,
 7.68\H,0,2.,-3.754,6.976\Mg,0,31.53895,2.84242,2.40297\C,0,31.39766,0.
 12845,4.74678\C,0,30.28861,4.84021,4.86875\C,0,31.22682,5.14494,0.2423
 2\C,0,31.67726,0.45936,-0.13625\N,0,30.9588,2.42266,4.49569\C,0,31.007
 ,1.3678,5.29525\C,0,30.69158,1.67418,6.78394\C,0,29.82228,3.00832,6.57
 592\C,0,30.41197,3.47975,5.24826\C,0,28.34139,2.73582,6.37087\C,0,31.9
 8667,1.95751,7.62328\C,0,31.78256,1.95907,9.13989\H,0,32.85384,1.44195
 ,9.9869\N,0,31.3286,4.80205,2.63572\C,0,30.82386,5.44437,3.70994\C,0,3
 0.86573,6.87702,3.37842\C,0,31.28307,7.01753,1.95687\C,0,31.27539,5.62
 921,1.54143\C,0,30.60549,7.95444,4.39077\C,0,31.61943,8.20593,1.10788\
 O,0,31.72531,8.11493,-0.16622\C,0,31.72915,9.4974,1.80182\N,0,31.24947
 ,2.8144,0.34439\C,0,31.20055,3.95715,-0.36248\C,0,31.263,3.68381,-1.84
 632\C,0,31.60912,2.12841,-1.98245\C,0,31.59842,1.73512,-0.48893\C,0,29
 .98978,3.9924,-2.63375\C,0,32.85236,1.75615,-2.83593\C,0,34.11142,2.23
 615,-2.15054\N,0,31.72507,0.69254,2.29602\C,0,31.73674,-0.10573,1.1312
 4\C,0,31.7657,-1.516,1.57023\C,0,31.74547,-1.44026,2.97107\C,0,31.6862
 4,-0.07946,3.37629\C,0,31.75676,-2.65382,0.715\C,0,31.75002,-2.20239,4
 .19901\O,0,31.87795,-3.39287,4.48206\C,0,31.39735,-1.22493,5.40175\C,0
 ,32.38977,-1.46946,6.5053\O,0,33.59369,-1.20319,6.34312\O,0,31.72587,-
 1.77024,7.63629\C,0,32.66705,-2.0105,8.76247\H,0,29.68956,5.50141,5.49
 552\H,0,31.23033,5.90332,-0.54402\H,0,31.82038,-0.3403,-0.86614\H,0,30
 .09956,0.91939,7.28751\H,0,30.01961,3.73461,7.36009\H,0,28.13477,1.679
 73,6.28074\H,0,28.0704,3.25344,5.46\H,0,27.75791,3.20421,7.16867\H,0,3
 2.28918,3.00189,7.47334\H,0,32.76684,1.26835,7.36438\H,0,30.81963,1.51
 921,9.42666\H,0,31.71574,2.99537,9.47997\H,0,30.16168,7.54651,5.3073\H
 ,0,29.82509,8.60142,3.97574\H,0,31.49094,8.55844,4.60014\H,0,30.79018,
 9.71864,2.30367\H,0,32.06281,10.20892,1.044\H,0,32.49131,9.4105,2.5842
 4\H,0,32.0514,4.26142,-2.31311\H,0,30.79136,1.56933,-2.46049\H,0,30.15
 14,4.70807,-3.46186\H,0,29.24547,4.36954,-1.94505\H,0,29.48998,3.12518
 ,-3.06192\H,0,32.81314,2.26289,-3.80332\H,0,32.93852,0.69273,-3.03269\
 H,0,34.17228,3.28582,-2.45315\H,0,34.97546,1.67411,-2.49923\H,0,33.999
 19,2.21336,-1.06034\H,0,32.48503,-3.34801,1.11277\H,0,31.98681,-2.3805
 4,-0.3127\H,0,30.71885,-2.97705,0.83128\H,0,30.37567,-1.44483,5.71381\
 H,0,32.4404,-3.00387,9.16188\H,0,32.53921,-1.15108,9.44717\H,0,33.7189
 8,-2.11371,8.5232\\Version=ES64L-G16RevA.03\State=1-A\HF=-4069.811761\
 RMSD=4.484e-09\PG=C01 [X(C68H72Mg2N8O8)]\\@


 THE BEST WAY TO CONVINCE A FOOL THAT HE IS WRONG 
 IS TO LET HIM HAVE HIS OWN WAY.

                                         JOSH BILLINGS
 Job cpu time:       0 days 10 hours 12 minutes 33.7 seconds.
 Elapsed time:       0 days  0 hours 26 minutes  7.0 seconds.
 File lengths (MBytes):  RWF=  13225 Int=      0 D2E=      0 Chk=    574 Scr=      1
 Normal termination of Gaussian 16 at Sat Sep  4 16:57:17 2021.
