 Entering Gaussian System, Link 0=g16
 Initial command:
 /sw/apps/gaussian-16.0/g16/l1.exe "/tmp/Gau-107930.inp" -scrdir="/tmp/"
 Entering Link 1 = /sw/apps/gaussian-16.0/g16/l1.exe PID=    107931.
  
 Copyright (c) 1988,1990,1992,1993,1995,1998,2003,2009,2016,
            Gaussian, Inc.  All Rights Reserved.
  
 This is part of the Gaussian(R) 16 program.  It is based on
 the Gaussian(R) 09 system (copyright 2009, Gaussian, Inc.),
 the Gaussian(R) 03 system (copyright 2003, Gaussian, Inc.),
 the Gaussian(R) 98 system (copyright 1998, Gaussian, Inc.),
 the Gaussian(R) 94 system (copyright 1995, Gaussian, Inc.),
 the Gaussian 92(TM) system (copyright 1992, Gaussian, Inc.),
 the Gaussian 90(TM) system (copyright 1990, Gaussian, Inc.),
 the Gaussian 88(TM) system (copyright 1988, Gaussian, Inc.),
 the Gaussian 86(TM) system (copyright 1986, Carnegie Mellon
 University), and the Gaussian 82(TM) system (copyright 1983,
 Carnegie Mellon University). Gaussian is a federally registered
 trademark of Gaussian, Inc.
  
 This software contains proprietary and confidential information,
 including trade secrets, belonging to Gaussian, Inc.
  
 This software is provided under written license and may be
 used, copied, transmitted, or stored only in accord with that
 written license.
  
 The following legend is applicable only to US Government
 contracts under FAR:
  
                    RESTRICTED RIGHTS LEGEND
  
 Use, reproduction and disclosure by the US Government is
 subject to restrictions as set forth in subparagraphs (a)
 and (c) of the Commercial Computer Software - Restricted
 Rights clause in FAR 52.227-19.
  
 Gaussian, Inc.
 340 Quinnipiac St., Bldg. 40, Wallingford CT 06492
  
  
 ---------------------------------------------------------------
 Warning -- This program may not be used in any manner that
 competes with the business of Gaussian, Inc. or will provide
 assistance to any competitor of Gaussian, Inc.  The licensee
 of this program is prohibited from giving any competitor of
 Gaussian, Inc. access to this program.  By using this program,
 the user acknowledges that Gaussian, Inc. is engaged in the
 business of creating and licensing software in the field of
 computational chemistry and represents and warrants to the
 licensee that it is not a competitor of Gaussian, Inc. and that
 it will not use this program in any manner prohibited above.
 ---------------------------------------------------------------
  

 Cite this work as:
 Gaussian 16, Revision A.03,
 M. J. Frisch, G. W. Trucks, H. B. Schlegel, G. E. Scuseria, 
 M. A. Robb, J. R. Cheeseman, G. Scalmani, V. Barone, 
 G. A. Petersson, H. Nakatsuji, X. Li, M. Caricato, A. V. Marenich, 
 J. Bloino, B. G. Janesko, R. Gomperts, B. Mennucci, H. P. Hratchian, 
 J. V. Ortiz, A. F. Izmaylov, J. L. Sonnenberg, D. Williams-Young, 
 F. Ding, F. Lipparini, F. Egidi, J. Goings, B. Peng, A. Petrone, 
 T. Henderson, D. Ranasinghe, V. G. Zakrzewski, J. Gao, N. Rega, 
 G. Zheng, W. Liang, M. Hada, M. Ehara, K. Toyota, R. Fukuda, 
 J. Hasegawa, M. Ishida, T. Nakajima, Y. Honda, O. Kitao, H. Nakai, 
 T. Vreven, K. Throssell, J. A. Montgomery, Jr., J. E. Peralta, 
 F. Ogliaro, M. J. Bearpark, J. J. Heyd, E. N. Brothers, K. N. Kudin, 
 V. N. Staroverov, T. A. Keith, R. Kobayashi, J. Normand, 
 K. Raghavachari, A. P. Rendell, J. C. Burant, S. S. Iyengar, 
 J. Tomasi, M. Cossi, J. M. Millam, M. Klene, C. Adamo, R. Cammi, 
 J. W. Ochterski, R. L. Martin, K. Morokuma, O. Farkas, 
 J. B. Foresman, and D. J. Fox, Gaussian, Inc., Wallingford CT, 2016.
 
 ******************************************
 Gaussian 16:  ES64L-G16RevA.03 25-Dec-2016
                10-Sep-2021 
 ******************************************
 %nproc=24
 Will use up to   24 processors via shared memory.
 %mem=175gb
 -----------------------------------
 #p cam-b3lyp/Def2SVP td=(nstates=5)
 -----------------------------------
 1/38=1,172=1/1;
 2/12=2,17=6,18=5,40=1/2;
 3/5=43,7=101,11=9,25=1,30=1,74=-40/1,2,3,8;
 4//1;
 5/5=2,38=5/2;
 8/6=1,10=1,108=5/1;
 9/41=5,42=1,70=2/14;
 6/7=2,8=2,9=2,10=2/1;
 99/5=1,9=1/99;
 Leave Link    1 at Fri Sep 10 16:46:48 2021, MaxMem= 23488102400 cpu:               0.9 elap:               0.0
 (Enter /sw/apps/gaussian-16.0/g16/l101.exe)
 --------------------------------
 TDDFT excited states in gaussian
 --------------------------------
 Symbolic Z-matrix:
 Charge =  0 Multiplicity = 1
 Mg                    0.        0.        0. 
 C                    -0.217    -2.218     2.801 
 C                    -1.255     2.442     2.026 
 C                    -0.245     1.85     -2.564 
 C                     0.146    -2.824    -2.037 
 N                    -0.617    -0.009     2.126 
 C                    -0.594    -0.908     3.105 
 C                    -0.936    -0.309     4.502 
 C                    -1.773     0.964     4.032 
 C                    -1.155     1.168     2.66 
 C                    -3.263     0.685     3.863 
 C                     0.345     0.11      5.299 
 C                     0.124     0.397     6.787 
 H                     1.168     0.033     7.733 
 N                    -0.185     1.961    -0.152 
 C                    -0.703     2.8       0.777 
 C                    -0.62      4.156     0.193 
 C                    -0.187     4.015    -1.225 
 C                    -0.214     2.583    -1.38 
 C                    -0.887     5.406     0.974 
 C                     0.181     5.013    -2.277 
 O                     0.303     4.69     -3.508 
 C                     0.31      6.414    -1.837 
 N                    -0.265    -0.413    -2.029 
 C                    -0.279     0.569    -2.937 
 C                    -0.196     0.024    -4.332 
 C                     0.124    -1.533    -4.18 
 C                     0.086    -1.632    -2.635 
 C                    -1.451     0.205    -5.197 
 C                     1.373    -2.07     -4.923 
 C                     2.626    -1.49     -4.306 
 N                     0.15     -2.144     0.303 
 C                     0.173    -3.136    -0.688 
 C                     0.173    -4.438     0.004 
 C                     0.133    -4.111     1.358 
 C                     0.083    -2.695     1.502 
 C                     0.149    -5.715    -0.623 
 C                     0.096    -4.629     2.716 
 O                     0.208    -5.747     3.221 
 C                    -0.255    -3.428     3.701 
 C                     0.717    -3.482     4.848 
 O                     1.931    -3.255     4.669 
 O                     0.038    -3.556     6.003 
 C                     0.943    -3.583     7.183 
 H                    -1.859     3.22      2.497 
 H                    -0.218     2.453    -3.474 
 H                     0.276    -3.747    -2.605 
 H                    -1.554    -0.949     5.132 
 H                    -1.585     1.831     4.665 
 H                    -3.484    -0.377     3.969 
 H                    -3.511     1.027     2.858 
 H                    -3.852     1.301     4.543 
 H                     0.669     1.096     4.966 
 H                     1.13     -0.639     5.189 
 H                    -0.844     0.026     7.125 
 H                     0.062     1.477     6.921 
 H                    -1.344     5.186     1.938 
 H                    -1.651     5.963     0.432 
 H                     0.007     6.02      1.084 
 H                    -0.635     6.744    -1.405 
 H                     0.665     6.97     -2.704 
 H                     1.048     6.466    -1.036 
 H                     0.608     0.501    -4.891 
 H                    -0.692    -2.156    -4.547 
 H                    -1.267     0.74     -6.129 
 H                    -2.204     0.714    -4.596 
 H                    -1.967    -0.72     -5.453 
 H                     1.356    -1.759    -5.967 
 H                     1.452    -3.157    -4.902 
 H                     2.714    -0.522    -4.798 
 H                     3.487    -2.121    -4.529 
 H                     2.495    -1.303    -3.24 
 H                     0.867    -6.333    -0.084 
 H                     0.404    -5.642    -1.68 
 H                    -0.891    -5.999    -0.463 
 H                    -1.283    -3.581     4.028 
 H                     0.698    -4.478     7.755 
 H                     0.833    -2.619     7.68 
 H                     2.       -3.754     6.976 
 Mg                    10.5181   0.95158   0.79283 
 C                     9.92284   4.30602   1.92088 
 C                     9.77623   2.03751  -2.35439 
 C                     10.59397  -2.07344  -0.1616 
 C                     10.09171  -0.08569   4.09252 
 N                     9.93968   2.93814   0.01099 
 C                     9.80542   4.15197   0.52377 
 C                     9.60934   5.2765   -0.52815 
 C                     9.01547   4.38542  -1.72488 
 C                     9.64024   3.04005  -1.36115 
 C                     7.50372   4.23948  -1.67359 
 C                     10.96342   5.95651  -0.93564 
 C                     10.81683   7.26164  -1.72107 
 H                     11.79306   8.32377  -1.49446 
 N                     10.70924   0.18353  -1.0271 
 C                     10.37994   0.77061  -2.19679 
 C                     10.69378  -0.21419  -3.24361 
 C                     11.08076  -1.49147  -2.58519 
 C                     10.78309  -1.17599  -1.20245 
 C                     10.68817   0.12331  -4.70631 
 C                     11.61646  -2.78737  -3.11419 
 O                     11.65757  -3.8445   -2.39057 
 C                     12.00459  -2.80631  -4.53211 
 N                     10.15704  -0.84576   1.7734 
 C                     10.31129  -2.02186   1.14023 
 C                     10.26632  -3.17546   2.11367 
 C                     10.29179  -2.51138   3.56829 
 C                     10.25544  -1.02053   3.16653 
 C                     9.05297  -4.09768   1.99669 
 C                     11.40577  -2.98806   4.54014 
 C                     12.75823  -2.54043   4.03431 
 N                     10.26985   1.92031   2.70803 
 C                     10.08208   1.29708   3.96118 
 C                     9.84582   2.36927   4.94962 
 C                     9.89001   3.54994   4.19294 
 C                     10.11632   3.23446   2.82592 
 C                     9.58128   2.17971   6.33533 
 C                     9.78608   4.99073   4.2381 
 O                     9.68493   5.82668   5.13514 
 C                     9.67675   5.53641   2.74925 
 C                     10.63883   6.68339   2.60311 
 O                     11.86522   6.49402   2.68503 
 O                     9.96837   7.76931   2.17691 
 C                     10.8819   8.93042   2.00629 
 H                     9.34266   2.21961  -3.33813 
 H                     10.72048  -3.12756  -0.41907 
 H                     10.04762  -0.32089   5.15807 
 H                     8.89723   6.04287  -0.24647 
 H                     9.38035   4.72676  -2.69014 
 H                     7.08852   4.66241  -0.77088 
 H                     7.30921   3.17585  -1.71733 
 H                     7.05308   4.66555  -2.57455 
 H                     11.46183   5.33689  -1.69221 
 H                     11.58171   6.12047  -0.07455 
 H                     9.79637   7.6605   -1.67092 
 H                     10.969    7.04732  -2.7817 
 H                     10.20452   1.08983  -4.89427 
 H                     10.03773  -0.60654  -5.20038 
 H                     11.68267   0.07083  -5.15451 
 H                     11.14635  -2.54129  -5.14502 
 H                     12.44616  -3.79035  -4.7011 
 H                     12.7612  -2.03133  -4.6981 
 H                     11.13689  -3.81004   2.00177 
 H                     9.36311  -2.71004   4.1232 
 H                     9.32441  -5.15658   1.82606 
 H                     8.4229   -3.73293   1.19638 
 H                     8.3763   -4.08097   2.84936 
 H                     11.43413  -4.07983   4.57743 
 H                     11.27216  -2.63446   5.55706 
 H                     13.01566  -3.31188   3.30241 
 H                     13.48077  -2.51095   4.8474 
 H                     12.68188  -1.58824   3.49658 
 H                     10.17068   2.91404   6.86812 
 H                     9.82493   1.16766   6.6518 
 H                     8.50456   2.36821   6.35591 
 H                     8.64329   5.84595   2.58886 
 H                     10.47665   9.74738   2.6113 
 H                     10.95123   9.09817   0.91505 
 H                     11.88338   8.84396   2.41129 
 
 ITRead=  0  0  0  0  0  0  0  0  0  0  0  0  0  0  0  0  0  0  0  0
 ITRead=  0  0  0  0  0  0  0  0  0  0  0  0  0  0  0  0  0  0  0  0
 ITRead=  0  0  0  0  0  0  0  0  0  0  0  0  0  0  0  0  0  0  0  0
 ITRead=  0  0  0  0  0  0  0  0  0  0  0  0  0  0  0  0  0  0  0  0
 ITRead=  0  0  0  0  0  0  0  0  0  0  0  0  0  0  0  0  0  0  0  0
 ITRead=  0  0  0  0  0  0  0  0  0  0  0  0  0  0  0  0  0  0  0  0
 ITRead=  0  0  0  0  0  0  0  0  0  0  0  0  0  0  0  0  0  0  0  0
 ITRead=  0  0  0  0  0  0  0  0  0  0  0  0  0  0  0  0  0  0
 MicOpt= -1 -1 -1 -1 -1 -1 -1 -1 -1 -1 -1 -1 -1 -1 -1 -1 -1 -1 -1 -1
 MicOpt= -1 -1 -1 -1 -1 -1 -1 -1 -1 -1 -1 -1 -1 -1 -1 -1 -1 -1 -1 -1
 MicOpt= -1 -1 -1 -1 -1 -1 -1 -1 -1 -1 -1 -1 -1 -1 -1 -1 -1 -1 -1 -1
 MicOpt= -1 -1 -1 -1 -1 -1 -1 -1 -1 -1 -1 -1 -1 -1 -1 -1 -1 -1 -1 -1
 MicOpt= -1 -1 -1 -1 -1 -1 -1 -1 -1 -1 -1 -1 -1 -1 -1 -1 -1 -1 -1 -1
 MicOpt= -1 -1 -1 -1 -1 -1 -1 -1 -1 -1 -1 -1 -1 -1 -1 -1 -1 -1 -1 -1
 MicOpt= -1 -1 -1 -1 -1 -1 -1 -1 -1 -1 -1 -1 -1 -1 -1 -1 -1 -1 -1 -1
 MicOpt= -1 -1 -1 -1 -1 -1 -1 -1 -1 -1 -1 -1 -1 -1 -1 -1 -1 -1
 NAtoms=    158 NQM=      158 NQMF=       0 NMMI=      0 NMMIF=      0
                NMic=       0 NMicF=      0.
                    Isotopes and Nuclear Properties:
 (Nuclear quadrupole moments (NQMom) in fm**2, nuclear magnetic moments (NMagM)
  in nuclear magnetons)

  Atom         1           2           3           4           5           6           7           8           9          10
 IAtWgt=          24          12          12          12          12          14          12          12          12          12
 AtmWgt=  23.9850450  12.0000000  12.0000000  12.0000000  12.0000000  14.0030740  12.0000000  12.0000000  12.0000000  12.0000000
 NucSpn=           0           0           0           0           0           2           0           0           0           0
 AtZEff=  -0.0000000  -0.0000000  -0.0000000  -0.0000000  -0.0000000  -0.0000000  -0.0000000  -0.0000000  -0.0000000  -0.0000000
 NQMom=    0.0000000   0.0000000   0.0000000   0.0000000   0.0000000   2.0440000   0.0000000   0.0000000   0.0000000   0.0000000
 NMagM=    0.0000000   0.0000000   0.0000000   0.0000000   0.0000000   0.4037610   0.0000000   0.0000000   0.0000000   0.0000000
 AtZNuc=  12.0000000   6.0000000   6.0000000   6.0000000   6.0000000   7.0000000   6.0000000   6.0000000   6.0000000   6.0000000

  Atom        11          12          13          14          15          16          17          18          19          20
 IAtWgt=          12          12          12           1          14          12          12          12          12          12
 AtmWgt=  12.0000000  12.0000000  12.0000000   1.0078250  14.0030740  12.0000000  12.0000000  12.0000000  12.0000000  12.0000000
 NucSpn=           0           0           0           1           2           0           0           0           0           0
 AtZEff=  -0.0000000  -0.0000000  -0.0000000  -0.0000000  -0.0000000  -0.0000000  -0.0000000  -0.0000000  -0.0000000  -0.0000000
 NQMom=    0.0000000   0.0000000   0.0000000   0.0000000   2.0440000   0.0000000   0.0000000   0.0000000   0.0000000   0.0000000
 NMagM=    0.0000000   0.0000000   0.0000000   2.7928460   0.4037610   0.0000000   0.0000000   0.0000000   0.0000000   0.0000000
 AtZNuc=   6.0000000   6.0000000   6.0000000   1.0000000   7.0000000   6.0000000   6.0000000   6.0000000   6.0000000   6.0000000

  Atom        21          22          23          24          25          26          27          28          29          30
 IAtWgt=          12          16          12          14          12          12          12          12          12          12
 AtmWgt=  12.0000000  15.9949146  12.0000000  14.0030740  12.0000000  12.0000000  12.0000000  12.0000000  12.0000000  12.0000000
 NucSpn=           0           0           0           2           0           0           0           0           0           0
 AtZEff=  -0.0000000  -0.0000000  -0.0000000  -0.0000000  -0.0000000  -0.0000000  -0.0000000  -0.0000000  -0.0000000  -0.0000000
 NQMom=    0.0000000   0.0000000   0.0000000   2.0440000   0.0000000   0.0000000   0.0000000   0.0000000   0.0000000   0.0000000
 NMagM=    0.0000000   0.0000000   0.0000000   0.4037610   0.0000000   0.0000000   0.0000000   0.0000000   0.0000000   0.0000000
 AtZNuc=   6.0000000   8.0000000   6.0000000   7.0000000   6.0000000   6.0000000   6.0000000   6.0000000   6.0000000   6.0000000

  Atom        31          32          33          34          35          36          37          38          39          40
 IAtWgt=          12          14          12          12          12          12          12          12          16          12
 AtmWgt=  12.0000000  14.0030740  12.0000000  12.0000000  12.0000000  12.0000000  12.0000000  12.0000000  15.9949146  12.0000000
 NucSpn=           0           2           0           0           0           0           0           0           0           0
 AtZEff=  -0.0000000  -0.0000000  -0.0000000  -0.0000000  -0.0000000  -0.0000000  -0.0000000  -0.0000000  -0.0000000  -0.0000000
 NQMom=    0.0000000   2.0440000   0.0000000   0.0000000   0.0000000   0.0000000   0.0000000   0.0000000   0.0000000   0.0000000
 NMagM=    0.0000000   0.4037610   0.0000000   0.0000000   0.0000000   0.0000000   0.0000000   0.0000000   0.0000000   0.0000000
 AtZNuc=   6.0000000   7.0000000   6.0000000   6.0000000   6.0000000   6.0000000   6.0000000   6.0000000   8.0000000   6.0000000

  Atom        41          42          43          44          45          46          47          48          49          50
 IAtWgt=          12          16          16          12           1           1           1           1           1           1
 AtmWgt=  12.0000000  15.9949146  15.9949146  12.0000000   1.0078250   1.0078250   1.0078250   1.0078250   1.0078250   1.0078250
 NucSpn=           0           0           0           0           1           1           1           1           1           1
 AtZEff=  -0.0000000  -0.0000000  -0.0000000  -0.0000000  -0.0000000  -0.0000000  -0.0000000  -0.0000000  -0.0000000  -0.0000000
 NQMom=    0.0000000   0.0000000   0.0000000   0.0000000   0.0000000   0.0000000   0.0000000   0.0000000   0.0000000   0.0000000
 NMagM=    0.0000000   0.0000000   0.0000000   0.0000000   2.7928460   2.7928460   2.7928460   2.7928460   2.7928460   2.7928460
 AtZNuc=   6.0000000   8.0000000   8.0000000   6.0000000   1.0000000   1.0000000   1.0000000   1.0000000   1.0000000   1.0000000

  Atom        51          52          53          54          55          56          57          58          59          60
 IAtWgt=           1           1           1           1           1           1           1           1           1           1
 AtmWgt=   1.0078250   1.0078250   1.0078250   1.0078250   1.0078250   1.0078250   1.0078250   1.0078250   1.0078250   1.0078250
 NucSpn=           1           1           1           1           1           1           1           1           1           1
 AtZEff=  -0.0000000  -0.0000000  -0.0000000  -0.0000000  -0.0000000  -0.0000000  -0.0000000  -0.0000000  -0.0000000  -0.0000000
 NQMom=    0.0000000   0.0000000   0.0000000   0.0000000   0.0000000   0.0000000   0.0000000   0.0000000   0.0000000   0.0000000
 NMagM=    2.7928460   2.7928460   2.7928460   2.7928460   2.7928460   2.7928460   2.7928460   2.7928460   2.7928460   2.7928460
 AtZNuc=   1.0000000   1.0000000   1.0000000   1.0000000   1.0000000   1.0000000   1.0000000   1.0000000   1.0000000   1.0000000

  Atom        61          62          63          64          65          66          67          68          69          70
 IAtWgt=           1           1           1           1           1           1           1           1           1           1
 AtmWgt=   1.0078250   1.0078250   1.0078250   1.0078250   1.0078250   1.0078250   1.0078250   1.0078250   1.0078250   1.0078250
 NucSpn=           1           1           1           1           1           1           1           1           1           1
 AtZEff=  -0.0000000  -0.0000000  -0.0000000  -0.0000000  -0.0000000  -0.0000000  -0.0000000  -0.0000000  -0.0000000  -0.0000000
 NQMom=    0.0000000   0.0000000   0.0000000   0.0000000   0.0000000   0.0000000   0.0000000   0.0000000   0.0000000   0.0000000
 NMagM=    2.7928460   2.7928460   2.7928460   2.7928460   2.7928460   2.7928460   2.7928460   2.7928460   2.7928460   2.7928460
 AtZNuc=   1.0000000   1.0000000   1.0000000   1.0000000   1.0000000   1.0000000   1.0000000   1.0000000   1.0000000   1.0000000

  Atom        71          72          73          74          75          76          77          78          79          80
 IAtWgt=           1           1           1           1           1           1           1           1           1          24
 AtmWgt=   1.0078250   1.0078250   1.0078250   1.0078250   1.0078250   1.0078250   1.0078250   1.0078250   1.0078250  23.9850450
 NucSpn=           1           1           1           1           1           1           1           1           1           0
 AtZEff=  -0.0000000  -0.0000000  -0.0000000  -0.0000000  -0.0000000  -0.0000000  -0.0000000  -0.0000000  -0.0000000  -0.0000000
 NQMom=    0.0000000   0.0000000   0.0000000   0.0000000   0.0000000   0.0000000   0.0000000   0.0000000   0.0000000   0.0000000
 NMagM=    2.7928460   2.7928460   2.7928460   2.7928460   2.7928460   2.7928460   2.7928460   2.7928460   2.7928460   0.0000000
 AtZNuc=   1.0000000   1.0000000   1.0000000   1.0000000   1.0000000   1.0000000   1.0000000   1.0000000   1.0000000  12.0000000

  Atom        81          82          83          84          85          86          87          88          89          90
 IAtWgt=          12          12          12          12          14          12          12          12          12          12
 AtmWgt=  12.0000000  12.0000000  12.0000000  12.0000000  14.0030740  12.0000000  12.0000000  12.0000000  12.0000000  12.0000000
 NucSpn=           0           0           0           0           2           0           0           0           0           0
 AtZEff=  -0.0000000  -0.0000000  -0.0000000  -0.0000000  -0.0000000  -0.0000000  -0.0000000  -0.0000000  -0.0000000  -0.0000000
 NQMom=    0.0000000   0.0000000   0.0000000   0.0000000   2.0440000   0.0000000   0.0000000   0.0000000   0.0000000   0.0000000
 NMagM=    0.0000000   0.0000000   0.0000000   0.0000000   0.4037610   0.0000000   0.0000000   0.0000000   0.0000000   0.0000000
 AtZNuc=   6.0000000   6.0000000   6.0000000   6.0000000   7.0000000   6.0000000   6.0000000   6.0000000   6.0000000   6.0000000

  Atom        91          92          93          94          95          96          97          98          99         100
 IAtWgt=          12          12           1          14          12          12          12          12          12          12
 AtmWgt=  12.0000000  12.0000000   1.0078250  14.0030740  12.0000000  12.0000000  12.0000000  12.0000000  12.0000000  12.0000000
 NucSpn=           0           0           1           2           0           0           0           0           0           0
 AtZEff=  -0.0000000  -0.0000000  -0.0000000  -0.0000000  -0.0000000  -0.0000000  -0.0000000  -0.0000000  -0.0000000  -0.0000000
 NQMom=    0.0000000   0.0000000   0.0000000   2.0440000   0.0000000   0.0000000   0.0000000   0.0000000   0.0000000   0.0000000
 NMagM=    0.0000000   0.0000000   2.7928460   0.4037610   0.0000000   0.0000000   0.0000000   0.0000000   0.0000000   0.0000000
 AtZNuc=   6.0000000   6.0000000   1.0000000   7.0000000   6.0000000   6.0000000   6.0000000   6.0000000   6.0000000   6.0000000

  Atom       101         102         103         104         105         106         107         108         109         110
 IAtWgt=          16          12          14          12          12          12          12          12          12          12
 AtmWgt=  15.9949146  12.0000000  14.0030740  12.0000000  12.0000000  12.0000000  12.0000000  12.0000000  12.0000000  12.0000000
 NucSpn=           0           0           2           0           0           0           0           0           0           0
 AtZEff=  -0.0000000  -0.0000000  -0.0000000  -0.0000000  -0.0000000  -0.0000000  -0.0000000  -0.0000000  -0.0000000  -0.0000000
 NQMom=    0.0000000   0.0000000   2.0440000   0.0000000   0.0000000   0.0000000   0.0000000   0.0000000   0.0000000   0.0000000
 NMagM=    0.0000000   0.0000000   0.4037610   0.0000000   0.0000000   0.0000000   0.0000000   0.0000000   0.0000000   0.0000000
 AtZNuc=   8.0000000   6.0000000   7.0000000   6.0000000   6.0000000   6.0000000   6.0000000   6.0000000   6.0000000   6.0000000

  Atom       111         112         113         114         115         116         117         118         119         120
 IAtWgt=          14          12          12          12          12          12          12          16          12          12
 AtmWgt=  14.0030740  12.0000000  12.0000000  12.0000000  12.0000000  12.0000000  12.0000000  15.9949146  12.0000000  12.0000000
 NucSpn=           2           0           0           0           0           0           0           0           0           0
 AtZEff=  -0.0000000  -0.0000000  -0.0000000  -0.0000000  -0.0000000  -0.0000000  -0.0000000  -0.0000000  -0.0000000  -0.0000000
 NQMom=    2.0440000   0.0000000   0.0000000   0.0000000   0.0000000   0.0000000   0.0000000   0.0000000   0.0000000   0.0000000
 NMagM=    0.4037610   0.0000000   0.0000000   0.0000000   0.0000000   0.0000000   0.0000000   0.0000000   0.0000000   0.0000000
 AtZNuc=   7.0000000   6.0000000   6.0000000   6.0000000   6.0000000   6.0000000   6.0000000   8.0000000   6.0000000   6.0000000

  Atom       121         122         123         124         125         126         127         128         129         130
 IAtWgt=          16          16          12           1           1           1           1           1           1           1
 AtmWgt=  15.9949146  15.9949146  12.0000000   1.0078250   1.0078250   1.0078250   1.0078250   1.0078250   1.0078250   1.0078250
 NucSpn=           0           0           0           1           1           1           1           1           1           1
 AtZEff=  -0.0000000  -0.0000000  -0.0000000  -0.0000000  -0.0000000  -0.0000000  -0.0000000  -0.0000000  -0.0000000  -0.0000000
 NQMom=    0.0000000   0.0000000   0.0000000   0.0000000   0.0000000   0.0000000   0.0000000   0.0000000   0.0000000   0.0000000
 NMagM=    0.0000000   0.0000000   0.0000000   2.7928460   2.7928460   2.7928460   2.7928460   2.7928460   2.7928460   2.7928460
 AtZNuc=   8.0000000   8.0000000   6.0000000   1.0000000   1.0000000   1.0000000   1.0000000   1.0000000   1.0000000   1.0000000

  Atom       131         132         133         134         135         136         137         138         139         140
 IAtWgt=           1           1           1           1           1           1           1           1           1           1
 AtmWgt=   1.0078250   1.0078250   1.0078250   1.0078250   1.0078250   1.0078250   1.0078250   1.0078250   1.0078250   1.0078250
 NucSpn=           1           1           1           1           1           1           1           1           1           1
 AtZEff=  -0.0000000  -0.0000000  -0.0000000  -0.0000000  -0.0000000  -0.0000000  -0.0000000  -0.0000000  -0.0000000  -0.0000000
 NQMom=    0.0000000   0.0000000   0.0000000   0.0000000   0.0000000   0.0000000   0.0000000   0.0000000   0.0000000   0.0000000
 NMagM=    2.7928460   2.7928460   2.7928460   2.7928460   2.7928460   2.7928460   2.7928460   2.7928460   2.7928460   2.7928460
 AtZNuc=   1.0000000   1.0000000   1.0000000   1.0000000   1.0000000   1.0000000   1.0000000   1.0000000   1.0000000   1.0000000

  Atom       141         142         143         144         145         146         147         148         149         150
 IAtWgt=           1           1           1           1           1           1           1           1           1           1
 AtmWgt=   1.0078250   1.0078250   1.0078250   1.0078250   1.0078250   1.0078250   1.0078250   1.0078250   1.0078250   1.0078250
 NucSpn=           1           1           1           1           1           1           1           1           1           1
 AtZEff=  -0.0000000  -0.0000000  -0.0000000  -0.0000000  -0.0000000  -0.0000000  -0.0000000  -0.0000000  -0.0000000  -0.0000000
 NQMom=    0.0000000   0.0000000   0.0000000   0.0000000   0.0000000   0.0000000   0.0000000   0.0000000   0.0000000   0.0000000
 NMagM=    2.7928460   2.7928460   2.7928460   2.7928460   2.7928460   2.7928460   2.7928460   2.7928460   2.7928460   2.7928460
 AtZNuc=   1.0000000   1.0000000   1.0000000   1.0000000   1.0000000   1.0000000   1.0000000   1.0000000   1.0000000   1.0000000

  Atom       151         152         153         154         155         156         157         158
 IAtWgt=           1           1           1           1           1           1           1           1
 AtmWgt=   1.0078250   1.0078250   1.0078250   1.0078250   1.0078250   1.0078250   1.0078250   1.0078250
 NucSpn=           1           1           1           1           1           1           1           1
 AtZEff=  -0.0000000  -0.0000000  -0.0000000  -0.0000000  -0.0000000  -0.0000000  -0.0000000  -0.0000000
 NQMom=    0.0000000   0.0000000   0.0000000   0.0000000   0.0000000   0.0000000   0.0000000   0.0000000
 NMagM=    2.7928460   2.7928460   2.7928460   2.7928460   2.7928460   2.7928460   2.7928460   2.7928460
 AtZNuc=   1.0000000   1.0000000   1.0000000   1.0000000   1.0000000   1.0000000   1.0000000   1.0000000
 Leave Link  101 at Fri Sep 10 16:46:49 2021, MaxMem= 23488102400 cpu:               3.3 elap:               0.2
 (Enter /sw/apps/gaussian-16.0/g16/l202.exe)
 Stoichiometry    C68H72Mg2N8O8
 Framework group  C1[X(C68H72Mg2N8O8)]
 Deg. of freedom   468
 Full point group                 C1      NOp   1
 Largest Abelian subgroup         C1      NOp   1
 Largest concise Abelian subgroup C1      NOp   1
                         Standard orientation:                         
 ---------------------------------------------------------------------
 Center     Atomic      Atomic             Coordinates (Angstroms)
 Number     Number       Type             X           Y           Z
 ---------------------------------------------------------------------
      1         12           0        5.125940    0.913884    0.486412
      2          6           0        5.897291   -2.037689   -1.385871
      3          6           0        5.704572    2.694716   -2.366111
      4          6           0        4.894943    3.558973    2.220416
      5          6           0        5.717270   -0.942764    3.375849
      6          7           0        5.717934    0.293554   -1.554514
      7          6           0        5.923838   -0.873451   -2.156903
      8          6           0        6.096001   -0.750089   -3.700443
      9          6           0        6.578986    0.767308   -3.779384
     10          6           0        5.933554    1.294016   -2.509770
     11          6           0        8.091142    0.932036   -3.666467
     12          6           0        4.747878   -0.962863   -4.467921
     13          6           0        4.883051   -1.182638   -5.977484
     14          1           0        3.964828   -2.098928   -6.636746
     15          7           0        4.800964    2.782926   -0.064882
     16          6           0        5.082944    3.332289   -1.270690
     17          6           0        4.655877    4.745404   -1.184660
     18          6           0        4.278075    5.021296    0.229286
     19          6           0        4.672852    3.790255    0.864949
     20          6           0        4.590076    5.658718   -2.370104
     21          6           0        3.669090    6.210289    0.902758
     22          8           0        3.638049    6.329393    2.175324
     23          6           0        3.182834    7.287112    0.021254
     24          7           0        5.494493    1.329418    2.498659
     25          6           0        5.258331    2.543838    3.006987
     26          6           0        5.322568    2.530437    4.505531
     27          6           0        5.413205    0.993872    4.930391
     28          6           0        5.470607    0.361475    3.517929
     29          6           0        6.491500    3.303006    5.132225
     30          6           0        4.346578    0.475934    5.927621
     31          6           0        2.984673    0.479536    5.270127
     32          7           0        5.531326   -1.165970    0.956424
     33          6           0        5.767232   -1.712969    2.225997
     34          6           0        6.099872   -3.135767    2.028349
     35          6           0        6.050261   -3.314818    0.647289
     36          6           0        5.734043   -2.075882    0.020124
     37          6           0        6.453353   -4.058916    3.051716
     38          6           0        6.215010   -4.258926   -0.446043
     39          8           0        6.392683   -5.475552   -0.521840
     40          6           0        6.242354   -3.442668   -1.813084
     41          6           0        5.313379   -4.133686   -2.773713
     42          8           0        4.082388   -4.155019   -2.569821
     43          8           0        5.985003   -4.450895   -3.891229
     44          6           0        5.113731   -5.113310   -4.898326
     45          1           0        6.086761    3.373231   -3.131284
     46          1           0        4.716616    4.422123    2.865093
     47          1           0        5.830725   -1.604205    4.236707
     48          1           0        6.855833   -1.405290   -4.126812
     49          1           0        6.172423    1.278933   -4.651547
     50          1           0        8.577451   -0.011835   -3.420435
     51          1           0        8.245972    1.659237   -2.869160
     52          1           0        8.499844    1.386017   -4.569595
     53          1           0        4.182276   -0.031116   -4.466002
     54          1           0        4.182203   -1.787471   -4.032767
     55          1           0        5.912849   -1.406948   -6.256966
     56          1           0        4.664856   -0.240618   -6.480663
     57          1           0        5.085297    5.224869   -3.237904
     58          1           0        5.186841    6.537947   -2.128162
     59          1           0        3.567924    5.960022   -2.599781
     60          1           0        4.009869    7.656613   -0.585402
     61          1           0        2.699489    8.014043    0.673020
     62          1           0        2.453804    6.871383   -0.674903
     63          1           0        4.424683    2.968632    4.939366
     64          1           0        6.363089    0.757632    5.410583
     65          1           0        6.179005    4.075088    5.835746
     66          1           0        7.086443    3.727822    4.324225
     67          1           0        7.228781    2.682714    5.641216
     68          1           0        4.286267    1.133855    6.793906
     69          1           0        4.549666   -0.531858    6.290057
     70          1           0        2.652254    1.508273    5.404407
     71          1           0        2.315562   -0.216326    5.777353
     72          1           0        3.059890    0.298758    4.197678
     73          1           0        5.916735   -4.981150    2.829241
     74          1           0        6.191425   -3.676259    4.037906
     75          1           0        7.530910   -4.123856    2.901684
     76          1           0        7.274115   -3.451880   -2.163094
     77          1           0        5.578852   -6.067190   -5.147341
     78          1           0        4.970626   -4.394262   -5.705107
     79          1           0        4.136883   -5.446437   -4.545999
     80         12           0       -5.285594   -1.024986    0.413819
     81          6           0       -5.576352    1.742792   -1.852006
     82          6           0       -4.838164    1.257464    2.908781
     83          6           0       -4.578150   -3.433211    2.354802
     84          6           0       -4.617032   -3.038678   -2.350916
     85          7           0       -5.235005    1.186263    0.404721
     86          6           0       -5.418952    2.131032   -0.505184
     87          6           0       -5.515360    3.569096    0.071208
     88          6           0       -4.708641    3.334213    1.439748
     89          6           0       -4.967596    1.840193    1.622787
     90          6           0       -3.210361    3.545555    1.299011
     91          6           0       -6.997495    4.004923    0.345661
     92          6           0       -7.188990    5.498981    0.615613
     93          1           0       -8.406195    6.143551    0.130390
     94          7           0       -5.267195   -1.113775    2.396332
     95          6           0       -5.096306   -0.087014    3.255306
     96          6           0       -5.143139   -0.677100    4.602066
     97          6           0       -5.190719   -2.158100    4.463899
     98          6           0       -4.988451   -2.296217    3.035573
     99          6           0       -5.219977    0.151644    5.851349
    100          6           0       -5.373560   -3.267147    5.455240
    101          8           0       -5.143708   -4.489992    5.147572
    102          6           0       -5.739385   -2.870354    6.822802
    103          7           0       -4.477563   -2.911799    0.083163
    104          6           0       -4.322262   -3.784262    1.094399
    105          6           0       -3.985192   -5.162897    0.578501
    106          6           0       -4.185054   -5.089223   -1.006490
    107          6           0       -4.532022   -3.590946   -1.148434
    108          6           0       -2.575155   -5.663633    0.890672
    109          6           0       -5.142012   -6.133215   -1.644442
    110          6           0       -6.562526   -5.871663   -1.198220
    111          7           0       -5.300698   -0.775403   -1.732232
    112          6           0       -4.962866   -1.741004   -2.705651
    113          6           0       -5.013295   -1.069703   -4.020655
    114          6           0       -5.357241    0.256100   -3.716605
    115          6           0       -5.490597    0.405660   -2.309717
    116          6           0       -4.713193   -1.672780   -5.274587
    117          6           0       -5.627411    1.565631   -4.265105
    118          8           0       -5.747380    2.024000   -5.400548
    119          6           0       -5.657464    2.616474   -3.072956
    120          6           0       -6.881659    3.474234   -3.240621
    121          8           0       -8.018370    2.980779   -3.135769
    122          8           0       -6.511646    4.767256   -3.280237
    123          6           0       -7.692481    5.658129   -3.434504
    124          1           0       -4.462955    1.877069    3.723764
    125          1           0       -4.428568   -4.323167    2.970487
    126          1           0       -4.517242   -3.621258   -3.269231
    127          1           0       -5.025121    4.330611   -0.523374
    128          1           0       -5.146035    3.900088    2.258191
    129          1           0       -2.920659    3.704086    0.270863
    130          1           0       -2.748769    2.647388    1.687965
    131          1           0       -2.881643    4.359928    1.950994
    132          1           0       -7.317486    3.596694    1.312974
    133          1           0       -7.639814    3.697426   -0.456532
    134          1           0       -6.305558    6.085146    0.334720
    135          1           0       -7.277658    5.648113    1.694465
    136          1           0       -5.000527    1.207069    5.648055
    137          1           0       -4.402218   -0.175240    6.502714
    138          1           0       -6.166155    0.026658    6.382190
    139          1           0       -4.976254   -2.206869    7.222664
    140          1           0       -5.912561   -3.803981    7.361530
    141          1           0       -6.669307   -2.292237    6.782412
    142          1           0       -4.662974   -5.903980    0.984102
    143          1           0       -3.238238   -5.244847   -1.544223
    144          1           0       -2.564669   -6.623586    1.440620
    145          1           0       -2.057586   -4.897691    1.452795
    146          1           0       -1.928172   -5.791465    0.024486
    147          1           0       -4.888810   -7.139028   -1.300371
    148          1           0       -5.106958   -6.145415   -2.728708
    149          1           0       -6.610677   -6.368175   -0.224443
    150          1           0       -7.270862   -6.308349   -1.899372
    151          1           0       -6.731915   -4.801566   -1.031342
    152          1           0       -5.473235   -1.341093   -5.969437
    153          1           0       -4.689403   -2.757854   -5.198349
    154          1           0       -3.721212   -1.252521   -5.460700
    155          1           0       -4.737851    3.200339   -3.127663
    156          1           0       -7.512791    6.276414   -4.319446
    157          1           0       -7.799240    6.182958   -2.466563
    158          1           0       -8.639305    5.195907   -3.688153
 ---------------------------------------------------------------------
 Rotational constants (GHZ):           0.0204478           0.0109869           0.0105078
 Leave Link  202 at Fri Sep 10 16:46:49 2021, MaxMem= 23488102400 cpu:               0.7 elap:               0.0
 (Enter /sw/apps/gaussian-16.0/g16/l301.exe)
 Standard basis: def2SVP (5D, 7F)
 Ernie: Thresh=  0.10000D-02 Tol=  0.10000D-05 Strict=F.
 There are  1658 symmetry adapted cartesian basis functions of A   symmetry.
 There are  1572 symmetry adapted basis functions of A   symmetry.
  1572 basis functions,  2678 primitive gaussians,  1658 cartesian basis functions
   312 alpha electrons      312 beta electrons
       nuclear repulsion energy     14928.9779554768 Hartrees.
 IExCor=20419 DFT=T Ex+Corr=CAM-B3LYP ExCW=0 ScaHFX=  1.000000
 ScaDFX=  1.000000  1.000000  1.000000  0.810000 ScalE2=  1.000000  1.000000
 IRadAn=      5 IRanWt=     -1 IRanGd=            0 ICorTp=0 IEmpDi=  4
 HFx  wShort=  0.000000 wLong=  0.330000 cFull=  0.190000 cShort=  0.000000 cLong=  0.460000
 DFx  wShort=  0.000000 wLong=  0.330000 cFull=  0.190000 cShort=  0.000000 cLong=  0.460000
 NAtoms=  158 NActive=  158 NUniq=  158 SFac= 1.00D+00 NAtFMM=   60 NAOKFM=T Big=T
 Integral buffers will be    131072 words long.
 Raffenetti 1 integral format.
 Two-electron integral symmetry is turned on.
 Leave Link  301 at Fri Sep 10 16:46:49 2021, MaxMem= 23488102400 cpu:               1.4 elap:               0.1
 (Enter /sw/apps/gaussian-16.0/g16/l302.exe)
 NPDir=0 NMtPBC=     1 NCelOv=     1 NCel=       1 NClECP=     1 NCelD=      1
         NCelK=      1 NCelE2=     1 NClLst=     1 CellRange=     0.0.
 One-electron integrals computed using PRISM.
 One-electron integral symmetry used in STVInt
   1 Symmetry operations used in ECPInt.
 ECPInt:  NShTT=  271216 NPrTT=  987664 LenC2=  137181 LenP2D=  286268.
 LDataN:  DoStor=T MaxTD1= 4 Len=   56
 NBasis=  1572 RedAO= T EigKep=  3.36D-04  NBF=  1572
 NBsUse=  1572 1.00D-06 EigRej= -1.00D+00 NBFU=  1572
 Precomputing XC quadrature grid using
 IXCGrd= 4 IRadAn=           5 IRanWt=          -1 IRanGd=           0 AccXCQ= 0.00D+00.
 Generated NRdTot=       0 NPtTot=           0 NUsed=           0 NTot=          32
 NSgBfM=  1124  1115  1119  1121  1124 MxSgAt=   158 MxSgA2=   155.
 Leave Link  302 at Fri Sep 10 16:46:54 2021, MaxMem= 23488102400 cpu:             121.8 elap:               5.1
 (Enter /sw/apps/gaussian-16.0/g16/l303.exe)
 DipDrv:  MaxL=1.
 Leave Link  303 at Fri Sep 10 16:46:54 2021, MaxMem= 23488102400 cpu:               8.9 elap:               0.4
 (Enter /sw/apps/gaussian-16.0/g16/l308.exe)
 Leave Link  308 at Fri Sep 10 16:46:55 2021, MaxMem= 23488102400 cpu:              13.3 elap:               0.6
 (Enter /sw/apps/gaussian-16.0/g16/l401.exe)
 ExpMin= 3.36D-02 ExpMax= 4.95D+03 ExpMxC= 7.45D+02 IAcc=3 IRadAn=         5 AccDes= 0.00D+00
 Harris functional with IExCor=20419 and IRadAn=       5 diagonalized for initial guess.
 HarFok:  IExCor=20419 AccDes= 0.00D+00 IRadAn=         5 IDoV= 1 UseB2=F ITyADJ=14
 ICtDFT=  3500011 ScaDFX=  1.000000  1.000000  1.000000  1.000000
 FoFCou: FMM=F IPFlag=           0 FMFlag=      100000 FMFlg1=        2001
         NFxFlg=           0 DoJE=T BraDBF=F KetDBF=T FulRan=T
         wScrn=  0.000000 ICntrl=       500 IOpCl=  0 I1Cent=   200000004 NGrid=           0
         NMat0=    1 NMatS0=      1 NMatT0=    0 NMatD0=    1 NMtDS0=    0 NMtDT0=    0
 Petite list used in FoFCou.
 Harris En= -3918.65800840673    
 JPrj=0 DoOrth=F DoCkMO=F.
 Leave Link  401 at Fri Sep 10 16:47:02 2021, MaxMem= 23488102400 cpu:             177.8 elap:               7.4
 (Enter /sw/apps/gaussian-16.0/g16/l502.exe)
 Integral symmetry usage will be decided dynamically.
 Closed shell SCF:
 Using DIIS extrapolation, IDIIS=  1040.
 NGot= 23488102400 LenX= 23482547354 LenY= 23479796732
 Requested convergence on RMS density matrix=1.00D-08 within 128 cycles.
 Requested convergence on MAX density matrix=1.00D-06.
 Requested convergence on             energy=1.00D-06.
 No special actions if energy rises.
 Fock matrices will be formed incrementally for  20 cycles.

 Cycle   1  Pass 1  IDiag  1:
 FoFJK:  IHMeth= 1 ICntrl=       0 DoSepK=T KAlg= 0 I1Cent=           0 FoldK=F
 IRaf=         1 NMat=       1 IRICut=       1 DoRegI=T DoRafI=F ISym2E= 0 IDoP0=0 IntGTp=1.
 FoFCou: FMM=T IPFlag=           0 FMFlag=      100000 FMFlg1=        2001
         NFxFlg=           0 DoJE=T BraDBF=F KetDBF=F FulRan=T
         wScrn=  0.000000 ICntrl=       500 IOpCl=  0 I1Cent=           0 NGrid=           0
         NMat0=    1 NMatS0=      1 NMatT0=    0 NMatD0=    1 NMtDS0=    0 NMtDT0=    0
 Symmetry not used in FoFCou.
 FMM levels:  10  Number of levels for PrismC:   9
 E= -4068.94968300183    
 DIIS: error= 2.04D-02 at cycle   1 NSaved=   1.
 NSaved= 1 IEnMin= 1 EnMin= -4068.94968300183     IErMin= 1 ErrMin= 2.04D-02
 ErrMax= 2.04D-02  0.00D+00 EMaxC= 1.00D-01 BMatC= 1.69D+00 BMatP= 1.69D+00
 IDIUse=3 WtCom= 7.96D-01 WtEn= 2.04D-01
 Coeff-Com:  0.100D+01
 Coeff-En:   0.100D+01
 Coeff:      0.100D+01
 Gap=     0.120 Goal=   None    Shift=    0.000
 GapD=    0.120 DampG=1.000 DampE=0.500 DampFc=0.5000 IDamp=-1.
 Damping current iteration by 5.00D-01
 RMSDP=1.57D-03 MaxDP=1.35D-01              OVMax= 2.05D-01

 Cycle   2  Pass 1  IDiag  1:
 RMSU=  7.70D-04    CP:  9.82D-01
 E= -4069.33834237418     Delta-E=       -0.388659372351 Rises=F Damp=T
 DIIS: error= 1.27D-02 at cycle   2 NSaved=   2.
 NSaved= 2 IEnMin= 2 EnMin= -4069.33834237418     IErMin= 2 ErrMin= 1.27D-02
 ErrMax= 1.27D-02  0.00D+00 EMaxC= 1.00D-01 BMatC= 3.07D-01 BMatP= 1.69D+00
 IDIUse=3 WtCom= 8.73D-01 WtEn= 1.27D-01
 Coeff-Com: -0.213D+00 0.121D+01
 Coeff-En:   0.000D+00 0.100D+01
 Coeff:     -0.186D+00 0.119D+01
 Gap=     0.135 Goal=   None    Shift=    0.000
 RMSDP=7.65D-04 MaxDP=9.40D-02 DE=-3.89D-01 OVMax= 1.93D-01

 Cycle   3  Pass 1  IDiag  1:
 RMSU=  7.33D-04    CP:  9.68D-01  1.24D+00
 E= -4069.62751974595     Delta-E=       -0.289177371771 Rises=F Damp=F
 DIIS: error= 1.57D-02 at cycle   3 NSaved=   3.
 NSaved= 3 IEnMin= 3 EnMin= -4069.62751974595     IErMin= 2 ErrMin= 1.27D-02
 ErrMax= 1.57D-02  0.00D+00 EMaxC= 1.00D-01 BMatC= 2.02D-01 BMatP= 3.07D-01
 IDIUse=3 WtCom= 8.43D-01 WtEn= 1.57D-01
 Coeff-Com: -0.267D+00 0.652D+00 0.615D+00
 Coeff-En:   0.000D+00 0.000D+00 0.100D+01
 Coeff:     -0.225D+00 0.549D+00 0.676D+00
 Gap=     0.122 Goal=   None    Shift=    0.000
 RMSDP=5.09D-04 MaxDP=5.01D-02 DE=-2.89D-01 OVMax= 1.48D-01

 Cycle   4  Pass 1  IDiag  1:
 RMSU=  2.66D-04    CP:  9.65D-01  1.55D+00  5.05D-01
 E= -4069.76508828110     Delta-E=       -0.137568535145 Rises=F Damp=F
 DIIS: error= 7.29D-03 at cycle   4 NSaved=   4.
 NSaved= 4 IEnMin= 4 EnMin= -4069.76508828110     IErMin= 4 ErrMin= 7.29D-03
 ErrMax= 7.29D-03  0.00D+00 EMaxC= 1.00D-01 BMatC= 5.06D-02 BMatP= 2.02D-01
 IDIUse=3 WtCom= 9.27D-01 WtEn= 7.29D-02
 Coeff-Com: -0.109D+00 0.226D+00 0.409D+00 0.474D+00
 Coeff-En:   0.000D+00 0.000D+00 0.221D+00 0.779D+00
 Coeff:     -0.101D+00 0.209D+00 0.395D+00 0.496D+00
 Gap=     0.121 Goal=   None    Shift=    0.000
 RMSDP=2.01D-04 MaxDP=2.09D-02 DE=-1.38D-01 OVMax= 6.52D-02

 Cycle   5  Pass 1  IDiag  1:
 RMSU=  7.64D-05    CP:  9.64D-01  1.49D+00  6.89D-01  5.49D-01
 E= -4069.81081699924     Delta-E=       -0.045728718145 Rises=F Damp=F
 DIIS: error= 8.04D-04 at cycle   5 NSaved=   5.
 NSaved= 5 IEnMin= 5 EnMin= -4069.81081699924     IErMin= 5 ErrMin= 8.04D-04
 ErrMax= 8.04D-04  0.00D+00 EMaxC= 1.00D-01 BMatC= 1.19D-03 BMatP= 5.06D-02
 IDIUse=3 WtCom= 9.92D-01 WtEn= 8.04D-03
 Coeff-Com: -0.361D-01 0.709D-01 0.166D+00 0.250D+00 0.548D+00
 Coeff-En:   0.000D+00 0.000D+00 0.000D+00 0.000D+00 0.100D+01
 Coeff:     -0.358D-01 0.704D-01 0.165D+00 0.248D+00 0.552D+00
 Gap=     0.120 Goal=   None    Shift=    0.000
 RMSDP=4.12D-05 MaxDP=4.29D-03 DE=-4.57D-02 OVMax= 1.85D-02

 Cycle   6  Pass 1  IDiag  1:
 RMSU=  3.05D-05    CP:  9.64D-01  1.49D+00  6.81D-01  6.21D-01  7.51D-01
 E= -4069.81184828473     Delta-E=       -0.001031285490 Rises=F Damp=F
 DIIS: error= 2.24D-04 at cycle   6 NSaved=   6.
 NSaved= 6 IEnMin= 6 EnMin= -4069.81184828473     IErMin= 6 ErrMin= 2.24D-04
 ErrMax= 2.24D-04  0.00D+00 EMaxC= 1.00D-01 BMatC= 1.81D-04 BMatP= 1.19D-03
 IDIUse=3 WtCom= 9.98D-01 WtEn= 2.24D-03
 Coeff-Com:  0.223D-02-0.663D-02 0.112D-01 0.402D-01 0.307D+00 0.646D+00
 Coeff-En:   0.000D+00 0.000D+00 0.000D+00 0.000D+00 0.107D+00 0.893D+00
 Coeff:      0.223D-02-0.662D-02 0.112D-01 0.401D-01 0.306D+00 0.647D+00
 Gap=     0.121 Goal=   None    Shift=    0.000
 RMSDP=1.61D-05 MaxDP=1.28D-03 DE=-1.03D-03 OVMax= 8.06D-03

 Cycle   7  Pass 1  IDiag  1:
 RMSU=  1.08D-05    CP:  9.64D-01  1.50D+00  6.86D-01  6.21D-01  8.55D-01
                    CP:  7.47D-01
 E= -4069.81204349439     Delta-E=       -0.000195209657 Rises=F Damp=F
 DIIS: error= 9.84D-05 at cycle   7 NSaved=   7.
 NSaved= 7 IEnMin= 7 EnMin= -4069.81204349439     IErMin= 7 ErrMin= 9.84D-05
 ErrMax= 9.84D-05  0.00D+00 EMaxC= 1.00D-01 BMatC= 2.15D-05 BMatP= 1.81D-04
 IDIUse=1 WtCom= 1.00D+00 WtEn= 0.00D+00
 Coeff-Com:  0.446D-02-0.977D-02-0.892D-02-0.367D-02 0.103D+00 0.331D+00
 Coeff-Com:  0.584D+00
 Coeff:      0.446D-02-0.977D-02-0.892D-02-0.367D-02 0.103D+00 0.331D+00
 Coeff:      0.584D+00
 Gap=     0.121 Goal=   None    Shift=    0.000
 RMSDP=6.47D-06 MaxDP=1.21D-03 DE=-1.95D-04 OVMax= 3.80D-03

 Cycle   8  Pass 1  IDiag  1:
 RMSU=  4.66D-06    CP:  9.64D-01  1.50D+00  6.87D-01  6.25D-01  8.59D-01
                    CP:  8.70D-01  8.23D-01
 E= -4069.81207002122     Delta-E=       -0.000026526825 Rises=F Damp=F
 DIIS: error= 5.32D-05 at cycle   8 NSaved=   8.
 NSaved= 8 IEnMin= 8 EnMin= -4069.81207002122     IErMin= 8 ErrMin= 5.32D-05
 ErrMax= 5.32D-05  0.00D+00 EMaxC= 1.00D-01 BMatC= 4.70D-06 BMatP= 2.15D-05
 IDIUse=1 WtCom= 1.00D+00 WtEn= 0.00D+00
 Coeff-Com:  0.215D-02-0.425D-02-0.773D-02-0.121D-01-0.115D-01 0.329D-01
 Coeff-Com:  0.336D+00 0.664D+00
 Coeff:      0.215D-02-0.425D-02-0.773D-02-0.121D-01-0.115D-01 0.329D-01
 Coeff:      0.336D+00 0.664D+00
 Gap=     0.121 Goal=   None    Shift=    0.000
 RMSDP=3.30D-06 MaxDP=4.65D-04 DE=-2.65D-05 OVMax= 1.15D-03

 Cycle   9  Pass 1  IDiag  1:
 RMSU=  1.92D-06    CP:  9.64D-01  1.50D+00  6.88D-01  6.27D-01  8.76D-01
                    CP:  8.97D-01  1.02D+00  9.46D-01
 E= -4069.81207759078     Delta-E=       -0.000007569564 Rises=F Damp=F
 DIIS: error= 1.99D-05 at cycle   9 NSaved=   9.
 NSaved= 9 IEnMin= 9 EnMin= -4069.81207759078     IErMin= 9 ErrMin= 1.99D-05
 ErrMax= 1.99D-05  0.00D+00 EMaxC= 1.00D-01 BMatC= 6.98D-07 BMatP= 4.70D-06
 IDIUse=1 WtCom= 1.00D+00 WtEn= 0.00D+00
 Coeff-Com:  0.464D-03-0.769D-03-0.266D-02-0.599D-02-0.212D-01-0.385D-01
 Coeff-Com:  0.100D+00 0.333D+00 0.635D+00
 Coeff:      0.464D-03-0.769D-03-0.266D-02-0.599D-02-0.212D-01-0.385D-01
 Coeff:      0.100D+00 0.333D+00 0.635D+00
 Gap=     0.121 Goal=   None    Shift=    0.000
 RMSDP=1.40D-06 MaxDP=1.71D-04 DE=-7.57D-06 OVMax= 7.82D-04

 Cycle  10  Pass 1  IDiag  1:
 RMSU=  9.36D-07    CP:  9.64D-01  1.50D+00  6.88D-01  6.27D-01  8.79D-01
                    CP:  9.10D-01  1.06D+00  1.11D+00  1.05D+00
 E= -4069.81207918145     Delta-E=       -0.000001590670 Rises=F Damp=F
 DIIS: error= 1.07D-05 at cycle  10 NSaved=  10.
 NSaved=10 IEnMin=10 EnMin= -4069.81207918145     IErMin=10 ErrMin= 1.07D-05
 ErrMax= 1.07D-05  0.00D+00 EMaxC= 1.00D-01 BMatC= 1.63D-07 BMatP= 6.98D-07
 IDIUse=1 WtCom= 1.00D+00 WtEn= 0.00D+00
 Coeff-Com: -0.425D-03 0.891D-03 0.123D-02 0.112D-02-0.380D-02-0.305D-01
 Coeff-Com: -0.473D-01-0.729D-01 0.246D+00 0.906D+00
 Coeff:     -0.425D-03 0.891D-03 0.123D-02 0.112D-02-0.380D-02-0.305D-01
 Coeff:     -0.473D-01-0.729D-01 0.246D+00 0.906D+00
 Gap=     0.121 Goal=   None    Shift=    0.000
 RMSDP=1.23D-06 MaxDP=1.49D-04 DE=-1.59D-06 OVMax= 6.13D-04

 Cycle  11  Pass 1  IDiag  1:
 RMSU=  5.22D-07    CP:  9.64D-01  1.50D+00  6.88D-01  6.27D-01  8.81D-01
                    CP:  9.20D-01  1.11D+00  1.22D+00  1.39D+00  1.37D+00
 E= -4069.81207996439     Delta-E=       -0.000000782944 Rises=F Damp=F
 DIIS: error= 4.03D-06 at cycle  11 NSaved=  11.
 NSaved=11 IEnMin=11 EnMin= -4069.81207996439     IErMin=11 ErrMin= 4.03D-06
 ErrMax= 4.03D-06  0.00D+00 EMaxC= 1.00D-01 BMatC= 6.12D-08 BMatP= 1.63D-07
 IDIUse=1 WtCom= 1.00D+00 WtEn= 0.00D+00
 Coeff-Com: -0.329D-03 0.640D-03 0.133D-02 0.212D-02 0.429D-02-0.831D-02
 Coeff-Com: -0.440D-01-0.130D+00-0.300D-01 0.478D+00 0.726D+00
 Coeff:     -0.329D-03 0.640D-03 0.133D-02 0.212D-02 0.429D-02-0.831D-02
 Coeff:     -0.440D-01-0.130D+00-0.300D-01 0.478D+00 0.726D+00
 Gap=     0.121 Goal=   None    Shift=    0.000
 RMSDP=6.79D-07 MaxDP=6.17D-05 DE=-7.83D-07 OVMax= 3.50D-04

 Cycle  12  Pass 1  IDiag  1:
 RMSU=  2.63D-07    CP:  9.64D-01  1.50D+00  6.88D-01  6.28D-01  8.82D-01
                    CP:  9.22D-01  1.13D+00  1.29D+00  1.55D+00  1.75D+00
                    CP:  1.19D+00
 E= -4069.81208022554     Delta-E=       -0.000000261141 Rises=F Damp=F
 DIIS: error= 2.81D-06 at cycle  12 NSaved=  12.
 NSaved=12 IEnMin=12 EnMin= -4069.81208022554     IErMin=12 ErrMin= 2.81D-06
 ErrMax= 2.81D-06  0.00D+00 EMaxC= 1.00D-01 BMatC= 1.36D-08 BMatP= 6.12D-08
 IDIUse=1 WtCom= 1.00D+00 WtEn= 0.00D+00
 Coeff-Com: -0.946D-06-0.147D-04 0.182D-03 0.515D-03 0.328D-02 0.411D-02
 Coeff-Com:  0.224D-02-0.334D-01-0.727D-01-0.649D-01 0.239D+00 0.922D+00
 Coeff:     -0.946D-06-0.147D-04 0.182D-03 0.515D-03 0.328D-02 0.411D-02
 Coeff:      0.224D-02-0.334D-01-0.727D-01-0.649D-01 0.239D+00 0.922D+00
 Gap=     0.121 Goal=   None    Shift=    0.000
 RMSDP=4.42D-07 MaxDP=3.06D-05 DE=-2.61D-07 OVMax= 2.84D-04

 Cycle  13  Pass 1  IDiag  1:
 RMSU=  1.69D-07    CP:  9.64D-01  1.50D+00  6.88D-01  6.28D-01  8.83D-01
                    CP:  9.23D-01  1.14D+00  1.32D+00  1.66D+00  1.98D+00
                    CP:  1.61D+00  1.26D+00
 E= -4069.81208031670     Delta-E=       -0.000000091160 Rises=F Damp=F
 DIIS: error= 1.74D-06 at cycle  13 NSaved=  13.
 NSaved=13 IEnMin=13 EnMin= -4069.81208031670     IErMin=13 ErrMin= 1.74D-06
 ErrMax= 1.74D-06  0.00D+00 EMaxC= 1.00D-01 BMatC= 8.68D-09 BMatP= 1.36D-08
 IDIUse=1 WtCom= 1.00D+00 WtEn= 0.00D+00
 Coeff-Com:  0.119D-03-0.244D-03-0.363D-03-0.442D-03 0.631D-03 0.512D-02
 Coeff-Com:  0.192D-01 0.231D-01-0.371D-01-0.235D+00-0.162D+00 0.632D+00
 Coeff-Com:  0.756D+00
 Coeff:      0.119D-03-0.244D-03-0.363D-03-0.442D-03 0.631D-03 0.512D-02
 Coeff:      0.192D-01 0.231D-01-0.371D-01-0.235D+00-0.162D+00 0.632D+00
 Coeff:      0.756D+00
 Gap=     0.121 Goal=   None    Shift=    0.000
 RMSDP=3.31D-07 MaxDP=2.16D-05 DE=-9.12D-08 OVMax= 1.74D-04

 Cycle  14  Pass 1  IDiag  1:
 RMSU=  7.98D-08    CP:  9.64D-01  1.50D+00  6.88D-01  6.28D-01  8.83D-01
                    CP:  9.23D-01  1.15D+00  1.34D+00  1.74D+00  2.17D+00
                    CP:  1.85D+00  1.78D+00  1.06D+00
 E= -4069.81208035303     Delta-E=       -0.000000036336 Rises=F Damp=F
 DIIS: error= 1.19D-06 at cycle  14 NSaved=  14.
 NSaved=14 IEnMin=14 EnMin= -4069.81208035303     IErMin=14 ErrMin= 1.19D-06
 ErrMax= 1.19D-06  0.00D+00 EMaxC= 1.00D-01 BMatC= 1.21D-09 BMatP= 8.68D-09
 IDIUse=1 WtCom= 1.00D+00 WtEn= 0.00D+00
 Coeff-Com:  0.683D-04-0.135D-03-0.252D-03-0.391D-03-0.459D-03 0.141D-02
 Coeff-Com:  0.108D-01 0.200D-01 0.179D-02-0.102D+00-0.152D+00 0.124D+00
 Coeff-Com:  0.382D+00 0.715D+00
 Coeff:      0.683D-04-0.135D-03-0.252D-03-0.391D-03-0.459D-03 0.141D-02
 Coeff:      0.108D-01 0.200D-01 0.179D-02-0.102D+00-0.152D+00 0.124D+00
 Coeff:      0.382D+00 0.715D+00
 Gap=     0.121 Goal=   None    Shift=    0.000
 RMSDP=1.08D-07 MaxDP=7.46D-06 DE=-3.63D-08 OVMax= 7.66D-05

 Cycle  15  Pass 1  IDiag  1:
 RMSU=  4.02D-08    CP:  9.64D-01  1.50D+00  6.88D-01  6.28D-01  8.83D-01
                    CP:  9.23D-01  1.15D+00  1.34D+00  1.75D+00  2.22D+00
                    CP:  1.96D+00  1.93D+00  1.29D+00  9.96D-01
 E= -4069.81208035751     Delta-E=       -0.000000004482 Rises=F Damp=F
 DIIS: error= 5.93D-07 at cycle  15 NSaved=  15.
 NSaved=15 IEnMin=15 EnMin= -4069.81208035751     IErMin=15 ErrMin= 5.93D-07
 ErrMax= 5.93D-07  0.00D+00 EMaxC= 1.00D-01 BMatC= 3.11D-10 BMatP= 1.21D-09
 IDIUse=1 WtCom= 1.00D+00 WtEn= 0.00D+00
 Coeff-Com:  0.103D-04-0.185D-04-0.511D-04-0.111D-03-0.345D-03-0.426D-03
 Coeff-Com:  0.181D-02 0.438D-02 0.887D-02-0.335D-02-0.444D-01-0.573D-01
 Coeff-Com:  0.307D-01 0.368D+00 0.692D+00
 Coeff:      0.103D-04-0.185D-04-0.511D-04-0.111D-03-0.345D-03-0.426D-03
 Coeff:      0.181D-02 0.438D-02 0.887D-02-0.335D-02-0.444D-01-0.573D-01
 Coeff:      0.307D-01 0.368D+00 0.692D+00
 Gap=     0.121 Goal=   None    Shift=    0.000
 RMSDP=4.02D-08 MaxDP=2.67D-06 DE=-4.48D-09 OVMax= 2.23D-05

 Cycle  16  Pass 1  IDiag  1:
 RMSU=  1.97D-08    CP:  9.64D-01  1.50D+00  6.88D-01  6.28D-01  8.83D-01
                    CP:  9.23D-01  1.15D+00  1.35D+00  1.76D+00  2.23D+00
                    CP:  1.99D+00  1.99D+00  1.36D+00  1.22D+00  1.11D+00
 E= -4069.81208035857     Delta-E=       -0.000000001051 Rises=F Damp=F
 DIIS: error= 2.01D-07 at cycle  16 NSaved=  16.
 NSaved=16 IEnMin=16 EnMin= -4069.81208035857     IErMin=16 ErrMin= 2.01D-07
 ErrMax= 2.01D-07  0.00D+00 EMaxC= 1.00D-01 BMatC= 7.99D-11 BMatP= 3.11D-10
 IDIUse=1 WtCom= 1.00D+00 WtEn= 0.00D+00
 Coeff-Com: -0.135D-04 0.274D-04 0.435D-04 0.469D-04-0.485D-04-0.637D-03
 Coeff-Com: -0.187D-02-0.387D-02 0.460D-02 0.253D-01 0.166D-01-0.621D-01
 Coeff-Com: -0.926D-01 0.139D-01 0.347D+00 0.754D+00
 Coeff:     -0.135D-04 0.274D-04 0.435D-04 0.469D-04-0.485D-04-0.637D-03
 Coeff:     -0.187D-02-0.387D-02 0.460D-02 0.253D-01 0.166D-01-0.621D-01
 Coeff:     -0.926D-01 0.139D-01 0.347D+00 0.754D+00
 Gap=     0.121 Goal=   None    Shift=    0.000
 RMSDP=2.55D-08 MaxDP=2.11D-06 DE=-1.05D-09 OVMax= 1.90D-05

 Cycle  17  Pass 1  IDiag  1:
 RMSU=  1.27D-08    CP:  9.64D-01  1.50D+00  6.88D-01  6.28D-01  8.83D-01
                    CP:  9.23D-01  1.15D+00  1.35D+00  1.76D+00  2.24D+00
                    CP:  2.00D+00  2.02D+00  1.41D+00  1.31D+00  1.41D+00
                    CP:  1.15D+00
 E= -4069.81208035894     Delta-E=       -0.000000000375 Rises=F Damp=F
 DIIS: error= 1.15D-07 at cycle  17 NSaved=  17.
 NSaved=17 IEnMin=17 EnMin= -4069.81208035894     IErMin=17 ErrMin= 1.15D-07
 ErrMax= 1.15D-07  0.00D+00 EMaxC= 1.00D-01 BMatC= 2.82D-11 BMatP= 7.99D-11
 IDIUse=1 WtCom= 1.00D+00 WtEn= 0.00D+00
 Coeff-Com: -0.955D-05 0.188D-04 0.362D-04 0.516D-04 0.752D-04-0.223D-03
 Coeff-Com: -0.132D-02-0.339D-02 0.648D-03 0.141D-01 0.203D-01-0.156D-01
 Coeff-Com: -0.572D-01-0.866D-01-0.388D-01 0.413D+00 0.755D+00
 Coeff:     -0.955D-05 0.188D-04 0.362D-04 0.516D-04 0.752D-04-0.223D-03
 Coeff:     -0.132D-02-0.339D-02 0.648D-03 0.141D-01 0.203D-01-0.156D-01
 Coeff:     -0.572D-01-0.866D-01-0.388D-01 0.413D+00 0.755D+00
 Gap=     0.121 Goal=   None    Shift=    0.000
 RMSDP=1.46D-08 MaxDP=9.76D-07 DE=-3.75D-10 OVMax= 7.87D-06

 Cycle  18  Pass 1  IDiag  1:
 RMSU=  5.77D-09    CP:  9.64D-01  1.50D+00  6.88D-01  6.28D-01  8.83D-01
                    CP:  9.23D-01  1.15D+00  1.35D+00  1.76D+00  2.24D+00
                    CP:  2.00D+00  2.03D+00  1.43D+00  1.39D+00  1.57D+00
                    CP:  1.55D+00  1.27D+00
 E= -4069.81208035891     Delta-E=        0.000000000029 Rises=F Damp=F
 DIIS: error= 8.35D-08 at cycle  18 NSaved=  18.
 NSaved=18 IEnMin=17 EnMin= -4069.81208035894     IErMin=18 ErrMin= 8.35D-08
 ErrMax= 8.35D-08  0.00D+00 EMaxC= 1.00D-01 BMatC= 7.26D-12 BMatP= 2.82D-11
 IDIUse=1 WtCom= 1.00D+00 WtEn= 0.00D+00
 Coeff-Com: -0.235D-07-0.325D-06 0.319D-05 0.913D-05 0.706D-04 0.130D-03
 Coeff-Com:  0.949D-04-0.478D-03-0.120D-02-0.284D-02 0.381D-02 0.167D-01
 Coeff-Com:  0.515D-02-0.437D-01-0.160D+00-0.381D-01 0.334D+00 0.886D+00
 Coeff:     -0.235D-07-0.325D-06 0.319D-05 0.913D-05 0.706D-04 0.130D-03
 Coeff:      0.949D-04-0.478D-03-0.120D-02-0.284D-02 0.381D-02 0.167D-01
 Coeff:      0.515D-02-0.437D-01-0.160D+00-0.381D-01 0.334D+00 0.886D+00
 Gap=     0.121 Goal=   None    Shift=    0.000
 RMSDP=1.08D-08 MaxDP=8.53D-07 DE= 2.91D-11 OVMax= 7.11D-06

 Cycle  19  Pass 1  IDiag  1:
 RMSU=  3.34D-09    CP:  9.64D-01  1.50D+00  6.88D-01  6.28D-01  8.83D-01
                    CP:  9.23D-01  1.15D+00  1.35D+00  1.76D+00  2.24D+00
                    CP:  2.01D+00  2.03D+00  1.44D+00  1.43D+00  1.70D+00
                    CP:  1.80D+00  1.74D+00  1.19D+00
 E= -4069.81208035918     Delta-E=       -0.000000000266 Rises=F Damp=F
 DIIS: error= 3.36D-08 at cycle  19 NSaved=  19.
 NSaved=19 IEnMin=19 EnMin= -4069.81208035918     IErMin=19 ErrMin= 3.36D-08
 ErrMax= 3.36D-08  0.00D+00 EMaxC= 1.00D-01 BMatC= 3.34D-12 BMatP= 7.26D-12
 IDIUse=1 WtCom= 1.00D+00 WtEn= 0.00D+00
 Coeff-Com:  0.340D-05-0.691D-05-0.111D-04-0.132D-04 0.214D-04 0.159D-03
 Coeff-Com:  0.556D-03 0.911D-03-0.887D-03-0.714D-02-0.526D-02 0.164D-01
 Coeff-Com:  0.241D-01 0.574D-02-0.953D-01-0.181D+00-0.111D+00 0.567D+00
 Coeff-Com:  0.787D+00
 Coeff:      0.340D-05-0.691D-05-0.111D-04-0.132D-04 0.214D-04 0.159D-03
 Coeff:      0.556D-03 0.911D-03-0.887D-03-0.714D-02-0.526D-02 0.164D-01
 Coeff:      0.241D-01 0.574D-02-0.953D-01-0.181D+00-0.111D+00 0.567D+00
 Coeff:      0.787D+00
 Gap=     0.121 Goal=   None    Shift=    0.000
 RMSDP=7.62D-09 MaxDP=5.22D-07 DE=-2.66D-10 OVMax= 4.22D-06

 SCF Done:  E(RCAM-B3LYP) =  -4069.81208036     A.U. after   19 cycles
            NFock= 19  Conv=0.76D-08     -V/T= 2.0102
 KE= 4.028801767342D+03 PE=-3.933896311690D+04 EE= 1.631137131372D+04
 Leave Link  502 at Fri Sep 10 16:56:49 2021, MaxMem= 23488102400 cpu:           13481.4 elap:             586.7
 (Enter /sw/apps/gaussian-16.0/g16/l801.exe)
 DoSCS=F DFT=T ScalE2(SS,OS)=  1.000000  1.000000
 ExpMin= 3.36D-02 ExpMax= 4.95D+03 ExpMxC= 7.45D+02 IAcc=3 IRadAn=         5 AccDes= 0.00D+00
 HarFok:  IExCor=  205 AccDes= 0.00D+00 IRadAn=         5 IDoV=-2 UseB2=F ITyADJ=14
 ICtDFT= 12500011 ScaDFX=  1.000000  1.000000  1.000000  1.000000
 GSVD:  LWork=       -9588 too small for GESVD, short by       45590 words or       45590 for optimal perf.
 Largest valence mixing into a core orbital is  2.03D-04
 Largest core mixing into a valence orbital is  5.25D-05
 Range of M.O.s used for correlation:    95  1572
 NBasis=  1572 NAE=   312 NBE=   312 NFC=    94 NFV=     0
 NROrb=   1478 NOA=   218 NOB=   218 NVA=  1260 NVB=  1260
 Leave Link  801 at Fri Sep 10 16:56:49 2021, MaxMem= 23488102400 cpu:               8.9 elap:               0.4
 (Enter /sw/apps/gaussian-16.0/g16/l914.exe)
 RHF ground state
 Two-electron integrals replicated using symmetry.
 MDV= 23488102400 DFT=T DoStab=F Mixed=T DoRPA=T DoScal=F NonHer=T
 Making orbital integer symmetry assigments:
 Orbital symmetries:
       Occupied  (A) (A) (A) (A) (A) (A) (A) (A) (A) (A) (A) (A)
                 (A) (A) (A) (A) (A) (A) (A) (A) (A) (A) (A) (A)
                 (A) (A) (A) (A) (A) (A) (A) (A) (A) (A) (A) (A)
                 (A) (A) (A) (A) (A) (A) (A) (A) (A) (A) (A) (A)
                 (A) (A) (A) (A) (A) (A) (A) (A) (A) (A) (A) (A)
                 (A) (A) (A) (A) (A) (A) (A) (A) (A) (A) (A) (A)
                 (A) (A) (A) (A) (A) (A) (A) (A) (A) (A) (A) (A)
                 (A) (A) (A) (A) (A) (A) (A) (A) (A) (A) (A) (A)
                 (A) (A) (A) (A) (A) (A) (A) (A) (A) (A) (A) (A)
                 (A) (A) (A) (A) (A) (A) (A) (A) (A) (A) (A) (A)
                 (A) (A) (A) (A) (A) (A) (A) (A) (A) (A) (A) (A)
                 (A) (A) (A) (A) (A) (A) (A) (A) (A) (A) (A) (A)
                 (A) (A) (A) (A) (A) (A) (A) (A) (A) (A) (A) (A)
                 (A) (A) (A) (A) (A) (A) (A) (A) (A) (A) (A) (A)
                 (A) (A) (A) (A) (A) (A) (A) (A) (A) (A) (A) (A)
                 (A) (A) (A) (A) (A) (A) (A) (A) (A) (A) (A) (A)
                 (A) (A) (A) (A) (A) (A) (A) (A) (A) (A) (A) (A)
                 (A) (A) (A) (A) (A) (A) (A) (A) (A) (A) (A) (A)
                 (A) (A) (A) (A) (A) (A) (A) (A) (A) (A) (A) (A)
                 (A) (A) (A) (A) (A) (A) (A) (A) (A) (A) (A) (A)
                 (A) (A) (A) (A) (A) (A) (A) (A) (A) (A) (A) (A)
                 (A) (A) (A) (A) (A) (A) (A) (A) (A) (A) (A) (A)
                 (A) (A) (A) (A) (A) (A) (A) (A) (A) (A) (A) (A)
                 (A) (A) (A) (A) (A) (A) (A) (A) (A) (A) (A) (A)
                 (A) (A) (A) (A) (A) (A) (A) (A) (A) (A) (A) (A)
                 (A) (A) (A) (A) (A) (A) (A) (A) (A) (A) (A) (A)
       Virtual   (A) (A) (A) (A) (A) (A) (A) (A) (A) (A) (A) (A)
                 (A) (A) (A) (A) (A) (A) (A) (A) (A) (A) (A) (A)
                 (A) (A) (A) (A) (A) (A) (A) (A) (A) (A) (A) (A)
                 (A) (A) (A) (A) (A) (A) (A) (A) (A) (A) (A) (A)
                 (A) (A) (A) (A) (A) (A) (A) (A) (A) (A) (A) (A)
                 (A) (A) (A) (A) (A) (A) (A) (A) (A) (A) (A) (A)
                 (A) (A) (A) (A) (A) (A) (A) (A) (A) (A) (A) (A)
                 (A) (A) (A) (A) (A) (A) (A) (A) (A) (A) (A) (A)
                 (A) (A) (A) (A) (A) (A) (A) (A) (A) (A) (A) (A)
                 (A) (A) (A) (A) (A) (A) (A) (A) (A) (A) (A) (A)
                 (A) (A) (A) (A) (A) (A) (A) (A) (A) (A) (A) (A)
                 (A) (A) (A) (A) (A) (A) (A) (A) (A) (A) (A) (A)
                 (A) (A) (A) (A) (A) (A) (A) (A) (A) (A) (A) (A)
                 (A) (A) (A) (A) (A) (A) (A) (A) (A) (A) (A) (A)
                 (A) (A) (A) (A) (A) (A) (A) (A) (A) (A) (A) (A)
                 (A) (A) (A) (A) (A) (A) (A) (A) (A) (A) (A) (A)
                 (A) (A) (A) (A) (A) (A) (A) (A) (A) (A) (A) (A)
                 (A) (A) (A) (A) (A) (A) (A) (A) (A) (A) (A) (A)
                 (A) (A) (A) (A) (A) (A) (A) (A) (A) (A) (A) (A)
                 (A) (A) (A) (A) (A) (A) (A) (A) (A) (A) (A) (A)
                 (A) (A) (A) (A) (A) (A) (A) (A) (A) (A) (A) (A)
                 (A) (A) (A) (A) (A) (A) (A) (A) (A) (A) (A) (A)
                 (A) (A) (A) (A) (A) (A) (A) (A) (A) (A) (A) (A)
                 (A) (A) (A) (A) (A) (A) (A) (A) (A) (A) (A) (A)
                 (A) (A) (A) (A) (A) (A) (A) (A) (A) (A) (A) (A)
                 (A) (A) (A) (A) (A) (A) (A) (A) (A) (A) (A) (A)
                 (A) (A) (A) (A) (A) (A) (A) (A) (A) (A) (A) (A)
                 (A) (A) (A) (A) (A) (A) (A) (A) (A) (A) (A) (A)
                 (A) (A) (A) (A) (A) (A) (A) (A) (A) (A) (A) (A)
                 (A) (A) (A) (A) (A) (A) (A) (A) (A) (A) (A) (A)
                 (A) (A) (A) (A) (A) (A) (A) (A) (A) (A) (A) (A)
                 (A) (A) (A) (A) (A) (A) (A) (A) (A) (A) (A) (A)
                 (A) (A) (A) (A) (A) (A) (A) (A) (A) (A) (A) (A)
                 (A) (A) (A) (A) (A) (A) (A) (A) (A) (A) (A) (A)
                 (A) (A) (A) (A) (A) (A) (A) (A) (A) (A) (A) (A)
                 (A) (A) (A) (A) (A) (A) (A) (A) (A) (A) (A) (A)
                 (A) (A) (A) (A) (A) (A) (A) (A) (A) (A) (A) (A)
                 (A) (A) (A) (A) (A) (A) (A) (A) (A) (A) (A) (A)
                 (A) (A) (A) (A) (A) (A) (A) (A) (A) (A) (A) (A)
                 (A) (A) (A) (A) (A) (A) (A) (A) (A) (A) (A) (A)
                 (A) (A) (A) (A) (A) (A) (A) (A) (A) (A) (A) (A)
                 (A) (A) (A) (A) (A) (A) (A) (A) (A) (A) (A) (A)
                 (A) (A) (A) (A) (A) (A) (A) (A) (A) (A) (A) (A)
                 (A) (A) (A) (A) (A) (A) (A) (A) (A) (A) (A) (A)
                 (A) (A) (A) (A) (A) (A) (A) (A) (A) (A) (A) (A)
                 (A) (A) (A) (A) (A) (A) (A) (A) (A) (A) (A) (A)
                 (A) (A) (A) (A) (A) (A) (A) (A) (A) (A) (A) (A)
                 (A) (A) (A) (A) (A) (A) (A) (A) (A) (A) (A) (A)
                 (A) (A) (A) (A) (A) (A) (A) (A) (A) (A) (A) (A)
                 (A) (A) (A) (A) (A) (A) (A) (A) (A) (A) (A) (A)
                 (A) (A) (A) (A) (A) (A) (A) (A) (A) (A) (A) (A)
                 (A) (A) (A) (A) (A) (A) (A) (A) (A) (A) (A) (A)
                 (A) (A) (A) (A) (A) (A) (A) (A) (A) (A) (A) (A)
                 (A) (A) (A) (A) (A) (A) (A) (A) (A) (A) (A) (A)
                 (A) (A) (A) (A) (A) (A) (A) (A) (A) (A) (A) (A)
                 (A) (A) (A) (A) (A) (A) (A) (A) (A) (A) (A) (A)
                 (A) (A) (A) (A) (A) (A) (A) (A) (A) (A) (A) (A)
                 (A) (A) (A) (A) (A) (A) (A) (A) (A) (A) (A) (A)
                 (A) (A) (A) (A) (A) (A) (A) (A) (A) (A) (A) (A)
                 (A) (A) (A) (A) (A) (A) (A) (A) (A) (A) (A) (A)
                 (A) (A) (A) (A) (A) (A) (A) (A) (A) (A) (A) (A)
                 (A) (A) (A) (A) (A) (A) (A) (A) (A) (A) (A) (A)
                 (A) (A) (A) (A) (A) (A) (A) (A) (A) (A) (A) (A)
                 (A) (A) (A) (A) (A) (A) (A) (A) (A) (A) (A) (A)
                 (A) (A) (A) (A) (A) (A) (A) (A) (A) (A) (A) (A)
                 (A) (A) (A) (A) (A) (A) (A) (A) (A) (A) (A) (A)
                 (A) (A) (A) (A) (A) (A) (A) (A) (A) (A) (A) (A)
                 (A) (A) (A) (A) (A) (A) (A) (A) (A) (A) (A) (A)
                 (A) (A) (A) (A) (A) (A) (A) (A) (A) (A) (A) (A)
                 (A) (A) (A) (A) (A) (A) (A) (A) (A) (A) (A) (A)
                 (A) (A) (A) (A) (A) (A) (A) (A) (A) (A) (A) (A)
                 (A) (A) (A) (A) (A) (A) (A) (A) (A) (A) (A) (A)
                 (A) (A) (A) (A) (A) (A) (A) (A) (A) (A) (A) (A)
                 (A) (A) (A) (A) (A) (A) (A) (A) (A) (A) (A) (A)
                 (A) (A) (A) (A) (A) (A) (A) (A) (A) (A) (A) (A)
                 (A) (A) (A) (A) (A) (A) (A) (A) (A) (A) (A) (A)
                 (A) (A) (A) (A) (A) (A) (A) (A) (A) (A) (A) (A)
                 (A) (A) (A) (A) (A) (A) (A) (A) (A) (A) (A) (A)
                 (A) (A) (A) (A) (A) (A) (A) (A) (A) (A) (A) (A)
                 (A) (A) (A) (A) (A) (A) (A) (A) (A) (A) (A) (A)
                 (A) (A) (A) (A) (A) (A) (A) (A) (A) (A) (A) (A)
                 (A) (A) (A) (A) (A) (A) (A) (A) (A) (A) (A) (A)
                 (A) (A) (A) (A) (A) (A) (A) (A) (A) (A) (A) (A)
                 (A) (A) (A) (A) (A) (A) (A) (A) (A) (A) (A) (A)
                 (A) (A) (A) (A) (A) (A) (A) (A) (A) (A) (A) (A)
                 (A) (A) (A) (A) (A) (A) (A) (A) (A) (A) (A) (A)
                 (A) (A) (A) (A) (A) (A) (A) (A) (A) (A) (A) (A)
                 (A) (A) (A) (A) (A) (A) (A) (A) (A) (A) (A) (A)
                 (A) (A) (A) (A) (A) (A) (A) (A) (A) (A) (A) (A)
                 (A) (A) (A) (A) (A) (A) (A) (A) (A) (A) (A) (A)
                 (A) (A) (A) (A) (A) (A) (A) (A) (A) (A) (A) (A)
                 (A) (A) (A) (A) (A) (A) (A) (A) (A) (A) (A) (A)
                 (A) (A) (A) (A) (A) (A) (A) (A) (A) (A) (A) (A)
                 (A) (A) (A) (A) (A) (A) (A) (A) (A) (A) (A) (A)
                 (A) (A) (A) (A) (A) (A) (A) (A) (A) (A) (A) (A)
                 (A) (A) (A) (A) (A) (A) (A) (A) (A) (A) (A) (A)
                 (A) (A) (A) (A) (A) (A) (A) (A) (A) (A) (A) (A)
                 (A) (A) (A) (A) (A) (A) (A) (A) (A) (A) (A) (A)
                 (A) (A) (A) (A) (A) (A) (A) (A) (A) (A) (A) (A)
                 (A) (A) (A) (A) (A) (A) (A) (A) (A) (A) (A) (A)
                 (A) (A) (A) (A) (A) (A) (A) (A) (A) (A) (A) (A)
                 (A) (A) (A) (A) (A) (A) (A) (A) (A) (A) (A) (A)
                 (A) (A) (A) (A) (A) (A) (A) (A) (A) (A) (A) (A)
                 (A) (A) (A) (A) (A) (A) (A) (A) (A) (A) (A) (A)
                 (A) (A) (A) (A) (A) (A) (A) (A) (A) (A) (A) (A)
    20 initial guesses have been made.
 Convergence on wavefunction:    0.001000000000000
 Davidson Disk Diagonalization:  ConvIn= 1.00D-03 SkipCon=T Conv= 1.00D-03.
 Max sub-space:  2000 roots to seek:    20 dimension of matrix:       549360
 Iteration     1 Dimension    20 NMult     0 NNew     20
 CISAX will form    20 AO SS matrices at one time.
 NMat=    20 NSing=    20 JSym2X= 0.
 FoFJK:  IHMeth= 1 ICntrl=       0 DoSepK=T KAlg= 0 I1Cent=           0 FoldK=F
 IRaf=         1 NMat=      40 IRICut=       1 DoRegI=T DoRafI=F ISym2E= 0 IDoP0=3 IntGTp=3.
 FoFCou: FMM=T IPFlag=           0 FMFlag=      100000 FMFlg1=        2001
         NFxFlg=           0 DoJE=F BraDBF=F KetDBF=F FulRan=T
         wScrn=  0.000000 ICntrl=       500 IOpCl=  0 I1Cent=           0 NGrid=           0
         NMat0=   20 NMatS0=     20 NMatT0=    0 NMatD0=   20 NMtDS0=    0 NMtDT0=    0
 Symmetry not used in FoFCou.
 FMM levels:  10  Number of levels for PrismC:   9
 New state      2 was old state      6
 New state      3 was old state      7
 New state      5 was old state      2
 Excitation Energies [eV] at current iteration:
 Root      1 :     2.484900382740872
 Root      2 :     2.611478996952874
 Root      3 :     2.617173924848704
 Root      4 :     2.620739466214838
 Root      5 :     2.668339221187243
 Root      6 :     2.701839976390541
 Root      7 :     3.270934685257759
 Root      8 :     3.418761141752944
 Root      9 :     3.633223967043879
 Root     10 :     3.668119358074990
 Root     11 :     3.738507642754222
 Root     12 :     3.760045443347678
 Root     13 :     4.289188659656930
 Root     14 :     4.319999789936861
 Root     15 :     4.386291564665928
 Root     16 :     4.556444258274510
 Root     17 :     4.715138433631456
 Root     18 :     4.752304981052653
 Root     19 :     4.850977841196147
 Root     20 :     4.860946517693916
 Iteration     2 Dimension    30 NMult    20 NNew     10
 CISAX will form    10 AO SS matrices at one time.
 NMat=    10 NSing=    10 JSym2X= 0.
 New state      1 was old state      5
 Root      1 not converged, maximum delta is    0.152342082332844
 Root      2 not converged, maximum delta is    0.148714933920815
 Root      3 not converged, maximum delta is    0.190392795759725
 New state      4 was old state      1
 Root      4 not converged, maximum delta is    0.002542194325352
 New state      5 was old state      4
 Root      5 not converged, maximum delta is    0.004568080494714
 Excitation Energies [eV] at current iteration:
 Root      1 :     1.794359984981837   Change is   -0.873979236205406
 Root      2 :     2.195794922962900   Change is   -0.415684073989974
 Root      3 :     2.237333662100112   Change is   -0.379840262748592
 Root      4 :     2.484455352878247   Change is   -0.000445029862625
 Root      5 :     2.620196417358346   Change is   -0.000543048856493
 Iteration     3 Dimension    40 NMult    30 NNew     10
 CISAX will form    10 AO SS matrices at one time.
 NMat=    10 NSing=    10 JSym2X= 0.
 Root      1 not converged, maximum delta is    0.059271629122197
 Root      2 not converged, maximum delta is    0.310163247801398
 Root      3 not converged, maximum delta is    0.084750997638976
 No map to state      4
 New state      5 was old state      4
 Root      5 has converged.
 Excitation Energies [eV] at current iteration:
 Root      1 :     1.687685633884143   Change is   -0.106674351097694
 Root      2 :     1.910704616944762   Change is   -0.285090306018138
 Root      3 :     2.195322100448115   Change is   -0.042011561651997
 Root      4 :     2.274397431595393
 Root      5 :     2.484452497141103   Change is   -0.000002855737145
 Iteration     4 Dimension    48 NMult    40 NNew      8
 CISAX will form     8 AO SS matrices at one time.
 NMat=     8 NSing=     8 JSym2X= 0.
 Root      1 not converged, maximum delta is    0.013641936772130
 Root      2 not converged, maximum delta is    0.179344403929229
 Root      3 not converged, maximum delta is    0.264952030525686
 Root      4 not converged, maximum delta is    0.241652388232554
 Root      5 has converged.
 Excitation Energies [eV] at current iteration:
 Root      1 :     1.670915245955923   Change is   -0.016770387928220
 Root      2 :     1.706376067422307   Change is   -0.204328549522455
 Root      3 :     2.185900220687347   Change is   -0.009421879760767
 Root      4 :     2.196160385739447   Change is   -0.078237045855946
 Root      5 :     2.484452495412379   Change is   -0.000000001728723
 Iteration     5 Dimension    56 NMult    48 NNew      8
 CISAX will form     8 AO SS matrices at one time.
 NMat=     8 NSing=     8 JSym2X= 0.
 Root      1 not converged, maximum delta is    0.007507530084878
 Root      2 not converged, maximum delta is    0.013720063062558
 Root      3 not converged, maximum delta is    0.084794121314823
 Root      4 not converged, maximum delta is    0.083698127705159
 Root      5 has converged.
 Excitation Energies [eV] at current iteration:
 Root      1 :     1.669118695399663   Change is   -0.001796550556260
 Root      2 :     1.685056280527526   Change is   -0.021319786894781
 Root      3 :     2.184348492326398   Change is   -0.001551728360950
 Root      4 :     2.192956461053738   Change is   -0.003203924685709
 Root      5 :     2.484452494799707   Change is   -0.000000000612672
 Iteration     6 Dimension    64 NMult    56 NNew      8
 CISAX will form     8 AO SS matrices at one time.
 NMat=     8 NSing=     8 JSym2X= 0.
 Root      1 not converged, maximum delta is    0.004737730949451
 Root      2 not converged, maximum delta is    0.004807117757467
 Root      3 not converged, maximum delta is    0.011080770518257
 Root      4 not converged, maximum delta is    0.011079343872008
 Root      5 has converged.
 Excitation Energies [eV] at current iteration:
 Root      1 :     1.668858988701827   Change is   -0.000259706697836
 Root      2 :     1.682381170603768   Change is   -0.002675109923758
 Root      3 :     2.184102878021946   Change is   -0.000245614304452
 Root      4 :     2.192620256559895   Change is   -0.000336204493843
 Root      5 :     2.484452494609248   Change is   -0.000000000190459
 Iteration     7 Dimension    72 NMult    64 NNew      8
 CISAX will form     8 AO SS matrices at one time.
 NMat=     8 NSing=     8 JSym2X= 0.
 Root      1 has converged.
 Root      2 not converged, maximum delta is    0.001555113663598
 Root      3 not converged, maximum delta is    0.001543479211773
 Root      4 not converged, maximum delta is    0.001665974086707
 Root      5 has converged.
 Excitation Energies [eV] at current iteration:
 Root      1 :     1.668833163033229   Change is   -0.000025825668597
 Root      2 :     1.682078842973099   Change is   -0.000302327630669
[...]
 Alpha virt. eigenvalues --    1.83590   1.83704   1.83969   1.84027   1.84291
 Alpha virt. eigenvalues --    1.84386   1.84648   1.84760   1.84883   1.85030
 Alpha virt. eigenvalues --    1.85219   1.85236   1.85399   1.85422   1.85589
 Alpha virt. eigenvalues --    1.85813   1.86007   1.86299   1.86485   1.86517
 Alpha virt. eigenvalues --    1.86722   1.86756   1.86973   1.86985   1.87140
 Alpha virt. eigenvalues --    1.87396   1.87577   1.87625   1.87811   1.87866
 Alpha virt. eigenvalues --    1.87986   1.88160   1.88284   1.88488   1.88686
 Alpha virt. eigenvalues --    1.88791   1.89044   1.89060   1.89242   1.89565
 Alpha virt. eigenvalues --    1.89687   1.89762   1.89971   1.90068   1.90287
 Alpha virt. eigenvalues --    1.90701   1.91008   1.91301   1.91384   1.91616
 Alpha virt. eigenvalues --    1.91684   1.92107   1.92268   1.92601   1.92758
 Alpha virt. eigenvalues --    1.92927   1.93270   1.93274   1.93654   1.94215
 Alpha virt. eigenvalues --    1.94446   1.94627   1.94959   1.95396   1.95686
 Alpha virt. eigenvalues --    1.95779   1.95905   1.95954   1.96084   1.96171
 Alpha virt. eigenvalues --    1.96257   1.96538   1.96601   1.96851   1.97047
 Alpha virt. eigenvalues --    1.97391   1.97652   1.97779   1.97894   1.98131
 Alpha virt. eigenvalues --    1.98266   1.98420   1.98633   1.99090   1.99202
 Alpha virt. eigenvalues --    1.99790   2.00015   2.00605   2.00843   2.00952
 Alpha virt. eigenvalues --    2.01187   2.01448   2.01609   2.01658   2.01670
 Alpha virt. eigenvalues --    2.01675   2.01901   2.02736   2.02814   2.03175
 Alpha virt. eigenvalues --    2.03326   2.03355   2.03446   2.03462   2.03604
 Alpha virt. eigenvalues --    2.03985   2.04135   2.04903   2.05091   2.05454
 Alpha virt. eigenvalues --    2.05742   2.06017   2.06375   2.06862   2.07084
 Alpha virt. eigenvalues --    2.07136   2.07452   2.08506   2.08669   2.08936
 Alpha virt. eigenvalues --    2.09090   2.09550   2.09695   2.10695   2.11132
 Alpha virt. eigenvalues --    2.11200   2.11502   2.11511   2.11604   2.11683
 Alpha virt. eigenvalues --    2.11955   2.12423   2.12548   2.12752   2.12789
 Alpha virt. eigenvalues --    2.12923   2.12973   2.13706   2.13752   2.14064
 Alpha virt. eigenvalues --    2.14454   2.15279   2.15513   2.15885   2.16189
 Alpha virt. eigenvalues --    2.16460   2.16710   2.16713   2.17254   2.17358
 Alpha virt. eigenvalues --    2.17645   2.17821   2.18000   2.18035   2.18151
 Alpha virt. eigenvalues --    2.18277   2.18734   2.18832   2.19302   2.19598
 Alpha virt. eigenvalues --    2.19893   2.20003   2.20163   2.20333   2.20521
 Alpha virt. eigenvalues --    2.21068   2.21347   2.21608   2.21700   2.21842
 Alpha virt. eigenvalues --    2.21945   2.22630   2.22807   2.23252   2.23473
 Alpha virt. eigenvalues --    2.24333   2.24542   2.24871   2.25142   2.26257
 Alpha virt. eigenvalues --    2.26520   2.26717   2.27059   2.27109   2.27285
 Alpha virt. eigenvalues --    2.28096   2.28405   2.29216   2.29553   2.29694
 Alpha virt. eigenvalues --    2.29966   2.30419   2.30678   2.30869   2.31031
 Alpha virt. eigenvalues --    2.31140   2.31333   2.32051   2.32374   2.33089
 Alpha virt. eigenvalues --    2.33313   2.33406   2.33591   2.34077   2.34285
 Alpha virt. eigenvalues --    2.35327   2.35355   2.35762   2.35991   2.36271
 Alpha virt. eigenvalues --    2.36420   2.36573   2.36598   2.37588   2.37813
 Alpha virt. eigenvalues --    2.38182   2.38488   2.38832   2.38846   2.39561
 Alpha virt. eigenvalues --    2.39757   2.40112   2.40417   2.40451   2.40894
 Alpha virt. eigenvalues --    2.41240   2.41284   2.41615   2.41801   2.41998
 Alpha virt. eigenvalues --    2.42185   2.42863   2.42975   2.43063   2.43486
 Alpha virt. eigenvalues --    2.44067   2.44115   2.44683   2.44855   2.44896
 Alpha virt. eigenvalues --    2.45086   2.45493   2.45664   2.46234   2.46358
 Alpha virt. eigenvalues --    2.46430   2.46577   2.46752   2.46860   2.47191
 Alpha virt. eigenvalues --    2.47491   2.47653   2.48009   2.49238   2.49541
 Alpha virt. eigenvalues --    2.49989   2.50019   2.50472   2.50549   2.51080
 Alpha virt. eigenvalues --    2.51335   2.51693   2.51839   2.52401   2.52451
 Alpha virt. eigenvalues --    2.52768   2.53246   2.53857   2.54068   2.54082
 Alpha virt. eigenvalues --    2.54396   2.54723   2.54911   2.55450   2.55768
 Alpha virt. eigenvalues --    2.57804   2.58179   2.58583   2.59038   2.60164
 Alpha virt. eigenvalues --    2.60346   2.60579   2.61004   2.61650   2.61932
 Alpha virt. eigenvalues --    2.62491   2.62521   2.62904   2.63222   2.63895
 Alpha virt. eigenvalues --    2.64161   2.64295   2.64616   2.65022   2.65220
 Alpha virt. eigenvalues --    2.65752   2.65928   2.66703   2.66860   2.66934
 Alpha virt. eigenvalues --    2.67159   2.67845   2.68093   2.68797   2.68902
 Alpha virt. eigenvalues --    2.68975   2.69077   2.69322   2.69684   2.69939
 Alpha virt. eigenvalues --    2.70240   2.70921   2.71137   2.71951   2.71990
 Alpha virt. eigenvalues --    2.72530   2.72605   2.72780   2.72783   2.73193
 Alpha virt. eigenvalues --    2.73421   2.73474   2.73478   2.74452   2.74585
 Alpha virt. eigenvalues --    2.74921   2.75124   2.76523   2.76622   2.77126
 Alpha virt. eigenvalues --    2.77181   2.77390   2.77674   2.78101   2.78366
 Alpha virt. eigenvalues --    2.78672   2.78791   2.79074   2.79217   2.80272
 Alpha virt. eigenvalues --    2.80323   2.80541   2.80725   2.81060   2.81209
 Alpha virt. eigenvalues --    2.81885   2.82027   2.82277   2.82433   2.83691
 Alpha virt. eigenvalues --    2.83709   2.83913   2.83935   2.84484   2.84614
 Alpha virt. eigenvalues --    2.84808   2.85013   2.85591   2.85768   2.86717
 Alpha virt. eigenvalues --    2.86924   2.87192   2.87557   2.88078   2.88296
 Alpha virt. eigenvalues --    2.88455   2.88695   2.88869   2.88945   2.90451
 Alpha virt. eigenvalues --    2.90734   2.91113   2.91198   2.93113   2.93389
 Alpha virt. eigenvalues --    2.93858   2.94142   2.94473   2.94683   2.95340
 Alpha virt. eigenvalues --    2.95523   2.95820   2.96147   2.96368   2.96447
 Alpha virt. eigenvalues --    2.96889   2.97127   2.97779   2.98117   2.98151
 Alpha virt. eigenvalues --    2.98308   2.98381   2.98558   2.98640   2.98817
 Alpha virt. eigenvalues --    2.98822   2.99003   2.99504   2.99882   2.99981
 Alpha virt. eigenvalues --    3.00032   3.00171   3.00406   3.00418   3.01059
 Alpha virt. eigenvalues --    3.01908   3.01973   3.02021   3.02161   3.02679
 Alpha virt. eigenvalues --    3.02838   3.02941   3.03261   3.03380   3.03769
 Alpha virt. eigenvalues --    3.04090   3.04135   3.04403   3.04479   3.04522
 Alpha virt. eigenvalues --    3.04780   3.05224   3.05465   3.06058   3.06318
 Alpha virt. eigenvalues --    3.06774   3.07051   3.08017   3.08074   3.09354
 Alpha virt. eigenvalues --    3.09500   3.09652   3.10403   3.10457   3.10803
 Alpha virt. eigenvalues --    3.11242   3.11680   3.11912   3.12045   3.12074
 Alpha virt. eigenvalues --    3.12362   3.13245   3.13560   3.13691   3.13790
 Alpha virt. eigenvalues --    3.14045   3.14459   3.15823   3.16114   3.17207
 Alpha virt. eigenvalues --    3.17572   3.17951   3.17986   3.19054   3.19101
 Alpha virt. eigenvalues --    3.22251   3.22596   3.23893   3.24482   3.24621
 Alpha virt. eigenvalues --    3.25216   3.26449   3.26721   3.27459   3.27566
 Alpha virt. eigenvalues --    3.29046   3.29207   3.31438   3.31468   3.33258
 Alpha virt. eigenvalues --    3.33361   3.40224   3.40579   3.42738   3.42879
 Alpha virt. eigenvalues --    3.48606   3.48739   3.49971   3.50357   3.50903
 Alpha virt. eigenvalues --    3.51417   3.56486   3.57076   3.59035   3.59438
 Alpha virt. eigenvalues --    3.62567   3.62781   3.66088   3.66175   3.67133
 Alpha virt. eigenvalues --    3.67520   3.73218   3.74008   3.76003   3.76673
          Condensed to atoms (all electrons):
 Mulliken charges:
               1
     1  Mg   0.838731
     2  C   -0.002971
     3  C   -0.093522
     4  C   -0.046394
     5  C   -0.063942
     6  N   -0.256812
     7  C   -0.052237
     8  C   -0.014070
     9  C   -0.087084
    10  C    0.046297
    11  C    0.104737
    12  C    0.053284
    13  C   -0.072059
    14  H    0.036320
    15  N   -0.433096
    16  C    0.168270
    17  C   -0.176891
    18  C   -0.004363
    19  C    0.148576
    20  C    0.110010
    21  C    0.011504
    22  O   -0.250541
    23  C    0.062683
    24  N   -0.341096
    25  C    0.041278
    26  C   -0.028044
    27  C   -0.023958
    28  C    0.074715
    29  C    0.076185
    30  C    0.035228
    31  C   -0.004440
    32  N   -0.310521
    33  C    0.080472
    34  C   -0.169536
    35  C    0.008382
    36  C    0.082996
    37  C    0.127315
    38  C    0.046058
    39  O   -0.188304
    40  C   -0.005301
    41  C    0.213000
    42  O   -0.257611
    43  O   -0.304584
    44  C    0.157837
    45  H   -0.017183
    46  H   -0.017393
    47  H   -0.041380
    48  H    0.001051
    49  H   -0.003456
    50  H    0.025478
    51  H    0.016355
    52  H    0.017030
    53  H    0.011751
    54  H    0.043762
    55  H    0.017880
    56  H    0.018721
    57  H    0.006495
    58  H    0.026873
    59  H    0.039917
    60  H    0.038026
    61  H    0.034815
    62  H    0.031306
    63  H    0.015564
    64  H    0.009705
    65  H    0.022823
    66  H    0.012835
    67  H    0.004968
    68  H    0.005890
    69  H    0.005303
    70  H    0.007152
    71  H    0.018224
    72  H    0.029504
    73  H    0.047766
    74  H    0.009258
    75  H    0.046147
    76  H    0.035416
    77  H    0.043087
    78  H    0.046809
    79  H    0.052996
    80  Mg   0.838175
    81  C   -0.017237
    82  C   -0.088121
    83  C   -0.045300
    84  C   -0.063428
    85  N   -0.254650
    86  C   -0.049969
    87  C   -0.015067
    88  C   -0.090401
    89  C    0.045762
    90  C    0.114323
    91  C    0.062579
    92  C   -0.077637
    93  H    0.034279
    94  N   -0.423561
    95  C    0.163171
    96  C   -0.174756
    97  C   -0.007771
    98  C    0.152291
    99  C    0.099467
   100  C    0.015373
   101  O   -0.252831
   102  C    0.061290
   103  N   -0.350021
   104  C    0.038407
   105  C   -0.020527
   106  C   -0.034874
   107  C    0.089075
   108  C    0.072368
   109  C    0.034594
   110  C   -0.007556
   111  N   -0.324026
   112  C    0.078306
   113  C   -0.163113
   114  C    0.001687
   115  C    0.096366
   116  C    0.131661
   117  C    0.041847
   118  O   -0.189216
   119  C    0.001124
   120  C    0.211179
   121  O   -0.250951
   122  O   -0.305968
   123  C    0.152127
   124  H   -0.019528
   125  H   -0.015100
   126  H   -0.040191
   127  H   -0.001587
   128  H   -0.004436
   129  H    0.021111
   130  H    0.015132
   131  H    0.017514
   132  H    0.013989
   133  H    0.037459
   134  H    0.020422
   135  H    0.019735
   136  H    0.008811
   137  H    0.025736
   138  H    0.039474
   139  H    0.037884
   140  H    0.036198
   141  H    0.033719
   142  H    0.013799
   143  H    0.015005
   144  H    0.024813
   145  H    0.012730
   146  H    0.010430
   147  H    0.006754
   148  H    0.003297
   149  H    0.010837
   150  H    0.017273
   151  H    0.029590
   152  H    0.045270
   153  H    0.008752
   154  H    0.046535
   155  H    0.033795
   156  H    0.043201
   157  H    0.049537
   158  H    0.053566
 Sum of Mulliken charges =  -0.00000
 Mulliken charges with hydrogens summed into heavy atoms:
               1
     1  Mg   0.838731
     2  C   -0.002971
     3  C   -0.110704
     4  C   -0.063787
     5  C   -0.105322
     6  N   -0.256812
     7  C   -0.052237
     8  C   -0.013019
     9  C   -0.090540
    10  C    0.046297
    11  C    0.163599
    12  C    0.108796
    13  C    0.000863
    15  N   -0.433096
    16  C    0.168270
    17  C   -0.176891
    18  C   -0.004363
    19  C    0.148576
    20  C    0.183296
    21  C    0.011504
    22  O   -0.250541
    23  C    0.166830
    24  N   -0.341096
    25  C    0.041278
    26  C   -0.012481
    27  C   -0.014252
    28  C    0.074715
    29  C    0.116811
    30  C    0.046422
    31  C    0.050440
    32  N   -0.310521
    33  C    0.080472
    34  C   -0.169536
    35  C    0.008382
    36  C    0.082996
    37  C    0.230486
    38  C    0.046058
    39  O   -0.188304
    40  C    0.030114
    41  C    0.213000
    42  O   -0.257611
    43  O   -0.304584
    44  C    0.300729
    80  Mg   0.838175
    81  C   -0.017237
    82  C   -0.107650
    83  C   -0.060400
    84  C   -0.103619
    85  N   -0.254650
    86  C   -0.049969
    87  C   -0.016654
    88  C   -0.094837
    89  C    0.045762
    90  C    0.168081
    91  C    0.114027
    92  C   -0.003201
    94  N   -0.423561
    95  C    0.163171
    96  C   -0.174756
    97  C   -0.007771
    98  C    0.152291
    99  C    0.173488
   100  C    0.015373
   101  O   -0.252831
   102  C    0.169092
   103  N   -0.350021
   104  C    0.038407
   105  C   -0.006727
   106  C   -0.019868
   107  C    0.089075
   108  C    0.120341
   109  C    0.044645
   110  C    0.050144
   111  N   -0.324026
   112  C    0.078306
   113  C   -0.163113
   114  C    0.001687
   115  C    0.096366
   116  C    0.232218
   117  C    0.041847
   118  O   -0.189216
   119  C    0.034919
   120  C    0.211179
   121  O   -0.250951
   122  O   -0.305968
   123  C    0.298431
 Electronic spatial extent (au):  <R**2>=         115549.9579
 Charge=             -0.0000 electrons
 Dipole moment (field-independent basis, Debye):
    X=              3.2783    Y=              4.9857    Z=              1.2985  Tot=              6.1066
 Quadrupole moment (field-independent basis, Debye-Ang):
   XX=           -521.3008   YY=           -515.1610   ZZ=           -482.8888
   XY=             10.3113   XZ=            -40.9612   YZ=             13.0677
 Traceless Quadrupole moment (field-independent basis, Debye-Ang):
   XX=            -14.8506   YY=             -8.7108   ZZ=             23.5614
   XY=             10.3113   XZ=            -40.9612   YZ=             13.0677
 Octapole moment (field-independent basis, Debye-Ang**2):
  XXX=            274.6216  YYY=            192.0454  ZZZ=            172.6458  XYY=           -267.4521
  XXY=            221.1039  XXZ=            121.6722  XZZ=            271.1370  YZZ=            -67.5648
  YYZ=           -318.3444  XYZ=           -204.2630
 Hexadecapole moment (field-independent basis, Debye-Ang**3):
 XXXX=         -92455.5089 YYYY=         -35815.5887 ZZZZ=         -29942.7897 XXXY=            -38.7316
 XXXZ=          -1664.6307 YYYX=           -438.0835 YYYZ=           -308.4186 ZZZX=          -1307.5525
 ZZZY=            919.3206 XXYY=         -21055.9723 XXZZ=         -19423.0867 YYZZ=         -11080.3378
 XXYZ=             79.6438 YYXZ=            306.1499 ZZXY=           -438.6010
 N-N= 1.492897795548D+04 E-N=-3.933896311560D+04  KE= 4.028801767342D+03
 Leave Link  601 at Fri Sep 10 17:22:50 2021, MaxMem= 23488102400 cpu:              17.0 elap:               0.8
 (Enter /sw/apps/gaussian-16.0/g16/l9999.exe)
 1\1\GINC-BP1-COMPUTE00114\SP\RCAM-B3LYP TD-FC\def2SVP\C68H72Mg2N8O8\OF
 15641\10-Sep-2021\0\\#p cam-b3lyp/Def2SVP td=(nstates=5)\\TDDFT excite
 d states in gaussian\\0,1\Mg,0,0.,0.,0.\C,0,-0.217,-2.218,2.801\C,0,-1
 .255,2.442,2.026\C,0,-0.245,1.85,-2.564\C,0,0.146,-2.824,-2.037\N,0,-0
 .617,-0.009,2.126\C,0,-0.594,-0.908,3.105\C,0,-0.936,-0.309,4.502\C,0,
 -1.773,0.964,4.032\C,0,-1.155,1.168,2.66\C,0,-3.263,0.685,3.863\C,0,0.
 345,0.11,5.299\C,0,0.124,0.397,6.787\H,0,1.168,0.033,7.733\N,0,-0.185,
 1.961,-0.152\C,0,-0.703,2.8,0.777\C,0,-0.62,4.156,0.193\C,0,-0.187,4.0
 15,-1.225\C,0,-0.214,2.583,-1.38\C,0,-0.887,5.406,0.974\C,0,0.181,5.01
 3,-2.277\O,0,0.303,4.69,-3.508\C,0,0.31,6.414,-1.837\N,0,-0.265,-0.413
 ,-2.029\C,0,-0.279,0.569,-2.937\C,0,-0.196,0.024,-4.332\C,0,0.124,-1.5
 33,-4.18\C,0,0.086,-1.632,-2.635\C,0,-1.451,0.205,-5.197\C,0,1.373,-2.
 07,-4.923\C,0,2.626,-1.49,-4.306\N,0,0.15,-2.144,0.303\C,0,0.173,-3.13
 6,-0.688\C,0,0.173,-4.438,0.004\C,0,0.133,-4.111,1.358\C,0,0.083,-2.69
 5,1.502\C,0,0.149,-5.715,-0.623\C,0,0.096,-4.629,2.716\O,0,0.208,-5.74
 7,3.221\C,0,-0.255,-3.428,3.701\C,0,0.717,-3.482,4.848\O,0,1.931,-3.25
 5,4.669\O,0,0.038,-3.556,6.003\C,0,0.943,-3.583,7.183\H,0,-1.859,3.22,
 2.497\H,0,-0.218,2.453,-3.474\H,0,0.276,-3.747,-2.605\H,0,-1.554,-0.94
 9,5.132\H,0,-1.585,1.831,4.665\H,0,-3.484,-0.377,3.969\H,0,-3.511,1.02
 7,2.858\H,0,-3.852,1.301,4.543\H,0,0.669,1.096,4.966\H,0,1.13,-0.639,5
 .189\H,0,-0.844,0.026,7.125\H,0,0.062,1.477,6.921\H,0,-1.344,5.186,1.9
 38\H,0,-1.651,5.963,0.432\H,0,0.007,6.02,1.084\H,0,-0.635,6.744,-1.405
 \H,0,0.665,6.97,-2.704\H,0,1.048,6.466,-1.036\H,0,0.608,0.501,-4.891\H
 ,0,-0.692,-2.156,-4.547\H,0,-1.267,0.74,-6.129\H,0,-2.204,0.714,-4.596
 \H,0,-1.967,-0.72,-5.453\H,0,1.356,-1.759,-5.967\H,0,1.452,-3.157,-4.9
 02\H,0,2.714,-0.522,-4.798\H,0,3.487,-2.121,-4.529\H,0,2.495,-1.303,-3
 .24\H,0,0.867,-6.333,-0.084\H,0,0.404,-5.642,-1.68\H,0,-0.891,-5.999,-
 0.463\H,0,-1.283,-3.581,4.028\H,0,0.698,-4.478,7.755\H,0,0.833,-2.619,
 7.68\H,0,2.,-3.754,6.976\Mg,0,10.5181,0.95158,0.79283\C,0,9.92284,4.30
 602,1.92088\C,0,9.77623,2.03751,-2.35439\C,0,10.59397,-2.07344,-0.1616
 \C,0,10.09171,-0.08569,4.09252\N,0,9.93968,2.93814,0.01099\C,0,9.80542
 ,4.15197,0.52377\C,0,9.60934,5.2765,-0.52815\C,0,9.01547,4.38542,-1.72
 488\C,0,9.64024,3.04005,-1.36115\C,0,7.50372,4.23948,-1.67359\C,0,10.9
 6342,5.95651,-0.93564\C,0,10.81683,7.26164,-1.72107\H,0,11.79306,8.323
 77,-1.49446\N,0,10.70924,0.18353,-1.0271\C,0,10.37994,0.77061,-2.19679
 \C,0,10.69378,-0.21419,-3.24361\C,0,11.08076,-1.49147,-2.58519\C,0,10.
 78309,-1.17599,-1.20245\C,0,10.68817,0.12331,-4.70631\C,0,11.61646,-2.
 78737,-3.11419\O,0,11.65757,-3.8445,-2.39057\C,0,12.00459,-2.80631,-4.
 53211\N,0,10.15704,-0.84576,1.7734\C,0,10.31129,-2.02186,1.14023\C,0,1
 0.26632,-3.17546,2.11367\C,0,10.29179,-2.51138,3.56829\C,0,10.25544,-1
 .02053,3.16653\C,0,9.05297,-4.09768,1.99669\C,0,11.40577,-2.98806,4.54
 014\C,0,12.75823,-2.54043,4.03431\N,0,10.26985,1.92031,2.70803\C,0,10.
 08208,1.29708,3.96118\C,0,9.84582,2.36927,4.94962\C,0,9.89001,3.54994,
 4.19294\C,0,10.11632,3.23446,2.82592\C,0,9.58128,2.17971,6.33533\C,0,9
 .78608,4.99073,4.2381\O,0,9.68493,5.82668,5.13514\C,0,9.67675,5.53641,
 2.74925\C,0,10.63883,6.68339,2.60311\O,0,11.86522,6.49402,2.68503\O,0,
 9.96837,7.76931,2.17691\C,0,10.8819,8.93042,2.00629\H,0,9.34266,2.2196
 1,-3.33813\H,0,10.72048,-3.12756,-0.41907\H,0,10.04762,-0.32089,5.1580
 7\H,0,8.89723,6.04287,-0.24647\H,0,9.38035,4.72676,-2.69014\H,0,7.0885
 2,4.66241,-0.77088\H,0,7.30921,3.17585,-1.71733\H,0,7.05308,4.66555,-2
 .57455\H,0,11.46183,5.33689,-1.69221\H,0,11.58171,6.12047,-0.07455\H,0
 ,9.79637,7.6605,-1.67092\H,0,10.969,7.04732,-2.7817\H,0,10.20452,1.089
 83,-4.89427\H,0,10.03773,-0.60654,-5.20038\H,0,11.68267,0.07083,-5.154
 51\H,0,11.14635,-2.54129,-5.14502\H,0,12.44616,-3.79035,-4.7011\H,0,12
 .7612,-2.03133,-4.6981\H,0,11.13689,-3.81004,2.00177\H,0,9.36311,-2.71
 004,4.1232\H,0,9.32441,-5.15658,1.82606\H,0,8.4229,-3.73293,1.19638\H,
 0,8.3763,-4.08097,2.84936\H,0,11.43413,-4.07983,4.57743\H,0,11.27216,-
 2.63446,5.55706\H,0,13.01566,-3.31188,3.30241\H,0,13.48077,-2.51095,4.
 8474\H,0,12.68188,-1.58824,3.49658\H,0,10.17068,2.91404,6.86812\H,0,9.
 82493,1.16766,6.6518\H,0,8.50456,2.36821,6.35591\H,0,8.64329,5.84595,2
 .58886\H,0,10.47665,9.74738,2.6113\H,0,10.95123,9.09817,0.91505\H,0,11
 .88338,8.84396,2.41129\\Version=ES64L-G16RevA.03\State=1-A\HF=-4069.81
 20804\RMSD=7.619e-09\PG=C01 [X(C68H72Mg2N8O8)]\\@


 CONFIDENCE: THAT QUIET ASSURED FEELING YOU HAVE
 JUST BEFORE YOU FALL FLAT ON YOUR FACE.
 Job cpu time:       0 days 14 hours  9 minutes 13.1 seconds.
 Elapsed time:       0 days  0 hours 36 minutes  1.7 seconds.
 File lengths (MBytes):  RWF=  13225 Int=      0 D2E=      0 Chk=    574 Scr=      1
 Normal termination of Gaussian 16 at Fri Sep 10 17:22:51 2021.
