 Entering Gaussian System, Link 0=g16
 Initial command:
 /sw/apps/gaussian-16.0/g16/l1.exe "/tmp/Gau-61606.inp" -scrdir="/tmp/"
 Entering Link 1 = /sw/apps/gaussian-16.0/g16/l1.exe PID=     61607.
  
 Copyright (c) 1988,1990,1992,1993,1995,1998,2003,2009,2016,
            Gaussian, Inc.  All Rights Reserved.
  
 This is part of the Gaussian(R) 16 program.  It is based on
 the Gaussian(R) 09 system (copyright 2009, Gaussian, Inc.),
 the Gaussian(R) 03 system (copyright 2003, Gaussian, Inc.),
 the Gaussian(R) 98 system (copyright 1998, Gaussian, Inc.),
 the Gaussian(R) 94 system (copyright 1995, Gaussian, Inc.),
 the Gaussian 92(TM) system (copyright 1992, Gaussian, Inc.),
 the Gaussian 90(TM) system (copyright 1990, Gaussian, Inc.),
 the Gaussian 88(TM) system (copyright 1988, Gaussian, Inc.),
 the Gaussian 86(TM) system (copyright 1986, Carnegie Mellon
 University), and the Gaussian 82(TM) system (copyright 1983,
 Carnegie Mellon University). Gaussian is a federally registered
 trademark of Gaussian, Inc.
  
 This software contains proprietary and confidential information,
 including trade secrets, belonging to Gaussian, Inc.
  
 This software is provided under written license and may be
 used, copied, transmitted, or stored only in accord with that
 written license.
  
 The following legend is applicable only to US Government
 contracts under FAR:
  
                    RESTRICTED RIGHTS LEGEND
  
 Use, reproduction and disclosure by the US Government is
 subject to restrictions as set forth in subparagraphs (a)
 and (c) of the Commercial Computer Software - Restricted
 Rights clause in FAR 52.227-19.
  
 Gaussian, Inc.
 340 Quinnipiac St., Bldg. 40, Wallingford CT 06492
  
  
 ---------------------------------------------------------------
 Warning -- This program may not be used in any manner that
 competes with the business of Gaussian, Inc. or will provide
 assistance to any competitor of Gaussian, Inc.  The licensee
 of this program is prohibited from giving any competitor of
 Gaussian, Inc. access to this program.  By using this program,
 the user acknowledges that Gaussian, Inc. is engaged in the
 business of creating and licensing software in the field of
 computational chemistry and represents and warrants to the
 licensee that it is not a competitor of Gaussian, Inc. and that
 it will not use this program in any manner prohibited above.
 ---------------------------------------------------------------
  

 Cite this work as:
 Gaussian 16, Revision A.03,
 M. J. Frisch, G. W. Trucks, H. B. Schlegel, G. E. Scuseria, 
 M. A. Robb, J. R. Cheeseman, G. Scalmani, V. Barone, 
 G. A. Petersson, H. Nakatsuji, X. Li, M. Caricato, A. V. Marenich, 
 J. Bloino, B. G. Janesko, R. Gomperts, B. Mennucci, H. P. Hratchian, 
 J. V. Ortiz, A. F. Izmaylov, J. L. Sonnenberg, D. Williams-Young, 
 F. Ding, F. Lipparini, F. Egidi, J. Goings, B. Peng, A. Petrone, 
 T. Henderson, D. Ranasinghe, V. G. Zakrzewski, J. Gao, N. Rega, 
 G. Zheng, W. Liang, M. Hada, M. Ehara, K. Toyota, R. Fukuda, 
 J. Hasegawa, M. Ishida, T. Nakajima, Y. Honda, O. Kitao, H. Nakai, 
 T. Vreven, K. Throssell, J. A. Montgomery, Jr., J. E. Peralta, 
 F. Ogliaro, M. J. Bearpark, J. J. Heyd, E. N. Brothers, K. N. Kudin, 
 V. N. Staroverov, T. A. Keith, R. Kobayashi, J. Normand, 
 K. Raghavachari, A. P. Rendell, J. C. Burant, S. S. Iyengar, 
 J. Tomasi, M. Cossi, J. M. Millam, M. Klene, C. Adamo, R. Cammi, 
 J. W. Ochterski, R. L. Martin, K. Morokuma, O. Farkas, 
 J. B. Foresman, and D. J. Fox, Gaussian, Inc., Wallingford CT, 2016.
 
 ******************************************
 Gaussian 16:  ES64L-G16RevA.03 25-Dec-2016
                10-Sep-2021 
 ******************************************
 %nproc=24
 Will use up to   24 processors via shared memory.
 %mem=175gb
 -----------------------------------
 #p cam-b3lyp/Def2SVP td=(nstates=5)
 -----------------------------------
 1/38=1,172=1/1;
 2/12=2,17=6,18=5,40=1/2;
 3/5=43,7=101,11=9,25=1,30=1,74=-40/1,2,3,8;
 4//1;
 5/5=2,38=5/2;
 8/6=1,10=1,108=5/1;
 9/41=5,42=1,70=2/14;
 6/7=2,8=2,9=2,10=2/1;
 99/5=1,9=1/99;
 Leave Link    1 at Fri Sep 10 06:35:09 2021, MaxMem= 23488102400 cpu:               0.6 elap:               0.0
 (Enter /sw/apps/gaussian-16.0/g16/l101.exe)
 --------------------------------
 TDDFT excited states in gaussian
 --------------------------------
 Symbolic Z-matrix:
 Charge =  0 Multiplicity = 1
 Mg                    0.        0.        0. 
 C                    -0.217    -2.218     2.801 
 C                    -1.255     2.442     2.026 
 C                    -0.245     1.85     -2.564 
 C                     0.146    -2.824    -2.037 
 N                    -0.617    -0.009     2.126 
 C                    -0.594    -0.908     3.105 
 C                    -0.936    -0.309     4.502 
 C                    -1.773     0.964     4.032 
 C                    -1.155     1.168     2.66 
 C                    -3.263     0.685     3.863 
 C                     0.345     0.11      5.299 
 C                     0.124     0.397     6.787 
 H                     1.168     0.033     7.733 
 N                    -0.185     1.961    -0.152 
 C                    -0.703     2.8       0.777 
 C                    -0.62      4.156     0.193 
 C                    -0.187     4.015    -1.225 
 C                    -0.214     2.583    -1.38 
 C                    -0.887     5.406     0.974 
 C                     0.181     5.013    -2.277 
 O                     0.303     4.69     -3.508 
 C                     0.31      6.414    -1.837 
 N                    -0.265    -0.413    -2.029 
 C                    -0.279     0.569    -2.937 
 C                    -0.196     0.024    -4.332 
 C                     0.124    -1.533    -4.18 
 C                     0.086    -1.632    -2.635 
 C                    -1.451     0.205    -5.197 
 C                     1.373    -2.07     -4.923 
 C                     2.626    -1.49     -4.306 
 N                     0.15     -2.144     0.303 
 C                     0.173    -3.136    -0.688 
 C                     0.173    -4.438     0.004 
 C                     0.133    -4.111     1.358 
 C                     0.083    -2.695     1.502 
 C                     0.149    -5.715    -0.623 
 C                     0.096    -4.629     2.716 
 O                     0.208    -5.747     3.221 
 C                    -0.255    -3.428     3.701 
 C                     0.717    -3.482     4.848 
 O                     1.931    -3.255     4.669 
 O                     0.038    -3.556     6.003 
 C                     0.943    -3.583     7.183 
 H                    -1.859     3.22      2.497 
 H                    -0.218     2.453    -3.474 
 H                     0.276    -3.747    -2.605 
 H                    -1.554    -0.949     5.132 
 H                    -1.585     1.831     4.665 
 H                    -3.484    -0.377     3.969 
 H                    -3.511     1.027     2.858 
 H                    -3.852     1.301     4.543 
 H                     0.669     1.096     4.966 
 H                     1.13     -0.639     5.189 
 H                    -0.844     0.026     7.125 
 H                     0.062     1.477     6.921 
 H                    -1.344     5.186     1.938 
 H                    -1.651     5.963     0.432 
 H                     0.007     6.02      1.084 
 H                    -0.635     6.744    -1.405 
 H                     0.665     6.97     -2.704 
 H                     1.048     6.466    -1.036 
 H                     0.608     0.501    -4.891 
 H                    -0.692    -2.156    -4.547 
 H                    -1.267     0.74     -6.129 
 H                    -2.204     0.714    -4.596 
 H                    -1.967    -0.72     -5.453 
 H                     1.356    -1.759    -5.967 
 H                     1.452    -3.157    -4.902 
 H                     2.714    -0.522    -4.798 
 H                     3.487    -2.121    -4.529 
 H                     2.495    -1.303    -3.24 
 H                     0.867    -6.333    -0.084 
 H                     0.404    -5.642    -1.68 
 H                    -0.891    -5.999    -0.463 
 H                    -1.283    -3.581     4.028 
 H                     0.698    -4.478     7.755 
 H                     0.833    -2.619     7.68 
 H                     2.       -3.754     6.976 
 Mg                    8.9312    0.81266   0.68449 
 C                     11.11838   0.49601   3.51204 
 C                     6.32053   0.51529   2.85948 
 C                     6.99288   0.63635  -1.82136 
 C                     11.63871  -0.05433  -1.33131 
 N                     8.85659   0.54548   2.87887 
 C                     9.75034   0.50074   3.85537 
 C                     9.14454   0.5397    5.28403 
 C                     7.68304  -0.03064   4.94113 
 C                     7.59087   0.39708   3.47783 
 C                     7.5992   -1.54677   5.00177 
 C                     9.07147   1.99632   5.86276 
 C                     8.78049   2.07845   7.36287 
 H                     9.41337   3.14243   8.13741 
 N                     6.97095   1.09409   0.55484 
 C                     6.0614    0.95158   1.54159 
 C                     4.75659   1.25293   0.93263 
 C                     4.95121   1.42419  -0.53281 
 C                     6.33944   1.02903  -0.66232 
 C                     3.50354   1.43088   1.73985 
 C                     4.0354    1.85797  -1.63704 
 O                     4.3488    1.70605  -2.87054 
 C                     2.72189   2.37994  -1.23241 
 N                     9.207     0.15311  -1.26776 
 C                     8.21466   0.23385  -2.17145 
 C                     8.72393  -0.03894  -3.56666 
 C                     10.31769  -0.08196  -3.44151 
 C                     10.45631   0.09237  -1.91318 
 C                     8.22947  -1.33217  -4.21431 
 C                     11.12243   0.86842  -4.36986 
 C                     10.87662   2.30661  -3.97416 
 N                     11.04715   0.48827   0.97699 
 C                     11.99454   0.10726   0.00161 
 C                     13.27913  -0.10162   0.70061 
 C                     12.9822   0.15201   2.0482 
 C                     11.60485   0.47508   2.18251 
 C                     14.49686  -0.52208   0.09523 
 C                     13.51834   0.20954   3.38907 
 O                     14.64272   0.11626   3.87979 
 C                     12.30739   0.31136   4.41358 
 C                     12.61986   1.40797   5.39455 
 O                     12.69686   2.59048   5.01725 
 O                     12.56113   0.91162   6.64377 
 C                     12.85297   1.96429   7.653 
 H                     5.43911   0.20499   3.42136 
 H                     6.39316   0.6664   -2.734 
 H                     12.55265  -0.23037  -1.90261 
 H                     9.6357   -0.1045    6.00343 
 H                     6.91706   0.46469   5.53214 
 H                     8.56883  -1.99826   5.15046 
 H                     7.17908  -1.85631   4.05375 
 H                     6.87897  -1.85424   5.76535 
 H                     8.17498   2.4931    5.47001 
 H                     9.96791   2.54093   5.63821 
 H                     8.91086   1.11037   7.86164 
 H                     7.72115   2.30945   7.49874 
 H                     3.63657   1.08192   2.77132 
 H                     2.75289   0.75343   1.3186 
 H                     3.11909   2.45234   1.70119 
 H                     2.19366   1.6226   -0.65806 
 H                     2.24626   2.72066  -2.15413 
 H                     2.87577   3.23289  -0.56203 
 H                     8.44597   0.76014  -4.24291 
 H                     10.71855  -1.07764  -3.68187 
 H                     7.7172   -1.16802  -5.18111 
 H                     7.57258  -1.83401  -3.51631 
 H                     8.99736  -2.08362  -4.39 
 H                     10.78041   0.76794  -5.40286 
 H                     12.19011   0.67603  -4.36398 
 H                     9.93765   2.54538  -4.48248 
 H                     11.68711   2.94365  -4.3225 
 H                     10.69904   2.39328  -2.89592 
 H                     15.28203   0.09171   0.51625 
 H                     14.45549  -0.42829  -0.98794 
 H                     14.52358  -1.56689   0.41606 
 H                     12.20893  -0.65892   4.90188 
 H                     13.68094   1.59717   8.26731 
 H                     11.89295   2.16011   8.16659 
 H                     13.2561   2.90423   7.2946 
 
 ITRead=  0  0  0  0  0  0  0  0  0  0  0  0  0  0  0  0  0  0  0  0
 ITRead=  0  0  0  0  0  0  0  0  0  0  0  0  0  0  0  0  0  0  0  0
 ITRead=  0  0  0  0  0  0  0  0  0  0  0  0  0  0  0  0  0  0  0  0
 ITRead=  0  0  0  0  0  0  0  0  0  0  0  0  0  0  0  0  0  0  0  0
 ITRead=  0  0  0  0  0  0  0  0  0  0  0  0  0  0  0  0  0  0  0  0
 ITRead=  0  0  0  0  0  0  0  0  0  0  0  0  0  0  0  0  0  0  0  0
 ITRead=  0  0  0  0  0  0  0  0  0  0  0  0  0  0  0  0  0  0  0  0
 ITRead=  0  0  0  0  0  0  0  0  0  0  0  0  0  0  0  0  0  0
 MicOpt= -1 -1 -1 -1 -1 -1 -1 -1 -1 -1 -1 -1 -1 -1 -1 -1 -1 -1 -1 -1
 MicOpt= -1 -1 -1 -1 -1 -1 -1 -1 -1 -1 -1 -1 -1 -1 -1 -1 -1 -1 -1 -1
 MicOpt= -1 -1 -1 -1 -1 -1 -1 -1 -1 -1 -1 -1 -1 -1 -1 -1 -1 -1 -1 -1
 MicOpt= -1 -1 -1 -1 -1 -1 -1 -1 -1 -1 -1 -1 -1 -1 -1 -1 -1 -1 -1 -1
 MicOpt= -1 -1 -1 -1 -1 -1 -1 -1 -1 -1 -1 -1 -1 -1 -1 -1 -1 -1 -1 -1
 MicOpt= -1 -1 -1 -1 -1 -1 -1 -1 -1 -1 -1 -1 -1 -1 -1 -1 -1 -1 -1 -1
 MicOpt= -1 -1 -1 -1 -1 -1 -1 -1 -1 -1 -1 -1 -1 -1 -1 -1 -1 -1 -1 -1
 MicOpt= -1 -1 -1 -1 -1 -1 -1 -1 -1 -1 -1 -1 -1 -1 -1 -1 -1 -1
 NAtoms=    158 NQM=      158 NQMF=       0 NMMI=      0 NMMIF=      0
                NMic=       0 NMicF=      0.
                    Isotopes and Nuclear Properties:
 (Nuclear quadrupole moments (NQMom) in fm**2, nuclear magnetic moments (NMagM)
  in nuclear magnetons)

  Atom         1           2           3           4           5           6           7           8           9          10
 IAtWgt=          24          12          12          12          12          14          12          12          12          12
 AtmWgt=  23.9850450  12.0000000  12.0000000  12.0000000  12.0000000  14.0030740  12.0000000  12.0000000  12.0000000  12.0000000
 NucSpn=           0           0           0           0           0           2           0           0           0           0
 AtZEff=  -0.0000000  -0.0000000  -0.0000000  -0.0000000  -0.0000000  -0.0000000  -0.0000000  -0.0000000  -0.0000000  -0.0000000
 NQMom=    0.0000000   0.0000000   0.0000000   0.0000000   0.0000000   2.0440000   0.0000000   0.0000000   0.0000000   0.0000000
 NMagM=    0.0000000   0.0000000   0.0000000   0.0000000   0.0000000   0.4037610   0.0000000   0.0000000   0.0000000   0.0000000
 AtZNuc=  12.0000000   6.0000000   6.0000000   6.0000000   6.0000000   7.0000000   6.0000000   6.0000000   6.0000000   6.0000000

  Atom        11          12          13          14          15          16          17          18          19          20
 IAtWgt=          12          12          12           1          14          12          12          12          12          12
 AtmWgt=  12.0000000  12.0000000  12.0000000   1.0078250  14.0030740  12.0000000  12.0000000  12.0000000  12.0000000  12.0000000
 NucSpn=           0           0           0           1           2           0           0           0           0           0
 AtZEff=  -0.0000000  -0.0000000  -0.0000000  -0.0000000  -0.0000000  -0.0000000  -0.0000000  -0.0000000  -0.0000000  -0.0000000
 NQMom=    0.0000000   0.0000000   0.0000000   0.0000000   2.0440000   0.0000000   0.0000000   0.0000000   0.0000000   0.0000000
 NMagM=    0.0000000   0.0000000   0.0000000   2.7928460   0.4037610   0.0000000   0.0000000   0.0000000   0.0000000   0.0000000
 AtZNuc=   6.0000000   6.0000000   6.0000000   1.0000000   7.0000000   6.0000000   6.0000000   6.0000000   6.0000000   6.0000000

  Atom        21          22          23          24          25          26          27          28          29          30
 IAtWgt=          12          16          12          14          12          12          12          12          12          12
 AtmWgt=  12.0000000  15.9949146  12.0000000  14.0030740  12.0000000  12.0000000  12.0000000  12.0000000  12.0000000  12.0000000
 NucSpn=           0           0           0           2           0           0           0           0           0           0
 AtZEff=  -0.0000000  -0.0000000  -0.0000000  -0.0000000  -0.0000000  -0.0000000  -0.0000000  -0.0000000  -0.0000000  -0.0000000
 NQMom=    0.0000000   0.0000000   0.0000000   2.0440000   0.0000000   0.0000000   0.0000000   0.0000000   0.0000000   0.0000000
 NMagM=    0.0000000   0.0000000   0.0000000   0.4037610   0.0000000   0.0000000   0.0000000   0.0000000   0.0000000   0.0000000
 AtZNuc=   6.0000000   8.0000000   6.0000000   7.0000000   6.0000000   6.0000000   6.0000000   6.0000000   6.0000000   6.0000000

  Atom        31          32          33          34          35          36          37          38          39          40
 IAtWgt=          12          14          12          12          12          12          12          12          16          12
 AtmWgt=  12.0000000  14.0030740  12.0000000  12.0000000  12.0000000  12.0000000  12.0000000  12.0000000  15.9949146  12.0000000
 NucSpn=           0           2           0           0           0           0           0           0           0           0
 AtZEff=  -0.0000000  -0.0000000  -0.0000000  -0.0000000  -0.0000000  -0.0000000  -0.0000000  -0.0000000  -0.0000000  -0.0000000
 NQMom=    0.0000000   2.0440000   0.0000000   0.0000000   0.0000000   0.0000000   0.0000000   0.0000000   0.0000000   0.0000000
 NMagM=    0.0000000   0.4037610   0.0000000   0.0000000   0.0000000   0.0000000   0.0000000   0.0000000   0.0000000   0.0000000
 AtZNuc=   6.0000000   7.0000000   6.0000000   6.0000000   6.0000000   6.0000000   6.0000000   6.0000000   8.0000000   6.0000000

  Atom        41          42          43          44          45          46          47          48          49          50
 IAtWgt=          12          16          16          12           1           1           1           1           1           1
 AtmWgt=  12.0000000  15.9949146  15.9949146  12.0000000   1.0078250   1.0078250   1.0078250   1.0078250   1.0078250   1.0078250
 NucSpn=           0           0           0           0           1           1           1           1           1           1
 AtZEff=  -0.0000000  -0.0000000  -0.0000000  -0.0000000  -0.0000000  -0.0000000  -0.0000000  -0.0000000  -0.0000000  -0.0000000
 NQMom=    0.0000000   0.0000000   0.0000000   0.0000000   0.0000000   0.0000000   0.0000000   0.0000000   0.0000000   0.0000000
 NMagM=    0.0000000   0.0000000   0.0000000   0.0000000   2.7928460   2.7928460   2.7928460   2.7928460   2.7928460   2.7928460
 AtZNuc=   6.0000000   8.0000000   8.0000000   6.0000000   1.0000000   1.0000000   1.0000000   1.0000000   1.0000000   1.0000000

  Atom        51          52          53          54          55          56          57          58          59          60
 IAtWgt=           1           1           1           1           1           1           1           1           1           1
 AtmWgt=   1.0078250   1.0078250   1.0078250   1.0078250   1.0078250   1.0078250   1.0078250   1.0078250   1.0078250   1.0078250
 NucSpn=           1           1           1           1           1           1           1           1           1           1
 AtZEff=  -0.0000000  -0.0000000  -0.0000000  -0.0000000  -0.0000000  -0.0000000  -0.0000000  -0.0000000  -0.0000000  -0.0000000
 NQMom=    0.0000000   0.0000000   0.0000000   0.0000000   0.0000000   0.0000000   0.0000000   0.0000000   0.0000000   0.0000000
 NMagM=    2.7928460   2.7928460   2.7928460   2.7928460   2.7928460   2.7928460   2.7928460   2.7928460   2.7928460   2.7928460
 AtZNuc=   1.0000000   1.0000000   1.0000000   1.0000000   1.0000000   1.0000000   1.0000000   1.0000000   1.0000000   1.0000000

  Atom        61          62          63          64          65          66          67          68          69          70
 IAtWgt=           1           1           1           1           1           1           1           1           1           1
 AtmWgt=   1.0078250   1.0078250   1.0078250   1.0078250   1.0078250   1.0078250   1.0078250   1.0078250   1.0078250   1.0078250
 NucSpn=           1           1           1           1           1           1           1           1           1           1
 AtZEff=  -0.0000000  -0.0000000  -0.0000000  -0.0000000  -0.0000000  -0.0000000  -0.0000000  -0.0000000  -0.0000000  -0.0000000
 NQMom=    0.0000000   0.0000000   0.0000000   0.0000000   0.0000000   0.0000000   0.0000000   0.0000000   0.0000000   0.0000000
 NMagM=    2.7928460   2.7928460   2.7928460   2.7928460   2.7928460   2.7928460   2.7928460   2.7928460   2.7928460   2.7928460
 AtZNuc=   1.0000000   1.0000000   1.0000000   1.0000000   1.0000000   1.0000000   1.0000000   1.0000000   1.0000000   1.0000000

  Atom        71          72          73          74          75          76          77          78          79          80
 IAtWgt=           1           1           1           1           1           1           1           1           1          24
 AtmWgt=   1.0078250   1.0078250   1.0078250   1.0078250   1.0078250   1.0078250   1.0078250   1.0078250   1.0078250  23.9850450
 NucSpn=           1           1           1           1           1           1           1           1           1           0
 AtZEff=  -0.0000000  -0.0000000  -0.0000000  -0.0000000  -0.0000000  -0.0000000  -0.0000000  -0.0000000  -0.0000000  -0.0000000
 NQMom=    0.0000000   0.0000000   0.0000000   0.0000000   0.0000000   0.0000000   0.0000000   0.0000000   0.0000000   0.0000000
 NMagM=    2.7928460   2.7928460   2.7928460   2.7928460   2.7928460   2.7928460   2.7928460   2.7928460   2.7928460   0.0000000
 AtZNuc=   1.0000000   1.0000000   1.0000000   1.0000000   1.0000000   1.0000000   1.0000000   1.0000000   1.0000000  12.0000000

  Atom        81          82          83          84          85          86          87          88          89          90
 IAtWgt=          12          12          12          12          14          12          12          12          12          12
 AtmWgt=  12.0000000  12.0000000  12.0000000  12.0000000  14.0030740  12.0000000  12.0000000  12.0000000  12.0000000  12.0000000
 NucSpn=           0           0           0           0           2           0           0           0           0           0
 AtZEff=  -0.0000000  -0.0000000  -0.0000000  -0.0000000  -0.0000000  -0.0000000  -0.0000000  -0.0000000  -0.0000000  -0.0000000
 NQMom=    0.0000000   0.0000000   0.0000000   0.0000000   2.0440000   0.0000000   0.0000000   0.0000000   0.0000000   0.0000000
 NMagM=    0.0000000   0.0000000   0.0000000   0.0000000   0.4037610   0.0000000   0.0000000   0.0000000   0.0000000   0.0000000
 AtZNuc=   6.0000000   6.0000000   6.0000000   6.0000000   7.0000000   6.0000000   6.0000000   6.0000000   6.0000000   6.0000000

  Atom        91          92          93          94          95          96          97          98          99         100
 IAtWgt=          12          12           1          14          12          12          12          12          12          12
 AtmWgt=  12.0000000  12.0000000   1.0078250  14.0030740  12.0000000  12.0000000  12.0000000  12.0000000  12.0000000  12.0000000
 NucSpn=           0           0           1           2           0           0           0           0           0           0
 AtZEff=  -0.0000000  -0.0000000  -0.0000000  -0.0000000  -0.0000000  -0.0000000  -0.0000000  -0.0000000  -0.0000000  -0.0000000
 NQMom=    0.0000000   0.0000000   0.0000000   2.0440000   0.0000000   0.0000000   0.0000000   0.0000000   0.0000000   0.0000000
 NMagM=    0.0000000   0.0000000   2.7928460   0.4037610   0.0000000   0.0000000   0.0000000   0.0000000   0.0000000   0.0000000
 AtZNuc=   6.0000000   6.0000000   1.0000000   7.0000000   6.0000000   6.0000000   6.0000000   6.0000000   6.0000000   6.0000000

  Atom       101         102         103         104         105         106         107         108         109         110
 IAtWgt=          16          12          14          12          12          12          12          12          12          12
 AtmWgt=  15.9949146  12.0000000  14.0030740  12.0000000  12.0000000  12.0000000  12.0000000  12.0000000  12.0000000  12.0000000
 NucSpn=           0           0           2           0           0           0           0           0           0           0
 AtZEff=  -0.0000000  -0.0000000  -0.0000000  -0.0000000  -0.0000000  -0.0000000  -0.0000000  -0.0000000  -0.0000000  -0.0000000
 NQMom=    0.0000000   0.0000000   2.0440000   0.0000000   0.0000000   0.0000000   0.0000000   0.0000000   0.0000000   0.0000000
 NMagM=    0.0000000   0.0000000   0.4037610   0.0000000   0.0000000   0.0000000   0.0000000   0.0000000   0.0000000   0.0000000
 AtZNuc=   8.0000000   6.0000000   7.0000000   6.0000000   6.0000000   6.0000000   6.0000000   6.0000000   6.0000000   6.0000000

  Atom       111         112         113         114         115         116         117         118         119         120
 IAtWgt=          14          12          12          12          12          12          12          16          12          12
 AtmWgt=  14.0030740  12.0000000  12.0000000  12.0000000  12.0000000  12.0000000  12.0000000  15.9949146  12.0000000  12.0000000
 NucSpn=           2           0           0           0           0           0           0           0           0           0
 AtZEff=  -0.0000000  -0.0000000  -0.0000000  -0.0000000  -0.0000000  -0.0000000  -0.0000000  -0.0000000  -0.0000000  -0.0000000
 NQMom=    2.0440000   0.0000000   0.0000000   0.0000000   0.0000000   0.0000000   0.0000000   0.0000000   0.0000000   0.0000000
 NMagM=    0.4037610   0.0000000   0.0000000   0.0000000   0.0000000   0.0000000   0.0000000   0.0000000   0.0000000   0.0000000
 AtZNuc=   7.0000000   6.0000000   6.0000000   6.0000000   6.0000000   6.0000000   6.0000000   8.0000000   6.0000000   6.0000000

  Atom       121         122         123         124         125         126         127         128         129         130
 IAtWgt=          16          16          12           1           1           1           1           1           1           1
 AtmWgt=  15.9949146  15.9949146  12.0000000   1.0078250   1.0078250   1.0078250   1.0078250   1.0078250   1.0078250   1.0078250
 NucSpn=           0           0           0           1           1           1           1           1           1           1
 AtZEff=  -0.0000000  -0.0000000  -0.0000000  -0.0000000  -0.0000000  -0.0000000  -0.0000000  -0.0000000  -0.0000000  -0.0000000
 NQMom=    0.0000000   0.0000000   0.0000000   0.0000000   0.0000000   0.0000000   0.0000000   0.0000000   0.0000000   0.0000000
 NMagM=    0.0000000   0.0000000   0.0000000   2.7928460   2.7928460   2.7928460   2.7928460   2.7928460   2.7928460   2.7928460
 AtZNuc=   8.0000000   8.0000000   6.0000000   1.0000000   1.0000000   1.0000000   1.0000000   1.0000000   1.0000000   1.0000000

  Atom       131         132         133         134         135         136         137         138         139         140
 IAtWgt=           1           1           1           1           1           1           1           1           1           1
 AtmWgt=   1.0078250   1.0078250   1.0078250   1.0078250   1.0078250   1.0078250   1.0078250   1.0078250   1.0078250   1.0078250
 NucSpn=           1           1           1           1           1           1           1           1           1           1
 AtZEff=  -0.0000000  -0.0000000  -0.0000000  -0.0000000  -0.0000000  -0.0000000  -0.0000000  -0.0000000  -0.0000000  -0.0000000
 NQMom=    0.0000000   0.0000000   0.0000000   0.0000000   0.0000000   0.0000000   0.0000000   0.0000000   0.0000000   0.0000000
 NMagM=    2.7928460   2.7928460   2.7928460   2.7928460   2.7928460   2.7928460   2.7928460   2.7928460   2.7928460   2.7928460
 AtZNuc=   1.0000000   1.0000000   1.0000000   1.0000000   1.0000000   1.0000000   1.0000000   1.0000000   1.0000000   1.0000000

  Atom       141         142         143         144         145         146         147         148         149         150
 IAtWgt=           1           1           1           1           1           1           1           1           1           1
 AtmWgt=   1.0078250   1.0078250   1.0078250   1.0078250   1.0078250   1.0078250   1.0078250   1.0078250   1.0078250   1.0078250
 NucSpn=           1           1           1           1           1           1           1           1           1           1
 AtZEff=  -0.0000000  -0.0000000  -0.0000000  -0.0000000  -0.0000000  -0.0000000  -0.0000000  -0.0000000  -0.0000000  -0.0000000
 NQMom=    0.0000000   0.0000000   0.0000000   0.0000000   0.0000000   0.0000000   0.0000000   0.0000000   0.0000000   0.0000000
 NMagM=    2.7928460   2.7928460   2.7928460   2.7928460   2.7928460   2.7928460   2.7928460   2.7928460   2.7928460   2.7928460
 AtZNuc=   1.0000000   1.0000000   1.0000000   1.0000000   1.0000000   1.0000000   1.0000000   1.0000000   1.0000000   1.0000000

  Atom       151         152         153         154         155         156         157         158
 IAtWgt=           1           1           1           1           1           1           1           1
 AtmWgt=   1.0078250   1.0078250   1.0078250   1.0078250   1.0078250   1.0078250   1.0078250   1.0078250
 NucSpn=           1           1           1           1           1           1           1           1
 AtZEff=  -0.0000000  -0.0000000  -0.0000000  -0.0000000  -0.0000000  -0.0000000  -0.0000000  -0.0000000
 NQMom=    0.0000000   0.0000000   0.0000000   0.0000000   0.0000000   0.0000000   0.0000000   0.0000000
 NMagM=    2.7928460   2.7928460   2.7928460   2.7928460   2.7928460   2.7928460   2.7928460   2.7928460
 AtZNuc=   1.0000000   1.0000000   1.0000000   1.0000000   1.0000000   1.0000000   1.0000000   1.0000000
 Leave Link  101 at Fri Sep 10 06:35:09 2021, MaxMem= 23488102400 cpu:               3.2 elap:               0.2
 (Enter /sw/apps/gaussian-16.0/g16/l202.exe)
 Stoichiometry    C68H72Mg2N8O8
 Framework group  C1[X(C68H72Mg2N8O8)]
 Deg. of freedom   468
 Full point group                 C1      NOp   1
 Largest Abelian subgroup         C1      NOp   1
 Largest concise Abelian subgroup C1      NOp   1
                         Standard orientation:                         
 ---------------------------------------------------------------------
 Center     Atomic      Atomic             Coordinates (Angstroms)
 Number     Number       Type             X           Y           Z
 ---------------------------------------------------------------------
      1         12           0        4.706670   -0.262851    0.109237
      2          6           0        4.603902    2.912661   -1.539331
      3          6           0        5.432265    1.421576    2.986611
      4          6           0        5.249498   -3.067638    1.485873
      5          6           0        5.099952   -1.716117   -3.033852
      6          7           0        4.957628    1.893632    0.541958
      7          6           0        4.833064    3.012363   -0.165217
      8          6           0        4.893744    4.303298    0.704943
      9          6           0        5.707601    3.729540    1.950107
     10          6           0        5.315760    2.266353    1.843015
     11          6           0        7.220524    3.845501    1.794806
     12          6           0        3.471384    4.800932    1.130364
     13          6           0        3.419397    6.221803    1.699377
     14          1           0        2.259289    7.050610    1.408554
     15          7           0        4.778433   -0.759712    2.019951
     16          6           0        5.074054    0.058000    3.058817
     17          6           0        4.996540   -0.781858    4.273440
     18          6           0        4.818207   -2.195144    3.838797
     19          6           0        4.969804   -2.065601    2.412047
     20          6           0        5.041705   -0.224850    5.663207
     21          6           0        4.563646   -3.463038    4.590978
     22          8           0        4.672394   -4.612797    4.042526
     23          6           0        4.266103   -3.325785    6.028223
     24          7           0        5.336014   -2.110211   -0.631588
     25          6           0        5.434082   -3.177454    0.168635
     26          6           0        5.624036   -4.437549   -0.622579
     27          6           0        5.391564   -4.038958   -2.151250
     28          6           0        5.176757   -2.516273   -1.968057
     29          6           0        6.990723   -5.120576   -0.475436
     30          6           0        4.324992   -4.845411   -2.933858
     31          6           0        2.949208   -4.549035   -2.380254
     32          7           0        4.656669    0.420948   -1.950123
     33          6           0        4.868817   -0.352304   -3.100666
     34          6           0        4.842866    0.569268   -4.251362
     35          6           0        4.632579    1.825062   -3.685141
     36          6           0        4.559656    1.699619   -2.268371
     37          6           0        5.059923    0.210914   -5.611105
     38          6           0        4.477124    3.246975   -3.945630
     39          8           0        4.359654    3.934830   -4.960790
     40          6           0        4.574085    4.023938   -2.558997
     41          6           0        3.429641    4.998850   -2.503276
     42          8           0        2.250081    4.597398   -2.433695
     43          8           0        3.908859    6.235884   -2.301684
     44          6           0        2.822904    7.247756   -2.206976
     45          1           0        5.893465    1.820057    3.892397
     46          1           0        5.333798   -4.070069    1.910682
     47          1           0        5.131183   -2.108797   -4.051830
     48          1           0        5.440145    5.131073    0.252550
     49          1           0        5.356619    4.147767    2.893304
     50          1           0        7.493552    4.186277    0.796183
     51          1           0        7.609246    2.842949    1.974465
     52          1           0        7.643140    4.475520    2.577908
     53          1           0        3.140379    4.239086    2.003763
     54          1           0        2.769656    4.719388    0.299548
     55          1           0        4.340340    6.767802    1.492841
     56          1           0        3.383194    6.153179    2.786658
     57          1           0        5.344727    0.821437    5.665673
     58          1           0        5.845373   -0.741630    6.187388
     59          1           0        4.101616   -0.372078    6.195080
     60          1           0        5.100177   -2.827115    6.522386
     61          1           0        4.023885   -4.327249    6.382132
     62          1           0        3.402455   -2.671219    6.149066
     63          1           0        4.894091   -5.193329   -0.335518
     64          1           0        6.298657   -4.150991   -2.745645
     65          1           0        6.929019   -6.155066   -0.136720
     66          1           0        7.595265   -4.521660    0.205093
     67          1           0        7.605072   -5.112370   -1.375394
     68          1           0        4.495227   -5.914855   -2.814467
     69          1           0        4.318974   -4.627748   -4.001958
     70          1           0        2.878191   -5.225754   -1.529465
     71          1           0        2.183523   -4.774383   -3.123325
     72          1           0        2.886380   -3.531690   -1.993541
     73          1           0        4.306215    0.743511   -6.190962
     74          1           0        4.981313   -0.866581   -5.754027
     75          1           0        6.075497    0.578518   -5.757164
     76          1           0        5.540798    4.526404   -2.548151
     77          1           0        3.029854    8.011801   -2.956403
     78          1           0        2.781071    7.560674   -1.163550
     79          1           0        1.829966    6.919612   -2.516388
     80         12           0       -4.247388   -1.110898    0.139866
     81          6           0       -6.850442    1.359469    0.118338
     82          6           0       -2.024089    1.451113    0.497138
     83          6           0       -1.908902   -3.212228   -0.288326
     84          6           0       -6.512066   -3.309086   -1.338287
     85          7           0       -4.523430    1.079288    0.278215
     86          6           0       -5.562977    1.898992    0.320280
     87          6           0       -5.209439    3.368480    0.674115
     88          6           0       -3.675235    3.367617    0.199702
     89          6           0       -3.368853    1.880600    0.365820
     90          6           0       -3.498074    3.731044   -1.265184
     91          6           0       -5.335369    3.660181    2.210689
     92          6           0       -5.306395    5.142857    2.588284
     93          1           0       -6.132235    5.592874    3.705412
     94          7           0       -2.317379   -0.993339    0.586895
     95          6           0       -1.578487    0.128753    0.714238
     96          6           0       -0.214067   -0.321662    1.029926
     97          6           0       -0.171620   -1.804892    0.916135
     98          6           0       -1.487779   -2.065010    0.368258
     99          6           0        0.870559    0.616798    1.472967
    100          6           0        0.884124   -2.819987    1.234229
    101          8           0        0.793232   -4.034152    0.833776
    102          6           0        2.071906   -2.328897    1.948016
    103          7           0       -4.145688   -2.918438   -0.882292
    104          6           0       -3.023883   -3.659526   -0.866302
    105          6           0       -3.271924   -5.036915   -1.433449
    106          6           0       -4.857259   -5.149131   -1.611506
    107          6           0       -5.261870   -3.722035   -1.181293
    108          6           0       -2.587625   -5.340778   -2.766035
    109          6           0       -5.558755   -6.354248   -0.927211
    110          6           0       -5.482848   -6.210232    0.575749
    111          7           0       -6.354846   -1.085931   -0.335556
    112          6           0       -7.096642   -2.101942   -0.977071
    113          6           0       -8.462670   -1.578971   -1.184133
    114          6           0       -8.414137   -0.276280   -0.665353
    115          6           0       -7.104495    0.000722   -0.188264
    116          6           0       -9.529625   -2.269697   -1.824946
    117          6           0       -9.170168    0.931248   -0.422487
    118          8           0      -10.351720    1.254346   -0.537729
    119          6           0       -8.158107    2.088637   -0.019286
    120          6           0       -8.705716    2.781121    1.198533
    121          8           0       -8.799983    2.175970    2.280901
    122          8           0       -8.823062    4.096702    0.941939
    123          6           0       -9.352081    4.828174    2.123852
    124          1           0       -1.230023    2.189337    0.381458
    125          1           0       -1.168198   -4.011807   -0.362558
    126          1           0       -7.302891   -3.967737   -1.703575
    127          1           0       -5.768501    4.115436    0.123412
    128          1           0       -3.055307    3.961450    0.866353
    129          1           0       -4.445320    3.814999   -1.776858
    130          1           0       -2.904569    2.935297   -1.695994
    131          1           0       -2.896536    4.639809   -1.358033
    132          1           0       -4.422265    3.319795    2.715779
    133          1           0       -6.216969    3.201602    2.614563
    134          1           0       -5.451257    5.793020    1.716935
    135          1           0       -4.303382    5.390844    2.943938
    136          1           0        0.590944    1.663797    1.302651
    137          1           0        1.726247    0.452738    0.809079
    138          1           0        1.184455    0.440981    2.504100
    139          1           0        2.547473   -1.546103    1.361894
    140          1           0        2.670609   -3.215924    2.163930
    141          1           0        1.749183   -1.866548    2.887534
    142          1           0       -2.940474   -5.804209   -0.744605
    143          1           0       -5.142298   -5.251274   -2.668937
    144          1           0       -1.933117   -6.231954   -2.727379
    145          1           0       -2.023936   -4.467779   -3.067164
    146          1           0       -3.261343   -5.482940   -3.609298
    147          1           0       -5.042269   -7.284485   -1.176340
    148          1           0       -6.596405   -6.473510   -1.220547
    149          1           0       -4.490745   -6.606539    0.811837
    150          1           0       -6.265564   -6.793579    1.056497
    151          1           0       -5.494980   -5.154635    0.871071
    152          1           0      -10.414818   -2.098841   -1.226842
    153          1           0       -9.313831   -3.331597   -1.922755
    154          1           0       -9.537416   -1.761544   -2.792930
    155          1           0       -8.076026    2.763795   -0.871929
    156          1           0      -10.243916    5.368791    1.792112
    157          1           0       -8.507634    5.434059    2.502758
    158          1           0       -9.753459    4.238565    2.939761
 ---------------------------------------------------------------------
 Rotational constants (GHZ):           0.0260432           0.0128779           0.0108717
 Leave Link  202 at Fri Sep 10 06:35:09 2021, MaxMem= 23488102400 cpu:               0.2 elap:               0.0
 (Enter /sw/apps/gaussian-16.0/g16/l301.exe)
 Standard basis: def2SVP (5D, 7F)
 Ernie: Thresh=  0.10000D-02 Tol=  0.10000D-05 Strict=F.
 There are  1658 symmetry adapted cartesian basis functions of A   symmetry.
 There are  1572 symmetry adapted basis functions of A   symmetry.
  1572 basis functions,  2678 primitive gaussians,  1658 cartesian basis functions
   312 alpha electrons      312 beta electrons
       nuclear repulsion energy     15769.2884628125 Hartrees.
 IExCor=20419 DFT=T Ex+Corr=CAM-B3LYP ExCW=0 ScaHFX=  1.000000
 ScaDFX=  1.000000  1.000000  1.000000  0.810000 ScalE2=  1.000000  1.000000
 IRadAn=      5 IRanWt=     -1 IRanGd=            0 ICorTp=0 IEmpDi=  4
 HFx  wShort=  0.000000 wLong=  0.330000 cFull=  0.190000 cShort=  0.000000 cLong=  0.460000
 DFx  wShort=  0.000000 wLong=  0.330000 cFull=  0.190000 cShort=  0.000000 cLong=  0.460000
 NAtoms=  158 NActive=  158 NUniq=  158 SFac= 1.00D+00 NAtFMM=   60 NAOKFM=T Big=T
 Integral buffers will be    131072 words long.
 Raffenetti 1 integral format.
 Two-electron integral symmetry is turned on.
 Leave Link  301 at Fri Sep 10 06:35:09 2021, MaxMem= 23488102400 cpu:               1.3 elap:               0.1
 (Enter /sw/apps/gaussian-16.0/g16/l302.exe)
 NPDir=0 NMtPBC=     1 NCelOv=     1 NCel=       1 NClECP=     1 NCelD=      1
         NCelK=      1 NCelE2=     1 NClLst=     1 CellRange=     0.0.
 One-electron integrals computed using PRISM.
 One-electron integral symmetry used in STVInt
   1 Symmetry operations used in ECPInt.
 ECPInt:  NShTT=  271216 NPrTT=  987664 LenC2=  153986 LenP2D=  327303.
 LDataN:  DoStor=T MaxTD1= 4 Len=   56
 NBasis=  1572 RedAO= T EigKep=  3.30D-04  NBF=  1572
 NBsUse=  1572 1.00D-06 EigRej= -1.00D+00 NBFU=  1572
 Precomputing XC quadrature grid using
 IXCGrd= 4 IRadAn=           5 IRanWt=          -1 IRanGd=           0 AccXCQ= 0.00D+00.
 Generated NRdTot=       0 NPtTot=           0 NUsed=           0 NTot=          32
 NSgBfM=  1555  1555  1555  1555  1555 MxSgAt=   158 MxSgA2=   158.
 Leave Link  302 at Fri Sep 10 06:35:14 2021, MaxMem= 23488102400 cpu:             126.1 elap:               5.3
 (Enter /sw/apps/gaussian-16.0/g16/l303.exe)
 DipDrv:  MaxL=1.
 Leave Link  303 at Fri Sep 10 06:35:15 2021, MaxMem= 23488102400 cpu:               9.5 elap:               0.4
 (Enter /sw/apps/gaussian-16.0/g16/l308.exe)
 Leave Link  308 at Fri Sep 10 06:35:15 2021, MaxMem= 23488102400 cpu:              13.4 elap:               0.7
 (Enter /sw/apps/gaussian-16.0/g16/l401.exe)
 ExpMin= 3.36D-02 ExpMax= 4.95D+03 ExpMxC= 7.45D+02 IAcc=3 IRadAn=         5 AccDes= 0.00D+00
 Harris functional with IExCor=20419 and IRadAn=       5 diagonalized for initial guess.
 HarFok:  IExCor=20419 AccDes= 0.00D+00 IRadAn=         5 IDoV= 1 UseB2=F ITyADJ=14
 ICtDFT=  3500011 ScaDFX=  1.000000  1.000000  1.000000  1.000000
 FoFCou: FMM=F IPFlag=           0 FMFlag=      100000 FMFlg1=        2001
         NFxFlg=           0 DoJE=T BraDBF=F KetDBF=T FulRan=T
         wScrn=  0.000000 ICntrl=       500 IOpCl=  0 I1Cent=   200000004 NGrid=           0
         NMat0=    1 NMatS0=      1 NMatT0=    0 NMatD0=    1 NMtDS0=    0 NMtDT0=    0
 Petite list used in FoFCou.
 Harris En= -3918.65375532973    
 JPrj=0 DoOrth=F DoCkMO=F.
 Leave Link  401 at Fri Sep 10 06:35:24 2021, MaxMem= 23488102400 cpu:             207.1 elap:               8.7
 (Enter /sw/apps/gaussian-16.0/g16/l502.exe)
 Integral symmetry usage will be decided dynamically.
 Closed shell SCF:
 Using DIIS extrapolation, IDIIS=  1040.
 NGot= 23488102400 LenX= 23482547354 LenY= 23479796732
 Requested convergence on RMS density matrix=1.00D-08 within 128 cycles.
 Requested convergence on MAX density matrix=1.00D-06.
 Requested convergence on             energy=1.00D-06.
 No special actions if energy rises.
 Fock matrices will be formed incrementally for  20 cycles.

 Cycle   1  Pass 1  IDiag  1:
 FoFJK:  IHMeth= 1 ICntrl=       0 DoSepK=T KAlg= 0 I1Cent=           0 FoldK=F
 IRaf=         1 NMat=       1 IRICut=       1 DoRegI=T DoRafI=F ISym2E= 0 IDoP0=0 IntGTp=1.
 FoFCou: FMM=T IPFlag=           0 FMFlag=      100000 FMFlg1=        2001
         NFxFlg=           0 DoJE=T BraDBF=F KetDBF=F FulRan=T
         wScrn=  0.000000 ICntrl=       500 IOpCl=  0 I1Cent=           0 NGrid=           0
         NMat0=    1 NMatS0=      1 NMatT0=    0 NMatD0=    1 NMtDS0=    0 NMtDT0=    0
 Symmetry not used in FoFCou.
 FMM levels:  10  Number of levels for PrismC:   9
 E= -4068.93759263199    
 DIIS: error= 1.85D-02 at cycle   1 NSaved=   1.
 NSaved= 1 IEnMin= 1 EnMin= -4068.93759263199     IErMin= 1 ErrMin= 1.85D-02
 ErrMax= 1.85D-02  0.00D+00 EMaxC= 1.00D-01 BMatC= 1.70D+00 BMatP= 1.70D+00
 IDIUse=3 WtCom= 8.15D-01 WtEn= 1.85D-01
 Coeff-Com:  0.100D+01
 Coeff-En:   0.100D+01
 Coeff:      0.100D+01
 Gap=     0.117 Goal=   None    Shift=    0.000
 GapD=    0.117 DampG=1.000 DampE=0.500 DampFc=0.5000 IDamp=-1.
 Damping current iteration by 5.00D-01
 RMSDP=1.61D-03 MaxDP=1.49D-01              OVMax= 2.07D-01

 Cycle   2  Pass 1  IDiag  1:
 RMSU=  7.88D-04    CP:  9.81D-01
 E= -4069.32942246448     Delta-E=       -0.391829832497 Rises=F Damp=T
 DIIS: error= 1.15D-02 at cycle   2 NSaved=   2.
 NSaved= 2 IEnMin= 2 EnMin= -4069.32942246448     IErMin= 2 ErrMin= 1.15D-02
 ErrMax= 1.15D-02  0.00D+00 EMaxC= 1.00D-01 BMatC= 3.08D-01 BMatP= 1.70D+00
 IDIUse=3 WtCom= 8.85D-01 WtEn= 1.15D-01
 Coeff-Com: -0.212D+00 0.121D+01
 Coeff-En:   0.000D+00 0.100D+01
 Coeff:     -0.188D+00 0.119D+01
 Gap=     0.133 Goal=   None    Shift=    0.000
 RMSDP=7.79D-04 MaxDP=9.38D-02 DE=-3.92D-01 OVMax= 2.05D-01

 Cycle   3  Pass 1  IDiag  1:
 RMSU=  7.44D-04    CP:  9.67D-01  1.24D+00
 E= -4069.61850656507     Delta-E=       -0.289084100590 Rises=F Damp=F
 DIIS: error= 1.58D-02 at cycle   3 NSaved=   3.
 NSaved= 3 IEnMin= 3 EnMin= -4069.61850656507     IErMin= 2 ErrMin= 1.15D-02
 ErrMax= 1.58D-02  0.00D+00 EMaxC= 1.00D-01 BMatC= 2.05D-01 BMatP= 3.08D-01
 IDIUse=3 WtCom= 8.42D-01 WtEn= 1.58D-01
 Coeff-Com: -0.267D+00 0.653D+00 0.614D+00
 Coeff-En:   0.000D+00 0.000D+00 0.100D+01
 Coeff:     -0.225D+00 0.550D+00 0.675D+00
 Gap=     0.117 Goal=   None    Shift=    0.000
 RMSDP=5.18D-04 MaxDP=5.18D-02 DE=-2.89D-01 OVMax= 1.45D-01

 Cycle   4  Pass 1  IDiag  1:
 RMSU=  2.71D-04    CP:  9.63D-01  1.54D+00  5.01D-01
 E= -4069.75851892272     Delta-E=       -0.140012357642 Rises=F Damp=F
 DIIS: error= 7.12D-03 at cycle   4 NSaved=   4.
 NSaved= 4 IEnMin= 4 EnMin= -4069.75851892272     IErMin= 4 ErrMin= 7.12D-03
 ErrMax= 7.12D-03  0.00D+00 EMaxC= 1.00D-01 BMatC= 5.14D-02 BMatP= 2.05D-01
 IDIUse=3 WtCom= 9.29D-01 WtEn= 7.12D-02
 Coeff-Com: -0.110D+00 0.228D+00 0.409D+00 0.473D+00
 Coeff-En:   0.000D+00 0.000D+00 0.224D+00 0.776D+00
 Coeff:     -0.102D+00 0.212D+00 0.396D+00 0.494D+00
 Gap=     0.118 Goal=   None    Shift=    0.000
 RMSDP=2.07D-04 MaxDP=2.01D-02 DE=-1.40D-01 OVMax= 6.44D-02

 Cycle   5  Pass 1  IDiag  1:
 RMSU=  8.03D-05    CP:  9.63D-01  1.49D+00  6.88D-01  5.48D-01
 E= -4069.80585523957     Delta-E=       -0.047336316853 Rises=F Damp=F
 DIIS: error= 7.24D-04 at cycle   5 NSaved=   5.
 NSaved= 5 IEnMin= 5 EnMin= -4069.80585523957     IErMin= 5 ErrMin= 7.24D-04
 ErrMax= 7.24D-04  0.00D+00 EMaxC= 1.00D-01 BMatC= 1.28D-03 BMatP= 5.14D-02
 IDIUse=3 WtCom= 9.93D-01 WtEn= 7.24D-03
 Coeff-Com: -0.371D-01 0.730D-01 0.170D+00 0.253D+00 0.541D+00
 Coeff-En:   0.000D+00 0.000D+00 0.000D+00 0.000D+00 0.100D+01
 Coeff:     -0.369D-01 0.725D-01 0.168D+00 0.251D+00 0.545D+00
 Gap=     0.117 Goal=   None    Shift=    0.000
 RMSDP=4.41D-05 MaxDP=4.28D-03 DE=-4.73D-02 OVMax= 1.71D-02

 Cycle   6  Pass 1  IDiag  1:
 RMSU=  3.17D-05    CP:  9.63D-01  1.49D+00  6.79D-01  6.21D-01  7.31D-01
 E= -4069.80702418003     Delta-E=       -0.001168940456 Rises=F Damp=F
 DIIS: error= 1.76D-04 at cycle   6 NSaved=   6.
 NSaved= 6 IEnMin= 6 EnMin= -4069.80702418003     IErMin= 6 ErrMin= 1.76D-04
 ErrMax= 1.76D-04  0.00D+00 EMaxC= 1.00D-01 BMatC= 2.04D-04 BMatP= 1.28D-03
 IDIUse=3 WtCom= 9.98D-01 WtEn= 1.76D-03
 Coeff-Com:  0.184D-02-0.595D-02 0.131D-01 0.425D-01 0.310D+00 0.639D+00
 Coeff-En:   0.000D+00 0.000D+00 0.000D+00 0.000D+00 0.122D+00 0.878D+00
 Coeff:      0.183D-02-0.593D-02 0.131D-01 0.424D-01 0.309D+00 0.639D+00
 Gap=     0.117 Goal=   None    Shift=    0.000
 RMSDP=1.77D-05 MaxDP=1.27D-03 DE=-1.17D-03 OVMax= 7.08D-03

 Cycle   7  Pass 1  IDiag  1:
 RMSU=  1.17D-05    CP:  9.63D-01  1.49D+00  6.85D-01  6.20D-01  8.42D-01
                    CP:  7.36D-01
 E= -4069.80725095299     Delta-E=       -0.000226772961 Rises=F Damp=F
 DIIS: error= 1.07D-04 at cycle   7 NSaved=   7.
 NSaved= 7 IEnMin= 7 EnMin= -4069.80725095299     IErMin= 7 ErrMin= 1.07D-04
 ErrMax= 1.07D-04  0.00D+00 EMaxC= 1.00D-01 BMatC= 2.54D-05 BMatP= 2.04D-04
 IDIUse=3 WtCom= 9.99D-01 WtEn= 1.07D-03
 Coeff-Com:  0.451D-02-0.993D-02-0.860D-02-0.293D-02 0.110D+00 0.336D+00
 Coeff-Com:  0.571D+00
 Coeff-En:   0.000D+00 0.000D+00 0.000D+00 0.000D+00 0.000D+00 0.000D+00
 Coeff-En:   0.100D+01
 Coeff:      0.451D-02-0.992D-02-0.860D-02-0.293D-02 0.110D+00 0.335D+00
 Coeff:      0.571D+00
 Gap=     0.118 Goal=   None    Shift=    0.000
 RMSDP=6.65D-06 MaxDP=9.92D-04 DE=-2.27D-04 OVMax= 3.18D-03

 Cycle   8  Pass 1  IDiag  1:
 RMSU=  4.87D-06    CP:  9.63D-01  1.50D+00  6.86D-01  6.24D-01  8.43D-01
                    CP:  8.53D-01  8.12D-01
 E= -4069.80728129763     Delta-E=       -0.000030344647 Rises=F Damp=F
 DIIS: error= 5.82D-05 at cycle   8 NSaved=   8.
 NSaved= 8 IEnMin= 8 EnMin= -4069.80728129763     IErMin= 8 ErrMin= 5.82D-05
 ErrMax= 5.82D-05  0.00D+00 EMaxC= 1.00D-01 BMatC= 5.42D-06 BMatP= 2.54D-05
 IDIUse=1 WtCom= 1.00D+00 WtEn= 0.00D+00
 Coeff-Com:  0.224D-02-0.444D-02-0.791D-02-0.122D-01-0.756D-02 0.337D-01
 Coeff-Com:  0.331D+00 0.665D+00
 Coeff:      0.224D-02-0.444D-02-0.791D-02-0.122D-01-0.756D-02 0.337D-01
 Coeff:      0.331D+00 0.665D+00
 Gap=     0.118 Goal=   None    Shift=    0.000
 RMSDP=3.53D-06 MaxDP=4.43D-04 DE=-3.03D-05 OVMax= 1.01D-03

 Cycle   9  Pass 1  IDiag  1:
 RMSU=  2.03D-06    CP:  9.63D-01  1.49D+00  6.86D-01  6.26D-01  8.60D-01
                    CP:  8.82D-01  1.00D+00  9.59D-01
 E= -4069.80728961634     Delta-E=       -0.000008318704 Rises=F Damp=F
 DIIS: error= 1.77D-05 at cycle   9 NSaved=   9.
 NSaved= 9 IEnMin= 9 EnMin= -4069.80728961634     IErMin= 9 ErrMin= 1.77D-05
 ErrMax= 1.77D-05  0.00D+00 EMaxC= 1.00D-01 BMatC= 7.70D-07 BMatP= 5.42D-06
 IDIUse=1 WtCom= 1.00D+00 WtEn= 0.00D+00
 Coeff-Com:  0.497D-03-0.833D-03-0.276D-02-0.612D-02-0.194D-01-0.401D-01
 Coeff-Com:  0.997D-01 0.324D+00 0.645D+00
 Coeff:      0.497D-03-0.833D-03-0.276D-02-0.612D-02-0.194D-01-0.401D-01
 Coeff:      0.997D-01 0.324D+00 0.645D+00
 Gap=     0.118 Goal=   None    Shift=    0.000
 RMSDP=1.47D-06 MaxDP=1.30D-04 DE=-8.32D-06 OVMax= 8.15D-04

 Cycle  10  Pass 1  IDiag  1:
 RMSU=  9.94D-07    CP:  9.63D-01  1.49D+00  6.86D-01  6.26D-01  8.64D-01
                    CP:  8.92D-01  1.05D+00  1.12D+00  1.06D+00
 E= -4069.80729138353     Delta-E=       -0.000001767188 Rises=F Damp=F
 DIIS: error= 1.11D-05 at cycle  10 NSaved=  10.
 NSaved=10 IEnMin=10 EnMin= -4069.80729138353     IErMin=10 ErrMin= 1.11D-05
 ErrMax= 1.11D-05  0.00D+00 EMaxC= 1.00D-01 BMatC= 1.99D-07 BMatP= 7.70D-07
 IDIUse=1 WtCom= 1.00D+00 WtEn= 0.00D+00
 Coeff-Com: -0.426D-03 0.896D-03 0.120D-02 0.997D-03-0.387D-02-0.322D-01
 Coeff-Com: -0.422D-01-0.757D-01 0.252D+00 0.899D+00
 Coeff:     -0.426D-03 0.896D-03 0.120D-02 0.997D-03-0.387D-02-0.322D-01
 Coeff:     -0.422D-01-0.757D-01 0.252D+00 0.899D+00
 Gap=     0.118 Goal=   None    Shift=    0.000
 RMSDP=1.29D-06 MaxDP=1.29D-04 DE=-1.77D-06 OVMax= 6.88D-04

 Cycle  11  Pass 1  IDiag  1:
 RMSU=  5.53D-07    CP:  9.63D-01  1.49D+00  6.86D-01  6.26D-01  8.67D-01
                    CP:  9.02D-01  1.10D+00  1.23D+00  1.40D+00  1.37D+00
 E= -4069.80729225352     Delta-E=       -0.000000869997 Rises=F Damp=F
 DIIS: error= 4.46D-06 at cycle  11 NSaved=  11.
 NSaved=11 IEnMin=11 EnMin= -4069.80729225352     IErMin=11 ErrMin= 4.46D-06
 ErrMax= 4.46D-06  0.00D+00 EMaxC= 1.00D-01 BMatC= 7.57D-08 BMatP= 1.99D-07
 IDIUse=1 WtCom= 1.00D+00 WtEn= 0.00D+00
 Coeff-Com: -0.341D-03 0.665D-03 0.136D-02 0.211D-02 0.420D-02-0.919D-02
 Coeff-Com: -0.409D-01-0.134D+00-0.296D-01 0.479D+00 0.726D+00
 Coeff:     -0.341D-03 0.665D-03 0.136D-02 0.211D-02 0.420D-02-0.919D-02
 Coeff:     -0.409D-01-0.134D+00-0.296D-01 0.479D+00 0.726D+00
 Gap=     0.118 Goal=   None    Shift=    0.000
 RMSDP=7.45D-07 MaxDP=6.94D-05 DE=-8.70D-07 OVMax= 4.39D-04

 Cycle  12  Pass 1  IDiag  1:
 RMSU=  2.89D-07    CP:  9.63D-01  1.49D+00  6.86D-01  6.27D-01  8.68D-01
                    CP:  9.04D-01  1.12D+00  1.30D+00  1.56D+00  1.77D+00
                    CP:  1.18D+00
 E= -4069.80729255745     Delta-E=       -0.000000303928 Rises=F Damp=F
 DIIS: error= 2.14D-06 at cycle  12 NSaved=  12.
 NSaved=12 IEnMin=12 EnMin= -4069.80729255745     IErMin=12 ErrMin= 2.14D-06
 ErrMax= 2.14D-06  0.00D+00 EMaxC= 1.00D-01 BMatC= 2.04D-08 BMatP= 7.57D-08
 IDIUse=1 WtCom= 1.00D+00 WtEn= 0.00D+00
 Coeff-Com: -0.331D-04 0.473D-04 0.314D-03 0.705D-03 0.374D-02 0.325D-02
 Coeff-Com: -0.104D-02-0.452D-01-0.772D-01-0.295D-01 0.307D+00 0.838D+00
 Coeff:     -0.331D-04 0.473D-04 0.314D-03 0.705D-03 0.374D-02 0.325D-02
 Coeff:     -0.104D-02-0.452D-01-0.772D-01-0.295D-01 0.307D+00 0.838D+00
 Gap=     0.118 Goal=   None    Shift=    0.000
 RMSDP=4.53D-07 MaxDP=3.65D-05 DE=-3.04D-07 OVMax= 2.72D-04

 Cycle  13  Pass 1  IDiag  1:
 RMSU=  1.79D-07    CP:  9.63D-01  1.49D+00  6.86D-01  6.27D-01  8.68D-01
                    CP:  9.04D-01  1.13D+00  1.33D+00  1.67D+00  1.99D+00
                    CP:  1.59D+00  1.19D+00
 E= -4069.80729266271     Delta-E=       -0.000000105261 Rises=F Damp=F
 DIIS: error= 1.98D-06 at cycle  13 NSaved=  13.
 NSaved=13 IEnMin=13 EnMin= -4069.80729266271     IErMin=13 ErrMin= 1.98D-06
 ErrMax= 1.98D-06  0.00D+00 EMaxC= 1.00D-01 BMatC= 9.19D-09 BMatP= 2.04D-08
 IDIUse=1 WtCom= 1.00D+00 WtEn= 0.00D+00
 Coeff-Com:  0.120D-03-0.246D-03-0.358D-03-0.431D-03 0.818D-03 0.510D-02
 Coeff-Com:  0.185D-01 0.235D-01-0.365D-01-0.231D+00-0.147D+00 0.536D+00
 Coeff-Com:  0.832D+00
 Coeff:      0.120D-03-0.246D-03-0.358D-03-0.431D-03 0.818D-03 0.510D-02
 Coeff:      0.185D-01 0.235D-01-0.365D-01-0.231D+00-0.147D+00 0.536D+00
 Coeff:      0.832D+00
 Gap=     0.118 Goal=   None    Shift=    0.000
 RMSDP=3.80D-07 MaxDP=2.52D-05 DE=-1.05D-07 OVMax= 2.38D-04

 Cycle  14  Pass 1  IDiag  1:
 RMSU=  8.50D-08    CP:  9.63D-01  1.49D+00  6.86D-01  6.27D-01  8.69D-01
                    CP:  9.05D-01  1.14D+00  1.35D+00  1.75D+00  2.20D+00
                    CP:  1.85D+00  1.72D+00  1.14D+00
 E= -4069.80729270766     Delta-E=       -0.000000044951 Rises=F Damp=F
 DIIS: error= 7.20D-07 at cycle  14 NSaved=  14.
 NSaved=14 IEnMin=14 EnMin= -4069.80729270766     IErMin=14 ErrMin= 7.20D-07
 ErrMax= 7.20D-07  0.00D+00 EMaxC= 1.00D-01 BMatC= 1.68D-09 BMatP= 9.19D-09
 IDIUse=1 WtCom= 1.00D+00 WtEn= 0.00D+00
 Coeff-Com:  0.743D-04-0.147D-03-0.271D-03-0.417D-03-0.427D-03 0.151D-02
 Coeff-Com:  0.108D-01 0.221D-01 0.217D-02-0.108D+00-0.152D+00 0.696D-01
 Coeff-Com:  0.449D+00 0.706D+00
 Coeff:      0.743D-04-0.147D-03-0.271D-03-0.417D-03-0.427D-03 0.151D-02
 Coeff:      0.108D-01 0.221D-01 0.217D-02-0.108D+00-0.152D+00 0.696D-01
 Coeff:      0.449D+00 0.706D+00
 Gap=     0.118 Goal=   None    Shift=    0.000
 RMSDP=1.26D-07 MaxDP=7.96D-06 DE=-4.50D-08 OVMax= 6.85D-05

 Cycle  15  Pass 1  IDiag  1:
 RMSU=  4.30D-08    CP:  9.63D-01  1.49D+00  6.86D-01  6.27D-01  8.69D-01
                    CP:  9.05D-01  1.14D+00  1.36D+00  1.77D+00  2.25D+00
                    CP:  1.97D+00  1.87D+00  1.40D+00  1.01D+00
 E= -4069.80729271303     Delta-E=       -0.000000005366 Rises=F Damp=F
 DIIS: error= 4.13D-07 at cycle  15 NSaved=  15.
 NSaved=15 IEnMin=15 EnMin= -4069.80729271303     IErMin=15 ErrMin= 4.13D-07
 ErrMax= 4.13D-07  0.00D+00 EMaxC= 1.00D-01 BMatC= 2.49D-10 BMatP= 1.68D-09
 IDIUse=1 WtCom= 1.00D+00 WtEn= 0.00D+00
 Coeff-Com:  0.905D-05-0.162D-04-0.458D-04-0.101D-03-0.316D-03-0.450D-03
 Coeff-Com:  0.144D-02 0.386D-02 0.851D-02-0.227D-02-0.339D-01-0.739D-01
 Coeff-Com:  0.542D-01 0.286D+00 0.757D+00
 Coeff:      0.905D-05-0.162D-04-0.458D-04-0.101D-03-0.316D-03-0.450D-03
 Coeff:      0.144D-02 0.386D-02 0.851D-02-0.227D-02-0.339D-01-0.739D-01
 Coeff:      0.542D-01 0.286D+00 0.757D+00
 Gap=     0.118 Goal=   None    Shift=    0.000
 RMSDP=4.03D-08 MaxDP=2.88D-06 DE=-5.37D-09 OVMax= 2.92D-05

 Cycle  16  Pass 1  IDiag  1:
 RMSU=  2.10D-08    CP:  9.63D-01  1.49D+00  6.86D-01  6.27D-01  8.69D-01
                    CP:  9.05D-01  1.14D+00  1.36D+00  1.77D+00  2.26D+00
                    CP:  1.99D+00  1.92D+00  1.47D+00  1.22D+00  1.13D+00
 E= -4069.80729271377     Delta-E=       -0.000000000746 Rises=F Damp=F
 DIIS: error= 1.95D-07 at cycle  16 NSaved=  16.
 NSaved=16 IEnMin=16 EnMin= -4069.80729271377     IErMin=16 ErrMin= 1.95D-07
 ErrMax= 1.95D-07  0.00D+00 EMaxC= 1.00D-01 BMatC= 1.13D-10 BMatP= 2.49D-10
 IDIUse=1 WtCom= 1.00D+00 WtEn= 0.00D+00
 Coeff-Com: -0.147D-04 0.300D-04 0.474D-04 0.514D-04-0.591D-04-0.674D-03
 Coeff-Com: -0.194D-02-0.429D-02 0.469D-02 0.259D-01 0.219D-01-0.671D-01
 Coeff-Com: -0.798D-01-0.471D-01 0.425D+00 0.724D+00
 Coeff:     -0.147D-04 0.300D-04 0.474D-04 0.514D-04-0.591D-04-0.674D-03
 Coeff:     -0.194D-02-0.429D-02 0.469D-02 0.259D-01 0.219D-01-0.671D-01
 Coeff:     -0.798D-01-0.471D-01 0.425D+00 0.724D+00
 Gap=     0.118 Goal=   None    Shift=    0.000
 RMSDP=2.74D-08 MaxDP=1.68D-06 DE=-7.46D-10 OVMax= 1.52D-05

 Cycle  17  Pass 1  IDiag  1:
 RMSU=  1.20D-08    CP:  9.63D-01  1.49D+00  6.86D-01  6.27D-01  8.69D-01
                    CP:  9.05D-01  1.14D+00  1.36D+00  1.78D+00  2.27D+00
                    CP:  2.01D+00  1.95D+00  1.53D+00  1.31D+00  1.43D+00
                    CP:  1.19D+00
 E= -4069.80729271413     Delta-E=       -0.000000000353 Rises=F Damp=F
 DIIS: error= 1.05D-07 at cycle  17 NSaved=  17.
 NSaved=17 IEnMin=17 EnMin= -4069.80729271413     IErMin=17 ErrMin= 1.05D-07
 ErrMax= 1.05D-07  0.00D+00 EMaxC= 1.00D-01 BMatC= 2.30D-11 BMatP= 1.13D-10
 IDIUse=1 WtCom= 1.00D+00 WtEn= 0.00D+00
 Coeff-Com: -0.906D-05 0.178D-04 0.343D-04 0.487D-04 0.705D-04-0.194D-03
 Coeff-Com: -0.113D-02-0.328D-02 0.432D-03 0.118D-01 0.204D-01-0.133D-01
 Coeff-Com: -0.415D-01-0.105D+00 0.826D-02 0.305D+00 0.818D+00
 Coeff:     -0.906D-05 0.178D-04 0.343D-04 0.487D-04 0.705D-04-0.194D-03
 Coeff:     -0.113D-02-0.328D-02 0.432D-03 0.118D-01 0.204D-01-0.133D-01
 Coeff:     -0.415D-01-0.105D+00 0.826D-02 0.305D+00 0.818D+00
 Gap=     0.118 Goal=   None    Shift=    0.000
 RMSDP=1.47D-08 MaxDP=1.06D-06 DE=-3.53D-10 OVMax= 1.02D-05

 Cycle  18  Pass 1  IDiag  1:
 RMSU=  6.19D-09    CP:  9.63D-01  1.49D+00  6.86D-01  6.27D-01  8.69D-01
                    CP:  9.05D-01  1.14D+00  1.36D+00  1.78D+00  2.27D+00
                    CP:  2.01D+00  1.95D+00  1.54D+00  1.38D+00  1.58D+00
                    CP:  1.58D+00  1.31D+00
 E= -4069.80729271429     Delta-E=       -0.000000000164 Rises=F Damp=F
 DIIS: error= 5.84D-08 at cycle  18 NSaved=  18.
 NSaved=18 IEnMin=18 EnMin= -4069.80729271429     IErMin=18 ErrMin= 5.84D-08
 ErrMax= 5.84D-08  0.00D+00 EMaxC= 1.00D-01 BMatC= 1.03D-11 BMatP= 2.30D-11
 IDIUse=1 WtCom= 1.00D+00 WtEn= 0.00D+00
 Coeff-Com: -0.544D-07-0.278D-06 0.337D-05 0.942D-05 0.728D-04 0.135D-03
 Coeff-Com:  0.107D-03-0.449D-03-0.118D-02-0.310D-02 0.420D-02 0.144D-01
 Coeff-Com:  0.946D-02-0.478D-01-0.141D+00-0.109D+00 0.463D+00 0.811D+00
 Coeff:     -0.544D-07-0.278D-06 0.337D-05 0.942D-05 0.728D-04 0.135D-03
 Coeff:      0.107D-03-0.449D-03-0.118D-02-0.310D-02 0.420D-02 0.144D-01
 Coeff:      0.946D-02-0.478D-01-0.141D+00-0.109D+00 0.463D+00 0.811D+00
 Gap=     0.118 Goal=   None    Shift=    0.000
 RMSDP=1.10D-08 MaxDP=7.28D-07 DE=-1.64D-10 OVMax= 6.64D-06

 Cycle  19  Pass 1  IDiag  1:
 RMSU=  3.51D-09    CP:  9.63D-01  1.49D+00  6.86D-01  6.27D-01  8.69D-01
                    CP:  9.05D-01  1.14D+00  1.36D+00  1.78D+00  2.27D+00
                    CP:  2.02D+00  1.96D+00  1.56D+00  1.41D+00  1.71D+00
                    CP:  1.83D+00  1.81D+00  1.10D+00
 E= -4069.80729271433     Delta-E=       -0.000000000044 Rises=F Damp=F
 DIIS: error= 2.86D-08 at cycle  19 NSaved=  19.
 NSaved=19 IEnMin=19 EnMin= -4069.80729271433     IErMin=19 ErrMin= 2.86D-08
 ErrMax= 2.86D-08  0.00D+00 EMaxC= 1.00D-01 BMatC= 3.31D-12 BMatP= 1.03D-11
 IDIUse=1 WtCom= 1.00D+00 WtEn= 0.00D+00
 Coeff-Com:  0.331D-05-0.674D-05-0.106D-04-0.120D-04 0.269D-04 0.161D-03
 Coeff-Com:  0.512D-03 0.896D-03-0.873D-03-0.688D-02-0.483D-02 0.141D-01
 Coeff-Com:  0.238D-01 0.644D-02-0.962D-01-0.205D+00-0.596D-02 0.511D+00
 Coeff-Com:  0.762D+00
 Coeff:      0.331D-05-0.674D-05-0.106D-04-0.120D-04 0.269D-04 0.161D-03
 Coeff:      0.512D-03 0.896D-03-0.873D-03-0.688D-02-0.483D-02 0.141D-01
 Coeff:      0.238D-01 0.644D-02-0.962D-01-0.205D+00-0.596D-02 0.511D+00
 Coeff:      0.762D+00
 Gap=     0.118 Goal=   None    Shift=    0.000
 RMSDP=7.37D-09 MaxDP=4.89D-07 DE=-4.37D-11 OVMax= 4.65D-06

 SCF Done:  E(RCAM-B3LYP) =  -4069.80729271     A.U. after   19 cycles
            NFock= 19  Conv=0.74D-08     -V/T= 2.0102
 KE= 4.028810320502D+03 PE=-4.101918993128D+04 EE= 1.715128385526D+04
 Leave Link  502 at Fri Sep 10 06:48:50 2021, MaxMem= 23488102400 cpu:           18676.6 elap:             805.4
 (Enter /sw/apps/gaussian-16.0/g16/l801.exe)
 DoSCS=F DFT=T ScalE2(SS,OS)=  1.000000  1.000000
 ExpMin= 3.36D-02 ExpMax= 4.95D+03 ExpMxC= 7.45D+02 IAcc=3 IRadAn=         5 AccDes= 0.00D+00
 HarFok:  IExCor=  205 AccDes= 0.00D+00 IRadAn=         5 IDoV=-2 UseB2=F ITyADJ=14
 ICtDFT= 12500011 ScaDFX=  1.000000  1.000000  1.000000  1.000000
 GSVD:  LWork=       -9588 too small for GESVD, short by       45590 words or       45590 for optimal perf.
 Largest valence mixing into a core orbital is  2.04D-04
 Largest core mixing into a valence orbital is  5.24D-05
 Range of M.O.s used for correlation:    95  1572
 NBasis=  1572 NAE=   312 NBE=   312 NFC=    94 NFV=     0
 NROrb=   1478 NOA=   218 NOB=   218 NVA=  1260 NVB=  1260
 Leave Link  801 at Fri Sep 10 06:48:50 2021, MaxMem= 23488102400 cpu:              10.1 elap:               0.5
 (Enter /sw/apps/gaussian-16.0/g16/l914.exe)
 RHF ground state
 Two-electron integrals replicated using symmetry.
 MDV= 23488102400 DFT=T DoStab=F Mixed=T DoRPA=T DoScal=F NonHer=T
 Making orbital integer symmetry assigments:
 Orbital symmetries:
       Occupied  (A) (A) (A) (A) (A) (A) (A) (A) (A) (A) (A) (A)
                 (A) (A) (A) (A) (A) (A) (A) (A) (A) (A) (A) (A)
                 (A) (A) (A) (A) (A) (A) (A) (A) (A) (A) (A) (A)
                 (A) (A) (A) (A) (A) (A) (A) (A) (A) (A) (A) (A)
                 (A) (A) (A) (A) (A) (A) (A) (A) (A) (A) (A) (A)
                 (A) (A) (A) (A) (A) (A) (A) (A) (A) (A) (A) (A)
                 (A) (A) (A) (A) (A) (A) (A) (A) (A) (A) (A) (A)
                 (A) (A) (A) (A) (A) (A) (A) (A) (A) (A) (A) (A)
                 (A) (A) (A) (A) (A) (A) (A) (A) (A) (A) (A) (A)
                 (A) (A) (A) (A) (A) (A) (A) (A) (A) (A) (A) (A)
                 (A) (A) (A) (A) (A) (A) (A) (A) (A) (A) (A) (A)
                 (A) (A) (A) (A) (A) (A) (A) (A) (A) (A) (A) (A)
                 (A) (A) (A) (A) (A) (A) (A) (A) (A) (A) (A) (A)
                 (A) (A) (A) (A) (A) (A) (A) (A) (A) (A) (A) (A)
                 (A) (A) (A) (A) (A) (A) (A) (A) (A) (A) (A) (A)
                 (A) (A) (A) (A) (A) (A) (A) (A) (A) (A) (A) (A)
                 (A) (A) (A) (A) (A) (A) (A) (A) (A) (A) (A) (A)
                 (A) (A) (A) (A) (A) (A) (A) (A) (A) (A) (A) (A)
                 (A) (A) (A) (A) (A) (A) (A) (A) (A) (A) (A) (A)
                 (A) (A) (A) (A) (A) (A) (A) (A) (A) (A) (A) (A)
                 (A) (A) (A) (A) (A) (A) (A) (A) (A) (A) (A) (A)
                 (A) (A) (A) (A) (A) (A) (A) (A) (A) (A) (A) (A)
                 (A) (A) (A) (A) (A) (A) (A) (A) (A) (A) (A) (A)
                 (A) (A) (A) (A) (A) (A) (A) (A) (A) (A) (A) (A)
                 (A) (A) (A) (A) (A) (A) (A) (A) (A) (A) (A) (A)
                 (A) (A) (A) (A) (A) (A) (A) (A) (A) (A) (A) (A)
       Virtual   (A) (A) (A) (A) (A) (A) (A) (A) (A) (A) (A) (A)
                 (A) (A) (A) (A) (A) (A) (A) (A) (A) (A) (A) (A)
                 (A) (A) (A) (A) (A) (A) (A) (A) (A) (A) (A) (A)
                 (A) (A) (A) (A) (A) (A) (A) (A) (A) (A) (A) (A)
                 (A) (A) (A) (A) (A) (A) (A) (A) (A) (A) (A) (A)
                 (A) (A) (A) (A) (A) (A) (A) (A) (A) (A) (A) (A)
                 (A) (A) (A) (A) (A) (A) (A) (A) (A) (A) (A) (A)
                 (A) (A) (A) (A) (A) (A) (A) (A) (A) (A) (A) (A)
                 (A) (A) (A) (A) (A) (A) (A) (A) (A) (A) (A) (A)
                 (A) (A) (A) (A) (A) (A) (A) (A) (A) (A) (A) (A)
                 (A) (A) (A) (A) (A) (A) (A) (A) (A) (A) (A) (A)
                 (A) (A) (A) (A) (A) (A) (A) (A) (A) (A) (A) (A)
                 (A) (A) (A) (A) (A) (A) (A) (A) (A) (A) (A) (A)
                 (A) (A) (A) (A) (A) (A) (A) (A) (A) (A) (A) (A)
                 (A) (A) (A) (A) (A) (A) (A) (A) (A) (A) (A) (A)
                 (A) (A) (A) (A) (A) (A) (A) (A) (A) (A) (A) (A)
                 (A) (A) (A) (A) (A) (A) (A) (A) (A) (A) (A) (A)
                 (A) (A) (A) (A) (A) (A) (A) (A) (A) (A) (A) (A)
                 (A) (A) (A) (A) (A) (A) (A) (A) (A) (A) (A) (A)
                 (A) (A) (A) (A) (A) (A) (A) (A) (A) (A) (A) (A)
                 (A) (A) (A) (A) (A) (A) (A) (A) (A) (A) (A) (A)
                 (A) (A) (A) (A) (A) (A) (A) (A) (A) (A) (A) (A)
                 (A) (A) (A) (A) (A) (A) (A) (A) (A) (A) (A) (A)
                 (A) (A) (A) (A) (A) (A) (A) (A) (A) (A) (A) (A)
                 (A) (A) (A) (A) (A) (A) (A) (A) (A) (A) (A) (A)
                 (A) (A) (A) (A) (A) (A) (A) (A) (A) (A) (A) (A)
                 (A) (A) (A) (A) (A) (A) (A) (A) (A) (A) (A) (A)
                 (A) (A) (A) (A) (A) (A) (A) (A) (A) (A) (A) (A)
                 (A) (A) (A) (A) (A) (A) (A) (A) (A) (A) (A) (A)
                 (A) (A) (A) (A) (A) (A) (A) (A) (A) (A) (A) (A)
                 (A) (A) (A) (A) (A) (A) (A) (A) (A) (A) (A) (A)
                 (A) (A) (A) (A) (A) (A) (A) (A) (A) (A) (A) (A)
                 (A) (A) (A) (A) (A) (A) (A) (A) (A) (A) (A) (A)
                 (A) (A) (A) (A) (A) (A) (A) (A) (A) (A) (A) (A)
                 (A) (A) (A) (A) (A) (A) (A) (A) (A) (A) (A) (A)
                 (A) (A) (A) (A) (A) (A) (A) (A) (A) (A) (A) (A)
                 (A) (A) (A) (A) (A) (A) (A) (A) (A) (A) (A) (A)
                 (A) (A) (A) (A) (A) (A) (A) (A) (A) (A) (A) (A)
                 (A) (A) (A) (A) (A) (A) (A) (A) (A) (A) (A) (A)
                 (A) (A) (A) (A) (A) (A) (A) (A) (A) (A) (A) (A)
                 (A) (A) (A) (A) (A) (A) (A) (A) (A) (A) (A) (A)
                 (A) (A) (A) (A) (A) (A) (A) (A) (A) (A) (A) (A)
                 (A) (A) (A) (A) (A) (A) (A) (A) (A) (A) (A) (A)
                 (A) (A) (A) (A) (A) (A) (A) (A) (A) (A) (A) (A)
                 (A) (A) (A) (A) (A) (A) (A) (A) (A) (A) (A) (A)
                 (A) (A) (A) (A) (A) (A) (A) (A) (A) (A) (A) (A)
                 (A) (A) (A) (A) (A) (A) (A) (A) (A) (A) (A) (A)
                 (A) (A) (A) (A) (A) (A) (A) (A) (A) (A) (A) (A)
                 (A) (A) (A) (A) (A) (A) (A) (A) (A) (A) (A) (A)
                 (A) (A) (A) (A) (A) (A) (A) (A) (A) (A) (A) (A)
                 (A) (A) (A) (A) (A) (A) (A) (A) (A) (A) (A) (A)
                 (A) (A) (A) (A) (A) (A) (A) (A) (A) (A) (A) (A)
                 (A) (A) (A) (A) (A) (A) (A) (A) (A) (A) (A) (A)
                 (A) (A) (A) (A) (A) (A) (A) (A) (A) (A) (A) (A)
                 (A) (A) (A) (A) (A) (A) (A) (A) (A) (A) (A) (A)
                 (A) (A) (A) (A) (A) (A) (A) (A) (A) (A) (A) (A)
                 (A) (A) (A) (A) (A) (A) (A) (A) (A) (A) (A) (A)
                 (A) (A) (A) (A) (A) (A) (A) (A) (A) (A) (A) (A)
                 (A) (A) (A) (A) (A) (A) (A) (A) (A) (A) (A) (A)
                 (A) (A) (A) (A) (A) (A) (A) (A) (A) (A) (A) (A)
                 (A) (A) (A) (A) (A) (A) (A) (A) (A) (A) (A) (A)
                 (A) (A) (A) (A) (A) (A) (A) (A) (A) (A) (A) (A)
                 (A) (A) (A) (A) (A) (A) (A) (A) (A) (A) (A) (A)
                 (A) (A) (A) (A) (A) (A) (A) (A) (A) (A) (A) (A)
                 (A) (A) (A) (A) (A) (A) (A) (A) (A) (A) (A) (A)
                 (A) (A) (A) (A) (A) (A) (A) (A) (A) (A) (A) (A)
                 (A) (A) (A) (A) (A) (A) (A) (A) (A) (A) (A) (A)
                 (A) (A) (A) (A) (A) (A) (A) (A) (A) (A) (A) (A)
                 (A) (A) (A) (A) (A) (A) (A) (A) (A) (A) (A) (A)
                 (A) (A) (A) (A) (A) (A) (A) (A) (A) (A) (A) (A)
                 (A) (A) (A) (A) (A) (A) (A) (A) (A) (A) (A) (A)
                 (A) (A) (A) (A) (A) (A) (A) (A) (A) (A) (A) (A)
                 (A) (A) (A) (A) (A) (A) (A) (A) (A) (A) (A) (A)
                 (A) (A) (A) (A) (A) (A) (A) (A) (A) (A) (A) (A)
                 (A) (A) (A) (A) (A) (A) (A) (A) (A) (A) (A) (A)
                 (A) (A) (A) (A) (A) (A) (A) (A) (A) (A) (A) (A)
                 (A) (A) (A) (A) (A) (A) (A) (A) (A) (A) (A) (A)
                 (A) (A) (A) (A) (A) (A) (A) (A) (A) (A) (A) (A)
                 (A) (A) (A) (A) (A) (A) (A) (A) (A) (A) (A) (A)
                 (A) (A) (A) (A) (A) (A) (A) (A) (A) (A) (A) (A)
                 (A) (A) (A) (A) (A) (A) (A) (A) (A) (A) (A) (A)
                 (A) (A) (A) (A) (A) (A) (A) (A) (A) (A) (A) (A)
                 (A) (A) (A) (A) (A) (A) (A) (A) (A) (A) (A) (A)
                 (A) (A) (A) (A) (A) (A) (A) (A) (A) (A) (A) (A)
                 (A) (A) (A) (A) (A) (A) (A) (A) (A) (A) (A) (A)
                 (A) (A) (A) (A) (A) (A) (A) (A) (A) (A) (A) (A)
                 (A) (A) (A) (A) (A) (A) (A) (A) (A) (A) (A) (A)
                 (A) (A) (A) (A) (A) (A) (A) (A) (A) (A) (A) (A)
                 (A) (A) (A) (A) (A) (A) (A) (A) (A) (A) (A) (A)
                 (A) (A) (A) (A) (A) (A) (A) (A) (A) (A) (A) (A)
                 (A) (A) (A) (A) (A) (A) (A) (A) (A) (A) (A) (A)
                 (A) (A) (A) (A) (A) (A) (A) (A) (A) (A) (A) (A)
                 (A) (A) (A) (A) (A) (A) (A) (A) (A) (A) (A) (A)
                 (A) (A) (A) (A) (A) (A) (A) (A) (A) (A) (A) (A)
                 (A) (A) (A) (A) (A) (A) (A) (A) (A) (A) (A) (A)
                 (A) (A) (A) (A) (A) (A) (A) (A) (A) (A) (A) (A)
                 (A) (A) (A) (A) (A) (A) (A) (A) (A) (A) (A) (A)
                 (A) (A) (A) (A) (A) (A) (A) (A) (A) (A) (A) (A)
                 (A) (A) (A) (A) (A) (A) (A) (A) (A) (A) (A) (A)
                 (A) (A) (A) (A) (A) (A) (A) (A) (A) (A) (A) (A)
                 (A) (A) (A) (A) (A) (A) (A) (A) (A) (A) (A) (A)
                 (A) (A) (A) (A) (A) (A) (A) (A) (A) (A) (A) (A)
                 (A) (A) (A) (A) (A) (A) (A) (A) (A) (A) (A) (A)
                 (A) (A) (A) (A) (A) (A) (A) (A) (A) (A) (A) (A)
                 (A) (A) (A) (A) (A) (A) (A) (A) (A) (A) (A) (A)
    20 initial guesses have been made.
 Convergence on wavefunction:    0.001000000000000
 Davidson Disk Diagonalization:  ConvIn= 1.00D-03 SkipCon=T Conv= 1.00D-03.
 Max sub-space:  2000 roots to seek:    20 dimension of matrix:       549360
 Iteration     1 Dimension    20 NMult     0 NNew     20
 CISAX will form    20 AO SS matrices at one time.
 NMat=    20 NSing=    20 JSym2X= 0.
 FoFJK:  IHMeth= 1 ICntrl=       0 DoSepK=T KAlg= 0 I1Cent=           0 FoldK=F
 IRaf=         1 NMat=      40 IRICut=       1 DoRegI=T DoRafI=F ISym2E= 0 IDoP0=3 IntGTp=3.
 FoFCou: FMM=T IPFlag=           0 FMFlag=      100000 FMFlg1=        2001
         NFxFlg=           0 DoJE=F BraDBF=F KetDBF=F FulRan=T
         wScrn=  0.000000 ICntrl=       500 IOpCl=  0 I1Cent=           0 NGrid=           0
         NMat0=   20 NMatS0=     20 NMatT0=    0 NMatD0=   20 NMtDS0=    0 NMtDT0=    0
 Symmetry not used in FoFCou.
 FMM levels:  10  Number of levels for PrismC:   9
 New state      2 was old state      4
 New state      3 was old state      7
 New state      4 was old state      6
 New state      5 was old state      2
 Excitation Energies [eV] at current iteration:
 Root      1 :     2.228443812989359
 Root      2 :     2.483304570267888
 Root      3 :     2.597035988199585
 Root      4 :     2.622087597425915
 Root      5 :     2.654387860100739
 Root      6 :     2.701366274948257
 Root      7 :     3.059715047009701
 Root      8 :     3.284854967712240
 Root      9 :     3.632301329527343
 Root     10 :     3.666240502792027
 Root     11 :     3.740784870969107
 Root     12 :     3.759488594521754
 Root     13 :     4.074006468449411
 Root     14 :     4.114017396433839
 Root     15 :     4.223895331851742
 Root     16 :     4.348001504493477
 Root     17 :     4.406836371592357
 Root     18 :     4.607924911211859
 Root     19 :     4.711233752123849
 Root     20 :     4.987318014530133
 Iteration     2 Dimension    30 NMult    20 NNew     10
 CISAX will form    10 AO SS matrices at one time.
 NMat=    10 NSing=    10 JSym2X= 0.
 New state      1 was old state      5
 Root      1 not converged, maximum delta is    0.130086774715762
 New state      2 was old state      6
 Root      2 not converged, maximum delta is    0.304480386739673
 New state      3 was old state      1
 Root      3 not converged, maximum delta is    0.077606986706658
 Root      4 not converged, maximum delta is    0.383589962984009
 New state      5 was old state      3
 Root      5 not converged, maximum delta is    0.390409495733448
 Excitation Energies [eV] at current iteration:
 Root      1 :     1.764126311259768   Change is   -0.890261548840970
 Root      2 :     2.111212638445104   Change is   -0.590153636503153
 Root      3 :     2.220105212294171   Change is   -0.008338600695188
 Root      4 :     2.231513022372064   Change is   -0.390574575053851
 Root      5 :     2.256580614605141   Change is   -0.340455373594444
 Iteration     3 Dimension    40 NMult    30 NNew     10
 CISAX will form    10 AO SS matrices at one time.
 NMat=    10 NSing=    10 JSym2X= 0.
 Root      1 not converged, maximum delta is    0.057413410749046
 Root      2 not converged, maximum delta is    0.217666150487911
 New state      3 was old state      4
 Root      3 not converged, maximum delta is    0.353736683237633
 New state      4 was old state      5
 Root      4 not converged, maximum delta is    0.359022427170013
 New state      5 was old state      3
 Root      5 not converged, maximum delta is    0.301724526425026
 Excitation Energies [eV] at current iteration:
 Root      1 :     1.660774980942418   Change is   -0.103351330317351
 Root      2 :     1.775718622426575   Change is   -0.335494016018530
 Root      3 :     2.180117209549372   Change is   -0.051395812822692
 Root      4 :     2.197398857216361   Change is   -0.059181757388780
 Root      5 :     2.224522188705148   Change is    0.004416976410978
 Iteration     4 Dimension    50 NMult    40 NNew     10
 CISAX will form    10 AO SS matrices at one time.
 NMat=    10 NSing=    10 JSym2X= 0.
 Root      1 not converged, maximum delta is    0.038739089008580
 Root      2 not converged, maximum delta is    0.040602088506790
 Root      3 not converged, maximum delta is    0.015842318260009
 Root      4 not converged, maximum delta is    0.043510155376857
 Root      5 not converged, maximum delta is    0.035271950637747
 Excitation Energies [eV] at current iteration:
 Root      1 :     1.644075270467924   Change is   -0.016699710474494
 Root      2 :     1.687628703145507   Change is   -0.088089919281068
 Root      3 :     2.172944234356938   Change is   -0.007172975192434
 Root      4 :     2.190116701225186   Change is   -0.007282155991175
 Root      5 :     2.223764317170963   Change is   -0.000757871534185
 Iteration     5 Dimension    60 NMult    50 NNew     10
 CISAX will form    10 AO SS matrices at one time.
 NMat=    10 NSing=    10 JSym2X= 0.
 Root      1 not converged, maximum delta is    0.008988793185246
 Root      2 not converged, maximum delta is    0.010650797877980
 Root      3 not converged, maximum delta is    0.001545521270970
 Root      4 not converged, maximum delta is    0.004268899846241
 Root      5 not converged, maximum delta is    0.003650995136427
 Excitation Energies [eV] at current iteration:
 Root      1 :     1.642194011084588   Change is   -0.001881259383335
 Root      2 :     1.679991692175591   Change is   -0.007637010969915
 Root      3 :     2.172108879678754   Change is   -0.000835354678184
 Root      4 :     2.189273049532154   Change is   -0.000843651693031
 Root      5 :     2.223691844698009   Change is   -0.000072472472954
 Iteration     6 Dimension    70 NMult    60 NNew     10
 CISAX will form    10 AO SS matrices at one time.
 NMat=    10 NSing=    10 JSym2X= 0.
 Root      1 not converged, maximum delta is    0.002608235512027
 Root      2 not converged, maximum delta is    0.004938315403159
 Root      3 has converged.
 Root      4 has converged.
 Root      5 has converged.
 Excitation Energies [eV] at current iteration:
 Root      1 :     1.641938065557047   Change is   -0.000255945527542
 Root      2 :     1.678598140361707   Change is   -0.001393551813884
 Root      3 :     2.171986972609577   Change is   -0.000121907069177
 Root      4 :     2.189153495407215   Change is   -0.000119554124939
 Root      5 :     2.223682079444071   Change is   -0.000009765253938
 Iteration     7 Dimension    74 NMult    70 NNew      4
 CISAX will form     4 AO SS matrices at one time.
 NMat=     4 NSing=     4 JSym2X= 0.
 Root      1 has converged.
 Root      2 has converged.
 Root      3 has converged.
[...]
 Alpha virt. eigenvalues --    1.83714   1.83993   1.84377   1.84462   1.84695
 Alpha virt. eigenvalues --    1.84838   1.84904   1.85114   1.85287   1.85444
 Alpha virt. eigenvalues --    1.85501   1.85701   1.85766   1.86180   1.86213
 Alpha virt. eigenvalues --    1.86360   1.86475   1.86590   1.86773   1.86900
 Alpha virt. eigenvalues --    1.86935   1.87082   1.87270   1.87437   1.87623
 Alpha virt. eigenvalues --    1.87765   1.87962   1.88034   1.88158   1.88292
 Alpha virt. eigenvalues --    1.88414   1.88604   1.88768   1.88997   1.89191
 Alpha virt. eigenvalues --    1.89215   1.89287   1.89470   1.89721   1.90110
 Alpha virt. eigenvalues --    1.90190   1.90699   1.90748   1.90958   1.91100
 Alpha virt. eigenvalues --    1.91220   1.91615   1.91684   1.91872   1.92086
 Alpha virt. eigenvalues --    1.92400   1.92468   1.92799   1.93021   1.93157
 Alpha virt. eigenvalues --    1.93763   1.93880   1.94179   1.94423   1.94726
 Alpha virt. eigenvalues --    1.94867   1.95531   1.95673   1.95757   1.95799
 Alpha virt. eigenvalues --    1.95847   1.96048   1.96258   1.96444   1.96563
 Alpha virt. eigenvalues --    1.96709   1.96826   1.97200   1.97598   1.97631
 Alpha virt. eigenvalues --    1.97952   1.98000   1.98259   1.98321   1.98497
 Alpha virt. eigenvalues --    1.98539   1.98952   1.99039   1.99324   1.99689
 Alpha virt. eigenvalues --    2.00086   2.00296   2.00924   2.01112   2.01177
 Alpha virt. eigenvalues --    2.01356   2.01517   2.01853   2.01878   2.01990
 Alpha virt. eigenvalues --    2.02050   2.02603   2.02841   2.03091   2.03304
 Alpha virt. eigenvalues --    2.03330   2.03442   2.03681   2.03856   2.04110
 Alpha virt. eigenvalues --    2.04335   2.04624   2.05035   2.05394   2.05586
 Alpha virt. eigenvalues --    2.06072   2.06285   2.06739   2.07143   2.07231
 Alpha virt. eigenvalues --    2.07477   2.07589   2.08696   2.08949   2.09222
 Alpha virt. eigenvalues --    2.09622   2.09893   2.11005   2.11108   2.11256
 Alpha virt. eigenvalues --    2.11511   2.11669   2.11708   2.11744   2.12394
 Alpha virt. eigenvalues --    2.12584   2.12618   2.12804   2.13056   2.13126
 Alpha virt. eigenvalues --    2.13393   2.13524   2.13865   2.14299   2.14450
 Alpha virt. eigenvalues --    2.15513   2.15551   2.15856   2.16303   2.16576
 Alpha virt. eigenvalues --    2.16788   2.16831   2.17240   2.17502   2.17818
 Alpha virt. eigenvalues --    2.18050   2.18109   2.18234   2.18262   2.18382
 Alpha virt. eigenvalues --    2.18835   2.19003   2.19225   2.19677   2.19868
 Alpha virt. eigenvalues --    2.20106   2.20210   2.20550   2.20985   2.21121
 Alpha virt. eigenvalues --    2.21391   2.21558   2.21712   2.21989   2.22024
 Alpha virt. eigenvalues --    2.23008   2.23058   2.23428   2.23573   2.23859
 Alpha virt. eigenvalues --    2.24751   2.25252   2.25899   2.26061   2.26594
 Alpha virt. eigenvalues --    2.26697   2.27168   2.27332   2.27574   2.28234
 Alpha virt. eigenvalues --    2.28697   2.28904   2.29533   2.29877   2.29915
 Alpha virt. eigenvalues --    2.30197   2.30334   2.30818   2.30921   2.31179
 Alpha virt. eigenvalues --    2.31368   2.31802   2.32553   2.32941   2.33335
 Alpha virt. eigenvalues --    2.33624   2.33732   2.34027   2.34297   2.34625
 Alpha virt. eigenvalues --    2.35179   2.35456   2.35674   2.36333   2.36499
 Alpha virt. eigenvalues --    2.36743   2.36943   2.37514   2.37841   2.38036
 Alpha virt. eigenvalues --    2.38379   2.38808   2.39186   2.39444   2.39610
 Alpha virt. eigenvalues --    2.40110   2.40319   2.40416   2.40690   2.41044
 Alpha virt. eigenvalues --    2.41118   2.41431   2.41773   2.42023   2.42074
 Alpha virt. eigenvalues --    2.42664   2.43079   2.43126   2.43386   2.43489
 Alpha virt. eigenvalues --    2.44065   2.44606   2.44663   2.45053   2.45274
 Alpha virt. eigenvalues --    2.45463   2.45572   2.46006   2.46279   2.46423
 Alpha virt. eigenvalues --    2.46814   2.46909   2.47156   2.47340   2.47673
 Alpha virt. eigenvalues --    2.47824   2.48276   2.48505   2.49396   2.50054
 Alpha virt. eigenvalues --    2.50134   2.50279   2.50721   2.50987   2.51218
 Alpha virt. eigenvalues --    2.51505   2.51727   2.52240   2.52470   2.52783
 Alpha virt. eigenvalues --    2.53365   2.53520   2.53910   2.53997   2.54488
 Alpha virt. eigenvalues --    2.54703   2.54979   2.55459   2.55745   2.57360
 Alpha virt. eigenvalues --    2.57915   2.58842   2.58942   2.59349   2.59979
 Alpha virt. eigenvalues --    2.60421   2.60489   2.61264   2.62268   2.62308
 Alpha virt. eigenvalues --    2.62432   2.62891   2.63080   2.63428   2.63833
 Alpha virt. eigenvalues --    2.64461   2.64541   2.64652   2.65070   2.65287
 Alpha virt. eigenvalues --    2.65691   2.66212   2.66705   2.67019   2.67180
 Alpha virt. eigenvalues --    2.67456   2.68245   2.68357   2.68725   2.68907
 Alpha virt. eigenvalues --    2.69181   2.69296   2.69617   2.69861   2.70187
 Alpha virt. eigenvalues --    2.70376   2.70865   2.71333   2.71964   2.72130
 Alpha virt. eigenvalues --    2.72418   2.72576   2.72751   2.72902   2.73197
 Alpha virt. eigenvalues --    2.73488   2.73595   2.73773   2.74503   2.74650
 Alpha virt. eigenvalues --    2.74855   2.75358   2.76609   2.76737   2.77005
 Alpha virt. eigenvalues --    2.77220   2.77337   2.78053   2.78088   2.78473
 Alpha virt. eigenvalues --    2.78810   2.78913   2.79005   2.79428   2.80209
 Alpha virt. eigenvalues --    2.80448   2.80765   2.80901   2.81303   2.81444
 Alpha virt. eigenvalues --    2.81776   2.82286   2.82370   2.82520   2.83501
 Alpha virt. eigenvalues --    2.83669   2.84031   2.84399   2.84439   2.84910
 Alpha virt. eigenvalues --    2.85062   2.85123   2.85765   2.86575   2.86823
 Alpha virt. eigenvalues --    2.87269   2.87380   2.87538   2.88206   2.88368
 Alpha virt. eigenvalues --    2.88723   2.88879   2.89080   2.90347   2.90804
 Alpha virt. eigenvalues --    2.90999   2.91379   2.92105   2.93202   2.93618
 Alpha virt. eigenvalues --    2.93995   2.94203   2.94931   2.95201   2.95275
 Alpha virt. eigenvalues --    2.95683   2.95929   2.95935   2.96701   2.96784
 Alpha virt. eigenvalues --    2.96987   2.97151   2.97628   2.98144   2.98326
 Alpha virt. eigenvalues --    2.98455   2.98508   2.98717   2.98953   2.99143
 Alpha virt. eigenvalues --    2.99171   2.99643   2.99797   3.00031   3.00148
 Alpha virt. eigenvalues --    3.00225   3.00627   3.00842   3.01174   3.01855
 Alpha virt. eigenvalues --    3.01960   3.02168   3.02302   3.02541   3.02773
 Alpha virt. eigenvalues --    3.02885   3.03217   3.03785   3.03922   3.04154
 Alpha virt. eigenvalues --    3.04308   3.04363   3.04648   3.04865   3.04958
 Alpha virt. eigenvalues --    3.05502   3.05943   3.06123   3.06400   3.06689
 Alpha virt. eigenvalues --    3.07070   3.07409   3.08190   3.09025   3.09186
 Alpha virt. eigenvalues --    3.09749   3.10052   3.10575   3.10799   3.11008
 Alpha virt. eigenvalues --    3.11519   3.11706   3.11905   3.12021   3.12513
 Alpha virt. eigenvalues --    3.12727   3.13264   3.13726   3.13827   3.13912
 Alpha virt. eigenvalues --    3.14215   3.14580   3.16124   3.16288   3.17094
 Alpha virt. eigenvalues --    3.17681   3.18062   3.18404   3.19314   3.19690
 Alpha virt. eigenvalues --    3.21921   3.22713   3.23929   3.24404   3.24628
 Alpha virt. eigenvalues --    3.25327   3.26302   3.26811   3.27534   3.27592
 Alpha virt. eigenvalues --    3.28714   3.29306   3.31305   3.31577   3.33246
 Alpha virt. eigenvalues --    3.33376   3.40199   3.40325   3.42654   3.43296
 Alpha virt. eigenvalues --    3.48444   3.48833   3.49890   3.50474   3.51048
 Alpha virt. eigenvalues --    3.51403   3.56675   3.57261   3.59111   3.59503
 Alpha virt. eigenvalues --    3.62689   3.62821   3.66309   3.66812   3.67307
 Alpha virt. eigenvalues --    3.67642   3.72881   3.74105   3.75705   3.76769
          Condensed to atoms (all electrons):
 Mulliken charges:
               1
     1  Mg   0.775190
     2  C    0.000966
     3  C   -0.095092
     4  C   -0.036557
     5  C   -0.062239
     6  N   -0.254496
     7  C   -0.057686
     8  C   -0.012168
     9  C   -0.086217
    10  C    0.042988
    11  C    0.104561
    12  C    0.050562
    13  C   -0.071378
    14  H    0.034332
    15  N   -0.435541
    16  C    0.169354
    17  C   -0.181210
    18  C   -0.001326
    19  C    0.122250
    20  C    0.111851
    21  C    0.013644
    22  O   -0.247773
    23  C    0.064866
    24  N   -0.337810
    25  C    0.046668
    26  C   -0.027279
    27  C   -0.024642
    28  C    0.082283
    29  C    0.076657
    30  C    0.033820
    31  C   -0.003117
    32  N   -0.306333
    33  C    0.083301
    34  C   -0.169220
    35  C    0.009497
    36  C    0.077149
    37  C    0.127142
    38  C    0.046649
    39  O   -0.187481
    40  C   -0.008215
    41  C    0.213687
    42  O   -0.260439
    43  O   -0.303893
    44  C    0.157577
    45  H   -0.018254
    46  H   -0.014128
    47  H   -0.039791
    48  H    0.001663
    49  H   -0.004513
    50  H    0.025894
    51  H    0.017835
    52  H    0.017306
    53  H    0.010474
    54  H    0.040927
    55  H    0.019926
    56  H    0.018702
    57  H    0.005875
    58  H    0.027860
    59  H    0.038419
    60  H    0.037869
    61  H    0.038453
    62  H    0.029142
    63  H    0.024534
    64  H    0.008624
    65  H    0.024449
    66  H    0.011559
    67  H    0.004477
    68  H    0.005733
    69  H    0.001553
    70  H    0.020869
    71  H    0.014793
    72  H    0.028996
    73  H    0.047989
    74  H    0.010694
    75  H    0.046564
    76  H    0.036088
    77  H    0.044530
    78  H    0.046207
    79  H    0.052116
    80  Mg   0.838000
    81  C   -0.017002
    82  C   -0.090413
    83  C   -0.045881
    84  C   -0.065112
    85  N   -0.254586
    86  C   -0.049408
    87  C   -0.015251
    88  C   -0.089854
    89  C    0.044342
    90  C    0.113892
    91  C    0.062814
    92  C   -0.077051
    93  H    0.033240
    94  N   -0.424044
    95  C    0.164958
    96  C   -0.186817
    97  C   -0.003113
    98  C    0.152617
    99  C    0.113253
   100  C    0.032231
   101  O   -0.251433
   102  C    0.037459
   103  N   -0.349907
   104  C    0.037730
   105  C   -0.019831
   106  C   -0.034754
   107  C    0.088905
   108  C    0.073446
   109  C    0.034898
   110  C   -0.007586
   111  N   -0.323959
   112  C    0.078292
   113  C   -0.163546
   114  C    0.002162
   115  C    0.096052
   116  C    0.131553
   117  C    0.042055
   118  O   -0.188652
   119  C    0.001045
   120  C    0.211184
   121  O   -0.251522
   122  O   -0.305419
   123  C    0.152281
   124  H   -0.010631
   125  H   -0.015341
   126  H   -0.041099
   127  H   -0.000824
   128  H   -0.005167
   129  H    0.020714
   130  H    0.019746
   131  H    0.019517
   132  H    0.013004
   133  H    0.037032
   134  H    0.021063
   135  H    0.018675
   136  H    0.012799
   137  H    0.027944
   138  H    0.043379
   139  H    0.045396
   140  H    0.062468
   141  H    0.028770
   142  H    0.014136
   143  H    0.012117
   144  H    0.023651
   145  H    0.012297
   146  H    0.005431
   147  H    0.005624
   148  H    0.003377
   149  H    0.010914
   150  H    0.017432
   151  H    0.030321
   152  H    0.045437
   153  H    0.008063
   154  H    0.046856
   155  H    0.035337
   156  H    0.043577
   157  H    0.049272
   158  H    0.053130
 Sum of Mulliken charges =  -0.00000
 Mulliken charges with hydrogens summed into heavy atoms:
               1
     1  Mg   0.775190
     2  C    0.000966
     3  C   -0.113346
     4  C   -0.050685
     5  C   -0.102030
     6  N   -0.254496
     7  C   -0.057686
     8  C   -0.010505
     9  C   -0.090730
    10  C    0.042988
    11  C    0.165596
    12  C    0.101963
    13  C    0.001582
    15  N   -0.435541
    16  C    0.169354
    17  C   -0.181210
    18  C   -0.001326
    19  C    0.122250
    20  C    0.184005
    21  C    0.013644
    22  O   -0.247773
    23  C    0.170329
    24  N   -0.337810
    25  C    0.046668
    26  C   -0.002745
    27  C   -0.016018
    28  C    0.082283
    29  C    0.117143
    30  C    0.041106
    31  C    0.061542
    32  N   -0.306333
    33  C    0.083301
    34  C   -0.169220
    35  C    0.009497
    36  C    0.077149
    37  C    0.232389
    38  C    0.046649
    39  O   -0.187481
    40  C    0.027873
    41  C    0.213687
    42  O   -0.260439
    43  O   -0.303893
    44  C    0.300430
    80  Mg   0.838000
    81  C   -0.017002
    82  C   -0.101044
    83  C   -0.061222
    84  C   -0.106210
    85  N   -0.254586
    86  C   -0.049408
    87  C   -0.016075
    88  C   -0.095021
    89  C    0.044342
    90  C    0.173869
    91  C    0.112849
    92  C   -0.004073
    94  N   -0.424044
    95  C    0.164958
    96  C   -0.186817
    97  C   -0.003113
    98  C    0.152617
    99  C    0.197375
   100  C    0.032231
   101  O   -0.251433
   102  C    0.174093
   103  N   -0.349907
   104  C    0.037730
   105  C   -0.005695
   106  C   -0.022637
   107  C    0.088905
   108  C    0.114825
   109  C    0.043899
   110  C    0.051080
   111  N   -0.323959
   112  C    0.078292
   113  C   -0.163546
   114  C    0.002162
   115  C    0.096052
   116  C    0.231909
   117  C    0.042055
   118  O   -0.188652
   119  C    0.036382
   120  C    0.211184
   121  O   -0.251522
   122  O   -0.305419
   123  C    0.298259
 Electronic spatial extent (au):  <R**2>=         102384.0545
 Charge=             -0.0000 electrons
 Dipole moment (field-independent basis, Debye):
    X=              6.1461    Y=              2.4068    Z=              3.3580  Tot=              7.4056
 Quadrupole moment (field-independent basis, Debye-Ang):
   XX=           -552.9989   YY=           -478.1051   ZZ=           -504.4484
   XY=             15.9488   XZ=             23.9637   YZ=             48.9565
 Traceless Quadrupole moment (field-independent basis, Debye-Ang):
   XX=            -41.1481   YY=             33.7457   ZZ=              7.4024
   XY=             15.9488   XZ=             23.9637   YZ=             48.9565
 Octapole moment (field-independent basis, Debye-Ang**2):
  XXX=            799.9658  YYY=            269.0979  ZZZ=            185.4112  XYY=           -235.5506
  XXY=            -36.3827  XXZ=             18.1010  XZZ=             41.9856  YZZ=            -77.4196
  YYZ=            -53.7512  XYZ=             87.2721
 Hexadecapole moment (field-independent basis, Debye-Ang**3):
 XXXX=         -94192.3859 YYYY=         -34345.3941 ZZZZ=         -16416.8784 XXXY=            734.9900
 XXXZ=             71.5774 YYYX=            264.0911 YYYZ=            647.0823 ZZZX=            838.1215
 ZZZY=            392.3035 XXYY=         -18609.1538 XXZZ=         -16853.5807 YYZZ=          -9172.5191
 XXYZ=           1622.2209 YYXZ=           -327.5678 ZZXY=           -450.7076
 N-N= 1.576928846281D+04 E-N=-4.101918991615D+04  KE= 4.028810320502D+03
 Leave Link  601 at Fri Sep 10 07:18:43 2021, MaxMem= 23488102400 cpu:              17.9 elap:               0.9
 (Enter /sw/apps/gaussian-16.0/g16/l9999.exe)
 1\1\GINC-BP1-COMPUTE00089\SP\RCAM-B3LYP TD-FC\def2SVP\C68H72Mg2N8O8\OF
 15641\10-Sep-2021\0\\#p cam-b3lyp/Def2SVP td=(nstates=5)\\TDDFT excite
 d states in gaussian\\0,1\Mg,0,0.,0.,0.\C,0,-0.217,-2.218,2.801\C,0,-1
 .255,2.442,2.026\C,0,-0.245,1.85,-2.564\C,0,0.146,-2.824,-2.037\N,0,-0
 .617,-0.009,2.126\C,0,-0.594,-0.908,3.105\C,0,-0.936,-0.309,4.502\C,0,
 -1.773,0.964,4.032\C,0,-1.155,1.168,2.66\C,0,-3.263,0.685,3.863\C,0,0.
 345,0.11,5.299\C,0,0.124,0.397,6.787\H,0,1.168,0.033,7.733\N,0,-0.185,
 1.961,-0.152\C,0,-0.703,2.8,0.777\C,0,-0.62,4.156,0.193\C,0,-0.187,4.0
 15,-1.225\C,0,-0.214,2.583,-1.38\C,0,-0.887,5.406,0.974\C,0,0.181,5.01
 3,-2.277\O,0,0.303,4.69,-3.508\C,0,0.31,6.414,-1.837\N,0,-0.265,-0.413
 ,-2.029\C,0,-0.279,0.569,-2.937\C,0,-0.196,0.024,-4.332\C,0,0.124,-1.5
 33,-4.18\C,0,0.086,-1.632,-2.635\C,0,-1.451,0.205,-5.197\C,0,1.373,-2.
 07,-4.923\C,0,2.626,-1.49,-4.306\N,0,0.15,-2.144,0.303\C,0,0.173,-3.13
 6,-0.688\C,0,0.173,-4.438,0.004\C,0,0.133,-4.111,1.358\C,0,0.083,-2.69
 5,1.502\C,0,0.149,-5.715,-0.623\C,0,0.096,-4.629,2.716\O,0,0.208,-5.74
 7,3.221\C,0,-0.255,-3.428,3.701\C,0,0.717,-3.482,4.848\O,0,1.931,-3.25
 5,4.669\O,0,0.038,-3.556,6.003\C,0,0.943,-3.583,7.183\H,0,-1.859,3.22,
 2.497\H,0,-0.218,2.453,-3.474\H,0,0.276,-3.747,-2.605\H,0,-1.554,-0.94
 9,5.132\H,0,-1.585,1.831,4.665\H,0,-3.484,-0.377,3.969\H,0,-3.511,1.02
 7,2.858\H,0,-3.852,1.301,4.543\H,0,0.669,1.096,4.966\H,0,1.13,-0.639,5
 .189\H,0,-0.844,0.026,7.125\H,0,0.062,1.477,6.921\H,0,-1.344,5.186,1.9
 38\H,0,-1.651,5.963,0.432\H,0,0.007,6.02,1.084\H,0,-0.635,6.744,-1.405
 \H,0,0.665,6.97,-2.704\H,0,1.048,6.466,-1.036\H,0,0.608,0.501,-4.891\H
 ,0,-0.692,-2.156,-4.547\H,0,-1.267,0.74,-6.129\H,0,-2.204,0.714,-4.596
 \H,0,-1.967,-0.72,-5.453\H,0,1.356,-1.759,-5.967\H,0,1.452,-3.157,-4.9
 02\H,0,2.714,-0.522,-4.798\H,0,3.487,-2.121,-4.529\H,0,2.495,-1.303,-3
 .24\H,0,0.867,-6.333,-0.084\H,0,0.404,-5.642,-1.68\H,0,-0.891,-5.999,-
 0.463\H,0,-1.283,-3.581,4.028\H,0,0.698,-4.478,7.755\H,0,0.833,-2.619,
 7.68\H,0,2.,-3.754,6.976\Mg,0,8.9312,0.81266,0.68449\C,0,11.11838,0.49
 601,3.51204\C,0,6.32053,0.51529,2.85948\C,0,6.99288,0.63635,-1.82136\C
 ,0,11.63871,-0.05433,-1.33131\N,0,8.85659,0.54548,2.87887\C,0,9.75034,
 0.50074,3.85537\C,0,9.14454,0.5397,5.28403\C,0,7.68304,-0.03064,4.9411
 3\C,0,7.59087,0.39708,3.47783\C,0,7.5992,-1.54677,5.00177\C,0,9.07147,
 1.99632,5.86276\C,0,8.78049,2.07845,7.36287\H,0,9.41337,3.14243,8.1374
 1\N,0,6.97095,1.09409,0.55484\C,0,6.0614,0.95158,1.54159\C,0,4.75659,1
 .25293,0.93263\C,0,4.95121,1.42419,-0.53281\C,0,6.33944,1.02903,-0.662
 32\C,0,3.50354,1.43088,1.73985\C,0,4.0354,1.85797,-1.63704\O,0,4.3488,
 1.70605,-2.87054\C,0,2.72189,2.37994,-1.23241\N,0,9.207,0.15311,-1.267
 76\C,0,8.21466,0.23385,-2.17145\C,0,8.72393,-0.03894,-3.56666\C,0,10.3
 1769,-0.08196,-3.44151\C,0,10.45631,0.09237,-1.91318\C,0,8.22947,-1.33
 217,-4.21431\C,0,11.12243,0.86842,-4.36986\C,0,10.87662,2.30661,-3.974
 16\N,0,11.04715,0.48827,0.97699\C,0,11.99454,0.10726,0.00161\C,0,13.27
 913,-0.10162,0.70061\C,0,12.9822,0.15201,2.0482\C,0,11.60485,0.47508,2
 .18251\C,0,14.49686,-0.52208,0.09523\C,0,13.51834,0.20954,3.38907\O,0,
 14.64272,0.11626,3.87979\C,0,12.30739,0.31136,4.41358\C,0,12.61986,1.4
 0797,5.39455\O,0,12.69686,2.59048,5.01725\O,0,12.56113,0.91162,6.64377
 \C,0,12.85297,1.96429,7.653\H,0,5.43911,0.20499,3.42136\H,0,6.39316,0.
 6664,-2.734\H,0,12.55265,-0.23037,-1.90261\H,0,9.6357,-0.1045,6.00343\
 H,0,6.91706,0.46469,5.53214\H,0,8.56883,-1.99826,5.15046\H,0,7.17908,-
 1.85631,4.05375\H,0,6.87897,-1.85424,5.76535\H,0,8.17498,2.4931,5.4700
 1\H,0,9.96791,2.54093,5.63821\H,0,8.91086,1.11037,7.86164\H,0,7.72115,
 2.30945,7.49874\H,0,3.63657,1.08192,2.77132\H,0,2.75289,0.75343,1.3186
 \H,0,3.11909,2.45234,1.70119\H,0,2.19366,1.6226,-0.65806\H,0,2.24626,2
 .72066,-2.15413\H,0,2.87577,3.23289,-0.56203\H,0,8.44597,0.76014,-4.24
 291\H,0,10.71855,-1.07764,-3.68187\H,0,7.7172,-1.16802,-5.18111\H,0,7.
 57258,-1.83401,-3.51631\H,0,8.99736,-2.08362,-4.39\H,0,10.78041,0.7679
 4,-5.40286\H,0,12.19011,0.67603,-4.36398\H,0,9.93765,2.54538,-4.48248\
 H,0,11.68711,2.94365,-4.3225\H,0,10.69904,2.39328,-2.89592\H,0,15.2820
 3,0.09171,0.51625\H,0,14.45549,-0.42829,-0.98794\H,0,14.52358,-1.56689
 ,0.41606\H,0,12.20893,-0.65892,4.90188\H,0,13.68094,1.59717,8.26731\H,
 0,11.89295,2.16011,8.16659\H,0,13.2561,2.90423,7.2946\\Version=ES64L-G
 16RevA.03\State=1-A\HF=-4069.8072927\RMSD=7.373e-09\PG=C01 [X(C68H72Mg
 2N8O8)]\\@


 The mind is not a vessel to be filled but a fire to be kindled.
                                  -- Plutarch
 Job cpu time:       0 days 17 hours  9 minutes 30.3 seconds.
 Elapsed time:       0 days  0 hours 43 minutes 34.6 seconds.
 File lengths (MBytes):  RWF=  13225 Int=      0 D2E=      0 Chk=    574 Scr=      1
 Normal termination of Gaussian 16 at Fri Sep 10 07:18:44 2021.
