 Entering Gaussian System, Link 0=g16
 Initial command:
 /sw/apps/gaussian-16.0/g16/l1.exe "/tmp/Gau-222186.inp" -scrdir="/tmp/"
 Entering Link 1 = /sw/apps/gaussian-16.0/g16/l1.exe PID=    222187.
  
 Copyright (c) 1988,1990,1992,1993,1995,1998,2003,2009,2016,
            Gaussian, Inc.  All Rights Reserved.
  
 This is part of the Gaussian(R) 16 program.  It is based on
 the Gaussian(R) 09 system (copyright 2009, Gaussian, Inc.),
 the Gaussian(R) 03 system (copyright 2003, Gaussian, Inc.),
 the Gaussian(R) 98 system (copyright 1998, Gaussian, Inc.),
 the Gaussian(R) 94 system (copyright 1995, Gaussian, Inc.),
 the Gaussian 92(TM) system (copyright 1992, Gaussian, Inc.),
 the Gaussian 90(TM) system (copyright 1990, Gaussian, Inc.),
 the Gaussian 88(TM) system (copyright 1988, Gaussian, Inc.),
 the Gaussian 86(TM) system (copyright 1986, Carnegie Mellon
 University), and the Gaussian 82(TM) system (copyright 1983,
 Carnegie Mellon University). Gaussian is a federally registered
 trademark of Gaussian, Inc.
  
 This software contains proprietary and confidential information,
 including trade secrets, belonging to Gaussian, Inc.
  
 This software is provided under written license and may be
 used, copied, transmitted, or stored only in accord with that
 written license.
  
 The following legend is applicable only to US Government
 contracts under FAR:
  
                    RESTRICTED RIGHTS LEGEND
  
 Use, reproduction and disclosure by the US Government is
 subject to restrictions as set forth in subparagraphs (a)
 and (c) of the Commercial Computer Software - Restricted
 Rights clause in FAR 52.227-19.
  
 Gaussian, Inc.
 340 Quinnipiac St., Bldg. 40, Wallingford CT 06492
  
  
 ---------------------------------------------------------------
 Warning -- This program may not be used in any manner that
 competes with the business of Gaussian, Inc. or will provide
 assistance to any competitor of Gaussian, Inc.  The licensee
 of this program is prohibited from giving any competitor of
 Gaussian, Inc. access to this program.  By using this program,
 the user acknowledges that Gaussian, Inc. is engaged in the
 business of creating and licensing software in the field of
 computational chemistry and represents and warrants to the
 licensee that it is not a competitor of Gaussian, Inc. and that
 it will not use this program in any manner prohibited above.
 ---------------------------------------------------------------
  

 Cite this work as:
 Gaussian 16, Revision A.03,
 M. J. Frisch, G. W. Trucks, H. B. Schlegel, G. E. Scuseria, 
 M. A. Robb, J. R. Cheeseman, G. Scalmani, V. Barone, 
 G. A. Petersson, H. Nakatsuji, X. Li, M. Caricato, A. V. Marenich, 
 J. Bloino, B. G. Janesko, R. Gomperts, B. Mennucci, H. P. Hratchian, 
 J. V. Ortiz, A. F. Izmaylov, J. L. Sonnenberg, D. Williams-Young, 
 F. Ding, F. Lipparini, F. Egidi, J. Goings, B. Peng, A. Petrone, 
 T. Henderson, D. Ranasinghe, V. G. Zakrzewski, J. Gao, N. Rega, 
 G. Zheng, W. Liang, M. Hada, M. Ehara, K. Toyota, R. Fukuda, 
 J. Hasegawa, M. Ishida, T. Nakajima, Y. Honda, O. Kitao, H. Nakai, 
 T. Vreven, K. Throssell, J. A. Montgomery, Jr., J. E. Peralta, 
 F. Ogliaro, M. J. Bearpark, J. J. Heyd, E. N. Brothers, K. N. Kudin, 
 V. N. Staroverov, T. A. Keith, R. Kobayashi, J. Normand, 
 K. Raghavachari, A. P. Rendell, J. C. Burant, S. S. Iyengar, 
 J. Tomasi, M. Cossi, J. M. Millam, M. Klene, C. Adamo, R. Cammi, 
 J. W. Ochterski, R. L. Martin, K. Morokuma, O. Farkas, 
 J. B. Foresman, and D. J. Fox, Gaussian, Inc., Wallingford CT, 2016.
 
 ******************************************
 Gaussian 16:  ES64L-G16RevA.03 25-Dec-2016
                11-Sep-2021 
 ******************************************
 %nproc=24
 Will use up to   24 processors via shared memory.
 %mem=175gb
 -----------------------------------
 #p cam-b3lyp/Def2SVP td=(nstates=5)
 -----------------------------------
 1/38=1,172=1/1;
 2/12=2,17=6,18=5,40=1/2;
 3/5=43,7=101,11=9,25=1,30=1,74=-40/1,2,3,8;
 4//1;
 5/5=2,38=5/2;
 8/6=1,10=1,108=5/1;
 9/41=5,42=1,70=2/14;
 6/7=2,8=2,9=2,10=2/1;
 99/5=1,9=1/99;
 Leave Link    1 at Sat Sep 11 21:42:09 2021, MaxMem= 23488102400 cpu:               0.5 elap:               0.0
 (Enter /sw/apps/gaussian-16.0/g16/l101.exe)
 --------------------------------
 TDDFT excited states in gaussian
 --------------------------------
 Symbolic Z-matrix:
 Charge =  0 Multiplicity = 1
 Mg                    0.        0.        0. 
 C                    -0.217    -2.218     2.801 
 C                    -1.255     2.442     2.026 
 C                    -0.245     1.85     -2.564 
 C                     0.146    -2.824    -2.037 
 N                    -0.617    -0.009     2.126 
 C                    -0.594    -0.908     3.105 
 C                    -0.936    -0.309     4.502 
 C                    -1.773     0.964     4.032 
 C                    -1.155     1.168     2.66 
 C                    -3.263     0.685     3.863 
 C                     0.345     0.11      5.299 
 C                     0.124     0.397     6.787 
 H                     1.168     0.033     7.733 
 N                    -0.185     1.961    -0.152 
 C                    -0.703     2.8       0.777 
 C                    -0.62      4.156     0.193 
 C                    -0.187     4.015    -1.225 
 C                    -0.214     2.583    -1.38 
 C                    -0.887     5.406     0.974 
 C                     0.181     5.013    -2.277 
 O                     0.303     4.69     -3.508 
 C                     0.31      6.414    -1.837 
 N                    -0.265    -0.413    -2.029 
 C                    -0.279     0.569    -2.937 
 C                    -0.196     0.024    -4.332 
 C                     0.124    -1.533    -4.18 
 C                     0.086    -1.632    -2.635 
 C                    -1.451     0.205    -5.197 
 C                     1.373    -2.07     -4.923 
 C                     2.626    -1.49     -4.306 
 N                     0.15     -2.144     0.303 
 C                     0.173    -3.136    -0.688 
 C                     0.173    -4.438     0.004 
 C                     0.133    -4.111     1.358 
 C                     0.083    -2.695     1.502 
 C                     0.149    -5.715    -0.623 
 C                     0.096    -4.629     2.716 
 O                     0.208    -5.747     3.221 
 C                    -0.255    -3.428     3.701 
 C                     0.717    -3.482     4.848 
 O                     1.931    -3.255     4.669 
 O                     0.038    -3.556     6.003 
 C                     0.943    -3.583     7.183 
 H                    -1.859     3.22      2.497 
 H                    -0.218     2.453    -3.474 
 H                     0.276    -3.747    -2.605 
 H                    -1.554    -0.949     5.132 
 H                    -1.585     1.831     4.665 
 H                    -3.484    -0.377     3.969 
 H                    -3.511     1.027     2.858 
 H                    -3.852     1.301     4.543 
 H                     0.669     1.096     4.966 
 H                     1.13     -0.639     5.189 
 H                    -0.844     0.026     7.125 
 H                     0.062     1.477     6.921 
 H                    -1.344     5.186     1.938 
 H                    -1.651     5.963     0.432 
 H                     0.007     6.02      1.084 
 H                    -0.635     6.744    -1.405 
 H                     0.665     6.97     -2.704 
 H                     1.048     6.466    -1.036 
 H                     0.608     0.501    -4.891 
 H                    -0.692    -2.156    -4.547 
 H                    -1.267     0.74     -6.129 
 H                    -2.204     0.714    -4.596 
 H                    -1.967    -0.72     -5.453 
 H                     1.356    -1.759    -5.967 
 H                     1.452    -3.157    -4.902 
 H                     2.714    -0.522    -4.798 
 H                     3.487    -2.121    -4.529 
 H                     2.495    -1.303    -3.24 
 H                     0.867    -6.333    -0.084 
 H                     0.404    -5.642    -1.68 
 H                    -0.891    -5.999    -0.463 
 H                    -1.283    -3.581     4.028 
 H                     0.698    -4.478     7.755 
 H                     0.833    -2.619     7.68 
 H                     2.       -3.754     6.976 
 Mg                    15.77435   1.41559   1.19196 
 C                     15.59901   3.5113   -1.71602 
 C                     15.28856  -1.24833  -0.88221 
 C                     15.47393  -0.40999   3.76964 
 C                     15.10469   4.25076   3.10482 
 N                     15.4942   1.277    -0.99769 
 C                     15.50769   2.13425  -2.00729 
 C                     15.4991   1.47378  -3.41202 
 C                     14.83026   0.0693   -3.01331 
 C                     15.25621   0.00294  -1.5481 
 C                     13.31175   0.08856  -3.06886 
 C                     16.94493   1.27812  -3.98936 
 C                     17.00093   0.9258   -5.47748 
 H                     18.10318   1.45373  -6.27674 
 N                     15.91989  -0.55317   1.39542 
 C                     15.71095  -1.48721   0.44401 
 C                     15.92357  -2.78588   1.10158 
 C                     16.11354  -2.54849   2.55839 
 C                     15.81595  -1.13231   2.6357 
 C                     16.01123  -4.07779   0.34218 
 C                     16.48713  -3.44989   3.69598 
 O                     16.36203  -3.08043   4.91691 
 C                     16.91534  -4.81075   3.34075 
 N                     15.14302   1.80986   3.13317 
 C                     15.15833   0.84909   4.0737 
 C                     14.92684   1.42828   5.44896 
 C                     14.9938   3.01534   5.26358 
 C                     15.17141   3.08382   3.73088 
 C                     13.60498   1.04945   6.11646 
 C                     16.00118   3.78668   6.15961 
 C                     17.41736   3.427     5.77173 
 N                     15.59613   3.53641   0.81992 
 C                     15.28539   4.54403   1.75918 
 C                     15.16326   5.81274   1.01228 
 C                     15.39053   5.44834  -0.3234 
 C                     15.61694   4.04783  -0.40584 
 C                     14.83045   7.07864   1.57162 
 C                     15.47987   5.92827  -1.68369 
 O                     15.46277   7.03711  -2.21653 
 C                     15.49365   4.67541  -2.66172 
 C                     16.60548   4.87389  -3.65517 
 O                     17.79193   4.88289  -3.28252 
 O                     16.10144   4.80266  -4.90066 
 C                     17.16789   4.98255  -5.92151 
 H                     14.91582  -2.12666  -1.40992 
 H                     15.4659  -0.97551   4.70431 
 H                     14.99455   5.1956    3.64131 
 H                     14.88769   1.98095  -4.14872 
 H                     15.26909  -0.7509   -3.57549 
 H                     12.9279   1.08087  -3.25361 
 H                     12.97752  -0.27304  -2.10523 
 H                     12.95221  -0.6369   -3.80424 
 H                     17.37995   0.36479  -3.56355 
 H                     17.55116   2.14248  -3.7996 
 H                     16.04228   1.10408  -5.97963 
 H                     17.1575  -0.15137  -5.57341 
 H                     15.66835  -3.95987  -0.69315 
 H                     15.28506  -4.76325   0.7924 
 H                     17.00376  -4.53041   0.39413 
 H                     16.12104  -5.30648   2.78775 
 H                     17.22586  -5.27376   4.2794 
 H                     17.77431  -4.74176   2.66397 
 H                     15.70736   1.12129   6.13427 
 H                     14.02919   3.49304   5.48981 
 H                     13.737    0.56385   7.10177 
 H                     13.05619   0.40309   5.44446 
 H                     12.90919   1.87367   6.26386 
 H                     15.88125   3.49163   7.20494 
 H                     15.88316   4.86415   6.11353 
 H                     17.59251   2.49356   6.31496 
 H                     18.11032   4.20392   6.08834 
 H                     17.48738   3.20331   4.70088 
 H                     15.49551   7.80294   1.1204 
 H                     14.92533   7.07174   2.65547 
 H                     13.78878   7.16563   1.2513 
 H                     14.517    4.62612  -3.14474 
 H                     16.85661   5.81023  -6.56629 
 H                     17.2948   3.99259  -6.39861 
 H                     18.13486   5.33277  -5.5798 
 
 ITRead=  0  0  0  0  0  0  0  0  0  0  0  0  0  0  0  0  0  0  0  0
 ITRead=  0  0  0  0  0  0  0  0  0  0  0  0  0  0  0  0  0  0  0  0
 ITRead=  0  0  0  0  0  0  0  0  0  0  0  0  0  0  0  0  0  0  0  0
 ITRead=  0  0  0  0  0  0  0  0  0  0  0  0  0  0  0  0  0  0  0  0
 ITRead=  0  0  0  0  0  0  0  0  0  0  0  0  0  0  0  0  0  0  0  0
 ITRead=  0  0  0  0  0  0  0  0  0  0  0  0  0  0  0  0  0  0  0  0
 ITRead=  0  0  0  0  0  0  0  0  0  0  0  0  0  0  0  0  0  0  0  0
 ITRead=  0  0  0  0  0  0  0  0  0  0  0  0  0  0  0  0  0  0
 MicOpt= -1 -1 -1 -1 -1 -1 -1 -1 -1 -1 -1 -1 -1 -1 -1 -1 -1 -1 -1 -1
 MicOpt= -1 -1 -1 -1 -1 -1 -1 -1 -1 -1 -1 -1 -1 -1 -1 -1 -1 -1 -1 -1
 MicOpt= -1 -1 -1 -1 -1 -1 -1 -1 -1 -1 -1 -1 -1 -1 -1 -1 -1 -1 -1 -1
 MicOpt= -1 -1 -1 -1 -1 -1 -1 -1 -1 -1 -1 -1 -1 -1 -1 -1 -1 -1 -1 -1
 MicOpt= -1 -1 -1 -1 -1 -1 -1 -1 -1 -1 -1 -1 -1 -1 -1 -1 -1 -1 -1 -1
 MicOpt= -1 -1 -1 -1 -1 -1 -1 -1 -1 -1 -1 -1 -1 -1 -1 -1 -1 -1 -1 -1
 MicOpt= -1 -1 -1 -1 -1 -1 -1 -1 -1 -1 -1 -1 -1 -1 -1 -1 -1 -1 -1 -1
 MicOpt= -1 -1 -1 -1 -1 -1 -1 -1 -1 -1 -1 -1 -1 -1 -1 -1 -1 -1
 NAtoms=    158 NQM=      158 NQMF=       0 NMMI=      0 NMMIF=      0
                NMic=       0 NMicF=      0.
                    Isotopes and Nuclear Properties:
 (Nuclear quadrupole moments (NQMom) in fm**2, nuclear magnetic moments (NMagM)
  in nuclear magnetons)

  Atom         1           2           3           4           5           6           7           8           9          10
 IAtWgt=          24          12          12          12          12          14          12          12          12          12
 AtmWgt=  23.9850450  12.0000000  12.0000000  12.0000000  12.0000000  14.0030740  12.0000000  12.0000000  12.0000000  12.0000000
 NucSpn=           0           0           0           0           0           2           0           0           0           0
 AtZEff=  -0.0000000  -0.0000000  -0.0000000  -0.0000000  -0.0000000  -0.0000000  -0.0000000  -0.0000000  -0.0000000  -0.0000000
 NQMom=    0.0000000   0.0000000   0.0000000   0.0000000   0.0000000   2.0440000   0.0000000   0.0000000   0.0000000   0.0000000
 NMagM=    0.0000000   0.0000000   0.0000000   0.0000000   0.0000000   0.4037610   0.0000000   0.0000000   0.0000000   0.0000000
 AtZNuc=  12.0000000   6.0000000   6.0000000   6.0000000   6.0000000   7.0000000   6.0000000   6.0000000   6.0000000   6.0000000

  Atom        11          12          13          14          15          16          17          18          19          20
 IAtWgt=          12          12          12           1          14          12          12          12          12          12
 AtmWgt=  12.0000000  12.0000000  12.0000000   1.0078250  14.0030740  12.0000000  12.0000000  12.0000000  12.0000000  12.0000000
 NucSpn=           0           0           0           1           2           0           0           0           0           0
 AtZEff=  -0.0000000  -0.0000000  -0.0000000  -0.0000000  -0.0000000  -0.0000000  -0.0000000  -0.0000000  -0.0000000  -0.0000000
 NQMom=    0.0000000   0.0000000   0.0000000   0.0000000   2.0440000   0.0000000   0.0000000   0.0000000   0.0000000   0.0000000
 NMagM=    0.0000000   0.0000000   0.0000000   2.7928460   0.4037610   0.0000000   0.0000000   0.0000000   0.0000000   0.0000000
 AtZNuc=   6.0000000   6.0000000   6.0000000   1.0000000   7.0000000   6.0000000   6.0000000   6.0000000   6.0000000   6.0000000

  Atom        21          22          23          24          25          26          27          28          29          30
 IAtWgt=          12          16          12          14          12          12          12          12          12          12
 AtmWgt=  12.0000000  15.9949146  12.0000000  14.0030740  12.0000000  12.0000000  12.0000000  12.0000000  12.0000000  12.0000000
 NucSpn=           0           0           0           2           0           0           0           0           0           0
 AtZEff=  -0.0000000  -0.0000000  -0.0000000  -0.0000000  -0.0000000  -0.0000000  -0.0000000  -0.0000000  -0.0000000  -0.0000000
 NQMom=    0.0000000   0.0000000   0.0000000   2.0440000   0.0000000   0.0000000   0.0000000   0.0000000   0.0000000   0.0000000
 NMagM=    0.0000000   0.0000000   0.0000000   0.4037610   0.0000000   0.0000000   0.0000000   0.0000000   0.0000000   0.0000000
 AtZNuc=   6.0000000   8.0000000   6.0000000   7.0000000   6.0000000   6.0000000   6.0000000   6.0000000   6.0000000   6.0000000

  Atom        31          32          33          34          35          36          37          38          39          40
 IAtWgt=          12          14          12          12          12          12          12          12          16          12
 AtmWgt=  12.0000000  14.0030740  12.0000000  12.0000000  12.0000000  12.0000000  12.0000000  12.0000000  15.9949146  12.0000000
 NucSpn=           0           2           0           0           0           0           0           0           0           0
 AtZEff=  -0.0000000  -0.0000000  -0.0000000  -0.0000000  -0.0000000  -0.0000000  -0.0000000  -0.0000000  -0.0000000  -0.0000000
 NQMom=    0.0000000   2.0440000   0.0000000   0.0000000   0.0000000   0.0000000   0.0000000   0.0000000   0.0000000   0.0000000
 NMagM=    0.0000000   0.4037610   0.0000000   0.0000000   0.0000000   0.0000000   0.0000000   0.0000000   0.0000000   0.0000000
 AtZNuc=   6.0000000   7.0000000   6.0000000   6.0000000   6.0000000   6.0000000   6.0000000   6.0000000   8.0000000   6.0000000

  Atom        41          42          43          44          45          46          47          48          49          50
 IAtWgt=          12          16          16          12           1           1           1           1           1           1
 AtmWgt=  12.0000000  15.9949146  15.9949146  12.0000000   1.0078250   1.0078250   1.0078250   1.0078250   1.0078250   1.0078250
 NucSpn=           0           0           0           0           1           1           1           1           1           1
 AtZEff=  -0.0000000  -0.0000000  -0.0000000  -0.0000000  -0.0000000  -0.0000000  -0.0000000  -0.0000000  -0.0000000  -0.0000000
 NQMom=    0.0000000   0.0000000   0.0000000   0.0000000   0.0000000   0.0000000   0.0000000   0.0000000   0.0000000   0.0000000
 NMagM=    0.0000000   0.0000000   0.0000000   0.0000000   2.7928460   2.7928460   2.7928460   2.7928460   2.7928460   2.7928460
 AtZNuc=   6.0000000   8.0000000   8.0000000   6.0000000   1.0000000   1.0000000   1.0000000   1.0000000   1.0000000   1.0000000

  Atom        51          52          53          54          55          56          57          58          59          60
 IAtWgt=           1           1           1           1           1           1           1           1           1           1
 AtmWgt=   1.0078250   1.0078250   1.0078250   1.0078250   1.0078250   1.0078250   1.0078250   1.0078250   1.0078250   1.0078250
 NucSpn=           1           1           1           1           1           1           1           1           1           1
 AtZEff=  -0.0000000  -0.0000000  -0.0000000  -0.0000000  -0.0000000  -0.0000000  -0.0000000  -0.0000000  -0.0000000  -0.0000000
 NQMom=    0.0000000   0.0000000   0.0000000   0.0000000   0.0000000   0.0000000   0.0000000   0.0000000   0.0000000   0.0000000
 NMagM=    2.7928460   2.7928460   2.7928460   2.7928460   2.7928460   2.7928460   2.7928460   2.7928460   2.7928460   2.7928460
 AtZNuc=   1.0000000   1.0000000   1.0000000   1.0000000   1.0000000   1.0000000   1.0000000   1.0000000   1.0000000   1.0000000

  Atom        61          62          63          64          65          66          67          68          69          70
 IAtWgt=           1           1           1           1           1           1           1           1           1           1
 AtmWgt=   1.0078250   1.0078250   1.0078250   1.0078250   1.0078250   1.0078250   1.0078250   1.0078250   1.0078250   1.0078250
 NucSpn=           1           1           1           1           1           1           1           1           1           1
 AtZEff=  -0.0000000  -0.0000000  -0.0000000  -0.0000000  -0.0000000  -0.0000000  -0.0000000  -0.0000000  -0.0000000  -0.0000000
 NQMom=    0.0000000   0.0000000   0.0000000   0.0000000   0.0000000   0.0000000   0.0000000   0.0000000   0.0000000   0.0000000
 NMagM=    2.7928460   2.7928460   2.7928460   2.7928460   2.7928460   2.7928460   2.7928460   2.7928460   2.7928460   2.7928460
 AtZNuc=   1.0000000   1.0000000   1.0000000   1.0000000   1.0000000   1.0000000   1.0000000   1.0000000   1.0000000   1.0000000

  Atom        71          72          73          74          75          76          77          78          79          80
 IAtWgt=           1           1           1           1           1           1           1           1           1          24
 AtmWgt=   1.0078250   1.0078250   1.0078250   1.0078250   1.0078250   1.0078250   1.0078250   1.0078250   1.0078250  23.9850450
 NucSpn=           1           1           1           1           1           1           1           1           1           0
 AtZEff=  -0.0000000  -0.0000000  -0.0000000  -0.0000000  -0.0000000  -0.0000000  -0.0000000  -0.0000000  -0.0000000  -0.0000000
 NQMom=    0.0000000   0.0000000   0.0000000   0.0000000   0.0000000   0.0000000   0.0000000   0.0000000   0.0000000   0.0000000
 NMagM=    2.7928460   2.7928460   2.7928460   2.7928460   2.7928460   2.7928460   2.7928460   2.7928460   2.7928460   0.0000000
 AtZNuc=   1.0000000   1.0000000   1.0000000   1.0000000   1.0000000   1.0000000   1.0000000   1.0000000   1.0000000  12.0000000

  Atom        81          82          83          84          85          86          87          88          89          90
 IAtWgt=          12          12          12          12          14          12          12          12          12          12
 AtmWgt=  12.0000000  12.0000000  12.0000000  12.0000000  14.0030740  12.0000000  12.0000000  12.0000000  12.0000000  12.0000000
 NucSpn=           0           0           0           0           2           0           0           0           0           0
 AtZEff=  -0.0000000  -0.0000000  -0.0000000  -0.0000000  -0.0000000  -0.0000000  -0.0000000  -0.0000000  -0.0000000  -0.0000000
 NQMom=    0.0000000   0.0000000   0.0000000   0.0000000   2.0440000   0.0000000   0.0000000   0.0000000   0.0000000   0.0000000
 NMagM=    0.0000000   0.0000000   0.0000000   0.0000000   0.4037610   0.0000000   0.0000000   0.0000000   0.0000000   0.0000000
 AtZNuc=   6.0000000   6.0000000   6.0000000   6.0000000   7.0000000   6.0000000   6.0000000   6.0000000   6.0000000   6.0000000

  Atom        91          92          93          94          95          96          97          98          99         100
 IAtWgt=          12          12           1          14          12          12          12          12          12          12
 AtmWgt=  12.0000000  12.0000000   1.0078250  14.0030740  12.0000000  12.0000000  12.0000000  12.0000000  12.0000000  12.0000000
 NucSpn=           0           0           1           2           0           0           0           0           0           0
 AtZEff=  -0.0000000  -0.0000000  -0.0000000  -0.0000000  -0.0000000  -0.0000000  -0.0000000  -0.0000000  -0.0000000  -0.0000000
 NQMom=    0.0000000   0.0000000   0.0000000   2.0440000   0.0000000   0.0000000   0.0000000   0.0000000   0.0000000   0.0000000
 NMagM=    0.0000000   0.0000000   2.7928460   0.4037610   0.0000000   0.0000000   0.0000000   0.0000000   0.0000000   0.0000000
 AtZNuc=   6.0000000   6.0000000   1.0000000   7.0000000   6.0000000   6.0000000   6.0000000   6.0000000   6.0000000   6.0000000

  Atom       101         102         103         104         105         106         107         108         109         110
 IAtWgt=          16          12          14          12          12          12          12          12          12          12
 AtmWgt=  15.9949146  12.0000000  14.0030740  12.0000000  12.0000000  12.0000000  12.0000000  12.0000000  12.0000000  12.0000000
 NucSpn=           0           0           2           0           0           0           0           0           0           0
 AtZEff=  -0.0000000  -0.0000000  -0.0000000  -0.0000000  -0.0000000  -0.0000000  -0.0000000  -0.0000000  -0.0000000  -0.0000000
 NQMom=    0.0000000   0.0000000   2.0440000   0.0000000   0.0000000   0.0000000   0.0000000   0.0000000   0.0000000   0.0000000
 NMagM=    0.0000000   0.0000000   0.4037610   0.0000000   0.0000000   0.0000000   0.0000000   0.0000000   0.0000000   0.0000000
 AtZNuc=   8.0000000   6.0000000   7.0000000   6.0000000   6.0000000   6.0000000   6.0000000   6.0000000   6.0000000   6.0000000

  Atom       111         112         113         114         115         116         117         118         119         120
 IAtWgt=          14          12          12          12          12          12          12          16          12          12
 AtmWgt=  14.0030740  12.0000000  12.0000000  12.0000000  12.0000000  12.0000000  12.0000000  15.9949146  12.0000000  12.0000000
 NucSpn=           2           0           0           0           0           0           0           0           0           0
 AtZEff=  -0.0000000  -0.0000000  -0.0000000  -0.0000000  -0.0000000  -0.0000000  -0.0000000  -0.0000000  -0.0000000  -0.0000000
 NQMom=    2.0440000   0.0000000   0.0000000   0.0000000   0.0000000   0.0000000   0.0000000   0.0000000   0.0000000   0.0000000
 NMagM=    0.4037610   0.0000000   0.0000000   0.0000000   0.0000000   0.0000000   0.0000000   0.0000000   0.0000000   0.0000000
 AtZNuc=   7.0000000   6.0000000   6.0000000   6.0000000   6.0000000   6.0000000   6.0000000   8.0000000   6.0000000   6.0000000

  Atom       121         122         123         124         125         126         127         128         129         130
 IAtWgt=          16          16          12           1           1           1           1           1           1           1
 AtmWgt=  15.9949146  15.9949146  12.0000000   1.0078250   1.0078250   1.0078250   1.0078250   1.0078250   1.0078250   1.0078250
 NucSpn=           0           0           0           1           1           1           1           1           1           1
 AtZEff=  -0.0000000  -0.0000000  -0.0000000  -0.0000000  -0.0000000  -0.0000000  -0.0000000  -0.0000000  -0.0000000  -0.0000000
 NQMom=    0.0000000   0.0000000   0.0000000   0.0000000   0.0000000   0.0000000   0.0000000   0.0000000   0.0000000   0.0000000
 NMagM=    0.0000000   0.0000000   0.0000000   2.7928460   2.7928460   2.7928460   2.7928460   2.7928460   2.7928460   2.7928460
 AtZNuc=   8.0000000   8.0000000   6.0000000   1.0000000   1.0000000   1.0000000   1.0000000   1.0000000   1.0000000   1.0000000

  Atom       131         132         133         134         135         136         137         138         139         140
 IAtWgt=           1           1           1           1           1           1           1           1           1           1
 AtmWgt=   1.0078250   1.0078250   1.0078250   1.0078250   1.0078250   1.0078250   1.0078250   1.0078250   1.0078250   1.0078250
 NucSpn=           1           1           1           1           1           1           1           1           1           1
 AtZEff=  -0.0000000  -0.0000000  -0.0000000  -0.0000000  -0.0000000  -0.0000000  -0.0000000  -0.0000000  -0.0000000  -0.0000000
 NQMom=    0.0000000   0.0000000   0.0000000   0.0000000   0.0000000   0.0000000   0.0000000   0.0000000   0.0000000   0.0000000
 NMagM=    2.7928460   2.7928460   2.7928460   2.7928460   2.7928460   2.7928460   2.7928460   2.7928460   2.7928460   2.7928460
 AtZNuc=   1.0000000   1.0000000   1.0000000   1.0000000   1.0000000   1.0000000   1.0000000   1.0000000   1.0000000   1.0000000

  Atom       141         142         143         144         145         146         147         148         149         150
 IAtWgt=           1           1           1           1           1           1           1           1           1           1
 AtmWgt=   1.0078250   1.0078250   1.0078250   1.0078250   1.0078250   1.0078250   1.0078250   1.0078250   1.0078250   1.0078250
 NucSpn=           1           1           1           1           1           1           1           1           1           1
 AtZEff=  -0.0000000  -0.0000000  -0.0000000  -0.0000000  -0.0000000  -0.0000000  -0.0000000  -0.0000000  -0.0000000  -0.0000000
 NQMom=    0.0000000   0.0000000   0.0000000   0.0000000   0.0000000   0.0000000   0.0000000   0.0000000   0.0000000   0.0000000
 NMagM=    2.7928460   2.7928460   2.7928460   2.7928460   2.7928460   2.7928460   2.7928460   2.7928460   2.7928460   2.7928460
 AtZNuc=   1.0000000   1.0000000   1.0000000   1.0000000   1.0000000   1.0000000   1.0000000   1.0000000   1.0000000   1.0000000

  Atom       151         152         153         154         155         156         157         158
 IAtWgt=           1           1           1           1           1           1           1           1
 AtmWgt=   1.0078250   1.0078250   1.0078250   1.0078250   1.0078250   1.0078250   1.0078250   1.0078250
 NucSpn=           1           1           1           1           1           1           1           1
 AtZEff=  -0.0000000  -0.0000000  -0.0000000  -0.0000000  -0.0000000  -0.0000000  -0.0000000  -0.0000000
 NQMom=    0.0000000   0.0000000   0.0000000   0.0000000   0.0000000   0.0000000   0.0000000   0.0000000
 NMagM=    2.7928460   2.7928460   2.7928460   2.7928460   2.7928460   2.7928460   2.7928460   2.7928460
 AtZNuc=   1.0000000   1.0000000   1.0000000   1.0000000   1.0000000   1.0000000   1.0000000   1.0000000
 Leave Link  101 at Sat Sep 11 21:42:09 2021, MaxMem= 23488102400 cpu:               3.1 elap:               0.2
 (Enter /sw/apps/gaussian-16.0/g16/l202.exe)
 Stoichiometry    C68H72Mg2N8O8
 Framework group  C1[X(C68H72Mg2N8O8)]
 Deg. of freedom   468
 Full point group                 C1      NOp   1
 Largest Abelian subgroup         C1      NOp   1
 Largest concise Abelian subgroup C1      NOp   1
                         Standard orientation:                         
 ---------------------------------------------------------------------
 Center     Atomic      Atomic             Coordinates (Angstroms)
 Number     Number       Type             X           Y           Z
 ---------------------------------------------------------------------
      1         12           0        7.796381   -0.962359   -0.071543
      2          6           0        8.430837    2.550119   -0.340204
      3          6           0        8.744011   -0.732303    3.198340
      4          6           0        7.680743   -4.128228    0.071710
      5          6           0        8.000978   -1.115322   -3.547231
      6          7           0        8.478104    0.747705    1.157920
      7          6           0        8.620400    2.053152    0.951204
      8          6           0        8.916452    2.856164    2.253086
      9          6           0        9.540525    1.683986    3.135429
     10          6           0        8.854055    0.496987    2.482960
     11          6           0       11.048947    1.532159    2.967760
     12          6           0        7.614803    3.432968    2.904807
     13          6           0        7.840272    4.493952    3.985931
     14          1           0        6.893309    5.593204    4.096629
     15          7           0        7.685030   -2.171110    1.487102
     16          6           0        8.104151   -1.907338    2.748072
     17          6           0        7.802775   -3.119451    3.539676
     18          6           0        7.348531   -4.178090    2.595726
     19          6           0        7.581258   -3.534780    1.327906
     20          6           0        7.908264   -3.174325    5.032864
     21          6           0        6.802708   -5.555482    2.803086
     22          8           0        6.688930   -6.393496    1.844252
     23          6           0        6.483173   -5.933330    4.191672
     24          7           0        8.051973   -2.458953   -1.504203
     25          6           0        7.890895   -3.749180   -1.190591
     26          6           0        7.842970   -4.607932   -2.419488
     27          6           0        7.761295   -3.603275   -3.657934
     28          6           0        7.864680   -2.265846   -2.884069
     29          6           0        9.028182   -5.563506   -2.614838
     30          6           0        6.581203   -3.796040   -4.643146
     31          6           0        5.277523   -3.459518   -3.954475
     32          7           0        7.974324    0.467561   -1.694722
     33          6           0        8.065023    0.181129   -3.064541
     34          6           0        8.279970    1.463057   -3.760620
     35          6           0        8.316177    2.410357   -2.739270
     36          6           0        8.161561    1.758169   -1.482674
     37          6           0        8.471225    1.629286   -5.160700
     38          6           0        8.474163    3.818904   -2.415397
     39          8           0        8.545063    4.857484   -3.074045
     40          6           0        8.676676    3.951489   -0.841473
     41          6           0        7.761834    5.042598   -0.355825
     42          8           0        6.522372    4.902470   -0.394084
     43          8           0        8.482238    5.971669    0.291003
     44          6           0        7.630738    7.068381    0.824224
     45          1           0        9.241956   -0.826650    4.165341
     46          1           0        7.534960   -5.210427    0.066235
     47          1           0        7.989755   -1.074860   -4.637960
     48          1           0        9.642618    3.660717    2.135608
     49          1           0        9.247815    1.762616    4.182262
     50          1           0       11.427535    2.171585    2.170435
     51          1           0       11.210344    0.482197    2.722760
     52          1           0       11.562883    1.701396    3.914335
     53          1           0        7.138081    2.656665    3.503264
     54          1           0        6.945629    3.832232    2.141839
     55          1           0        8.863068    4.871357    3.966845
     56          1           0        7.746736    4.014074    4.960183
     57          1           0        8.424416   -2.301273    5.430244
     58          1           0        8.563376   -4.010858    5.275248
     59          1           0        6.937636   -3.317903    5.507836
     60          1           0        7.382973   -5.854669    4.802180
     61          1           0        6.021515   -6.918564    4.136570
     62          1           0        5.772540   -5.213502    4.598853
     63          1           0        6.959332   -5.244803   -2.417299
     64          1           0        8.647626   -3.660583   -4.290237
     65          1           0        8.736501   -6.610149   -2.705205
     66          1           0        9.717394   -5.420016   -1.783159
     67          1           0        9.666175   -5.332120   -3.467388
     68          1           0        6.517533   -4.836605   -4.959556
     69          1           0        6.664106   -3.181310   -5.539520
     70          1           0        5.031472   -4.384284   -3.433803
     71          1           0        4.512075   -3.210088   -4.690059
     72          1           0        5.414782   -2.686384   -3.198228
     73          1           0        7.870480    2.491348   -5.450395
     74          1           0        8.173346    0.736343   -5.709813
     75          1           0        9.546462    1.803364   -5.198360
     76          1           0        9.726269    4.195147   -0.679896
     77          1           0        8.023872    8.003233    0.424560
     78          1           0        7.613791    6.948705    1.907643
     79          1           0        6.604236    7.103364    0.457605
     80         12           0       -7.965973    0.980089    0.101241
     81          6           0       -8.198110   -2.598012    0.250895
     82          6           0       -7.161684    0.640751   -3.196124
     83          6           0       -7.314329    4.084827    0.043000
     84          6           0       -7.658690    0.966572    3.572704
     85          7           0       -7.741198   -0.800672   -1.191285
     86          6           0       -7.914423   -2.105052   -1.039824
     87          6           0       -7.855104   -2.919345   -2.360040
     88          6           0       -6.973613   -1.899148   -3.232422
     89          6           0       -7.336306   -0.595458   -2.524240
     90          6           0       -5.477231   -2.121015   -3.087694
     91          6           0       -9.274610   -3.137450   -2.992070
     92          6           0       -9.327346   -4.181105   -4.110001
     93          1           0      -10.521284   -5.013410   -4.229434
     94          7           0       -7.812764    2.231649   -1.431312
     95          6           0       -7.500025    1.921611   -2.706984
     96          6           0       -7.496888    3.196156   -3.441610
     97          6           0       -7.671385    4.302695   -2.461886
     98          6           0       -7.583494    3.567891   -1.215917
     99          6           0       -7.418201    3.272229   -4.938749
    100          6           0       -7.870039    5.779771   -2.619958
    101          8           0       -7.760383    6.583894   -1.627899
    102          6           0       -8.104422    6.267141   -3.987082
    103          7           0       -7.335682    2.316171    1.564094
    104          6           0       -7.177950    3.622161    1.285851
    105          6           0       -6.988938    4.429796    2.547751
    106          6           0       -7.295317    3.423114    3.752048
    107          6           0       -7.531799    2.127648    2.945049
    108          6           0       -5.604270    5.047639    2.740997
    109          6           0       -8.375166    3.861917    4.778707
    110          6           0       -9.734893    3.887347    4.118494
    111          7           0       -8.114891   -0.497901    1.670133
    112          6           0       -7.925174   -0.294349    3.054561
    113          6           0       -8.016305   -1.617296    3.705641
    114          6           0       -8.231508   -2.508708    2.643777
    115          6           0       -8.251518   -1.794406    1.415421
    116          6           0       -7.855456   -1.872719    5.096688
    117          6           0       -8.435695   -3.892856    2.281638
    118          8           0       -8.599977   -4.939364    2.907393
    119          6           0       -8.296983   -4.028218    0.704036
    120          6           0       -9.458245   -4.842958    0.203863
    121          8           0      -10.620037   -4.408162    0.292213
    122          8           0       -8.990784   -5.897468   -0.488858
    123          6           0      -10.105354   -6.729918   -1.014760
    124          1           0       -6.681195    0.635939   -4.174890
    125          1           0       -7.192008    5.169359    0.091106
    126          1           0       -7.671363    0.890176    4.662052
    127          1           0       -7.349935   -3.874607   -2.282262
    128          1           0       -7.305085   -1.875920   -4.267281
    129          1           0       -5.250251   -2.854125   -2.327969
    130          1           0       -5.061568   -1.158241   -2.820602
    131          1           0       -5.039219   -2.380293   -4.055819
    132          1           0       -9.555827   -2.240591   -3.558894
    133          1           0       -9.995050   -3.381406   -2.235702
    134          1           0       -8.422649   -4.800500   -4.138660
    135          1           0       -9.326448   -3.660739   -5.070850
    136          1           0       -7.130974    2.308010   -5.375971
    137          1           0       -6.584363    3.939768   -5.181616
    138          1           0       -8.330858    3.668571   -5.388916
    139          1           0       -7.264476    5.988219   -4.618876
    140          1           0       -8.311975    7.334120   -3.885381
    141          1           0       -8.986134    5.759009   -4.393290
    142          1           0       -7.692499    5.252205    2.589566
    143          1           0       -6.404735    3.248125    4.373412
    144          1           0       -5.630495    6.146337    2.868466
    145          1           0       -4.988746    4.777783    1.893151
    146          1           0       -5.033134    4.648520    3.577476
    147          1           0       -8.178447    4.880064    5.123426
    148          1           0       -8.418923    3.227198    5.657462
    149          1           0       -9.752367    4.864720    3.627045
    150          1           0      -10.523966    3.805918    4.863324
    151          1           0       -9.806623    3.123407    3.335608
    152          1           0       -8.634646   -2.568769    5.377565
    153          1           0       -7.912295   -0.955141    5.678582
    154          1           0       -6.849202   -2.300128    5.101437
    155          1           0       -7.340299   -4.510389    0.499464
    156          1           0       -9.941085   -7.749478   -0.652540
    157          1           0      -10.100635   -6.577755   -2.110467
    158          1           0      -11.101533   -6.529558   -0.638016
 ---------------------------------------------------------------------
 Rotational constants (GHZ):           0.0204133           0.0059450           0.0054957
 Leave Link  202 at Sat Sep 11 21:42:09 2021, MaxMem= 23488102400 cpu:               0.2 elap:               0.0
 (Enter /sw/apps/gaussian-16.0/g16/l301.exe)
 Standard basis: def2SVP (5D, 7F)
 Ernie: Thresh=  0.10000D-02 Tol=  0.10000D-05 Strict=F.
 There are  1658 symmetry adapted cartesian basis functions of A   symmetry.
 There are  1572 symmetry adapted basis functions of A   symmetry.
  1572 basis functions,  2678 primitive gaussians,  1658 cartesian basis functions
   312 alpha electrons      312 beta electrons
       nuclear repulsion energy     13730.0803235252 Hartrees.
 IExCor=20419 DFT=T Ex+Corr=CAM-B3LYP ExCW=0 ScaHFX=  1.000000
 ScaDFX=  1.000000  1.000000  1.000000  0.810000 ScalE2=  1.000000  1.000000
 IRadAn=      5 IRanWt=     -1 IRanGd=            0 ICorTp=0 IEmpDi=  4
 HFx  wShort=  0.000000 wLong=  0.330000 cFull=  0.190000 cShort=  0.000000 cLong=  0.460000
 DFx  wShort=  0.000000 wLong=  0.330000 cFull=  0.190000 cShort=  0.000000 cLong=  0.460000
 NAtoms=  158 NActive=  158 NUniq=  158 SFac= 1.00D+00 NAtFMM=   60 NAOKFM=T Big=T
 Integral buffers will be    131072 words long.
 Raffenetti 1 integral format.
 Two-electron integral symmetry is turned on.
 Leave Link  301 at Sat Sep 11 21:42:09 2021, MaxMem= 23488102400 cpu:               1.4 elap:               0.1
 (Enter /sw/apps/gaussian-16.0/g16/l302.exe)
 NPDir=0 NMtPBC=     1 NCelOv=     1 NCel=       1 NClECP=     1 NCelD=      1
         NCelK=      1 NCelE2=     1 NClLst=     1 CellRange=     0.0.
 One-electron integrals computed using PRISM.
 One-electron integral symmetry used in STVInt
   1 Symmetry operations used in ECPInt.
 ECPInt:  NShTT=  271216 NPrTT=  987664 LenC2=  107311 LenP2D=  244311.
 LDataN:  DoStor=T MaxTD1= 4 Len=   56
 NBasis=  1572 RedAO= T EigKep=  3.36D-04  NBF=  1572
 NBsUse=  1572 1.00D-06 EigRej= -1.00D+00 NBFU=  1572
 Precomputing XC quadrature grid using
 IXCGrd= 4 IRadAn=           5 IRanWt=          -1 IRanGd=           0 AccXCQ= 0.00D+00.
 Generated NRdTot=       0 NPtTot=           0 NUsed=           0 NTot=          32
 NSgBfM=   855   824   842   854   855 MxSgAt=   158 MxSgA2=   148.
 Leave Link  302 at Sat Sep 11 21:42:13 2021, MaxMem= 23488102400 cpu:              95.9 elap:               4.0
 (Enter /sw/apps/gaussian-16.0/g16/l303.exe)
 DipDrv:  MaxL=1.
 Leave Link  303 at Sat Sep 11 21:42:14 2021, MaxMem= 23488102400 cpu:               9.0 elap:               0.4
 (Enter /sw/apps/gaussian-16.0/g16/l308.exe)
 Leave Link  308 at Sat Sep 11 21:42:14 2021, MaxMem= 23488102400 cpu:              13.2 elap:               0.6
 (Enter /sw/apps/gaussian-16.0/g16/l401.exe)
 ExpMin= 3.36D-02 ExpMax= 4.95D+03 ExpMxC= 7.45D+02 IAcc=3 IRadAn=         5 AccDes= 0.00D+00
 Harris functional with IExCor=20419 and IRadAn=       5 diagonalized for initial guess.
 HarFok:  IExCor=20419 AccDes= 0.00D+00 IRadAn=         5 IDoV= 1 UseB2=F ITyADJ=14
 ICtDFT=  3500011 ScaDFX=  1.000000  1.000000  1.000000  1.000000
 FoFCou: FMM=F IPFlag=           0 FMFlag=      100000 FMFlg1=        2001
         NFxFlg=           0 DoJE=T BraDBF=F KetDBF=T FulRan=T
         wScrn=  0.000000 ICntrl=       500 IOpCl=  0 I1Cent=   200000004 NGrid=           0
         NMat0=    1 NMatS0=      1 NMatT0=    0 NMatD0=    1 NMtDS0=    0 NMtDT0=    0
 Petite list used in FoFCou.
 Harris En= -3918.65801236447    
 JPrj=0 DoOrth=F DoCkMO=F.
 Leave Link  401 at Sat Sep 11 21:42:20 2021, MaxMem= 23488102400 cpu:             147.0 elap:               6.2
 (Enter /sw/apps/gaussian-16.0/g16/l502.exe)
 Integral symmetry usage will be decided dynamically.
 Closed shell SCF:
 Using DIIS extrapolation, IDIIS=  1040.
 NGot= 23488102400 LenX= 23482547354 LenY= 23479796732
 Requested convergence on RMS density matrix=1.00D-08 within 128 cycles.
 Requested convergence on MAX density matrix=1.00D-06.
 Requested convergence on             energy=1.00D-06.
 No special actions if energy rises.
 Fock matrices will be formed incrementally for  20 cycles.

 Cycle   1  Pass 1  IDiag  1:
 FoFJK:  IHMeth= 1 ICntrl=       0 DoSepK=T KAlg= 0 I1Cent=           0 FoldK=F
 IRaf=         1 NMat=       1 IRICut=       1 DoRegI=T DoRafI=F ISym2E= 0 IDoP0=0 IntGTp=1.
 FoFCou: FMM=T IPFlag=           0 FMFlag=      100000 FMFlg1=        2001
         NFxFlg=           0 DoJE=T BraDBF=F KetDBF=F FulRan=T
         wScrn=  0.000000 ICntrl=       500 IOpCl=  0 I1Cent=           0 NGrid=           0
         NMat0=    1 NMatS0=      1 NMatT0=    0 NMatD0=    1 NMtDS0=    0 NMtDT0=    0
 Symmetry not used in FoFCou.
 FMM levels:  10  Number of levels for PrismC:   9
 E= -4068.94958113029    
 DIIS: error= 2.04D-02 at cycle   1 NSaved=   1.
 NSaved= 1 IEnMin= 1 EnMin= -4068.94958113029     IErMin= 1 ErrMin= 2.04D-02
 ErrMax= 2.04D-02  0.00D+00 EMaxC= 1.00D-01 BMatC= 1.69D+00 BMatP= 1.69D+00
 IDIUse=3 WtCom= 7.96D-01 WtEn= 2.04D-01
 Coeff-Com:  0.100D+01
 Coeff-En:   0.100D+01
 Coeff:      0.100D+01
 Gap=     0.120 Goal=   None    Shift=    0.000
 GapD=    0.120 DampG=1.000 DampE=0.500 DampFc=0.5000 IDamp=-1.
 Damping current iteration by 5.00D-01
 RMSDP=1.57D-03 MaxDP=1.35D-01              OVMax= 2.01D-01

 Cycle   2  Pass 1  IDiag  1:
 RMSU=  7.69D-04    CP:  9.82D-01
 E= -4069.33858337367     Delta-E=       -0.389002243384 Rises=F Damp=T
 DIIS: error= 1.27D-02 at cycle   2 NSaved=   2.
 NSaved= 2 IEnMin= 2 EnMin= -4069.33858337367     IErMin= 2 ErrMin= 1.27D-02
 ErrMax= 1.27D-02  0.00D+00 EMaxC= 1.00D-01 BMatC= 3.06D-01 BMatP= 1.69D+00
 IDIUse=3 WtCom= 8.73D-01 WtEn= 1.27D-01
 Coeff-Com: -0.213D+00 0.121D+01
 Coeff-En:   0.000D+00 0.100D+01
 Coeff:     -0.186D+00 0.119D+01
 Gap=     0.136 Goal=   None    Shift=    0.000
 RMSDP=7.64D-04 MaxDP=9.43D-02 DE=-3.89D-01 OVMax= 1.86D-01

 Cycle   3  Pass 1  IDiag  1:
 RMSU=  7.31D-04    CP:  9.68D-01  1.24D+00
 E= -4069.62908103055     Delta-E=       -0.290497656875 Rises=F Damp=F
 DIIS: error= 1.57D-02 at cycle   3 NSaved=   3.
 NSaved= 3 IEnMin= 3 EnMin= -4069.62908103055     IErMin= 2 ErrMin= 1.27D-02
 ErrMax= 1.57D-02  0.00D+00 EMaxC= 1.00D-01 BMatC= 2.01D-01 BMatP= 3.06D-01
 IDIUse=3 WtCom= 8.43D-01 WtEn= 1.57D-01
 Coeff-Com: -0.267D+00 0.651D+00 0.616D+00
 Coeff-En:   0.000D+00 0.000D+00 0.100D+01
 Coeff:     -0.225D+00 0.549D+00 0.676D+00
 Gap=     0.123 Goal=   None    Shift=    0.000
 RMSDP=5.05D-04 MaxDP=4.82D-02 DE=-2.90D-01 OVMax= 1.39D-01

 Cycle   4  Pass 1  IDiag  1:
 RMSU=  2.64D-04    CP:  9.65D-01  1.55D+00  5.08D-01
 E= -4069.76587727362     Delta-E=       -0.136796243074 Rises=F Damp=F
 DIIS: error= 7.29D-03 at cycle   4 NSaved=   4.
 NSaved= 4 IEnMin= 4 EnMin= -4069.76587727362     IErMin= 4 ErrMin= 7.29D-03
 ErrMax= 7.29D-03  0.00D+00 EMaxC= 1.00D-01 BMatC= 4.99D-02 BMatP= 2.01D-01
 IDIUse=3 WtCom= 9.27D-01 WtEn= 7.29D-02
 Coeff-Com: -0.108D+00 0.225D+00 0.408D+00 0.475D+00
 Coeff-En:   0.000D+00 0.000D+00 0.218D+00 0.782D+00
 Coeff:     -0.101D+00 0.209D+00 0.394D+00 0.497D+00
 Gap=     0.122 Goal=   None    Shift=    0.000
 RMSDP=1.97D-04 MaxDP=1.99D-02 DE=-1.37D-01 OVMax= 5.93D-02

 Cycle   5  Pass 1  IDiag  1:
 RMSU=  7.47D-05    CP:  9.64D-01  1.49D+00  6.90D-01  5.53D-01
 E= -4069.81063987859     Delta-E=       -0.044762604964 Rises=F Damp=F
 DIIS: error= 8.03D-04 at cycle   5 NSaved=   5.
 NSaved= 5 IEnMin= 5 EnMin= -4069.81063987859     IErMin= 5 ErrMin= 8.03D-04
 ErrMax= 8.03D-04  0.00D+00 EMaxC= 1.00D-01 BMatC= 1.12D-03 BMatP= 4.99D-02
 IDIUse=3 WtCom= 9.92D-01 WtEn= 8.03D-03
 Coeff-Com: -0.351D-01 0.688D-01 0.163D+00 0.247D+00 0.557D+00
 Coeff-En:   0.000D+00 0.000D+00 0.000D+00 0.000D+00 0.100D+01
 Coeff:     -0.348D-01 0.682D-01 0.161D+00 0.245D+00 0.560D+00
 Gap=     0.122 Goal=   None    Shift=    0.000
 RMSDP=3.94D-05 MaxDP=4.17D-03 DE=-4.48D-02 OVMax= 1.54D-02

 Cycle   6  Pass 1  IDiag  1:
 RMSU=  2.95D-05    CP:  9.64D-01  1.49D+00  6.82D-01  6.23D-01  7.70D-01
 E= -4069.81158792904     Delta-E=       -0.000948050452 Rises=F Damp=F
 DIIS: error= 2.30D-04 at cycle   6 NSaved=   6.
 NSaved= 6 IEnMin= 6 EnMin= -4069.81158792904     IErMin= 6 ErrMin= 2.30D-04
 ErrMax= 2.30D-04  0.00D+00 EMaxC= 1.00D-01 BMatC= 1.68D-04 BMatP= 1.12D-03
 IDIUse=3 WtCom= 9.98D-01 WtEn= 2.30D-03
 Coeff-Com:  0.245D-02-0.704D-02 0.100D-01 0.386D-01 0.306D+00 0.649D+00
 Coeff-En:   0.000D+00 0.000D+00 0.000D+00 0.000D+00 0.965D-01 0.904D+00
 Coeff:      0.245D-02-0.702D-02 0.100D-01 0.386D-01 0.306D+00 0.650D+00
 Gap=     0.122 Goal=   None    Shift=    0.000
 RMSDP=1.52D-05 MaxDP=1.28D-03 DE=-9.48D-04 OVMax= 6.93D-03

 Cycle   7  Pass 1  IDiag  1:
 RMSU=  1.03D-05    CP:  9.64D-01  1.50D+00  6.88D-01  6.23D-01  8.66D-01
                    CP:  7.56D-01
 E= -4069.81176538407     Delta-E=       -0.000177455033 Rises=F Damp=F
 DIIS: error= 8.08D-05 at cycle   7 NSaved=   7.
 NSaved= 7 IEnMin= 7 EnMin= -4069.81176538407     IErMin= 7 ErrMin= 8.08D-05
 ErrMax= 8.08D-05  0.00D+00 EMaxC= 1.00D-01 BMatC= 1.88D-05 BMatP= 1.68D-04
 IDIUse=1 WtCom= 1.00D+00 WtEn= 0.00D+00
 Coeff-Com:  0.440D-02-0.960D-02-0.908D-02-0.432D-02 0.985D-01 0.323D+00
 Coeff-Com:  0.597D+00
 Coeff:      0.440D-02-0.960D-02-0.908D-02-0.432D-02 0.985D-01 0.323D+00
 Coeff:      0.597D+00
 Gap=     0.122 Goal=   None    Shift=    0.000
 RMSDP=6.34D-06 MaxDP=1.14D-03 DE=-1.77D-04 OVMax= 3.38D-03

 Cycle   8  Pass 1  IDiag  1:
 RMSU=  4.58D-06    CP:  9.64D-01  1.50D+00  6.88D-01  6.28D-01  8.72D-01
                    CP:  8.82D-01  8.35D-01
 E= -4069.81178876561     Delta-E=       -0.000023381534 Rises=F Damp=F
 DIIS: error= 4.85D-05 at cycle   8 NSaved=   8.
 NSaved= 8 IEnMin= 8 EnMin= -4069.81178876561     IErMin= 8 ErrMin= 4.85D-05
 ErrMax= 4.85D-05  0.00D+00 EMaxC= 1.00D-01 BMatC= 4.62D-06 BMatP= 1.88D-05
 IDIUse=1 WtCom= 1.00D+00 WtEn= 0.00D+00
 Coeff-Com:  0.211D-02-0.417D-02-0.766D-02-0.121D-01-0.132D-01 0.329D-01
 Coeff-Com:  0.352D+00 0.650D+00
 Coeff:      0.211D-02-0.417D-02-0.766D-02-0.121D-01-0.132D-01 0.329D-01
 Coeff:      0.352D+00 0.650D+00
 Gap=     0.122 Goal=   None    Shift=    0.000
 RMSDP=3.20D-06 MaxDP=3.47D-04 DE=-2.34D-05 OVMax= 1.18D-03

 Cycle   9  Pass 1  IDiag  1:
 RMSU=  1.88D-06    CP:  9.64D-01  1.50D+00  6.89D-01  6.29D-01  8.89D-01
                    CP:  9.07D-01  1.03D+00  9.26D-01
 E= -4069.81179614291     Delta-E=       -0.000007377308 Rises=F Damp=F
 DIIS: error= 1.98D-05 at cycle   9 NSaved=   9.
 NSaved= 9 IEnMin= 9 EnMin= -4069.81179614291     IErMin= 9 ErrMin= 1.98D-05
 ErrMax= 1.98D-05  0.00D+00 EMaxC= 1.00D-01 BMatC= 6.58D-07 BMatP= 4.62D-06
 IDIUse=1 WtCom= 1.00D+00 WtEn= 0.00D+00
 Coeff-Com:  0.455D-03-0.755D-03-0.263D-02-0.593D-02-0.216D-01-0.374D-01
 Coeff-Com:  0.108D+00 0.325D+00 0.635D+00
 Coeff:      0.455D-03-0.755D-03-0.263D-02-0.593D-02-0.216D-01-0.374D-01
 Coeff:      0.108D+00 0.325D+00 0.635D+00
 Gap=     0.122 Goal=   None    Shift=    0.000
 RMSDP=1.39D-06 MaxDP=1.55D-04 DE=-7.38D-06 OVMax= 7.60D-04

 Cycle  10  Pass 1  IDiag  1:
 RMSU=  9.24D-07    CP:  9.64D-01  1.50D+00  6.89D-01  6.30D-01  8.92D-01
                    CP:  9.21D-01  1.08D+00  1.09D+00  1.04D+00
 E= -4069.81179765941     Delta-E=       -0.000001516491 Rises=F Damp=F
 DIIS: error= 1.08D-05 at cycle  10 NSaved=  10.
 NSaved=10 IEnMin=10 EnMin= -4069.81179765941     IErMin=10 ErrMin= 1.08D-05
 ErrMax= 1.08D-05  0.00D+00 EMaxC= 1.00D-01 BMatC= 1.67D-07 BMatP= 6.58D-07
 IDIUse=1 WtCom= 1.00D+00 WtEn= 0.00D+00
 Coeff-Com: -0.425D-03 0.889D-03 0.123D-02 0.114D-02-0.385D-02-0.306D-01
 Coeff-Com: -0.486D-01-0.756D-01 0.263D+00 0.892D+00
 Coeff:     -0.425D-03 0.889D-03 0.123D-02 0.114D-02-0.385D-02-0.306D-01
 Coeff:     -0.486D-01-0.756D-01 0.263D+00 0.892D+00
 Gap=     0.122 Goal=   None    Shift=    0.000
 RMSDP=1.20D-06 MaxDP=1.28D-04 DE=-1.52D-06 OVMax= 5.91D-04

 Cycle  11  Pass 1  IDiag  1:
 RMSU=  5.01D-07    CP:  9.64D-01  1.50D+00  6.89D-01  6.30D-01  8.94D-01
                    CP:  9.32D-01  1.13D+00  1.20D+00  1.38D+00  1.36D+00
 E= -4069.81179841596     Delta-E=       -0.000000756554 Rises=F Damp=F
 DIIS: error= 3.74D-06 at cycle  11 NSaved=  11.
 NSaved=11 IEnMin=11 EnMin= -4069.81179841596     IErMin=11 ErrMin= 3.74D-06
 ErrMax= 3.74D-06  0.00D+00 EMaxC= 1.00D-01 BMatC= 5.64D-08 BMatP= 1.67D-07
 IDIUse=1 WtCom= 1.00D+00 WtEn= 0.00D+00
 Coeff-Com: -0.320D-03 0.623D-03 0.130D-02 0.210D-02 0.439D-02-0.816D-02
 Coeff-Com: -0.451D-01-0.131D+00-0.162D-01 0.454D+00 0.738D+00
 Coeff:     -0.320D-03 0.623D-03 0.130D-02 0.210D-02 0.439D-02-0.816D-02
 Coeff:     -0.451D-01-0.131D+00-0.162D-01 0.454D+00 0.738D+00
 Gap=     0.122 Goal=   None    Shift=    0.000
 RMSDP=6.66D-07 MaxDP=5.34D-05 DE=-7.57D-07 OVMax= 3.49D-04

 Cycle  12  Pass 1  IDiag  1:
 RMSU=  2.56D-07    CP:  9.64D-01  1.50D+00  6.89D-01  6.30D-01  8.95D-01
                    CP:  9.34D-01  1.15D+00  1.27D+00  1.55D+00  1.74D+00
                    CP:  1.21D+00
 E= -4069.81179866481     Delta-E=       -0.000000248852 Rises=F Damp=F
 DIIS: error= 2.35D-06 at cycle  12 NSaved=  12.
 NSaved=12 IEnMin=12 EnMin= -4069.81179866481     IErMin=12 ErrMin= 2.35D-06
 ErrMax= 2.35D-06  0.00D+00 EMaxC= 1.00D-01 BMatC= 1.34D-08 BMatP= 5.64D-08
 IDIUse=1 WtCom= 1.00D+00 WtEn= 0.00D+00
 Coeff-Com:  0.692D-05-0.298D-04 0.149D-03 0.464D-03 0.316D-02 0.425D-02
 Coeff-Com:  0.349D-02-0.328D-01-0.659D-01-0.880D-01 0.241D+00 0.934D+00
 Coeff:      0.692D-05-0.298D-04 0.149D-03 0.464D-03 0.316D-02 0.425D-02
 Coeff:      0.349D-02-0.328D-01-0.659D-01-0.880D-01 0.241D+00 0.934D+00
 Gap=     0.122 Goal=   None    Shift=    0.000
 RMSDP=4.33D-07 MaxDP=3.01D-05 DE=-2.49D-07 OVMax= 2.46D-04

 Cycle  13  Pass 1  IDiag  1:
 RMSU=  1.62D-07    CP:  9.64D-01  1.50D+00  6.89D-01  6.30D-01  8.95D-01
                    CP:  9.34D-01  1.16D+00  1.30D+00  1.66D+00  1.98D+00
                    CP:  1.63D+00  1.29D+00
 E= -4069.81179875288     Delta-E=       -0.000000088068 Rises=F Damp=F
 DIIS: error= 1.37D-06 at cycle  13 NSaved=  13.
 NSaved=13 IEnMin=13 EnMin= -4069.81179875288     IErMin=13 ErrMin= 1.37D-06
 ErrMax= 1.37D-06  0.00D+00 EMaxC= 1.00D-01 BMatC= 7.64D-09 BMatP= 1.34D-08
 IDIUse=1 WtCom= 1.00D+00 WtEn= 0.00D+00
 Coeff-Com:  0.119D-03-0.243D-03-0.369D-03-0.460D-03 0.509D-03 0.510D-02
 Coeff-Com:  0.202D-01 0.224D-01-0.351D-01-0.241D+00-0.156D+00 0.610D+00
 Coeff-Com:  0.774D+00
 Coeff:      0.119D-03-0.243D-03-0.369D-03-0.460D-03 0.509D-03 0.510D-02
 Coeff:      0.202D-01 0.224D-01-0.351D-01-0.241D+00-0.156D+00 0.610D+00
 Coeff:      0.774D+00
 Gap=     0.122 Goal=   None    Shift=    0.000
 RMSDP=3.25D-07 MaxDP=2.11D-05 DE=-8.81D-08 OVMax= 1.77D-04

 Cycle  14  Pass 1  IDiag  1:
 RMSU=  7.46D-08    CP:  9.64D-01  1.50D+00  6.89D-01  6.30D-01  8.96D-01
                    CP:  9.35D-01  1.17D+00  1.32D+00  1.73D+00  2.16D+00
                    CP:  1.89D+00  1.80D+00  1.08D+00
 E= -4069.81179878595     Delta-E=       -0.000000033069 Rises=F Damp=F
 DIIS: error= 7.20D-07 at cycle  14 NSaved=  14.
 NSaved=14 IEnMin=14 EnMin= -4069.81179878595     IErMin=14 ErrMin= 7.20D-07
 ErrMax= 7.20D-07  0.00D+00 EMaxC= 1.00D-01 BMatC= 1.16D-09 BMatP= 7.64D-09
 IDIUse=1 WtCom= 1.00D+00 WtEn= 0.00D+00
 Coeff-Com:  0.650D-04-0.128D-03-0.242D-03-0.381D-03-0.498D-03 0.131D-02
 Coeff-Com:  0.110D-01 0.187D-01 0.285D-02-0.977D-01-0.141D+00 0.102D+00
 Coeff-Com:  0.397D+00 0.707D+00
 Coeff:      0.650D-04-0.128D-03-0.242D-03-0.381D-03-0.498D-03 0.131D-02
 Coeff:      0.110D-01 0.187D-01 0.285D-02-0.977D-01-0.141D+00 0.102D+00
 Coeff:      0.397D+00 0.707D+00
 Gap=     0.122 Goal=   None    Shift=    0.000
 RMSDP=9.72D-08 MaxDP=6.31D-06 DE=-3.31D-08 OVMax= 5.92D-05

 Cycle  15  Pass 1  IDiag  1:
 RMSU=  3.82D-08    CP:  9.64D-01  1.50D+00  6.89D-01  6.30D-01  8.96D-01
                    CP:  9.35D-01  1.17D+00  1.32D+00  1.74D+00  2.20D+00
                    CP:  1.99D+00  1.94D+00  1.31D+00  1.01D+00
 E= -4069.81179878983     Delta-E=       -0.000000003885 Rises=F Damp=F
 DIIS: error= 4.39D-07 at cycle  15 NSaved=  15.
 NSaved=15 IEnMin=15 EnMin= -4069.81179878983     IErMin=15 ErrMin= 4.39D-07
 ErrMax= 4.39D-07  0.00D+00 EMaxC= 1.00D-01 BMatC= 2.42D-10 BMatP= 1.16D-09
 IDIUse=1 WtCom= 1.00D+00 WtEn= 0.00D+00
 Coeff-Com:  0.601D-05-0.102D-04-0.350D-04-0.857D-04-0.312D-03-0.485D-03
 Coeff-Com:  0.131D-02 0.279D-02 0.883D-02 0.785D-03-0.340D-01-0.701D-01
 Coeff-Com:  0.284D-01 0.320D+00 0.743D+00
 Coeff:      0.601D-05-0.102D-04-0.350D-04-0.857D-04-0.312D-03-0.485D-03
 Coeff:      0.131D-02 0.279D-02 0.883D-02 0.785D-03-0.340D-01-0.701D-01
 Coeff:      0.284D-01 0.320D+00 0.743D+00
 Gap=     0.122 Goal=   None    Shift=    0.000
 RMSDP=4.11D-08 MaxDP=2.60D-06 DE=-3.89D-09 OVMax= 2.36D-05

 Cycle  16  Pass 1  IDiag  1:
 RMSU=  1.86D-08    CP:  9.64D-01  1.50D+00  6.89D-01  6.30D-01  8.96D-01
                    CP:  9.35D-01  1.17D+00  1.32D+00  1.75D+00  2.22D+00
                    CP:  2.01D+00  2.00D+00  1.39D+00  1.24D+00  1.13D+00
 E= -4069.81179879063     Delta-E=       -0.000000000793 Rises=F Damp=F
 DIIS: error= 2.35D-07 at cycle  16 NSaved=  16.
 NSaved=16 IEnMin=16 EnMin= -4069.81179879063     IErMin=16 ErrMin= 2.35D-07
 ErrMax= 2.35D-07  0.00D+00 EMaxC= 1.00D-01 BMatC= 7.76D-11 BMatP= 2.42D-10
 IDIUse=1 WtCom= 1.00D+00 WtEn= 0.00D+00
 Coeff-Com: -0.139D-04 0.282D-04 0.460D-04 0.524D-04-0.286D-04-0.633D-03
 Coeff-Com: -0.202D-02-0.415D-02 0.491D-02 0.253D-01 0.194D-01-0.648D-01
 Coeff-Com: -0.867D-01-0.183D-01 0.387D+00 0.740D+00
 Coeff:     -0.139D-04 0.282D-04 0.460D-04 0.524D-04-0.286D-04-0.633D-03
 Coeff:     -0.202D-02-0.415D-02 0.491D-02 0.253D-01 0.194D-01-0.648D-01
 Coeff:     -0.867D-01-0.183D-01 0.387D+00 0.740D+00
 Gap=     0.122 Goal=   None    Shift=    0.000
 RMSDP=2.27D-08 MaxDP=1.53D-06 DE=-7.93D-10 OVMax= 1.59D-05

 Cycle  17  Pass 1  IDiag  1:
 RMSU=  1.11D-08    CP:  9.64D-01  1.50D+00  6.89D-01  6.30D-01  8.96D-01
                    CP:  9.35D-01  1.17D+00  1.32D+00  1.75D+00  2.22D+00
                    CP:  2.03D+00  2.03D+00  1.44D+00  1.33D+00  1.43D+00
                    CP:  1.21D+00
 E= -4069.81179879107     Delta-E=       -0.000000000444 Rises=F Damp=F
 DIIS: error= 1.28D-07 at cycle  17 NSaved=  17.
 NSaved=17 IEnMin=17 EnMin= -4069.81179879107     IErMin=17 ErrMin= 1.28D-07
 ErrMax= 1.28D-07  0.00D+00 EMaxC= 1.00D-01 BMatC= 2.15D-11 BMatP= 7.76D-11
 IDIUse=1 WtCom= 1.00D+00 WtEn= 0.00D+00
 Coeff-Com: -0.825D-05 0.162D-04 0.321D-04 0.470D-04 0.820D-04-0.172D-03
 Coeff-Com: -0.119D-02-0.309D-02 0.617D-03 0.113D-01 0.190D-01-0.122D-01
 Coeff-Com: -0.469D-01-0.997D-01-0.219D-01 0.360D+00 0.794D+00
 Coeff:     -0.825D-05 0.162D-04 0.321D-04 0.470D-04 0.820D-04-0.172D-03
 Coeff:     -0.119D-02-0.309D-02 0.617D-03 0.113D-01 0.190D-01-0.122D-01
 Coeff:     -0.469D-01-0.997D-01-0.219D-01 0.360D+00 0.794D+00
 Gap=     0.122 Goal=   None    Shift=    0.000
 RMSDP=1.39D-08 MaxDP=9.49D-07 DE=-4.44D-10 OVMax= 8.20D-06

 Cycle  18  Pass 1  IDiag  1:
 RMSU=  5.36D-09    CP:  9.64D-01  1.50D+00  6.89D-01  6.30D-01  8.96D-01
                    CP:  9.35D-01  1.17D+00  1.32D+00  1.75D+00  2.22D+00
                    CP:  2.03D+00  2.04D+00  1.46D+00  1.40D+00  1.60D+00
                    CP:  1.62D+00  1.30D+00
 E= -4069.81179879147     Delta-E=       -0.000000000400 Rises=F Damp=F
 DIIS: error= 6.78D-08 at cycle  18 NSaved=  18.
 NSaved=18 IEnMin=18 EnMin= -4069.81179879147     IErMin=18 ErrMin= 6.78D-08
 ErrMax= 6.78D-08  0.00D+00 EMaxC= 1.00D-01 BMatC= 7.10D-12 BMatP= 2.15D-11
 IDIUse=1 WtCom= 1.00D+00 WtEn= 0.00D+00
 Coeff-Com:  0.727D-06-0.179D-05 0.335D-06 0.508D-05 0.658D-04 0.146D-03
 Coeff-Com:  0.209D-03-0.262D-03-0.115D-02-0.413D-02 0.279D-02 0.178D-01
 Coeff-Com:  0.101D-01-0.446D-01-0.154D+00-0.927D-01 0.380D+00 0.886D+00
 Coeff:      0.727D-06-0.179D-05 0.335D-06 0.508D-05 0.658D-04 0.146D-03
 Coeff:      0.209D-03-0.262D-03-0.115D-02-0.413D-02 0.279D-02 0.178D-01
 Coeff:      0.101D-01-0.446D-01-0.154D+00-0.927D-01 0.380D+00 0.886D+00
 Gap=     0.122 Goal=   None    Shift=    0.000
 RMSDP=1.05D-08 MaxDP=8.57D-07 DE=-4.00D-10 OVMax= 7.30D-06

 Cycle  19  Pass 1  IDiag  1:
 RMSU=  3.29D-09    CP:  9.64D-01  1.50D+00  6.89D-01  6.30D-01  8.96D-01
                    CP:  9.35D-01  1.17D+00  1.32D+00  1.75D+00  2.22D+00
                    CP:  2.03D+00  2.04D+00  1.47D+00  1.45D+00  1.73D+00
                    CP:  1.90D+00  1.80D+00  1.17D+00
 E= -4069.81179879136     Delta-E=        0.000000000109 Rises=F Damp=F
 DIIS: error= 3.43D-08 at cycle  19 NSaved=  19.
 NSaved=19 IEnMin=18 EnMin= -4069.81179879147     IErMin=19 ErrMin= 3.43D-08
 ErrMax= 3.43D-08  0.00D+00 EMaxC= 1.00D-01 BMatC= 3.00D-12 BMatP= 7.10D-12
 IDIUse=1 WtCom= 1.00D+00 WtEn= 0.00D+00
 Coeff-Com:  0.336D-05-0.680D-05-0.111D-04-0.133D-04 0.186D-04 0.155D-03
 Coeff-Com:  0.576D-03 0.881D-03-0.896D-03-0.710D-02-0.501D-02 0.162D-01
 Coeff-Com:  0.239D-01 0.541D-02-0.995D-01-0.201D+00-0.447D-01 0.590D+00
 Coeff-Com:  0.721D+00
 Coeff:      0.336D-05-0.680D-05-0.111D-04-0.133D-04 0.186D-04 0.155D-03
 Coeff:      0.576D-03 0.881D-03-0.896D-03-0.710D-02-0.501D-02 0.162D-01
 Coeff:      0.239D-01 0.541D-02-0.995D-01-0.201D+00-0.447D-01 0.590D+00
 Coeff:      0.721D+00
 Gap=     0.122 Goal=   None    Shift=    0.000
 RMSDP=6.69D-09 MaxDP=4.36D-07 DE= 1.09D-10 OVMax= 3.73D-06

 SCF Done:  E(RCAM-B3LYP) =  -4069.81179879     A.U. after   19 cycles
            NFock= 19  Conv=0.67D-08     -V/T= 2.0102
 KE= 4.028801865318D+03 PE=-3.694108068341D+04 EE= 1.511238669577D+04
 Leave Link  502 at Sat Sep 11 21:50:09 2021, MaxMem= 23488102400 cpu:           10713.9 elap:             468.9
 (Enter /sw/apps/gaussian-16.0/g16/l801.exe)
 DoSCS=F DFT=T ScalE2(SS,OS)=  1.000000  1.000000
 ExpMin= 3.36D-02 ExpMax= 4.95D+03 ExpMxC= 7.45D+02 IAcc=3 IRadAn=         5 AccDes= 0.00D+00
 HarFok:  IExCor=  205 AccDes= 0.00D+00 IRadAn=         5 IDoV=-2 UseB2=F ITyADJ=14
 ICtDFT= 12500011 ScaDFX=  1.000000  1.000000  1.000000  1.000000
 GSVD:  LWork=       -9588 too small for GESVD, short by       45590 words or       45590 for optimal perf.
 Largest valence mixing into a core orbital is  2.03D-04
 Largest core mixing into a valence orbital is  5.24D-05
 Range of M.O.s used for correlation:    95  1572
 NBasis=  1572 NAE=   312 NBE=   312 NFC=    94 NFV=     0
 NROrb=   1478 NOA=   218 NOB=   218 NVA=  1260 NVB=  1260
 Leave Link  801 at Sat Sep 11 21:50:10 2021, MaxMem= 23488102400 cpu:               8.0 elap:               0.4
 (Enter /sw/apps/gaussian-16.0/g16/l914.exe)
 RHF ground state
 Two-electron integrals replicated using symmetry.
 MDV= 23488102400 DFT=T DoStab=F Mixed=T DoRPA=T DoScal=F NonHer=T
 Making orbital integer symmetry assigments:
 Orbital symmetries:
       Occupied  (A) (A) (A) (A) (A) (A) (A) (A) (A) (A) (A) (A)
                 (A) (A) (A) (A) (A) (A) (A) (A) (A) (A) (A) (A)
                 (A) (A) (A) (A) (A) (A) (A) (A) (A) (A) (A) (A)
                 (A) (A) (A) (A) (A) (A) (A) (A) (A) (A) (A) (A)
                 (A) (A) (A) (A) (A) (A) (A) (A) (A) (A) (A) (A)
                 (A) (A) (A) (A) (A) (A) (A) (A) (A) (A) (A) (A)
                 (A) (A) (A) (A) (A) (A) (A) (A) (A) (A) (A) (A)
                 (A) (A) (A) (A) (A) (A) (A) (A) (A) (A) (A) (A)
                 (A) (A) (A) (A) (A) (A) (A) (A) (A) (A) (A) (A)
                 (A) (A) (A) (A) (A) (A) (A) (A) (A) (A) (A) (A)
                 (A) (A) (A) (A) (A) (A) (A) (A) (A) (A) (A) (A)
                 (A) (A) (A) (A) (A) (A) (A) (A) (A) (A) (A) (A)
                 (A) (A) (A) (A) (A) (A) (A) (A) (A) (A) (A) (A)
                 (A) (A) (A) (A) (A) (A) (A) (A) (A) (A) (A) (A)
                 (A) (A) (A) (A) (A) (A) (A) (A) (A) (A) (A) (A)
                 (A) (A) (A) (A) (A) (A) (A) (A) (A) (A) (A) (A)
                 (A) (A) (A) (A) (A) (A) (A) (A) (A) (A) (A) (A)
                 (A) (A) (A) (A) (A) (A) (A) (A) (A) (A) (A) (A)
                 (A) (A) (A) (A) (A) (A) (A) (A) (A) (A) (A) (A)
                 (A) (A) (A) (A) (A) (A) (A) (A) (A) (A) (A) (A)
                 (A) (A) (A) (A) (A) (A) (A) (A) (A) (A) (A) (A)
                 (A) (A) (A) (A) (A) (A) (A) (A) (A) (A) (A) (A)
                 (A) (A) (A) (A) (A) (A) (A) (A) (A) (A) (A) (A)
                 (A) (A) (A) (A) (A) (A) (A) (A) (A) (A) (A) (A)
                 (A) (A) (A) (A) (A) (A) (A) (A) (A) (A) (A) (A)
                 (A) (A) (A) (A) (A) (A) (A) (A) (A) (A) (A) (A)
       Virtual   (A) (A) (A) (A) (A) (A) (A) (A) (A) (A) (A) (A)
                 (A) (A) (A) (A) (A) (A) (A) (A) (A) (A) (A) (A)
                 (A) (A) (A) (A) (A) (A) (A) (A) (A) (A) (A) (A)
                 (A) (A) (A) (A) (A) (A) (A) (A) (A) (A) (A) (A)
                 (A) (A) (A) (A) (A) (A) (A) (A) (A) (A) (A) (A)
                 (A) (A) (A) (A) (A) (A) (A) (A) (A) (A) (A) (A)
                 (A) (A) (A) (A) (A) (A) (A) (A) (A) (A) (A) (A)
                 (A) (A) (A) (A) (A) (A) (A) (A) (A) (A) (A) (A)
                 (A) (A) (A) (A) (A) (A) (A) (A) (A) (A) (A) (A)
                 (A) (A) (A) (A) (A) (A) (A) (A) (A) (A) (A) (A)
                 (A) (A) (A) (A) (A) (A) (A) (A) (A) (A) (A) (A)
                 (A) (A) (A) (A) (A) (A) (A) (A) (A) (A) (A) (A)
                 (A) (A) (A) (A) (A) (A) (A) (A) (A) (A) (A) (A)
                 (A) (A) (A) (A) (A) (A) (A) (A) (A) (A) (A) (A)
                 (A) (A) (A) (A) (A) (A) (A) (A) (A) (A) (A) (A)
                 (A) (A) (A) (A) (A) (A) (A) (A) (A) (A) (A) (A)
                 (A) (A) (A) (A) (A) (A) (A) (A) (A) (A) (A) (A)
                 (A) (A) (A) (A) (A) (A) (A) (A) (A) (A) (A) (A)
                 (A) (A) (A) (A) (A) (A) (A) (A) (A) (A) (A) (A)
                 (A) (A) (A) (A) (A) (A) (A) (A) (A) (A) (A) (A)
                 (A) (A) (A) (A) (A) (A) (A) (A) (A) (A) (A) (A)
                 (A) (A) (A) (A) (A) (A) (A) (A) (A) (A) (A) (A)
                 (A) (A) (A) (A) (A) (A) (A) (A) (A) (A) (A) (A)
                 (A) (A) (A) (A) (A) (A) (A) (A) (A) (A) (A) (A)
                 (A) (A) (A) (A) (A) (A) (A) (A) (A) (A) (A) (A)
                 (A) (A) (A) (A) (A) (A) (A) (A) (A) (A) (A) (A)
                 (A) (A) (A) (A) (A) (A) (A) (A) (A) (A) (A) (A)
                 (A) (A) (A) (A) (A) (A) (A) (A) (A) (A) (A) (A)
                 (A) (A) (A) (A) (A) (A) (A) (A) (A) (A) (A) (A)
                 (A) (A) (A) (A) (A) (A) (A) (A) (A) (A) (A) (A)
                 (A) (A) (A) (A) (A) (A) (A) (A) (A) (A) (A) (A)
                 (A) (A) (A) (A) (A) (A) (A) (A) (A) (A) (A) (A)
                 (A) (A) (A) (A) (A) (A) (A) (A) (A) (A) (A) (A)
                 (A) (A) (A) (A) (A) (A) (A) (A) (A) (A) (A) (A)
                 (A) (A) (A) (A) (A) (A) (A) (A) (A) (A) (A) (A)
                 (A) (A) (A) (A) (A) (A) (A) (A) (A) (A) (A) (A)
                 (A) (A) (A) (A) (A) (A) (A) (A) (A) (A) (A) (A)
                 (A) (A) (A) (A) (A) (A) (A) (A) (A) (A) (A) (A)
                 (A) (A) (A) (A) (A) (A) (A) (A) (A) (A) (A) (A)
                 (A) (A) (A) (A) (A) (A) (A) (A) (A) (A) (A) (A)
                 (A) (A) (A) (A) (A) (A) (A) (A) (A) (A) (A) (A)
                 (A) (A) (A) (A) (A) (A) (A) (A) (A) (A) (A) (A)
                 (A) (A) (A) (A) (A) (A) (A) (A) (A) (A) (A) (A)
                 (A) (A) (A) (A) (A) (A) (A) (A) (A) (A) (A) (A)
                 (A) (A) (A) (A) (A) (A) (A) (A) (A) (A) (A) (A)
                 (A) (A) (A) (A) (A) (A) (A) (A) (A) (A) (A) (A)
                 (A) (A) (A) (A) (A) (A) (A) (A) (A) (A) (A) (A)
                 (A) (A) (A) (A) (A) (A) (A) (A) (A) (A) (A) (A)
                 (A) (A) (A) (A) (A) (A) (A) (A) (A) (A) (A) (A)
                 (A) (A) (A) (A) (A) (A) (A) (A) (A) (A) (A) (A)
                 (A) (A) (A) (A) (A) (A) (A) (A) (A) (A) (A) (A)
                 (A) (A) (A) (A) (A) (A) (A) (A) (A) (A) (A) (A)
                 (A) (A) (A) (A) (A) (A) (A) (A) (A) (A) (A) (A)
                 (A) (A) (A) (A) (A) (A) (A) (A) (A) (A) (A) (A)
                 (A) (A) (A) (A) (A) (A) (A) (A) (A) (A) (A) (A)
                 (A) (A) (A) (A) (A) (A) (A) (A) (A) (A) (A) (A)
                 (A) (A) (A) (A) (A) (A) (A) (A) (A) (A) (A) (A)
                 (A) (A) (A) (A) (A) (A) (A) (A) (A) (A) (A) (A)
                 (A) (A) (A) (A) (A) (A) (A) (A) (A) (A) (A) (A)
                 (A) (A) (A) (A) (A) (A) (A) (A) (A) (A) (A) (A)
                 (A) (A) (A) (A) (A) (A) (A) (A) (A) (A) (A) (A)
                 (A) (A) (A) (A) (A) (A) (A) (A) (A) (A) (A) (A)
                 (A) (A) (A) (A) (A) (A) (A) (A) (A) (A) (A) (A)
                 (A) (A) (A) (A) (A) (A) (A) (A) (A) (A) (A) (A)
                 (A) (A) (A) (A) (A) (A) (A) (A) (A) (A) (A) (A)
                 (A) (A) (A) (A) (A) (A) (A) (A) (A) (A) (A) (A)
                 (A) (A) (A) (A) (A) (A) (A) (A) (A) (A) (A) (A)
                 (A) (A) (A) (A) (A) (A) (A) (A) (A) (A) (A) (A)
                 (A) (A) (A) (A) (A) (A) (A) (A) (A) (A) (A) (A)
                 (A) (A) (A) (A) (A) (A) (A) (A) (A) (A) (A) (A)
                 (A) (A) (A) (A) (A) (A) (A) (A) (A) (A) (A) (A)
                 (A) (A) (A) (A) (A) (A) (A) (A) (A) (A) (A) (A)
                 (A) (A) (A) (A) (A) (A) (A) (A) (A) (A) (A) (A)
                 (A) (A) (A) (A) (A) (A) (A) (A) (A) (A) (A) (A)
                 (A) (A) (A) (A) (A) (A) (A) (A) (A) (A) (A) (A)
                 (A) (A) (A) (A) (A) (A) (A) (A) (A) (A) (A) (A)
                 (A) (A) (A) (A) (A) (A) (A) (A) (A) (A) (A) (A)
                 (A) (A) (A) (A) (A) (A) (A) (A) (A) (A) (A) (A)
                 (A) (A) (A) (A) (A) (A) (A) (A) (A) (A) (A) (A)
                 (A) (A) (A) (A) (A) (A) (A) (A) (A) (A) (A) (A)
                 (A) (A) (A) (A) (A) (A) (A) (A) (A) (A) (A) (A)
                 (A) (A) (A) (A) (A) (A) (A) (A) (A) (A) (A) (A)
                 (A) (A) (A) (A) (A) (A) (A) (A) (A) (A) (A) (A)
                 (A) (A) (A) (A) (A) (A) (A) (A) (A) (A) (A) (A)
                 (A) (A) (A) (A) (A) (A) (A) (A) (A) (A) (A) (A)
                 (A) (A) (A) (A) (A) (A) (A) (A) (A) (A) (A) (A)
                 (A) (A) (A) (A) (A) (A) (A) (A) (A) (A) (A) (A)
                 (A) (A) (A) (A) (A) (A) (A) (A) (A) (A) (A) (A)
                 (A) (A) (A) (A) (A) (A) (A) (A) (A) (A) (A) (A)
                 (A) (A) (A) (A) (A) (A) (A) (A) (A) (A) (A) (A)
                 (A) (A) (A) (A) (A) (A) (A) (A) (A) (A) (A) (A)
                 (A) (A) (A) (A) (A) (A) (A) (A) (A) (A) (A) (A)
                 (A) (A) (A) (A) (A) (A) (A) (A) (A) (A) (A) (A)
                 (A) (A) (A) (A) (A) (A) (A) (A) (A) (A) (A) (A)
                 (A) (A) (A) (A) (A) (A) (A) (A) (A) (A) (A) (A)
                 (A) (A) (A) (A) (A) (A) (A) (A) (A) (A) (A) (A)
                 (A) (A) (A) (A) (A) (A) (A) (A) (A) (A) (A) (A)
                 (A) (A) (A) (A) (A) (A) (A) (A) (A) (A) (A) (A)
                 (A) (A) (A) (A) (A) (A) (A) (A) (A) (A) (A) (A)
                 (A) (A) (A) (A) (A) (A) (A) (A) (A) (A) (A) (A)
                 (A) (A) (A) (A) (A) (A) (A) (A) (A) (A) (A) (A)
                 (A) (A) (A) (A) (A) (A) (A) (A) (A) (A) (A) (A)
                 (A) (A) (A) (A) (A) (A) (A) (A) (A) (A) (A) (A)
                 (A) (A) (A) (A) (A) (A) (A) (A) (A) (A) (A) (A)
                 (A) (A) (A) (A) (A) (A) (A) (A) (A) (A) (A) (A)
    20 initial guesses have been made.
 Convergence on wavefunction:    0.001000000000000
 Davidson Disk Diagonalization:  ConvIn= 1.00D-03 SkipCon=T Conv= 1.00D-03.
 Max sub-space:  2000 roots to seek:    20 dimension of matrix:       549360
 Iteration     1 Dimension    20 NMult     0 NNew     20
 CISAX will form    20 AO SS matrices at one time.
 NMat=    20 NSing=    20 JSym2X= 0.
 FoFJK:  IHMeth= 1 ICntrl=       0 DoSepK=T KAlg= 0 I1Cent=           0 FoldK=F
 IRaf=         1 NMat=      40 IRICut=       1 DoRegI=T DoRafI=F ISym2E= 0 IDoP0=3 IntGTp=3.
 FoFCou: FMM=T IPFlag=           0 FMFlag=      100000 FMFlg1=        2001
         NFxFlg=           0 DoJE=F BraDBF=F KetDBF=F FulRan=T
         wScrn=  0.000000 ICntrl=       500 IOpCl=  0 I1Cent=           0 NGrid=           0
         NMat0=   20 NMatS0=     20 NMatT0=    0 NMatD0=   20 NMtDS0=    0 NMtDT0=    0
 Symmetry not used in FoFCou.
 FMM levels:  10  Number of levels for PrismC:   9
 New state      1 was old state      7
 New state      2 was old state      6
 New state      3 was old state      2
 New state      4 was old state      3
 New state      5 was old state      1
 Excitation Energies [eV] at current iteration:
 Root      1 :     2.613939132816767
 Root      2 :     2.619748521436418
 Root      3 :     2.668195975411998
 Root      4 :     2.702975681221430
 Root      5 :     2.765813329396573
 Root      6 :     2.824962657701453
 Root      7 :     3.557298178284902
 Root      8 :     3.626725626353009
 Root      9 :     3.631113740985730
 Root     10 :     3.670241145205408
 Root     11 :     3.733924842351461
 Root     12 :     3.757973998553501
 Root     13 :     4.293039490436033
 Root     14 :     4.318377953450830
 Root     15 :     4.673457496185148
 Root     16 :     4.758472555730433
 Root     17 :     4.978411602713229
 Root     18 :     5.010869925786826
 Root     19 :     5.051364329094667
 Root     20 :     5.083440977168647
 Iteration     2 Dimension    30 NMult    20 NNew     10
 CISAX will form    10 AO SS matrices at one time.
 NMat=    10 NSing=    10 JSym2X= 0.
 New state      1 was old state      3
 Root      1 not converged, maximum delta is    0.154646345971828
 New state      2 was old state      4
 Root      2 not converged, maximum delta is    0.158533712450258
 New state      3 was old state      2
 Root      3 not converged, maximum delta is    0.402416877993774
 New state      4 was old state      1
 Root      4 not converged, maximum delta is    0.395190710928034
 Root      5 has converged.
 Excitation Energies [eV] at current iteration:
 Root      1 :     1.795612471657925   Change is   -0.872583503754073
 Root      2 :     1.813207274942758   Change is   -0.889768406278672
 Root      3 :     2.235168453215443   Change is   -0.384580068220974
 Root      4 :     2.240075122629210   Change is   -0.373864010187557
 Root      5 :     2.765732967933182   Change is   -0.000080361463390
 Iteration     3 Dimension    38 NMult    30 NNew      8
 CISAX will form     8 AO SS matrices at one time.
 NMat=     8 NSing=     8 JSym2X= 0.
 Root      1 not converged, maximum delta is    0.056290673632855
 Root      2 not converged, maximum delta is    0.057192462261744
 Root      3 not converged, maximum delta is    0.087774672543382
 Root      4 not converged, maximum delta is    0.087364083564457
 Root      5 has converged.
 Excitation Energies [eV] at current iteration:
 Root      1 :     1.688753772591567   Change is   -0.106858699066357
 Root      2 :     1.704509367030264   Change is   -0.108697907912494
 Root      3 :     2.194116112331066   Change is   -0.041052340884378
 Root      4 :     2.200938073834462   Change is   -0.039137048794748
 Root      5 :     2.765732967933331   Change is    0.000000000000149
 Iteration     4 Dimension    46 NMult    38 NNew      8
 CISAX will form     8 AO SS matrices at one time.
 NMat=     8 NSing=     8 JSym2X= 0.
 Root      1 not converged, maximum delta is    0.010859489417545
 Root      2 not converged, maximum delta is    0.010832107178835
 Root      3 not converged, maximum delta is    0.012125842821212
 Root      4 not converged, maximum delta is    0.012013959343220
 Root      5 has converged.
 Excitation Energies [eV] at current iteration:
 Root      1 :     1.672021265168544   Change is   -0.016732507423023
 Root      2 :     1.687648276973670   Change is   -0.016861090056594
 Root      3 :     2.186874965096460   Change is   -0.007241147234606
 Root      4 :     2.194140008879970   Change is   -0.006798064954492
 Root      5 :     2.765732967933331   Change is    0.000000000000000
 Iteration     5 Dimension    54 NMult    46 NNew      8
 CISAX will form     8 AO SS matrices at one time.
 NMat=     8 NSing=     8 JSym2X= 0.
 Root      1 not converged, maximum delta is    0.001769428152678
 Root      2 not converged, maximum delta is    0.001794073016340
 Root      3 not converged, maximum delta is    0.002445686959669
 Root      4 not converged, maximum delta is    0.002323625156712
 Root      5 has converged.
 Excitation Energies [eV] at current iteration:
 Root      1 :     1.670261594572193   Change is   -0.001759670596351
 Root      2 :     1.685857369296726   Change is   -0.001790907676944
 Root      3 :     2.186033512694695   Change is   -0.000841452401765
 Root      4 :     2.193361844612040   Change is   -0.000778164267930
 Root      5 :     2.765732967933182   Change is   -0.000000000000149
 Iteration     6 Dimension    62 NMult    54 NNew      8
 CISAX will form     8 AO SS matrices at one time.
 NMat=     8 NSing=     8 JSym2X= 0.
 Root      1 not converged, maximum delta is    0.001101353476343
 Root      2 not converged, maximum delta is    0.001119562294154
 Root      3 not converged, maximum delta is    0.001032733632801
 Root      4 has converged.
 Root      5 has converged.
 Excitation Energies [eV] at current iteration:
 Root      1 :     1.670011088049202   Change is   -0.000250506522990
 Root      2 :     1.685600177731033   Change is   -0.000257191565693
 Root      3 :     2.185906458992918   Change is   -0.000127053701778
 Root      4 :     2.193243535447684   Change is   -0.000118309164356
 Root      5 :     2.765732967933242   Change is    0.000000000000060
 Iteration     7 Dimension    68 NMult    62 NNew      6
 CISAX will form     6 AO SS matrices at one time.
 NMat=     6 NSing=     6 JSym2X= 0.
 Root      1 has converged.
 Root      2 has converged.
 Root      3 has converged.
 Root      4 has converged.
 Root      5 has converged.
 Excitation Energies [eV] at current iteration:
 Root      1 :     1.669986753719226   Change is   -0.000024334329976
 Root      2 :     1.685575732221998   Change is   -0.000024445509034
[...]
 Alpha virt. eigenvalues --    1.85139   1.85275   1.85380   1.85503   1.85514
 Alpha virt. eigenvalues --    1.85865   1.85922   1.86356   1.86407   1.86560
 Alpha virt. eigenvalues --    1.86676   1.86779   1.86846   1.87028   1.87054
 Alpha virt. eigenvalues --    1.87441   1.87502   1.87681   1.87788   1.87866
 Alpha virt. eigenvalues --    1.88037   1.88038   1.88201   1.88539   1.88600
 Alpha virt. eigenvalues --    1.88829   1.88965   1.89090   1.89115   1.89634
 Alpha virt. eigenvalues --    1.89689   1.89753   1.89903   1.90122   1.90214
 Alpha virt. eigenvalues --    1.90749   1.90914   1.91348   1.91439   1.91449
 Alpha virt. eigenvalues --    1.91614   1.92151   1.92200   1.92628   1.92676
 Alpha virt. eigenvalues --    1.92980   1.93172   1.93330   1.93522   1.94270
 Alpha virt. eigenvalues --    1.94323   1.94690   1.94841   1.95462   1.95609
 Alpha virt. eigenvalues --    1.95727   1.95828   1.95994   1.96068   1.96141
 Alpha virt. eigenvalues --    1.96189   1.96498   1.96588   1.96901   1.96961
 Alpha virt. eigenvalues --    1.97442   1.97553   1.97814   1.97825   1.98170
 Alpha virt. eigenvalues --    1.98186   1.98359   1.98679   1.99094   1.99138
 Alpha virt. eigenvalues --    1.99826   1.99953   2.00654   2.00741   2.00998
 Alpha virt. eigenvalues --    2.01115   2.01484   2.01524   2.01624   2.01664
 Alpha virt. eigenvalues --    2.01722   2.01839   2.02728   2.02786   2.03160
 Alpha virt. eigenvalues --    2.03229   2.03397   2.03407   2.03485   2.03536
 Alpha virt. eigenvalues --    2.04035   2.04042   2.04960   2.04998   2.05516
 Alpha virt. eigenvalues --    2.05653   2.06084   2.06308   2.06906   2.07045
 Alpha virt. eigenvalues --    2.07178   2.07360   2.08582   2.08592   2.08983
 Alpha virt. eigenvalues --    2.09020   2.09593   2.09630   2.10764   2.11048
 Alpha virt. eigenvalues --    2.11181   2.11424   2.11540   2.11545   2.11731
 Alpha virt. eigenvalues --    2.11890   2.12465   2.12481   2.12806   2.12821
 Alpha virt. eigenvalues --    2.12831   2.12886   2.13648   2.13772   2.14129
 Alpha virt. eigenvalues --    2.14273   2.15336   2.15425   2.15926   2.16098
 Alpha virt. eigenvalues --    2.16517   2.16612   2.16751   2.17184   2.17414
 Alpha virt. eigenvalues --    2.17670   2.17704   2.17952   2.18017   2.18058
 Alpha virt. eigenvalues --    2.18329   2.18686   2.18870   2.19246   2.19641
 Alpha virt. eigenvalues --    2.19834   2.20041   2.20206   2.20253   2.20456
 Alpha virt. eigenvalues --    2.21137   2.21188   2.21672   2.21742   2.21777
 Alpha virt. eigenvalues --    2.21887   2.22677   2.22720   2.23303   2.23353
 Alpha virt. eigenvalues --    2.24392   2.24429   2.24943   2.25024   2.26299
 Alpha virt. eigenvalues --    2.26455   2.26775   2.27023   2.27102   2.27215
 Alpha virt. eigenvalues --    2.28137   2.28333   2.29266   2.29455   2.29736
 Alpha virt. eigenvalues --    2.29894   2.30455   2.30633   2.30832   2.31077
 Alpha virt. eigenvalues --    2.31183   2.31212   2.32116   2.32258   2.33136
 Alpha virt. eigenvalues --    2.33251   2.33454   2.33493   2.34128   2.34152
 Alpha virt. eigenvalues --    2.35305   2.35370   2.35799   2.35928   2.36339
 Alpha virt. eigenvalues --    2.36352   2.36459   2.36625   2.37642   2.37683
 Alpha virt. eigenvalues --    2.38260   2.38403   2.38796   2.38861   2.39610
 Alpha virt. eigenvalues --    2.39680   2.40169   2.40275   2.40485   2.40838
 Alpha virt. eigenvalues --    2.41220   2.41267   2.41675   2.41701   2.42037
 Alpha virt. eigenvalues --    2.42134   2.42834   2.42931   2.43061   2.43537
 Alpha virt. eigenvalues --    2.43992   2.44173   2.44731   2.44818   2.44901
 Alpha virt. eigenvalues --    2.44998   2.45539   2.45580   2.46301   2.46306
 Alpha virt. eigenvalues --    2.46475   2.46506   2.46799   2.46805   2.47243
 Alpha virt. eigenvalues --    2.47380   2.47708   2.47896   2.49306   2.49408
 Alpha virt. eigenvalues --    2.49893   2.50051   2.50468   2.50539   2.51118
 Alpha virt. eigenvalues --    2.51271   2.51622   2.51886   2.52397   2.52438
 Alpha virt. eigenvalues --    2.52807   2.53172   2.53913   2.53980   2.54156
 Alpha virt. eigenvalues --    2.54301   2.54779   2.54808   2.55518   2.55674
 Alpha virt. eigenvalues --    2.57864   2.58088   2.58637   2.58912   2.60204
 Alpha virt. eigenvalues --    2.60300   2.60612   2.60930   2.61708   2.61830
 Alpha virt. eigenvalues --    2.62434   2.62529   2.62949   2.63126   2.63935
 Alpha virt. eigenvalues --    2.64225   2.64226   2.64426   2.65070   2.65099
 Alpha virt. eigenvalues --    2.65787   2.65861   2.66761   2.66817   2.66905
 Alpha virt. eigenvalues --    2.67062   2.67899   2.67982   2.68819   2.68853
 Alpha virt. eigenvalues --    2.69020   2.69026   2.69373   2.69589   2.69985
 Alpha virt. eigenvalues --    2.70133   2.70970   2.71063   2.71887   2.72049
 Alpha virt. eigenvalues --    2.72481   2.72648   2.72726   2.72827   2.73257
 Alpha virt. eigenvalues --    2.73282   2.73451   2.73529   2.74499   2.74502
 Alpha virt. eigenvalues --    2.74969   2.75049   2.76513   2.76578   2.77057
 Alpha virt. eigenvalues --    2.77225   2.77456   2.77607   2.78196   2.78302
 Alpha virt. eigenvalues --    2.78683   2.78723   2.79129   2.79150   2.80269
 Alpha virt. eigenvalues --    2.80347   2.80587   2.80677   2.81109   2.81141
 Alpha virt. eigenvalues --    2.81930   2.81978   2.82325   2.82330   2.83747
 Alpha virt. eigenvalues --    2.83770   2.83847   2.83888   2.84517   2.84535
 Alpha virt. eigenvalues --    2.84869   2.84875   2.85666   2.85689   2.86643
 Alpha virt. eigenvalues --    2.86987   2.87152   2.87603   2.88160   2.88238
 Alpha virt. eigenvalues --    2.88493   2.88596   2.88859   2.88925   2.90487
 Alpha virt. eigenvalues --    2.90644   2.91058   2.91172   2.93151   2.93312
 Alpha virt. eigenvalues --    2.93759   2.94191   2.94550   2.94565   2.95365
 Alpha virt. eigenvalues --    2.95461   2.95814   2.96196   2.96357   2.96424
 Alpha virt. eigenvalues --    2.96847   2.97172   2.97815   2.98028   2.98212
 Alpha virt. eigenvalues --    2.98341   2.98350   2.98561   2.98590   2.98754
 Alpha virt. eigenvalues --    2.98879   2.98909   2.99570   2.99788   2.99995
 Alpha virt. eigenvalues --    3.00032   3.00218   3.00330   3.00457   3.00980
 Alpha virt. eigenvalues --    3.01886   3.01967   3.02039   3.02108   3.02738
 Alpha virt. eigenvalues --    3.02809   3.02973   3.03317   3.03329   3.03695
 Alpha virt. eigenvalues --    3.04038   3.04148   3.04413   3.04433   3.04529
 Alpha virt. eigenvalues --    3.04697   3.05288   3.05349   3.06107   3.06155
 Alpha virt. eigenvalues --    3.06801   3.06927   3.07918   3.08142   3.09350
 Alpha virt. eigenvalues --    3.09401   3.09691   3.10415   3.10439   3.10727
 Alpha virt. eigenvalues --    3.11319   3.11471   3.11873   3.11942   3.12142
 Alpha virt. eigenvalues --    3.12289   3.13280   3.13628   3.13633   3.13676
 Alpha virt. eigenvalues --    3.14092   3.14448   3.15893   3.15962   3.17256
 Alpha virt. eigenvalues --    3.17501   3.17875   3.18080   3.19022   3.19124
 Alpha virt. eigenvalues --    3.22304   3.22572   3.23942   3.24421   3.24669
 Alpha virt. eigenvalues --    3.25170   3.26498   3.26641   3.27379   3.27615
 Alpha virt. eigenvalues --    3.29099   3.29193   3.31364   3.31521   3.33172
 Alpha virt. eigenvalues --    3.33414   3.40229   3.40632   3.42813   3.42823
 Alpha virt. eigenvalues --    3.48654   3.48678   3.50018   3.50268   3.50824
 Alpha virt. eigenvalues --    3.51472   3.56548   3.56993   3.59092   3.59326
 Alpha virt. eigenvalues --    3.62499   3.62834   3.66115   3.66197   3.67186
 Alpha virt. eigenvalues --    3.67513   3.73270   3.73992   3.76053   3.76651
          Condensed to atoms (all electrons):
 Mulliken charges:
               1
     1  Mg   0.838571
     2  C   -0.002922
     3  C   -0.094018
     4  C   -0.045895
     5  C   -0.064088
     6  N   -0.256768
     7  C   -0.052482
     8  C   -0.014016
     9  C   -0.087005
    10  C    0.046332
    11  C    0.104781
    12  C    0.053451
    13  C   -0.071867
    14  H    0.036197
    15  N   -0.433178
    16  C    0.168455
    17  C   -0.177007
    18  C   -0.003900
    19  C    0.148721
    20  C    0.110138
    21  C    0.012378
    22  O   -0.249550
    23  C    0.062416
    24  N   -0.341100
    25  C    0.041255
    26  C   -0.028227
    27  C   -0.023882
    28  C    0.074722
    29  C    0.076141
    30  C    0.035191
    31  C   -0.004434
    32  N   -0.310412
    33  C    0.080271
    34  C   -0.169962
    35  C    0.008350
    36  C    0.082852
    37  C    0.127375
    38  C    0.046009
    39  O   -0.188517
    40  C   -0.005296
    41  C    0.212905
    42  O   -0.257190
    43  O   -0.304781
    44  C    0.157653
    45  H   -0.017434
    46  H   -0.016773
    47  H   -0.041746
    48  H    0.000988
    49  H   -0.003927
    50  H    0.025495
    51  H    0.016464
    52  H    0.016785
    53  H    0.011200
    54  H    0.044078
    55  H    0.017927
    56  H    0.018011
    57  H    0.005938
    58  H    0.026998
    59  H    0.039809
    60  H    0.037399
    61  H    0.035990
    62  H    0.031670
    63  H    0.016487
    64  H    0.009467
    65  H    0.023265
    66  H    0.012698
    67  H    0.004744
    68  H    0.006296
    69  H    0.004508
    70  H    0.008858
    71  H    0.017370
    72  H    0.029119
    73  H    0.047329
    74  H    0.008838
    75  H    0.046068
    76  H    0.035214
    77  H    0.043010
    78  H    0.046466
    79  H    0.053719
    80  Mg   0.837943
    81  C   -0.016843
    82  C   -0.087638
    83  C   -0.045242
    84  C   -0.064914
    85  N   -0.254585
    86  C   -0.049865
    87  C   -0.015093
    88  C   -0.090525
    89  C    0.045794
    90  C    0.114283
    91  C    0.062531
    92  C   -0.077829
    93  H    0.034663
    94  N   -0.423589
    95  C    0.162999
    96  C   -0.174208
    97  C   -0.007584
    98  C    0.152211
    99  C    0.099180
   100  C    0.015775
   101  O   -0.253058
   102  C    0.061155
   103  N   -0.349990
   104  C    0.037654
   105  C   -0.019936
   106  C   -0.034661
   107  C    0.088829
   108  C    0.073554
   109  C    0.034800
   110  C   -0.007642
   111  N   -0.324052
   112  C    0.078358
   113  C   -0.163370
   114  C    0.002176
   115  C    0.096118
   116  C    0.131514
   117  C    0.042213
   118  O   -0.188237
   119  C    0.000961
   120  C    0.211204
   121  O   -0.251109
   122  O   -0.305586
   123  C    0.152085
   124  H   -0.019331
   125  H   -0.015387
   126  H   -0.040818
   127  H   -0.000683
   128  H   -0.004385
   129  H    0.022493
   130  H    0.014927
   131  H    0.016327
   132  H    0.013892
   133  H    0.037575
   134  H    0.020797
   135  H    0.019590
   136  H    0.008830
   137  H    0.026823
   138  H    0.039718
   139  H    0.038691
   140  H    0.036432
   141  H    0.033689
   142  H    0.014294
   143  H    0.012203
   144  H    0.025106
   145  H    0.012438
   146  H    0.005510
   147  H    0.006097
   148  H    0.003353
   149  H    0.010951
   150  H    0.017691
   151  H    0.030194
   152  H    0.045774
   153  H    0.008264
   154  H    0.046665
   155  H    0.035063
   156  H    0.043797
   157  H    0.049505
   158  H    0.053468
 Sum of Mulliken charges =  -0.00000
 Mulliken charges with hydrogens summed into heavy atoms:
               1
     1  Mg   0.838571
     2  C   -0.002922
     3  C   -0.111451
     4  C   -0.062668
     5  C   -0.105834
     6  N   -0.256768
     7  C   -0.052482
     8  C   -0.013027
     9  C   -0.090931
    10  C    0.046332
    11  C    0.163524
    12  C    0.108730
    13  C    0.000268
    15  N   -0.433178
    16  C    0.168455
    17  C   -0.177007
    18  C   -0.003900
    19  C    0.148721
    20  C    0.182883
    21  C    0.012378
    22  O   -0.249550
    23  C    0.167475
    24  N   -0.341100
    25  C    0.041255
    26  C   -0.011740
    27  C   -0.014414
    28  C    0.074722
    29  C    0.116848
    30  C    0.045995
    31  C    0.050913
    32  N   -0.310412
    33  C    0.080271
    34  C   -0.169962
    35  C    0.008350
    36  C    0.082852
    37  C    0.229610
    38  C    0.046009
    39  O   -0.188517
    40  C    0.029918
    41  C    0.212905
    42  O   -0.257190
    43  O   -0.304781
    44  C    0.300848
    80  Mg   0.837943
    81  C   -0.016843
    82  C   -0.106969
    83  C   -0.060630
    84  C   -0.105732
    85  N   -0.254585
    86  C   -0.049865
    87  C   -0.015776
    88  C   -0.094909
    89  C    0.045794
    90  C    0.168030
    91  C    0.113999
    92  C   -0.002779
    94  N   -0.423589
    95  C    0.162999
    96  C   -0.174208
    97  C   -0.007584
    98  C    0.152211
    99  C    0.174550
   100  C    0.015775
   101  O   -0.253058
   102  C    0.169968
   103  N   -0.349990
   104  C    0.037654
   105  C   -0.005643
   106  C   -0.022458
   107  C    0.088829
   108  C    0.116608
   109  C    0.044250
   110  C    0.051194
   111  N   -0.324052
   112  C    0.078358
   113  C   -0.163370
   114  C    0.002176
   115  C    0.096118
   116  C    0.232217
   117  C    0.042213
   118  O   -0.188237
   119  C    0.036024
   120  C    0.211204
   121  O   -0.251109
   122  O   -0.305586
   123  C    0.298855
 Electronic spatial extent (au):  <R**2>=         194054.2239
 Charge=             -0.0000 electrons
 Dipole moment (field-independent basis, Debye):
    X=              4.0225    Y=             -0.4633    Z=              0.0876  Tot=              4.0500
 Quadrupole moment (field-independent basis, Debye-Ang):
   XX=           -521.3204   YY=           -550.3757   ZZ=           -447.3470
   XY=            -23.7588   XZ=             69.9065   YZ=             46.2152
 Traceless Quadrupole moment (field-independent basis, Debye-Ang):
   XX=            -14.9727   YY=            -44.0280   ZZ=             59.0007
   XY=            -23.7588   XZ=             69.9065   YZ=             46.2152
 Octapole moment (field-independent basis, Debye-Ang**2):
  XXX=            807.4697  YYY=             15.6848  ZZZ=             15.0628  XYY=             -8.2830
  XXY=             49.0110  XXZ=             -0.7199  XZZ=              0.8148  YZZ=             -8.0021
  YYZ=            -10.3901  XYZ=             -0.1700
 Hexadecapole moment (field-independent basis, Debye-Ang**3):
 XXXX=        -202244.1282 YYYY=         -42695.6762 ZZZZ=         -23801.0646 XXXY=          -1611.8936
 XXXZ=           5737.7794 YYYX=           3367.6730 YYYZ=           1466.1162 ZZZX=            654.6935
 ZZZY=           -263.4328 XXYY=         -41791.8903 XXZZ=         -33674.3034 YYZZ=         -10724.3273
 XXYZ=           3277.8994 YYXZ=           1776.1307 ZZXY=          -1830.9921
 N-N= 1.373008032353D+04 E-N=-3.694108068075D+04  KE= 4.028801865318D+03
 Leave Link  601 at Sat Sep 11 22:07:54 2021, MaxMem= 23488102400 cpu:              13.1 elap:               0.7
 (Enter /sw/apps/gaussian-16.0/g16/l9999.exe)
 1\1\GINC-BP1-COMPUTE00129\SP\RCAM-B3LYP TD-FC\def2SVP\C68H72Mg2N8O8\OF
 15641\11-Sep-2021\0\\#p cam-b3lyp/Def2SVP td=(nstates=5)\\TDDFT excite
 d states in gaussian\\0,1\Mg,0,0.,0.,0.\C,0,-0.217,-2.218,2.801\C,0,-1
 .255,2.442,2.026\C,0,-0.245,1.85,-2.564\C,0,0.146,-2.824,-2.037\N,0,-0
 .617,-0.009,2.126\C,0,-0.594,-0.908,3.105\C,0,-0.936,-0.309,4.502\C,0,
 -1.773,0.964,4.032\C,0,-1.155,1.168,2.66\C,0,-3.263,0.685,3.863\C,0,0.
 345,0.11,5.299\C,0,0.124,0.397,6.787\H,0,1.168,0.033,7.733\N,0,-0.185,
 1.961,-0.152\C,0,-0.703,2.8,0.777\C,0,-0.62,4.156,0.193\C,0,-0.187,4.0
 15,-1.225\C,0,-0.214,2.583,-1.38\C,0,-0.887,5.406,0.974\C,0,0.181,5.01
 3,-2.277\O,0,0.303,4.69,-3.508\C,0,0.31,6.414,-1.837\N,0,-0.265,-0.413
 ,-2.029\C,0,-0.279,0.569,-2.937\C,0,-0.196,0.024,-4.332\C,0,0.124,-1.5
 33,-4.18\C,0,0.086,-1.632,-2.635\C,0,-1.451,0.205,-5.197\C,0,1.373,-2.
 07,-4.923\C,0,2.626,-1.49,-4.306\N,0,0.15,-2.144,0.303\C,0,0.173,-3.13
 6,-0.688\C,0,0.173,-4.438,0.004\C,0,0.133,-4.111,1.358\C,0,0.083,-2.69
 5,1.502\C,0,0.149,-5.715,-0.623\C,0,0.096,-4.629,2.716\O,0,0.208,-5.74
 7,3.221\C,0,-0.255,-3.428,3.701\C,0,0.717,-3.482,4.848\O,0,1.931,-3.25
 5,4.669\O,0,0.038,-3.556,6.003\C,0,0.943,-3.583,7.183\H,0,-1.859,3.22,
 2.497\H,0,-0.218,2.453,-3.474\H,0,0.276,-3.747,-2.605\H,0,-1.554,-0.94
 9,5.132\H,0,-1.585,1.831,4.665\H,0,-3.484,-0.377,3.969\H,0,-3.511,1.02
 7,2.858\H,0,-3.852,1.301,4.543\H,0,0.669,1.096,4.966\H,0,1.13,-0.639,5
 .189\H,0,-0.844,0.026,7.125\H,0,0.062,1.477,6.921\H,0,-1.344,5.186,1.9
 38\H,0,-1.651,5.963,0.432\H,0,0.007,6.02,1.084\H,0,-0.635,6.744,-1.405
 \H,0,0.665,6.97,-2.704\H,0,1.048,6.466,-1.036\H,0,0.608,0.501,-4.891\H
 ,0,-0.692,-2.156,-4.547\H,0,-1.267,0.74,-6.129\H,0,-2.204,0.714,-4.596
 \H,0,-1.967,-0.72,-5.453\H,0,1.356,-1.759,-5.967\H,0,1.452,-3.157,-4.9
 02\H,0,2.714,-0.522,-4.798\H,0,3.487,-2.121,-4.529\H,0,2.495,-1.303,-3
 .24\H,0,0.867,-6.333,-0.084\H,0,0.404,-5.642,-1.68\H,0,-0.891,-5.999,-
 0.463\H,0,-1.283,-3.581,4.028\H,0,0.698,-4.478,7.755\H,0,0.833,-2.619,
 7.68\H,0,2.,-3.754,6.976\Mg,0,15.77435,1.41559,1.19196\C,0,15.59901,3.
 5113,-1.71602\C,0,15.28856,-1.24833,-0.88221\C,0,15.47393,-0.40999,3.7
 6964\C,0,15.10469,4.25076,3.10482\N,0,15.4942,1.277,-0.99769\C,0,15.50
 769,2.13425,-2.00729\C,0,15.4991,1.47378,-3.41202\C,0,14.83026,0.0693,
 -3.01331\C,0,15.25621,0.00294,-1.5481\C,0,13.31175,0.08856,-3.06886\C,
 0,16.94493,1.27812,-3.98936\C,0,17.00093,0.9258,-5.47748\H,0,18.10318,
 1.45373,-6.27674\N,0,15.91989,-0.55317,1.39542\C,0,15.71095,-1.48721,0
 .44401\C,0,15.92357,-2.78588,1.10158\C,0,16.11354,-2.54849,2.55839\C,0
 ,15.81595,-1.13231,2.6357\C,0,16.01123,-4.07779,0.34218\C,0,16.48713,-
 3.44989,3.69598\O,0,16.36203,-3.08043,4.91691\C,0,16.91534,-4.81075,3.
 34075\N,0,15.14302,1.80986,3.13317\C,0,15.15833,0.84909,4.0737\C,0,14.
 92684,1.42828,5.44896\C,0,14.9938,3.01534,5.26358\C,0,15.17141,3.08382
 ,3.73088\C,0,13.60498,1.04945,6.11646\C,0,16.00118,3.78668,6.15961\C,0
 ,17.41736,3.427,5.77173\N,0,15.59613,3.53641,0.81992\C,0,15.28539,4.54
 403,1.75918\C,0,15.16326,5.81274,1.01228\C,0,15.39053,5.44834,-0.3234\
 C,0,15.61694,4.04783,-0.40584\C,0,14.83045,7.07864,1.57162\C,0,15.4798
 7,5.92827,-1.68369\O,0,15.46277,7.03711,-2.21653\C,0,15.49365,4.67541,
 -2.66172\C,0,16.60548,4.87389,-3.65517\O,0,17.79193,4.88289,-3.28252\O
 ,0,16.10144,4.80266,-4.90066\C,0,17.16789,4.98255,-5.92151\H,0,14.9158
 2,-2.12666,-1.40992\H,0,15.4659,-0.97551,4.70431\H,0,14.99455,5.1956,3
 .64131\H,0,14.88769,1.98095,-4.14872\H,0,15.26909,-0.7509,-3.57549\H,0
 ,12.9279,1.08087,-3.25361\H,0,12.97752,-0.27304,-2.10523\H,0,12.95221,
 -0.6369,-3.80424\H,0,17.37995,0.36479,-3.56355\H,0,17.55116,2.14248,-3
 .7996\H,0,16.04228,1.10408,-5.97963\H,0,17.1575,-0.15137,-5.57341\H,0,
 15.66835,-3.95987,-0.69315\H,0,15.28506,-4.76325,0.7924\H,0,17.00376,-
 4.53041,0.39413\H,0,16.12104,-5.30648,2.78775\H,0,17.22586,-5.27376,4.
 2794\H,0,17.77431,-4.74176,2.66397\H,0,15.70736,1.12129,6.13427\H,0,14
 .02919,3.49304,5.48981\H,0,13.737,0.56385,7.10177\H,0,13.05619,0.40309
 ,5.44446\H,0,12.90919,1.87367,6.26386\H,0,15.88125,3.49163,7.20494\H,0
 ,15.88316,4.86415,6.11353\H,0,17.59251,2.49356,6.31496\H,0,18.11032,4.
 20392,6.08834\H,0,17.48738,3.20331,4.70088\H,0,15.49551,7.80294,1.1204
 \H,0,14.92533,7.07174,2.65547\H,0,13.78878,7.16563,1.2513\H,0,14.517,4
 .62612,-3.14474\H,0,16.85661,5.81023,-6.56629\H,0,17.2948,3.99259,-6.3
 9861\H,0,18.13486,5.33277,-5.5798\\Version=ES64L-G16RevA.03\State=1-A\
 HF=-4069.8117988\RMSD=6.688e-09\PG=C01 [X(C68H72Mg2N8O8)]\\@


 WE ARE REACHING THE STAGE WHERE THE PROBLEMS WE MUST SOLVE ARE 
 GOING TO BECOME INSOLUBLE WITHOUT COMPUTERS.
 I DO NOT FEAR COMPUTERS.  I FEAR THE LACK OF THEM.

                                   -- ISSAC ASIMOV
 Job cpu time:       0 days 10 hours  4 minutes 52.1 seconds.
 Elapsed time:       0 days  0 hours 25 minutes 45.5 seconds.
 File lengths (MBytes):  RWF=  13225 Int=      0 D2E=      0 Chk=    574 Scr=      1
 Normal termination of Gaussian 16 at Sat Sep 11 22:07:55 2021.
