 Entering Gaussian System, Link 0=g16
 Initial command:
 /sw/apps/gaussian-16.0/g16/l1.exe "/tmp/Gau-205401.inp" -scrdir="/tmp/"
 Entering Link 1 = /sw/apps/gaussian-16.0/g16/l1.exe PID=    205402.
  
 Copyright (c) 1988,1990,1992,1993,1995,1998,2003,2009,2016,
            Gaussian, Inc.  All Rights Reserved.
  
 This is part of the Gaussian(R) 16 program.  It is based on
 the Gaussian(R) 09 system (copyright 2009, Gaussian, Inc.),
 the Gaussian(R) 03 system (copyright 2003, Gaussian, Inc.),
 the Gaussian(R) 98 system (copyright 1998, Gaussian, Inc.),
 the Gaussian(R) 94 system (copyright 1995, Gaussian, Inc.),
 the Gaussian 92(TM) system (copyright 1992, Gaussian, Inc.),
 the Gaussian 90(TM) system (copyright 1990, Gaussian, Inc.),
 the Gaussian 88(TM) system (copyright 1988, Gaussian, Inc.),
 the Gaussian 86(TM) system (copyright 1986, Carnegie Mellon
 University), and the Gaussian 82(TM) system (copyright 1983,
 Carnegie Mellon University). Gaussian is a federally registered
 trademark of Gaussian, Inc.
  
 This software contains proprietary and confidential information,
 including trade secrets, belonging to Gaussian, Inc.
  
 This software is provided under written license and may be
 used, copied, transmitted, or stored only in accord with that
 written license.
  
 The following legend is applicable only to US Government
 contracts under FAR:
  
                    RESTRICTED RIGHTS LEGEND
  
 Use, reproduction and disclosure by the US Government is
 subject to restrictions as set forth in subparagraphs (a)
 and (c) of the Commercial Computer Software - Restricted
 Rights clause in FAR 52.227-19.
  
 Gaussian, Inc.
 340 Quinnipiac St., Bldg. 40, Wallingford CT 06492
  
  
 ---------------------------------------------------------------
 Warning -- This program may not be used in any manner that
 competes with the business of Gaussian, Inc. or will provide
 assistance to any competitor of Gaussian, Inc.  The licensee
 of this program is prohibited from giving any competitor of
 Gaussian, Inc. access to this program.  By using this program,
 the user acknowledges that Gaussian, Inc. is engaged in the
 business of creating and licensing software in the field of
 computational chemistry and represents and warrants to the
 licensee that it is not a competitor of Gaussian, Inc. and that
 it will not use this program in any manner prohibited above.
 ---------------------------------------------------------------
  

 Cite this work as:
 Gaussian 16, Revision A.03,
 M. J. Frisch, G. W. Trucks, H. B. Schlegel, G. E. Scuseria, 
 M. A. Robb, J. R. Cheeseman, G. Scalmani, V. Barone, 
 G. A. Petersson, H. Nakatsuji, X. Li, M. Caricato, A. V. Marenich, 
 J. Bloino, B. G. Janesko, R. Gomperts, B. Mennucci, H. P. Hratchian, 
 J. V. Ortiz, A. F. Izmaylov, J. L. Sonnenberg, D. Williams-Young, 
 F. Ding, F. Lipparini, F. Egidi, J. Goings, B. Peng, A. Petrone, 
 T. Henderson, D. Ranasinghe, V. G. Zakrzewski, J. Gao, N. Rega, 
 G. Zheng, W. Liang, M. Hada, M. Ehara, K. Toyota, R. Fukuda, 
 J. Hasegawa, M. Ishida, T. Nakajima, Y. Honda, O. Kitao, H. Nakai, 
 T. Vreven, K. Throssell, J. A. Montgomery, Jr., J. E. Peralta, 
 F. Ogliaro, M. J. Bearpark, J. J. Heyd, E. N. Brothers, K. N. Kudin, 
 V. N. Staroverov, T. A. Keith, R. Kobayashi, J. Normand, 
 K. Raghavachari, A. P. Rendell, J. C. Burant, S. S. Iyengar, 
 J. Tomasi, M. Cossi, J. M. Millam, M. Klene, C. Adamo, R. Cammi, 
 J. W. Ochterski, R. L. Martin, K. Morokuma, O. Farkas, 
 J. B. Foresman, and D. J. Fox, Gaussian, Inc., Wallingford CT, 2016.
 
 ******************************************
 Gaussian 16:  ES64L-G16RevA.03 25-Dec-2016
                11-Sep-2021 
 ******************************************
 %nproc=24
 Will use up to   24 processors via shared memory.
 %mem=175gb
 -----------------------------------
 #p cam-b3lyp/Def2SVP td=(nstates=5)
 -----------------------------------
 1/38=1,172=1/1;
 2/12=2,17=6,18=5,40=1/2;
 3/5=43,7=101,11=9,25=1,30=1,74=-40/1,2,3,8;
 4//1;
 5/5=2,38=5/2;
 8/6=1,10=1,108=5/1;
 9/41=5,42=1,70=2/14;
 6/7=2,8=2,9=2,10=2/1;
 99/5=1,9=1/99;
 Leave Link    1 at Sat Sep 11 10:17:45 2021, MaxMem= 23488102400 cpu:               0.9 elap:               0.0
 (Enter /sw/apps/gaussian-16.0/g16/l101.exe)
 --------------------------------
 TDDFT excited states in gaussian
 --------------------------------
 Symbolic Z-matrix:
 Charge =  0 Multiplicity = 1
 Mg                    0.        0.        0. 
 C                    -0.217    -2.218     2.801 
 C                    -1.255     2.442     2.026 
 C                    -0.245     1.85     -2.564 
 C                     0.146    -2.824    -2.037 
 N                    -0.617    -0.009     2.126 
 C                    -0.594    -0.908     3.105 
 C                    -0.936    -0.309     4.502 
 C                    -1.773     0.964     4.032 
 C                    -1.155     1.168     2.66 
 C                    -3.263     0.685     3.863 
 C                     0.345     0.11      5.299 
 C                     0.124     0.397     6.787 
 H                     1.168     0.033     7.733 
 N                    -0.185     1.961    -0.152 
 C                    -0.703     2.8       0.777 
 C                    -0.62      4.156     0.193 
 C                    -0.187     4.015    -1.225 
 C                    -0.214     2.583    -1.38 
 C                    -0.887     5.406     0.974 
 C                     0.181     5.013    -2.277 
 O                     0.303     4.69     -3.508 
 C                     0.31      6.414    -1.837 
 N                    -0.265    -0.413    -2.029 
 C                    -0.279     0.569    -2.937 
 C                    -0.196     0.024    -4.332 
 C                     0.124    -1.533    -4.18 
 C                     0.086    -1.632    -2.635 
 C                    -1.451     0.205    -5.197 
 C                     1.373    -2.07     -4.923 
 C                     2.626    -1.49     -4.306 
 N                     0.15     -2.144     0.303 
 C                     0.173    -3.136    -0.688 
 C                     0.173    -4.438     0.004 
 C                     0.133    -4.111     1.358 
 C                     0.083    -2.695     1.502 
 C                     0.149    -5.715    -0.623 
 C                     0.096    -4.629     2.716 
 O                     0.208    -5.747     3.221 
 C                    -0.255    -3.428     3.701 
 C                     0.717    -3.482     4.848 
 O                     1.931    -3.255     4.669 
 O                     0.038    -3.556     6.003 
 C                     0.943    -3.583     7.183 
 H                    -1.859     3.22      2.497 
 H                    -0.218     2.453    -3.474 
 H                     0.276    -3.747    -2.605 
 H                    -1.554    -0.949     5.132 
 H                    -1.585     1.831     4.665 
 H                    -3.484    -0.377     3.969 
 H                    -3.511     1.027     2.858 
 H                    -3.852     1.301     4.543 
 H                     0.669     1.096     4.966 
 H                     1.13     -0.639     5.189 
 H                    -0.844     0.026     7.125 
 H                     0.062     1.477     6.921 
 H                    -1.344     5.186     1.938 
 H                    -1.651     5.963     0.432 
 H                     0.007     6.02      1.084 
 H                    -0.635     6.744    -1.405 
 H                     0.665     6.97     -2.704 
 H                     1.048     6.466    -1.036 
 H                     0.608     0.501    -4.891 
 H                    -0.692    -2.156    -4.547 
 H                    -1.267     0.74     -6.129 
 H                    -2.204     0.714    -4.596 
 H                    -1.967    -0.72     -5.453 
 H                     1.356    -1.759    -5.967 
 H                     1.452    -3.157    -4.902 
 H                     2.714    -0.522    -4.798 
 H                     3.487    -2.121    -4.529 
 H                     2.495    -1.303    -3.24 
 H                     0.867    -6.333    -0.084 
 H                     0.404    -5.642    -1.68 
 H                    -0.891    -5.999    -0.463 
 H                    -1.283    -3.581     4.028 
 H                     0.698    -4.478     7.755 
 H                     0.833    -2.619     7.68 
 H                     2.       -3.754     6.976 
 Mg                    13.12999   1.18633   1.00321 
 C                     10.87887  -1.56679   0.52169 
 C                     10.84715   3.14109  -0.60991 
 C                     15.27484   3.5245    1.01045 
 C                     15.65858  -1.15358   1.52928 
 N                     11.15518   0.73085   0.11727 
 C                     10.3749  -0.33724   0.04878 
 C                     8.94553  -0.05624  -0.48743 
 C                     9.25963   1.28028  -1.32046 
 C                     10.47587   1.77457  -0.54 
 C                     9.68897   1.0097   -2.75286 
 C                     7.91686   0.21431   0.66611 
 C                     6.44822   0.19018   0.23685 
 H                     5.45871  -0.33997   1.17082 
 N                     12.89922   3.14155   0.75335 
 C                     11.90245   3.76519   0.09093 
 C                     12.20033   5.20326   0.17693 
 C                     13.54068   5.36808   0.80225 
 C                     13.97536   3.98692   0.86191 
 C                     11.22088   6.26324  -0.23603 
 C                     14.30993   6.57093   1.25788 
 O                     15.55505   6.50145   1.55398 
 C                     13.58623   7.85067   1.25769 
 N                     15.20889   1.1926    1.02584 
 C                     15.89619   2.34701   1.07942 
 C                     17.35816   2.0987    1.36467 
 C                     17.4664   0.54618   1.73284 
 C                     15.99806   0.12784   1.49967 
 C                     18.32251   2.41913   0.22285 
 C                     18.12974   0.18962   3.09134 
 C                     17.25542   0.65937   4.23165 
 N                     13.24316  -0.96125   1.21093 
 C                     14.40599  -1.73982   1.4 
 C                     13.99089  -3.15724   1.36783 
 C                     12.60788  -3.10507   1.13747 
 C                     12.1938  -1.75133   1.01329 
 C                     14.85638  -4.28054   1.49131 
 C                     11.40586  -3.88772   0.96053 
 O                     11.12645  -5.08265   1.0488 
 C                     10.25372  -2.93098   0.42799 
 C                     9.01795  -3.19296   1.24454 
 O                     8.99329  -2.92274   2.4582 
 O                     8.00446  -3.51341   0.41961 
 C                     6.75394  -3.77155   1.18209 
 H                     10.30654   3.79103  -1.29853 
 H                     16.03916   4.29598   1.12915 
 H                     16.3718  -1.94071   1.78309 
 H                     8.54896  -0.82001  -1.14558 
 H                     8.44288   1.9935   -1.24555 
 H                     9.82644  -0.04495  -2.93986 
 H                     10.62154   1.54226  -2.88602 
 H                     8.98012   1.464    -3.45106 
 H                     8.00253   1.26139   0.98396 
 H                     8.0671   -0.46957   1.47873 
 H                     6.31642  -0.25546  -0.75662 
 H                     6.10501   1.22054   0.11609 
 H                     10.38814   5.8395   -0.81082 
 H                     11.73758   6.91628  -0.94766 
 H                     10.87114   6.86458   0.60584 
 H                     13.22735   8.06245   0.25329 
 H                     14.27361   8.57518   1.69869 
 H                     12.69987   7.75144   1.89419 
 H                     17.69184   2.68491   2.21209 
 H                     18.07085  -0.00566   0.99802 
 H                     19.10511   3.14879   0.50429 
 H                     17.74714   2.78386  -0.61766 
 H                     18.83502   1.55869  -0.20398 
 H                     19.08359   0.7125    3.19583 
 H                     18.32881  -0.87025   3.20982 
 H                     17.52817   1.71404   4.33346 
 H                     17.47975   0.10419   5.14021 
 H                     16.19492   0.61815   3.95726 
 H                     14.36534  -4.98055   2.15416 
 H                     15.83331  -3.98979   1.87191 
 H                     14.90245  -4.60678   0.44886 
 H                     10.10211  -3.15717  -0.62815 
 H                     6.40944  -4.77173   0.90165 
 H                     6.08212  -2.9239    0.94995 
 H                     6.83436  -3.86962   2.25837 
 
 ITRead=  0  0  0  0  0  0  0  0  0  0  0  0  0  0  0  0  0  0  0  0
 ITRead=  0  0  0  0  0  0  0  0  0  0  0  0  0  0  0  0  0  0  0  0
 ITRead=  0  0  0  0  0  0  0  0  0  0  0  0  0  0  0  0  0  0  0  0
 ITRead=  0  0  0  0  0  0  0  0  0  0  0  0  0  0  0  0  0  0  0  0
 ITRead=  0  0  0  0  0  0  0  0  0  0  0  0  0  0  0  0  0  0  0  0
 ITRead=  0  0  0  0  0  0  0  0  0  0  0  0  0  0  0  0  0  0  0  0
 ITRead=  0  0  0  0  0  0  0  0  0  0  0  0  0  0  0  0  0  0  0  0
 ITRead=  0  0  0  0  0  0  0  0  0  0  0  0  0  0  0  0  0  0
 MicOpt= -1 -1 -1 -1 -1 -1 -1 -1 -1 -1 -1 -1 -1 -1 -1 -1 -1 -1 -1 -1
 MicOpt= -1 -1 -1 -1 -1 -1 -1 -1 -1 -1 -1 -1 -1 -1 -1 -1 -1 -1 -1 -1
 MicOpt= -1 -1 -1 -1 -1 -1 -1 -1 -1 -1 -1 -1 -1 -1 -1 -1 -1 -1 -1 -1
 MicOpt= -1 -1 -1 -1 -1 -1 -1 -1 -1 -1 -1 -1 -1 -1 -1 -1 -1 -1 -1 -1
 MicOpt= -1 -1 -1 -1 -1 -1 -1 -1 -1 -1 -1 -1 -1 -1 -1 -1 -1 -1 -1 -1
 MicOpt= -1 -1 -1 -1 -1 -1 -1 -1 -1 -1 -1 -1 -1 -1 -1 -1 -1 -1 -1 -1
 MicOpt= -1 -1 -1 -1 -1 -1 -1 -1 -1 -1 -1 -1 -1 -1 -1 -1 -1 -1 -1 -1
 MicOpt= -1 -1 -1 -1 -1 -1 -1 -1 -1 -1 -1 -1 -1 -1 -1 -1 -1 -1
 NAtoms=    158 NQM=      158 NQMF=       0 NMMI=      0 NMMIF=      0
                NMic=       0 NMicF=      0.
                    Isotopes and Nuclear Properties:
 (Nuclear quadrupole moments (NQMom) in fm**2, nuclear magnetic moments (NMagM)
  in nuclear magnetons)

  Atom         1           2           3           4           5           6           7           8           9          10
 IAtWgt=          24          12          12          12          12          14          12          12          12          12
 AtmWgt=  23.9850450  12.0000000  12.0000000  12.0000000  12.0000000  14.0030740  12.0000000  12.0000000  12.0000000  12.0000000
 NucSpn=           0           0           0           0           0           2           0           0           0           0
 AtZEff=  -0.0000000  -0.0000000  -0.0000000  -0.0000000  -0.0000000  -0.0000000  -0.0000000  -0.0000000  -0.0000000  -0.0000000
 NQMom=    0.0000000   0.0000000   0.0000000   0.0000000   0.0000000   2.0440000   0.0000000   0.0000000   0.0000000   0.0000000
 NMagM=    0.0000000   0.0000000   0.0000000   0.0000000   0.0000000   0.4037610   0.0000000   0.0000000   0.0000000   0.0000000
 AtZNuc=  12.0000000   6.0000000   6.0000000   6.0000000   6.0000000   7.0000000   6.0000000   6.0000000   6.0000000   6.0000000

  Atom        11          12          13          14          15          16          17          18          19          20
 IAtWgt=          12          12          12           1          14          12          12          12          12          12
 AtmWgt=  12.0000000  12.0000000  12.0000000   1.0078250  14.0030740  12.0000000  12.0000000  12.0000000  12.0000000  12.0000000
 NucSpn=           0           0           0           1           2           0           0           0           0           0
 AtZEff=  -0.0000000  -0.0000000  -0.0000000  -0.0000000  -0.0000000  -0.0000000  -0.0000000  -0.0000000  -0.0000000  -0.0000000
 NQMom=    0.0000000   0.0000000   0.0000000   0.0000000   2.0440000   0.0000000   0.0000000   0.0000000   0.0000000   0.0000000
 NMagM=    0.0000000   0.0000000   0.0000000   2.7928460   0.4037610   0.0000000   0.0000000   0.0000000   0.0000000   0.0000000
 AtZNuc=   6.0000000   6.0000000   6.0000000   1.0000000   7.0000000   6.0000000   6.0000000   6.0000000   6.0000000   6.0000000

  Atom        21          22          23          24          25          26          27          28          29          30
 IAtWgt=          12          16          12          14          12          12          12          12          12          12
 AtmWgt=  12.0000000  15.9949146  12.0000000  14.0030740  12.0000000  12.0000000  12.0000000  12.0000000  12.0000000  12.0000000
 NucSpn=           0           0           0           2           0           0           0           0           0           0
 AtZEff=  -0.0000000  -0.0000000  -0.0000000  -0.0000000  -0.0000000  -0.0000000  -0.0000000  -0.0000000  -0.0000000  -0.0000000
 NQMom=    0.0000000   0.0000000   0.0000000   2.0440000   0.0000000   0.0000000   0.0000000   0.0000000   0.0000000   0.0000000
 NMagM=    0.0000000   0.0000000   0.0000000   0.4037610   0.0000000   0.0000000   0.0000000   0.0000000   0.0000000   0.0000000
 AtZNuc=   6.0000000   8.0000000   6.0000000   7.0000000   6.0000000   6.0000000   6.0000000   6.0000000   6.0000000   6.0000000

  Atom        31          32          33          34          35          36          37          38          39          40
 IAtWgt=          12          14          12          12          12          12          12          12          16          12
 AtmWgt=  12.0000000  14.0030740  12.0000000  12.0000000  12.0000000  12.0000000  12.0000000  12.0000000  15.9949146  12.0000000
 NucSpn=           0           2           0           0           0           0           0           0           0           0
 AtZEff=  -0.0000000  -0.0000000  -0.0000000  -0.0000000  -0.0000000  -0.0000000  -0.0000000  -0.0000000  -0.0000000  -0.0000000
 NQMom=    0.0000000   2.0440000   0.0000000   0.0000000   0.0000000   0.0000000   0.0000000   0.0000000   0.0000000   0.0000000
 NMagM=    0.0000000   0.4037610   0.0000000   0.0000000   0.0000000   0.0000000   0.0000000   0.0000000   0.0000000   0.0000000
 AtZNuc=   6.0000000   7.0000000   6.0000000   6.0000000   6.0000000   6.0000000   6.0000000   6.0000000   8.0000000   6.0000000

  Atom        41          42          43          44          45          46          47          48          49          50
 IAtWgt=          12          16          16          12           1           1           1           1           1           1
 AtmWgt=  12.0000000  15.9949146  15.9949146  12.0000000   1.0078250   1.0078250   1.0078250   1.0078250   1.0078250   1.0078250
 NucSpn=           0           0           0           0           1           1           1           1           1           1
 AtZEff=  -0.0000000  -0.0000000  -0.0000000  -0.0000000  -0.0000000  -0.0000000  -0.0000000  -0.0000000  -0.0000000  -0.0000000
 NQMom=    0.0000000   0.0000000   0.0000000   0.0000000   0.0000000   0.0000000   0.0000000   0.0000000   0.0000000   0.0000000
 NMagM=    0.0000000   0.0000000   0.0000000   0.0000000   2.7928460   2.7928460   2.7928460   2.7928460   2.7928460   2.7928460
 AtZNuc=   6.0000000   8.0000000   8.0000000   6.0000000   1.0000000   1.0000000   1.0000000   1.0000000   1.0000000   1.0000000

  Atom        51          52          53          54          55          56          57          58          59          60
 IAtWgt=           1           1           1           1           1           1           1           1           1           1
 AtmWgt=   1.0078250   1.0078250   1.0078250   1.0078250   1.0078250   1.0078250   1.0078250   1.0078250   1.0078250   1.0078250
 NucSpn=           1           1           1           1           1           1           1           1           1           1
 AtZEff=  -0.0000000  -0.0000000  -0.0000000  -0.0000000  -0.0000000  -0.0000000  -0.0000000  -0.0000000  -0.0000000  -0.0000000
 NQMom=    0.0000000   0.0000000   0.0000000   0.0000000   0.0000000   0.0000000   0.0000000   0.0000000   0.0000000   0.0000000
 NMagM=    2.7928460   2.7928460   2.7928460   2.7928460   2.7928460   2.7928460   2.7928460   2.7928460   2.7928460   2.7928460
 AtZNuc=   1.0000000   1.0000000   1.0000000   1.0000000   1.0000000   1.0000000   1.0000000   1.0000000   1.0000000   1.0000000

  Atom        61          62          63          64          65          66          67          68          69          70
 IAtWgt=           1           1           1           1           1           1           1           1           1           1
 AtmWgt=   1.0078250   1.0078250   1.0078250   1.0078250   1.0078250   1.0078250   1.0078250   1.0078250   1.0078250   1.0078250
 NucSpn=           1           1           1           1           1           1           1           1           1           1
 AtZEff=  -0.0000000  -0.0000000  -0.0000000  -0.0000000  -0.0000000  -0.0000000  -0.0000000  -0.0000000  -0.0000000  -0.0000000
 NQMom=    0.0000000   0.0000000   0.0000000   0.0000000   0.0000000   0.0000000   0.0000000   0.0000000   0.0000000   0.0000000
 NMagM=    2.7928460   2.7928460   2.7928460   2.7928460   2.7928460   2.7928460   2.7928460   2.7928460   2.7928460   2.7928460
 AtZNuc=   1.0000000   1.0000000   1.0000000   1.0000000   1.0000000   1.0000000   1.0000000   1.0000000   1.0000000   1.0000000

  Atom        71          72          73          74          75          76          77          78          79          80
 IAtWgt=           1           1           1           1           1           1           1           1           1          24
 AtmWgt=   1.0078250   1.0078250   1.0078250   1.0078250   1.0078250   1.0078250   1.0078250   1.0078250   1.0078250  23.9850450
 NucSpn=           1           1           1           1           1           1           1           1           1           0
 AtZEff=  -0.0000000  -0.0000000  -0.0000000  -0.0000000  -0.0000000  -0.0000000  -0.0000000  -0.0000000  -0.0000000  -0.0000000
 NQMom=    0.0000000   0.0000000   0.0000000   0.0000000   0.0000000   0.0000000   0.0000000   0.0000000   0.0000000   0.0000000
 NMagM=    2.7928460   2.7928460   2.7928460   2.7928460   2.7928460   2.7928460   2.7928460   2.7928460   2.7928460   0.0000000
 AtZNuc=   1.0000000   1.0000000   1.0000000   1.0000000   1.0000000   1.0000000   1.0000000   1.0000000   1.0000000  12.0000000

  Atom        81          82          83          84          85          86          87          88          89          90
 IAtWgt=          12          12          12          12          14          12          12          12          12          12
 AtmWgt=  12.0000000  12.0000000  12.0000000  12.0000000  14.0030740  12.0000000  12.0000000  12.0000000  12.0000000  12.0000000
 NucSpn=           0           0           0           0           2           0           0           0           0           0
 AtZEff=  -0.0000000  -0.0000000  -0.0000000  -0.0000000  -0.0000000  -0.0000000  -0.0000000  -0.0000000  -0.0000000  -0.0000000
 NQMom=    0.0000000   0.0000000   0.0000000   0.0000000   2.0440000   0.0000000   0.0000000   0.0000000   0.0000000   0.0000000
 NMagM=    0.0000000   0.0000000   0.0000000   0.0000000   0.4037610   0.0000000   0.0000000   0.0000000   0.0000000   0.0000000
 AtZNuc=   6.0000000   6.0000000   6.0000000   6.0000000   7.0000000   6.0000000   6.0000000   6.0000000   6.0000000   6.0000000

  Atom        91          92          93          94          95          96          97          98          99         100
 IAtWgt=          12          12           1          14          12          12          12          12          12          12
 AtmWgt=  12.0000000  12.0000000   1.0078250  14.0030740  12.0000000  12.0000000  12.0000000  12.0000000  12.0000000  12.0000000
 NucSpn=           0           0           1           2           0           0           0           0           0           0
 AtZEff=  -0.0000000  -0.0000000  -0.0000000  -0.0000000  -0.0000000  -0.0000000  -0.0000000  -0.0000000  -0.0000000  -0.0000000
 NQMom=    0.0000000   0.0000000   0.0000000   2.0440000   0.0000000   0.0000000   0.0000000   0.0000000   0.0000000   0.0000000
 NMagM=    0.0000000   0.0000000   2.7928460   0.4037610   0.0000000   0.0000000   0.0000000   0.0000000   0.0000000   0.0000000
 AtZNuc=   6.0000000   6.0000000   1.0000000   7.0000000   6.0000000   6.0000000   6.0000000   6.0000000   6.0000000   6.0000000

  Atom       101         102         103         104         105         106         107         108         109         110
 IAtWgt=          16          12          14          12          12          12          12          12          12          12
 AtmWgt=  15.9949146  12.0000000  14.0030740  12.0000000  12.0000000  12.0000000  12.0000000  12.0000000  12.0000000  12.0000000
 NucSpn=           0           0           2           0           0           0           0           0           0           0
 AtZEff=  -0.0000000  -0.0000000  -0.0000000  -0.0000000  -0.0000000  -0.0000000  -0.0000000  -0.0000000  -0.0000000  -0.0000000
 NQMom=    0.0000000   0.0000000   2.0440000   0.0000000   0.0000000   0.0000000   0.0000000   0.0000000   0.0000000   0.0000000
 NMagM=    0.0000000   0.0000000   0.4037610   0.0000000   0.0000000   0.0000000   0.0000000   0.0000000   0.0000000   0.0000000
 AtZNuc=   8.0000000   6.0000000   7.0000000   6.0000000   6.0000000   6.0000000   6.0000000   6.0000000   6.0000000   6.0000000

  Atom       111         112         113         114         115         116         117         118         119         120
 IAtWgt=          14          12          12          12          12          12          12          16          12          12
 AtmWgt=  14.0030740  12.0000000  12.0000000  12.0000000  12.0000000  12.0000000  12.0000000  15.9949146  12.0000000  12.0000000
 NucSpn=           2           0           0           0           0           0           0           0           0           0
 AtZEff=  -0.0000000  -0.0000000  -0.0000000  -0.0000000  -0.0000000  -0.0000000  -0.0000000  -0.0000000  -0.0000000  -0.0000000
 NQMom=    2.0440000   0.0000000   0.0000000   0.0000000   0.0000000   0.0000000   0.0000000   0.0000000   0.0000000   0.0000000
 NMagM=    0.4037610   0.0000000   0.0000000   0.0000000   0.0000000   0.0000000   0.0000000   0.0000000   0.0000000   0.0000000
 AtZNuc=   7.0000000   6.0000000   6.0000000   6.0000000   6.0000000   6.0000000   6.0000000   8.0000000   6.0000000   6.0000000

  Atom       121         122         123         124         125         126         127         128         129         130
 IAtWgt=          16          16          12           1           1           1           1           1           1           1
 AtmWgt=  15.9949146  15.9949146  12.0000000   1.0078250   1.0078250   1.0078250   1.0078250   1.0078250   1.0078250   1.0078250
 NucSpn=           0           0           0           1           1           1           1           1           1           1
 AtZEff=  -0.0000000  -0.0000000  -0.0000000  -0.0000000  -0.0000000  -0.0000000  -0.0000000  -0.0000000  -0.0000000  -0.0000000
 NQMom=    0.0000000   0.0000000   0.0000000   0.0000000   0.0000000   0.0000000   0.0000000   0.0000000   0.0000000   0.0000000
 NMagM=    0.0000000   0.0000000   0.0000000   2.7928460   2.7928460   2.7928460   2.7928460   2.7928460   2.7928460   2.7928460
 AtZNuc=   8.0000000   8.0000000   6.0000000   1.0000000   1.0000000   1.0000000   1.0000000   1.0000000   1.0000000   1.0000000

  Atom       131         132         133         134         135         136         137         138         139         140
 IAtWgt=           1           1           1           1           1           1           1           1           1           1
 AtmWgt=   1.0078250   1.0078250   1.0078250   1.0078250   1.0078250   1.0078250   1.0078250   1.0078250   1.0078250   1.0078250
 NucSpn=           1           1           1           1           1           1           1           1           1           1
 AtZEff=  -0.0000000  -0.0000000  -0.0000000  -0.0000000  -0.0000000  -0.0000000  -0.0000000  -0.0000000  -0.0000000  -0.0000000
 NQMom=    0.0000000   0.0000000   0.0000000   0.0000000   0.0000000   0.0000000   0.0000000   0.0000000   0.0000000   0.0000000
 NMagM=    2.7928460   2.7928460   2.7928460   2.7928460   2.7928460   2.7928460   2.7928460   2.7928460   2.7928460   2.7928460
 AtZNuc=   1.0000000   1.0000000   1.0000000   1.0000000   1.0000000   1.0000000   1.0000000   1.0000000   1.0000000   1.0000000

  Atom       141         142         143         144         145         146         147         148         149         150
 IAtWgt=           1           1           1           1           1           1           1           1           1           1
 AtmWgt=   1.0078250   1.0078250   1.0078250   1.0078250   1.0078250   1.0078250   1.0078250   1.0078250   1.0078250   1.0078250
 NucSpn=           1           1           1           1           1           1           1           1           1           1
 AtZEff=  -0.0000000  -0.0000000  -0.0000000  -0.0000000  -0.0000000  -0.0000000  -0.0000000  -0.0000000  -0.0000000  -0.0000000
 NQMom=    0.0000000   0.0000000   0.0000000   0.0000000   0.0000000   0.0000000   0.0000000   0.0000000   0.0000000   0.0000000
 NMagM=    2.7928460   2.7928460   2.7928460   2.7928460   2.7928460   2.7928460   2.7928460   2.7928460   2.7928460   2.7928460
 AtZNuc=   1.0000000   1.0000000   1.0000000   1.0000000   1.0000000   1.0000000   1.0000000   1.0000000   1.0000000   1.0000000

  Atom       151         152         153         154         155         156         157         158
 IAtWgt=           1           1           1           1           1           1           1           1
 AtmWgt=   1.0078250   1.0078250   1.0078250   1.0078250   1.0078250   1.0078250   1.0078250   1.0078250
 NucSpn=           1           1           1           1           1           1           1           1
 AtZEff=  -0.0000000  -0.0000000  -0.0000000  -0.0000000  -0.0000000  -0.0000000  -0.0000000  -0.0000000
 NQMom=    0.0000000   0.0000000   0.0000000   0.0000000   0.0000000   0.0000000   0.0000000   0.0000000
 NMagM=    2.7928460   2.7928460   2.7928460   2.7928460   2.7928460   2.7928460   2.7928460   2.7928460
 AtZNuc=   1.0000000   1.0000000   1.0000000   1.0000000   1.0000000   1.0000000   1.0000000   1.0000000
 Leave Link  101 at Sat Sep 11 10:17:45 2021, MaxMem= 23488102400 cpu:               3.1 elap:               0.2
 (Enter /sw/apps/gaussian-16.0/g16/l202.exe)
 Stoichiometry    C68H72Mg2N8O8
 Framework group  C1[X(C68H72Mg2N8O8)]
 Deg. of freedom   468
 Full point group                 C1      NOp   1
 Largest Abelian subgroup         C1      NOp   1
 Largest concise Abelian subgroup C1      NOp   1
                         Standard orientation:                         
 ---------------------------------------------------------------------
 Center     Atomic      Atomic             Coordinates (Angstroms)
 Number     Number       Type             X           Y           Z
 ---------------------------------------------------------------------
      1         12           0       -6.217657    0.808995   -0.303512
      2          6           0       -6.633691   -2.304266    1.413094
      3          6           0       -7.114934    2.359647    2.600526
      4          6           0       -6.298997    3.539654   -1.913950
      5          6           0       -6.467599   -0.972481   -3.288396
      6          7           0       -6.778129    0.019374    1.687220
      7          6           0       -6.840547   -1.191741    2.231717
      8          6           0       -7.072169   -1.165369    3.772182
      9          6           0       -7.759197    0.267783    3.898939
     10          6           0       -7.155229    0.935681    2.676213
     11          6           0       -9.275829    0.232547    3.740552
     12          6           0       -5.730244   -1.230537    4.576371
     13          6           0       -5.877570   -1.537219    6.069554
     14          1           0       -4.862532   -2.351507    6.720694
     15          7           0       -6.165993    2.676776    0.338031
     16          6           0       -6.554627    3.125884    1.555631
     17          6           0       -6.321517    4.586099    1.544917
     18          6           0       -5.944304    4.976495    0.158052
     19          6           0       -6.149476    3.734762   -0.542935
     20          6           0       -6.414686    5.443218    2.769831
     21          6           0       -5.483670    6.266982   -0.442442
     22          8           0       -5.432576    6.448862   -1.706911
     23          6           0       -5.173985    7.356834    0.500618
     24          7           0       -6.581358    1.265243   -2.307806
     25          6           0       -6.498129    2.522939   -2.755308
     26          6           0       -6.516865    2.571462   -4.254385
     27          6           0       -6.385338    1.058368   -4.747335
     28          6           0       -6.396714    0.358316   -3.366006
     29          6           0       -7.761554    3.208213   -4.887873
     30          6           0       -5.229951    0.736201   -5.728002
     31          6           0       -3.900659    0.892221   -5.023915
     32          7           0       -6.322600   -1.282091   -0.875694
     33          6           0       -6.445310   -1.795587   -2.174900
     34          6           0       -6.586800   -3.257919   -2.049861
     35          6           0       -6.552986   -3.493373   -0.676812
     36          6           0       -6.426439   -2.254004    0.013290
     37          6           0       -6.781834   -4.171123   -3.123384
     38          6           0       -6.619084   -4.501403    0.368829
     39          8           0       -6.631665   -5.733079    0.386400
     40          6           0       -6.796504   -3.761423    1.767678
     41          6           0       -5.810130   -4.365458    2.729715
     42          8           0       -4.582340   -4.211256    2.568100
     43          8           0       -6.464172   -4.822375    3.808602
     44          6           0       -5.540167   -5.408053    4.816248
     45          1           0       -7.607717    2.943807    3.380183
     46          1           0       -6.221328    4.448293   -2.514600
     47          1           0       -6.465218   -1.601974   -4.180128
     48          1           0       -7.747716   -1.936213    4.143475
     49          1           0       -7.451257    0.787924    4.805773
     50          1           0       -9.621914   -0.755588    3.437672
     51          1           0       -9.505196    0.968946    2.970097
     52          1           0       -9.768279    0.584414    4.647448
     53          1           0       -5.296863   -0.232074    4.633921
     54          1           0       -5.045361   -1.950105    4.126390
     55          1           0       -6.874870   -1.911019    6.303169
     56          1           0       -5.804129   -0.599101    6.619773
     57          1           0       -6.870994    4.906341    3.600548
     58          1           0       -7.118336    6.244489    2.544993
     59          1           0       -5.450062    5.868265    3.047622
     60          1           0       -6.060690    7.582696    1.093314
     61          1           0       -4.775523    8.172045   -0.102299
     62          1           0       -4.415473    7.010785    1.203369
     63          1           0       -5.674864    3.146457   -4.637586
     64          1           0       -7.280052    0.719225   -5.269966
     65          1           0       -7.536939    4.047544   -5.546491
     66          1           0       -8.431734    3.510610   -4.083693
     67          1           0       -8.392647    2.518921   -5.448244
     68          1           0       -5.234859    1.436235   -6.562792
     69          1           0       -5.283525   -0.271600   -6.139972
     70          1           0       -3.707591    1.961511   -5.102508
     71          1           0       -3.128793    0.317398   -5.536762
     72          1           0       -3.981359    0.652757   -3.963429
     73          1           0       -6.131337   -5.022141   -2.921914
     74          1           0       -6.546185   -3.710759   -4.082622
     75          1           0       -7.844395   -4.387528   -3.013886
     76          1           0       -7.827041   -3.925902    2.080824
     77          1           0       -5.878131   -6.426511    5.007975
     78          1           0       -5.519471   -4.715008    5.657476
     79          1           0       -4.517361   -5.589698    4.484265
     80         12           0        6.979883    0.152200    0.148167
     81          6           0        4.398732   -1.937729   -1.211588
     82          6           0        4.912928    2.808763   -0.404074
     83          6           0        9.393229    2.062895    0.917891
     84          6           0        9.216723   -2.448974   -0.465132
     85          7           0        4.942879    0.290247   -0.702590
     86          6           0        4.036779   -0.577046   -1.128182
     87          6           0        2.639433    0.038122   -1.408488
     88          6           0        3.093285    1.555887   -1.671717
     89          6           0        4.379719    1.572567   -0.848618
     90          6           0        3.450716    1.834194   -3.122270
     91          6           0        1.680393   -0.068275   -0.171178
     92          6           0        0.209550    0.230131   -0.470052
     93          1           0       -0.813679   -0.523331    0.249522
     94          7           0        6.982996    2.058248    0.700922
     95          6           0        6.053513    2.991887    0.408247
     96          6           0        6.526487    4.238910    1.029057
     97          6           0        7.892056    4.004045    1.572003
     98          6           0        8.156509    2.676294    1.055041
     99          6           0        5.673571    5.469663    1.134858
    100          6           0        8.813257    4.841609    2.406310
    101          8           0       10.047597    4.533532    2.562254
    102          6           0        8.251146    6.082744    2.958660
    103          7           0        9.043964   -0.063288    0.023630
    104          6           0        9.867956    0.898147    0.475951
    105          6           0       11.295397    0.409141    0.536508
    106          6           0       11.222727   -1.164108    0.258679
    107          6           0        9.709009   -1.303153   -0.014677
    108          6           0       12.262936    1.056450   -0.454077
    109          6           0       11.871218   -2.096587    1.318216
    110          6           0       11.089279   -2.031805    2.610416
    111          7           0        6.835591   -1.900549   -0.510209
    112          6           0        7.899198   -2.804439   -0.724254
    113          6           0        7.313768   -4.042042   -1.279263
    114          6           0        5.942133   -3.761786   -1.371875
    115          6           0        5.693175   -2.435520   -0.926304
    116          6           0        8.038699   -5.203938   -1.667329
    117          6           0        4.649662   -4.282619   -1.755221
    118          8           0        4.228979   -5.378988   -2.122264
    119          6           0        3.609842   -3.080902   -1.787273
    120          6           0        2.372032   -3.518005   -1.052916
    121          8           0        2.410658   -3.751072    0.168061
    122          8           0        1.306856   -3.379169   -1.863154
    123          6           0        0.053535   -3.789789   -1.175848
    124          1           0        4.438617    3.730229   -0.742907
    125          1           0       10.248590    2.641353    1.274542
    126          1           0        9.834777   -3.340488   -0.591181
    127          1           0        2.136499   -0.356588   -2.283152
    128          1           0        2.371666    2.260000   -1.265680
    129          1           0        3.453932    0.932542   -3.716549
    130          1           0        4.437642    2.277603   -3.102186
    131          1           0        2.785390    2.598206   -3.534539
    132          1           0        1.900913    0.751724    0.524320
    133          1           0        1.766310   -1.030096    0.295869
    134          1           0       -0.000229    0.231724   -1.546592
    135          1           0       -0.008417    1.252867   -0.153002
    136          1           0        4.781369    5.396493    0.500810
    137          1           0        6.248165    6.295164    0.700983
    138          1           0        5.420759    5.719445    2.167510
    139          1           0        7.895904    6.711457    2.145648
    140          1           0        9.032449    6.498208    3.598068
    141          1           0        7.375393    5.829920    3.566731
    142          1           0       11.718992    0.573154    1.519754
    143          1           0       11.736964   -1.437262   -0.674485
    144          1           0       13.135382    1.530264    0.034198
    145          1           0       11.715600    1.781667   -1.041461
    146          1           0       12.655989    0.388898   -1.218989
    147          1           0       12.883985   -1.758567    1.551019
    148          1           0       11.942511   -3.130617    0.997764
    149          1           0       11.490983   -1.138176    3.097394
    150          1           0       11.266781   -2.921915    3.210607
    151          1           0       10.025172   -1.852161    2.417922
    152          1           0        7.482629   -6.055523   -1.298420
    153          1           0        9.052937   -5.189653   -1.273753
    154          1           0        8.018743   -5.092151   -2.754694
    155          1           0        3.405596   -2.852247   -2.833973
    156          1           0       -0.417160   -4.555449   -1.800267
    157          1           0       -0.515526   -2.855911   -1.009165
    158          1           0        0.148124   -4.314916   -0.232578
 ---------------------------------------------------------------------
 Rotational constants (GHZ):           0.0263487           0.0083151           0.0075588
 Leave Link  202 at Sat Sep 11 10:17:45 2021, MaxMem= 23488102400 cpu:               0.2 elap:               0.0
 (Enter /sw/apps/gaussian-16.0/g16/l301.exe)
 Standard basis: def2SVP (5D, 7F)
 Ernie: Thresh=  0.10000D-02 Tol=  0.10000D-05 Strict=F.
 There are  1658 symmetry adapted cartesian basis functions of A   symmetry.
 There are  1572 symmetry adapted basis functions of A   symmetry.
  1572 basis functions,  2678 primitive gaussians,  1658 cartesian basis functions
   312 alpha electrons      312 beta electrons
       nuclear repulsion energy     14629.3312691489 Hartrees.
 IExCor=20419 DFT=T Ex+Corr=CAM-B3LYP ExCW=0 ScaHFX=  1.000000
 ScaDFX=  1.000000  1.000000  1.000000  0.810000 ScalE2=  1.000000  1.000000
 IRadAn=      5 IRanWt=     -1 IRanGd=            0 ICorTp=0 IEmpDi=  4
 HFx  wShort=  0.000000 wLong=  0.330000 cFull=  0.190000 cShort=  0.000000 cLong=  0.460000
 DFx  wShort=  0.000000 wLong=  0.330000 cFull=  0.190000 cShort=  0.000000 cLong=  0.460000
 NAtoms=  158 NActive=  158 NUniq=  158 SFac= 1.00D+00 NAtFMM=   60 NAOKFM=T Big=T
 Integral buffers will be    131072 words long.
 Raffenetti 1 integral format.
 Two-electron integral symmetry is turned on.
 Leave Link  301 at Sat Sep 11 10:17:45 2021, MaxMem= 23488102400 cpu:               1.4 elap:               0.1
 (Enter /sw/apps/gaussian-16.0/g16/l302.exe)
 NPDir=0 NMtPBC=     1 NCelOv=     1 NCel=       1 NClECP=     1 NCelD=      1
         NCelK=      1 NCelE2=     1 NClLst=     1 CellRange=     0.0.
 One-electron integrals computed using PRISM.
 One-electron integral symmetry used in STVInt
   1 Symmetry operations used in ECPInt.
 ECPInt:  NShTT=  271216 NPrTT=  987664 LenC2=  130171 LenP2D=  281038.
 LDataN:  DoStor=T MaxTD1= 4 Len=   56
 NBasis=  1572 RedAO= T EigKep=  3.36D-04  NBF=  1572
 NBsUse=  1572 1.00D-06 EigRej= -1.00D+00 NBFU=  1572
 Precomputing XC quadrature grid using
 IXCGrd= 4 IRadAn=           5 IRanWt=          -1 IRanGd=           0 AccXCQ= 0.00D+00.
 Generated NRdTot=       0 NPtTot=           0 NUsed=           0 NTot=          32
 NSgBfM=  1345  1316  1325  1332  1345 MxSgAt=   158 MxSgA2=   158.
 Leave Link  302 at Sat Sep 11 10:17:50 2021, MaxMem= 23488102400 cpu:             128.8 elap:               5.4
 (Enter /sw/apps/gaussian-16.0/g16/l303.exe)
 DipDrv:  MaxL=1.
 Leave Link  303 at Sat Sep 11 10:17:51 2021, MaxMem= 23488102400 cpu:               9.3 elap:               0.4
 (Enter /sw/apps/gaussian-16.0/g16/l308.exe)
 Leave Link  308 at Sat Sep 11 10:17:52 2021, MaxMem= 23488102400 cpu:              16.9 elap:               0.8
 (Enter /sw/apps/gaussian-16.0/g16/l401.exe)
 ExpMin= 3.36D-02 ExpMax= 4.95D+03 ExpMxC= 7.45D+02 IAcc=3 IRadAn=         5 AccDes= 0.00D+00
 Harris functional with IExCor=20419 and IRadAn=       5 diagonalized for initial guess.
 HarFok:  IExCor=20419 AccDes= 0.00D+00 IRadAn=         5 IDoV= 1 UseB2=F ITyADJ=14
 ICtDFT=  3500011 ScaDFX=  1.000000  1.000000  1.000000  1.000000
 FoFCou: FMM=F IPFlag=           0 FMFlag=      100000 FMFlg1=        2001
         NFxFlg=           0 DoJE=T BraDBF=F KetDBF=T FulRan=T
         wScrn=  0.000000 ICntrl=       500 IOpCl=  0 I1Cent=   200000004 NGrid=           0
         NMat0=    1 NMatS0=      1 NMatT0=    0 NMatD0=    1 NMtDS0=    0 NMtDT0=    0
 Petite list used in FoFCou.
 Harris En= -3918.65813627400    
 JPrj=0 DoOrth=F DoCkMO=F.
 Leave Link  401 at Sat Sep 11 10:17:59 2021, MaxMem= 23488102400 cpu:             175.7 elap:               7.4
 (Enter /sw/apps/gaussian-16.0/g16/l502.exe)
 Integral symmetry usage will be decided dynamically.
 Closed shell SCF:
 Using DIIS extrapolation, IDIIS=  1040.
 NGot= 23488102400 LenX= 23482547354 LenY= 23479796732
 Requested convergence on RMS density matrix=1.00D-08 within 128 cycles.
 Requested convergence on MAX density matrix=1.00D-06.
 Requested convergence on             energy=1.00D-06.
 No special actions if energy rises.
 Fock matrices will be formed incrementally for  20 cycles.

 Cycle   1  Pass 1  IDiag  1:
 FoFJK:  IHMeth= 1 ICntrl=       0 DoSepK=T KAlg= 0 I1Cent=           0 FoldK=F
 IRaf=         1 NMat=       1 IRICut=       1 DoRegI=T DoRafI=F ISym2E= 0 IDoP0=0 IntGTp=1.
 FoFCou: FMM=T IPFlag=           0 FMFlag=      100000 FMFlg1=        2001
         NFxFlg=           0 DoJE=T BraDBF=F KetDBF=F FulRan=T
         wScrn=  0.000000 ICntrl=       500 IOpCl=  0 I1Cent=           0 NGrid=           0
         NMat0=    1 NMatS0=      1 NMatT0=    0 NMatD0=    1 NMtDS0=    0 NMtDT0=    0
 Symmetry not used in FoFCou.
 FMM levels:  10  Number of levels for PrismC:   9
 E= -4068.94925752511    
 DIIS: error= 2.04D-02 at cycle   1 NSaved=   1.
 NSaved= 1 IEnMin= 1 EnMin= -4068.94925752511     IErMin= 1 ErrMin= 2.04D-02
 ErrMax= 2.04D-02  0.00D+00 EMaxC= 1.00D-01 BMatC= 1.69D+00 BMatP= 1.69D+00
 IDIUse=3 WtCom= 7.96D-01 WtEn= 2.04D-01
 Coeff-Com:  0.100D+01
 Coeff-En:   0.100D+01
 Coeff:      0.100D+01
 Gap=     0.120 Goal=   None    Shift=    0.000
 GapD=    0.120 DampG=1.000 DampE=0.500 DampFc=0.5000 IDamp=-1.
 Damping current iteration by 5.00D-01
 RMSDP=1.57D-03 MaxDP=1.34D-01              OVMax= 2.04D-01

 Cycle   2  Pass 1  IDiag  1:
 RMSU=  7.70D-04    CP:  9.82D-01
 E= -4069.33823468708     Delta-E=       -0.388977161972 Rises=F Damp=T
 DIIS: error= 1.27D-02 at cycle   2 NSaved=   2.
 NSaved= 2 IEnMin= 2 EnMin= -4069.33823468708     IErMin= 2 ErrMin= 1.27D-02
 ErrMax= 1.27D-02  0.00D+00 EMaxC= 1.00D-01 BMatC= 3.07D-01 BMatP= 1.69D+00
 IDIUse=3 WtCom= 8.73D-01 WtEn= 1.27D-01
 Coeff-Com: -0.213D+00 0.121D+01
 Coeff-En:   0.000D+00 0.100D+01
 Coeff:     -0.186D+00 0.119D+01
 Gap=     0.133 Goal=   None    Shift=    0.000
 RMSDP=7.65D-04 MaxDP=9.50D-02 DE=-3.89D-01 OVMax= 1.88D-01

 Cycle   3  Pass 1  IDiag  1:
 RMSU=  7.33D-04    CP:  9.68D-01  1.24D+00
 E= -4069.62801556476     Delta-E=       -0.289780877680 Rises=F Damp=F
 DIIS: error= 1.57D-02 at cycle   3 NSaved=   3.
 NSaved= 3 IEnMin= 3 EnMin= -4069.62801556476     IErMin= 2 ErrMin= 1.27D-02
 ErrMax= 1.57D-02  0.00D+00 EMaxC= 1.00D-01 BMatC= 2.02D-01 BMatP= 3.07D-01
 IDIUse=3 WtCom= 8.43D-01 WtEn= 1.57D-01
 Coeff-Com: -0.267D+00 0.651D+00 0.616D+00
 Coeff-En:   0.000D+00 0.000D+00 0.100D+01
 Coeff:     -0.225D+00 0.549D+00 0.676D+00
 Gap=     0.121 Goal=   None    Shift=    0.000
 RMSDP=5.09D-04 MaxDP=4.74D-02 DE=-2.90D-01 OVMax= 1.44D-01

 Cycle   4  Pass 1  IDiag  1:
 RMSU=  2.66D-04    CP:  9.65D-01  1.54D+00  5.06D-01
 E= -4069.76543294477     Delta-E=       -0.137417380010 Rises=F Damp=F
 DIIS: error= 7.28D-03 at cycle   4 NSaved=   4.
 NSaved= 4 IEnMin= 4 EnMin= -4069.76543294477     IErMin= 4 ErrMin= 7.28D-03
 ErrMax= 7.28D-03  0.00D+00 EMaxC= 1.00D-01 BMatC= 5.03D-02 BMatP= 2.02D-01
 IDIUse=3 WtCom= 9.27D-01 WtEn= 7.28D-02
 Coeff-Com: -0.109D+00 0.226D+00 0.408D+00 0.475D+00
 Coeff-En:   0.000D+00 0.000D+00 0.221D+00 0.779D+00
 Coeff:     -0.101D+00 0.209D+00 0.395D+00 0.497D+00
 Gap=     0.120 Goal=   None    Shift=    0.000
 RMSDP=2.01D-04 MaxDP=2.02D-02 DE=-1.37D-01 OVMax= 6.26D-02

 Cycle   5  Pass 1  IDiag  1:
 RMSU=  7.63D-05    CP:  9.65D-01  1.49D+00  6.89D-01  5.48D-01
 E= -4069.81093256710     Delta-E=       -0.045499622327 Rises=F Damp=F
 DIIS: error= 7.56D-04 at cycle   5 NSaved=   5.
 NSaved= 5 IEnMin= 5 EnMin= -4069.81093256710     IErMin= 5 ErrMin= 7.56D-04
 ErrMax= 7.56D-04  0.00D+00 EMaxC= 1.00D-01 BMatC= 1.18D-03 BMatP= 5.03D-02
 IDIUse=3 WtCom= 9.92D-01 WtEn= 7.56D-03
 Coeff-Com: -0.361D-01 0.709D-01 0.166D+00 0.251D+00 0.548D+00
 Coeff-En:   0.000D+00 0.000D+00 0.000D+00 0.000D+00 0.100D+01
 Coeff:     -0.359D-01 0.704D-01 0.165D+00 0.249D+00 0.552D+00
 Gap=     0.119 Goal=   None    Shift=    0.000
 RMSDP=4.17D-05 MaxDP=4.14D-03 DE=-4.55D-02 OVMax= 1.72D-02

 Cycle   6  Pass 1  IDiag  1:
 RMSU=  3.08D-05    CP:  9.64D-01  1.49D+00  6.81D-01  6.21D-01  7.52D-01
 E= -4069.81196511189     Delta-E=       -0.001032544795 Rises=F Damp=F
 DIIS: error= 2.11D-04 at cycle   6 NSaved=   6.
 NSaved= 6 IEnMin= 6 EnMin= -4069.81196511189     IErMin= 6 ErrMin= 2.11D-04
 ErrMax= 2.11D-04  0.00D+00 EMaxC= 1.00D-01 BMatC= 1.85D-04 BMatP= 1.18D-03
 IDIUse=3 WtCom= 9.98D-01 WtEn= 2.11D-03
 Coeff-Com:  0.208D-02-0.634D-02 0.120D-01 0.414D-01 0.309D+00 0.642D+00
 Coeff-En:   0.000D+00 0.000D+00 0.000D+00 0.000D+00 0.113D+00 0.887D+00
 Coeff:      0.208D-02-0.633D-02 0.119D-01 0.414D-01 0.309D+00 0.642D+00
 Gap=     0.120 Goal=   None    Shift=    0.000
 RMSDP=1.64D-05 MaxDP=1.22D-03 DE=-1.03D-03 OVMax= 7.40D-03

 Cycle   7  Pass 1  IDiag  1:
 RMSU=  1.09D-05    CP:  9.64D-01  1.49D+00  6.87D-01  6.20D-01  8.56D-01
                    CP:  7.37D-01
 E= -4069.81216482347     Delta-E=       -0.000199711572 Rises=F Damp=F
 DIIS: error= 8.88D-05 at cycle   7 NSaved=   7.
 NSaved= 7 IEnMin= 7 EnMin= -4069.81216482347     IErMin= 7 ErrMin= 8.88D-05
 ErrMax= 8.88D-05  0.00D+00 EMaxC= 1.00D-01 BMatC= 2.31D-05 BMatP= 1.85D-04
 IDIUse=1 WtCom= 1.00D+00 WtEn= 0.00D+00
 Coeff-Com:  0.449D-02-0.984D-02-0.878D-02-0.321D-02 0.107D+00 0.335D+00
 Coeff-Com:  0.575D+00
 Coeff:      0.449D-02-0.984D-02-0.878D-02-0.321D-02 0.107D+00 0.335D+00
 Coeff:      0.575D+00
 Gap=     0.120 Goal=   None    Shift=    0.000
 RMSDP=6.74D-06 MaxDP=1.12D-03 DE=-2.00D-04 OVMax= 3.41D-03

 Cycle   8  Pass 1  IDiag  1:
 RMSU=  4.77D-06    CP:  9.64D-01  1.50D+00  6.88D-01  6.25D-01  8.59D-01
                    CP:  8.66D-01  8.09D-01
 E= -4069.81219337118     Delta-E=       -0.000028547711 Rises=F Damp=F
 DIIS: error= 5.21D-05 at cycle   8 NSaved=   8.
 NSaved= 8 IEnMin= 8 EnMin= -4069.81219337118     IErMin= 8 ErrMin= 5.21D-05
 ErrMax= 5.21D-05  0.00D+00 EMaxC= 1.00D-01 BMatC= 4.97D-06 BMatP= 2.31D-05
 IDIUse=1 WtCom= 1.00D+00 WtEn= 0.00D+00
 Coeff-Com:  0.220D-02-0.436D-02-0.784D-02-0.122D-01-0.102D-01 0.349D-01
 Coeff-Com:  0.334D+00 0.663D+00
 Coeff:      0.220D-02-0.436D-02-0.784D-02-0.122D-01-0.102D-01 0.349D-01
 Coeff:      0.334D+00 0.663D+00
 Gap=     0.120 Goal=   None    Shift=    0.000
 RMSDP=3.33D-06 MaxDP=3.42D-04 DE=-2.85D-05 OVMax= 1.11D-03

 Cycle   9  Pass 1  IDiag  1:
 RMSU=  1.95D-06    CP:  9.64D-01  1.49D+00  6.88D-01  6.26D-01  8.76D-01
                    CP:  8.92D-01  1.00D+00  9.52D-01
 E= -4069.81220137125     Delta-E=       -0.000008000075 Rises=F Damp=F
 DIIS: error= 2.00D-05 at cycle   9 NSaved=   9.
 NSaved= 9 IEnMin= 9 EnMin= -4069.81220137125     IErMin= 9 ErrMin= 2.00D-05
 ErrMax= 2.00D-05  0.00D+00 EMaxC= 1.00D-01 BMatC= 7.27D-07 BMatP= 4.97D-06
 IDIUse=1 WtCom= 1.00D+00 WtEn= 0.00D+00
 Coeff-Com:  0.474D-03-0.789D-03-0.271D-02-0.611D-02-0.211D-01-0.395D-01
 Coeff-Com:  0.996D-01 0.330D+00 0.640D+00
 Coeff:      0.474D-03-0.789D-03-0.271D-02-0.611D-02-0.211D-01-0.395D-01
 Coeff:      0.996D-01 0.330D+00 0.640D+00
 Gap=     0.120 Goal=   None    Shift=    0.000
 RMSDP=1.45D-06 MaxDP=1.53D-04 DE=-8.00D-06 OVMax= 7.74D-04

 Cycle  10  Pass 1  IDiag  1:
 RMSU=  9.52D-07    CP:  9.64D-01  1.50D+00  6.88D-01  6.27D-01  8.80D-01
                    CP:  9.06D-01  1.05D+00  1.12D+00  1.06D+00
 E= -4069.81220304694     Delta-E=       -0.000001675686 Rises=F Damp=F
 DIIS: error= 1.02D-05 at cycle  10 NSaved=  10.
 NSaved=10 IEnMin=10 EnMin= -4069.81220304694     IErMin=10 ErrMin= 1.02D-05
 ErrMax= 1.02D-05  0.00D+00 EMaxC= 1.00D-01 BMatC= 1.74D-07 BMatP= 7.27D-07
 IDIUse=1 WtCom= 1.00D+00 WtEn= 0.00D+00
 Coeff-Com: -0.434D-03 0.909D-03 0.125D-02 0.113D-02-0.370D-02-0.314D-01
 Coeff-Com: -0.457D-01-0.764D-01 0.242D+00 0.912D+00
 Coeff:     -0.434D-03 0.909D-03 0.125D-02 0.113D-02-0.370D-02-0.314D-01
 Coeff:     -0.457D-01-0.764D-01 0.242D+00 0.912D+00
 Gap=     0.120 Goal=   None    Shift=    0.000
 RMSDP=1.26D-06 MaxDP=1.26D-04 DE=-1.68D-06 OVMax= 6.36D-04

 Cycle  11  Pass 1  IDiag  1:
 RMSU=  5.28D-07    CP:  9.64D-01  1.50D+00  6.88D-01  6.27D-01  8.82D-01
                    CP:  9.16D-01  1.10D+00  1.23D+00  1.40D+00  1.39D+00
 E= -4069.81220387743     Delta-E=       -0.000000830489 Rises=F Damp=F
 DIIS: error= 4.10D-06 at cycle  11 NSaved=  11.
 NSaved=11 IEnMin=11 EnMin= -4069.81220387743     IErMin=11 ErrMin= 4.10D-06
 ErrMax= 4.10D-06  0.00D+00 EMaxC= 1.00D-01 BMatC= 6.49D-08 BMatP= 1.74D-07
 IDIUse=1 WtCom= 1.00D+00 WtEn= 0.00D+00
 Coeff-Com: -0.333D-03 0.648D-03 0.135D-02 0.216D-02 0.457D-02-0.838D-02
 Coeff-Com: -0.421D-01-0.133D+00-0.350D-01 0.471D+00 0.738D+00
 Coeff:     -0.333D-03 0.648D-03 0.135D-02 0.216D-02 0.457D-02-0.838D-02
 Coeff:     -0.421D-01-0.133D+00-0.350D-01 0.471D+00 0.738D+00
 Gap=     0.120 Goal=   None    Shift=    0.000
 RMSDP=7.09D-07 MaxDP=6.22D-05 DE=-8.30D-07 OVMax= 3.95D-04

 Cycle  12  Pass 1  IDiag  1:
 RMSU=  2.67D-07    CP:  9.64D-01  1.50D+00  6.88D-01  6.27D-01  8.83D-01
                    CP:  9.19D-01  1.12D+00  1.30D+00  1.57D+00  1.79D+00
                    CP:  1.21D+00
 E= -4069.81220415849     Delta-E=       -0.000000281059 Rises=F Damp=F
 DIIS: error= 2.53D-06 at cycle  12 NSaved=  12.
 NSaved=12 IEnMin=12 EnMin= -4069.81220415849     IErMin=12 ErrMin= 2.53D-06
 ErrMax= 2.53D-06  0.00D+00 EMaxC= 1.00D-01 BMatC= 1.56D-08 BMatP= 6.49D-08
 IDIUse=1 WtCom= 1.00D+00 WtEn= 0.00D+00
 Coeff-Com:  0.204D-05-0.211D-04 0.175D-03 0.507D-03 0.341D-02 0.415D-02
 Coeff-Com:  0.348D-02-0.336D-01-0.706D-01-0.790D-01 0.241D+00 0.931D+00
 Coeff:      0.204D-05-0.211D-04 0.175D-03 0.507D-03 0.341D-02 0.415D-02
 Coeff:      0.348D-02-0.336D-01-0.706D-01-0.790D-01 0.241D+00 0.931D+00
 Gap=     0.120 Goal=   None    Shift=    0.000
 RMSDP=4.58D-07 MaxDP=3.12D-05 DE=-2.81D-07 OVMax= 2.64D-04

 Cycle  13  Pass 1  IDiag  1:
 RMSU=  1.69D-07    CP:  9.64D-01  1.50D+00  6.88D-01  6.27D-01  8.83D-01
                    CP:  9.19D-01  1.13D+00  1.33D+00  1.68D+00  2.02D+00
                    CP:  1.63D+00  1.29D+00
 E= -4069.81220425723     Delta-E=       -0.000000098746 Rises=F Damp=F
 DIIS: error= 1.37D-06 at cycle  13 NSaved=  13.
 NSaved=13 IEnMin=13 EnMin= -4069.81220425723     IErMin=13 ErrMin= 1.37D-06
 ErrMax= 1.37D-06  0.00D+00 EMaxC= 1.00D-01 BMatC= 8.69D-09 BMatP= 1.56D-08
 IDIUse=1 WtCom= 1.00D+00 WtEn= 0.00D+00
 Coeff-Com:  0.122D-03-0.250D-03-0.378D-03-0.470D-03 0.609D-03 0.504D-02
 Coeff-Com:  0.195D-01 0.235D-01-0.313D-01-0.243D+00-0.165D+00 0.608D+00
 Coeff-Com:  0.783D+00
 Coeff:      0.122D-03-0.250D-03-0.378D-03-0.470D-03 0.609D-03 0.504D-02
 Coeff:      0.195D-01 0.235D-01-0.313D-01-0.243D+00-0.165D+00 0.608D+00
 Coeff:      0.783D+00
 Gap=     0.120 Goal=   None    Shift=    0.000
 RMSDP=3.50D-07 MaxDP=2.25D-05 DE=-9.87D-08 OVMax= 2.09D-04

 Cycle  14  Pass 1  IDiag  1:
 RMSU=  7.81D-08    CP:  9.64D-01  1.50D+00  6.88D-01  6.27D-01  8.83D-01
                    CP:  9.20D-01  1.13D+00  1.35D+00  1.76D+00  2.22D+00
                    CP:  1.89D+00  1.81D+00  1.08D+00
 E= -4069.81220429511     Delta-E=       -0.000000037879 Rises=F Damp=F
 DIIS: error= 6.85D-07 at cycle  14 NSaved=  14.
 NSaved=14 IEnMin=14 EnMin= -4069.81220429511     IErMin=14 ErrMin= 6.85D-07
 ErrMax= 6.85D-07  0.00D+00 EMaxC= 1.00D-01 BMatC= 1.33D-09 BMatP= 8.69D-09
 IDIUse=1 WtCom= 1.00D+00 WtEn= 0.00D+00
 Coeff-Com:  0.677D-04-0.133D-03-0.251D-03-0.396D-03-0.475D-03 0.125D-02
 Coeff-Com:  0.106D-01 0.194D-01 0.525D-02-0.100D+00-0.146D+00 0.101D+00
 Coeff-Com:  0.406D+00 0.704D+00
 Coeff:      0.677D-04-0.133D-03-0.251D-03-0.396D-03-0.475D-03 0.125D-02
 Coeff:      0.106D-01 0.194D-01 0.525D-02-0.100D+00-0.146D+00 0.101D+00
 Coeff:      0.406D+00 0.704D+00
 Gap=     0.120 Goal=   None    Shift=    0.000
 RMSDP=1.03D-07 MaxDP=7.23D-06 DE=-3.79D-08 OVMax= 5.68D-05

 Cycle  15  Pass 1  IDiag  1:
 RMSU=  3.90D-08    CP:  9.64D-01  1.50D+00  6.88D-01  6.27D-01  8.83D-01
                    CP:  9.19D-01  1.14D+00  1.35D+00  1.78D+00  2.26D+00
                    CP:  2.00D+00  1.94D+00  1.31D+00  1.02D+00
 E= -4069.81220429930     Delta-E=       -0.000000004191 Rises=F Damp=F
 DIIS: error= 3.37D-07 at cycle  15 NSaved=  15.
 NSaved=15 IEnMin=15 EnMin= -4069.81220429930     IErMin=15 ErrMin= 3.37D-07
 ErrMax= 3.37D-07  0.00D+00 EMaxC= 1.00D-01 BMatC= 2.41D-10 BMatP= 1.33D-09
 IDIUse=1 WtCom= 1.00D+00 WtEn= 0.00D+00
 Coeff-Com:  0.569D-05-0.954D-05-0.343D-04-0.849D-04-0.301D-03-0.531D-03
 Coeff-Com:  0.116D-02 0.262D-02 0.883D-02 0.166D-02-0.321D-01-0.707D-01
 Coeff-Com:  0.306D-01 0.299D+00 0.760D+00
 Coeff:      0.569D-05-0.954D-05-0.343D-04-0.849D-04-0.301D-03-0.531D-03
 Coeff:      0.116D-02 0.262D-02 0.883D-02 0.166D-02-0.321D-01-0.707D-01
 Coeff:      0.306D-01 0.299D+00 0.760D+00
 Gap=     0.120 Goal=   None    Shift=    0.000
 RMSDP=4.12D-08 MaxDP=2.64D-06 DE=-4.19D-09 OVMax= 2.85D-05

 Cycle  16  Pass 1  IDiag  1:
 RMSU=  1.90D-08    CP:  9.64D-01  1.50D+00  6.88D-01  6.27D-01  8.83D-01
                    CP:  9.19D-01  1.14D+00  1.36D+00  1.78D+00  2.28D+00
                    CP:  2.02D+00  2.01D+00  1.39D+00  1.23D+00  1.13D+00
 E= -4069.81220430018     Delta-E=       -0.000000000877 Rises=F Damp=F
 DIIS: error= 1.78D-07 at cycle  16 NSaved=  16.
 NSaved=16 IEnMin=16 EnMin= -4069.81220430018     IErMin=16 ErrMin= 1.78D-07
 ErrMax= 1.78D-07  0.00D+00 EMaxC= 1.00D-01 BMatC= 8.43D-11 BMatP= 2.41D-10
 IDIUse=1 WtCom= 1.00D+00 WtEn= 0.00D+00
 Coeff-Com: -0.142D-04 0.288D-04 0.467D-04 0.532D-04-0.289D-04-0.636D-03
 Coeff-Com: -0.188D-02-0.424D-02 0.408D-02 0.256D-01 0.203D-01-0.641D-01
 Coeff-Com: -0.822D-01-0.319D-01 0.395D+00 0.740D+00
 Coeff:     -0.142D-04 0.288D-04 0.467D-04 0.532D-04-0.289D-04-0.636D-03
 Coeff:     -0.188D-02-0.424D-02 0.408D-02 0.256D-01 0.203D-01-0.641D-01
 Coeff:     -0.822D-01-0.319D-01 0.395D+00 0.740D+00
 Gap=     0.120 Goal=   None    Shift=    0.000
 RMSDP=2.29D-08 MaxDP=1.46D-06 DE=-8.77D-10 OVMax= 1.26D-05

 Cycle  17  Pass 1  IDiag  1:
 RMSU=  1.06D-08    CP:  9.64D-01  1.50D+00  6.88D-01  6.27D-01  8.83D-01
                    CP:  9.19D-01  1.14D+00  1.36D+00  1.78D+00  2.28D+00
                    CP:  2.04D+00  2.03D+00  1.43D+00  1.32D+00  1.43D+00
                    CP:  1.23D+00
 E= -4069.81220430047     Delta-E=       -0.000000000295 Rises=F Damp=F
 DIIS: error= 9.65D-08 at cycle  17 NSaved=  17.
 NSaved=17 IEnMin=17 EnMin= -4069.81220430047     IErMin=17 ErrMin= 9.65D-08
 ErrMax= 9.65D-08  0.00D+00 EMaxC= 1.00D-01 BMatC= 1.82D-11 BMatP= 8.43D-11
 IDIUse=1 WtCom= 1.00D+00 WtEn= 0.00D+00
 Coeff-Com: -0.723D-05 0.141D-04 0.285D-04 0.424D-04 0.829D-04-0.126D-03
 Coeff-Com: -0.910D-03-0.278D-02-0.520D-04 0.945D-02 0.172D-01-0.792D-02
 Coeff-Com: -0.372D-01-0.976D-01-0.293D-01 0.295D+00 0.854D+00
 Coeff:     -0.723D-05 0.141D-04 0.285D-04 0.424D-04 0.829D-04-0.126D-03
 Coeff:     -0.910D-03-0.278D-02-0.520D-04 0.945D-02 0.172D-01-0.792D-02
 Coeff:     -0.372D-01-0.976D-01-0.293D-01 0.295D+00 0.854D+00
 Gap=     0.120 Goal=   None    Shift=    0.000
 RMSDP=1.36D-08 MaxDP=9.85D-07 DE=-2.95D-10 OVMax= 9.18D-06

 Cycle  18  Pass 1  IDiag  1:
 RMSU=  4.98D-09    CP:  9.64D-01  1.50D+00  6.88D-01  6.27D-01  8.83D-01
                    CP:  9.19D-01  1.14D+00  1.36D+00  1.78D+00  2.28D+00
                    CP:  2.04D+00  2.04D+00  1.45D+00  1.39D+00  1.59D+00
                    CP:  1.63D+00  1.37D+00
 E= -4069.81220430052     Delta-E=       -0.000000000044 Rises=F Damp=F
 DIIS: error= 5.77D-08 at cycle  18 NSaved=  18.
 NSaved=18 IEnMin=18 EnMin= -4069.81220430052     IErMin=18 ErrMin= 5.77D-08
 ErrMax= 5.77D-08  0.00D+00 EMaxC= 1.00D-01 BMatC= 7.18D-12 BMatP= 1.82D-11
 IDIUse=1 WtCom= 1.00D+00 WtEn= 0.00D+00
 Coeff-Com:  0.180D-05-0.391D-05-0.363D-05-0.347D-06 0.611D-04 0.175D-03
 Coeff-Com:  0.360D-03 0.149D-03-0.124D-02-0.572D-02 0.219D-03 0.194D-01
 Coeff-Com:  0.165D-01-0.348D-01-0.159D+00-0.177D+00 0.361D+00 0.981D+00
 Coeff:      0.180D-05-0.391D-05-0.363D-05-0.347D-06 0.611D-04 0.175D-03
 Coeff:      0.360D-03 0.149D-03-0.124D-02-0.572D-02 0.219D-03 0.194D-01
 Coeff:      0.165D-01-0.348D-01-0.159D+00-0.177D+00 0.361D+00 0.981D+00
 Gap=     0.120 Goal=   None    Shift=    0.000
 RMSDP=1.15D-08 MaxDP=7.31D-07 DE=-4.37D-11 OVMax= 6.24D-06

 Cycle  19  Pass 1  IDiag  1:
 RMSU=  2.90D-09    CP:  9.64D-01  1.50D+00  6.88D-01  6.27D-01  8.83D-01
                    CP:  9.19D-01  1.14D+00  1.36D+00  1.78D+00  2.28D+00
                    CP:  2.04D+00  2.04D+00  1.46D+00  1.43D+00  1.73D+00
                    CP:  1.94D+00  1.90D+00  1.33D+00
 E= -4069.81220430046     Delta-E=        0.000000000058 Rises=F Damp=F
 DIIS: error= 2.74D-08 at cycle  19 NSaved=  19.
 NSaved=19 IEnMin=18 EnMin= -4069.81220430052     IErMin=19 ErrMin= 2.74D-08
 ErrMax= 2.74D-08  0.00D+00 EMaxC= 1.00D-01 BMatC= 1.56D-12 BMatP= 7.18D-12
 IDIUse=1 WtCom= 1.00D+00 WtEn= 0.00D+00
 Coeff-Com:  0.291D-05-0.587D-05-0.987D-05-0.122D-04 0.130D-04 0.120D-03
 Coeff-Com:  0.464D-03 0.790D-03-0.538D-03-0.594D-02-0.478D-02 0.124D-01
 Coeff-Com:  0.200D-01 0.956D-02-0.716D-01-0.176D+00-0.249D-01 0.502D+00
 Coeff-Com:  0.739D+00
 Coeff:      0.291D-05-0.587D-05-0.987D-05-0.122D-04 0.130D-04 0.120D-03
 Coeff:      0.464D-03 0.790D-03-0.538D-03-0.594D-02-0.478D-02 0.124D-01
 Coeff:      0.200D-01 0.956D-02-0.716D-01-0.176D+00-0.249D-01 0.502D+00
 Coeff:      0.739D+00
 Gap=     0.120 Goal=   None    Shift=    0.000
 RMSDP=4.55D-09 MaxDP=3.08D-07 DE= 5.82D-11 OVMax= 3.25D-06

 SCF Done:  E(RCAM-B3LYP) =  -4069.81220430     A.U. after   19 cycles
            NFock= 19  Conv=0.45D-08     -V/T= 2.0102
 KE= 4.028801789665D+03 PE=-3.873953989357D+04 EE= 1.601159463045D+04
 Leave Link  502 at Sat Sep 11 10:28:09 2021, MaxMem= 23488102400 cpu:           14057.7 elap:             610.2
 (Enter /sw/apps/gaussian-16.0/g16/l801.exe)
 DoSCS=F DFT=T ScalE2(SS,OS)=  1.000000  1.000000
 ExpMin= 3.36D-02 ExpMax= 4.95D+03 ExpMxC= 7.45D+02 IAcc=3 IRadAn=         5 AccDes= 0.00D+00
 HarFok:  IExCor=  205 AccDes= 0.00D+00 IRadAn=         5 IDoV=-2 UseB2=F ITyADJ=14
 ICtDFT= 12500011 ScaDFX=  1.000000  1.000000  1.000000  1.000000
 GSVD:  LWork=       -9588 too small for GESVD, short by       45590 words or       45590 for optimal perf.
 Largest valence mixing into a core orbital is  2.03D-04
 Largest core mixing into a valence orbital is  5.24D-05
 Range of M.O.s used for correlation:    95  1572
 NBasis=  1572 NAE=   312 NBE=   312 NFC=    94 NFV=     0
 NROrb=   1478 NOA=   218 NOB=   218 NVA=  1260 NVB=  1260
 Leave Link  801 at Sat Sep 11 10:28:10 2021, MaxMem= 23488102400 cpu:               8.8 elap:               0.4
 (Enter /sw/apps/gaussian-16.0/g16/l914.exe)
 RHF ground state
 Two-electron integrals replicated using symmetry.
 MDV= 23488102400 DFT=T DoStab=F Mixed=T DoRPA=T DoScal=F NonHer=T
 Making orbital integer symmetry assigments:
 Orbital symmetries:
       Occupied  (A) (A) (A) (A) (A) (A) (A) (A) (A) (A) (A) (A)
                 (A) (A) (A) (A) (A) (A) (A) (A) (A) (A) (A) (A)
                 (A) (A) (A) (A) (A) (A) (A) (A) (A) (A) (A) (A)
                 (A) (A) (A) (A) (A) (A) (A) (A) (A) (A) (A) (A)
                 (A) (A) (A) (A) (A) (A) (A) (A) (A) (A) (A) (A)
                 (A) (A) (A) (A) (A) (A) (A) (A) (A) (A) (A) (A)
                 (A) (A) (A) (A) (A) (A) (A) (A) (A) (A) (A) (A)
                 (A) (A) (A) (A) (A) (A) (A) (A) (A) (A) (A) (A)
                 (A) (A) (A) (A) (A) (A) (A) (A) (A) (A) (A) (A)
                 (A) (A) (A) (A) (A) (A) (A) (A) (A) (A) (A) (A)
                 (A) (A) (A) (A) (A) (A) (A) (A) (A) (A) (A) (A)
                 (A) (A) (A) (A) (A) (A) (A) (A) (A) (A) (A) (A)
                 (A) (A) (A) (A) (A) (A) (A) (A) (A) (A) (A) (A)
                 (A) (A) (A) (A) (A) (A) (A) (A) (A) (A) (A) (A)
                 (A) (A) (A) (A) (A) (A) (A) (A) (A) (A) (A) (A)
                 (A) (A) (A) (A) (A) (A) (A) (A) (A) (A) (A) (A)
                 (A) (A) (A) (A) (A) (A) (A) (A) (A) (A) (A) (A)
                 (A) (A) (A) (A) (A) (A) (A) (A) (A) (A) (A) (A)
                 (A) (A) (A) (A) (A) (A) (A) (A) (A) (A) (A) (A)
                 (A) (A) (A) (A) (A) (A) (A) (A) (A) (A) (A) (A)
                 (A) (A) (A) (A) (A) (A) (A) (A) (A) (A) (A) (A)
                 (A) (A) (A) (A) (A) (A) (A) (A) (A) (A) (A) (A)
                 (A) (A) (A) (A) (A) (A) (A) (A) (A) (A) (A) (A)
                 (A) (A) (A) (A) (A) (A) (A) (A) (A) (A) (A) (A)
                 (A) (A) (A) (A) (A) (A) (A) (A) (A) (A) (A) (A)
                 (A) (A) (A) (A) (A) (A) (A) (A) (A) (A) (A) (A)
       Virtual   (A) (A) (A) (A) (A) (A) (A) (A) (A) (A) (A) (A)
                 (A) (A) (A) (A) (A) (A) (A) (A) (A) (A) (A) (A)
                 (A) (A) (A) (A) (A) (A) (A) (A) (A) (A) (A) (A)
                 (A) (A) (A) (A) (A) (A) (A) (A) (A) (A) (A) (A)
                 (A) (A) (A) (A) (A) (A) (A) (A) (A) (A) (A) (A)
                 (A) (A) (A) (A) (A) (A) (A) (A) (A) (A) (A) (A)
                 (A) (A) (A) (A) (A) (A) (A) (A) (A) (A) (A) (A)
                 (A) (A) (A) (A) (A) (A) (A) (A) (A) (A) (A) (A)
                 (A) (A) (A) (A) (A) (A) (A) (A) (A) (A) (A) (A)
                 (A) (A) (A) (A) (A) (A) (A) (A) (A) (A) (A) (A)
                 (A) (A) (A) (A) (A) (A) (A) (A) (A) (A) (A) (A)
                 (A) (A) (A) (A) (A) (A) (A) (A) (A) (A) (A) (A)
                 (A) (A) (A) (A) (A) (A) (A) (A) (A) (A) (A) (A)
                 (A) (A) (A) (A) (A) (A) (A) (A) (A) (A) (A) (A)
                 (A) (A) (A) (A) (A) (A) (A) (A) (A) (A) (A) (A)
                 (A) (A) (A) (A) (A) (A) (A) (A) (A) (A) (A) (A)
                 (A) (A) (A) (A) (A) (A) (A) (A) (A) (A) (A) (A)
                 (A) (A) (A) (A) (A) (A) (A) (A) (A) (A) (A) (A)
                 (A) (A) (A) (A) (A) (A) (A) (A) (A) (A) (A) (A)
                 (A) (A) (A) (A) (A) (A) (A) (A) (A) (A) (A) (A)
                 (A) (A) (A) (A) (A) (A) (A) (A) (A) (A) (A) (A)
                 (A) (A) (A) (A) (A) (A) (A) (A) (A) (A) (A) (A)
                 (A) (A) (A) (A) (A) (A) (A) (A) (A) (A) (A) (A)
                 (A) (A) (A) (A) (A) (A) (A) (A) (A) (A) (A) (A)
                 (A) (A) (A) (A) (A) (A) (A) (A) (A) (A) (A) (A)
                 (A) (A) (A) (A) (A) (A) (A) (A) (A) (A) (A) (A)
                 (A) (A) (A) (A) (A) (A) (A) (A) (A) (A) (A) (A)
                 (A) (A) (A) (A) (A) (A) (A) (A) (A) (A) (A) (A)
                 (A) (A) (A) (A) (A) (A) (A) (A) (A) (A) (A) (A)
                 (A) (A) (A) (A) (A) (A) (A) (A) (A) (A) (A) (A)
                 (A) (A) (A) (A) (A) (A) (A) (A) (A) (A) (A) (A)
                 (A) (A) (A) (A) (A) (A) (A) (A) (A) (A) (A) (A)
                 (A) (A) (A) (A) (A) (A) (A) (A) (A) (A) (A) (A)
                 (A) (A) (A) (A) (A) (A) (A) (A) (A) (A) (A) (A)
                 (A) (A) (A) (A) (A) (A) (A) (A) (A) (A) (A) (A)
                 (A) (A) (A) (A) (A) (A) (A) (A) (A) (A) (A) (A)
                 (A) (A) (A) (A) (A) (A) (A) (A) (A) (A) (A) (A)
                 (A) (A) (A) (A) (A) (A) (A) (A) (A) (A) (A) (A)
                 (A) (A) (A) (A) (A) (A) (A) (A) (A) (A) (A) (A)
                 (A) (A) (A) (A) (A) (A) (A) (A) (A) (A) (A) (A)
                 (A) (A) (A) (A) (A) (A) (A) (A) (A) (A) (A) (A)
                 (A) (A) (A) (A) (A) (A) (A) (A) (A) (A) (A) (A)
                 (A) (A) (A) (A) (A) (A) (A) (A) (A) (A) (A) (A)
                 (A) (A) (A) (A) (A) (A) (A) (A) (A) (A) (A) (A)
                 (A) (A) (A) (A) (A) (A) (A) (A) (A) (A) (A) (A)
                 (A) (A) (A) (A) (A) (A) (A) (A) (A) (A) (A) (A)
                 (A) (A) (A) (A) (A) (A) (A) (A) (A) (A) (A) (A)
                 (A) (A) (A) (A) (A) (A) (A) (A) (A) (A) (A) (A)
                 (A) (A) (A) (A) (A) (A) (A) (A) (A) (A) (A) (A)
                 (A) (A) (A) (A) (A) (A) (A) (A) (A) (A) (A) (A)
                 (A) (A) (A) (A) (A) (A) (A) (A) (A) (A) (A) (A)
                 (A) (A) (A) (A) (A) (A) (A) (A) (A) (A) (A) (A)
                 (A) (A) (A) (A) (A) (A) (A) (A) (A) (A) (A) (A)
                 (A) (A) (A) (A) (A) (A) (A) (A) (A) (A) (A) (A)
                 (A) (A) (A) (A) (A) (A) (A) (A) (A) (A) (A) (A)
                 (A) (A) (A) (A) (A) (A) (A) (A) (A) (A) (A) (A)
                 (A) (A) (A) (A) (A) (A) (A) (A) (A) (A) (A) (A)
                 (A) (A) (A) (A) (A) (A) (A) (A) (A) (A) (A) (A)
                 (A) (A) (A) (A) (A) (A) (A) (A) (A) (A) (A) (A)
                 (A) (A) (A) (A) (A) (A) (A) (A) (A) (A) (A) (A)
                 (A) (A) (A) (A) (A) (A) (A) (A) (A) (A) (A) (A)
                 (A) (A) (A) (A) (A) (A) (A) (A) (A) (A) (A) (A)
                 (A) (A) (A) (A) (A) (A) (A) (A) (A) (A) (A) (A)
                 (A) (A) (A) (A) (A) (A) (A) (A) (A) (A) (A) (A)
                 (A) (A) (A) (A) (A) (A) (A) (A) (A) (A) (A) (A)
                 (A) (A) (A) (A) (A) (A) (A) (A) (A) (A) (A) (A)
                 (A) (A) (A) (A) (A) (A) (A) (A) (A) (A) (A) (A)
                 (A) (A) (A) (A) (A) (A) (A) (A) (A) (A) (A) (A)
                 (A) (A) (A) (A) (A) (A) (A) (A) (A) (A) (A) (A)
                 (A) (A) (A) (A) (A) (A) (A) (A) (A) (A) (A) (A)
                 (A) (A) (A) (A) (A) (A) (A) (A) (A) (A) (A) (A)
                 (A) (A) (A) (A) (A) (A) (A) (A) (A) (A) (A) (A)
                 (A) (A) (A) (A) (A) (A) (A) (A) (A) (A) (A) (A)
                 (A) (A) (A) (A) (A) (A) (A) (A) (A) (A) (A) (A)
                 (A) (A) (A) (A) (A) (A) (A) (A) (A) (A) (A) (A)
                 (A) (A) (A) (A) (A) (A) (A) (A) (A) (A) (A) (A)
                 (A) (A) (A) (A) (A) (A) (A) (A) (A) (A) (A) (A)
                 (A) (A) (A) (A) (A) (A) (A) (A) (A) (A) (A) (A)
                 (A) (A) (A) (A) (A) (A) (A) (A) (A) (A) (A) (A)
                 (A) (A) (A) (A) (A) (A) (A) (A) (A) (A) (A) (A)
                 (A) (A) (A) (A) (A) (A) (A) (A) (A) (A) (A) (A)
                 (A) (A) (A) (A) (A) (A) (A) (A) (A) (A) (A) (A)
                 (A) (A) (A) (A) (A) (A) (A) (A) (A) (A) (A) (A)
                 (A) (A) (A) (A) (A) (A) (A) (A) (A) (A) (A) (A)
                 (A) (A) (A) (A) (A) (A) (A) (A) (A) (A) (A) (A)
                 (A) (A) (A) (A) (A) (A) (A) (A) (A) (A) (A) (A)
                 (A) (A) (A) (A) (A) (A) (A) (A) (A) (A) (A) (A)
                 (A) (A) (A) (A) (A) (A) (A) (A) (A) (A) (A) (A)
                 (A) (A) (A) (A) (A) (A) (A) (A) (A) (A) (A) (A)
                 (A) (A) (A) (A) (A) (A) (A) (A) (A) (A) (A) (A)
                 (A) (A) (A) (A) (A) (A) (A) (A) (A) (A) (A) (A)
                 (A) (A) (A) (A) (A) (A) (A) (A) (A) (A) (A) (A)
                 (A) (A) (A) (A) (A) (A) (A) (A) (A) (A) (A) (A)
                 (A) (A) (A) (A) (A) (A) (A) (A) (A) (A) (A) (A)
                 (A) (A) (A) (A) (A) (A) (A) (A) (A) (A) (A) (A)
                 (A) (A) (A) (A) (A) (A) (A) (A) (A) (A) (A) (A)
                 (A) (A) (A) (A) (A) (A) (A) (A) (A) (A) (A) (A)
                 (A) (A) (A) (A) (A) (A) (A) (A) (A) (A) (A) (A)
                 (A) (A) (A) (A) (A) (A) (A) (A) (A) (A) (A) (A)
                 (A) (A) (A) (A) (A) (A) (A) (A) (A) (A) (A) (A)
                 (A) (A) (A) (A) (A) (A) (A) (A) (A) (A) (A) (A)
                 (A) (A) (A) (A) (A) (A) (A) (A) (A) (A) (A) (A)
                 (A) (A) (A) (A) (A) (A) (A) (A) (A) (A) (A) (A)
                 (A) (A) (A) (A) (A) (A) (A) (A) (A) (A) (A) (A)
                 (A) (A) (A) (A) (A) (A) (A) (A) (A) (A) (A) (A)
    20 initial guesses have been made.
 Convergence on wavefunction:    0.001000000000000
 Davidson Disk Diagonalization:  ConvIn= 1.00D-03 SkipCon=T Conv= 1.00D-03.
 Max sub-space:  2000 roots to seek:    20 dimension of matrix:       549360
 Iteration     1 Dimension    20 NMult     0 NNew     20
 CISAX will form    20 AO SS matrices at one time.
 NMat=    20 NSing=    20 JSym2X= 0.
 FoFJK:  IHMeth= 1 ICntrl=       0 DoSepK=T KAlg= 0 I1Cent=           0 FoldK=F
 IRaf=         1 NMat=      40 IRICut=       1 DoRegI=T DoRafI=F ISym2E= 0 IDoP0=3 IntGTp=3.
 FoFCou: FMM=T IPFlag=           0 FMFlag=      100000 FMFlg1=        2001
         NFxFlg=           0 DoJE=F BraDBF=F KetDBF=F FulRan=T
         wScrn=  0.000000 ICntrl=       500 IOpCl=  0 I1Cent=           0 NGrid=           0
         NMat0=   20 NMatS0=     20 NMatT0=    0 NMatD0=   20 NMtDS0=    0 NMtDT0=    0
 Symmetry not used in FoFCou.
 FMM levels:  10  Number of levels for PrismC:   9
 New state      2 was old state      7
 New state      3 was old state      6
 New state      4 was old state      2
 New state      5 was old state      3
 Excitation Energies [eV] at current iteration:
 Root      1 :     2.585956410220904
 Root      2 :     2.614679498100494
 Root      3 :     2.620461554748537
 Root      4 :     2.657731747051365
 Root      5 :     2.714255649237316
 Root      6 :     2.785098623964203
 Root      7 :     3.369109707621499
 Root      8 :     3.585070713970797
 Root      9 :     3.623578026846819
 Root     10 :     3.668754979502747
 Root     11 :     3.739761078062849
 Root     12 :     3.760959126687731
 Root     13 :     4.293680850629222
 Root     14 :     4.309716137759350
 Root     15 :     4.490252627500851
 Root     16 :     4.737997944958799
 Root     17 :     4.795367216215535
 Root     18 :     4.850698842498934
 Root     19 :     4.911843995780939
 Root     20 :     4.961427121048777
 Iteration     2 Dimension    30 NMult    20 NNew     10
 CISAX will form    10 AO SS matrices at one time.
 NMat=    10 NSing=    10 JSym2X= 0.
 New state      1 was old state      4
 Root      1 not converged, maximum delta is    0.140243436617470
 New state      2 was old state      5
 Root      2 not converged, maximum delta is    0.146803753753028
 Root      3 not converged, maximum delta is    0.082049318384132
 New state      4 was old state      2
 Root      4 not converged, maximum delta is    0.128122834849515
 New state      5 was old state      1
 Root      5 not converged, maximum delta is    0.017967692973180
 Excitation Energies [eV] at current iteration:
 Root      1 :     1.788054149889945   Change is   -0.869677597161420
 Root      2 :     1.818277585618628   Change is   -0.895978063618688
 Root      3 :     2.235294994882718   Change is   -0.385166559865819
 Root      4 :     2.239404888698358   Change is   -0.375274609402136
 Root      5 :     2.583583603252129   Change is   -0.002372806968775
 Iteration     3 Dimension    40 NMult    30 NNew     10
 CISAX will form    10 AO SS matrices at one time.
 NMat=    10 NSing=    10 JSym2X= 0.
 Root      1 not converged, maximum delta is    0.052512594558218
 Root      2 not converged, maximum delta is    0.053378172408518
 Root      3 not converged, maximum delta is    0.044972339391931
 Root      4 not converged, maximum delta is    0.043332564714092
 Root      5 has converged.
 Excitation Energies [eV] at current iteration:
 Root      1 :     1.682081997208345   Change is   -0.105972152681601
 Root      2 :     1.709086040228644   Change is   -0.109191545389985
 Root      3 :     2.192973248463262   Change is   -0.042321746419455
 Root      4 :     2.199879480162085   Change is   -0.039525408536273
 Root      5 :     2.583578358464471   Change is   -0.000005244787658
 Iteration     4 Dimension    48 NMult    40 NNew      8
 CISAX will form     8 AO SS matrices at one time.
 NMat=     8 NSing=     8 JSym2X= 0.
 Root      1 not converged, maximum delta is    0.009688731052513
 Root      2 not converged, maximum delta is    0.009769572421901
 Root      3 not converged, maximum delta is    0.010087682746474
 Root      4 not converged, maximum delta is    0.009145704593586
 Root      5 has converged.
 Excitation Energies [eV] at current iteration:
 Root      1 :     1.665336187709794   Change is   -0.016745809498551
 Root      2 :     1.692245649062091   Change is   -0.016840391166553
 Root      3 :     2.185567252547532   Change is   -0.007405995915730
 Root      4 :     2.193027379869938   Change is   -0.006852100292146
 Root      5 :     2.583578346976641   Change is   -0.000000011487830
 Iteration     5 Dimension    56 NMult    48 NNew      8
 CISAX will form     8 AO SS matrices at one time.
 NMat=     8 NSing=     8 JSym2X= 0.
 Root      1 not converged, maximum delta is    0.001588680531255
 Root      2 not converged, maximum delta is    0.001633670399467
 Root      3 not converged, maximum delta is    0.002256425603349
 Root      4 not converged, maximum delta is    0.002361191583594
 Root      5 has converged.
 Excitation Energies [eV] at current iteration:
 Root      1 :     1.663577373610399   Change is   -0.001758814099394
 Root      2 :     1.690445910651927   Change is   -0.001799738410165
 Root      3 :     2.184702580150591   Change is   -0.000864672396941
 Root      4 :     2.192234637914564   Change is   -0.000792741955374
 Root      5 :     2.583578342355595   Change is   -0.000000004621045
 Iteration     6 Dimension    64 NMult    56 NNew      8
 CISAX will form     8 AO SS matrices at one time.
 NMat=     8 NSing=     8 JSym2X= 0.
 Root      1 has converged.
 Root      2 has converged.
 Root      3 not converged, maximum delta is    0.001077235627799
 Root      4 not converged, maximum delta is    0.001021198170699
 Root      5 has converged.
 Excitation Energies [eV] at current iteration:
 Root      1 :     1.663328338700611   Change is   -0.000249034909788
 Root      2 :     1.690186527676246   Change is   -0.000259382975681
 Root      3 :     2.184571644305305   Change is   -0.000130935845287
 Root      4 :     2.192114257517908   Change is   -0.000120380396657
 Root      5 :     2.583578341444006   Change is   -0.000000000911590
 Iteration     7 Dimension    68 NMult    64 NNew      4
 CISAX will form     4 AO SS matrices at one time.
 NMat=     4 NSing=     4 JSym2X= 0.
 Root      1 has converged.
 Root      2 has converged.
 Root      3 has converged.
 Root      4 has converged.
 Root      5 has converged.
 Excitation Energies [eV] at current iteration:
 Root      1 :     1.663327412296989   Change is   -0.000000926403621
 Root      2 :     1.690185565731226   Change is   -0.000000961945020
 Root      3 :     2.184552712270122   Change is   -0.000018932035183
[...]
 Alpha virt. eigenvalues --    1.85131   1.85259   1.85288   1.85450   1.85632
 Alpha virt. eigenvalues --    1.85724   1.86029   1.86194   1.86401   1.86486
 Alpha virt. eigenvalues --    1.86632   1.86794   1.86907   1.86928   1.87287
 Alpha virt. eigenvalues --    1.87304   1.87556   1.87630   1.87723   1.87894
 Alpha virt. eigenvalues --    1.87996   1.88136   1.88358   1.88388   1.88697
 Alpha virt. eigenvalues --    1.88705   1.88970   1.89058   1.89220   1.89461
 Alpha virt. eigenvalues --    1.89580   1.89772   1.89971   1.90000   1.90344
 Alpha virt. eigenvalues --    1.90618   1.91074   1.91212   1.91309   1.91562
 Alpha virt. eigenvalues --    1.91772   1.92019   1.92336   1.92520   1.92821
 Alpha virt. eigenvalues --    1.92848   1.93174   1.93275   1.93606   1.94124
 Alpha virt. eigenvalues --    1.94430   1.94531   1.94929   1.95307   1.95605
 Alpha virt. eigenvalues --    1.95677   1.95870   1.95978   1.96000   1.96175
 Alpha virt. eigenvalues --    1.96375   1.96458   1.96635   1.96758   1.97056
 Alpha virt. eigenvalues --    1.97302   1.97688   1.97731   1.97971   1.98041
 Alpha virt. eigenvalues --    1.98332   1.98593   1.98675   1.99020   1.99215
 Alpha virt. eigenvalues --    1.99703   2.00106   2.00505   2.00847   2.00881
 Alpha virt. eigenvalues --    2.01279   2.01364   2.01519   2.01594   2.01597
 Alpha virt. eigenvalues --    2.01842   2.02019   2.02643   2.02866   2.03091
 Alpha virt. eigenvalues --    2.03257   2.03286   2.03365   2.03567   2.03710
 Alpha virt. eigenvalues --    2.03905   2.04214   2.04798   2.05085   2.05354
 Alpha virt. eigenvalues --    2.05740   2.05923   2.06441   2.06804   2.07050
 Alpha virt. eigenvalues --    2.07302   2.07510   2.08403   2.08628   2.08832
 Alpha virt. eigenvalues --    2.09166   2.09459   2.09783   2.10596   2.11031
 Alpha virt. eigenvalues --    2.11119   2.11423   2.11526   2.11573   2.11726
 Alpha virt. eigenvalues --    2.11989   2.12333   2.12604   2.12678   2.12693
 Alpha virt. eigenvalues --    2.12914   2.13003   2.13666   2.13816   2.13972
 Alpha virt. eigenvalues --    2.14343   2.15182   2.15518   2.15799   2.16235
 Alpha virt. eigenvalues --    2.16361   2.16616   2.16703   2.17272   2.17299
 Alpha virt. eigenvalues --    2.17555   2.17745   2.17910   2.18086   2.18122
 Alpha virt. eigenvalues --    2.18215   2.18752   2.18896   2.19447   2.19517
 Alpha virt. eigenvalues --    2.19905   2.19974   2.20077   2.20430   2.20612
 Alpha virt. eigenvalues --    2.20973   2.21247   2.21515   2.21619   2.21911
 Alpha virt. eigenvalues --    2.22091   2.22524   2.22820   2.23158   2.23462
 Alpha virt. eigenvalues --    2.24233   2.24529   2.24770   2.25090   2.26165
 Alpha virt. eigenvalues --    2.26602   2.26623   2.26974   2.27155   2.27394
 Alpha virt. eigenvalues --    2.27997   2.28450   2.29111   2.29540   2.29592
 Alpha virt. eigenvalues --    2.30020   2.30326   2.30833   2.30952   2.31098
 Alpha virt. eigenvalues --    2.31182   2.31357   2.31947   2.32338   2.32992
 Alpha virt. eigenvalues --    2.33309   2.33425   2.33616   2.33985   2.34264
 Alpha virt. eigenvalues --    2.35275   2.35563   2.35664   2.36047   2.36185
 Alpha virt. eigenvalues --    2.36456   2.36465   2.36534   2.37493   2.37775
 Alpha virt. eigenvalues --    2.38077   2.38459   2.38740   2.39027   2.39460
 Alpha virt. eigenvalues --    2.39804   2.40019   2.40353   2.40392   2.40988
 Alpha virt. eigenvalues --    2.41155   2.41384   2.41514   2.41816   2.41929
 Alpha virt. eigenvalues --    2.42341   2.42760   2.42896   2.43483   2.43595
 Alpha virt. eigenvalues --    2.44053   2.44155   2.44587   2.44760   2.44926
 Alpha virt. eigenvalues --    2.45137   2.45393   2.45684   2.46125   2.46332
 Alpha virt. eigenvalues --    2.46389   2.46615   2.46659   2.46960   2.47106
 Alpha virt. eigenvalues --    2.47520   2.47559   2.47997   2.49138   2.49463
 Alpha virt. eigenvalues --    2.49882   2.49969   2.50362   2.50540   2.50992
 Alpha virt. eigenvalues --    2.51442   2.51724   2.51744   2.52326   2.52618
 Alpha virt. eigenvalues --    2.52673   2.53297   2.53756   2.53965   2.54062
 Alpha virt. eigenvalues --    2.54347   2.54639   2.54924   2.55348   2.55768
 Alpha virt. eigenvalues --    2.57696   2.58167   2.58486   2.58995   2.60077
 Alpha virt. eigenvalues --    2.60476   2.60490   2.61053   2.61542   2.61905
 Alpha virt. eigenvalues --    2.62395   2.62553   2.62806   2.63242   2.63791
 Alpha virt. eigenvalues --    2.64067   2.64330   2.64490   2.64926   2.65208
 Alpha virt. eigenvalues --    2.65659   2.66001   2.66599   2.66756   2.66896
 Alpha virt. eigenvalues --    2.67148   2.67744   2.68083   2.68697   2.68896
 Alpha virt. eigenvalues --    2.68910   2.69213   2.69263   2.69702   2.69840
 Alpha virt. eigenvalues --    2.70227   2.70833   2.71229   2.71912   2.72072
 Alpha virt. eigenvalues --    2.72519   2.72697   2.72762   2.73066   2.73090
 Alpha virt. eigenvalues --    2.73350   2.73433   2.73789   2.74360   2.74632
 Alpha virt. eigenvalues --    2.74829   2.75195   2.76424   2.76612   2.77084
 Alpha virt. eigenvalues --    2.77186   2.77289   2.77695   2.77998   2.78362
 Alpha virt. eigenvalues --    2.78586   2.78798   2.78978   2.79308   2.80174
 Alpha virt. eigenvalues --    2.80347   2.80462   2.80913   2.80968   2.81257
 Alpha virt. eigenvalues --    2.81788   2.82143   2.82175   2.82432   2.83579
 Alpha virt. eigenvalues --    2.83629   2.83913   2.84077   2.84382   2.84608
 Alpha virt. eigenvalues --    2.84708   2.84958   2.85489   2.85777   2.86813
 Alpha virt. eigenvalues --    2.86848   2.87523   2.87557   2.87975   2.88306
 Alpha virt. eigenvalues --    2.88364   2.88708   2.88768   2.88966   2.90358
 Alpha virt. eigenvalues --    2.90768   2.91026   2.91166   2.93020   2.93434
 Alpha virt. eigenvalues --    2.93862   2.94077   2.94370   2.94624   2.95255
 Alpha virt. eigenvalues --    2.95620   2.96108   2.96214   2.96300   2.96492
 Alpha virt. eigenvalues --    2.97080   2.97210   2.97707   2.98048   2.98098
 Alpha virt. eigenvalues --    2.98219   2.98469   2.98561   2.98686   2.98722
 Alpha virt. eigenvalues --    2.98868   2.99009   2.99392   2.99853   2.99901
 Alpha virt. eigenvalues --    3.00108   3.00289   3.00330   3.00428   3.01116
 Alpha virt. eigenvalues --    3.01816   3.01881   3.01975   3.02257   3.02644
 Alpha virt. eigenvalues --    3.02875   3.03085   3.03158   3.03401   3.03815
 Alpha virt. eigenvalues --    3.03999   3.04170   3.04315   3.04394   3.04562
 Alpha virt. eigenvalues --    3.04815   3.05135   3.05412   3.05967   3.06258
 Alpha virt. eigenvalues --    3.06687   3.07042   3.07966   3.07971   3.09266
 Alpha virt. eigenvalues --    3.09402   3.09569   3.10320   3.10617   3.10854
 Alpha virt. eigenvalues --    3.11158   3.11524   3.11834   3.11937   3.11981
 Alpha virt. eigenvalues --    3.12466   3.13168   3.13455   3.13739   3.13796
 Alpha virt. eigenvalues --    3.14010   3.14811   3.15719   3.16023   3.17107
 Alpha virt. eigenvalues --    3.17623   3.17882   3.17923   3.18944   3.19098
 Alpha virt. eigenvalues --    3.22206   3.22878   3.23789   3.24541   3.24553
 Alpha virt. eigenvalues --    3.25354   3.26342   3.26748   3.27462   3.27503
 Alpha virt. eigenvalues --    3.29005   3.29535   3.31364   3.31482   3.33250
 Alpha virt. eigenvalues --    3.33266   3.40565   3.40671   3.42629   3.42875
 Alpha virt. eigenvalues --    3.48508   3.48808   3.49859   3.50363   3.50923
 Alpha virt. eigenvalues --    3.51310   3.56377   3.57082   3.58931   3.59410
 Alpha virt. eigenvalues --    3.62619   3.62685   3.65986   3.66159   3.67099
 Alpha virt. eigenvalues --    3.67892   3.73169   3.74287   3.75941   3.76919
          Condensed to atoms (all electrons):
 Mulliken charges:
               1
     1  Mg   0.836173
     2  C   -0.003059
     3  C   -0.093773
     4  C   -0.046438
     5  C   -0.064054
     6  N   -0.256865
     7  C   -0.052297
     8  C   -0.013896
     9  C   -0.087003
    10  C    0.046279
    11  C    0.104703
    12  C    0.053326
    13  C   -0.072422
    14  H    0.037820
    15  N   -0.433230
    16  C    0.168154
    17  C   -0.177116
    18  C   -0.004414
    19  C    0.148466
    20  C    0.110067
    21  C    0.011399
    22  O   -0.249971
    23  C    0.062790
    24  N   -0.341057
    25  C    0.041265
    26  C   -0.028187
    27  C   -0.024023
    28  C    0.074548
    29  C    0.076043
    30  C    0.035202
    31  C   -0.004968
    32  N   -0.310398
    33  C    0.079899
    34  C   -0.170497
    35  C    0.008225
    36  C    0.081800
    37  C    0.127492
    38  C    0.045395
    39  O   -0.187259
    40  C   -0.005069
    41  C    0.213370
    42  O   -0.258030
    43  O   -0.304736
    44  C    0.157052
    45  H   -0.017135
    46  H   -0.017021
    47  H   -0.041118
    48  H    0.001478
    49  H   -0.003669
    50  H    0.025758
    51  H    0.016372
    52  H    0.017132
    53  H    0.010921
    54  H    0.044203
    55  H    0.018052
    56  H    0.017979
    57  H    0.006387
    58  H    0.027171
    59  H    0.039102
    60  H    0.038056
    61  H    0.035312
    62  H    0.030581
    63  H    0.015844
    64  H    0.010111
    65  H    0.023267
    66  H    0.012871
    67  H    0.005250
    68  H    0.006765
    69  H    0.005593
    70  H    0.007810
    71  H    0.018211
    72  H    0.028263
    73  H    0.047536
    74  H    0.009426
    75  H    0.046743
    76  H    0.035788
    77  H    0.043688
    78  H    0.046650
    79  H    0.054923
    80  Mg   0.837533
    81  C   -0.016241
    82  C   -0.087924
    83  C   -0.045862
    84  C   -0.065361
    85  N   -0.254476
    86  C   -0.049845
    87  C   -0.014789
    88  C   -0.090402
    89  C    0.045639
    90  C    0.114372
    91  C    0.062929
    92  C   -0.081805
    93  H    0.041903
    94  N   -0.423399
    95  C    0.162636
    96  C   -0.174912
    97  C   -0.008226
    98  C    0.152045
    99  C    0.099450
   100  C    0.015263
   101  O   -0.253619
   102  C    0.061365
   103  N   -0.350148
   104  C    0.037384
   105  C   -0.019707
   106  C   -0.034801
   107  C    0.089084
   108  C    0.073809
   109  C    0.034816
   110  C   -0.007613
   111  N   -0.324210
   112  C    0.078723
   113  C   -0.163316
   114  C    0.002520
   115  C    0.096147
   116  C    0.131471
   117  C    0.042369
   118  O   -0.186864
   119  C    0.001212
   120  C    0.211495
   121  O   -0.250581
   122  O   -0.307229
   123  C    0.150945
   124  H   -0.019773
   125  H   -0.016062
   126  H   -0.040745
   127  H   -0.000378
   128  H   -0.004185
   129  H    0.022158
   130  H    0.013953
   131  H    0.016428
   132  H    0.012798
   133  H    0.039278
   134  H    0.020592
   135  H    0.018121
   136  H    0.008717
   137  H    0.025780
   138  H    0.038899
   139  H    0.038093
   140  H    0.035889
   141  H    0.033474
   142  H    0.014085
   143  H    0.012197
   144  H    0.024764
   145  H    0.011575
   146  H    0.005410
   147  H    0.005926
   148  H    0.003572
   149  H    0.010702
   150  H    0.017730
   151  H    0.030371
   152  H    0.046319
   153  H    0.008189
   154  H    0.046745
   155  H    0.034440
   156  H    0.044835
   157  H    0.051552
   158  H    0.057761
 Sum of Mulliken charges =  -0.00000
 Mulliken charges with hydrogens summed into heavy atoms:
               1
     1  Mg   0.836173
     2  C   -0.003059
     3  C   -0.110908
     4  C   -0.063459
     5  C   -0.105171
     6  N   -0.256865
     7  C   -0.052297
     8  C   -0.012418
     9  C   -0.090672
    10  C    0.046279
    11  C    0.163965
    12  C    0.108450
    13  C    0.001430
    15  N   -0.433230
    16  C    0.168154
    17  C   -0.177116
    18  C   -0.004414
    19  C    0.148466
    20  C    0.182727
    21  C    0.011399
    22  O   -0.249971
    23  C    0.166739
    24  N   -0.341057
    25  C    0.041265
    26  C   -0.012344
    27  C   -0.013912
    28  C    0.074548
    29  C    0.117431
    30  C    0.047560
    31  C    0.049316
    32  N   -0.310398
    33  C    0.079899
    34  C   -0.170497
    35  C    0.008225
    36  C    0.081800
    37  C    0.231197
    38  C    0.045395
    39  O   -0.187259
    40  C    0.030719
    41  C    0.213370
    42  O   -0.258030
    43  O   -0.304736
    44  C    0.302313
    80  Mg   0.837533
    81  C   -0.016241
    82  C   -0.107697
    83  C   -0.061923
    84  C   -0.106106
    85  N   -0.254476
    86  C   -0.049845
    87  C   -0.015167
    88  C   -0.094587
    89  C    0.045639
    90  C    0.166911
    91  C    0.115006
    92  C   -0.001188
    94  N   -0.423399
    95  C    0.162636
    96  C   -0.174912
    97  C   -0.008226
    98  C    0.152045
    99  C    0.172845
   100  C    0.015263
   101  O   -0.253619
   102  C    0.168821
   103  N   -0.350148
   104  C    0.037384
   105  C   -0.005622
   106  C   -0.022605
   107  C    0.089084
   108  C    0.115558
   109  C    0.044314
   110  C    0.051190
   111  N   -0.324210
   112  C    0.078723
   113  C   -0.163316
   114  C    0.002520
   115  C    0.096147
   116  C    0.232724
   117  C    0.042369
   118  O   -0.186864
   119  C    0.035653
   120  C    0.211495
   121  O   -0.250581
   122  O   -0.307229
   123  C    0.305094
 Electronic spatial extent (au):  <R**2>=         142139.7684
 Charge=             -0.0000 electrons
 Dipole moment (field-independent basis, Debye):
    X=             -3.4462    Y=              7.0939    Z=              1.5881  Tot=              8.0450
 Quadrupole moment (field-independent basis, Debye-Ang):
   XX=           -482.9998   YY=           -547.7156   ZZ=           -475.1768
   XY=            -25.1338   XZ=            -28.4044   YZ=              7.4658
 Traceless Quadrupole moment (field-independent basis, Debye-Ang):
   XX=             18.9643   YY=            -45.7515   ZZ=             26.7873
   XY=            -25.1338   XZ=            -28.4044   YZ=              7.4658
 Octapole moment (field-independent basis, Debye-Ang**2):
  XXX=            -67.8644  YYY=            248.3110  ZZZ=             28.5498  XYY=             79.4000
  XXY=           -242.7005  XXZ=             18.4454  XZZ=           -308.8716  YZZ=            -61.0788
  YYZ=            218.0290  XYZ=           -152.0791
 Hexadecapole moment (field-independent basis, Debye-Ang**3):
 XXXX=        -139428.5221 YYYY=         -34296.6727 ZZZZ=         -17670.6617 XXXY=          -5694.0425
 XXXZ=          -2616.3797 YYYX=            129.4390 YYYZ=            294.5207 ZZZX=           -218.5186
 ZZZY=           -459.7992 XXYY=         -30909.2239 XXZZ=         -25775.6637 YYZZ=          -8270.0408
 XXYZ=           -108.7079 YYXZ=           -830.9531 ZZXY=            300.5856
 N-N= 1.462933126915D+04 E-N=-3.873953988478D+04  KE= 4.028801789665D+03
 Leave Link  601 at Sat Sep 11 10:51:11 2021, MaxMem= 23488102400 cpu:              17.7 elap:               0.9
 (Enter /sw/apps/gaussian-16.0/g16/l9999.exe)
 1\1\GINC-BP1-COMPUTE00090\SP\RCAM-B3LYP TD-FC\def2SVP\C68H72Mg2N8O8\OF
 15641\11-Sep-2021\0\\#p cam-b3lyp/Def2SVP td=(nstates=5)\\TDDFT excite
 d states in gaussian\\0,1\Mg,0,0.,0.,0.\C,0,-0.217,-2.218,2.801\C,0,-1
 .255,2.442,2.026\C,0,-0.245,1.85,-2.564\C,0,0.146,-2.824,-2.037\N,0,-0
 .617,-0.009,2.126\C,0,-0.594,-0.908,3.105\C,0,-0.936,-0.309,4.502\C,0,
 -1.773,0.964,4.032\C,0,-1.155,1.168,2.66\C,0,-3.263,0.685,3.863\C,0,0.
 345,0.11,5.299\C,0,0.124,0.397,6.787\H,0,1.168,0.033,7.733\N,0,-0.185,
 1.961,-0.152\C,0,-0.703,2.8,0.777\C,0,-0.62,4.156,0.193\C,0,-0.187,4.0
 15,-1.225\C,0,-0.214,2.583,-1.38\C,0,-0.887,5.406,0.974\C,0,0.181,5.01
 3,-2.277\O,0,0.303,4.69,-3.508\C,0,0.31,6.414,-1.837\N,0,-0.265,-0.413
 ,-2.029\C,0,-0.279,0.569,-2.937\C,0,-0.196,0.024,-4.332\C,0,0.124,-1.5
 33,-4.18\C,0,0.086,-1.632,-2.635\C,0,-1.451,0.205,-5.197\C,0,1.373,-2.
 07,-4.923\C,0,2.626,-1.49,-4.306\N,0,0.15,-2.144,0.303\C,0,0.173,-3.13
 6,-0.688\C,0,0.173,-4.438,0.004\C,0,0.133,-4.111,1.358\C,0,0.083,-2.69
 5,1.502\C,0,0.149,-5.715,-0.623\C,0,0.096,-4.629,2.716\O,0,0.208,-5.74
 7,3.221\C,0,-0.255,-3.428,3.701\C,0,0.717,-3.482,4.848\O,0,1.931,-3.25
 5,4.669\O,0,0.038,-3.556,6.003\C,0,0.943,-3.583,7.183\H,0,-1.859,3.22,
 2.497\H,0,-0.218,2.453,-3.474\H,0,0.276,-3.747,-2.605\H,0,-1.554,-0.94
 9,5.132\H,0,-1.585,1.831,4.665\H,0,-3.484,-0.377,3.969\H,0,-3.511,1.02
 7,2.858\H,0,-3.852,1.301,4.543\H,0,0.669,1.096,4.966\H,0,1.13,-0.639,5
 .189\H,0,-0.844,0.026,7.125\H,0,0.062,1.477,6.921\H,0,-1.344,5.186,1.9
 38\H,0,-1.651,5.963,0.432\H,0,0.007,6.02,1.084\H,0,-0.635,6.744,-1.405
 \H,0,0.665,6.97,-2.704\H,0,1.048,6.466,-1.036\H,0,0.608,0.501,-4.891\H
 ,0,-0.692,-2.156,-4.547\H,0,-1.267,0.74,-6.129\H,0,-2.204,0.714,-4.596
 \H,0,-1.967,-0.72,-5.453\H,0,1.356,-1.759,-5.967\H,0,1.452,-3.157,-4.9
 02\H,0,2.714,-0.522,-4.798\H,0,3.487,-2.121,-4.529\H,0,2.495,-1.303,-3
 .24\H,0,0.867,-6.333,-0.084\H,0,0.404,-5.642,-1.68\H,0,-0.891,-5.999,-
 0.463\H,0,-1.283,-3.581,4.028\H,0,0.698,-4.478,7.755\H,0,0.833,-2.619,
 7.68\H,0,2.,-3.754,6.976\Mg,0,13.12999,1.18633,1.00321\C,0,10.87887,-1
 .56679,0.52169\C,0,10.84715,3.14109,-0.60991\C,0,15.27484,3.5245,1.010
 45\C,0,15.65858,-1.15358,1.52928\N,0,11.15518,0.73085,0.11727\C,0,10.3
 749,-0.33724,0.04878\C,0,8.94553,-0.05624,-0.48743\C,0,9.25963,1.28028
 ,-1.32046\C,0,10.47587,1.77457,-0.54\C,0,9.68897,1.0097,-2.75286\C,0,7
 .91686,0.21431,0.66611\C,0,6.44822,0.19018,0.23685\H,0,5.45871,-0.3399
 7,1.17082\N,0,12.89922,3.14155,0.75335\C,0,11.90245,3.76519,0.09093\C,
 0,12.20033,5.20326,0.17693\C,0,13.54068,5.36808,0.80225\C,0,13.97536,3
 .98692,0.86191\C,0,11.22088,6.26324,-0.23603\C,0,14.30993,6.57093,1.25
 788\O,0,15.55505,6.50145,1.55398\C,0,13.58623,7.85067,1.25769\N,0,15.2
 0889,1.1926,1.02584\C,0,15.89619,2.34701,1.07942\C,0,17.35816,2.0987,1
 .36467\C,0,17.4664,0.54618,1.73284\C,0,15.99806,0.12784,1.49967\C,0,18
 .32251,2.41913,0.22285\C,0,18.12974,0.18962,3.09134\C,0,17.25542,0.659
 37,4.23165\N,0,13.24316,-0.96125,1.21093\C,0,14.40599,-1.73982,1.4\C,0
 ,13.99089,-3.15724,1.36783\C,0,12.60788,-3.10507,1.13747\C,0,12.1938,-
 1.75133,1.01329\C,0,14.85638,-4.28054,1.49131\C,0,11.40586,-3.88772,0.
 96053\O,0,11.12645,-5.08265,1.0488\C,0,10.25372,-2.93098,0.42799\C,0,9
 .01795,-3.19296,1.24454\O,0,8.99329,-2.92274,2.4582\O,0,8.00446,-3.513
 41,0.41961\C,0,6.75394,-3.77155,1.18209\H,0,10.30654,3.79103,-1.29853\
 H,0,16.03916,4.29598,1.12915\H,0,16.3718,-1.94071,1.78309\H,0,8.54896,
 -0.82001,-1.14558\H,0,8.44288,1.9935,-1.24555\H,0,9.82644,-0.04495,-2.
 93986\H,0,10.62154,1.54226,-2.88602\H,0,8.98012,1.464,-3.45106\H,0,8.0
 0253,1.26139,0.98396\H,0,8.0671,-0.46957,1.47873\H,0,6.31642,-0.25546,
 -0.75662\H,0,6.10501,1.22054,0.11609\H,0,10.38814,5.8395,-0.81082\H,0,
 11.73758,6.91628,-0.94766\H,0,10.87114,6.86458,0.60584\H,0,13.22735,8.
 06245,0.25329\H,0,14.27361,8.57518,1.69869\H,0,12.69987,7.75144,1.8941
 9\H,0,17.69184,2.68491,2.21209\H,0,18.07085,-0.00566,0.99802\H,0,19.10
 511,3.14879,0.50429\H,0,17.74714,2.78386,-0.61766\H,0,18.83502,1.55869
 ,-0.20398\H,0,19.08359,0.7125,3.19583\H,0,18.32881,-0.87025,3.20982\H,
 0,17.52817,1.71404,4.33346\H,0,17.47975,0.10419,5.14021\H,0,16.19492,0
 .61815,3.95726\H,0,14.36534,-4.98055,2.15416\H,0,15.83331,-3.98979,1.8
 7191\H,0,14.90245,-4.60678,0.44886\H,0,10.10211,-3.15717,-0.62815\H,0,
 6.40944,-4.77173,0.90165\H,0,6.08212,-2.9239,0.94995\H,0,6.83436,-3.86
 962,2.25837\\Version=ES64L-G16RevA.03\State=1-A\HF=-4069.8122043\RMSD=
 4.550e-09\PG=C01 [X(C68H72Mg2N8O8)]\\@


 KEEP CLOSE TO NATURES HEART, YOURSELF;
 AND BREAK CLEAR AWAY, ONCE IN A WHILE, AND
 CLIMB A MOUNTAIN OR SPEND A WEEK IN THE
 WOODS.  WASH YOUR SPIRIT CLEAN...
                                         -- JOHN MUIR
 Job cpu time:       0 days 13 hours  7 minutes 40.6 seconds.
 Elapsed time:       0 days  0 hours 33 minutes 26.2 seconds.
 File lengths (MBytes):  RWF=  13225 Int=      0 D2E=      0 Chk=    574 Scr=      1
 Normal termination of Gaussian 16 at Sat Sep 11 10:51:12 2021.
