 Entering Gaussian System, Link 0=g16
 Initial command:
 /sw/apps/gaussian-16.0/g16/l1.exe "/tmp/Gau-17683.inp" -scrdir="/tmp/"
 Entering Link 1 = /sw/apps/gaussian-16.0/g16/l1.exe PID=     17684.
  
 Copyright (c) 1988,1990,1992,1993,1995,1998,2003,2009,2016,
            Gaussian, Inc.  All Rights Reserved.
  
 This is part of the Gaussian(R) 16 program.  It is based on
 the Gaussian(R) 09 system (copyright 2009, Gaussian, Inc.),
 the Gaussian(R) 03 system (copyright 2003, Gaussian, Inc.),
 the Gaussian(R) 98 system (copyright 1998, Gaussian, Inc.),
 the Gaussian(R) 94 system (copyright 1995, Gaussian, Inc.),
 the Gaussian 92(TM) system (copyright 1992, Gaussian, Inc.),
 the Gaussian 90(TM) system (copyright 1990, Gaussian, Inc.),
 the Gaussian 88(TM) system (copyright 1988, Gaussian, Inc.),
 the Gaussian 86(TM) system (copyright 1986, Carnegie Mellon
 University), and the Gaussian 82(TM) system (copyright 1983,
 Carnegie Mellon University). Gaussian is a federally registered
 trademark of Gaussian, Inc.
  
 This software contains proprietary and confidential information,
 including trade secrets, belonging to Gaussian, Inc.
  
 This software is provided under written license and may be
 used, copied, transmitted, or stored only in accord with that
 written license.
  
 The following legend is applicable only to US Government
 contracts under FAR:
  
                    RESTRICTED RIGHTS LEGEND
  
 Use, reproduction and disclosure by the US Government is
 subject to restrictions as set forth in subparagraphs (a)
 and (c) of the Commercial Computer Software - Restricted
 Rights clause in FAR 52.227-19.
  
 Gaussian, Inc.
 340 Quinnipiac St., Bldg. 40, Wallingford CT 06492
  
  
 ---------------------------------------------------------------
 Warning -- This program may not be used in any manner that
 competes with the business of Gaussian, Inc. or will provide
 assistance to any competitor of Gaussian, Inc.  The licensee
 of this program is prohibited from giving any competitor of
 Gaussian, Inc. access to this program.  By using this program,
 the user acknowledges that Gaussian, Inc. is engaged in the
 business of creating and licensing software in the field of
 computational chemistry and represents and warrants to the
 licensee that it is not a competitor of Gaussian, Inc. and that
 it will not use this program in any manner prohibited above.
 ---------------------------------------------------------------
  

 Cite this work as:
 Gaussian 16, Revision A.03,
 M. J. Frisch, G. W. Trucks, H. B. Schlegel, G. E. Scuseria, 
 M. A. Robb, J. R. Cheeseman, G. Scalmani, V. Barone, 
 G. A. Petersson, H. Nakatsuji, X. Li, M. Caricato, A. V. Marenich, 
 J. Bloino, B. G. Janesko, R. Gomperts, B. Mennucci, H. P. Hratchian, 
 J. V. Ortiz, A. F. Izmaylov, J. L. Sonnenberg, D. Williams-Young, 
 F. Ding, F. Lipparini, F. Egidi, J. Goings, B. Peng, A. Petrone, 
 T. Henderson, D. Ranasinghe, V. G. Zakrzewski, J. Gao, N. Rega, 
 G. Zheng, W. Liang, M. Hada, M. Ehara, K. Toyota, R. Fukuda, 
 J. Hasegawa, M. Ishida, T. Nakajima, Y. Honda, O. Kitao, H. Nakai, 
 T. Vreven, K. Throssell, J. A. Montgomery, Jr., J. E. Peralta, 
 F. Ogliaro, M. J. Bearpark, J. J. Heyd, E. N. Brothers, K. N. Kudin, 
 V. N. Staroverov, T. A. Keith, R. Kobayashi, J. Normand, 
 K. Raghavachari, A. P. Rendell, J. C. Burant, S. S. Iyengar, 
 J. Tomasi, M. Cossi, J. M. Millam, M. Klene, C. Adamo, R. Cammi, 
 J. W. Ochterski, R. L. Martin, K. Morokuma, O. Farkas, 
 J. B. Foresman, and D. J. Fox, Gaussian, Inc., Wallingford CT, 2016.
 
 ******************************************
 Gaussian 16:  ES64L-G16RevA.03 25-Dec-2016
                11-Sep-2021 
 ******************************************
 %nproc=24
 Will use up to   24 processors via shared memory.
 %mem=175gb
 -----------------------------------
 #p cam-b3lyp/Def2SVP td=(nstates=5)
 -----------------------------------
 1/38=1,172=1/1;
 2/12=2,17=6,18=5,40=1/2;
 3/5=43,7=101,11=9,25=1,30=1,74=-40/1,2,3,8;
 4//1;
 5/5=2,38=5/2;
 8/6=1,10=1,108=5/1;
 9/41=5,42=1,70=2/14;
 6/7=2,8=2,9=2,10=2/1;
 99/5=1,9=1/99;
 Leave Link    1 at Sat Sep 11 20:28:28 2021, MaxMem= 23488102400 cpu:               0.5 elap:               0.0
 (Enter /sw/apps/gaussian-16.0/g16/l101.exe)
 --------------------------------
 TDDFT excited states in gaussian
 --------------------------------
 Symbolic Z-matrix:
 Charge =  0 Multiplicity = 1
 Mg                    0.        0.        0. 
 C                    -0.217    -2.218     2.801 
 C                    -1.255     2.442     2.026 
 C                    -0.245     1.85     -2.564 
 C                     0.146    -2.824    -2.037 
 N                    -0.617    -0.009     2.126 
 C                    -0.594    -0.908     3.105 
 C                    -0.936    -0.309     4.502 
 C                    -1.773     0.964     4.032 
 C                    -1.155     1.168     2.66 
 C                    -3.263     0.685     3.863 
 C                     0.345     0.11      5.299 
 C                     0.124     0.397     6.787 
 H                     1.168     0.033     7.733 
 N                    -0.185     1.961    -0.152 
 C                    -0.703     2.8       0.777 
 C                    -0.62      4.156     0.193 
 C                    -0.187     4.015    -1.225 
 C                    -0.214     2.583    -1.38 
 C                    -0.887     5.406     0.974 
 C                     0.181     5.013    -2.277 
 O                     0.303     4.69     -3.508 
 C                     0.31      6.414    -1.837 
 N                    -0.265    -0.413    -2.029 
 C                    -0.279     0.569    -2.937 
 C                    -0.196     0.024    -4.332 
 C                     0.124    -1.533    -4.18 
 C                     0.086    -1.632    -2.635 
 C                    -1.451     0.205    -5.197 
 C                     1.373    -2.07     -4.923 
 C                     2.626    -1.49     -4.306 
 N                     0.15     -2.144     0.303 
 C                     0.173    -3.136    -0.688 
 C                     0.173    -4.438     0.004 
 C                     0.133    -4.111     1.358 
 C                     0.083    -2.695     1.502 
 C                     0.149    -5.715    -0.623 
 C                     0.096    -4.629     2.716 
 O                     0.208    -5.747     3.221 
 C                    -0.255    -3.428     3.701 
 C                     0.717    -3.482     4.848 
 O                     1.931    -3.255     4.669 
 O                     0.038    -3.556     6.003 
 C                     0.943    -3.583     7.183 
 H                    -1.859     3.22      2.497 
 H                    -0.218     2.453    -3.474 
 H                     0.276    -3.747    -2.605 
 H                    -1.554    -0.949     5.132 
 H                    -1.585     1.831     4.665 
 H                    -3.484    -0.377     3.969 
 H                    -3.511     1.027     2.858 
 H                    -3.852     1.301     4.543 
 H                     0.669     1.096     4.966 
 H                     1.13     -0.639     5.189 
 H                    -0.844     0.026     7.125 
 H                     0.062     1.477     6.921 
 H                    -1.344     5.186     1.938 
 H                    -1.651     5.963     0.432 
 H                     0.007     6.02      1.084 
 H                    -0.635     6.744    -1.405 
 H                     0.665     6.97     -2.704 
 H                     1.048     6.466    -1.036 
 H                     0.608     0.501    -4.891 
 H                    -0.692    -2.156    -4.547 
 H                    -1.267     0.74     -6.129 
 H                    -2.204     0.714    -4.596 
 H                    -1.967    -0.72     -5.453 
 H                     1.356    -1.759    -5.967 
 H                     1.452    -3.157    -4.902 
 H                     2.714    -0.522    -4.798 
 H                     3.487    -2.121    -4.529 
 H                     2.495    -1.303    -3.24 
 H                     0.867    -6.333    -0.084 
 H                     0.404    -5.642    -1.68 
 H                    -0.891    -5.999    -0.463 
 H                    -1.283    -3.581     4.028 
 H                     0.698    -4.478     7.755 
 H                     0.833    -2.619     7.68 
 H                     2.       -3.754     6.976 
 Mg                    15.77133   1.4259    1.20434 
 C                     16.17227  -0.71331   4.05778 
 C                     13.98944   3.52614   3.21642 
 C                     15.01852   3.10367  -1.38135 
 C                     16.56587  -1.31878  -0.79094 
 N                     15.22036   1.31219   3.34344 
 C                     15.48092   0.48266   4.34261 
 C                     15.04219   0.99974   5.73893 
 C                     13.89458   2.01958   5.268 
 C                     14.41154   2.33917   3.86683 
 C                     12.52792   1.36834   5.13587 
 C                     16.19994   1.74534   6.49107 
 C                     15.9394   2.00477   7.97652 
 H                     17.06634   1.93823   8.90283 
 N                     15.09982   3.2853    1.03043 
 C                     14.41563   3.99306   1.95361 
 C                     14.13524   5.29748   1.3339 
 C                     14.56587   5.24279  -0.08958 
 C                     14.8996   3.83775  -0.21022 
 C                     13.58949   6.46415   2.10491 
 C                     14.64974   6.28036  -1.16782 
 O                     14.82585   5.96165  -2.39674 
 C                     14.4264   7.6738   -0.75557 
 N                     15.58065   0.91493  -0.80187 
 C                     15.29509   1.84654  -1.72842 
 C                     15.48014   1.30189  -3.12467 
 C                     16.18521  -0.12169  -2.94057 
 C                     16.20572  -0.19633  -1.39804 
 C                     14.20328   1.13445  -3.94806 
 C                     17.51477  -0.35325  -3.70954 
 C                     18.59786   0.53963  -3.14823 
 N                     16.4586  -0.59464   1.54073 
 C                     16.7039  -1.58571   0.56518 
 C                     17.04349  -2.83037   1.28484 
 C                     16.94899  -2.48028   2.6402 
 C                     16.5571  -1.1193    2.75707 
 C                     17.33543  -4.08648   0.68228 
 C                     17.08129  -2.95545   3.99865 
 O                     17.47205  -3.9993    4.51964 
 C                     16.46132  -1.86722   4.97732 
 C                     17.43752  -1.64158   6.09921 
 O                     18.55154  -1.13606   5.87559 
 O                     16.81664  -1.85631   7.27342 
 C                     17.74114  -1.63418   8.417 
 H                     13.22748   4.13913   3.69864 
 H                     14.87691   3.66638  -2.30697 
 H                     16.92144  -2.1922   -1.34175 
 H                     14.62278   0.24389   6.39205 
 H                     13.88467   2.91491   5.88417 
 H                     12.57751   0.29758   5.26683 
 H                     12.18094   1.61207   4.14026 
 H                     11.81913   1.83633   5.82503 
 H                     16.25603   2.77922   6.12679 
 H                     17.12937   1.223     6.37305 
 H                     15.09495   1.41653   8.35577 
 H                     15.61858   3.04241   8.09652 
 H                     13.2162   6.15644   3.08947 
 H                     12.69717   6.81026   1.57213 
 H                     14.30008   7.29021   2.17801 
 H                     13.44205   7.76291  -0.30217 
 H                     14.61529   8.27596  -1.64641 
 H                     15.1552   7.92981   0.02156 
 H                     16.13021   1.94333  -3.70697 
 H                     15.54083  -0.94328  -3.2864 
 H                     14.22694   1.6856   -4.90709 
 H                     13.36402   1.45559  -3.34553 
 H                     13.93774   0.10543  -4.18431 
 H                     17.39779  -0.07636  -4.76016 
 H                     17.85486  -1.38314  -3.68386 
 H                     18.42419   1.49044  -3.66095 
 H                     19.58276   0.13983  -3.38098 
 H                     18.44966   0.71156  -2.07579 
 H                     18.18883  -4.49329   1.20832 
 H                     17.53704  -3.97984  -0.38156 
 H                     16.39786  -4.61609   0.87132 
 H                     15.50739  -2.25524   5.33653 
 H                     17.73665  -2.55121   9.01425 
 H                     17.3883  -0.70948   8.91116 
 H                     18.79695  -1.53135   8.19529 
 
 ITRead=  0  0  0  0  0  0  0  0  0  0  0  0  0  0  0  0  0  0  0  0
 ITRead=  0  0  0  0  0  0  0  0  0  0  0  0  0  0  0  0  0  0  0  0
 ITRead=  0  0  0  0  0  0  0  0  0  0  0  0  0  0  0  0  0  0  0  0
 ITRead=  0  0  0  0  0  0  0  0  0  0  0  0  0  0  0  0  0  0  0  0
 ITRead=  0  0  0  0  0  0  0  0  0  0  0  0  0  0  0  0  0  0  0  0
 ITRead=  0  0  0  0  0  0  0  0  0  0  0  0  0  0  0  0  0  0  0  0
 ITRead=  0  0  0  0  0  0  0  0  0  0  0  0  0  0  0  0  0  0  0  0
 ITRead=  0  0  0  0  0  0  0  0  0  0  0  0  0  0  0  0  0  0
 MicOpt= -1 -1 -1 -1 -1 -1 -1 -1 -1 -1 -1 -1 -1 -1 -1 -1 -1 -1 -1 -1
 MicOpt= -1 -1 -1 -1 -1 -1 -1 -1 -1 -1 -1 -1 -1 -1 -1 -1 -1 -1 -1 -1
 MicOpt= -1 -1 -1 -1 -1 -1 -1 -1 -1 -1 -1 -1 -1 -1 -1 -1 -1 -1 -1 -1
 MicOpt= -1 -1 -1 -1 -1 -1 -1 -1 -1 -1 -1 -1 -1 -1 -1 -1 -1 -1 -1 -1
 MicOpt= -1 -1 -1 -1 -1 -1 -1 -1 -1 -1 -1 -1 -1 -1 -1 -1 -1 -1 -1 -1
 MicOpt= -1 -1 -1 -1 -1 -1 -1 -1 -1 -1 -1 -1 -1 -1 -1 -1 -1 -1 -1 -1
 MicOpt= -1 -1 -1 -1 -1 -1 -1 -1 -1 -1 -1 -1 -1 -1 -1 -1 -1 -1 -1 -1
 MicOpt= -1 -1 -1 -1 -1 -1 -1 -1 -1 -1 -1 -1 -1 -1 -1 -1 -1 -1
 NAtoms=    158 NQM=      158 NQMF=       0 NMMI=      0 NMMIF=      0
                NMic=       0 NMicF=      0.
                    Isotopes and Nuclear Properties:
 (Nuclear quadrupole moments (NQMom) in fm**2, nuclear magnetic moments (NMagM)
  in nuclear magnetons)

  Atom         1           2           3           4           5           6           7           8           9          10
 IAtWgt=          24          12          12          12          12          14          12          12          12          12
 AtmWgt=  23.9850450  12.0000000  12.0000000  12.0000000  12.0000000  14.0030740  12.0000000  12.0000000  12.0000000  12.0000000
 NucSpn=           0           0           0           0           0           2           0           0           0           0
 AtZEff=  -0.0000000  -0.0000000  -0.0000000  -0.0000000  -0.0000000  -0.0000000  -0.0000000  -0.0000000  -0.0000000  -0.0000000
 NQMom=    0.0000000   0.0000000   0.0000000   0.0000000   0.0000000   2.0440000   0.0000000   0.0000000   0.0000000   0.0000000
 NMagM=    0.0000000   0.0000000   0.0000000   0.0000000   0.0000000   0.4037610   0.0000000   0.0000000   0.0000000   0.0000000
 AtZNuc=  12.0000000   6.0000000   6.0000000   6.0000000   6.0000000   7.0000000   6.0000000   6.0000000   6.0000000   6.0000000

  Atom        11          12          13          14          15          16          17          18          19          20
 IAtWgt=          12          12          12           1          14          12          12          12          12          12
 AtmWgt=  12.0000000  12.0000000  12.0000000   1.0078250  14.0030740  12.0000000  12.0000000  12.0000000  12.0000000  12.0000000
 NucSpn=           0           0           0           1           2           0           0           0           0           0
 AtZEff=  -0.0000000  -0.0000000  -0.0000000  -0.0000000  -0.0000000  -0.0000000  -0.0000000  -0.0000000  -0.0000000  -0.0000000
 NQMom=    0.0000000   0.0000000   0.0000000   0.0000000   2.0440000   0.0000000   0.0000000   0.0000000   0.0000000   0.0000000
 NMagM=    0.0000000   0.0000000   0.0000000   2.7928460   0.4037610   0.0000000   0.0000000   0.0000000   0.0000000   0.0000000
 AtZNuc=   6.0000000   6.0000000   6.0000000   1.0000000   7.0000000   6.0000000   6.0000000   6.0000000   6.0000000   6.0000000

  Atom        21          22          23          24          25          26          27          28          29          30
 IAtWgt=          12          16          12          14          12          12          12          12          12          12
 AtmWgt=  12.0000000  15.9949146  12.0000000  14.0030740  12.0000000  12.0000000  12.0000000  12.0000000  12.0000000  12.0000000
 NucSpn=           0           0           0           2           0           0           0           0           0           0
 AtZEff=  -0.0000000  -0.0000000  -0.0000000  -0.0000000  -0.0000000  -0.0000000  -0.0000000  -0.0000000  -0.0000000  -0.0000000
 NQMom=    0.0000000   0.0000000   0.0000000   2.0440000   0.0000000   0.0000000   0.0000000   0.0000000   0.0000000   0.0000000
 NMagM=    0.0000000   0.0000000   0.0000000   0.4037610   0.0000000   0.0000000   0.0000000   0.0000000   0.0000000   0.0000000
 AtZNuc=   6.0000000   8.0000000   6.0000000   7.0000000   6.0000000   6.0000000   6.0000000   6.0000000   6.0000000   6.0000000

  Atom        31          32          33          34          35          36          37          38          39          40
 IAtWgt=          12          14          12          12          12          12          12          12          16          12
 AtmWgt=  12.0000000  14.0030740  12.0000000  12.0000000  12.0000000  12.0000000  12.0000000  12.0000000  15.9949146  12.0000000
 NucSpn=           0           2           0           0           0           0           0           0           0           0
 AtZEff=  -0.0000000  -0.0000000  -0.0000000  -0.0000000  -0.0000000  -0.0000000  -0.0000000  -0.0000000  -0.0000000  -0.0000000
 NQMom=    0.0000000   2.0440000   0.0000000   0.0000000   0.0000000   0.0000000   0.0000000   0.0000000   0.0000000   0.0000000
 NMagM=    0.0000000   0.4037610   0.0000000   0.0000000   0.0000000   0.0000000   0.0000000   0.0000000   0.0000000   0.0000000
 AtZNuc=   6.0000000   7.0000000   6.0000000   6.0000000   6.0000000   6.0000000   6.0000000   6.0000000   8.0000000   6.0000000

  Atom        41          42          43          44          45          46          47          48          49          50
 IAtWgt=          12          16          16          12           1           1           1           1           1           1
 AtmWgt=  12.0000000  15.9949146  15.9949146  12.0000000   1.0078250   1.0078250   1.0078250   1.0078250   1.0078250   1.0078250
 NucSpn=           0           0           0           0           1           1           1           1           1           1
 AtZEff=  -0.0000000  -0.0000000  -0.0000000  -0.0000000  -0.0000000  -0.0000000  -0.0000000  -0.0000000  -0.0000000  -0.0000000
 NQMom=    0.0000000   0.0000000   0.0000000   0.0000000   0.0000000   0.0000000   0.0000000   0.0000000   0.0000000   0.0000000
 NMagM=    0.0000000   0.0000000   0.0000000   0.0000000   2.7928460   2.7928460   2.7928460   2.7928460   2.7928460   2.7928460
 AtZNuc=   6.0000000   8.0000000   8.0000000   6.0000000   1.0000000   1.0000000   1.0000000   1.0000000   1.0000000   1.0000000

  Atom        51          52          53          54          55          56          57          58          59          60
 IAtWgt=           1           1           1           1           1           1           1           1           1           1
 AtmWgt=   1.0078250   1.0078250   1.0078250   1.0078250   1.0078250   1.0078250   1.0078250   1.0078250   1.0078250   1.0078250
 NucSpn=           1           1           1           1           1           1           1           1           1           1
 AtZEff=  -0.0000000  -0.0000000  -0.0000000  -0.0000000  -0.0000000  -0.0000000  -0.0000000  -0.0000000  -0.0000000  -0.0000000
 NQMom=    0.0000000   0.0000000   0.0000000   0.0000000   0.0000000   0.0000000   0.0000000   0.0000000   0.0000000   0.0000000
 NMagM=    2.7928460   2.7928460   2.7928460   2.7928460   2.7928460   2.7928460   2.7928460   2.7928460   2.7928460   2.7928460
 AtZNuc=   1.0000000   1.0000000   1.0000000   1.0000000   1.0000000   1.0000000   1.0000000   1.0000000   1.0000000   1.0000000

  Atom        61          62          63          64          65          66          67          68          69          70
 IAtWgt=           1           1           1           1           1           1           1           1           1           1
 AtmWgt=   1.0078250   1.0078250   1.0078250   1.0078250   1.0078250   1.0078250   1.0078250   1.0078250   1.0078250   1.0078250
 NucSpn=           1           1           1           1           1           1           1           1           1           1
 AtZEff=  -0.0000000  -0.0000000  -0.0000000  -0.0000000  -0.0000000  -0.0000000  -0.0000000  -0.0000000  -0.0000000  -0.0000000
 NQMom=    0.0000000   0.0000000   0.0000000   0.0000000   0.0000000   0.0000000   0.0000000   0.0000000   0.0000000   0.0000000
 NMagM=    2.7928460   2.7928460   2.7928460   2.7928460   2.7928460   2.7928460   2.7928460   2.7928460   2.7928460   2.7928460
 AtZNuc=   1.0000000   1.0000000   1.0000000   1.0000000   1.0000000   1.0000000   1.0000000   1.0000000   1.0000000   1.0000000

  Atom        71          72          73          74          75          76          77          78          79          80
 IAtWgt=           1           1           1           1           1           1           1           1           1          24
 AtmWgt=   1.0078250   1.0078250   1.0078250   1.0078250   1.0078250   1.0078250   1.0078250   1.0078250   1.0078250  23.9850450
 NucSpn=           1           1           1           1           1           1           1           1           1           0
 AtZEff=  -0.0000000  -0.0000000  -0.0000000  -0.0000000  -0.0000000  -0.0000000  -0.0000000  -0.0000000  -0.0000000  -0.0000000
 NQMom=    0.0000000   0.0000000   0.0000000   0.0000000   0.0000000   0.0000000   0.0000000   0.0000000   0.0000000   0.0000000
 NMagM=    2.7928460   2.7928460   2.7928460   2.7928460   2.7928460   2.7928460   2.7928460   2.7928460   2.7928460   0.0000000
 AtZNuc=   1.0000000   1.0000000   1.0000000   1.0000000   1.0000000   1.0000000   1.0000000   1.0000000   1.0000000  12.0000000

  Atom        81          82          83          84          85          86          87          88          89          90
 IAtWgt=          12          12          12          12          14          12          12          12          12          12
 AtmWgt=  12.0000000  12.0000000  12.0000000  12.0000000  14.0030740  12.0000000  12.0000000  12.0000000  12.0000000  12.0000000
 NucSpn=           0           0           0           0           2           0           0           0           0           0
 AtZEff=  -0.0000000  -0.0000000  -0.0000000  -0.0000000  -0.0000000  -0.0000000  -0.0000000  -0.0000000  -0.0000000  -0.0000000
 NQMom=    0.0000000   0.0000000   0.0000000   0.0000000   2.0440000   0.0000000   0.0000000   0.0000000   0.0000000   0.0000000
 NMagM=    0.0000000   0.0000000   0.0000000   0.0000000   0.4037610   0.0000000   0.0000000   0.0000000   0.0000000   0.0000000
 AtZNuc=   6.0000000   6.0000000   6.0000000   6.0000000   7.0000000   6.0000000   6.0000000   6.0000000   6.0000000   6.0000000

  Atom        91          92          93          94          95          96          97          98          99         100
 IAtWgt=          12          12           1          14          12          12          12          12          12          12
 AtmWgt=  12.0000000  12.0000000   1.0078250  14.0030740  12.0000000  12.0000000  12.0000000  12.0000000  12.0000000  12.0000000
 NucSpn=           0           0           1           2           0           0           0           0           0           0
 AtZEff=  -0.0000000  -0.0000000  -0.0000000  -0.0000000  -0.0000000  -0.0000000  -0.0000000  -0.0000000  -0.0000000  -0.0000000
 NQMom=    0.0000000   0.0000000   0.0000000   2.0440000   0.0000000   0.0000000   0.0000000   0.0000000   0.0000000   0.0000000
 NMagM=    0.0000000   0.0000000   2.7928460   0.4037610   0.0000000   0.0000000   0.0000000   0.0000000   0.0000000   0.0000000
 AtZNuc=   6.0000000   6.0000000   1.0000000   7.0000000   6.0000000   6.0000000   6.0000000   6.0000000   6.0000000   6.0000000

  Atom       101         102         103         104         105         106         107         108         109         110
 IAtWgt=          16          12          14          12          12          12          12          12          12          12
 AtmWgt=  15.9949146  12.0000000  14.0030740  12.0000000  12.0000000  12.0000000  12.0000000  12.0000000  12.0000000  12.0000000
 NucSpn=           0           0           2           0           0           0           0           0           0           0
 AtZEff=  -0.0000000  -0.0000000  -0.0000000  -0.0000000  -0.0000000  -0.0000000  -0.0000000  -0.0000000  -0.0000000  -0.0000000
 NQMom=    0.0000000   0.0000000   2.0440000   0.0000000   0.0000000   0.0000000   0.0000000   0.0000000   0.0000000   0.0000000
 NMagM=    0.0000000   0.0000000   0.4037610   0.0000000   0.0000000   0.0000000   0.0000000   0.0000000   0.0000000   0.0000000
 AtZNuc=   8.0000000   6.0000000   7.0000000   6.0000000   6.0000000   6.0000000   6.0000000   6.0000000   6.0000000   6.0000000

  Atom       111         112         113         114         115         116         117         118         119         120
 IAtWgt=          14          12          12          12          12          12          12          16          12          12
 AtmWgt=  14.0030740  12.0000000  12.0000000  12.0000000  12.0000000  12.0000000  12.0000000  15.9949146  12.0000000  12.0000000
 NucSpn=           2           0           0           0           0           0           0           0           0           0
 AtZEff=  -0.0000000  -0.0000000  -0.0000000  -0.0000000  -0.0000000  -0.0000000  -0.0000000  -0.0000000  -0.0000000  -0.0000000
 NQMom=    2.0440000   0.0000000   0.0000000   0.0000000   0.0000000   0.0000000   0.0000000   0.0000000   0.0000000   0.0000000
 NMagM=    0.4037610   0.0000000   0.0000000   0.0000000   0.0000000   0.0000000   0.0000000   0.0000000   0.0000000   0.0000000
 AtZNuc=   7.0000000   6.0000000   6.0000000   6.0000000   6.0000000   6.0000000   6.0000000   8.0000000   6.0000000   6.0000000

  Atom       121         122         123         124         125         126         127         128         129         130
 IAtWgt=          16          16          12           1           1           1           1           1           1           1
 AtmWgt=  15.9949146  15.9949146  12.0000000   1.0078250   1.0078250   1.0078250   1.0078250   1.0078250   1.0078250   1.0078250
 NucSpn=           0           0           0           1           1           1           1           1           1           1
 AtZEff=  -0.0000000  -0.0000000  -0.0000000  -0.0000000  -0.0000000  -0.0000000  -0.0000000  -0.0000000  -0.0000000  -0.0000000
 NQMom=    0.0000000   0.0000000   0.0000000   0.0000000   0.0000000   0.0000000   0.0000000   0.0000000   0.0000000   0.0000000
 NMagM=    0.0000000   0.0000000   0.0000000   2.7928460   2.7928460   2.7928460   2.7928460   2.7928460   2.7928460   2.7928460
 AtZNuc=   8.0000000   8.0000000   6.0000000   1.0000000   1.0000000   1.0000000   1.0000000   1.0000000   1.0000000   1.0000000

  Atom       131         132         133         134         135         136         137         138         139         140
 IAtWgt=           1           1           1           1           1           1           1           1           1           1
 AtmWgt=   1.0078250   1.0078250   1.0078250   1.0078250   1.0078250   1.0078250   1.0078250   1.0078250   1.0078250   1.0078250
 NucSpn=           1           1           1           1           1           1           1           1           1           1
 AtZEff=  -0.0000000  -0.0000000  -0.0000000  -0.0000000  -0.0000000  -0.0000000  -0.0000000  -0.0000000  -0.0000000  -0.0000000
 NQMom=    0.0000000   0.0000000   0.0000000   0.0000000   0.0000000   0.0000000   0.0000000   0.0000000   0.0000000   0.0000000
 NMagM=    2.7928460   2.7928460   2.7928460   2.7928460   2.7928460   2.7928460   2.7928460   2.7928460   2.7928460   2.7928460
 AtZNuc=   1.0000000   1.0000000   1.0000000   1.0000000   1.0000000   1.0000000   1.0000000   1.0000000   1.0000000   1.0000000

  Atom       141         142         143         144         145         146         147         148         149         150
 IAtWgt=           1           1           1           1           1           1           1           1           1           1
 AtmWgt=   1.0078250   1.0078250   1.0078250   1.0078250   1.0078250   1.0078250   1.0078250   1.0078250   1.0078250   1.0078250
 NucSpn=           1           1           1           1           1           1           1           1           1           1
 AtZEff=  -0.0000000  -0.0000000  -0.0000000  -0.0000000  -0.0000000  -0.0000000  -0.0000000  -0.0000000  -0.0000000  -0.0000000
 NQMom=    0.0000000   0.0000000   0.0000000   0.0000000   0.0000000   0.0000000   0.0000000   0.0000000   0.0000000   0.0000000
 NMagM=    2.7928460   2.7928460   2.7928460   2.7928460   2.7928460   2.7928460   2.7928460   2.7928460   2.7928460   2.7928460
 AtZNuc=   1.0000000   1.0000000   1.0000000   1.0000000   1.0000000   1.0000000   1.0000000   1.0000000   1.0000000   1.0000000

  Atom       151         152         153         154         155         156         157         158
 IAtWgt=           1           1           1           1           1           1           1           1
 AtmWgt=   1.0078250   1.0078250   1.0078250   1.0078250   1.0078250   1.0078250   1.0078250   1.0078250
 NucSpn=           1           1           1           1           1           1           1           1
 AtZEff=  -0.0000000  -0.0000000  -0.0000000  -0.0000000  -0.0000000  -0.0000000  -0.0000000  -0.0000000
 NQMom=    0.0000000   0.0000000   0.0000000   0.0000000   0.0000000   0.0000000   0.0000000   0.0000000
 NMagM=    2.7928460   2.7928460   2.7928460   2.7928460   2.7928460   2.7928460   2.7928460   2.7928460
 AtZNuc=   1.0000000   1.0000000   1.0000000   1.0000000   1.0000000   1.0000000   1.0000000   1.0000000
 Leave Link  101 at Sat Sep 11 20:28:29 2021, MaxMem= 23488102400 cpu:               5.6 elap:               0.2
 (Enter /sw/apps/gaussian-16.0/g16/l202.exe)
 Stoichiometry    C68H72Mg2N8O8
 Framework group  C1[X(C68H72Mg2N8O8)]
 Deg. of freedom   468
 Full point group                 C1      NOp   1
 Largest Abelian subgroup         C1      NOp   1
 Largest concise Abelian subgroup C1      NOp   1
                         Standard orientation:                         
 ---------------------------------------------------------------------
 Center     Atomic      Atomic             Coordinates (Angstroms)
 Number     Number       Type             X           Y           Z
 ---------------------------------------------------------------------
      1         12           0       -7.928006   -0.584215    0.175734
      2          6           0       -8.034824    2.975827    0.531969
      3          6           0       -8.845782   -0.136855   -3.080126
      4          6           0       -8.282477   -3.727972   -0.042819
      5          6           0       -8.137457   -0.790152    3.648396
      6          7           0       -8.354815    1.237325   -1.007681
      7          6           0       -8.301561    2.544024   -0.769201
      8          6           0       -8.481410    3.413531   -2.049430
      9          6           0       -9.275906    2.368328   -2.954043
     10          6           0       -8.769623    1.077352   -2.335187
     11          6           0      -10.789431    2.436967   -2.777886
     12          6           0       -7.111694    3.807451   -2.697840
     13          6           0       -7.182601    4.916200   -3.751881
     14          1           0       -6.083987    5.865859   -3.844308
     15          7           0       -8.003599   -1.757703   -1.411736
     16          6           0       -8.384728   -1.404174   -2.662754
     17          6           0       -8.269460   -2.627803   -3.485023
     18          6           0       -7.972563   -3.764679   -2.569896
     19          6           0       -8.101931   -3.125219   -1.285477
     20          6           0       -8.388569   -2.629989   -4.978194
     21          6           0       -7.637374   -5.202114   -2.813949
     22          8           0       -7.644501   -6.070916   -1.876023
     23          6           0       -7.383434   -5.588979   -4.213554
     24          7           0       -8.395719   -2.061180    1.574825
     25          6           0       -8.428623   -3.352993    1.229689
     26          6           0       -8.502740   -4.239170    2.437637
     27          6           0       -8.267858   -3.288168    3.698660
     28          6           0       -8.175769   -1.931637    2.957301
     29          6           0       -9.815353   -5.013642    2.619978
     30          6           0       -7.124863   -3.677177    4.669564
     31          6           0       -5.788838   -3.520226    3.978550
     32          7           0       -7.885275    0.816210    1.833452
     33          6           0       -8.011221    0.512936    3.196843
     34          6           0       -8.031112    1.795158    3.924566
     35          6           0       -7.931385    2.762082    2.926089
     36          6           0       -7.880531    2.125109    1.653308
     37          6           0       -8.189428    1.953558    5.329656
     38          6           0       -7.880770    4.186001    2.636692
     39          8           0       -7.794355    5.207252    3.320119
     40          6           0       -8.068473    4.385468    1.067996
     41          6           0       -7.004505    5.340983    0.600802
     42          8           0       -5.799237    5.018384    0.625805
     43          8           0       -7.582468    6.381815   -0.018205
     44          6           0       -6.580529    7.353391   -0.532318
     45          1           0       -9.356516   -0.132945   -4.045049
     46          1           0       -8.298319   -4.819641   -0.063954
     47          1           0       -8.115504   -0.778456    4.739649
     48          1           0       -9.080076    4.313424   -1.907247
     49          1           0       -8.979463    2.428405   -4.001055
     50          1           0      -11.065728    3.105633   -1.962738
     51          1           0      -11.103236    1.416702   -2.556346
     52          1           0      -11.276908    2.703353   -3.716066
     53          1           0       -6.757697    2.984094   -3.318186
     54          1           0       -6.387433    4.084709   -1.931094
     55          1           0       -8.138240    5.439989   -3.715719
     56          1           0       -7.165412    4.451718   -4.737864
     57          1           0       -8.771700   -1.680816   -5.350786
     58          1           0       -9.161268   -3.354382   -5.234907
     59          1           0       -7.451978   -2.903741   -5.464187
     60          1           0       -8.264424   -5.363353   -4.814802
     61          1           0       -7.072316   -6.632655   -4.185334
     62          1           0       -6.575985   -4.972307   -4.609394
     63          1           0       -7.723023   -4.999354    2.413385
     64          1           0       -9.150086   -3.229335    4.336536
     65          1           0       -9.681266   -6.093784    2.683374
     66          1           0      -10.479472   -4.749626    1.797462
     67          1           0      -10.408299   -4.711440    3.482826
     68          1           0       -7.214369   -4.723148    4.960905
     69          1           0       -7.111940   -3.079033    5.580776
     70          1           0       -5.684582   -4.458194    3.434326
     71          1           0       -4.991643   -3.404668    4.713626
     72          1           0       -5.813625   -2.717053    3.241811
     73          1           0       -7.466512    2.710069    5.634703
     74          1           0       -8.024433    1.013259    5.855219
     75          1           0       -9.226919    2.283607    5.380028
     76          1           0       -9.071201    4.785392    0.920623
     77          1           0       -6.829297    8.326017   -0.107647
     78          1           0       -6.586304    7.259033   -1.618352
     79          1           0       -5.558515    7.227368   -0.173230
     80         12           0        7.946089   -0.983130   -0.093421
     81          6           0        8.463123    2.553400    0.230193
     82          6           0        6.482052   -0.342332   -3.106821
     83          6           0        7.074163   -4.031814   -0.206114
     84          6           0        8.390001   -1.223154    3.354917
     85          7           0        7.579580    0.902963   -1.189129
     86          6           0        7.875099    2.179592   -0.996157
     87          6           0        7.593939    3.096489   -2.216736
     88          6           0        6.474846    2.199207   -2.938796
     89          6           0        6.885283    0.825735   -2.411750
     90          6           0        5.064085    2.493729   -2.456778
     91          6           0        8.857444    3.282298   -3.128355
     92          6           0        8.745291    4.405327   -4.161783
     93          1           0        9.943092    5.175258   -4.485747
     94          7           0        7.378582   -2.100532   -1.632215
     95          6           0        6.823572   -1.674606   -2.786274
     96          6           0        6.571219   -2.885695   -3.582359
     97          6           0        6.870634   -4.073438   -2.737169
     98          6           0        7.104596   -3.434325   -1.457770
     99          6           0        6.168930   -2.840100   -5.027870
    100          6           0        6.923493   -5.542556   -3.028862
    101          8           0        6.970610   -6.414133   -2.090263
    102          6           0        6.824230   -5.934268   -4.442445
    103          7           0        7.548189   -2.391337    1.383384
    104          6           0        7.240545   -3.660565    1.063459
    105          6           0        7.267796   -4.552176    2.281937
    106          6           0        7.896615   -3.661592    3.451999
    107          6           0        8.048168   -2.322627    2.697284
    108          6           0        5.915486   -5.103585    2.733141
    109          6           0        9.136372   -4.239807    4.187753
    110          6           0       10.317992   -4.290810    3.246180
    111          7           0        8.533566    0.357059    1.496184
    112          6           0        8.630045    0.057170    2.872719
    113          6           0        8.953763    1.317955    3.571317
    114          6           0        9.000859    2.275866    2.547265
    115          6           0        8.706009    1.659625    1.301146
    116          6           0        9.112996    1.472750    4.977306
    117          6           0        9.222487    3.670209    2.238453
    118          8           0        9.592050    4.653662    2.878758
    119          6           0        8.759823    3.935948    0.741214
    120          6           0        9.843112    4.719973    0.052515
    121          8           0       10.962340    4.214326   -0.143051
    122          8           0        9.315887    5.850172   -0.452514
    123          6           0       10.349469    6.656482   -1.154931
    124          1           0        5.805023   -0.233871   -3.954609
    125          1           0        6.886817   -5.108081   -0.201842
    126          1           0        8.640802   -1.232865    4.417785
    127          1           0        7.187553    4.069913   -1.969597
    128          1           0        6.574807    2.238022   -4.020406
    129          1           0        5.058457    3.177013   -1.620579
    130          1           0        4.646604    1.538212   -2.167407
    131          1           0        4.449135    2.852234   -3.287230
    132          1           0        8.945307    2.417882   -3.799040
    133          1           0        9.738657    3.425152   -2.533658
    134          1           0        7.902631    5.075450   -3.952470
    135          1           0        8.501305    3.962430   -5.130460
    136          1           0        5.865388   -1.829943   -5.329260
    137          1           0        5.256381   -3.438207   -5.124835
    138          1           0        6.933092   -3.251279   -5.690928
    139          1           0        5.891052   -5.559641   -4.856318
    140          1           0        6.970971   -7.015993   -4.456933
    141          1           0        7.633093   -5.446879   -4.998155
    142          1           0        7.902634   -5.413968    2.116393
    143          1           0        7.174546   -3.485334    4.262791
    144          1           0        5.888789   -6.208586    2.781345
    145          1           0        5.154084   -4.733858    2.059271
    146          1           0        5.566826   -4.739176    3.697946
    147          1           0        8.944767   -5.268932    4.501354
    148          1           0        9.412822   -3.679114    5.074428
    149          1           0       10.159209   -5.226254    2.701373
    150          1           0       11.251858   -4.312707    3.804262
    151          1           0       10.275737   -3.473411    2.516986
    152          1           0        9.982491    2.099372    5.125044
    153          1           0        9.226398    0.510817    5.472885
    154          1           0        8.164652    1.954946    5.229081
    155          1           0        7.818982    4.486170    0.781827
    156          1           0       10.340667    7.652332   -0.701193
    157          1           0       10.099578    6.590812   -2.230571
    158          1           0       11.386001    6.371072   -1.018521
 ---------------------------------------------------------------------
 Rotational constants (GHZ):           0.0206924           0.0059105           0.0054607
 Leave Link  202 at Sat Sep 11 20:28:29 2021, MaxMem= 23488102400 cpu:               0.2 elap:               0.0
 (Enter /sw/apps/gaussian-16.0/g16/l301.exe)
 Standard basis: def2SVP (5D, 7F)
 Ernie: Thresh=  0.10000D-02 Tol=  0.10000D-05 Strict=F.
 There are  1658 symmetry adapted cartesian basis functions of A   symmetry.
 There are  1572 symmetry adapted basis functions of A   symmetry.
  1572 basis functions,  2678 primitive gaussians,  1658 cartesian basis functions
   312 alpha electrons      312 beta electrons
       nuclear repulsion energy     13730.6874176414 Hartrees.
 IExCor=20419 DFT=T Ex+Corr=CAM-B3LYP ExCW=0 ScaHFX=  1.000000
 ScaDFX=  1.000000  1.000000  1.000000  0.810000 ScalE2=  1.000000  1.000000
 IRadAn=      5 IRanWt=     -1 IRanGd=            0 ICorTp=0 IEmpDi=  4
 HFx  wShort=  0.000000 wLong=  0.330000 cFull=  0.190000 cShort=  0.000000 cLong=  0.460000
 DFx  wShort=  0.000000 wLong=  0.330000 cFull=  0.190000 cShort=  0.000000 cLong=  0.460000
 NAtoms=  158 NActive=  158 NUniq=  158 SFac= 1.00D+00 NAtFMM=   60 NAOKFM=T Big=T
 Integral buffers will be    131072 words long.
 Raffenetti 1 integral format.
 Two-electron integral symmetry is turned on.
 Leave Link  301 at Sat Sep 11 20:28:29 2021, MaxMem= 23488102400 cpu:               1.4 elap:               0.1
 (Enter /sw/apps/gaussian-16.0/g16/l302.exe)
 NPDir=0 NMtPBC=     1 NCelOv=     1 NCel=       1 NClECP=     1 NCelD=      1
         NCelK=      1 NCelE2=     1 NClLst=     1 CellRange=     0.0.
 One-electron integrals computed using PRISM.
 One-electron integral symmetry used in STVInt
   1 Symmetry operations used in ECPInt.
 ECPInt:  NShTT=  271216 NPrTT=  987664 LenC2=  107654 LenP2D=  244614.
 LDataN:  DoStor=T MaxTD1= 4 Len=   56
 NBasis=  1572 RedAO= T EigKep=  3.36D-04  NBF=  1572
 NBsUse=  1572 1.00D-06 EigRej= -1.00D+00 NBFU=  1572
 Precomputing XC quadrature grid using
 IXCGrd= 4 IRadAn=           5 IRanWt=          -1 IRanGd=           0 AccXCQ= 0.00D+00.
 Generated NRdTot=       0 NPtTot=           0 NUsed=           0 NTot=          32
 NSgBfM=   875   837   843   860   875 MxSgAt=   158 MxSgA2=   152.
 Leave Link  302 at Sat Sep 11 20:28:33 2021, MaxMem= 23488102400 cpu:             112.9 elap:               4.7
 (Enter /sw/apps/gaussian-16.0/g16/l303.exe)
 DipDrv:  MaxL=1.
 Leave Link  303 at Sat Sep 11 20:28:34 2021, MaxMem= 23488102400 cpu:               8.0 elap:               0.4
 (Enter /sw/apps/gaussian-16.0/g16/l308.exe)
 Leave Link  308 at Sat Sep 11 20:28:35 2021, MaxMem= 23488102400 cpu:              14.9 elap:               0.7
 (Enter /sw/apps/gaussian-16.0/g16/l401.exe)
 ExpMin= 3.36D-02 ExpMax= 4.95D+03 ExpMxC= 7.45D+02 IAcc=3 IRadAn=         5 AccDes= 0.00D+00
 Harris functional with IExCor=20419 and IRadAn=       5 diagonalized for initial guess.
 HarFok:  IExCor=20419 AccDes= 0.00D+00 IRadAn=         5 IDoV= 1 UseB2=F ITyADJ=14
 ICtDFT=  3500011 ScaDFX=  1.000000  1.000000  1.000000  1.000000
 FoFCou: FMM=F IPFlag=           0 FMFlag=      100000 FMFlg1=        2001
         NFxFlg=           0 DoJE=T BraDBF=F KetDBF=T FulRan=T
         wScrn=  0.000000 ICntrl=       500 IOpCl=  0 I1Cent=   200000004 NGrid=           0
         NMat0=    1 NMatS0=      1 NMatT0=    0 NMatD0=    1 NMtDS0=    0 NMtDT0=    0
 Petite list used in FoFCou.
 Harris En= -3918.65801235307    
 JPrj=0 DoOrth=F DoCkMO=F.
 Leave Link  401 at Sat Sep 11 20:28:41 2021, MaxMem= 23488102400 cpu:             163.7 elap:               6.9
 (Enter /sw/apps/gaussian-16.0/g16/l502.exe)
 Integral symmetry usage will be decided dynamically.
 Closed shell SCF:
 Using DIIS extrapolation, IDIIS=  1040.
 NGot= 23488102400 LenX= 23482547354 LenY= 23479796732
 Requested convergence on RMS density matrix=1.00D-08 within 128 cycles.
 Requested convergence on MAX density matrix=1.00D-06.
 Requested convergence on             energy=1.00D-06.
 No special actions if energy rises.
 Fock matrices will be formed incrementally for  20 cycles.

 Cycle   1  Pass 1  IDiag  1:
 FoFJK:  IHMeth= 1 ICntrl=       0 DoSepK=T KAlg= 0 I1Cent=           0 FoldK=F
 IRaf=         1 NMat=       1 IRICut=       1 DoRegI=T DoRafI=F ISym2E= 0 IDoP0=0 IntGTp=1.
 FoFCou: FMM=T IPFlag=           0 FMFlag=      100000 FMFlg1=        2001
         NFxFlg=           0 DoJE=T BraDBF=F KetDBF=F FulRan=T
         wScrn=  0.000000 ICntrl=       500 IOpCl=  0 I1Cent=           0 NGrid=           0
         NMat0=    1 NMatS0=      1 NMatT0=    0 NMatD0=    1 NMtDS0=    0 NMtDT0=    0
 Symmetry not used in FoFCou.
 FMM levels:  10  Number of levels for PrismC:   9
 E= -4068.94905382138    
 DIIS: error= 2.04D-02 at cycle   1 NSaved=   1.
 NSaved= 1 IEnMin= 1 EnMin= -4068.94905382138     IErMin= 1 ErrMin= 2.04D-02
 ErrMax= 2.04D-02  0.00D+00 EMaxC= 1.00D-01 BMatC= 1.69D+00 BMatP= 1.69D+00
 IDIUse=3 WtCom= 7.96D-01 WtEn= 2.04D-01
 Coeff-Com:  0.100D+01
 Coeff-En:   0.100D+01
 Coeff:      0.100D+01
 Gap=     0.120 Goal=   None    Shift=    0.000
 GapD=    0.120 DampG=1.000 DampE=0.500 DampFc=0.5000 IDamp=-1.
 Damping current iteration by 5.00D-01
 RMSDP=1.57D-03 MaxDP=1.35D-01              OVMax= 2.04D-01

 Cycle   2  Pass 1  IDiag  1:
 RMSU=  7.69D-04    CP:  9.82D-01
 E= -4069.33793843159     Delta-E=       -0.388884610209 Rises=F Damp=T
 DIIS: error= 1.27D-02 at cycle   2 NSaved=   2.
 NSaved= 2 IEnMin= 2 EnMin= -4069.33793843159     IErMin= 2 ErrMin= 1.27D-02
 ErrMax= 1.27D-02  0.00D+00 EMaxC= 1.00D-01 BMatC= 3.07D-01 BMatP= 1.69D+00
 IDIUse=3 WtCom= 8.73D-01 WtEn= 1.27D-01
 Coeff-Com: -0.213D+00 0.121D+01
 Coeff-En:   0.000D+00 0.100D+01
 Coeff:     -0.186D+00 0.119D+01
 Gap=     0.136 Goal=   None    Shift=    0.000
 RMSDP=7.65D-04 MaxDP=9.43D-02 DE=-3.89D-01 OVMax= 1.89D-01

 Cycle   3  Pass 1  IDiag  1:
 RMSU=  7.33D-04    CP:  9.68D-01  1.24D+00
 E= -4069.62729090590     Delta-E=       -0.289352474309 Rises=F Damp=F
 DIIS: error= 1.57D-02 at cycle   3 NSaved=   3.
 NSaved= 3 IEnMin= 3 EnMin= -4069.62729090590     IErMin= 2 ErrMin= 1.27D-02
 ErrMax= 1.57D-02  0.00D+00 EMaxC= 1.00D-01 BMatC= 2.02D-01 BMatP= 3.07D-01
 IDIUse=3 WtCom= 8.43D-01 WtEn= 1.57D-01
 Coeff-Com: -0.267D+00 0.652D+00 0.615D+00
 Coeff-En:   0.000D+00 0.000D+00 0.100D+01
 Coeff:     -0.225D+00 0.549D+00 0.676D+00
 Gap=     0.123 Goal=   None    Shift=    0.000
 RMSDP=5.09D-04 MaxDP=4.76D-02 DE=-2.89D-01 OVMax= 1.44D-01

 Cycle   4  Pass 1  IDiag  1:
 RMSU=  2.66D-04    CP:  9.65D-01  1.55D+00  5.05D-01
 E= -4069.76472986990     Delta-E=       -0.137438964000 Rises=F Damp=F
 DIIS: error= 7.24D-03 at cycle   4 NSaved=   4.
 NSaved= 4 IEnMin= 4 EnMin= -4069.76472986990     IErMin= 4 ErrMin= 7.24D-03
 ErrMax= 7.24D-03  0.00D+00 EMaxC= 1.00D-01 BMatC= 5.04D-02 BMatP= 2.02D-01
 IDIUse=3 WtCom= 9.28D-01 WtEn= 7.24D-02
 Coeff-Com: -0.109D+00 0.226D+00 0.409D+00 0.474D+00
 Coeff-En:   0.000D+00 0.000D+00 0.221D+00 0.779D+00
 Coeff:     -0.101D+00 0.210D+00 0.395D+00 0.496D+00
 Gap=     0.122 Goal=   None    Shift=    0.000
 RMSDP=2.01D-04 MaxDP=1.98D-02 DE=-1.37D-01 OVMax= 6.31D-02

 Cycle   5  Pass 1  IDiag  1:
 RMSU=  7.64D-05    CP:  9.64D-01  1.49D+00  6.89D-01  5.48D-01
 E= -4069.81042659496     Delta-E=       -0.045696725068 Rises=F Damp=F
 DIIS: error= 7.71D-04 at cycle   5 NSaved=   5.
 NSaved= 5 IEnMin= 5 EnMin= -4069.81042659496     IErMin= 5 ErrMin= 7.71D-04
 ErrMax= 7.71D-04  0.00D+00 EMaxC= 1.00D-01 BMatC= 1.19D-03 BMatP= 5.04D-02
 IDIUse=3 WtCom= 9.92D-01 WtEn= 7.71D-03
 Coeff-Com: -0.362D-01 0.711D-01 0.167D+00 0.250D+00 0.548D+00
 Coeff-En:   0.000D+00 0.000D+00 0.000D+00 0.000D+00 0.100D+01
 Coeff:     -0.359D-01 0.706D-01 0.165D+00 0.248D+00 0.552D+00
 Gap=     0.121 Goal=   None    Shift=    0.000
 RMSDP=4.16D-05 MaxDP=4.14D-03 DE=-4.57D-02 OVMax= 1.70D-02

 Cycle   6  Pass 1  IDiag  1:
 RMSU=  3.07D-05    CP:  9.64D-01  1.49D+00  6.81D-01  6.21D-01  7.51D-01
 E= -4069.81146803468     Delta-E=       -0.001041439718 Rises=F Damp=F
 DIIS: error= 2.06D-04 at cycle   6 NSaved=   6.
 NSaved= 6 IEnMin= 6 EnMin= -4069.81146803468     IErMin= 6 ErrMin= 2.06D-04
 ErrMax= 2.06D-04  0.00D+00 EMaxC= 1.00D-01 BMatC= 1.82D-04 BMatP= 1.19D-03
 IDIUse=3 WtCom= 9.98D-01 WtEn= 2.06D-03
 Coeff-Com:  0.218D-02-0.653D-02 0.115D-01 0.406D-01 0.307D+00 0.645D+00
 Coeff-En:   0.000D+00 0.000D+00 0.000D+00 0.000D+00 0.109D+00 0.891D+00
 Coeff:      0.218D-02-0.652D-02 0.114D-01 0.405D-01 0.307D+00 0.646D+00
 Gap=     0.122 Goal=   None    Shift=    0.000
 RMSDP=1.63D-05 MaxDP=1.18D-03 DE=-1.04D-03 OVMax= 7.41D-03

 Cycle   7  Pass 1  IDiag  1:
 RMSU=  1.09D-05    CP:  9.64D-01  1.50D+00  6.86D-01  6.20D-01  8.56D-01
                    CP:  7.44D-01
 E= -4069.81166594977     Delta-E=       -0.000197915091 Rises=F Damp=F
 DIIS: error= 8.44D-05 at cycle   7 NSaved=   7.
 NSaved= 7 IEnMin= 7 EnMin= -4069.81166594977     IErMin= 7 ErrMin= 8.44D-05
 ErrMax= 8.44D-05  0.00D+00 EMaxC= 1.00D-01 BMatC= 2.21D-05 BMatP= 1.82D-04
 IDIUse=1 WtCom= 1.00D+00 WtEn= 0.00D+00
 Coeff-Com:  0.449D-02-0.983D-02-0.891D-02-0.354D-02 0.105D+00 0.333D+00
 Coeff-Com:  0.581D+00
 Coeff:      0.449D-02-0.983D-02-0.891D-02-0.354D-02 0.105D+00 0.333D+00
 Coeff:      0.581D+00
 Gap=     0.122 Goal=   None    Shift=    0.000
 RMSDP=6.59D-06 MaxDP=1.07D-03 DE=-1.98D-04 OVMax= 3.39D-03

 Cycle   8  Pass 1  IDiag  1:
 RMSU=  4.72D-06    CP:  9.64D-01  1.50D+00  6.87D-01  6.25D-01  8.59D-01
                    CP:  8.69D-01  8.17D-01
 E= -4069.81169332433     Delta-E=       -0.000027374554 Rises=F Damp=F
 DIIS: error= 5.06D-05 at cycle   8 NSaved=   8.
 NSaved= 8 IEnMin= 8 EnMin= -4069.81169332433     IErMin= 8 ErrMin= 5.06D-05
 ErrMax= 5.06D-05  0.00D+00 EMaxC= 1.00D-01 BMatC= 4.91D-06 BMatP= 2.21D-05
 IDIUse=1 WtCom= 1.00D+00 WtEn= 0.00D+00
 Coeff-Com:  0.218D-02-0.432D-02-0.779D-02-0.122D-01-0.108D-01 0.336D-01
 Coeff-Com:  0.338D+00 0.661D+00
 Coeff:      0.218D-02-0.432D-02-0.779D-02-0.122D-01-0.108D-01 0.336D-01
 Coeff:      0.338D+00 0.661D+00
 Gap=     0.122 Goal=   None    Shift=    0.000
 RMSDP=3.31D-06 MaxDP=3.59D-04 DE=-2.74D-05 OVMax= 1.07D-03

 Cycle   9  Pass 1  IDiag  1:
 RMSU=  1.92D-06    CP:  9.64D-01  1.50D+00  6.88D-01  6.27D-01  8.76D-01
                    CP:  8.96D-01  1.01D+00  9.48D-01
 E= -4069.81170117853     Delta-E=       -0.000007854207 Rises=F Damp=F
 DIIS: error= 1.99D-05 at cycle   9 NSaved=   9.
 NSaved= 9 IEnMin= 9 EnMin= -4069.81170117853     IErMin= 9 ErrMin= 1.99D-05
 ErrMax= 1.99D-05  0.00D+00 EMaxC= 1.00D-01 BMatC= 7.09D-07 BMatP= 4.91D-06
 IDIUse=1 WtCom= 1.00D+00 WtEn= 0.00D+00
 Coeff-Com:  0.472D-03-0.786D-03-0.269D-02-0.603D-02-0.210D-01-0.392D-01
 Coeff-Com:  0.102D+00 0.328D+00 0.639D+00
 Coeff:      0.472D-03-0.786D-03-0.269D-02-0.603D-02-0.210D-01-0.392D-01
 Coeff:      0.102D+00 0.328D+00 0.639D+00
 Gap=     0.122 Goal=   None    Shift=    0.000
 RMSDP=1.43D-06 MaxDP=1.45D-04 DE=-7.85D-06 OVMax= 7.46D-04

 Cycle  10  Pass 1  IDiag  1:
 RMSU=  9.46D-07    CP:  9.64D-01  1.50D+00  6.88D-01  6.27D-01  8.79D-01
                    CP:  9.09D-01  1.06D+00  1.11D+00  1.06D+00
 E= -4069.81170280370     Delta-E=       -0.000001625162 Rises=F Damp=F
 DIIS: error= 1.04D-05 at cycle  10 NSaved=  10.
 NSaved=10 IEnMin=10 EnMin= -4069.81170280370     IErMin=10 ErrMin= 1.04D-05
 ErrMax= 1.04D-05  0.00D+00 EMaxC= 1.00D-01 BMatC= 1.74D-07 BMatP= 7.09D-07
 IDIUse=1 WtCom= 1.00D+00 WtEn= 0.00D+00
 Coeff-Com: -0.427D-03 0.895D-03 0.123D-02 0.110D-02-0.375D-02-0.312D-01
 Coeff-Com: -0.451D-01-0.757D-01 0.249D+00 0.904D+00
 Coeff:     -0.427D-03 0.895D-03 0.123D-02 0.110D-02-0.375D-02-0.312D-01
 Coeff:     -0.451D-01-0.757D-01 0.249D+00 0.904D+00
 Gap=     0.122 Goal=   None    Shift=    0.000
 RMSDP=1.23D-06 MaxDP=1.23D-04 DE=-1.63D-06 OVMax= 6.21D-04

 Cycle  11  Pass 1  IDiag  1:
 RMSU=  5.24D-07    CP:  9.64D-01  1.50D+00  6.88D-01  6.27D-01  8.81D-01
                    CP:  9.19D-01  1.11D+00  1.23D+00  1.39D+00  1.37D+00
 E= -4069.81170360519     Delta-E=       -0.000000801494 Rises=F Damp=F
 DIIS: error= 4.08D-06 at cycle  11 NSaved=  11.
 NSaved=11 IEnMin=11 EnMin= -4069.81170360519     IErMin=11 ErrMin= 4.08D-06
 ErrMax= 4.08D-06  0.00D+00 EMaxC= 1.00D-01 BMatC= 6.45D-08 BMatP= 1.74D-07
 IDIUse=1 WtCom= 1.00D+00 WtEn= 0.00D+00
 Coeff-Com: -0.332D-03 0.647D-03 0.134D-02 0.213D-02 0.440D-02-0.859D-02
 Coeff-Com: -0.427D-01-0.133D+00-0.272D-01 0.474D+00 0.729D+00
 Coeff:     -0.332D-03 0.647D-03 0.134D-02 0.213D-02 0.440D-02-0.859D-02
 Coeff:     -0.427D-01-0.133D+00-0.272D-01 0.474D+00 0.729D+00
 Gap=     0.122 Goal=   None    Shift=    0.000
 RMSDP=6.96D-07 MaxDP=6.13D-05 DE=-8.01D-07 OVMax= 3.82D-04

 Cycle  12  Pass 1  IDiag  1:
 RMSU=  2.67D-07    CP:  9.64D-01  1.50D+00  6.88D-01  6.28D-01  8.82D-01
                    CP:  9.21D-01  1.13D+00  1.29D+00  1.56D+00  1.76D+00
                    CP:  1.19D+00
 E= -4069.81170387543     Delta-E=       -0.000000270244 Rises=F Damp=F
 DIIS: error= 2.47D-06 at cycle  12 NSaved=  12.
 NSaved=12 IEnMin=12 EnMin= -4069.81170387543     IErMin=12 ErrMin= 2.47D-06
 ErrMax= 2.47D-06  0.00D+00 EMaxC= 1.00D-01 BMatC= 1.58D-08 BMatP= 6.45D-08
 IDIUse=1 WtCom= 1.00D+00 WtEn= 0.00D+00
 Coeff-Com: -0.683D-05-0.333D-05 0.206D-03 0.551D-03 0.341D-02 0.383D-02
 Coeff-Com:  0.209D-02-0.368D-01-0.698D-01-0.631D-01 0.258D+00 0.901D+00
 Coeff:     -0.683D-05-0.333D-05 0.206D-03 0.551D-03 0.341D-02 0.383D-02
 Coeff:      0.209D-02-0.368D-01-0.698D-01-0.631D-01 0.258D+00 0.901D+00
 Gap=     0.122 Goal=   None    Shift=    0.000
 RMSDP=4.38D-07 MaxDP=3.01D-05 DE=-2.70D-07 OVMax= 2.51D-04

 Cycle  13  Pass 1  IDiag  1:
 RMSU=  1.68D-07    CP:  9.64D-01  1.50D+00  6.88D-01  6.28D-01  8.83D-01
                    CP:  9.21D-01  1.13D+00  1.32D+00  1.67D+00  1.98D+00
                    CP:  1.60D+00  1.25D+00
 E= -4069.81170396895     Delta-E=       -0.000000093514 Rises=F Damp=F
 DIIS: error= 1.28D-06 at cycle  13 NSaved=  13.
 NSaved=13 IEnMin=13 EnMin= -4069.81170396895     IErMin=13 ErrMin= 1.28D-06
 ErrMax= 1.28D-06  0.00D+00 EMaxC= 1.00D-01 BMatC= 8.51D-09 BMatP= 1.58D-08
 IDIUse=1 WtCom= 1.00D+00 WtEn= 0.00D+00
 Coeff-Com:  0.120D-03-0.245D-03-0.367D-03-0.450D-03 0.639D-03 0.504D-02
 Coeff-Com:  0.193D-01 0.227D-01-0.338D-01-0.240D+00-0.156D+00 0.590D+00
 Coeff-Com:  0.792D+00
 Coeff:      0.120D-03-0.245D-03-0.367D-03-0.450D-03 0.639D-03 0.504D-02
 Coeff:      0.193D-01 0.227D-01-0.338D-01-0.240D+00-0.156D+00 0.590D+00
 Coeff:      0.792D+00
 Gap=     0.122 Goal=   None    Shift=    0.000
 RMSDP=3.47D-07 MaxDP=2.12D-05 DE=-9.35D-08 OVMax= 2.06D-04

 Cycle  14  Pass 1  IDiag  1:
 RMSU=  7.73D-08    CP:  9.64D-01  1.50D+00  6.88D-01  6.28D-01  8.83D-01
                    CP:  9.22D-01  1.14D+00  1.34D+00  1.75D+00  2.18D+00
                    CP:  1.86D+00  1.77D+00  1.10D+00
 E= -4069.81170400669     Delta-E=       -0.000000037744 Rises=F Damp=F
 DIIS: error= 6.97D-07 at cycle  14 NSaved=  14.
 NSaved=14 IEnMin=14 EnMin= -4069.81170400669     IErMin=14 ErrMin= 6.97D-07
 ErrMax= 6.97D-07  0.00D+00 EMaxC= 1.00D-01 BMatC= 1.32D-09 BMatP= 8.51D-09
 IDIUse=1 WtCom= 1.00D+00 WtEn= 0.00D+00
 Coeff-Com:  0.676D-04-0.133D-03-0.250D-03-0.391D-03-0.469D-03 0.130D-02
 Coeff-Com:  0.107D-01 0.195D-01 0.392D-02-0.101D+00-0.144D+00 0.890D-01
 Coeff-Com:  0.408D+00 0.713D+00
 Coeff:      0.676D-04-0.133D-03-0.250D-03-0.391D-03-0.469D-03 0.130D-02
 Coeff:      0.107D-01 0.195D-01 0.392D-02-0.101D+00-0.144D+00 0.890D-01
 Coeff:      0.408D+00 0.713D+00
 Gap=     0.122 Goal=   None    Shift=    0.000
 RMSDP=1.05D-07 MaxDP=6.77D-06 DE=-3.77D-08 OVMax= 5.72D-05

 Cycle  15  Pass 1  IDiag  1:
 RMSU=  3.86D-08    CP:  9.64D-01  1.50D+00  6.88D-01  6.28D-01  8.83D-01
                    CP:  9.22D-01  1.14D+00  1.35D+00  1.76D+00  2.22D+00
                    CP:  1.97D+00  1.91D+00  1.34D+00  1.03D+00
 E= -4069.81170401081     Delta-E=       -0.000000004118 Rises=F Damp=F
 DIIS: error= 3.19D-07 at cycle  15 NSaved=  15.
 NSaved=15 IEnMin=15 EnMin= -4069.81170401081     IErMin=15 ErrMin= 3.19D-07
 ErrMax= 3.19D-07  0.00D+00 EMaxC= 1.00D-01 BMatC= 2.25D-10 BMatP= 1.32D-09
 IDIUse=1 WtCom= 1.00D+00 WtEn= 0.00D+00
 Coeff-Com:  0.589D-05-0.997D-05-0.345D-04-0.845D-04-0.299D-03-0.508D-03
 Coeff-Com:  0.118D-02 0.270D-02 0.874D-02 0.881D-03-0.307D-01-0.725D-01
 Coeff-Com:  0.330D-01 0.293D+00 0.764D+00
 Coeff:      0.589D-05-0.997D-05-0.345D-04-0.845D-04-0.299D-03-0.508D-03
 Coeff:      0.118D-02 0.270D-02 0.874D-02 0.881D-03-0.307D-01-0.725D-01
 Coeff:      0.330D-01 0.293D+00 0.764D+00
 Gap=     0.122 Goal=   None    Shift=    0.000
 RMSDP=3.97D-08 MaxDP=2.48D-06 DE=-4.12D-09 OVMax= 2.79D-05

 Cycle  16  Pass 1  IDiag  1:
 RMSU=  1.88D-08    CP:  9.64D-01  1.50D+00  6.88D-01  6.28D-01  8.83D-01
                    CP:  9.22D-01  1.14D+00  1.35D+00  1.77D+00  2.24D+00
                    CP:  2.00D+00  1.97D+00  1.41D+00  1.24D+00  1.14D+00
 E= -4069.81170401182     Delta-E=       -0.000000001008 Rises=F Damp=F
 DIIS: error= 1.83D-07 at cycle  16 NSaved=  16.
 NSaved=16 IEnMin=16 EnMin= -4069.81170401182     IErMin=16 ErrMin= 1.83D-07
 ErrMax= 1.83D-07  0.00D+00 EMaxC= 1.00D-01 BMatC= 8.60D-11 BMatP= 2.25D-10
 IDIUse=1 WtCom= 1.00D+00 WtEn= 0.00D+00
 Coeff-Com: -0.141D-04 0.286D-04 0.463D-04 0.523D-04-0.316D-04-0.632D-03
 Coeff-Com: -0.191D-02-0.421D-02 0.442D-02 0.252D-01 0.207D-01-0.642D-01
 Coeff-Com: -0.806D-01-0.404D-01 0.402D+00 0.739D+00
 Coeff:     -0.141D-04 0.286D-04 0.463D-04 0.523D-04-0.316D-04-0.632D-03
 Coeff:     -0.191D-02-0.421D-02 0.442D-02 0.252D-01 0.207D-01-0.642D-01
 Coeff:     -0.806D-01-0.404D-01 0.402D+00 0.739D+00
 Gap=     0.122 Goal=   None    Shift=    0.000
 RMSDP=2.33D-08 MaxDP=1.61D-06 DE=-1.01D-09 OVMax= 1.22D-05

 Cycle  17  Pass 1  IDiag  1:
 RMSU=  1.05D-08    CP:  9.64D-01  1.50D+00  6.88D-01  6.28D-01  8.83D-01
                    CP:  9.22D-01  1.14D+00  1.35D+00  1.77D+00  2.24D+00
                    CP:  2.01D+00  1.99D+00  1.46D+00  1.34D+00  1.44D+00
                    CP:  1.24D+00
 E= -4069.81170401203     Delta-E=       -0.000000000215 Rises=F Damp=F
 DIIS: error= 9.20D-08 at cycle  17 NSaved=  17.
 NSaved=17 IEnMin=17 EnMin= -4069.81170401203     IErMin=17 ErrMin= 9.20D-08
 ErrMax= 9.20D-08  0.00D+00 EMaxC= 1.00D-01 BMatC= 1.80D-11 BMatP= 8.60D-11
 IDIUse=1 WtCom= 1.00D+00 WtEn= 0.00D+00
 Coeff-Com: -0.733D-05 0.143D-04 0.289D-04 0.427D-04 0.820D-04-0.130D-03
 Coeff-Com: -0.942D-03-0.283D-02 0.120D-03 0.943D-02 0.176D-01-0.772D-02
 Coeff-Com: -0.359D-01-0.101D+00-0.242D-01 0.288D+00 0.858D+00
 Coeff:     -0.733D-05 0.143D-04 0.289D-04 0.427D-04 0.820D-04-0.130D-03
 Coeff:     -0.942D-03-0.283D-02 0.120D-03 0.943D-02 0.176D-01-0.772D-02
 Coeff:     -0.359D-01-0.101D+00-0.242D-01 0.288D+00 0.858D+00
 Gap=     0.122 Goal=   None    Shift=    0.000
 RMSDP=1.36D-08 MaxDP=9.29D-07 DE=-2.15D-10 OVMax= 9.47D-06

 Cycle  18  Pass 1  IDiag  1:
 RMSU=  5.07D-09    CP:  9.64D-01  1.50D+00  6.88D-01  6.28D-01  8.83D-01
                    CP:  9.22D-01  1.14D+00  1.35D+00  1.77D+00  2.24D+00
                    CP:  2.01D+00  2.00D+00  1.48D+00  1.40D+00  1.61D+00
                    CP:  1.65D+00  1.38D+00
 E= -4069.81170401215     Delta-E=       -0.000000000120 Rises=F Damp=F
 DIIS: error= 6.30D-08 at cycle  18 NSaved=  18.
 NSaved=18 IEnMin=18 EnMin= -4069.81170401215     IErMin=18 ErrMin= 6.30D-08
 ErrMax= 6.30D-08  0.00D+00 EMaxC= 1.00D-01 BMatC= 7.63D-12 BMatP= 1.80D-11
 IDIUse=1 WtCom= 1.00D+00 WtEn= 0.00D+00
 Coeff-Com:  0.155D-05-0.343D-05-0.272D-05 0.873D-06 0.620D-04 0.169D-03
 Coeff-Com:  0.328D-03 0.661D-04-0.124D-02-0.540D-02 0.766D-03 0.185D-01
 Coeff-Com:  0.159D-01-0.362D-01-0.157D+00-0.177D+00 0.387D+00 0.954D+00
 Coeff:      0.155D-05-0.343D-05-0.272D-05 0.873D-06 0.620D-04 0.169D-03
 Coeff:      0.328D-03 0.661D-04-0.124D-02-0.540D-02 0.766D-03 0.185D-01
 Coeff:      0.159D-01-0.362D-01-0.157D+00-0.177D+00 0.387D+00 0.954D+00
 Gap=     0.122 Goal=   None    Shift=    0.000
 RMSDP=1.14D-08 MaxDP=7.25D-07 DE=-1.20D-10 OVMax= 5.97D-06

 Cycle  19  Pass 1  IDiag  1:
 RMSU=  3.01D-09    CP:  9.64D-01  1.50D+00  6.88D-01  6.28D-01  8.83D-01
                    CP:  9.22D-01  1.14D+00  1.35D+00  1.77D+00  2.24D+00
                    CP:  2.02D+00  2.00D+00  1.49D+00  1.45D+00  1.75D+00
                    CP:  1.95D+00  1.91D+00  1.29D+00
 E= -4069.81170401247     Delta-E=       -0.000000000313 Rises=F Damp=F
 DIIS: error= 3.21D-08 at cycle  19 NSaved=  19.
 NSaved=19 IEnMin=19 EnMin= -4069.81170401247     IErMin=19 ErrMin= 3.21D-08
 ErrMax= 3.21D-08  0.00D+00 EMaxC= 1.00D-01 BMatC= 1.83D-12 BMatP= 7.63D-12
 IDIUse=1 WtCom= 1.00D+00 WtEn= 0.00D+00
 Coeff-Com:  0.299D-05-0.606D-05-0.100D-04-0.122D-04 0.154D-04 0.129D-03
 Coeff-Com:  0.486D-03 0.807D-03-0.647D-03-0.620D-02-0.479D-02 0.129D-01
 Coeff-Com:  0.211D-01 0.988D-02-0.777D-01-0.191D+00-0.107D-01 0.524D+00
 Coeff-Com:  0.722D+00
 Coeff:      0.299D-05-0.606D-05-0.100D-04-0.122D-04 0.154D-04 0.129D-03
 Coeff:      0.486D-03 0.807D-03-0.647D-03-0.620D-02-0.479D-02 0.129D-01
 Coeff:      0.211D-01 0.988D-02-0.777D-01-0.191D+00-0.107D-01 0.524D+00
 Coeff:      0.722D+00
 Gap=     0.122 Goal=   None    Shift=    0.000
 RMSDP=4.90D-09 MaxDP=3.43D-07 DE=-3.13D-10 OVMax= 3.57D-06

 SCF Done:  E(RCAM-B3LYP) =  -4069.81170401     A.U. after   19 cycles
            NFock= 19  Conv=0.49D-08     -V/T= 2.0102
 KE= 4.028802045273D+03 PE=-3.694221672940D+04 EE= 1.511291556247D+04
 Leave Link  502 at Sat Sep 11 20:37:15 2021, MaxMem= 23488102400 cpu:           11725.8 elap:             513.0
 (Enter /sw/apps/gaussian-16.0/g16/l801.exe)
 DoSCS=F DFT=T ScalE2(SS,OS)=  1.000000  1.000000
 ExpMin= 3.36D-02 ExpMax= 4.95D+03 ExpMxC= 7.45D+02 IAcc=3 IRadAn=         5 AccDes= 0.00D+00
 HarFok:  IExCor=  205 AccDes= 0.00D+00 IRadAn=         5 IDoV=-2 UseB2=F ITyADJ=14
 ICtDFT= 12500011 ScaDFX=  1.000000  1.000000  1.000000  1.000000
 GSVD:  LWork=       -9588 too small for GESVD, short by       45590 words or       45590 for optimal perf.
 Largest valence mixing into a core orbital is  2.03D-04
 Largest core mixing into a valence orbital is  5.24D-05
 Range of M.O.s used for correlation:    95  1572
 NBasis=  1572 NAE=   312 NBE=   312 NFC=    94 NFV=     0
 NROrb=   1478 NOA=   218 NOB=   218 NVA=  1260 NVB=  1260
 Leave Link  801 at Sat Sep 11 20:37:15 2021, MaxMem= 23488102400 cpu:               9.7 elap:               0.4
 (Enter /sw/apps/gaussian-16.0/g16/l914.exe)
 RHF ground state
 Two-electron integrals replicated using symmetry.
 MDV= 23488102400 DFT=T DoStab=F Mixed=T DoRPA=T DoScal=F NonHer=T
 Making orbital integer symmetry assigments:
 Orbital symmetries:
       Occupied  (A) (A) (A) (A) (A) (A) (A) (A) (A) (A) (A) (A)
                 (A) (A) (A) (A) (A) (A) (A) (A) (A) (A) (A) (A)
                 (A) (A) (A) (A) (A) (A) (A) (A) (A) (A) (A) (A)
                 (A) (A) (A) (A) (A) (A) (A) (A) (A) (A) (A) (A)
                 (A) (A) (A) (A) (A) (A) (A) (A) (A) (A) (A) (A)
                 (A) (A) (A) (A) (A) (A) (A) (A) (A) (A) (A) (A)
                 (A) (A) (A) (A) (A) (A) (A) (A) (A) (A) (A) (A)
                 (A) (A) (A) (A) (A) (A) (A) (A) (A) (A) (A) (A)
                 (A) (A) (A) (A) (A) (A) (A) (A) (A) (A) (A) (A)
                 (A) (A) (A) (A) (A) (A) (A) (A) (A) (A) (A) (A)
                 (A) (A) (A) (A) (A) (A) (A) (A) (A) (A) (A) (A)
                 (A) (A) (A) (A) (A) (A) (A) (A) (A) (A) (A) (A)
                 (A) (A) (A) (A) (A) (A) (A) (A) (A) (A) (A) (A)
                 (A) (A) (A) (A) (A) (A) (A) (A) (A) (A) (A) (A)
                 (A) (A) (A) (A) (A) (A) (A) (A) (A) (A) (A) (A)
                 (A) (A) (A) (A) (A) (A) (A) (A) (A) (A) (A) (A)
                 (A) (A) (A) (A) (A) (A) (A) (A) (A) (A) (A) (A)
                 (A) (A) (A) (A) (A) (A) (A) (A) (A) (A) (A) (A)
                 (A) (A) (A) (A) (A) (A) (A) (A) (A) (A) (A) (A)
                 (A) (A) (A) (A) (A) (A) (A) (A) (A) (A) (A) (A)
                 (A) (A) (A) (A) (A) (A) (A) (A) (A) (A) (A) (A)
                 (A) (A) (A) (A) (A) (A) (A) (A) (A) (A) (A) (A)
                 (A) (A) (A) (A) (A) (A) (A) (A) (A) (A) (A) (A)
                 (A) (A) (A) (A) (A) (A) (A) (A) (A) (A) (A) (A)
                 (A) (A) (A) (A) (A) (A) (A) (A) (A) (A) (A) (A)
                 (A) (A) (A) (A) (A) (A) (A) (A) (A) (A) (A) (A)
       Virtual   (A) (A) (A) (A) (A) (A) (A) (A) (A) (A) (A) (A)
                 (A) (A) (A) (A) (A) (A) (A) (A) (A) (A) (A) (A)
                 (A) (A) (A) (A) (A) (A) (A) (A) (A) (A) (A) (A)
                 (A) (A) (A) (A) (A) (A) (A) (A) (A) (A) (A) (A)
                 (A) (A) (A) (A) (A) (A) (A) (A) (A) (A) (A) (A)
                 (A) (A) (A) (A) (A) (A) (A) (A) (A) (A) (A) (A)
                 (A) (A) (A) (A) (A) (A) (A) (A) (A) (A) (A) (A)
                 (A) (A) (A) (A) (A) (A) (A) (A) (A) (A) (A) (A)
                 (A) (A) (A) (A) (A) (A) (A) (A) (A) (A) (A) (A)
                 (A) (A) (A) (A) (A) (A) (A) (A) (A) (A) (A) (A)
                 (A) (A) (A) (A) (A) (A) (A) (A) (A) (A) (A) (A)
                 (A) (A) (A) (A) (A) (A) (A) (A) (A) (A) (A) (A)
                 (A) (A) (A) (A) (A) (A) (A) (A) (A) (A) (A) (A)
                 (A) (A) (A) (A) (A) (A) (A) (A) (A) (A) (A) (A)
                 (A) (A) (A) (A) (A) (A) (A) (A) (A) (A) (A) (A)
                 (A) (A) (A) (A) (A) (A) (A) (A) (A) (A) (A) (A)
                 (A) (A) (A) (A) (A) (A) (A) (A) (A) (A) (A) (A)
                 (A) (A) (A) (A) (A) (A) (A) (A) (A) (A) (A) (A)
                 (A) (A) (A) (A) (A) (A) (A) (A) (A) (A) (A) (A)
                 (A) (A) (A) (A) (A) (A) (A) (A) (A) (A) (A) (A)
                 (A) (A) (A) (A) (A) (A) (A) (A) (A) (A) (A) (A)
                 (A) (A) (A) (A) (A) (A) (A) (A) (A) (A) (A) (A)
                 (A) (A) (A) (A) (A) (A) (A) (A) (A) (A) (A) (A)
                 (A) (A) (A) (A) (A) (A) (A) (A) (A) (A) (A) (A)
                 (A) (A) (A) (A) (A) (A) (A) (A) (A) (A) (A) (A)
                 (A) (A) (A) (A) (A) (A) (A) (A) (A) (A) (A) (A)
                 (A) (A) (A) (A) (A) (A) (A) (A) (A) (A) (A) (A)
                 (A) (A) (A) (A) (A) (A) (A) (A) (A) (A) (A) (A)
                 (A) (A) (A) (A) (A) (A) (A) (A) (A) (A) (A) (A)
                 (A) (A) (A) (A) (A) (A) (A) (A) (A) (A) (A) (A)
                 (A) (A) (A) (A) (A) (A) (A) (A) (A) (A) (A) (A)
                 (A) (A) (A) (A) (A) (A) (A) (A) (A) (A) (A) (A)
                 (A) (A) (A) (A) (A) (A) (A) (A) (A) (A) (A) (A)
                 (A) (A) (A) (A) (A) (A) (A) (A) (A) (A) (A) (A)
                 (A) (A) (A) (A) (A) (A) (A) (A) (A) (A) (A) (A)
                 (A) (A) (A) (A) (A) (A) (A) (A) (A) (A) (A) (A)
                 (A) (A) (A) (A) (A) (A) (A) (A) (A) (A) (A) (A)
                 (A) (A) (A) (A) (A) (A) (A) (A) (A) (A) (A) (A)
                 (A) (A) (A) (A) (A) (A) (A) (A) (A) (A) (A) (A)
                 (A) (A) (A) (A) (A) (A) (A) (A) (A) (A) (A) (A)
                 (A) (A) (A) (A) (A) (A) (A) (A) (A) (A) (A) (A)
                 (A) (A) (A) (A) (A) (A) (A) (A) (A) (A) (A) (A)
                 (A) (A) (A) (A) (A) (A) (A) (A) (A) (A) (A) (A)
                 (A) (A) (A) (A) (A) (A) (A) (A) (A) (A) (A) (A)
                 (A) (A) (A) (A) (A) (A) (A) (A) (A) (A) (A) (A)
                 (A) (A) (A) (A) (A) (A) (A) (A) (A) (A) (A) (A)
                 (A) (A) (A) (A) (A) (A) (A) (A) (A) (A) (A) (A)
                 (A) (A) (A) (A) (A) (A) (A) (A) (A) (A) (A) (A)
                 (A) (A) (A) (A) (A) (A) (A) (A) (A) (A) (A) (A)
                 (A) (A) (A) (A) (A) (A) (A) (A) (A) (A) (A) (A)
                 (A) (A) (A) (A) (A) (A) (A) (A) (A) (A) (A) (A)
                 (A) (A) (A) (A) (A) (A) (A) (A) (A) (A) (A) (A)
                 (A) (A) (A) (A) (A) (A) (A) (A) (A) (A) (A) (A)
                 (A) (A) (A) (A) (A) (A) (A) (A) (A) (A) (A) (A)
                 (A) (A) (A) (A) (A) (A) (A) (A) (A) (A) (A) (A)
                 (A) (A) (A) (A) (A) (A) (A) (A) (A) (A) (A) (A)
                 (A) (A) (A) (A) (A) (A) (A) (A) (A) (A) (A) (A)
                 (A) (A) (A) (A) (A) (A) (A) (A) (A) (A) (A) (A)
                 (A) (A) (A) (A) (A) (A) (A) (A) (A) (A) (A) (A)
                 (A) (A) (A) (A) (A) (A) (A) (A) (A) (A) (A) (A)
                 (A) (A) (A) (A) (A) (A) (A) (A) (A) (A) (A) (A)
                 (A) (A) (A) (A) (A) (A) (A) (A) (A) (A) (A) (A)
                 (A) (A) (A) (A) (A) (A) (A) (A) (A) (A) (A) (A)
                 (A) (A) (A) (A) (A) (A) (A) (A) (A) (A) (A) (A)
                 (A) (A) (A) (A) (A) (A) (A) (A) (A) (A) (A) (A)
                 (A) (A) (A) (A) (A) (A) (A) (A) (A) (A) (A) (A)
                 (A) (A) (A) (A) (A) (A) (A) (A) (A) (A) (A) (A)
                 (A) (A) (A) (A) (A) (A) (A) (A) (A) (A) (A) (A)
                 (A) (A) (A) (A) (A) (A) (A) (A) (A) (A) (A) (A)
                 (A) (A) (A) (A) (A) (A) (A) (A) (A) (A) (A) (A)
                 (A) (A) (A) (A) (A) (A) (A) (A) (A) (A) (A) (A)
                 (A) (A) (A) (A) (A) (A) (A) (A) (A) (A) (A) (A)
                 (A) (A) (A) (A) (A) (A) (A) (A) (A) (A) (A) (A)
                 (A) (A) (A) (A) (A) (A) (A) (A) (A) (A) (A) (A)
                 (A) (A) (A) (A) (A) (A) (A) (A) (A) (A) (A) (A)
                 (A) (A) (A) (A) (A) (A) (A) (A) (A) (A) (A) (A)
                 (A) (A) (A) (A) (A) (A) (A) (A) (A) (A) (A) (A)
                 (A) (A) (A) (A) (A) (A) (A) (A) (A) (A) (A) (A)
                 (A) (A) (A) (A) (A) (A) (A) (A) (A) (A) (A) (A)
                 (A) (A) (A) (A) (A) (A) (A) (A) (A) (A) (A) (A)
                 (A) (A) (A) (A) (A) (A) (A) (A) (A) (A) (A) (A)
                 (A) (A) (A) (A) (A) (A) (A) (A) (A) (A) (A) (A)
                 (A) (A) (A) (A) (A) (A) (A) (A) (A) (A) (A) (A)
                 (A) (A) (A) (A) (A) (A) (A) (A) (A) (A) (A) (A)
                 (A) (A) (A) (A) (A) (A) (A) (A) (A) (A) (A) (A)
                 (A) (A) (A) (A) (A) (A) (A) (A) (A) (A) (A) (A)
                 (A) (A) (A) (A) (A) (A) (A) (A) (A) (A) (A) (A)
                 (A) (A) (A) (A) (A) (A) (A) (A) (A) (A) (A) (A)
                 (A) (A) (A) (A) (A) (A) (A) (A) (A) (A) (A) (A)
                 (A) (A) (A) (A) (A) (A) (A) (A) (A) (A) (A) (A)
                 (A) (A) (A) (A) (A) (A) (A) (A) (A) (A) (A) (A)
                 (A) (A) (A) (A) (A) (A) (A) (A) (A) (A) (A) (A)
                 (A) (A) (A) (A) (A) (A) (A) (A) (A) (A) (A) (A)
                 (A) (A) (A) (A) (A) (A) (A) (A) (A) (A) (A) (A)
                 (A) (A) (A) (A) (A) (A) (A) (A) (A) (A) (A) (A)
                 (A) (A) (A) (A) (A) (A) (A) (A) (A) (A) (A) (A)
                 (A) (A) (A) (A) (A) (A) (A) (A) (A) (A) (A) (A)
                 (A) (A) (A) (A) (A) (A) (A) (A) (A) (A) (A) (A)
                 (A) (A) (A) (A) (A) (A) (A) (A) (A) (A) (A) (A)
                 (A) (A) (A) (A) (A) (A) (A) (A) (A) (A) (A) (A)
                 (A) (A) (A) (A) (A) (A) (A) (A) (A) (A) (A) (A)
                 (A) (A) (A) (A) (A) (A) (A) (A) (A) (A) (A) (A)
                 (A) (A) (A) (A) (A) (A) (A) (A) (A) (A) (A) (A)
                 (A) (A) (A) (A) (A) (A) (A) (A) (A) (A) (A) (A)
                 (A) (A) (A) (A) (A) (A) (A) (A) (A) (A) (A) (A)
    20 initial guesses have been made.
 Convergence on wavefunction:    0.001000000000000
 Davidson Disk Diagonalization:  ConvIn= 1.00D-03 SkipCon=T Conv= 1.00D-03.
 Max sub-space:  2000 roots to seek:    20 dimension of matrix:       549360
 Iteration     1 Dimension    20 NMult     0 NNew     20
 CISAX will form    20 AO SS matrices at one time.
 NMat=    20 NSing=    20 JSym2X= 0.
 FoFJK:  IHMeth= 1 ICntrl=       0 DoSepK=T KAlg= 0 I1Cent=           0 FoldK=F
 IRaf=         1 NMat=      40 IRICut=       1 DoRegI=T DoRafI=F ISym2E= 0 IDoP0=3 IntGTp=3.
 FoFCou: FMM=T IPFlag=           0 FMFlag=      100000 FMFlg1=        2001
         NFxFlg=           0 DoJE=F BraDBF=F KetDBF=F FulRan=T
         wScrn=  0.000000 ICntrl=       500 IOpCl=  0 I1Cent=           0 NGrid=           0
         NMat0=   20 NMatS0=     20 NMatT0=    0 NMatD0=   20 NMtDS0=    0 NMtDT0=    0
 Symmetry not used in FoFCou.
 FMM levels:  10  Number of levels for PrismC:   9
 New state      1 was old state      7
 New state      2 was old state      6
 New state      3 was old state      2
 New state      4 was old state      3
 New state      5 was old state      1
 Excitation Energies [eV] at current iteration:
 Root      1 :     2.613285310746695
 Root      2 :     2.619772651224065
 Root      3 :     2.668613845184975
 Root      4 :     2.701997696617834
 Root      5 :     2.759156868857341
 Root      6 :     2.828950232660366
 Root      7 :     3.552660793250246
 Root      8 :     3.627322878784278
 Root      9 :     3.630712246568836
 Root     10 :     3.668531642799491
 Root     11 :     3.737345941153738
 Root     12 :     3.759824282454780
 Root     13 :     4.291952162930428
 Root     14 :     4.317380406893200
 Root     15 :     4.667664517790877
 Root     16 :     4.759540567527728
 Root     17 :     4.965376815517606
 Root     18 :     5.009694253867959
 Root     19 :     5.055754924802848
 Root     20 :     5.087752103859593
 Iteration     2 Dimension    30 NMult    20 NNew     10
 CISAX will form    10 AO SS matrices at one time.
 NMat=    10 NSing=    10 JSym2X= 0.
 New state      1 was old state      3
 Root      1 not converged, maximum delta is    0.154516841419238
 New state      2 was old state      4
 Root      2 not converged, maximum delta is    0.158554715413353
 New state      3 was old state      2
 Root      3 not converged, maximum delta is    0.405843150326883
 New state      4 was old state      1
 Root      4 not converged, maximum delta is    0.397452387168720
 Root      5 not converged, maximum delta is    0.002215669922044
 Excitation Energies [eV] at current iteration:
 Root      1 :     1.795557518083567   Change is   -0.873056327101408
 Root      2 :     1.812625538485892   Change is   -0.889372158131941
 Root      3 :     2.234785191360849   Change is   -0.384987459863215
 Root      4 :     2.239745728346842   Change is   -0.373539582399853
 Root      5 :     2.759011834949914   Change is   -0.000145033907427
 Iteration     3 Dimension    40 NMult    30 NNew     10
 CISAX will form    10 AO SS matrices at one time.
 NMat=    10 NSing=    10 JSym2X= 0.
 Root      1 not converged, maximum delta is    0.056077478813223
 Root      2 not converged, maximum delta is    0.057051760508779
 Root      3 not converged, maximum delta is    0.096688488079687
 Root      4 not converged, maximum delta is    0.096250917334279
 Root      5 has converged.
 Excitation Energies [eV] at current iteration:
 Root      1 :     1.688682890036514   Change is   -0.106874628047053
 Root      2 :     1.703935068135819   Change is   -0.108690470350073
 Root      3 :     2.193546464202079   Change is   -0.041238727158770
 Root      4 :     2.200622401500917   Change is   -0.039123326845926
 Root      5 :     2.759011201477621   Change is   -0.000000633472293
 Iteration     4 Dimension    48 NMult    40 NNew      8
 CISAX will form     8 AO SS matrices at one time.
 NMat=     8 NSing=     8 JSym2X= 0.
 Root      1 not converged, maximum delta is    0.010810478667386
 Root      2 not converged, maximum delta is    0.010781858917009
 Root      3 not converged, maximum delta is    0.012430119106793
 Root      4 not converged, maximum delta is    0.012313292473869
 Root      5 has converged.
 Excitation Energies [eV] at current iteration:
 Root      1 :     1.671947739586099   Change is   -0.016735150450416
 Root      2 :     1.687079807027421   Change is   -0.016855261108398
 Root      3 :     2.186263116672889   Change is   -0.007283347529191
 Root      4 :     2.193818799339235   Change is   -0.006803602161682
 Root      5 :     2.759011201477740   Change is    0.000000000000119
 Iteration     5 Dimension    56 NMult    48 NNew      8
 CISAX will form     8 AO SS matrices at one time.
 NMat=     8 NSing=     8 JSym2X= 0.
 Root      1 not converged, maximum delta is    0.001769896141462
 Root      2 not converged, maximum delta is    0.001798743359052
 Root      3 not converged, maximum delta is    0.002458278997370
 Root      4 not converged, maximum delta is    0.002323685870348
 Root      5 has converged.
 Excitation Energies [eV] at current iteration:
 Root      1 :     1.670186090823249   Change is   -0.001761648762850
 Root      2 :     1.685291759219979   Change is   -0.001788047807442
 Root      3 :     2.185418081823737   Change is   -0.000845034849151
 Root      4 :     2.193041916344165   Change is   -0.000776882995070
 Root      5 :     2.759011201477561   Change is   -0.000000000000179
 Iteration     6 Dimension    64 NMult    56 NNew      8
 CISAX will form     8 AO SS matrices at one time.
 NMat=     8 NSing=     8 JSym2X= 0.
 Root      1 not converged, maximum delta is    0.001100634525224
 Root      2 not converged, maximum delta is    0.001113785554315
 Root      3 not converged, maximum delta is    0.001047037383219
 Root      4 has converged.
 Root      5 has converged.
 Excitation Energies [eV] at current iteration:
 Root      1 :     1.669935290939397   Change is   -0.000250799883853
 Root      2 :     1.685034800156556   Change is   -0.000256959063423
 Root      3 :     2.185289931444232   Change is   -0.000128150379505
 Root      4 :     2.192923581146911   Change is   -0.000118335197253
 Root      5 :     2.759011201477592   Change is    0.000000000000030
 Iteration     7 Dimension    70 NMult    64 NNew      6
 CISAX will form     6 AO SS matrices at one time.
 NMat=     6 NSing=     6 JSym2X= 0.
 Root      1 has converged.
 Root      2 has converged.
 Root      3 has converged.
 Root      4 has converged.
 Root      5 has converged.
 Excitation Energies [eV] at current iteration:
 Root      1 :     1.669910906078945   Change is   -0.000024384860451
[...]
 Alpha virt. eigenvalues --    1.83541   1.83736   1.83911   1.84000   1.84225
 Alpha virt. eigenvalues --    1.84429   1.84542   1.84785   1.84809   1.85081
 Alpha virt. eigenvalues --    1.85139   1.85250   1.85353   1.85458   1.85504
 Alpha virt. eigenvalues --    1.85844   1.85920   1.86338   1.86399   1.86533
 Alpha virt. eigenvalues --    1.86668   1.86762   1.86840   1.87018   1.87059
 Alpha virt. eigenvalues --    1.87420   1.87501   1.87656   1.87789   1.87845
 Alpha virt. eigenvalues --    1.88016   1.88032   1.88195   1.88510   1.88591
 Alpha virt. eigenvalues --    1.88794   1.88964   1.89094   1.89108   1.89602
 Alpha virt. eigenvalues --    1.89675   1.89721   1.89889   1.90094   1.90208
 Alpha virt. eigenvalues --    1.90728   1.90916   1.91324   1.91421   1.91445
 Alpha virt. eigenvalues --    1.91617   1.92131   1.92204   1.92589   1.92676
 Alpha virt. eigenvalues --    1.92960   1.93170   1.93319   1.93519   1.94262
 Alpha virt. eigenvalues --    1.94323   1.94667   1.94831   1.95460   1.95610
 Alpha virt. eigenvalues --    1.95700   1.95832   1.95966   1.96066   1.96133
 Alpha virt. eigenvalues --    1.96192   1.96501   1.96573   1.96873   1.96952
 Alpha virt. eigenvalues --    1.97428   1.97557   1.97815   1.97821   1.98142
 Alpha virt. eigenvalues --    1.98189   1.98368   1.98646   1.99091   1.99110
 Alpha virt. eigenvalues --    1.99790   1.99949   2.00638   2.00744   2.00969
 Alpha virt. eigenvalues --    2.01114   2.01445   2.01523   2.01621   2.01653
 Alpha virt. eigenvalues --    2.01691   2.01841   2.02727   2.02759   2.03158
 Alpha virt. eigenvalues --    2.03215   2.03377   2.03395   2.03455   2.03538
 Alpha virt. eigenvalues --    2.04010   2.04042   2.04934   2.04991   2.05490
 Alpha virt. eigenvalues --    2.05642   2.06055   2.06298   2.06874   2.07051
 Alpha virt. eigenvalues --    2.07163   2.07367   2.08559   2.08564   2.08953
 Alpha virt. eigenvalues --    2.09020   2.09558   2.09626   2.10763   2.11048
 Alpha virt. eigenvalues --    2.11159   2.11423   2.11502   2.11546   2.11699
 Alpha virt. eigenvalues --    2.11880   2.12435   2.12481   2.12780   2.12810
 Alpha virt. eigenvalues --    2.12815   2.12889   2.13650   2.13727   2.14122
 Alpha virt. eigenvalues --    2.14271   2.15310   2.15419   2.15900   2.16104
 Alpha virt. eigenvalues --    2.16501   2.16608   2.16732   2.17192   2.17393
 Alpha virt. eigenvalues --    2.17664   2.17682   2.17956   2.18018   2.18052
 Alpha virt. eigenvalues --    2.18295   2.18688   2.18836   2.19253   2.19611
 Alpha virt. eigenvalues --    2.19834   2.20006   2.20189   2.20259   2.20450
 Alpha virt. eigenvalues --    2.21135   2.21184   2.21645   2.21719   2.21779
 Alpha virt. eigenvalues --    2.21888   2.22654   2.22717   2.23294   2.23358
 Alpha virt. eigenvalues --    2.24371   2.24430   2.24943   2.25013   2.26269
 Alpha virt. eigenvalues --    2.26456   2.26756   2.27022   2.27074   2.27218
 Alpha virt. eigenvalues --    2.28108   2.28333   2.29242   2.29452   2.29704
 Alpha virt. eigenvalues --    2.29896   2.30421   2.30637   2.30837   2.31055
 Alpha virt. eigenvalues --    2.31152   2.31215   2.32098   2.32251   2.33104
 Alpha virt. eigenvalues --    2.33247   2.33435   2.33496   2.34117   2.34154
 Alpha virt. eigenvalues --    2.35313   2.35340   2.35765   2.35923   2.36334
 Alpha virt. eigenvalues --    2.36343   2.36457   2.36595   2.37640   2.37689
 Alpha virt. eigenvalues --    2.38233   2.38386   2.38792   2.38818   2.39582
 Alpha virt. eigenvalues --    2.39679   2.40159   2.40276   2.40451   2.40839
 Alpha virt. eigenvalues --    2.41221   2.41230   2.41663   2.41700   2.42008
 Alpha virt. eigenvalues --    2.42140   2.42827   2.42923   2.43074   2.43500
 Alpha virt. eigenvalues --    2.43981   2.44138   2.44701   2.44813   2.44874
 Alpha virt. eigenvalues --    2.45002   2.45523   2.45580   2.46274   2.46290
 Alpha virt. eigenvalues --    2.46450   2.46503   2.46769   2.46808   2.47231
 Alpha virt. eigenvalues --    2.47386   2.47687   2.47893   2.49287   2.49395
 Alpha virt. eigenvalues --    2.49895   2.50046   2.50454   2.50525   2.51086
 Alpha virt. eigenvalues --    2.51276   2.51611   2.51851   2.52397   2.52400
 Alpha virt. eigenvalues --    2.52777   2.53171   2.53892   2.53971   2.54124
 Alpha virt. eigenvalues --    2.54279   2.54764   2.54813   2.55493   2.55670
 Alpha virt. eigenvalues --    2.57835   2.58080   2.58618   2.58909   2.60172
 Alpha virt. eigenvalues --    2.60305   2.60574   2.60926   2.61682   2.61822
 Alpha virt. eigenvalues --    2.62429   2.62498   2.62927   2.63129   2.63902
 Alpha virt. eigenvalues --    2.64222   2.64225   2.64425   2.65051   2.65099
 Alpha virt. eigenvalues --    2.65747   2.65859   2.66753   2.66816   2.66879
 Alpha virt. eigenvalues --    2.67059   2.67881   2.67981   2.68813   2.68825
 Alpha virt. eigenvalues --    2.68990   2.69029   2.69364   2.69591   2.69968
 Alpha virt. eigenvalues --    2.70135   2.70951   2.71066   2.71888   2.72023
 Alpha virt. eigenvalues --    2.72488   2.72622   2.72733   2.72793   2.73253
 Alpha virt. eigenvalues --    2.73279   2.73462   2.73497   2.74483   2.74503
 Alpha virt. eigenvalues --    2.74944   2.75050   2.76516   2.76565   2.77063
 Alpha virt. eigenvalues --    2.77202   2.77425   2.77595   2.78161   2.78281
 Alpha virt. eigenvalues --    2.78682   2.78698   2.79103   2.79148   2.80245
 Alpha virt. eigenvalues --    2.80313   2.80552   2.80679   2.81088   2.81143
 Alpha virt. eigenvalues --    2.81901   2.81982   2.82315   2.82328   2.83721
 Alpha virt. eigenvalues --    2.83736   2.83830   2.83898   2.84517   2.84519
 Alpha virt. eigenvalues --    2.84859   2.84876   2.85638   2.85675   2.86646
 Alpha virt. eigenvalues --    2.86968   2.87162   2.87572   2.88124   2.88219
 Alpha virt. eigenvalues --    2.88482   2.88608   2.88860   2.88906   2.90462
 Alpha virt. eigenvalues --    2.90647   2.91059   2.91166   2.93119   2.93312
 Alpha virt. eigenvalues --    2.93758   2.94169   2.94532   2.94555   2.95324
 Alpha virt. eigenvalues --    2.95461   2.95827   2.96167   2.96357   2.96413
 Alpha virt. eigenvalues --    2.96858   2.97141   2.97776   2.98009   2.98172
 Alpha virt. eigenvalues --    2.98342   2.98345   2.98563   2.98576   2.98774
 Alpha virt. eigenvalues --    2.98856   2.98909   2.99558   2.99775   2.99995
 Alpha virt. eigenvalues --    3.00004   3.00186   3.00314   3.00427   3.00983
 Alpha virt. eigenvalues --    3.01890   3.01966   3.02000   3.02102   3.02697
 Alpha virt. eigenvalues --    3.02801   3.02942   3.03296   3.03299   3.03704
 Alpha virt. eigenvalues --    3.04042   3.04146   3.04413   3.04427   3.04521
 Alpha virt. eigenvalues --    3.04718   3.05274   3.05332   3.06082   3.06151
 Alpha virt. eigenvalues --    3.06763   3.06926   3.07898   3.08116   3.09338
 Alpha virt. eigenvalues --    3.09361   3.09654   3.10406   3.10413   3.10726
 Alpha virt. eigenvalues --    3.11312   3.11464   3.11879   3.11903   3.12160
 Alpha virt. eigenvalues --    3.12290   3.13244   3.13616   3.13633   3.13670
 Alpha virt. eigenvalues --    3.14057   3.14461   3.15903   3.15965   3.17238
 Alpha virt. eigenvalues --    3.17506   3.17855   3.18053   3.19013   3.19101
 Alpha virt. eigenvalues --    3.22272   3.22583   3.23919   3.24425   3.24648
 Alpha virt. eigenvalues --    3.25180   3.26478   3.26643   3.27381   3.27593
 Alpha virt. eigenvalues --    3.29067   3.29207   3.31364   3.31497   3.33170
 Alpha virt. eigenvalues --    3.33391   3.40244   3.40596   3.42790   3.42795
 Alpha virt. eigenvalues --    3.48635   3.48685   3.49994   3.50267   3.50822
 Alpha virt. eigenvalues --    3.51447   3.56525   3.56989   3.59076   3.59325
 Alpha virt. eigenvalues --    3.62501   3.62812   3.66089   3.66162   3.67153
 Alpha virt. eigenvalues --    3.67527   3.73241   3.74008   3.76029   3.76667
          Condensed to atoms (all electrons):
 Mulliken charges:
               1
     1  Mg   0.838590
     2  C   -0.003071
     3  C   -0.094349
     4  C   -0.045798
     5  C   -0.063868
     6  N   -0.256780
     7  C   -0.052536
     8  C   -0.013970
     9  C   -0.086973
    10  C    0.046233
    11  C    0.104802
    12  C    0.053559
    13  C   -0.071634
    14  H    0.035673
    15  N   -0.433147
    16  C    0.168325
    17  C   -0.177303
    18  C   -0.004020
    19  C    0.148674
    20  C    0.110207
    21  C    0.012268
    22  O   -0.249412
    23  C    0.062526
    24  N   -0.341135
    25  C    0.041222
    26  C   -0.028207
    27  C   -0.024011
    28  C    0.074855
    29  C    0.076122
    30  C    0.035101
    31  C   -0.004524
    32  N   -0.310497
    33  C    0.080425
    34  C   -0.169585
    35  C    0.008427
    36  C    0.082969
    37  C    0.127287
    38  C    0.046182
    39  O   -0.188202
    40  C   -0.005356
    41  C    0.212947
    42  O   -0.257288
    43  O   -0.304735
    44  C    0.157681
    45  H   -0.017646
    46  H   -0.016699
    47  H   -0.041319
    48  H    0.001045
    49  H   -0.004243
    50  H    0.025571
    51  H    0.016548
    52  H    0.016662
    53  H    0.010854
    54  H    0.043994
    55  H    0.018129
    56  H    0.017743
    57  H    0.005764
    58  H    0.026937
    59  H    0.039141
    60  H    0.037372
    61  H    0.035800
    62  H    0.031119
    63  H    0.016662
    64  H    0.009579
    65  H    0.023347
    66  H    0.012546
    67  H    0.004850
    68  H    0.006516
    69  H    0.004808
    70  H    0.008891
    71  H    0.018193
    72  H    0.028823
    73  H    0.047732
    74  H    0.009216
    75  H    0.046133
    76  H    0.035253
    77  H    0.043183
    78  H    0.046212
    79  H    0.053613
    80  Mg   0.838026
    81  C   -0.016778
    82  C   -0.087754
    83  C   -0.045480
    84  C   -0.064750
    85  N   -0.254577
    86  C   -0.049615
    87  C   -0.015120
    88  C   -0.090586
    89  C    0.045855
    90  C    0.114377
    91  C    0.062554
    92  C   -0.077755
    93  H    0.034636
    94  N   -0.423499
    95  C    0.162917
    96  C   -0.174699
    97  C   -0.007888
    98  C    0.152136
    99  C    0.099453
   100  C    0.015511
   101  O   -0.253221
   102  C    0.061246
   103  N   -0.350028
   104  C    0.037580
   105  C   -0.019857
   106  C   -0.034810
   107  C    0.088968
   108  C    0.073619
   109  C    0.034727
   110  C   -0.007632
   111  N   -0.324154
   112  C    0.078571
   113  C   -0.162995
   114  C    0.002389
   115  C    0.096208
   116  C    0.131440
   117  C    0.042542
   118  O   -0.187747
   119  C    0.000842
   120  C    0.211203
   121  O   -0.251181
   122  O   -0.305482
   123  C    0.152089
   124  H   -0.019851
   125  H   -0.015637
   126  H   -0.040437
   127  H   -0.000416
   128  H   -0.004701
   129  H    0.023117
   130  H    0.014764
   131  H    0.016118
   132  H    0.013759
   133  H    0.037620
   134  H    0.020898
   135  H    0.019354
   136  H    0.008547
   137  H    0.025874
   138  H    0.039508
   139  H    0.038082
   140  H    0.036243
   141  H    0.033756
   142  H    0.014247
   143  H    0.012565
   144  H    0.024987
   145  H    0.011918
   146  H    0.005756
   147  H    0.006170
   148  H    0.003641
   149  H    0.010853
   150  H    0.017807
   151  H    0.030116
   152  H    0.045912
   153  H    0.008411
   154  H    0.047428
   155  H    0.035548
   156  H    0.043944
   157  H    0.049374
   158  H    0.053445
 Sum of Mulliken charges =  -0.00000
 Mulliken charges with hydrogens summed into heavy atoms:
               1
     1  Mg   0.838590
     2  C   -0.003071
     3  C   -0.111996
     4  C   -0.062498
     5  C   -0.105187
     6  N   -0.256780
     7  C   -0.052536
     8  C   -0.012925
     9  C   -0.091217
    10  C    0.046233
    11  C    0.163583
    12  C    0.108407
    13  C   -0.000089
    15  N   -0.433147
    16  C    0.168325
    17  C   -0.177303
    18  C   -0.004020
    19  C    0.148674
    20  C    0.182049
    21  C    0.012268
    22  O   -0.249412
    23  C    0.166818
    24  N   -0.341135
    25  C    0.041222
    26  C   -0.011546
    27  C   -0.014432
    28  C    0.074855
    29  C    0.116866
    30  C    0.046426
    31  C    0.051383
    32  N   -0.310497
    33  C    0.080425
    34  C   -0.169585
    35  C    0.008427
    36  C    0.082969
    37  C    0.230368
    38  C    0.046182
    39  O   -0.188202
    40  C    0.029897
    41  C    0.212947
    42  O   -0.257288
    43  O   -0.304735
    44  C    0.300688
    80  Mg   0.838026
    81  C   -0.016778
    82  C   -0.107605
    83  C   -0.061117
    84  C   -0.105187
    85  N   -0.254577
    86  C   -0.049615
    87  C   -0.015536
    88  C   -0.095287
    89  C    0.045855
    90  C    0.168376
    91  C    0.113932
    92  C   -0.002867
    94  N   -0.423499
    95  C    0.162917
    96  C   -0.174699
    97  C   -0.007888
    98  C    0.152136
    99  C    0.173382
   100  C    0.015511
   101  O   -0.253221
   102  C    0.169326
   103  N   -0.350028
   104  C    0.037580
   105  C   -0.005610
   106  C   -0.022244
   107  C    0.088968
   108  C    0.116280
   109  C    0.044538
   110  C    0.051143
   111  N   -0.324154
   112  C    0.078571
   113  C   -0.162995
   114  C    0.002389
   115  C    0.096208
   116  C    0.233191
   117  C    0.042542
   118  O   -0.187747
   119  C    0.036390
   120  C    0.211203
   121  O   -0.251181
   122  O   -0.305482
   123  C    0.298853
 Electronic spatial extent (au):  <R**2>=         194706.6488
 Charge=             -0.0000 electrons
 Dipole moment (field-independent basis, Debye):
    X=             -5.0598    Y=             -1.6082    Z=             -7.1783  Tot=              8.9284
 Quadrupole moment (field-independent basis, Debye-Ang):
   XX=           -532.7790   YY=           -545.3088   ZZ=           -451.8740
   XY=             -9.8611   XZ=              6.9214   YZ=            -51.4205
 Traceless Quadrupole moment (field-independent basis, Debye-Ang):
   XX=            -22.7917   YY=            -35.3216   ZZ=             58.1133
   XY=             -9.8611   XZ=              6.9214   YZ=            -51.4205
 Octapole moment (field-independent basis, Debye-Ang**2):
  XXX=          -1030.8094  YYY=            429.3187  ZZZ=            -95.3556  XYY=             61.5245
  XXY=           -198.0885  XXZ=           -436.8853  XZZ=            -32.4572  YZZ=           -222.3374
  YYZ=           -173.2222  XYZ=            -29.5457
 Hexadecapole moment (field-independent basis, Debye-Ang**3):
 XXXX=        -206383.4384 YYYY=         -42121.5151 ZZZZ=         -23243.8252 XXXY=          -2493.6597
 XXXZ=            353.5996 YYYX=            736.9120 YYYZ=          -1677.7801 ZZZX=            217.6660
 ZZZY=            231.9822 XXYY=         -42128.0622 XXZZ=         -33999.7191 YYZZ=         -10746.0396
 XXYZ=          -3832.1973 YYXZ=            -61.8393 ZZXY=            119.5681
 N-N= 1.373068741764D+04 E-N=-3.694221672427D+04  KE= 4.028802045273D+03
 Leave Link  601 at Sat Sep 11 20:57:57 2021, MaxMem= 23488102400 cpu:              15.8 elap:               0.8
 (Enter /sw/apps/gaussian-16.0/g16/l9999.exe)
 1\1\GINC-BP1-COMPUTE00099\SP\RCAM-B3LYP TD-FC\def2SVP\C68H72Mg2N8O8\OF
 15641\11-Sep-2021\0\\#p cam-b3lyp/Def2SVP td=(nstates=5)\\TDDFT excite
 d states in gaussian\\0,1\Mg,0,0.,0.,0.\C,0,-0.217,-2.218,2.801\C,0,-1
 .255,2.442,2.026\C,0,-0.245,1.85,-2.564\C,0,0.146,-2.824,-2.037\N,0,-0
 .617,-0.009,2.126\C,0,-0.594,-0.908,3.105\C,0,-0.936,-0.309,4.502\C,0,
 -1.773,0.964,4.032\C,0,-1.155,1.168,2.66\C,0,-3.263,0.685,3.863\C,0,0.
 345,0.11,5.299\C,0,0.124,0.397,6.787\H,0,1.168,0.033,7.733\N,0,-0.185,
 1.961,-0.152\C,0,-0.703,2.8,0.777\C,0,-0.62,4.156,0.193\C,0,-0.187,4.0
 15,-1.225\C,0,-0.214,2.583,-1.38\C,0,-0.887,5.406,0.974\C,0,0.181,5.01
 3,-2.277\O,0,0.303,4.69,-3.508\C,0,0.31,6.414,-1.837\N,0,-0.265,-0.413
 ,-2.029\C,0,-0.279,0.569,-2.937\C,0,-0.196,0.024,-4.332\C,0,0.124,-1.5
 33,-4.18\C,0,0.086,-1.632,-2.635\C,0,-1.451,0.205,-5.197\C,0,1.373,-2.
 07,-4.923\C,0,2.626,-1.49,-4.306\N,0,0.15,-2.144,0.303\C,0,0.173,-3.13
 6,-0.688\C,0,0.173,-4.438,0.004\C,0,0.133,-4.111,1.358\C,0,0.083,-2.69
 5,1.502\C,0,0.149,-5.715,-0.623\C,0,0.096,-4.629,2.716\O,0,0.208,-5.74
 7,3.221\C,0,-0.255,-3.428,3.701\C,0,0.717,-3.482,4.848\O,0,1.931,-3.25
 5,4.669\O,0,0.038,-3.556,6.003\C,0,0.943,-3.583,7.183\H,0,-1.859,3.22,
 2.497\H,0,-0.218,2.453,-3.474\H,0,0.276,-3.747,-2.605\H,0,-1.554,-0.94
 9,5.132\H,0,-1.585,1.831,4.665\H,0,-3.484,-0.377,3.969\H,0,-3.511,1.02
 7,2.858\H,0,-3.852,1.301,4.543\H,0,0.669,1.096,4.966\H,0,1.13,-0.639,5
 .189\H,0,-0.844,0.026,7.125\H,0,0.062,1.477,6.921\H,0,-1.344,5.186,1.9
 38\H,0,-1.651,5.963,0.432\H,0,0.007,6.02,1.084\H,0,-0.635,6.744,-1.405
 \H,0,0.665,6.97,-2.704\H,0,1.048,6.466,-1.036\H,0,0.608,0.501,-4.891\H
 ,0,-0.692,-2.156,-4.547\H,0,-1.267,0.74,-6.129\H,0,-2.204,0.714,-4.596
 \H,0,-1.967,-0.72,-5.453\H,0,1.356,-1.759,-5.967\H,0,1.452,-3.157,-4.9
 02\H,0,2.714,-0.522,-4.798\H,0,3.487,-2.121,-4.529\H,0,2.495,-1.303,-3
 .24\H,0,0.867,-6.333,-0.084\H,0,0.404,-5.642,-1.68\H,0,-0.891,-5.999,-
 0.463\H,0,-1.283,-3.581,4.028\H,0,0.698,-4.478,7.755\H,0,0.833,-2.619,
 7.68\H,0,2.,-3.754,6.976\Mg,0,15.77133,1.4259,1.20434\C,0,16.17227,-0.
 71331,4.05778\C,0,13.98944,3.52614,3.21642\C,0,15.01852,3.10367,-1.381
 35\C,0,16.56587,-1.31878,-0.79094\N,0,15.22036,1.31219,3.34344\C,0,15.
 48092,0.48266,4.34261\C,0,15.04219,0.99974,5.73893\C,0,13.89458,2.0195
 8,5.268\C,0,14.41154,2.33917,3.86683\C,0,12.52792,1.36834,5.13587\C,0,
 16.19994,1.74534,6.49107\C,0,15.9394,2.00477,7.97652\H,0,17.06634,1.93
 823,8.90283\N,0,15.09982,3.2853,1.03043\C,0,14.41563,3.99306,1.95361\C
 ,0,14.13524,5.29748,1.3339\C,0,14.56587,5.24279,-0.08958\C,0,14.8996,3
 .83775,-0.21022\C,0,13.58949,6.46415,2.10491\C,0,14.64974,6.28036,-1.1
 6782\O,0,14.82585,5.96165,-2.39674\C,0,14.4264,7.6738,-0.75557\N,0,15.
 58065,0.91493,-0.80187\C,0,15.29509,1.84654,-1.72842\C,0,15.48014,1.30
 189,-3.12467\C,0,16.18521,-0.12169,-2.94057\C,0,16.20572,-0.19633,-1.3
 9804\C,0,14.20328,1.13445,-3.94806\C,0,17.51477,-0.35325,-3.70954\C,0,
 18.59786,0.53963,-3.14823\N,0,16.4586,-0.59464,1.54073\C,0,16.7039,-1.
 58571,0.56518\C,0,17.04349,-2.83037,1.28484\C,0,16.94899,-2.48028,2.64
 02\C,0,16.5571,-1.1193,2.75707\C,0,17.33543,-4.08648,0.68228\C,0,17.08
 129,-2.95545,3.99865\O,0,17.47205,-3.9993,4.51964\C,0,16.46132,-1.8672
 2,4.97732\C,0,17.43752,-1.64158,6.09921\O,0,18.55154,-1.13606,5.87559\
 O,0,16.81664,-1.85631,7.27342\C,0,17.74114,-1.63418,8.417\H,0,13.22748
 ,4.13913,3.69864\H,0,14.87691,3.66638,-2.30697\H,0,16.92144,-2.1922,-1
 .34175\H,0,14.62278,0.24389,6.39205\H,0,13.88467,2.91491,5.88417\H,0,1
 2.57751,0.29758,5.26683\H,0,12.18094,1.61207,4.14026\H,0,11.81913,1.83
 633,5.82503\H,0,16.25603,2.77922,6.12679\H,0,17.12937,1.223,6.37305\H,
 0,15.09495,1.41653,8.35577\H,0,15.61858,3.04241,8.09652\H,0,13.2162,6.
 15644,3.08947\H,0,12.69717,6.81026,1.57213\H,0,14.30008,7.29021,2.1780
 1\H,0,13.44205,7.76291,-0.30217\H,0,14.61529,8.27596,-1.64641\H,0,15.1
 552,7.92981,0.02156\H,0,16.13021,1.94333,-3.70697\H,0,15.54083,-0.9432
 8,-3.2864\H,0,14.22694,1.6856,-4.90709\H,0,13.36402,1.45559,-3.34553\H
 ,0,13.93774,0.10543,-4.18431\H,0,17.39779,-0.07636,-4.76016\H,0,17.854
 86,-1.38314,-3.68386\H,0,18.42419,1.49044,-3.66095\H,0,19.58276,0.1398
 3,-3.38098\H,0,18.44966,0.71156,-2.07579\H,0,18.18883,-4.49329,1.20832
 \H,0,17.53704,-3.97984,-0.38156\H,0,16.39786,-4.61609,0.87132\H,0,15.5
 0739,-2.25524,5.33653\H,0,17.73665,-2.55121,9.01425\H,0,17.3883,-0.709
 48,8.91116\H,0,18.79695,-1.53135,8.19529\\Version=ES64L-G16RevA.03\Sta
 te=1-A\HF=-4069.811704\RMSD=4.905e-09\PG=C01 [X(C68H72Mg2N8O8)]\\@


 LOGIC IS A SYSTEMATIC METHOD OF COMING TO THE
 WRONG CONCLUSION WITH CONFIDENCE.
 Job cpu time:       0 days 11 hours 31 minutes 56.8 seconds.
 Elapsed time:       0 days  0 hours 29 minutes 25.9 seconds.
 File lengths (MBytes):  RWF=  13225 Int=      0 D2E=      0 Chk=    574 Scr=      1
 Normal termination of Gaussian 16 at Sat Sep 11 20:57:58 2021.
