 Entering Gaussian System, Link 0=g16
 Initial command:
 /sw/apps/gaussian-16.0/g16/l1.exe "/tmp/Gau-105359.inp" -scrdir="/tmp/"
 Entering Link 1 = /sw/apps/gaussian-16.0/g16/l1.exe PID=    105360.
  
 Copyright (c) 1988,1990,1992,1993,1995,1998,2003,2009,2016,
            Gaussian, Inc.  All Rights Reserved.
  
 This is part of the Gaussian(R) 16 program.  It is based on
 the Gaussian(R) 09 system (copyright 2009, Gaussian, Inc.),
 the Gaussian(R) 03 system (copyright 2003, Gaussian, Inc.),
 the Gaussian(R) 98 system (copyright 1998, Gaussian, Inc.),
 the Gaussian(R) 94 system (copyright 1995, Gaussian, Inc.),
 the Gaussian 92(TM) system (copyright 1992, Gaussian, Inc.),
 the Gaussian 90(TM) system (copyright 1990, Gaussian, Inc.),
 the Gaussian 88(TM) system (copyright 1988, Gaussian, Inc.),
 the Gaussian 86(TM) system (copyright 1986, Carnegie Mellon
 University), and the Gaussian 82(TM) system (copyright 1983,
 Carnegie Mellon University). Gaussian is a federally registered
 trademark of Gaussian, Inc.
  
 This software contains proprietary and confidential information,
 including trade secrets, belonging to Gaussian, Inc.
  
 This software is provided under written license and may be
 used, copied, transmitted, or stored only in accord with that
 written license.
  
 The following legend is applicable only to US Government
 contracts under FAR:
  
                    RESTRICTED RIGHTS LEGEND
  
 Use, reproduction and disclosure by the US Government is
 subject to restrictions as set forth in subparagraphs (a)
 and (c) of the Commercial Computer Software - Restricted
 Rights clause in FAR 52.227-19.
  
 Gaussian, Inc.
 340 Quinnipiac St., Bldg. 40, Wallingford CT 06492
  
  
 ---------------------------------------------------------------
 Warning -- This program may not be used in any manner that
 competes with the business of Gaussian, Inc. or will provide
 assistance to any competitor of Gaussian, Inc.  The licensee
 of this program is prohibited from giving any competitor of
 Gaussian, Inc. access to this program.  By using this program,
 the user acknowledges that Gaussian, Inc. is engaged in the
 business of creating and licensing software in the field of
 computational chemistry and represents and warrants to the
 licensee that it is not a competitor of Gaussian, Inc. and that
 it will not use this program in any manner prohibited above.
 ---------------------------------------------------------------
  

 Cite this work as:
 Gaussian 16, Revision A.03,
 M. J. Frisch, G. W. Trucks, H. B. Schlegel, G. E. Scuseria, 
 M. A. Robb, J. R. Cheeseman, G. Scalmani, V. Barone, 
 G. A. Petersson, H. Nakatsuji, X. Li, M. Caricato, A. V. Marenich, 
 J. Bloino, B. G. Janesko, R. Gomperts, B. Mennucci, H. P. Hratchian, 
 J. V. Ortiz, A. F. Izmaylov, J. L. Sonnenberg, D. Williams-Young, 
 F. Ding, F. Lipparini, F. Egidi, J. Goings, B. Peng, A. Petrone, 
 T. Henderson, D. Ranasinghe, V. G. Zakrzewski, J. Gao, N. Rega, 
 G. Zheng, W. Liang, M. Hada, M. Ehara, K. Toyota, R. Fukuda, 
 J. Hasegawa, M. Ishida, T. Nakajima, Y. Honda, O. Kitao, H. Nakai, 
 T. Vreven, K. Throssell, J. A. Montgomery, Jr., J. E. Peralta, 
 F. Ogliaro, M. J. Bearpark, J. J. Heyd, E. N. Brothers, K. N. Kudin, 
 V. N. Staroverov, T. A. Keith, R. Kobayashi, J. Normand, 
 K. Raghavachari, A. P. Rendell, J. C. Burant, S. S. Iyengar, 
 J. Tomasi, M. Cossi, J. M. Millam, M. Klene, C. Adamo, R. Cammi, 
 J. W. Ochterski, R. L. Martin, K. Morokuma, O. Farkas, 
 J. B. Foresman, and D. J. Fox, Gaussian, Inc., Wallingford CT, 2016.
 
 ******************************************
 Gaussian 16:  ES64L-G16RevA.03 25-Dec-2016
                 3-Sep-2021 
 ******************************************
 %nproc=24
 Will use up to   24 processors via shared memory.
 %mem=175gb
 -----------------------------------
 #p cam-b3lyp/Def2SVP td=(nstates=5)
 -----------------------------------
 1/38=1,172=1/1;
 2/12=2,17=6,18=5,40=1/2;
 3/5=43,7=101,11=9,25=1,30=1,74=-40/1,2,3,8;
 4//1;
 5/5=2,38=5/2;
 8/6=1,10=1,108=5/1;
 9/41=5,42=1,70=2/14;
 6/7=2,8=2,9=2,10=2/1;
 99/5=1,9=1/99;
 Leave Link    1 at Fri Sep  3 14:13:51 2021, MaxMem= 23488102400 cpu:               0.7 elap:               0.0
 (Enter /sw/apps/gaussian-16.0/g16/l101.exe)
 --------------------------------
 TDDFT excited states in gaussian
 --------------------------------
 Symbolic Z-matrix:
 Charge =  0 Multiplicity = 1
 Mg                    0.        0.        0. 
 C                    -0.217    -2.218     2.801 
 C                    -1.255     2.442     2.026 
 C                    -0.245     1.85     -2.564 
 C                     0.146    -2.824    -2.037 
 N                    -0.617    -0.009     2.126 
 C                    -0.594    -0.908     3.105 
 C                    -0.936    -0.309     4.502 
 C                    -1.773     0.964     4.032 
 C                    -1.155     1.168     2.66 
 C                    -3.263     0.685     3.863 
 C                     0.345     0.11      5.299 
 C                     0.124     0.397     6.787 
 H                     1.168     0.033     7.733 
 N                    -0.185     1.961    -0.152 
 C                    -0.703     2.8       0.777 
 C                    -0.62      4.156     0.193 
 C                    -0.187     4.015    -1.225 
 C                    -0.214     2.583    -1.38 
 C                    -0.887     5.406     0.974 
 C                     0.181     5.013    -2.277 
 O                     0.303     4.69     -3.508 
 C                     0.31      6.414    -1.837 
 N                    -0.265    -0.413    -2.029 
 C                    -0.279     0.569    -2.937 
 C                    -0.196     0.024    -4.332 
 C                     0.124    -1.533    -4.18 
 C                     0.086    -1.632    -2.635 
 C                    -1.451     0.205    -5.197 
 C                     1.373    -2.07     -4.923 
 C                     2.626    -1.49     -4.306 
 N                     0.15     -2.144     0.303 
 C                     0.173    -3.136    -0.688 
 C                     0.173    -4.438     0.004 
 C                     0.133    -4.111     1.358 
 C                     0.083    -2.695     1.502 
 C                     0.149    -5.715    -0.623 
 C                     0.096    -4.629     2.716 
 O                     0.208    -5.747     3.221 
 C                    -0.255    -3.428     3.701 
 C                     0.717    -3.482     4.848 
 O                     1.931    -3.255     4.669 
 O                     0.038    -3.556     6.003 
 C                     0.943    -3.583     7.183 
 H                    -1.859     3.22      2.497 
 H                    -0.218     2.453    -3.474 
 H                     0.276    -3.747    -2.605 
 H                    -1.554    -0.949     5.132 
 H                    -1.585     1.831     4.665 
 H                    -3.484    -0.377     3.969 
 H                    -3.511     1.027     2.858 
 H                    -3.852     1.301     4.543 
 H                     0.669     1.096     4.966 
 H                     1.13     -0.639     5.189 
 H                    -0.844     0.026     7.125 
 H                     0.062     1.477     6.921 
 H                    -1.344     5.186     1.938 
 H                    -1.651     5.963     0.432 
 H                     0.007     6.02      1.084 
 H                    -0.635     6.744    -1.405 
 H                     0.665     6.97     -2.704 
 H                     1.048     6.466    -1.036 
 H                     0.608     0.501    -4.891 
 H                    -0.692    -2.156    -4.547 
 H                    -1.267     0.74     -6.129 
 H                    -2.204     0.714    -4.596 
 H                    -1.967    -0.72     -5.453 
 H                     1.356    -1.759    -5.967 
 H                     1.452    -3.157    -4.902 
 H                     2.714    -0.522    -4.798 
 H                     3.487    -2.121    -4.529 
 H                     2.495    -1.303    -3.24 
 H                     0.867    -6.333    -0.084 
 H                     0.404    -5.642    -1.68 
 H                    -0.891    -5.999    -0.463 
 H                    -1.283    -3.581     4.028 
 H                     0.698    -4.478     7.755 
 H                     0.833    -2.619     7.68 
 H                     2.       -3.754     6.976 
 Mg                    7.89061   0.71333   0.59225 
 C                     7.3461    4.2523    0.83361 
 C                     7.23585   0.991    -2.74373 
 C                     7.91966  -2.45499   0.42398 
 C                     7.37564   0.53963   4.03468 
 N                     7.37141   2.45086  -0.67411 
 C                     7.25339   3.75627  -0.4835 
 C                     7.10299   4.5856   -1.78702 
 C                     6.51397   3.43366  -2.73831 
 C                     7.10185   2.21181  -2.03537 
 C                     4.99866   3.3295   -2.68986 
 C                     8.47948   5.12046  -2.31733 
 C                     8.37714   6.19038  -3.40662 
 H                     9.37154   7.25959  -3.42766 
 N                     8.10143  -0.4877   -0.97352 
 C                     7.80852  -0.20599  -2.26043 
 C                     8.12175  -1.42586  -3.02067 
 C                     8.46752  -2.50439  -2.0553 
 C                     8.14914  -1.84897  -0.80265 
 C                     8.15283  -1.46415  -4.521 
 C                     8.98536  -3.89978  -2.23118 
 O                     8.9889   -4.74331  -1.26615 
 C                     9.40133  -4.27833  -3.58954 
 N                     7.47088  -0.77626   1.98051 
 C                     7.61212  -2.07552   1.66444 
 C                     7.52251  -2.9487    2.89323 
 C                     7.53327  -1.94302   4.13664 
 C                     7.53748  -0.59928   3.37524 
 C                     6.29195  -3.85127   2.97964 
 C                     8.61689  -2.17986   5.224 
 C                     9.98866  -1.89452   4.65635 
 N                     7.62517   2.13336   2.19883 
 C                     7.39878   1.8458    3.5627 
 C                     7.16617   3.13447   4.24656 
 C                     7.25124   4.08799   3.22086 
 C                     7.49799   3.43763   1.98165 
 C                     6.86982   3.30112   5.62878 
 C                     7.17785   5.49591   2.90294 
 O                     7.07698   6.53085   3.56056 
 C                     7.11032   5.65433   1.32284 
 C                     8.0999    6.71287   0.91943 
 O                     9.31998   6.53022   1.07642 
 O                     7.46195   7.66866   0.21953 
 C                     8.4038    8.73555  -0.2123 
 H                     6.82617   0.92871  -3.75228 
 H                     8.02831  -3.54192   0.44056 
 H                     7.30507   0.57863   5.1238 
 H                     6.40225   5.40939  -1.723 
 H                     6.90548   3.51731  -3.7488 
 H                     4.57477   3.97102  -1.93164 
 H                     4.78194   2.29191  -2.47197 
 H                     4.57558   3.52437  -3.67949 
 H                     8.97933   4.32364  -2.88299 
 H                     9.0838    5.48421  -1.50917 
 H                     7.36481   6.60551  -3.48283 
 H                     8.54584   5.71565  -4.37625 
 H                     7.69423  -0.5675   -4.95585 
 H                     7.49668  -2.28366  -4.83361 
 H                     9.15474  -1.64286  -4.91712 
 H                     8.56154  -4.16093  -4.27029 
 H                     9.82466  -5.28038  -3.49694 
 H                     10.17783  -3.58161  -3.92457 
 H                     8.38111  -3.60506   2.96468 
 H                     6.58954  -1.98188   4.70029 
 H                     6.54361  -4.92347   3.08508 
 H                     5.68614  -3.68776   2.09828 
 H                     5.59884  -3.61134   3.78415 
 H                     8.6207   -3.22807   5.53287 
 H                     8.47065  -1.5815    6.11706 
 H                     10.24383  -2.8283    4.14642 
 H                     10.69521  -1.67464   5.45414 
 H                     9.94388  -1.10561   3.89657 
 H                     7.46428   4.13562   5.97624 
 H                     7.08497   2.39633   6.19343 
 H                     5.79727   3.5061    5.57496 
 H                     6.08728   5.93062   1.06473 
 H                     8.0044    9.68409   0.15976 
 H                     8.49864   8.62443  -1.30884 
 H                     9.39483   8.73682   0.22623 
 
 ITRead=  0  0  0  0  0  0  0  0  0  0  0  0  0  0  0  0  0  0  0  0
 ITRead=  0  0  0  0  0  0  0  0  0  0  0  0  0  0  0  0  0  0  0  0
 ITRead=  0  0  0  0  0  0  0  0  0  0  0  0  0  0  0  0  0  0  0  0
 ITRead=  0  0  0  0  0  0  0  0  0  0  0  0  0  0  0  0  0  0  0  0
 ITRead=  0  0  0  0  0  0  0  0  0  0  0  0  0  0  0  0  0  0  0  0
 ITRead=  0  0  0  0  0  0  0  0  0  0  0  0  0  0  0  0  0  0  0  0
 ITRead=  0  0  0  0  0  0  0  0  0  0  0  0  0  0  0  0  0  0  0  0
 ITRead=  0  0  0  0  0  0  0  0  0  0  0  0  0  0  0  0  0  0
 MicOpt= -1 -1 -1 -1 -1 -1 -1 -1 -1 -1 -1 -1 -1 -1 -1 -1 -1 -1 -1 -1
 MicOpt= -1 -1 -1 -1 -1 -1 -1 -1 -1 -1 -1 -1 -1 -1 -1 -1 -1 -1 -1 -1
 MicOpt= -1 -1 -1 -1 -1 -1 -1 -1 -1 -1 -1 -1 -1 -1 -1 -1 -1 -1 -1 -1
 MicOpt= -1 -1 -1 -1 -1 -1 -1 -1 -1 -1 -1 -1 -1 -1 -1 -1 -1 -1 -1 -1
 MicOpt= -1 -1 -1 -1 -1 -1 -1 -1 -1 -1 -1 -1 -1 -1 -1 -1 -1 -1 -1 -1
 MicOpt= -1 -1 -1 -1 -1 -1 -1 -1 -1 -1 -1 -1 -1 -1 -1 -1 -1 -1 -1 -1
 MicOpt= -1 -1 -1 -1 -1 -1 -1 -1 -1 -1 -1 -1 -1 -1 -1 -1 -1 -1 -1 -1
 MicOpt= -1 -1 -1 -1 -1 -1 -1 -1 -1 -1 -1 -1 -1 -1 -1 -1 -1 -1
 NAtoms=    158 NQM=      158 NQMF=       0 NMMI=      0 NMMIF=      0
                NMic=       0 NMicF=      0.
                    Isotopes and Nuclear Properties:
 (Nuclear quadrupole moments (NQMom) in fm**2, nuclear magnetic moments (NMagM)
  in nuclear magnetons)

  Atom         1           2           3           4           5           6           7           8           9          10
 IAtWgt=          24          12          12          12          12          14          12          12          12          12
 AtmWgt=  23.9850450  12.0000000  12.0000000  12.0000000  12.0000000  14.0030740  12.0000000  12.0000000  12.0000000  12.0000000
 NucSpn=           0           0           0           0           0           2           0           0           0           0
 AtZEff=  -0.0000000  -0.0000000  -0.0000000  -0.0000000  -0.0000000  -0.0000000  -0.0000000  -0.0000000  -0.0000000  -0.0000000
 NQMom=    0.0000000   0.0000000   0.0000000   0.0000000   0.0000000   2.0440000   0.0000000   0.0000000   0.0000000   0.0000000
 NMagM=    0.0000000   0.0000000   0.0000000   0.0000000   0.0000000   0.4037610   0.0000000   0.0000000   0.0000000   0.0000000
 AtZNuc=  12.0000000   6.0000000   6.0000000   6.0000000   6.0000000   7.0000000   6.0000000   6.0000000   6.0000000   6.0000000

  Atom        11          12          13          14          15          16          17          18          19          20
 IAtWgt=          12          12          12           1          14          12          12          12          12          12
 AtmWgt=  12.0000000  12.0000000  12.0000000   1.0078250  14.0030740  12.0000000  12.0000000  12.0000000  12.0000000  12.0000000
 NucSpn=           0           0           0           1           2           0           0           0           0           0
 AtZEff=  -0.0000000  -0.0000000  -0.0000000  -0.0000000  -0.0000000  -0.0000000  -0.0000000  -0.0000000  -0.0000000  -0.0000000
 NQMom=    0.0000000   0.0000000   0.0000000   0.0000000   2.0440000   0.0000000   0.0000000   0.0000000   0.0000000   0.0000000
 NMagM=    0.0000000   0.0000000   0.0000000   2.7928460   0.4037610   0.0000000   0.0000000   0.0000000   0.0000000   0.0000000
 AtZNuc=   6.0000000   6.0000000   6.0000000   1.0000000   7.0000000   6.0000000   6.0000000   6.0000000   6.0000000   6.0000000

  Atom        21          22          23          24          25          26          27          28          29          30
 IAtWgt=          12          16          12          14          12          12          12          12          12          12
 AtmWgt=  12.0000000  15.9949146  12.0000000  14.0030740  12.0000000  12.0000000  12.0000000  12.0000000  12.0000000  12.0000000
 NucSpn=           0           0           0           2           0           0           0           0           0           0
 AtZEff=  -0.0000000  -0.0000000  -0.0000000  -0.0000000  -0.0000000  -0.0000000  -0.0000000  -0.0000000  -0.0000000  -0.0000000
 NQMom=    0.0000000   0.0000000   0.0000000   2.0440000   0.0000000   0.0000000   0.0000000   0.0000000   0.0000000   0.0000000
 NMagM=    0.0000000   0.0000000   0.0000000   0.4037610   0.0000000   0.0000000   0.0000000   0.0000000   0.0000000   0.0000000
 AtZNuc=   6.0000000   8.0000000   6.0000000   7.0000000   6.0000000   6.0000000   6.0000000   6.0000000   6.0000000   6.0000000

  Atom        31          32          33          34          35          36          37          38          39          40
 IAtWgt=          12          14          12          12          12          12          12          12          16          12
 AtmWgt=  12.0000000  14.0030740  12.0000000  12.0000000  12.0000000  12.0000000  12.0000000  12.0000000  15.9949146  12.0000000
 NucSpn=           0           2           0           0           0           0           0           0           0           0
 AtZEff=  -0.0000000  -0.0000000  -0.0000000  -0.0000000  -0.0000000  -0.0000000  -0.0000000  -0.0000000  -0.0000000  -0.0000000
 NQMom=    0.0000000   2.0440000   0.0000000   0.0000000   0.0000000   0.0000000   0.0000000   0.0000000   0.0000000   0.0000000
 NMagM=    0.0000000   0.4037610   0.0000000   0.0000000   0.0000000   0.0000000   0.0000000   0.0000000   0.0000000   0.0000000
 AtZNuc=   6.0000000   7.0000000   6.0000000   6.0000000   6.0000000   6.0000000   6.0000000   6.0000000   8.0000000   6.0000000

  Atom        41          42          43          44          45          46          47          48          49          50
 IAtWgt=          12          16          16          12           1           1           1           1           1           1
 AtmWgt=  12.0000000  15.9949146  15.9949146  12.0000000   1.0078250   1.0078250   1.0078250   1.0078250   1.0078250   1.0078250
 NucSpn=           0           0           0           0           1           1           1           1           1           1
 AtZEff=  -0.0000000  -0.0000000  -0.0000000  -0.0000000  -0.0000000  -0.0000000  -0.0000000  -0.0000000  -0.0000000  -0.0000000
 NQMom=    0.0000000   0.0000000   0.0000000   0.0000000   0.0000000   0.0000000   0.0000000   0.0000000   0.0000000   0.0000000
 NMagM=    0.0000000   0.0000000   0.0000000   0.0000000   2.7928460   2.7928460   2.7928460   2.7928460   2.7928460   2.7928460
 AtZNuc=   6.0000000   8.0000000   8.0000000   6.0000000   1.0000000   1.0000000   1.0000000   1.0000000   1.0000000   1.0000000

  Atom        51          52          53          54          55          56          57          58          59          60
 IAtWgt=           1           1           1           1           1           1           1           1           1           1
 AtmWgt=   1.0078250   1.0078250   1.0078250   1.0078250   1.0078250   1.0078250   1.0078250   1.0078250   1.0078250   1.0078250
 NucSpn=           1           1           1           1           1           1           1           1           1           1
 AtZEff=  -0.0000000  -0.0000000  -0.0000000  -0.0000000  -0.0000000  -0.0000000  -0.0000000  -0.0000000  -0.0000000  -0.0000000
 NQMom=    0.0000000   0.0000000   0.0000000   0.0000000   0.0000000   0.0000000   0.0000000   0.0000000   0.0000000   0.0000000
 NMagM=    2.7928460   2.7928460   2.7928460   2.7928460   2.7928460   2.7928460   2.7928460   2.7928460   2.7928460   2.7928460
 AtZNuc=   1.0000000   1.0000000   1.0000000   1.0000000   1.0000000   1.0000000   1.0000000   1.0000000   1.0000000   1.0000000

  Atom        61          62          63          64          65          66          67          68          69          70
 IAtWgt=           1           1           1           1           1           1           1           1           1           1
 AtmWgt=   1.0078250   1.0078250   1.0078250   1.0078250   1.0078250   1.0078250   1.0078250   1.0078250   1.0078250   1.0078250
 NucSpn=           1           1           1           1           1           1           1           1           1           1
 AtZEff=  -0.0000000  -0.0000000  -0.0000000  -0.0000000  -0.0000000  -0.0000000  -0.0000000  -0.0000000  -0.0000000  -0.0000000
 NQMom=    0.0000000   0.0000000   0.0000000   0.0000000   0.0000000   0.0000000   0.0000000   0.0000000   0.0000000   0.0000000
 NMagM=    2.7928460   2.7928460   2.7928460   2.7928460   2.7928460   2.7928460   2.7928460   2.7928460   2.7928460   2.7928460
 AtZNuc=   1.0000000   1.0000000   1.0000000   1.0000000   1.0000000   1.0000000   1.0000000   1.0000000   1.0000000   1.0000000

  Atom        71          72          73          74          75          76          77          78          79          80
 IAtWgt=           1           1           1           1           1           1           1           1           1          24
 AtmWgt=   1.0078250   1.0078250   1.0078250   1.0078250   1.0078250   1.0078250   1.0078250   1.0078250   1.0078250  23.9850450
 NucSpn=           1           1           1           1           1           1           1           1           1           0
 AtZEff=  -0.0000000  -0.0000000  -0.0000000  -0.0000000  -0.0000000  -0.0000000  -0.0000000  -0.0000000  -0.0000000  -0.0000000
 NQMom=    0.0000000   0.0000000   0.0000000   0.0000000   0.0000000   0.0000000   0.0000000   0.0000000   0.0000000   0.0000000
 NMagM=    2.7928460   2.7928460   2.7928460   2.7928460   2.7928460   2.7928460   2.7928460   2.7928460   2.7928460   0.0000000
 AtZNuc=   1.0000000   1.0000000   1.0000000   1.0000000   1.0000000   1.0000000   1.0000000   1.0000000   1.0000000  12.0000000

  Atom        81          82          83          84          85          86          87          88          89          90
 IAtWgt=          12          12          12          12          14          12          12          12          12          12
 AtmWgt=  12.0000000  12.0000000  12.0000000  12.0000000  14.0030740  12.0000000  12.0000000  12.0000000  12.0000000  12.0000000
 NucSpn=           0           0           0           0           2           0           0           0           0           0
 AtZEff=  -0.0000000  -0.0000000  -0.0000000  -0.0000000  -0.0000000  -0.0000000  -0.0000000  -0.0000000  -0.0000000  -0.0000000
 NQMom=    0.0000000   0.0000000   0.0000000   0.0000000   2.0440000   0.0000000   0.0000000   0.0000000   0.0000000   0.0000000
 NMagM=    0.0000000   0.0000000   0.0000000   0.0000000   0.4037610   0.0000000   0.0000000   0.0000000   0.0000000   0.0000000
 AtZNuc=   6.0000000   6.0000000   6.0000000   6.0000000   7.0000000   6.0000000   6.0000000   6.0000000   6.0000000   6.0000000

  Atom        91          92          93          94          95          96          97          98          99         100
 IAtWgt=          12          12           1          14          12          12          12          12          12          12
 AtmWgt=  12.0000000  12.0000000   1.0078250  14.0030740  12.0000000  12.0000000  12.0000000  12.0000000  12.0000000  12.0000000
 NucSpn=           0           0           1           2           0           0           0           0           0           0
 AtZEff=  -0.0000000  -0.0000000  -0.0000000  -0.0000000  -0.0000000  -0.0000000  -0.0000000  -0.0000000  -0.0000000  -0.0000000
 NQMom=    0.0000000   0.0000000   0.0000000   2.0440000   0.0000000   0.0000000   0.0000000   0.0000000   0.0000000   0.0000000
 NMagM=    0.0000000   0.0000000   2.7928460   0.4037610   0.0000000   0.0000000   0.0000000   0.0000000   0.0000000   0.0000000
 AtZNuc=   6.0000000   6.0000000   1.0000000   7.0000000   6.0000000   6.0000000   6.0000000   6.0000000   6.0000000   6.0000000

  Atom       101         102         103         104         105         106         107         108         109         110
 IAtWgt=          16          12          14          12          12          12          12          12          12          12
 AtmWgt=  15.9949146  12.0000000  14.0030740  12.0000000  12.0000000  12.0000000  12.0000000  12.0000000  12.0000000  12.0000000
 NucSpn=           0           0           2           0           0           0           0           0           0           0
 AtZEff=  -0.0000000  -0.0000000  -0.0000000  -0.0000000  -0.0000000  -0.0000000  -0.0000000  -0.0000000  -0.0000000  -0.0000000
 NQMom=    0.0000000   0.0000000   2.0440000   0.0000000   0.0000000   0.0000000   0.0000000   0.0000000   0.0000000   0.0000000
 NMagM=    0.0000000   0.0000000   0.4037610   0.0000000   0.0000000   0.0000000   0.0000000   0.0000000   0.0000000   0.0000000
 AtZNuc=   8.0000000   6.0000000   7.0000000   6.0000000   6.0000000   6.0000000   6.0000000   6.0000000   6.0000000   6.0000000

  Atom       111         112         113         114         115         116         117         118         119         120
 IAtWgt=          14          12          12          12          12          12          12          16          12          12
 AtmWgt=  14.0030740  12.0000000  12.0000000  12.0000000  12.0000000  12.0000000  12.0000000  15.9949146  12.0000000  12.0000000
 NucSpn=           2           0           0           0           0           0           0           0           0           0
 AtZEff=  -0.0000000  -0.0000000  -0.0000000  -0.0000000  -0.0000000  -0.0000000  -0.0000000  -0.0000000  -0.0000000  -0.0000000
 NQMom=    2.0440000   0.0000000   0.0000000   0.0000000   0.0000000   0.0000000   0.0000000   0.0000000   0.0000000   0.0000000
 NMagM=    0.4037610   0.0000000   0.0000000   0.0000000   0.0000000   0.0000000   0.0000000   0.0000000   0.0000000   0.0000000
 AtZNuc=   7.0000000   6.0000000   6.0000000   6.0000000   6.0000000   6.0000000   6.0000000   8.0000000   6.0000000   6.0000000

  Atom       121         122         123         124         125         126         127         128         129         130
 IAtWgt=          16          16          12           1           1           1           1           1           1           1
 AtmWgt=  15.9949146  15.9949146  12.0000000   1.0078250   1.0078250   1.0078250   1.0078250   1.0078250   1.0078250   1.0078250
 NucSpn=           0           0           0           1           1           1           1           1           1           1
 AtZEff=  -0.0000000  -0.0000000  -0.0000000  -0.0000000  -0.0000000  -0.0000000  -0.0000000  -0.0000000  -0.0000000  -0.0000000
 NQMom=    0.0000000   0.0000000   0.0000000   0.0000000   0.0000000   0.0000000   0.0000000   0.0000000   0.0000000   0.0000000
 NMagM=    0.0000000   0.0000000   0.0000000   2.7928460   2.7928460   2.7928460   2.7928460   2.7928460   2.7928460   2.7928460
 AtZNuc=   8.0000000   8.0000000   6.0000000   1.0000000   1.0000000   1.0000000   1.0000000   1.0000000   1.0000000   1.0000000

  Atom       131         132         133         134         135         136         137         138         139         140
 IAtWgt=           1           1           1           1           1           1           1           1           1           1
 AtmWgt=   1.0078250   1.0078250   1.0078250   1.0078250   1.0078250   1.0078250   1.0078250   1.0078250   1.0078250   1.0078250
 NucSpn=           1           1           1           1           1           1           1           1           1           1
 AtZEff=  -0.0000000  -0.0000000  -0.0000000  -0.0000000  -0.0000000  -0.0000000  -0.0000000  -0.0000000  -0.0000000  -0.0000000
 NQMom=    0.0000000   0.0000000   0.0000000   0.0000000   0.0000000   0.0000000   0.0000000   0.0000000   0.0000000   0.0000000
 NMagM=    2.7928460   2.7928460   2.7928460   2.7928460   2.7928460   2.7928460   2.7928460   2.7928460   2.7928460   2.7928460
 AtZNuc=   1.0000000   1.0000000   1.0000000   1.0000000   1.0000000   1.0000000   1.0000000   1.0000000   1.0000000   1.0000000

  Atom       141         142         143         144         145         146         147         148         149         150
 IAtWgt=           1           1           1           1           1           1           1           1           1           1
 AtmWgt=   1.0078250   1.0078250   1.0078250   1.0078250   1.0078250   1.0078250   1.0078250   1.0078250   1.0078250   1.0078250
 NucSpn=           1           1           1           1           1           1           1           1           1           1
 AtZEff=  -0.0000000  -0.0000000  -0.0000000  -0.0000000  -0.0000000  -0.0000000  -0.0000000  -0.0000000  -0.0000000  -0.0000000
 NQMom=    0.0000000   0.0000000   0.0000000   0.0000000   0.0000000   0.0000000   0.0000000   0.0000000   0.0000000   0.0000000
 NMagM=    2.7928460   2.7928460   2.7928460   2.7928460   2.7928460   2.7928460   2.7928460   2.7928460   2.7928460   2.7928460
 AtZNuc=   1.0000000   1.0000000   1.0000000   1.0000000   1.0000000   1.0000000   1.0000000   1.0000000   1.0000000   1.0000000

  Atom       151         152         153         154         155         156         157         158
 IAtWgt=           1           1           1           1           1           1           1           1
 AtmWgt=   1.0078250   1.0078250   1.0078250   1.0078250   1.0078250   1.0078250   1.0078250   1.0078250
 NucSpn=           1           1           1           1           1           1           1           1
 AtZEff=  -0.0000000  -0.0000000  -0.0000000  -0.0000000  -0.0000000  -0.0000000  -0.0000000  -0.0000000
 NQMom=    0.0000000   0.0000000   0.0000000   0.0000000   0.0000000   0.0000000   0.0000000   0.0000000
 NMagM=    2.7928460   2.7928460   2.7928460   2.7928460   2.7928460   2.7928460   2.7928460   2.7928460
 AtZNuc=   1.0000000   1.0000000   1.0000000   1.0000000   1.0000000   1.0000000   1.0000000   1.0000000
 Leave Link  101 at Fri Sep  3 14:13:52 2021, MaxMem= 23488102400 cpu:               3.7 elap:               0.2
 (Enter /sw/apps/gaussian-16.0/g16/l202.exe)
 Stoichiometry    C68H72Mg2N8O8
 Framework group  C1[X(C68H72Mg2N8O8)]
 Deg. of freedom   468
 Full point group                 C1      NOp   1
 Largest Abelian subgroup         C1      NOp   1
 Largest concise Abelian subgroup C1      NOp   1
                         Standard orientation:                         
 ---------------------------------------------------------------------
 Center     Atomic      Atomic             Coordinates (Angstroms)
 Number     Number       Type             X           Y           Z
 ---------------------------------------------------------------------
      1         12           0        3.454152    1.767823    0.431948
      2          6           0        5.163610   -1.001017   -1.059190
      3          6           0        3.677809    3.340530   -2.587926
      4          6           0        2.358254    4.390117    1.838790
      5          6           0        4.367645    0.470634    3.534929
      6          7           0        4.330702    1.144810   -1.503035
      7          6           0        4.903025    0.034951   -1.958919
      8          6           0        5.131793    0.045930   -3.499996
      9          6           0        5.160583    1.622018   -3.738985
     10          6           0        4.309904    2.061962   -2.560546
     11          6           0        6.550322    2.234442   -3.597340
     12          6           0        3.954973   -0.630473   -4.280576
     13          6           0        4.245190   -0.953038   -5.749276
     14          1           0        3.674990   -2.160745   -6.326912
     15          7           0        2.640225    3.392680   -0.342787
     16          6           0        2.829161    3.875137   -1.594516
     17          6           0        2.007983    5.101435   -1.686923
     18          6           0        1.475983    5.396315   -0.327468
     19          6           0        2.167089    4.406916    0.459195
     20          6           0        1.758378    5.829664   -2.971886
     21          6           0        0.507654    6.415840    0.183453
     22          8           0        0.361292    6.649241    1.431922
     23          6           0       -0.210448    7.206798   -0.832302
     24          7           0        3.556147    2.475561    2.393156
     25          6           0        2.947328    3.612032    2.749186
     26          6           0        2.915585    3.770463    4.240437
     27          6           0        3.417920    2.379885    4.843516
     28          6           0        3.746585    1.652166    3.516612
     29          6           0        3.768853    4.911942    4.810499
     30          6           0        2.483844    1.675511    5.859280
     31          6           0        1.224323    1.211884    5.162319
     32          7           0        4.410967   -0.042026    1.153056
     33          6           0        4.711960   -0.363560    2.484481
     34          6           0        5.452948   -1.638155    2.464167
     35          6           0        5.546577   -1.963259    1.112358
     36          6           0        4.927691   -0.942407    0.335742
     37          6           0        5.990700   -2.307660    3.598636
     38          6           0        6.047057   -2.923257    0.141905
     39          8           0        6.572646   -4.035059    0.213629
     40          6           0        5.926182   -2.278354   -1.309066
     41          6           0        5.300230   -3.305743   -2.212374
     42          8           0        4.117222   -3.667058   -2.047115
     43          8           0        6.105655   -3.523420   -3.263302
     44          6           0        5.529582   -4.511389   -4.214203
     45          1           0        3.896703    4.019964   -3.413998
     46          1           0        1.897191    5.223586    2.372820
     47          1           0        4.611122   -0.037190    4.469962
     48          1           0        6.074255   -0.396823   -3.822733
     49          1           0        4.681046    1.900167   -4.677282
     50          1           0        7.271245    1.505280   -3.227863
     51          1           0        6.436863    3.052120   -2.885285
     52          1           0        6.868242    2.694245   -4.533441
     53          1           0        3.145752    0.089061   -4.405053
     54          1           0        3.624293   -1.536218   -3.771064
     55          1           0        5.311749   -0.891996   -5.967531
     56          1           0        3.797570   -0.172976   -6.365182
     57          1           0        2.412771    5.474666   -3.767054
     58          1           0        2.059185    6.865269   -2.814575
     59          1           0        0.709862    5.792303   -3.267773
     60          1           0        0.512290    7.739376   -1.450815
     61          1           0       -0.924060    7.821884   -0.285239
     62          1           0       -0.741918    6.526687   -1.498589
     63          1           0        1.903355    3.967156    4.591336
     64          1           0        4.362419    2.483304    5.378214
     65          1           0        3.202081    5.625409    5.409198
     66          1           0        4.266947    5.408425    3.978215
     67          1           0        4.619173    4.590797    5.411531
     68          1           0        2.180383    2.371128    6.640928
     69          1           0        2.945113    0.814194    6.342618
     70          1           0        0.601320    2.105578    5.165483
     71          1           0        0.753028    0.405430    5.725101
     72          1           0        1.417728    0.953185    4.121091
     73          1           0        5.758497   -3.364483    3.467579
     74          1           0        5.566278   -1.920726    4.524784
     75          1           0        7.048534   -2.067959    3.491923
     76          1           0        6.937131   -2.019469   -1.622245
     77          1           0        6.265189   -5.306599   -4.335687
     78          1           0        5.237663   -3.952031   -5.103195
     79          1           0        4.669694   -5.079269   -3.857211
     80         12           0       -3.584426   -1.914805    0.297817
     81          6           0       -4.789274    0.898644   -1.576188
     82          6           0       -3.691095    0.073851    3.067012
     83          6           0       -2.103685   -4.224461    1.891651
     84          6           0       -2.504601   -3.285357   -2.719012
     85          7           0       -4.181650    0.195893    0.581584
     86          6           0       -4.681031    1.147900   -0.192145
     87          6           0       -5.162150    2.410898    0.571356
     88          6           0       -4.250862    2.259506    1.884938
     89          6           0       -4.052667    0.745178    1.871733
     90          6           0       -2.889015    2.920631    1.752094
     91          6           0       -6.690298    2.351186    0.922392
     92          6           0       -7.294757    3.676634    1.390978
     93          1           0       -8.670911    3.986249    1.013060
     94          7           0       -3.436188   -2.236518    2.250528
     95          6           0       -3.527108   -1.318622    3.235665
     96          6           0       -3.328519   -2.056557    4.492715
     97          6           0       -2.949225   -3.456585    4.159877
     98          6           0       -2.791250   -3.352421    2.723121
     99          6           0       -3.577641   -1.447445    5.841916
    100          6           0       -2.747928   -4.682818    4.997753
    101          8           0       -2.187942   -5.735369    4.527231
    102          6           0       -3.140779   -4.582938    6.410964
    103          7           0       -2.279780   -3.422277   -0.291882
    104          6           0       -1.823496   -4.326702    0.592282
    105          6           0       -1.126674   -5.469548   -0.106819
    106          6           0       -1.422801   -5.264634   -1.664990
    107          6           0       -2.198747   -3.930730   -1.601820
    108          6           0        0.382538   -5.564605    0.115940
    109          6           0       -2.065906   -6.458717   -2.422128
    110          6           0       -3.475278   -6.686321   -1.924869
    111          7           0       -3.785067   -1.419762   -1.795677
    112          6           0       -3.232186   -2.115060   -2.893387
    113          6           0       -3.545683   -1.332875   -4.106791
    114          6           0       -4.244856   -0.216134   -3.624563
    115          6           0       -4.341494   -0.286438   -2.208507
    116          6           0       -3.149402   -1.661545   -5.433842
    117          6           0       -4.913880    1.011555   -3.990464
    118          8           0       -5.222182    1.549419   -5.053192
    119          6           0       -5.186135    1.851910   -2.669080
    120          6           0       -6.614377    2.322471   -2.703884
    121          8           0       -7.550488    1.505581   -2.649222
    122          8           0       -6.640294    3.661708   -2.576805
    123          6           0       -8.036075    4.174828   -2.594562
    124          1           0       -3.470439    0.671962    3.951583
    125          1           0       -1.668669   -5.098673    2.381560
    126          1           0       -2.287876   -3.695067   -3.707875
    127          1           0       -4.947527    3.350307    0.076165
    128          1           0       -4.790413    2.565674    2.777413
    129          1           0       -2.712932    3.282630    0.750056
    130          1           0       -2.165617    2.158847    2.011739
    131          1           0       -2.778200    3.709455    2.501637
    132          1           0       -6.825683    1.751146    1.831439
    133          1           0       -7.256425    1.968049    0.095745
    134          1           0       -6.636878    4.527922    1.177772
    135          1           0       -7.365925    3.659376    2.481229
    136          1           0       -3.686690   -0.357796    5.777394
    137          1           0       -2.666868   -1.594785    6.432372
    138          1           0       -4.416770   -1.911102    6.364942
    139          1           0       -2.584379   -3.777504    6.884403
    140          1           0       -3.005350   -5.584649    6.823421
    141          1           0       -4.199682   -4.305736    6.460971
    142          1           0       -1.536356   -6.421974    0.206472
    143          1           0       -0.501571   -5.065748   -2.232103
    144          1           0        0.701659   -6.538235    0.533396
    145          1           0        0.683118   -4.754711    0.767294
    146          1           0        0.991953   -5.387915   -0.768705
    147          1           0       -1.512492   -7.378677   -2.218249
    148          1           0       -2.086165   -6.326968   -3.498794
    149          1           0       -3.324950   -7.290276   -1.025021
    150          1           0       -4.061421   -7.223766   -2.667578
    151          1           0       -3.940403   -5.743290   -1.615028
    152          1           0       -4.008757   -1.487232   -6.067581
    153          1           0       -2.806124   -2.691686   -5.502654
    154          1           0       -2.334454   -0.946890   -5.576682
    155          1           0       -4.481082    2.683995   -2.658937
    156          1           0       -8.091595    4.922199   -3.392078
    157          1           0       -8.239983    4.521685   -1.564099
    158          1           0       -8.818896    3.487714   -2.893758
 ---------------------------------------------------------------------
 Rotational constants (GHZ):           0.0211320           0.0159699           0.0146220
 Leave Link  202 at Fri Sep  3 14:13:52 2021, MaxMem= 23488102400 cpu:               0.2 elap:               0.0
 (Enter /sw/apps/gaussian-16.0/g16/l301.exe)
 Standard basis: def2SVP (5D, 7F)
 Ernie: Thresh=  0.10000D-02 Tol=  0.10000D-05 Strict=F.
 There are  1658 symmetry adapted cartesian basis functions of A   symmetry.
 There are  1572 symmetry adapted basis functions of A   symmetry.
  1572 basis functions,  2678 primitive gaussians,  1658 cartesian basis functions
   312 alpha electrons      312 beta electrons
       nuclear repulsion energy     15912.1754887116 Hartrees.
 IExCor=20419 DFT=T Ex+Corr=CAM-B3LYP ExCW=0 ScaHFX=  1.000000
 ScaDFX=  1.000000  1.000000  1.000000  0.810000 ScalE2=  1.000000  1.000000
 IRadAn=      5 IRanWt=     -1 IRanGd=            0 ICorTp=0 IEmpDi=  4
 HFx  wShort=  0.000000 wLong=  0.330000 cFull=  0.190000 cShort=  0.000000 cLong=  0.460000
 DFx  wShort=  0.000000 wLong=  0.330000 cFull=  0.190000 cShort=  0.000000 cLong=  0.460000
 NAtoms=  158 NActive=  158 NUniq=  158 SFac= 1.00D+00 NAtFMM=   60 NAOKFM=T Big=T
 Integral buffers will be    131072 words long.
 Raffenetti 1 integral format.
 Two-electron integral symmetry is turned on.
 Leave Link  301 at Fri Sep  3 14:13:52 2021, MaxMem= 23488102400 cpu:               1.4 elap:               0.1
 (Enter /sw/apps/gaussian-16.0/g16/l302.exe)
 NPDir=0 NMtPBC=     1 NCelOv=     1 NCel=       1 NClECP=     1 NCelD=      1
         NCelK=      1 NCelE2=     1 NClLst=     1 CellRange=     0.0.
 One-electron integrals computed using PRISM.
 One-electron integral symmetry used in STVInt
   1 Symmetry operations used in ECPInt.
 ECPInt:  NShTT=  271216 NPrTT=  987664 LenC2=  163635 LenP2D=  343211.
 LDataN:  DoStor=T MaxTD1= 4 Len=   56
 NBasis=  1572 RedAO= T EigKep=  3.36D-04  NBF=  1572
 NBsUse=  1572 1.00D-06 EigRej= -1.00D+00 NBFU=  1572
 Precomputing XC quadrature grid using
 IXCGrd= 4 IRadAn=           5 IRanWt=          -1 IRanGd=           0 AccXCQ= 0.00D+00.
 Generated NRdTot=       0 NPtTot=           0 NUsed=           0 NTot=          32
 NSgBfM=  1266  1257  1261  1262  1266 MxSgAt=   158 MxSgA2=   158.
 Leave Link  302 at Fri Sep  3 14:13:57 2021, MaxMem= 23488102400 cpu:             131.5 elap:               5.5
 (Enter /sw/apps/gaussian-16.0/g16/l303.exe)
 DipDrv:  MaxL=1.
 Leave Link  303 at Fri Sep  3 14:13:58 2021, MaxMem= 23488102400 cpu:              10.7 elap:               0.5
 (Enter /sw/apps/gaussian-16.0/g16/l308.exe)
 Leave Link  308 at Fri Sep  3 14:13:58 2021, MaxMem= 23488102400 cpu:              15.0 elap:               0.7
 (Enter /sw/apps/gaussian-16.0/g16/l401.exe)
 ExpMin= 3.36D-02 ExpMax= 4.95D+03 ExpMxC= 7.45D+02 IAcc=3 IRadAn=         5 AccDes= 0.00D+00
 Harris functional with IExCor=20419 and IRadAn=       5 diagonalized for initial guess.
 HarFok:  IExCor=20419 AccDes= 0.00D+00 IRadAn=         5 IDoV= 1 UseB2=F ITyADJ=14
 ICtDFT=  3500011 ScaDFX=  1.000000  1.000000  1.000000  1.000000
 FoFCou: FMM=F IPFlag=           0 FMFlag=      100000 FMFlg1=        2001
         NFxFlg=           0 DoJE=T BraDBF=F KetDBF=T FulRan=T
         wScrn=  0.000000 ICntrl=       500 IOpCl=  0 I1Cent=   200000004 NGrid=           0
         NMat0=    1 NMatS0=      1 NMatT0=    0 NMatD0=    1 NMtDS0=    0 NMtDT0=    0
 Petite list used in FoFCou.
 Harris En= -3918.65879870270    
 JPrj=0 DoOrth=F DoCkMO=F.
 Leave Link  401 at Fri Sep  3 14:14:07 2021, MaxMem= 23488102400 cpu:             206.1 elap:               8.6
 (Enter /sw/apps/gaussian-16.0/g16/l502.exe)
 Integral symmetry usage will be decided dynamically.
 Closed shell SCF:
 Using DIIS extrapolation, IDIIS=  1040.
 NGot= 23488102400 LenX= 23482547354 LenY= 23479796732
 Requested convergence on RMS density matrix=1.00D-08 within 128 cycles.
 Requested convergence on MAX density matrix=1.00D-06.
 Requested convergence on             energy=1.00D-06.
 No special actions if energy rises.
 Fock matrices will be formed incrementally for  20 cycles.

 Cycle   1  Pass 1  IDiag  1:
 FoFJK:  IHMeth= 1 ICntrl=       0 DoSepK=T KAlg= 0 I1Cent=           0 FoldK=F
 IRaf=         1 NMat=       1 IRICut=       1 DoRegI=T DoRafI=F ISym2E= 0 IDoP0=0 IntGTp=1.
 FoFCou: FMM=T IPFlag=           0 FMFlag=      100000 FMFlg1=        2001
         NFxFlg=           0 DoJE=T BraDBF=F KetDBF=F FulRan=T
         wScrn=  0.000000 ICntrl=       500 IOpCl=  0 I1Cent=           0 NGrid=           0
         NMat0=    1 NMatS0=      1 NMatT0=    0 NMatD0=    1 NMtDS0=    0 NMtDT0=    0
 Symmetry not used in FoFCou.
 FMM levels:  10  Number of levels for PrismC:   9
 E= -4068.95047410562    
 DIIS: error= 2.03D-02 at cycle   1 NSaved=   1.
 NSaved= 1 IEnMin= 1 EnMin= -4068.95047410562     IErMin= 1 ErrMin= 2.03D-02
 ErrMax= 2.03D-02  0.00D+00 EMaxC= 1.00D-01 BMatC= 1.69D+00 BMatP= 1.69D+00
 IDIUse=3 WtCom= 7.97D-01 WtEn= 2.03D-01
 Coeff-Com:  0.100D+01
 Coeff-En:   0.100D+01
 Coeff:      0.100D+01
 Gap=     0.120 Goal=   None    Shift=    0.000
 GapD=    0.120 DampG=1.000 DampE=0.500 DampFc=0.5000 IDamp=-1.
 Damping current iteration by 5.00D-01
 RMSDP=1.58D-03 MaxDP=1.34D-01              OVMax= 2.06D-01

 Cycle   2  Pass 1  IDiag  1:
 RMSU=  7.72D-04    CP:  9.82D-01
 E= -4069.33924836736     Delta-E=       -0.388774261744 Rises=F Damp=T
 DIIS: error= 1.26D-02 at cycle   2 NSaved=   2.
 NSaved= 2 IEnMin= 2 EnMin= -4069.33924836736     IErMin= 2 ErrMin= 1.26D-02
 ErrMax= 1.26D-02  0.00D+00 EMaxC= 1.00D-01 BMatC= 3.07D-01 BMatP= 1.69D+00
 IDIUse=3 WtCom= 8.74D-01 WtEn= 1.26D-01
 Coeff-Com: -0.213D+00 0.121D+01
 Coeff-En:   0.000D+00 0.100D+01
 Coeff:     -0.186D+00 0.119D+01
 Gap=     0.133 Goal=   None    Shift=    0.000
 RMSDP=7.67D-04 MaxDP=9.45D-02 DE=-3.89D-01 OVMax= 1.97D-01

 Cycle   3  Pass 1  IDiag  1:
 RMSU=  7.35D-04    CP:  9.68D-01  1.24D+00
 E= -4069.62818255493     Delta-E=       -0.288934187567 Rises=F Damp=F
 DIIS: error= 1.56D-02 at cycle   3 NSaved=   3.
 NSaved= 3 IEnMin= 3 EnMin= -4069.62818255493     IErMin= 2 ErrMin= 1.26D-02
 ErrMax= 1.56D-02  0.00D+00 EMaxC= 1.00D-01 BMatC= 2.03D-01 BMatP= 3.07D-01
 IDIUse=3 WtCom= 8.44D-01 WtEn= 1.56D-01
 Coeff-Com: -0.267D+00 0.652D+00 0.615D+00
 Coeff-En:   0.000D+00 0.000D+00 0.100D+01
 Coeff:     -0.226D+00 0.551D+00 0.675D+00
 Gap=     0.120 Goal=   None    Shift=    0.000
 RMSDP=5.11D-04 MaxDP=4.87D-02 DE=-2.89D-01 OVMax= 1.51D-01

 Cycle   4  Pass 1  IDiag  1:
 RMSU=  2.66D-04    CP:  9.65D-01  1.55D+00  5.04D-01
 E= -4069.76642284066     Delta-E=       -0.138240285731 Rises=F Damp=F
 DIIS: error= 7.18D-03 at cycle   4 NSaved=   4.
 NSaved= 4 IEnMin= 4 EnMin= -4069.76642284066     IErMin= 4 ErrMin= 7.18D-03
 ErrMax= 7.18D-03  0.00D+00 EMaxC= 1.00D-01 BMatC= 5.03D-02 BMatP= 2.03D-01
 IDIUse=3 WtCom= 9.28D-01 WtEn= 7.18D-02
 Coeff-Com: -0.109D+00 0.226D+00 0.408D+00 0.475D+00
 Coeff-En:   0.000D+00 0.000D+00 0.220D+00 0.780D+00
 Coeff:     -0.101D+00 0.210D+00 0.394D+00 0.497D+00
 Gap=     0.119 Goal=   None    Shift=    0.000
 RMSDP=2.01D-04 MaxDP=2.11D-02 DE=-1.38D-01 OVMax= 6.76D-02

 Cycle   5  Pass 1  IDiag  1:
 RMSU=  7.72D-05    CP:  9.64D-01  1.49D+00  6.88D-01  5.51D-01
 E= -4069.81186713421     Delta-E=       -0.045444293548 Rises=F Damp=F
 DIIS: error= 7.99D-04 at cycle   5 NSaved=   5.
 NSaved= 5 IEnMin= 5 EnMin= -4069.81186713421     IErMin= 5 ErrMin= 7.99D-04
 ErrMax= 7.99D-04  0.00D+00 EMaxC= 1.00D-01 BMatC= 1.20D-03 BMatP= 5.03D-02
 IDIUse=3 WtCom= 9.92D-01 WtEn= 7.99D-03
 Coeff-Com: -0.366D-01 0.720D-01 0.168D+00 0.252D+00 0.545D+00
 Coeff-En:   0.000D+00 0.000D+00 0.000D+00 0.000D+00 0.100D+01
 Coeff:     -0.364D-01 0.714D-01 0.166D+00 0.250D+00 0.549D+00
 Gap=     0.118 Goal=   None    Shift=    0.000
 RMSDP=4.20D-05 MaxDP=4.43D-03 DE=-4.54D-02 OVMax= 2.04D-02

 Cycle   6  Pass 1  IDiag  1:
 RMSU=  3.12D-05    CP:  9.64D-01  1.49D+00  6.80D-01  6.21D-01  7.40D-01
 E= -4069.81290933411     Delta-E=       -0.001042199907 Rises=F Damp=F
 DIIS: error= 2.46D-04 at cycle   6 NSaved=   6.
 NSaved= 6 IEnMin= 6 EnMin= -4069.81290933411     IErMin= 6 ErrMin= 2.46D-04
 ErrMax= 2.46D-04  0.00D+00 EMaxC= 1.00D-01 BMatC= 1.91D-04 BMatP= 1.20D-03
 IDIUse=3 WtCom= 9.98D-01 WtEn= 2.46D-03
 Coeff-Com:  0.191D-02-0.600D-02 0.124D-01 0.418D-01 0.310D+00 0.640D+00
 Coeff-En:   0.000D+00 0.000D+00 0.000D+00 0.000D+00 0.121D+00 0.879D+00
 Coeff:      0.191D-02-0.599D-02 0.124D-01 0.417D-01 0.310D+00 0.640D+00
 Gap=     0.119 Goal=   None    Shift=    0.000
 RMSDP=1.69D-05 MaxDP=1.44D-03 DE=-1.04D-03 OVMax= 8.95D-03

 Cycle   7  Pass 1  IDiag  1:
 RMSU=  1.12D-05    CP:  9.64D-01  1.50D+00  6.86D-01  6.21D-01  8.50D-01
                    CP:  7.31D-01
 E= -4069.81311627864     Delta-E=       -0.000206944529 Rises=F Damp=F
 DIIS: error= 1.05D-04 at cycle   7 NSaved=   7.
 NSaved= 7 IEnMin= 7 EnMin= -4069.81311627864     IErMin= 7 ErrMin= 1.05D-04
 ErrMax= 1.05D-04  0.00D+00 EMaxC= 1.00D-01 BMatC= 2.44D-05 BMatP= 1.91D-04
 IDIUse=3 WtCom= 9.99D-01 WtEn= 1.05D-03
 Coeff-Com:  0.446D-02-0.982D-02-0.857D-02-0.281D-02 0.109D+00 0.340D+00
 Coeff-Com:  0.568D+00
 Coeff-En:   0.000D+00 0.000D+00 0.000D+00 0.000D+00 0.000D+00 0.000D+00
 Coeff-En:   0.100D+01
 Coeff:      0.446D-02-0.981D-02-0.856D-02-0.281D-02 0.109D+00 0.339D+00
 Coeff:      0.568D+00
 Gap=     0.119 Goal=   None    Shift=    0.000
 RMSDP=6.67D-06 MaxDP=1.25D-03 DE=-2.07D-04 OVMax= 4.01D-03

 Cycle   8  Pass 1  IDiag  1:
 RMSU=  4.74D-06    CP:  9.64D-01  1.50D+00  6.86D-01  6.26D-01  8.51D-01
                    CP:  8.55D-01  8.01D-01
 E= -4069.81314596920     Delta-E=       -0.000029690560 Rises=F Damp=F
 DIIS: error= 5.21D-05 at cycle   8 NSaved=   8.
 NSaved= 8 IEnMin= 8 EnMin= -4069.81314596920     IErMin= 8 ErrMin= 5.21D-05
 ErrMax= 5.21D-05  0.00D+00 EMaxC= 1.00D-01 BMatC= 4.66D-06 BMatP= 2.44D-05
 IDIUse=1 WtCom= 1.00D+00 WtEn= 0.00D+00
 Coeff-Com:  0.220D-02-0.438D-02-0.781D-02-0.121D-01-0.102D-01 0.376D-01
 Coeff-Com:  0.320D+00 0.675D+00
 Coeff:      0.220D-02-0.438D-02-0.781D-02-0.121D-01-0.102D-01 0.376D-01
 Coeff:      0.320D+00 0.675D+00
 Gap=     0.119 Goal=   None    Shift=    0.000
 RMSDP=3.45D-06 MaxDP=6.12D-04 DE=-2.97D-05 OVMax= 1.30D-03

 Cycle   9  Pass 1  IDiag  1:
 RMSU=  2.01D-06    CP:  9.64D-01  1.50D+00  6.87D-01  6.27D-01  8.68D-01
                    CP:  8.81D-01  1.00D+00  9.40D-01
 E= -4069.81315347920     Delta-E=       -0.000007509996 Rises=F Damp=F
 DIIS: error= 1.98D-05 at cycle   9 NSaved=   9.
 NSaved= 9 IEnMin= 9 EnMin= -4069.81315347920     IErMin= 9 ErrMin= 1.98D-05
 ErrMax= 1.98D-05  0.00D+00 EMaxC= 1.00D-01 BMatC= 7.80D-07 BMatP= 4.66D-06
 IDIUse=1 WtCom= 1.00D+00 WtEn= 0.00D+00
 Coeff-Com:  0.519D-03-0.879D-03-0.286D-02-0.628D-02-0.218D-01-0.365D-01
 Coeff-Com:  0.948D-01 0.356D+00 0.617D+00
 Coeff:      0.519D-03-0.879D-03-0.286D-02-0.628D-02-0.218D-01-0.365D-01
 Coeff:      0.948D-01 0.356D+00 0.617D+00
 Gap=     0.119 Goal=   None    Shift=    0.000
 RMSDP=1.41D-06 MaxDP=1.66D-04 DE=-7.51D-06 OVMax= 7.23D-04

 Cycle  10  Pass 1  IDiag  1:
 RMSU=  9.62D-07    CP:  9.64D-01  1.50D+00  6.87D-01  6.28D-01  8.72D-01
                    CP:  8.94D-01  1.04D+00  1.11D+00  1.01D+00
 E= -4069.81315513219     Delta-E=       -0.000001652992 Rises=F Damp=F
 DIIS: error= 9.88D-06 at cycle  10 NSaved=  10.
 NSaved=10 IEnMin=10 EnMin= -4069.81315513219     IErMin=10 ErrMin= 9.88D-06
 ErrMax= 9.88D-06  0.00D+00 EMaxC= 1.00D-01 BMatC= 1.50D-07 BMatP= 7.80D-07
 IDIUse=1 WtCom= 1.00D+00 WtEn= 0.00D+00
 Coeff-Com: -0.390D-03 0.827D-03 0.106D-02 0.815D-03-0.491D-02-0.301D-01
 Coeff-Com: -0.438D-01-0.472D-01 0.232D+00 0.892D+00
 Coeff:     -0.390D-03 0.827D-03 0.106D-02 0.815D-03-0.491D-02-0.301D-01
 Coeff:     -0.438D-01-0.472D-01 0.232D+00 0.892D+00
 Gap=     0.119 Goal=   None    Shift=    0.000
 RMSDP=1.23D-06 MaxDP=1.72D-04 DE=-1.65D-06 OVMax= 7.10D-04

 Cycle  11  Pass 1  IDiag  1:
 RMSU=  5.74D-07    CP:  9.64D-01  1.50D+00  6.87D-01  6.28D-01  8.74D-01
                    CP:  9.03D-01  1.09D+00  1.21D+00  1.35D+00  1.30D+00
 E= -4069.81315588160     Delta-E=       -0.000000749409 Rises=F Damp=F
 DIIS: error= 4.77D-06 at cycle  11 NSaved=  11.
 NSaved=11 IEnMin=11 EnMin= -4069.81315588160     IErMin=11 ErrMin= 4.77D-06
 ErrMax= 4.77D-06  0.00D+00 EMaxC= 1.00D-01 BMatC= 7.27D-08 BMatP= 1.50D-07
 IDIUse=1 WtCom= 1.00D+00 WtEn= 0.00D+00
 Coeff-Com: -0.356D-03 0.698D-03 0.139D-02 0.215D-02 0.356D-02-0.100D-01
 Coeff-Com: -0.467D-01-0.124D+00-0.368D-01 0.535D+00 0.675D+00
 Coeff:     -0.356D-03 0.698D-03 0.139D-02 0.215D-02 0.356D-02-0.100D-01
 Coeff:     -0.467D-01-0.124D+00-0.368D-01 0.535D+00 0.675D+00
 Gap=     0.119 Goal=   None    Shift=    0.000
 RMSDP=6.77D-07 MaxDP=5.49D-05 DE=-7.49D-07 OVMax= 3.37D-04

 Cycle  12  Pass 1  IDiag  1:
 RMSU=  2.86D-07    CP:  9.64D-01  1.50D+00  6.87D-01  6.28D-01  8.75D-01
                    CP:  9.06D-01  1.11D+00  1.27D+00  1.49D+00  1.69D+00
                    CP:  1.10D+00
 E= -4069.81315615445     Delta-E=       -0.000000272845 Rises=F Damp=F
 DIIS: error= 4.11D-06 at cycle  12 NSaved=  12.
 NSaved=12 IEnMin=12 EnMin= -4069.81315615445     IErMin=12 ErrMin= 4.11D-06
 ErrMax= 4.11D-06  0.00D+00 EMaxC= 1.00D-01 BMatC= 1.51D-08 BMatP= 7.27D-08
 IDIUse=1 WtCom= 1.00D+00 WtEn= 0.00D+00
 Coeff-Com: -0.550D-04 0.913D-04 0.385D-03 0.834D-03 0.368D-02 0.292D-02
 Coeff-Com: -0.609D-02-0.472D-01-0.860D-01 0.285D-01 0.277D+00 0.826D+00
 Coeff:     -0.550D-04 0.913D-04 0.385D-03 0.834D-03 0.368D-02 0.292D-02
 Coeff:     -0.609D-02-0.472D-01-0.860D-01 0.285D-01 0.277D+00 0.826D+00
 Gap=     0.119 Goal=   None    Shift=    0.000
 RMSDP=4.33D-07 MaxDP=2.80D-05 DE=-2.73D-07 OVMax= 3.03D-04

 Cycle  13  Pass 1  IDiag  1:
 RMSU=  1.78D-07    CP:  9.64D-01  1.50D+00  6.87D-01  6.28D-01  8.75D-01
                    CP:  9.06D-01  1.11D+00  1.30D+00  1.59D+00  1.89D+00
                    CP:  1.48D+00  1.15D+00
 E= -4069.81315624682     Delta-E=       -0.000000092376 Rises=F Damp=F
 DIIS: error= 2.97D-06 at cycle  13 NSaved=  13.
 NSaved=13 IEnMin=13 EnMin= -4069.81315624682     IErMin=13 ErrMin= 2.97D-06
 ErrMax= 2.97D-06  0.00D+00 EMaxC= 1.00D-01 BMatC= 9.85D-09 BMatP= 1.51D-08
 IDIUse=1 WtCom= 1.00D+00 WtEn= 0.00D+00
 Coeff-Com:  0.113D-03-0.232D-03-0.326D-03-0.368D-03 0.887D-03 0.524D-02
 Coeff-Com:  0.173D-01 0.213D-01-0.421D-01-0.209D+00-0.175D+00 0.584D+00
 Coeff-Com:  0.798D+00
 Coeff:      0.113D-03-0.232D-03-0.326D-03-0.368D-03 0.887D-03 0.524D-02
 Coeff:      0.173D-01 0.213D-01-0.421D-01-0.209D+00-0.175D+00 0.584D+00
 Coeff:      0.798D+00
 Gap=     0.119 Goal=   None    Shift=    0.000
 RMSDP=3.46D-07 MaxDP=2.19D-05 DE=-9.24D-08 OVMax= 1.86D-04

 Cycle  14  Pass 1  IDiag  1:
 RMSU=  8.66D-08    CP:  9.64D-01  1.50D+00  6.87D-01  6.28D-01  8.75D-01
                    CP:  9.07D-01  1.12D+00  1.32D+00  1.66D+00  2.08D+00
                    CP:  1.71D+00  1.69D+00  1.14D+00
 E= -4069.81315629050     Delta-E=       -0.000000043678 Rises=F Damp=F
 DIIS: error= 9.15D-07 at cycle  14 NSaved=  14.
 NSaved=14 IEnMin=14 EnMin= -4069.81315629050     IErMin=14 ErrMin= 9.15D-07
 ErrMax= 9.15D-07  0.00D+00 EMaxC= 1.00D-01 BMatC= 1.35D-09 BMatP= 9.85D-09
 IDIUse=1 WtCom= 1.00D+00 WtEn= 0.00D+00
 Coeff-Com:  0.756D-04-0.150D-03-0.273D-03-0.416D-03-0.433D-03 0.175D-02
 Coeff-Com:  0.112D-01 0.223D-01-0.102D-02-0.108D+00-0.178D+00 0.121D+00
 Coeff-Com:  0.375D+00 0.757D+00
 Coeff:      0.756D-04-0.150D-03-0.273D-03-0.416D-03-0.433D-03 0.175D-02
 Coeff:      0.112D-01 0.223D-01-0.102D-02-0.108D+00-0.178D+00 0.121D+00
 Coeff:      0.375D+00 0.757D+00
 Gap=     0.119 Goal=   None    Shift=    0.000
 RMSDP=1.38D-07 MaxDP=9.38D-06 DE=-4.37D-08 OVMax= 8.73D-05

 Cycle  15  Pass 1  IDiag  1:
 RMSU=  4.17D-08    CP:  9.64D-01  1.50D+00  6.87D-01  6.28D-01  8.76D-01
                    CP:  9.07D-01  1.12D+00  1.33D+00  1.68D+00  2.15D+00
                    CP:  1.83D+00  1.88D+00  1.38D+00  1.06D+00
 E= -4069.81315629671     Delta-E=       -0.000000006214 Rises=F Damp=F
 DIIS: error= 3.68D-07 at cycle  15 NSaved=  15.
 NSaved=15 IEnMin=15 EnMin= -4069.81315629671     IErMin=15 ErrMin= 3.68D-07
 ErrMax= 3.68D-07  0.00D+00 EMaxC= 1.00D-01 BMatC= 3.31D-10 BMatP= 1.35D-09
 IDIUse=1 WtCom= 1.00D+00 WtEn= 0.00D+00
 Coeff-Com:  0.144D-04-0.266D-04-0.653D-04-0.131D-03-0.369D-03-0.310D-03
 Coeff-Com:  0.215D-02 0.596D-02 0.770D-02-0.434D-02-0.544D-01-0.384D-01
 Coeff-Com:  0.690D-02 0.371D+00 0.704D+00
 Coeff:      0.144D-04-0.266D-04-0.653D-04-0.131D-03-0.369D-03-0.310D-03
 Coeff:      0.215D-02 0.596D-02 0.770D-02-0.434D-02-0.544D-01-0.384D-01
 Coeff:      0.690D-02 0.371D+00 0.704D+00
 Gap=     0.119 Goal=   None    Shift=    0.000
 RMSDP=3.96D-08 MaxDP=4.91D-06 DE=-6.21D-09 OVMax= 2.06D-05

 Cycle  16  Pass 1  IDiag  1:
 RMSU=  2.09D-08    CP:  9.64D-01  1.50D+00  6.87D-01  6.28D-01  8.75D-01
                    CP:  9.07D-01  1.12D+00  1.33D+00  1.69D+00  2.16D+00
                    CP:  1.85D+00  1.93D+00  1.45D+00  1.27D+00  1.13D+00
 E= -4069.81315629732     Delta-E=       -0.000000000608 Rises=F Damp=F
 DIIS: error= 1.77D-07 at cycle  16 NSaved=  16.
 NSaved=16 IEnMin=16 EnMin= -4069.81315629732     IErMin=16 ErrMin= 1.77D-07
 ErrMax= 1.77D-07  0.00D+00 EMaxC= 1.00D-01 BMatC= 9.36D-11 BMatP= 3.31D-10
 IDIUse=1 WtCom= 1.00D+00 WtEn= 0.00D+00
 Coeff-Com: -0.133D-04 0.271D-04 0.421D-04 0.439D-04-0.662D-04-0.633D-03
 Coeff-Com: -0.183D-02-0.348D-02 0.348D-02 0.261D-01 0.135D-01-0.422D-01
 Coeff-Com: -0.109D+00 0.507D-03 0.341D+00 0.773D+00
 Coeff:     -0.133D-04 0.271D-04 0.421D-04 0.439D-04-0.662D-04-0.633D-03
 Coeff:     -0.183D-02-0.348D-02 0.348D-02 0.261D-01 0.135D-01-0.422D-01
 Coeff:     -0.109D+00 0.507D-03 0.341D+00 0.773D+00
 Gap=     0.119 Goal=   None    Shift=    0.000
 RMSDP=2.88D-08 MaxDP=2.36D-06 DE=-6.08D-10 OVMax= 1.76D-05

 Cycle  17  Pass 1  IDiag  1:
 RMSU=  1.28D-08    CP:  9.64D-01  1.50D+00  6.87D-01  6.28D-01  8.76D-01
                    CP:  9.07D-01  1.12D+00  1.33D+00  1.69D+00  2.17D+00
                    CP:  1.86D+00  1.97D+00  1.50D+00  1.37D+00  1.44D+00
                    CP:  1.18D+00
 E= -4069.81315629787     Delta-E=       -0.000000000546 Rises=F Damp=F
 DIIS: error= 9.22D-08 at cycle  17 NSaved=  17.
 NSaved=17 IEnMin=17 EnMin= -4069.81315629787     IErMin=17 ErrMin= 9.22D-08
 ErrMax= 9.22D-08  0.00D+00 EMaxC= 1.00D-01 BMatC= 2.66D-11 BMatP= 9.36D-11
 IDIUse=1 WtCom= 1.00D+00 WtEn= 0.00D+00
 Coeff-Com: -0.962D-05 0.189D-04 0.364D-04 0.518D-04 0.732D-04-0.214D-03
 Coeff-Com: -0.129D-02-0.325D-02-0.928D-04 0.146D-01 0.181D-01-0.347D-02
 Coeff-Com: -0.588D-01-0.864D-01-0.492D-01 0.362D+00 0.808D+00
 Coeff:     -0.962D-05 0.189D-04 0.364D-04 0.518D-04 0.732D-04-0.214D-03
 Coeff:     -0.129D-02-0.325D-02-0.928D-04 0.146D-01 0.181D-01-0.347D-02
 Coeff:     -0.588D-01-0.864D-01-0.492D-01 0.362D+00 0.808D+00
 Gap=     0.119 Goal=   None    Shift=    0.000
 RMSDP=1.54D-08 MaxDP=9.65D-07 DE=-5.46D-10 OVMax= 9.38D-06

 Cycle  18  Pass 1  IDiag  1:
 RMSU=  5.90D-09    CP:  9.64D-01  1.50D+00  6.87D-01  6.28D-01  8.75D-01
                    CP:  9.07D-01  1.12D+00  1.33D+00  1.69D+00  2.17D+00
                    CP:  1.86D+00  1.98D+00  1.51D+00  1.44D+00  1.61D+00
                    CP:  1.57D+00  1.34D+00
 E= -4069.81315629827     Delta-E=       -0.000000000400 Rises=F Damp=F
 DIIS: error= 7.67D-08 at cycle  18 NSaved=  18.
 NSaved=18 IEnMin=18 EnMin= -4069.81315629827     IErMin=18 ErrMin= 7.67D-08
 ErrMax= 7.67D-08  0.00D+00 EMaxC= 1.00D-01 BMatC= 8.55D-12 BMatP= 2.66D-11
 IDIUse=1 WtCom= 1.00D+00 WtEn= 0.00D+00
 Coeff-Com: -0.188D-06-0.140D-07 0.388D-05 0.101D-04 0.723D-04 0.132D-03
 Coeff-Com:  0.608D-04-0.458D-03-0.139D-02-0.228D-02 0.208D-02 0.175D-01
 Coeff-Com:  0.658D-02-0.358D-01-0.156D+00-0.878D-01 0.373D+00 0.884D+00
 Coeff:     -0.188D-06-0.140D-07 0.388D-05 0.101D-04 0.723D-04 0.132D-03
 Coeff:      0.608D-04-0.458D-03-0.139D-02-0.228D-02 0.208D-02 0.175D-01
 Coeff:      0.658D-02-0.358D-01-0.156D+00-0.878D-01 0.373D+00 0.884D+00
 Gap=     0.119 Goal=   None    Shift=    0.000
 RMSDP=1.15D-08 MaxDP=7.56D-07 DE=-4.00D-10 OVMax= 6.85D-06

 Cycle  19  Pass 1  IDiag  1:
 RMSU=  3.30D-09    CP:  9.64D-01  1.50D+00  6.87D-01  6.28D-01  8.75D-01
                    CP:  9.07D-01  1.12D+00  1.33D+00  1.69D+00  2.17D+00
                    CP:  1.87D+00  1.98D+00  1.52D+00  1.48D+00  1.75D+00
                    CP:  1.82D+00  1.84D+00  1.24D+00
 E= -4069.81315629799     Delta-E=        0.000000000276 Rises=F Damp=F
 DIIS: error= 2.53D-08 at cycle  19 NSaved=  19.
 NSaved=19 IEnMin=18 EnMin= -4069.81315629827     IErMin=19 ErrMin= 2.53D-08
 ErrMax= 2.53D-08  0.00D+00 EMaxC= 1.00D-01 BMatC= 3.08D-12 BMatP= 8.55D-12
 IDIUse=1 WtCom= 1.00D+00 WtEn= 0.00D+00
 Coeff-Com:  0.346D-05-0.701D-05-0.113D-04-0.134D-04 0.214D-04 0.159D-03
 Coeff-Com:  0.537D-03 0.940D-03-0.764D-03-0.683D-02-0.623D-02 0.132D-01
 Coeff-Com:  0.249D-01 0.135D-01-0.820D-01-0.198D+00-0.101D+00 0.529D+00
 Coeff-Com:  0.813D+00
 Coeff:      0.346D-05-0.701D-05-0.113D-04-0.134D-04 0.214D-04 0.159D-03
 Coeff:      0.537D-03 0.940D-03-0.764D-03-0.683D-02-0.623D-02 0.132D-01
 Coeff:      0.249D-01 0.135D-01-0.820D-01-0.198D+00-0.101D+00 0.529D+00
 Coeff:      0.813D+00
 Gap=     0.119 Goal=   None    Shift=    0.000
 RMSDP=7.81D-09 MaxDP=4.99D-07 DE= 2.76D-10 OVMax= 4.68D-06

 SCF Done:  E(RCAM-B3LYP) =  -4069.81315630     A.U. after   19 cycles
            NFock= 19  Conv=0.78D-08     -V/T= 2.0102
 KE= 4.028795708519D+03 PE=-4.130549223627D+04 EE= 1.729470788274D+04
 Leave Link  502 at Fri Sep  3 14:26:32 2021, MaxMem= 23488102400 cpu:           17210.1 elap:             745.0
 (Enter /sw/apps/gaussian-16.0/g16/l801.exe)
 DoSCS=F DFT=T ScalE2(SS,OS)=  1.000000  1.000000
 ExpMin= 3.36D-02 ExpMax= 4.95D+03 ExpMxC= 7.45D+02 IAcc=3 IRadAn=         5 AccDes= 0.00D+00
 HarFok:  IExCor=  205 AccDes= 0.00D+00 IRadAn=         5 IDoV=-2 UseB2=F ITyADJ=14
 ICtDFT= 12500011 ScaDFX=  1.000000  1.000000  1.000000  1.000000
 GSVD:  LWork=       -9588 too small for GESVD, short by       45590 words or       45590 for optimal perf.
 Largest valence mixing into a core orbital is  2.03D-04
 Largest core mixing into a valence orbital is  5.28D-05
 Range of M.O.s used for correlation:    95  1572
 NBasis=  1572 NAE=   312 NBE=   312 NFC=    94 NFV=     0
 NROrb=   1478 NOA=   218 NOB=   218 NVA=  1260 NVB=  1260
 Leave Link  801 at Fri Sep  3 14:26:32 2021, MaxMem= 23488102400 cpu:               7.6 elap:               0.3
 (Enter /sw/apps/gaussian-16.0/g16/l914.exe)
 RHF ground state
 Two-electron integrals replicated using symmetry.
 MDV= 23488102400 DFT=T DoStab=F Mixed=T DoRPA=T DoScal=F NonHer=T
 Making orbital integer symmetry assigments:
 Orbital symmetries:
       Occupied  (A) (A) (A) (A) (A) (A) (A) (A) (A) (A) (A) (A)
                 (A) (A) (A) (A) (A) (A) (A) (A) (A) (A) (A) (A)
                 (A) (A) (A) (A) (A) (A) (A) (A) (A) (A) (A) (A)
                 (A) (A) (A) (A) (A) (A) (A) (A) (A) (A) (A) (A)
                 (A) (A) (A) (A) (A) (A) (A) (A) (A) (A) (A) (A)
                 (A) (A) (A) (A) (A) (A) (A) (A) (A) (A) (A) (A)
                 (A) (A) (A) (A) (A) (A) (A) (A) (A) (A) (A) (A)
                 (A) (A) (A) (A) (A) (A) (A) (A) (A) (A) (A) (A)
                 (A) (A) (A) (A) (A) (A) (A) (A) (A) (A) (A) (A)
                 (A) (A) (A) (A) (A) (A) (A) (A) (A) (A) (A) (A)
                 (A) (A) (A) (A) (A) (A) (A) (A) (A) (A) (A) (A)
                 (A) (A) (A) (A) (A) (A) (A) (A) (A) (A) (A) (A)
                 (A) (A) (A) (A) (A) (A) (A) (A) (A) (A) (A) (A)
                 (A) (A) (A) (A) (A) (A) (A) (A) (A) (A) (A) (A)
                 (A) (A) (A) (A) (A) (A) (A) (A) (A) (A) (A) (A)
                 (A) (A) (A) (A) (A) (A) (A) (A) (A) (A) (A) (A)
                 (A) (A) (A) (A) (A) (A) (A) (A) (A) (A) (A) (A)
                 (A) (A) (A) (A) (A) (A) (A) (A) (A) (A) (A) (A)
                 (A) (A) (A) (A) (A) (A) (A) (A) (A) (A) (A) (A)
                 (A) (A) (A) (A) (A) (A) (A) (A) (A) (A) (A) (A)
                 (A) (A) (A) (A) (A) (A) (A) (A) (A) (A) (A) (A)
                 (A) (A) (A) (A) (A) (A) (A) (A) (A) (A) (A) (A)
                 (A) (A) (A) (A) (A) (A) (A) (A) (A) (A) (A) (A)
                 (A) (A) (A) (A) (A) (A) (A) (A) (A) (A) (A) (A)
                 (A) (A) (A) (A) (A) (A) (A) (A) (A) (A) (A) (A)
                 (A) (A) (A) (A) (A) (A) (A) (A) (A) (A) (A) (A)
       Virtual   (A) (A) (A) (A) (A) (A) (A) (A) (A) (A) (A) (A)
                 (A) (A) (A) (A) (A) (A) (A) (A) (A) (A) (A) (A)
                 (A) (A) (A) (A) (A) (A) (A) (A) (A) (A) (A) (A)
                 (A) (A) (A) (A) (A) (A) (A) (A) (A) (A) (A) (A)
                 (A) (A) (A) (A) (A) (A) (A) (A) (A) (A) (A) (A)
                 (A) (A) (A) (A) (A) (A) (A) (A) (A) (A) (A) (A)
                 (A) (A) (A) (A) (A) (A) (A) (A) (A) (A) (A) (A)
                 (A) (A) (A) (A) (A) (A) (A) (A) (A) (A) (A) (A)
                 (A) (A) (A) (A) (A) (A) (A) (A) (A) (A) (A) (A)
                 (A) (A) (A) (A) (A) (A) (A) (A) (A) (A) (A) (A)
                 (A) (A) (A) (A) (A) (A) (A) (A) (A) (A) (A) (A)
                 (A) (A) (A) (A) (A) (A) (A) (A) (A) (A) (A) (A)
                 (A) (A) (A) (A) (A) (A) (A) (A) (A) (A) (A) (A)
                 (A) (A) (A) (A) (A) (A) (A) (A) (A) (A) (A) (A)
                 (A) (A) (A) (A) (A) (A) (A) (A) (A) (A) (A) (A)
                 (A) (A) (A) (A) (A) (A) (A) (A) (A) (A) (A) (A)
                 (A) (A) (A) (A) (A) (A) (A) (A) (A) (A) (A) (A)
                 (A) (A) (A) (A) (A) (A) (A) (A) (A) (A) (A) (A)
                 (A) (A) (A) (A) (A) (A) (A) (A) (A) (A) (A) (A)
                 (A) (A) (A) (A) (A) (A) (A) (A) (A) (A) (A) (A)
                 (A) (A) (A) (A) (A) (A) (A) (A) (A) (A) (A) (A)
                 (A) (A) (A) (A) (A) (A) (A) (A) (A) (A) (A) (A)
                 (A) (A) (A) (A) (A) (A) (A) (A) (A) (A) (A) (A)
                 (A) (A) (A) (A) (A) (A) (A) (A) (A) (A) (A) (A)
                 (A) (A) (A) (A) (A) (A) (A) (A) (A) (A) (A) (A)
                 (A) (A) (A) (A) (A) (A) (A) (A) (A) (A) (A) (A)
                 (A) (A) (A) (A) (A) (A) (A) (A) (A) (A) (A) (A)
                 (A) (A) (A) (A) (A) (A) (A) (A) (A) (A) (A) (A)
                 (A) (A) (A) (A) (A) (A) (A) (A) (A) (A) (A) (A)
                 (A) (A) (A) (A) (A) (A) (A) (A) (A) (A) (A) (A)
                 (A) (A) (A) (A) (A) (A) (A) (A) (A) (A) (A) (A)
                 (A) (A) (A) (A) (A) (A) (A) (A) (A) (A) (A) (A)
                 (A) (A) (A) (A) (A) (A) (A) (A) (A) (A) (A) (A)
                 (A) (A) (A) (A) (A) (A) (A) (A) (A) (A) (A) (A)
                 (A) (A) (A) (A) (A) (A) (A) (A) (A) (A) (A) (A)
                 (A) (A) (A) (A) (A) (A) (A) (A) (A) (A) (A) (A)
                 (A) (A) (A) (A) (A) (A) (A) (A) (A) (A) (A) (A)
                 (A) (A) (A) (A) (A) (A) (A) (A) (A) (A) (A) (A)
                 (A) (A) (A) (A) (A) (A) (A) (A) (A) (A) (A) (A)
                 (A) (A) (A) (A) (A) (A) (A) (A) (A) (A) (A) (A)
                 (A) (A) (A) (A) (A) (A) (A) (A) (A) (A) (A) (A)
                 (A) (A) (A) (A) (A) (A) (A) (A) (A) (A) (A) (A)
                 (A) (A) (A) (A) (A) (A) (A) (A) (A) (A) (A) (A)
                 (A) (A) (A) (A) (A) (A) (A) (A) (A) (A) (A) (A)
                 (A) (A) (A) (A) (A) (A) (A) (A) (A) (A) (A) (A)
                 (A) (A) (A) (A) (A) (A) (A) (A) (A) (A) (A) (A)
                 (A) (A) (A) (A) (A) (A) (A) (A) (A) (A) (A) (A)
                 (A) (A) (A) (A) (A) (A) (A) (A) (A) (A) (A) (A)
                 (A) (A) (A) (A) (A) (A) (A) (A) (A) (A) (A) (A)
                 (A) (A) (A) (A) (A) (A) (A) (A) (A) (A) (A) (A)
                 (A) (A) (A) (A) (A) (A) (A) (A) (A) (A) (A) (A)
                 (A) (A) (A) (A) (A) (A) (A) (A) (A) (A) (A) (A)
                 (A) (A) (A) (A) (A) (A) (A) (A) (A) (A) (A) (A)
                 (A) (A) (A) (A) (A) (A) (A) (A) (A) (A) (A) (A)
                 (A) (A) (A) (A) (A) (A) (A) (A) (A) (A) (A) (A)
                 (A) (A) (A) (A) (A) (A) (A) (A) (A) (A) (A) (A)
                 (A) (A) (A) (A) (A) (A) (A) (A) (A) (A) (A) (A)
                 (A) (A) (A) (A) (A) (A) (A) (A) (A) (A) (A) (A)
                 (A) (A) (A) (A) (A) (A) (A) (A) (A) (A) (A) (A)
                 (A) (A) (A) (A) (A) (A) (A) (A) (A) (A) (A) (A)
                 (A) (A) (A) (A) (A) (A) (A) (A) (A) (A) (A) (A)
                 (A) (A) (A) (A) (A) (A) (A) (A) (A) (A) (A) (A)
                 (A) (A) (A) (A) (A) (A) (A) (A) (A) (A) (A) (A)
                 (A) (A) (A) (A) (A) (A) (A) (A) (A) (A) (A) (A)
                 (A) (A) (A) (A) (A) (A) (A) (A) (A) (A) (A) (A)
                 (A) (A) (A) (A) (A) (A) (A) (A) (A) (A) (A) (A)
                 (A) (A) (A) (A) (A) (A) (A) (A) (A) (A) (A) (A)
                 (A) (A) (A) (A) (A) (A) (A) (A) (A) (A) (A) (A)
                 (A) (A) (A) (A) (A) (A) (A) (A) (A) (A) (A) (A)
                 (A) (A) (A) (A) (A) (A) (A) (A) (A) (A) (A) (A)
                 (A) (A) (A) (A) (A) (A) (A) (A) (A) (A) (A) (A)
                 (A) (A) (A) (A) (A) (A) (A) (A) (A) (A) (A) (A)
                 (A) (A) (A) (A) (A) (A) (A) (A) (A) (A) (A) (A)
                 (A) (A) (A) (A) (A) (A) (A) (A) (A) (A) (A) (A)
                 (A) (A) (A) (A) (A) (A) (A) (A) (A) (A) (A) (A)
                 (A) (A) (A) (A) (A) (A) (A) (A) (A) (A) (A) (A)
                 (A) (A) (A) (A) (A) (A) (A) (A) (A) (A) (A) (A)
                 (A) (A) (A) (A) (A) (A) (A) (A) (A) (A) (A) (A)
                 (A) (A) (A) (A) (A) (A) (A) (A) (A) (A) (A) (A)
                 (A) (A) (A) (A) (A) (A) (A) (A) (A) (A) (A) (A)
                 (A) (A) (A) (A) (A) (A) (A) (A) (A) (A) (A) (A)
                 (A) (A) (A) (A) (A) (A) (A) (A) (A) (A) (A) (A)
                 (A) (A) (A) (A) (A) (A) (A) (A) (A) (A) (A) (A)
                 (A) (A) (A) (A) (A) (A) (A) (A) (A) (A) (A) (A)
                 (A) (A) (A) (A) (A) (A) (A) (A) (A) (A) (A) (A)
                 (A) (A) (A) (A) (A) (A) (A) (A) (A) (A) (A) (A)
                 (A) (A) (A) (A) (A) (A) (A) (A) (A) (A) (A) (A)
                 (A) (A) (A) (A) (A) (A) (A) (A) (A) (A) (A) (A)
                 (A) (A) (A) (A) (A) (A) (A) (A) (A) (A) (A) (A)
                 (A) (A) (A) (A) (A) (A) (A) (A) (A) (A) (A) (A)
                 (A) (A) (A) (A) (A) (A) (A) (A) (A) (A) (A) (A)
                 (A) (A) (A) (A) (A) (A) (A) (A) (A) (A) (A) (A)
                 (A) (A) (A) (A) (A) (A) (A) (A) (A) (A) (A) (A)
                 (A) (A) (A) (A) (A) (A) (A) (A) (A) (A) (A) (A)
                 (A) (A) (A) (A) (A) (A) (A) (A) (A) (A) (A) (A)
                 (A) (A) (A) (A) (A) (A) (A) (A) (A) (A) (A) (A)
                 (A) (A) (A) (A) (A) (A) (A) (A) (A) (A) (A) (A)
                 (A) (A) (A) (A) (A) (A) (A) (A) (A) (A) (A) (A)
                 (A) (A) (A) (A) (A) (A) (A) (A) (A) (A) (A) (A)
                 (A) (A) (A) (A) (A) (A) (A) (A) (A) (A) (A) (A)
                 (A) (A) (A) (A) (A) (A) (A) (A) (A) (A) (A) (A)
                 (A) (A) (A) (A) (A) (A) (A) (A) (A) (A) (A) (A)
                 (A) (A) (A) (A) (A) (A) (A) (A) (A) (A) (A) (A)
                 (A) (A) (A) (A) (A) (A) (A) (A) (A) (A) (A) (A)
                 (A) (A) (A) (A) (A) (A) (A) (A) (A) (A) (A) (A)
    20 initial guesses have been made.
 Convergence on wavefunction:    0.001000000000000
 Davidson Disk Diagonalization:  ConvIn= 1.00D-03 SkipCon=T Conv= 1.00D-03.
 Max sub-space:  2000 roots to seek:    20 dimension of matrix:       549360
 Iteration     1 Dimension    20 NMult     0 NNew     20
 CISAX will form    20 AO SS matrices at one time.
 NMat=    20 NSing=    20 JSym2X= 0.
 FoFJK:  IHMeth= 1 ICntrl=       0 DoSepK=T KAlg= 0 I1Cent=           0 FoldK=F
 IRaf=         1 NMat=      40 IRICut=       1 DoRegI=T DoRafI=F ISym2E= 0 IDoP0=3 IntGTp=3.
 FoFCou: FMM=T IPFlag=           0 FMFlag=      100000 FMFlg1=        2001
         NFxFlg=           0 DoJE=F BraDBF=F KetDBF=F FulRan=T
         wScrn=  0.000000 ICntrl=       500 IOpCl=  0 I1Cent=           0 NGrid=           0
         NMat0=   20 NMatS0=     20 NMatT0=    0 NMatD0=   20 NMtDS0=    0 NMtDT0=    0
 Symmetry not used in FoFCou.
 FMM levels:  10  Number of levels for PrismC:   9
 New state      2 was old state      4
 New state      3 was old state      6
 New state      4 was old state      7
 New state      5 was old state      2
 Excitation Energies [eV] at current iteration:
 Root      1 :     2.222350041084311
 Root      2 :     2.461282962099775
 Root      3 :     2.597922089294715
 Root      4 :     2.613381090905995
 Root      5 :     2.642322981514406
 Root      6 :     2.734400263284207
 Root      7 :     3.002747256069886
 Root      8 :     3.256589810228625
 Root      9 :     3.640365964740401
 Root     10 :     3.668006404195302
 Root     11 :     3.743036047929110
 Root     12 :     3.757692212174307
 Root     13 :     4.114315673466043
 Root     14 :     4.257528331239518
 Root     15 :     4.353785720311298
 Root     16 :     4.402807288759810
 Root     17 :     4.477151666754692
 Root     18 :     4.517833093145701
 Root     19 :     4.607812286944310
 Root     20 :     4.772944381988205
 Iteration     2 Dimension    30 NMult    20 NNew     10
 CISAX will form    10 AO SS matrices at one time.
 NMat=    10 NSing=    10 JSym2X= 0.
 New state      1 was old state      5
 Root      1 not converged, maximum delta is    0.347374522857544
 New state      2 was old state      4
 Root      2 not converged, maximum delta is    0.382947777065713
 New state      3 was old state      1
 Root      3 not converged, maximum delta is    0.009347274255223
 New state      4 was old state      3
 Root      4 not converged, maximum delta is    0.493301306486193
 New state      5 was old state      2
 Root      5 not converged, maximum delta is    0.007217152355634
 Excitation Energies [eV] at current iteration:
 Root      1 :     1.773593695640178   Change is   -0.868729285874228
 Root      2 :     2.183829123738942   Change is   -0.429551967167053
 Root      3 :     2.220983194932435   Change is   -0.001366846151876
 Root      4 :     2.241902671242359   Change is   -0.356019418052356
 Root      5 :     2.459599813135787   Change is   -0.001683148963988
 Iteration     3 Dimension    40 NMult    30 NNew     10
 CISAX will form    10 AO SS matrices at one time.
 NMat=    10 NSing=    10 JSym2X= 0.
 Root      1 not converged, maximum delta is    0.055326669984094
 Root      2 not converged, maximum delta is    0.402924983691555
 New state      3 was old state      4
 Root      3 not converged, maximum delta is    0.532676467419095
 No map to state      4
 New state      5 was old state      3
 Root      5 not converged, maximum delta is    0.031606132990419
 Excitation Energies [eV] at current iteration:
 Root      1 :     1.669361608785938   Change is   -0.104232086854239
 Root      2 :     1.770542315793148   Change is   -0.413286807945795
 Root      3 :     2.192043641477389   Change is   -0.049859029764969
 Root      4 :     2.206390833992325
 Root      5 :     2.221001999974316   Change is    0.000018805041881
 Iteration     4 Dimension    50 NMult    40 NNew     10
 CISAX will form    10 AO SS matrices at one time.
 NMat=    10 NSing=    10 JSym2X= 0.
 Root      1 not converged, maximum delta is    0.013987916856419
 Root      2 not converged, maximum delta is    0.035348883215734
 Root      3 not converged, maximum delta is    0.120008918811029
 Root      4 not converged, maximum delta is    0.117891185507976
 Root      5 not converged, maximum delta is    0.011435637002222
 Excitation Energies [eV] at current iteration:
 Root      1 :     1.652800517365987   Change is   -0.016561091419951
 Root      2 :     1.700099870812740   Change is   -0.070442444980407
 Root      3 :     2.180929080459467   Change is   -0.011114561017922
 Root      4 :     2.196307792493121   Change is   -0.010083041499204
 Root      5 :     2.220988158512637   Change is   -0.000013841461680
 Iteration     5 Dimension    60 NMult    50 NNew     10
 CISAX will form    10 AO SS matrices at one time.
 NMat=    10 NSing=    10 JSym2X= 0.
 Root      1 not converged, maximum delta is    0.001754685573325
 Root      2 not converged, maximum delta is    0.008143460150075
 Root      3 not converged, maximum delta is    0.010861818235200
 Root      4 not converged, maximum delta is    0.010828794944216
 Root      5 has converged.
 Excitation Energies [eV] at current iteration:
 Root      1 :     1.651051190935771   Change is   -0.001749326430216
 Root      2 :     1.691261671360261   Change is   -0.008838199452480
 Root      3 :     2.179596345466392   Change is   -0.001332734993075
 Root      4 :     2.195217934583228   Change is   -0.001089857909893
 Root      5 :     2.220987366828097   Change is   -0.000000791684540
 Iteration     6 Dimension    68 NMult    60 NNew      8
 CISAX will form     8 AO SS matrices at one time.
 NMat=     8 NSing=     8 JSym2X= 0.
 Root      1 not converged, maximum delta is    0.001016450750304
 Root      2 not converged, maximum delta is    0.001932479708676
 Root      3 not converged, maximum delta is    0.001286845483264
 Root      4 has converged.
 Root      5 has converged.
 Excitation Energies [eV] at current iteration:
 Root      1 :     1.650805621323654   Change is   -0.000245569612118
 Root      2 :     1.690322296759099   Change is   -0.000939374601161
 Root      3 :     2.179422038664981   Change is   -0.000174306801412
 Root      4 :     2.195068795321170   Change is   -0.000149139262058
 Root      5 :     2.220987294034573   Change is   -0.000000072793524
 Iteration     7 Dimension    74 NMult    68 NNew      6
 CISAX will form     6 AO SS matrices at one time.
 NMat=     6 NSing=     6 JSym2X= 0.
 Root      1 has converged.
 Root      2 has converged.
 Root      3 has converged.
 Root      4 has converged.
 Root      5 has converged.
 Excitation Energies [eV] at current iteration:
[...]
 Alpha virt. eigenvalues --    1.83644   1.83716   1.83917   1.84185   1.84336
 Alpha virt. eigenvalues --    1.84466   1.84697   1.84797   1.84891   1.85028
 Alpha virt. eigenvalues --    1.85190   1.85348   1.85394   1.85540   1.85722
 Alpha virt. eigenvalues --    1.85773   1.86151   1.86218   1.86464   1.86617
 Alpha virt. eigenvalues --    1.86713   1.86850   1.86953   1.87223   1.87252
 Alpha virt. eigenvalues --    1.87345   1.87539   1.87721   1.87737   1.87903
 Alpha virt. eigenvalues --    1.88041   1.88362   1.88408   1.88454   1.88715
 Alpha virt. eigenvalues --    1.88826   1.89011   1.89313   1.89506   1.89543
 Alpha virt. eigenvalues --    1.89633   1.89934   1.90010   1.90099   1.90467
 Alpha virt. eigenvalues --    1.90636   1.91193   1.91222   1.91295   1.91843
 Alpha virt. eigenvalues --    1.91977   1.92050   1.92425   1.92520   1.92859
 Alpha virt. eigenvalues --    1.92919   1.93209   1.93459   1.93868   1.94107
 Alpha virt. eigenvalues --    1.94554   1.94637   1.95159   1.95301   1.95601
 Alpha virt. eigenvalues --    1.95861   1.95968   1.96051   1.96099   1.96338
 Alpha virt. eigenvalues --    1.96442   1.96467   1.96757   1.96842   1.97224
 Alpha virt. eigenvalues --    1.97293   1.97685   1.97819   1.98025   1.98057
 Alpha virt. eigenvalues --    1.98425   1.98503   1.98614   1.99018   1.99409
 Alpha virt. eigenvalues --    1.99718   2.00199   2.00533   2.00917   2.01018
 Alpha virt. eigenvalues --    2.01319   2.01383   2.01554   2.01601   2.01784
 Alpha virt. eigenvalues --    2.01871   2.02049   2.02672   2.02961   2.03074
 Alpha virt. eigenvalues --    2.03252   2.03347   2.03608   2.03644   2.03741
 Alpha virt. eigenvalues --    2.03982   2.04344   2.04856   2.05232   2.05408
 Alpha virt. eigenvalues --    2.05889   2.05960   2.06504   2.06774   2.07067
 Alpha virt. eigenvalues --    2.07181   2.07598   2.08463   2.08828   2.08873
 Alpha virt. eigenvalues --    2.09220   2.09477   2.09810   2.10609   2.11062
 Alpha virt. eigenvalues --    2.11414   2.11432   2.11620   2.11624   2.11740
 Alpha virt. eigenvalues --    2.12120   2.12342   2.12665   2.12711   2.12777
 Alpha virt. eigenvalues --    2.13104   2.13154   2.13678   2.13914   2.13994
 Alpha virt. eigenvalues --    2.14838   2.15216   2.15658   2.15807   2.16361
 Alpha virt. eigenvalues --    2.16470   2.16654   2.16893   2.17327   2.17369
 Alpha virt. eigenvalues --    2.17563   2.17904   2.18104   2.18149   2.18340
 Alpha virt. eigenvalues --    2.18403   2.18754   2.18887   2.19425   2.19547
 Alpha virt. eigenvalues --    2.19929   2.20027   2.20092   2.20517   2.20694
 Alpha virt. eigenvalues --    2.20983   2.21554   2.21622   2.21665   2.21967
 Alpha virt. eigenvalues --    2.22054   2.22568   2.23004   2.23175   2.23712
 Alpha virt. eigenvalues --    2.24272   2.24687   2.24795   2.25336   2.26178
 Alpha virt. eigenvalues --    2.26619   2.26658   2.26980   2.27264   2.27420
 Alpha virt. eigenvalues --    2.28041   2.28588   2.29158   2.29625   2.29735
 Alpha virt. eigenvalues --    2.30099   2.30340   2.30789   2.30949   2.31007
 Alpha virt. eigenvalues --    2.31067   2.31518   2.31996   2.32559   2.33027
 Alpha virt. eigenvalues --    2.33311   2.33478   2.33748   2.33998   2.34540
 Alpha virt. eigenvalues --    2.35220   2.35472   2.35700   2.36066   2.36293
 Alpha virt. eigenvalues --    2.36525   2.36542   2.36803   2.37554   2.37979
 Alpha virt. eigenvalues --    2.38138   2.38635   2.38763   2.38980   2.39493
 Alpha virt. eigenvalues --    2.39872   2.40053   2.40384   2.40642   2.41029
 Alpha virt. eigenvalues --    2.41174   2.41434   2.41544   2.41906   2.41959
 Alpha virt. eigenvalues --    2.42282   2.42771   2.43098   2.43233   2.43344
 Alpha virt. eigenvalues --    2.44030   2.44229   2.44626   2.44773   2.45043
 Alpha virt. eigenvalues --    2.45266   2.45440   2.45806   2.46194   2.46368
 Alpha virt. eigenvalues --    2.46471   2.46674   2.46707   2.46953   2.47118
 Alpha virt. eigenvalues --    2.47593   2.47667   2.48205   2.49164   2.49749
 Alpha virt. eigenvalues --    2.49896   2.50196   2.50400   2.50692   2.50999
 Alpha virt. eigenvalues --    2.51473   2.51758   2.51823   2.52305   2.52586
 Alpha virt. eigenvalues --    2.52695   2.53423   2.53777   2.54007   2.54255
 Alpha virt. eigenvalues --    2.54569   2.54650   2.55072   2.55378   2.55929
 Alpha virt. eigenvalues --    2.57750   2.58384   2.58503   2.59342   2.60078
 Alpha virt. eigenvalues --    2.60452   2.60512   2.61197   2.61583   2.62134
 Alpha virt. eigenvalues --    2.62412   2.62696   2.62824   2.63394   2.63831
 Alpha virt. eigenvalues --    2.64047   2.64441   2.64914   2.64943   2.65487
 Alpha virt. eigenvalues --    2.65680   2.66089   2.66615   2.66788   2.67107
 Alpha virt. eigenvalues --    2.67377   2.67761   2.68297   2.68714   2.68886
 Alpha virt. eigenvalues --    2.69044   2.69185   2.69239   2.69826   2.69886
 Alpha virt. eigenvalues --    2.70410   2.70829   2.71303   2.71895   2.72069
 Alpha virt. eigenvalues --    2.72528   2.72625   2.72661   2.72914   2.73099
 Alpha virt. eigenvalues --    2.73307   2.73553   2.73651   2.74386   2.74727
 Alpha virt. eigenvalues --    2.74847   2.75255   2.76439   2.76790   2.77105
 Alpha virt. eigenvalues --    2.77234   2.77313   2.77810   2.78025   2.78486
 Alpha virt. eigenvalues --    2.78565   2.78969   2.78990   2.79362   2.80186
 Alpha virt. eigenvalues --    2.80437   2.80447   2.80839   2.80989   2.81312
 Alpha virt. eigenvalues --    2.81813   2.82135   2.82192   2.82613   2.83612
 Alpha virt. eigenvalues --    2.83645   2.84017   2.84031   2.84424   2.84724
 Alpha virt. eigenvalues --    2.84751   2.85231   2.85514   2.85906   2.86814
 Alpha virt. eigenvalues --    2.86838   2.87297   2.87429   2.88030   2.88370
 Alpha virt. eigenvalues --    2.88405   2.88790   2.88838   2.89075   2.90360
 Alpha virt. eigenvalues --    2.90915   2.91023   2.91473   2.93050   2.93541
 Alpha virt. eigenvalues --    2.94022   2.94102   2.94408   2.94873   2.95255
 Alpha virt. eigenvalues --    2.95709   2.95890   2.96017   2.96258   2.96586
 Alpha virt. eigenvalues --    2.96991   2.97017   2.97682   2.98102   2.98234
 Alpha virt. eigenvalues --    2.98264   2.98498   2.98503   2.98746   2.98769
 Alpha virt. eigenvalues --    2.98937   2.99164   2.99444   2.99891   3.00000
 Alpha virt. eigenvalues --    3.00096   3.00162   3.00334   3.00537   3.01262
 Alpha virt. eigenvalues --    3.01808   3.01915   3.02264   3.02324   3.02568
 Alpha virt. eigenvalues --    3.02843   3.02948   3.03213   3.03564   3.03937
 Alpha virt. eigenvalues --    3.04086   3.04311   3.04366   3.04432   3.04745
 Alpha virt. eigenvalues --    3.04872   3.05160   3.05712   3.06012   3.06646
 Alpha virt. eigenvalues --    3.06698   3.07358   3.08011   3.08207   3.09276
 Alpha virt. eigenvalues --    3.09560   3.09796   3.10348   3.10597   3.10986
 Alpha virt. eigenvalues --    3.11154   3.11817   3.11953   3.12087   3.12289
 Alpha virt. eigenvalues --    3.12584   3.13195   3.13479   3.13835   3.13942
 Alpha virt. eigenvalues --    3.13959   3.14524   3.15714   3.16297   3.17139
 Alpha virt. eigenvalues --    3.17671   3.17909   3.18072   3.18985   3.19215
 Alpha virt. eigenvalues --    3.22101   3.22662   3.23829   3.24529   3.24568
 Alpha virt. eigenvalues --    3.25292   3.26381   3.26833   3.27491   3.27583
 Alpha virt. eigenvalues --    3.28874   3.29264   3.31393   3.31554   3.33293
 Alpha virt. eigenvalues --    3.33384   3.40269   3.40521   3.42669   3.42985
 Alpha virt. eigenvalues --    3.48531   3.48826   3.49905   3.50497   3.51030
 Alpha virt. eigenvalues --    3.51349   3.56421   3.57196   3.58965   3.59596
 Alpha virt. eigenvalues --    3.62666   3.62729   3.66045   3.66275   3.67068
 Alpha virt. eigenvalues --    3.67571   3.73222   3.74058   3.76049   3.76723
          Condensed to atoms (all electrons):
 Mulliken charges:
               1
     1  Mg   0.839022
     2  C   -0.003216
     3  C   -0.092765
     4  C   -0.047168
     5  C   -0.063590
     6  N   -0.256736
     7  C   -0.052071
     8  C   -0.014275
     9  C   -0.087207
    10  C    0.046317
    11  C    0.104658
    12  C    0.053379
    13  C   -0.071943
    14  H    0.034975
    15  N   -0.433298
    16  C    0.168651
    17  C   -0.176316
    18  C   -0.004743
    19  C    0.148953
    20  C    0.109730
    21  C    0.010851
    22  O   -0.251563
    23  C    0.062467
    24  N   -0.341007
    25  C    0.041623
    26  C   -0.027959
    27  C   -0.023769
    28  C    0.074397
    29  C    0.076138
    30  C    0.035228
    31  C   -0.004851
    32  N   -0.310649
    33  C    0.080656
    34  C   -0.168909
    35  C    0.008339
    36  C    0.083023
    37  C    0.127298
    38  C    0.045816
    39  O   -0.188175
    40  C   -0.005582
    41  C    0.214433
    42  O   -0.259619
    43  O   -0.303907
    44  C    0.157946
    45  H   -0.016795
    46  H   -0.017910
    47  H   -0.041428
    48  H    0.001015
    49  H   -0.003068
    50  H    0.025456
    51  H    0.016494
    52  H    0.017307
    53  H    0.012423
    54  H    0.042709
    55  H    0.018230
    56  H    0.019319
    57  H    0.006855
    58  H    0.026943
    59  H    0.041756
    60  H    0.038623
    61  H    0.034776
    62  H    0.032303
    63  H    0.014302
    64  H    0.010026
    65  H    0.022643
    66  H    0.013278
    67  H    0.005188
    68  H    0.005442
    69  H    0.005805
    70  H    0.005036
    71  H    0.016656
    72  H    0.031769
    73  H    0.048491
    74  H    0.009320
    75  H    0.046085
    76  H    0.035799
    77  H    0.043772
    78  H    0.047117
    79  H    0.051737
    80  Mg   0.836685
    81  C   -0.017666
    82  C   -0.089039
    83  C   -0.045138
    84  C   -0.063116
    85  N   -0.255070
    86  C   -0.050180
    87  C   -0.014744
    88  C   -0.090706
    89  C    0.045886
    90  C    0.114793
    91  C    0.062559
    92  C   -0.077522
    93  H    0.033514
    94  N   -0.423747
    95  C    0.163681
    96  C   -0.175207
    97  C   -0.007632
    98  C    0.152416
    99  C    0.099569
   100  C    0.015063
   101  O   -0.252050
   102  C    0.061531
   103  N   -0.350529
   104  C    0.039968
   105  C   -0.021792
   106  C   -0.034047
   107  C    0.089613
   108  C    0.068484
   109  C    0.034350
   110  C   -0.007279
   111  N   -0.323875
   112  C    0.078034
   113  C   -0.163970
   114  C    0.001072
   115  C    0.096337
   116  C    0.131993
   117  C    0.040898
   118  O   -0.190511
   119  C    0.001620
   120  C    0.211276
   121  O   -0.250856
   122  O   -0.306310
   123  C    0.152159
   124  H   -0.019445
   125  H   -0.014148
   126  H   -0.041007
   127  H   -0.002087
   128  H   -0.004833
   129  H    0.020546
   130  H    0.013774
   131  H    0.022565
   132  H    0.013774
   133  H    0.037051
   134  H    0.021074
   135  H    0.019743
   136  H    0.008679
   137  H    0.024488
   138  H    0.039348
   139  H    0.036967
   140  H    0.036193
   141  H    0.033612
   142  H    0.012454
   143  H    0.017940
   144  H    0.022985
   145  H    0.014491
   146  H    0.022425
   147  H    0.006825
   148  H    0.001736
   149  H    0.010886
   150  H    0.016240
   151  H    0.029112
   152  H    0.044977
   153  H    0.008602
   154  H    0.044429
   155  H    0.031883
   156  H    0.042726
   157  H    0.049910
   158  H    0.053514
 Sum of Mulliken charges =  -0.00000
 Mulliken charges with hydrogens summed into heavy atoms:
               1
     1  Mg   0.839022
     2  C   -0.003216
     3  C   -0.109560
     4  C   -0.065078
     5  C   -0.105018
     6  N   -0.256736
     7  C   -0.052071
     8  C   -0.013260
     9  C   -0.090275
    10  C    0.046317
    11  C    0.163916
    12  C    0.108511
    13  C    0.000580
    15  N   -0.433298
    16  C    0.168651
    17  C   -0.176316
    18  C   -0.004743
    19  C    0.148953
    20  C    0.185284
    21  C    0.010851
    22  O   -0.251563
    23  C    0.168169
    24  N   -0.341007
    25  C    0.041623
    26  C   -0.013657
    27  C   -0.013743
    28  C    0.074397
    29  C    0.117248
    30  C    0.046475
    31  C    0.048611
    32  N   -0.310649
    33  C    0.080656
    34  C   -0.168909
    35  C    0.008339
    36  C    0.083023
    37  C    0.231194
    38  C    0.045816
    39  O   -0.188175
    40  C    0.030217
    41  C    0.214433
    42  O   -0.259619
    43  O   -0.303907
    44  C    0.300572
    80  Mg   0.836685
    81  C   -0.017666
    82  C   -0.108484
    83  C   -0.059286
    84  C   -0.104123
    85  N   -0.255070
    86  C   -0.050180
    87  C   -0.016832
    88  C   -0.095539
    89  C    0.045886
    90  C    0.171679
    91  C    0.113384
    92  C   -0.003190
    94  N   -0.423747
    95  C    0.163681
    96  C   -0.175207
    97  C   -0.007632
    98  C    0.152416
    99  C    0.172083
   100  C    0.015063
   101  O   -0.252050
   102  C    0.168303
   103  N   -0.350529
   104  C    0.039968
   105  C   -0.009338
   106  C   -0.016107
   107  C    0.089613
   108  C    0.128384
   109  C    0.042910
   110  C    0.048958
   111  N   -0.323875
   112  C    0.078034
   113  C   -0.163970
   114  C    0.001072
   115  C    0.096337
   116  C    0.230001
   117  C    0.040898
   118  O   -0.190511
   119  C    0.033503
   120  C    0.211276
   121  O   -0.250856
   122  O   -0.306310
   123  C    0.298308
 Electronic spatial extent (au):  <R**2>=          88378.8969
 Charge=             -0.0000 electrons
 Dipole moment (field-independent basis, Debye):
    X=              2.4179    Y=              4.8999    Z=              1.0942  Tot=              5.5724
 Quadrupole moment (field-independent basis, Debye-Ang):
   XX=           -527.3082   YY=           -520.9805   ZZ=           -472.1385
   XY=             10.6066   XZ=            -43.2267   YZ=             13.4503
 Traceless Quadrupole moment (field-independent basis, Debye-Ang):
   XX=            -20.4991   YY=            -14.1715   ZZ=             34.6706
   XY=             10.6066   XZ=            -43.2267   YZ=             13.4503
 Octapole moment (field-independent basis, Debye-Ang**2):
  XXX=              9.9500  YYY=             63.0114  ZZZ=            197.8794  XYY=           -125.0172
  XXY=            245.6851  XXZ=            111.6428  XZZ=            216.5702  YZZ=            -39.4685
  YYZ=           -333.0602  XYZ=             -3.5509
 Hexadecapole moment (field-independent basis, Debye-Ang**3):
 XXXX=         -56276.5874 YYYY=         -36703.4328 ZZZZ=         -27887.4371 XXXY=           -557.6697
 XXXZ=          -1129.0690 YYYX=           -531.1369 YYYZ=            192.5978 ZZZX=          -1097.2150
 ZZZY=            443.7630 XXYY=         -14948.6874 XXZZ=         -13599.5325 YYZZ=         -10536.9117
 XXYZ=            -44.9765 YYXZ=            -21.5745 ZZXY=            132.2148
 N-N= 1.591217548871D+04 E-N=-4.130549223143D+04  KE= 4.028795708519D+03
 Leave Link  601 at Fri Sep  3 14:53:31 2021, MaxMem= 23488102400 cpu:              19.5 elap:               1.0
 (Enter /sw/apps/gaussian-16.0/g16/l9999.exe)
 1\1\GINC-BP1-COMPUTE00084\SP\RCAM-B3LYP TD-FC\def2SVP\C68H72Mg2N8O8\OF
 15641\03-Sep-2021\0\\#p cam-b3lyp/Def2SVP td=(nstates=5)\\TDDFT excite
 d states in gaussian\\0,1\Mg,0,0.,0.,0.\C,0,-0.217,-2.218,2.801\C,0,-1
 .255,2.442,2.026\C,0,-0.245,1.85,-2.564\C,0,0.146,-2.824,-2.037\N,0,-0
 .617,-0.009,2.126\C,0,-0.594,-0.908,3.105\C,0,-0.936,-0.309,4.502\C,0,
 -1.773,0.964,4.032\C,0,-1.155,1.168,2.66\C,0,-3.263,0.685,3.863\C,0,0.
 345,0.11,5.299\C,0,0.124,0.397,6.787\H,0,1.168,0.033,7.733\N,0,-0.185,
 1.961,-0.152\C,0,-0.703,2.8,0.777\C,0,-0.62,4.156,0.193\C,0,-0.187,4.0
 15,-1.225\C,0,-0.214,2.583,-1.38\C,0,-0.887,5.406,0.974\C,0,0.181,5.01
 3,-2.277\O,0,0.303,4.69,-3.508\C,0,0.31,6.414,-1.837\N,0,-0.265,-0.413
 ,-2.029\C,0,-0.279,0.569,-2.937\C,0,-0.196,0.024,-4.332\C,0,0.124,-1.5
 33,-4.18\C,0,0.086,-1.632,-2.635\C,0,-1.451,0.205,-5.197\C,0,1.373,-2.
 07,-4.923\C,0,2.626,-1.49,-4.306\N,0,0.15,-2.144,0.303\C,0,0.173,-3.13
 6,-0.688\C,0,0.173,-4.438,0.004\C,0,0.133,-4.111,1.358\C,0,0.083,-2.69
 5,1.502\C,0,0.149,-5.715,-0.623\C,0,0.096,-4.629,2.716\O,0,0.208,-5.74
 7,3.221\C,0,-0.255,-3.428,3.701\C,0,0.717,-3.482,4.848\O,0,1.931,-3.25
 5,4.669\O,0,0.038,-3.556,6.003\C,0,0.943,-3.583,7.183\H,0,-1.859,3.22,
 2.497\H,0,-0.218,2.453,-3.474\H,0,0.276,-3.747,-2.605\H,0,-1.554,-0.94
 9,5.132\H,0,-1.585,1.831,4.665\H,0,-3.484,-0.377,3.969\H,0,-3.511,1.02
 7,2.858\H,0,-3.852,1.301,4.543\H,0,0.669,1.096,4.966\H,0,1.13,-0.639,5
 .189\H,0,-0.844,0.026,7.125\H,0,0.062,1.477,6.921\H,0,-1.344,5.186,1.9
 38\H,0,-1.651,5.963,0.432\H,0,0.007,6.02,1.084\H,0,-0.635,6.744,-1.405
 \H,0,0.665,6.97,-2.704\H,0,1.048,6.466,-1.036\H,0,0.608,0.501,-4.891\H
 ,0,-0.692,-2.156,-4.547\H,0,-1.267,0.74,-6.129\H,0,-2.204,0.714,-4.596
 \H,0,-1.967,-0.72,-5.453\H,0,1.356,-1.759,-5.967\H,0,1.452,-3.157,-4.9
 02\H,0,2.714,-0.522,-4.798\H,0,3.487,-2.121,-4.529\H,0,2.495,-1.303,-3
 .24\H,0,0.867,-6.333,-0.084\H,0,0.404,-5.642,-1.68\H,0,-0.891,-5.999,-
 0.463\H,0,-1.283,-3.581,4.028\H,0,0.698,-4.478,7.755\H,0,0.833,-2.619,
 7.68\H,0,2.,-3.754,6.976\Mg,0,7.89061,0.71333,0.59225\C,0,7.3461,4.252
 3,0.83361\C,0,7.23585,0.991,-2.74373\C,0,7.91966,-2.45499,0.42398\C,0,
 7.37564,0.53963,4.03468\N,0,7.37141,2.45086,-0.67411\C,0,7.25339,3.756
 27,-0.4835\C,0,7.10299,4.5856,-1.78702\C,0,6.51397,3.43366,-2.73831\C,
 0,7.10185,2.21181,-2.03537\C,0,4.99866,3.3295,-2.68986\C,0,8.47948,5.1
 2046,-2.31733\C,0,8.37714,6.19038,-3.40662\H,0,9.37154,7.25959,-3.4276
 6\N,0,8.10143,-0.4877,-0.97352\C,0,7.80852,-0.20599,-2.26043\C,0,8.121
 75,-1.42586,-3.02067\C,0,8.46752,-2.50439,-2.0553\C,0,8.14914,-1.84897
 ,-0.80265\C,0,8.15283,-1.46415,-4.521\C,0,8.98536,-3.89978,-2.23118\O,
 0,8.9889,-4.74331,-1.26615\C,0,9.40133,-4.27833,-3.58954\N,0,7.47088,-
 0.77626,1.98051\C,0,7.61212,-2.07552,1.66444\C,0,7.52251,-2.9487,2.893
 23\C,0,7.53327,-1.94302,4.13664\C,0,7.53748,-0.59928,3.37524\C,0,6.291
 95,-3.85127,2.97964\C,0,8.61689,-2.17986,5.224\C,0,9.98866,-1.89452,4.
 65635\N,0,7.62517,2.13336,2.19883\C,0,7.39878,1.8458,3.5627\C,0,7.1661
 7,3.13447,4.24656\C,0,7.25124,4.08799,3.22086\C,0,7.49799,3.43763,1.98
 165\C,0,6.86982,3.30112,5.62878\C,0,7.17785,5.49591,2.90294\O,0,7.0769
 8,6.53085,3.56056\C,0,7.11032,5.65433,1.32284\C,0,8.0999,6.71287,0.919
 43\O,0,9.31998,6.53022,1.07642\O,0,7.46195,7.66866,0.21953\C,0,8.4038,
 8.73555,-0.2123\H,0,6.82617,0.92871,-3.75228\H,0,8.02831,-3.54192,0.44
 056\H,0,7.30507,0.57863,5.1238\H,0,6.40225,5.40939,-1.723\H,0,6.90548,
 3.51731,-3.7488\H,0,4.57477,3.97102,-1.93164\H,0,4.78194,2.29191,-2.47
 197\H,0,4.57558,3.52437,-3.67949\H,0,8.97933,4.32364,-2.88299\H,0,9.08
 38,5.48421,-1.50917\H,0,7.36481,6.60551,-3.48283\H,0,8.54584,5.71565,-
 4.37625\H,0,7.69423,-0.5675,-4.95585\H,0,7.49668,-2.28366,-4.83361\H,0
 ,9.15474,-1.64286,-4.91712\H,0,8.56154,-4.16093,-4.27029\H,0,9.82466,-
 5.28038,-3.49694\H,0,10.17783,-3.58161,-3.92457\H,0,8.38111,-3.60506,2
 .96468\H,0,6.58954,-1.98188,4.70029\H,0,6.54361,-4.92347,3.08508\H,0,5
 .68614,-3.68776,2.09828\H,0,5.59884,-3.61134,3.78415\H,0,8.6207,-3.228
 07,5.53287\H,0,8.47065,-1.5815,6.11706\H,0,10.24383,-2.8283,4.14642\H,
 0,10.69521,-1.67464,5.45414\H,0,9.94388,-1.10561,3.89657\H,0,7.46428,4
 .13562,5.97624\H,0,7.08497,2.39633,6.19343\H,0,5.79727,3.5061,5.57496\
 H,0,6.08728,5.93062,1.06473\H,0,8.0044,9.68409,0.15976\H,0,8.49864,8.6
 2443,-1.30884\H,0,9.39483,8.73682,0.22623\\Version=ES64L-G16RevA.03\St
 ate=1-A\HF=-4069.8131563\RMSD=7.806e-09\PG=C01 [X(C68H72Mg2N8O8)]\\@


 BLESSED ARE THOSE WHO NOUGHT EXPECT,
 FOR THEY SHALL NOT BE DISAPPOINTED..  WALCOT - ODE TO PITT
 Job cpu time:       0 days 15 hours 35 minutes 29.3 seconds.
 Elapsed time:       0 days  0 hours 39 minutes 40.3 seconds.
 File lengths (MBytes):  RWF=  13225 Int=      0 D2E=      0 Chk=    574 Scr=      1
 Normal termination of Gaussian 16 at Fri Sep  3 14:53:32 2021.
