 Entering Gaussian System, Link 0=g16
 Initial command:
 /sw/apps/gaussian-16.0/g16/l1.exe "/tmp/Gau-107956.inp" -scrdir="/tmp/"
 Entering Link 1 = /sw/apps/gaussian-16.0/g16/l1.exe PID=    107958.
  
 Copyright (c) 1988,1990,1992,1993,1995,1998,2003,2009,2016,
            Gaussian, Inc.  All Rights Reserved.
  
 This is part of the Gaussian(R) 16 program.  It is based on
 the Gaussian(R) 09 system (copyright 2009, Gaussian, Inc.),
 the Gaussian(R) 03 system (copyright 2003, Gaussian, Inc.),
 the Gaussian(R) 98 system (copyright 1998, Gaussian, Inc.),
 the Gaussian(R) 94 system (copyright 1995, Gaussian, Inc.),
 the Gaussian 92(TM) system (copyright 1992, Gaussian, Inc.),
 the Gaussian 90(TM) system (copyright 1990, Gaussian, Inc.),
 the Gaussian 88(TM) system (copyright 1988, Gaussian, Inc.),
 the Gaussian 86(TM) system (copyright 1986, Carnegie Mellon
 University), and the Gaussian 82(TM) system (copyright 1983,
 Carnegie Mellon University). Gaussian is a federally registered
 trademark of Gaussian, Inc.
  
 This software contains proprietary and confidential information,
 including trade secrets, belonging to Gaussian, Inc.
  
 This software is provided under written license and may be
 used, copied, transmitted, or stored only in accord with that
 written license.
  
 The following legend is applicable only to US Government
 contracts under FAR:
  
                    RESTRICTED RIGHTS LEGEND
  
 Use, reproduction and disclosure by the US Government is
 subject to restrictions as set forth in subparagraphs (a)
 and (c) of the Commercial Computer Software - Restricted
 Rights clause in FAR 52.227-19.
  
 Gaussian, Inc.
 340 Quinnipiac St., Bldg. 40, Wallingford CT 06492
  
  
 ---------------------------------------------------------------
 Warning -- This program may not be used in any manner that
 competes with the business of Gaussian, Inc. or will provide
 assistance to any competitor of Gaussian, Inc.  The licensee
 of this program is prohibited from giving any competitor of
 Gaussian, Inc. access to this program.  By using this program,
 the user acknowledges that Gaussian, Inc. is engaged in the
 business of creating and licensing software in the field of
 computational chemistry and represents and warrants to the
 licensee that it is not a competitor of Gaussian, Inc. and that
 it will not use this program in any manner prohibited above.
 ---------------------------------------------------------------
  

 Cite this work as:
 Gaussian 16, Revision A.03,
 M. J. Frisch, G. W. Trucks, H. B. Schlegel, G. E. Scuseria, 
 M. A. Robb, J. R. Cheeseman, G. Scalmani, V. Barone, 
 G. A. Petersson, H. Nakatsuji, X. Li, M. Caricato, A. V. Marenich, 
 J. Bloino, B. G. Janesko, R. Gomperts, B. Mennucci, H. P. Hratchian, 
 J. V. Ortiz, A. F. Izmaylov, J. L. Sonnenberg, D. Williams-Young, 
 F. Ding, F. Lipparini, F. Egidi, J. Goings, B. Peng, A. Petrone, 
 T. Henderson, D. Ranasinghe, V. G. Zakrzewski, J. Gao, N. Rega, 
 G. Zheng, W. Liang, M. Hada, M. Ehara, K. Toyota, R. Fukuda, 
 J. Hasegawa, M. Ishida, T. Nakajima, Y. Honda, O. Kitao, H. Nakai, 
 T. Vreven, K. Throssell, J. A. Montgomery, Jr., J. E. Peralta, 
 F. Ogliaro, M. J. Bearpark, J. J. Heyd, E. N. Brothers, K. N. Kudin, 
 V. N. Staroverov, T. A. Keith, R. Kobayashi, J. Normand, 
 K. Raghavachari, A. P. Rendell, J. C. Burant, S. S. Iyengar, 
 J. Tomasi, M. Cossi, J. M. Millam, M. Klene, C. Adamo, R. Cammi, 
 J. W. Ochterski, R. L. Martin, K. Morokuma, O. Farkas, 
 J. B. Foresman, and D. J. Fox, Gaussian, Inc., Wallingford CT, 2016.
 
 ******************************************
 Gaussian 16:  ES64L-G16RevA.03 25-Dec-2016
                 4-Sep-2021 
 ******************************************
 %nproc=24
 Will use up to   24 processors via shared memory.
 %mem=175gb
 -----------------------------------
 #p cam-b3lyp/Def2SVP td=(nstates=5)
 -----------------------------------
 1/38=1,172=1/1;
 2/12=2,17=6,18=5,40=1/2;
 3/5=43,7=101,11=9,25=1,30=1,74=-40/1,2,3,8;
 4//1;
 5/5=2,38=5/2;
 8/6=1,10=1,108=5/1;
 9/41=5,42=1,70=2/14;
 6/7=2,8=2,9=2,10=2/1;
 99/5=1,9=1/99;
 Leave Link    1 at Sat Sep  4 12:23:16 2021, MaxMem= 23488102400 cpu:               0.8 elap:               0.0
 (Enter /sw/apps/gaussian-16.0/g16/l101.exe)
 --------------------------------
 TDDFT excited states in gaussian
 --------------------------------
 Symbolic Z-matrix:
 Charge =  0 Multiplicity = 1
 Mg                    0.        0.        0. 
 C                    -0.217    -2.218     2.801 
 C                    -1.255     2.442     2.026 
 C                    -0.245     1.85     -2.564 
 C                     0.146    -2.824    -2.037 
 N                    -0.617    -0.009     2.126 
 C                    -0.594    -0.908     3.105 
 C                    -0.936    -0.309     4.502 
 C                    -1.773     0.964     4.032 
 C                    -1.155     1.168     2.66 
 C                    -3.263     0.685     3.863 
 C                     0.345     0.11      5.299 
 C                     0.124     0.397     6.787 
 H                     1.168     0.033     7.733 
 N                    -0.185     1.961    -0.152 
 C                    -0.703     2.8       0.777 
 C                    -0.62      4.156     0.193 
 C                    -0.187     4.015    -1.225 
 C                    -0.214     2.583    -1.38 
 C                    -0.887     5.406     0.974 
 C                     0.181     5.013    -2.277 
 O                     0.303     4.69     -3.508 
 C                     0.31      6.414    -1.837 
 N                    -0.265    -0.413    -2.029 
 C                    -0.279     0.569    -2.937 
 C                    -0.196     0.024    -4.332 
 C                     0.124    -1.533    -4.18 
 C                     0.086    -1.632    -2.635 
 C                    -1.451     0.205    -5.197 
 C                     1.373    -2.07     -4.923 
 C                     2.626    -1.49     -4.306 
 N                     0.15     -2.144     0.303 
 C                     0.173    -3.136    -0.688 
 C                     0.173    -4.438     0.004 
 C                     0.133    -4.111     1.358 
 C                     0.083    -2.695     1.502 
 C                     0.149    -5.715    -0.623 
 C                     0.096    -4.629     2.716 
 O                     0.208    -5.747     3.221 
 C                    -0.255    -3.428     3.701 
 C                     0.717    -3.482     4.848 
 O                     1.931    -3.255     4.669 
 O                     0.038    -3.556     6.003 
 C                     0.943    -3.583     7.183 
 H                    -1.859     3.22      2.497 
 H                    -0.218     2.453    -3.474 
 H                     0.276    -3.747    -2.605 
 H                    -1.554    -0.949     5.132 
 H                    -1.585     1.831     4.665 
 H                    -3.484    -0.377     3.969 
 H                    -3.511     1.027     2.858 
 H                    -3.852     1.301     4.543 
 H                     0.669     1.096     4.966 
 H                     1.13     -0.639     5.189 
 H                    -0.844     0.026     7.125 
 H                     0.062     1.477     6.921 
 H                    -1.344     5.186     1.938 
 H                    -1.651     5.963     0.432 
 H                     0.007     6.02      1.084 
 H                    -0.635     6.744    -1.405 
 H                     0.665     6.97     -2.704 
 H                     1.048     6.466    -1.036 
 H                     0.608     0.501    -4.891 
 H                    -0.692    -2.156    -4.547 
 H                    -1.267     0.74     -6.129 
 H                    -2.204     0.714    -4.596 
 H                    -1.967    -0.72     -5.453 
 H                     1.356    -1.759    -5.967 
 H                     1.452    -3.157    -4.902 
 H                     2.714    -0.522    -4.798 
 H                     3.487    -2.121    -4.529 
 H                     2.495    -1.303    -3.24 
 H                     0.867    -6.333    -0.084 
 H                     0.404    -5.642    -1.68 
 H                    -0.891    -5.999    -0.463 
 H                    -1.283    -3.581     4.028 
 H                     0.698    -4.478     7.755 
 H                     0.833    -2.619     7.68 
 H                     2.       -3.754     6.976 
 Mg                    15.77438   1.41448   1.19292 
 C                     15.67763   2.92793  -2.05964 
 C                     15.27869  -1.58562  -0.35249 
 C                     15.40491   0.11024   4.0617 
 C                     15.12013   4.56707   2.52665 
 N                     15.52618   0.87011  -0.93647 
 C                     15.56899   1.52194  -2.0887 
 C                     15.57179   0.60923  -3.34429 
 C                     14.8746  -0.6866   -2.70116 
 C                     15.27659  -0.48161  -1.24203 
 C                     13.35764  -0.6589   -2.78708 
 C                     17.02314   0.29018  -3.84808 
 C                     17.0967  -0.33641  -5.24226 
 H                     18.2195   0.01777  -6.10618 
 N                     15.88545  -0.48256   1.76518 
 C                     15.67653  -1.57614   1.00249 
 C                     15.85824  -2.73055   1.89606 
 C                     16.02926  -2.22584   3.28557 
 C                     15.75302  -0.81674   3.09006 
 C                     15.93718  -4.14324   1.39457 
 C                     16.37072  -2.90186   4.57886 
 O                     16.23252  -2.30782   5.70617 
 C                     16.78274  -4.31056   4.49345 
 N                     15.11924   2.17478   3.01366 
 C                     15.10466   1.40792   4.11803 
 C                     14.86101   2.23832   5.35556 
 C                     14.95604   3.76121   4.87664 
 C                     15.15856   3.53795   3.36187 
 C                     13.52307   2.00856   6.05807 
 C                     15.96148   4.67448   5.6301 
 C                     17.37764   4.23035   5.34263 
 N                     15.63567   3.42957   0.42596 
 C                     15.32639   4.59971   1.15341 
 C                     15.23607   5.70676   0.17939 
 C                     15.47828   5.0948   -1.05969 
 C                     15.68368   3.70102  -0.87345 
 C                     14.91475   7.05938   0.48482 
 C                     15.5964   5.30917  -2.48405 
 O                     15.60521   6.29813  -3.2159 
 C                     15.60551   3.89465  -3.20893 
 C                     16.73568   3.88864  -4.2015 
 O                     17.91618   3.95252  -3.81555 
 O                     16.25002   3.59083  -5.42044 
 C                     17.33496   3.56198  -6.43725 
 H                     14.9003  -2.54273  -0.71255 
 H                     15.37335  -0.26926   5.08564 
 H                     15.01668   5.59727   2.87402 
 H                     14.98005   0.9765   -4.17418 
 H                     15.30905  -1.6034   -3.09116 
 H                     12.99252   0.28574  -3.16191 
 H                     13.00275  -0.82855  -1.77895 
 H                     12.99811  -1.5051   -3.37955 
 H                     17.43692  -0.53221  -3.25042 
 H                     17.63999   1.16704  -3.813 
 H                     16.14894  -0.24363  -5.7864 
 H                     17.23761  -1.4143   -5.13128 
 H                     15.61237  -4.21781   0.34942 
 H                     15.19329  -4.72253   1.95217 
 H                     16.92147  -4.59055   1.54873 
 H                     15.98938  -4.89134   4.02899 
 H                     17.07123  -4.59268   5.50787 
 H                     17.65313  -4.38098   3.83157 
 H                     15.62579   2.05582   6.10048 
 H                     13.99574   4.28512   4.99145 
 H                     13.632    1.71531   7.1193 
 H                     12.97461   1.25436   5.50952 
 H                     12.83824   2.85455   6.03529 
 H                     15.82061   4.58284   6.70988 
 H                     15.86131   5.72546   5.38031 
 H                     17.52946   3.41359   6.05463 
 H                     18.07784   5.04411   5.52028 
 H                     17.46075   3.80839   4.33432 
 H                     15.59816   7.6774   -0.08218 
 H                     14.99261   7.25524   1.55223 
 H                     13.87969   7.09777   0.13488 
 H                     14.63584   3.76778  -3.69186 
 H                     17.04694   4.25751  -7.23159 
 H                     17.45354   2.49843  -6.71751 
 H                     18.30193   3.95794  -6.14978 
 
 ITRead=  0  0  0  0  0  0  0  0  0  0  0  0  0  0  0  0  0  0  0  0
 ITRead=  0  0  0  0  0  0  0  0  0  0  0  0  0  0  0  0  0  0  0  0
 ITRead=  0  0  0  0  0  0  0  0  0  0  0  0  0  0  0  0  0  0  0  0
 ITRead=  0  0  0  0  0  0  0  0  0  0  0  0  0  0  0  0  0  0  0  0
 ITRead=  0  0  0  0  0  0  0  0  0  0  0  0  0  0  0  0  0  0  0  0
 ITRead=  0  0  0  0  0  0  0  0  0  0  0  0  0  0  0  0  0  0  0  0
 ITRead=  0  0  0  0  0  0  0  0  0  0  0  0  0  0  0  0  0  0  0  0
 ITRead=  0  0  0  0  0  0  0  0  0  0  0  0  0  0  0  0  0  0
 MicOpt= -1 -1 -1 -1 -1 -1 -1 -1 -1 -1 -1 -1 -1 -1 -1 -1 -1 -1 -1 -1
 MicOpt= -1 -1 -1 -1 -1 -1 -1 -1 -1 -1 -1 -1 -1 -1 -1 -1 -1 -1 -1 -1
 MicOpt= -1 -1 -1 -1 -1 -1 -1 -1 -1 -1 -1 -1 -1 -1 -1 -1 -1 -1 -1 -1
 MicOpt= -1 -1 -1 -1 -1 -1 -1 -1 -1 -1 -1 -1 -1 -1 -1 -1 -1 -1 -1 -1
 MicOpt= -1 -1 -1 -1 -1 -1 -1 -1 -1 -1 -1 -1 -1 -1 -1 -1 -1 -1 -1 -1
 MicOpt= -1 -1 -1 -1 -1 -1 -1 -1 -1 -1 -1 -1 -1 -1 -1 -1 -1 -1 -1 -1
 MicOpt= -1 -1 -1 -1 -1 -1 -1 -1 -1 -1 -1 -1 -1 -1 -1 -1 -1 -1 -1 -1
 MicOpt= -1 -1 -1 -1 -1 -1 -1 -1 -1 -1 -1 -1 -1 -1 -1 -1 -1 -1
 NAtoms=    158 NQM=      158 NQMF=       0 NMMI=      0 NMMIF=      0
                NMic=       0 NMicF=      0.
                    Isotopes and Nuclear Properties:
 (Nuclear quadrupole moments (NQMom) in fm**2, nuclear magnetic moments (NMagM)
  in nuclear magnetons)

  Atom         1           2           3           4           5           6           7           8           9          10
 IAtWgt=          24          12          12          12          12          14          12          12          12          12
 AtmWgt=  23.9850450  12.0000000  12.0000000  12.0000000  12.0000000  14.0030740  12.0000000  12.0000000  12.0000000  12.0000000
 NucSpn=           0           0           0           0           0           2           0           0           0           0
 AtZEff=  -0.0000000  -0.0000000  -0.0000000  -0.0000000  -0.0000000  -0.0000000  -0.0000000  -0.0000000  -0.0000000  -0.0000000
 NQMom=    0.0000000   0.0000000   0.0000000   0.0000000   0.0000000   2.0440000   0.0000000   0.0000000   0.0000000   0.0000000
 NMagM=    0.0000000   0.0000000   0.0000000   0.0000000   0.0000000   0.4037610   0.0000000   0.0000000   0.0000000   0.0000000
 AtZNuc=  12.0000000   6.0000000   6.0000000   6.0000000   6.0000000   7.0000000   6.0000000   6.0000000   6.0000000   6.0000000

  Atom        11          12          13          14          15          16          17          18          19          20
 IAtWgt=          12          12          12           1          14          12          12          12          12          12
 AtmWgt=  12.0000000  12.0000000  12.0000000   1.0078250  14.0030740  12.0000000  12.0000000  12.0000000  12.0000000  12.0000000
 NucSpn=           0           0           0           1           2           0           0           0           0           0
 AtZEff=  -0.0000000  -0.0000000  -0.0000000  -0.0000000  -0.0000000  -0.0000000  -0.0000000  -0.0000000  -0.0000000  -0.0000000
 NQMom=    0.0000000   0.0000000   0.0000000   0.0000000   2.0440000   0.0000000   0.0000000   0.0000000   0.0000000   0.0000000
 NMagM=    0.0000000   0.0000000   0.0000000   2.7928460   0.4037610   0.0000000   0.0000000   0.0000000   0.0000000   0.0000000
 AtZNuc=   6.0000000   6.0000000   6.0000000   1.0000000   7.0000000   6.0000000   6.0000000   6.0000000   6.0000000   6.0000000

  Atom        21          22          23          24          25          26          27          28          29          30
 IAtWgt=          12          16          12          14          12          12          12          12          12          12
 AtmWgt=  12.0000000  15.9949146  12.0000000  14.0030740  12.0000000  12.0000000  12.0000000  12.0000000  12.0000000  12.0000000
 NucSpn=           0           0           0           2           0           0           0           0           0           0
 AtZEff=  -0.0000000  -0.0000000  -0.0000000  -0.0000000  -0.0000000  -0.0000000  -0.0000000  -0.0000000  -0.0000000  -0.0000000
 NQMom=    0.0000000   0.0000000   0.0000000   2.0440000   0.0000000   0.0000000   0.0000000   0.0000000   0.0000000   0.0000000
 NMagM=    0.0000000   0.0000000   0.0000000   0.4037610   0.0000000   0.0000000   0.0000000   0.0000000   0.0000000   0.0000000
 AtZNuc=   6.0000000   8.0000000   6.0000000   7.0000000   6.0000000   6.0000000   6.0000000   6.0000000   6.0000000   6.0000000

  Atom        31          32          33          34          35          36          37          38          39          40
 IAtWgt=          12          14          12          12          12          12          12          12          16          12
 AtmWgt=  12.0000000  14.0030740  12.0000000  12.0000000  12.0000000  12.0000000  12.0000000  12.0000000  15.9949146  12.0000000
 NucSpn=           0           2           0           0           0           0           0           0           0           0
 AtZEff=  -0.0000000  -0.0000000  -0.0000000  -0.0000000  -0.0000000  -0.0000000  -0.0000000  -0.0000000  -0.0000000  -0.0000000
 NQMom=    0.0000000   2.0440000   0.0000000   0.0000000   0.0000000   0.0000000   0.0000000   0.0000000   0.0000000   0.0000000
 NMagM=    0.0000000   0.4037610   0.0000000   0.0000000   0.0000000   0.0000000   0.0000000   0.0000000   0.0000000   0.0000000
 AtZNuc=   6.0000000   7.0000000   6.0000000   6.0000000   6.0000000   6.0000000   6.0000000   6.0000000   8.0000000   6.0000000

  Atom        41          42          43          44          45          46          47          48          49          50
 IAtWgt=          12          16          16          12           1           1           1           1           1           1
 AtmWgt=  12.0000000  15.9949146  15.9949146  12.0000000   1.0078250   1.0078250   1.0078250   1.0078250   1.0078250   1.0078250
 NucSpn=           0           0           0           0           1           1           1           1           1           1
 AtZEff=  -0.0000000  -0.0000000  -0.0000000  -0.0000000  -0.0000000  -0.0000000  -0.0000000  -0.0000000  -0.0000000  -0.0000000
 NQMom=    0.0000000   0.0000000   0.0000000   0.0000000   0.0000000   0.0000000   0.0000000   0.0000000   0.0000000   0.0000000
 NMagM=    0.0000000   0.0000000   0.0000000   0.0000000   2.7928460   2.7928460   2.7928460   2.7928460   2.7928460   2.7928460
 AtZNuc=   6.0000000   8.0000000   8.0000000   6.0000000   1.0000000   1.0000000   1.0000000   1.0000000   1.0000000   1.0000000

  Atom        51          52          53          54          55          56          57          58          59          60
 IAtWgt=           1           1           1           1           1           1           1           1           1           1
 AtmWgt=   1.0078250   1.0078250   1.0078250   1.0078250   1.0078250   1.0078250   1.0078250   1.0078250   1.0078250   1.0078250
 NucSpn=           1           1           1           1           1           1           1           1           1           1
 AtZEff=  -0.0000000  -0.0000000  -0.0000000  -0.0000000  -0.0000000  -0.0000000  -0.0000000  -0.0000000  -0.0000000  -0.0000000
 NQMom=    0.0000000   0.0000000   0.0000000   0.0000000   0.0000000   0.0000000   0.0000000   0.0000000   0.0000000   0.0000000
 NMagM=    2.7928460   2.7928460   2.7928460   2.7928460   2.7928460   2.7928460   2.7928460   2.7928460   2.7928460   2.7928460
 AtZNuc=   1.0000000   1.0000000   1.0000000   1.0000000   1.0000000   1.0000000   1.0000000   1.0000000   1.0000000   1.0000000

  Atom        61          62          63          64          65          66          67          68          69          70
 IAtWgt=           1           1           1           1           1           1           1           1           1           1
 AtmWgt=   1.0078250   1.0078250   1.0078250   1.0078250   1.0078250   1.0078250   1.0078250   1.0078250   1.0078250   1.0078250
 NucSpn=           1           1           1           1           1           1           1           1           1           1
 AtZEff=  -0.0000000  -0.0000000  -0.0000000  -0.0000000  -0.0000000  -0.0000000  -0.0000000  -0.0000000  -0.0000000  -0.0000000
 NQMom=    0.0000000   0.0000000   0.0000000   0.0000000   0.0000000   0.0000000   0.0000000   0.0000000   0.0000000   0.0000000
 NMagM=    2.7928460   2.7928460   2.7928460   2.7928460   2.7928460   2.7928460   2.7928460   2.7928460   2.7928460   2.7928460
 AtZNuc=   1.0000000   1.0000000   1.0000000   1.0000000   1.0000000   1.0000000   1.0000000   1.0000000   1.0000000   1.0000000

  Atom        71          72          73          74          75          76          77          78          79          80
 IAtWgt=           1           1           1           1           1           1           1           1           1          24
 AtmWgt=   1.0078250   1.0078250   1.0078250   1.0078250   1.0078250   1.0078250   1.0078250   1.0078250   1.0078250  23.9850450
 NucSpn=           1           1           1           1           1           1           1           1           1           0
 AtZEff=  -0.0000000  -0.0000000  -0.0000000  -0.0000000  -0.0000000  -0.0000000  -0.0000000  -0.0000000  -0.0000000  -0.0000000
 NQMom=    0.0000000   0.0000000   0.0000000   0.0000000   0.0000000   0.0000000   0.0000000   0.0000000   0.0000000   0.0000000
 NMagM=    2.7928460   2.7928460   2.7928460   2.7928460   2.7928460   2.7928460   2.7928460   2.7928460   2.7928460   0.0000000
 AtZNuc=   1.0000000   1.0000000   1.0000000   1.0000000   1.0000000   1.0000000   1.0000000   1.0000000   1.0000000  12.0000000

  Atom        81          82          83          84          85          86          87          88          89          90
 IAtWgt=          12          12          12          12          14          12          12          12          12          12
 AtmWgt=  12.0000000  12.0000000  12.0000000  12.0000000  14.0030740  12.0000000  12.0000000  12.0000000  12.0000000  12.0000000
 NucSpn=           0           0           0           0           2           0           0           0           0           0
 AtZEff=  -0.0000000  -0.0000000  -0.0000000  -0.0000000  -0.0000000  -0.0000000  -0.0000000  -0.0000000  -0.0000000  -0.0000000
 NQMom=    0.0000000   0.0000000   0.0000000   0.0000000   2.0440000   0.0000000   0.0000000   0.0000000   0.0000000   0.0000000
 NMagM=    0.0000000   0.0000000   0.0000000   0.0000000   0.4037610   0.0000000   0.0000000   0.0000000   0.0000000   0.0000000
 AtZNuc=   6.0000000   6.0000000   6.0000000   6.0000000   7.0000000   6.0000000   6.0000000   6.0000000   6.0000000   6.0000000

  Atom        91          92          93          94          95          96          97          98          99         100
 IAtWgt=          12          12           1          14          12          12          12          12          12          12
 AtmWgt=  12.0000000  12.0000000   1.0078250  14.0030740  12.0000000  12.0000000  12.0000000  12.0000000  12.0000000  12.0000000
 NucSpn=           0           0           1           2           0           0           0           0           0           0
 AtZEff=  -0.0000000  -0.0000000  -0.0000000  -0.0000000  -0.0000000  -0.0000000  -0.0000000  -0.0000000  -0.0000000  -0.0000000
 NQMom=    0.0000000   0.0000000   0.0000000   2.0440000   0.0000000   0.0000000   0.0000000   0.0000000   0.0000000   0.0000000
 NMagM=    0.0000000   0.0000000   2.7928460   0.4037610   0.0000000   0.0000000   0.0000000   0.0000000   0.0000000   0.0000000
 AtZNuc=   6.0000000   6.0000000   1.0000000   7.0000000   6.0000000   6.0000000   6.0000000   6.0000000   6.0000000   6.0000000

  Atom       101         102         103         104         105         106         107         108         109         110
 IAtWgt=          16          12          14          12          12          12          12          12          12          12
 AtmWgt=  15.9949146  12.0000000  14.0030740  12.0000000  12.0000000  12.0000000  12.0000000  12.0000000  12.0000000  12.0000000
 NucSpn=           0           0           2           0           0           0           0           0           0           0
 AtZEff=  -0.0000000  -0.0000000  -0.0000000  -0.0000000  -0.0000000  -0.0000000  -0.0000000  -0.0000000  -0.0000000  -0.0000000
 NQMom=    0.0000000   0.0000000   2.0440000   0.0000000   0.0000000   0.0000000   0.0000000   0.0000000   0.0000000   0.0000000
 NMagM=    0.0000000   0.0000000   0.4037610   0.0000000   0.0000000   0.0000000   0.0000000   0.0000000   0.0000000   0.0000000
 AtZNuc=   8.0000000   6.0000000   7.0000000   6.0000000   6.0000000   6.0000000   6.0000000   6.0000000   6.0000000   6.0000000

  Atom       111         112         113         114         115         116         117         118         119         120
 IAtWgt=          14          12          12          12          12          12          12          16          12          12
 AtmWgt=  14.0030740  12.0000000  12.0000000  12.0000000  12.0000000  12.0000000  12.0000000  15.9949146  12.0000000  12.0000000
 NucSpn=           2           0           0           0           0           0           0           0           0           0
 AtZEff=  -0.0000000  -0.0000000  -0.0000000  -0.0000000  -0.0000000  -0.0000000  -0.0000000  -0.0000000  -0.0000000  -0.0000000
 NQMom=    2.0440000   0.0000000   0.0000000   0.0000000   0.0000000   0.0000000   0.0000000   0.0000000   0.0000000   0.0000000
 NMagM=    0.4037610   0.0000000   0.0000000   0.0000000   0.0000000   0.0000000   0.0000000   0.0000000   0.0000000   0.0000000
 AtZNuc=   7.0000000   6.0000000   6.0000000   6.0000000   6.0000000   6.0000000   6.0000000   8.0000000   6.0000000   6.0000000

  Atom       121         122         123         124         125         126         127         128         129         130
 IAtWgt=          16          16          12           1           1           1           1           1           1           1
 AtmWgt=  15.9949146  15.9949146  12.0000000   1.0078250   1.0078250   1.0078250   1.0078250   1.0078250   1.0078250   1.0078250
 NucSpn=           0           0           0           1           1           1           1           1           1           1
 AtZEff=  -0.0000000  -0.0000000  -0.0000000  -0.0000000  -0.0000000  -0.0000000  -0.0000000  -0.0000000  -0.0000000  -0.0000000
 NQMom=    0.0000000   0.0000000   0.0000000   0.0000000   0.0000000   0.0000000   0.0000000   0.0000000   0.0000000   0.0000000
 NMagM=    0.0000000   0.0000000   0.0000000   2.7928460   2.7928460   2.7928460   2.7928460   2.7928460   2.7928460   2.7928460
 AtZNuc=   8.0000000   8.0000000   6.0000000   1.0000000   1.0000000   1.0000000   1.0000000   1.0000000   1.0000000   1.0000000

  Atom       131         132         133         134         135         136         137         138         139         140
 IAtWgt=           1           1           1           1           1           1           1           1           1           1
 AtmWgt=   1.0078250   1.0078250   1.0078250   1.0078250   1.0078250   1.0078250   1.0078250   1.0078250   1.0078250   1.0078250
 NucSpn=           1           1           1           1           1           1           1           1           1           1
 AtZEff=  -0.0000000  -0.0000000  -0.0000000  -0.0000000  -0.0000000  -0.0000000  -0.0000000  -0.0000000  -0.0000000  -0.0000000
 NQMom=    0.0000000   0.0000000   0.0000000   0.0000000   0.0000000   0.0000000   0.0000000   0.0000000   0.0000000   0.0000000
 NMagM=    2.7928460   2.7928460   2.7928460   2.7928460   2.7928460   2.7928460   2.7928460   2.7928460   2.7928460   2.7928460
 AtZNuc=   1.0000000   1.0000000   1.0000000   1.0000000   1.0000000   1.0000000   1.0000000   1.0000000   1.0000000   1.0000000

  Atom       141         142         143         144         145         146         147         148         149         150
 IAtWgt=           1           1           1           1           1           1           1           1           1           1
 AtmWgt=   1.0078250   1.0078250   1.0078250   1.0078250   1.0078250   1.0078250   1.0078250   1.0078250   1.0078250   1.0078250
 NucSpn=           1           1           1           1           1           1           1           1           1           1
 AtZEff=  -0.0000000  -0.0000000  -0.0000000  -0.0000000  -0.0000000  -0.0000000  -0.0000000  -0.0000000  -0.0000000  -0.0000000
 NQMom=    0.0000000   0.0000000   0.0000000   0.0000000   0.0000000   0.0000000   0.0000000   0.0000000   0.0000000   0.0000000
 NMagM=    2.7928460   2.7928460   2.7928460   2.7928460   2.7928460   2.7928460   2.7928460   2.7928460   2.7928460   2.7928460
 AtZNuc=   1.0000000   1.0000000   1.0000000   1.0000000   1.0000000   1.0000000   1.0000000   1.0000000   1.0000000   1.0000000

  Atom       151         152         153         154         155         156         157         158
 IAtWgt=           1           1           1           1           1           1           1           1
 AtmWgt=   1.0078250   1.0078250   1.0078250   1.0078250   1.0078250   1.0078250   1.0078250   1.0078250
 NucSpn=           1           1           1           1           1           1           1           1
 AtZEff=  -0.0000000  -0.0000000  -0.0000000  -0.0000000  -0.0000000  -0.0000000  -0.0000000  -0.0000000
 NQMom=    0.0000000   0.0000000   0.0000000   0.0000000   0.0000000   0.0000000   0.0000000   0.0000000
 NMagM=    2.7928460   2.7928460   2.7928460   2.7928460   2.7928460   2.7928460   2.7928460   2.7928460
 AtZNuc=   1.0000000   1.0000000   1.0000000   1.0000000   1.0000000   1.0000000   1.0000000   1.0000000
 Leave Link  101 at Sat Sep  4 12:23:16 2021, MaxMem= 23488102400 cpu:               3.3 elap:               0.2
 (Enter /sw/apps/gaussian-16.0/g16/l202.exe)
 Stoichiometry    C68H72Mg2N8O8
 Framework group  C1[X(C68H72Mg2N8O8)]
 Deg. of freedom   468
 Full point group                 C1      NOp   1
 Largest Abelian subgroup         C1      NOp   1
 Largest concise Abelian subgroup C1      NOp   1
                         Standard orientation:                         
 ---------------------------------------------------------------------
 Center     Atomic      Atomic             Coordinates (Angstroms)
 Number     Number       Type             X           Y           Z
 ---------------------------------------------------------------------
      1         12           0        7.796736   -0.966359   -0.001743
      2          6           0        8.420441    2.506129   -0.605922
      3          6           0        8.783071   -0.430027    3.220455
      4          6           0        7.689567   -4.104996    0.438816
      5          6           0        7.959908   -1.444072   -3.450050
      6          7           0        8.489531    0.852046    1.053759
      7          6           0        8.626555    2.132525    0.723959
      8          6           0        8.936508    3.054269    1.941206
      9          6           0        9.573626    1.970532    2.921814
     10          6           0        8.881899    0.726943    2.391790
     11          6           0       11.080246    1.805164    2.750782
     12          6           0        7.641554    3.688298    2.551806
     13          6           0        7.877730    4.846127    3.525975
     14          1           0        6.929826    5.949973    3.544724
     15          7           0        7.706682   -2.023878    1.664508
     16          6           0        8.140353   -1.642713    2.890041
     17          6           0        7.851085   -2.775631    3.795304
     18          6           0        7.387794   -3.918501    2.960257
     19          6           0        7.603910   -3.396568    1.635018
     20          6           0        7.974613   -2.690267    5.285675
     21          6           0        6.847433   -5.270951    3.302341
     22          8           0        6.723935   -6.195222    2.427673
     23          6           0        6.545401   -5.517362    4.723995
     24          7           0        8.038292   -2.590337   -1.290921
     25          6           0        7.883738   -3.845667   -0.855901
     26          6           0        7.822888   -4.815821   -1.998283
     27          6           0        7.724210   -3.931691   -3.324304
     28          6           0        7.834032   -2.527542   -2.680429
     29          6           0        9.007700   -5.784315   -2.117658
     30          6           0        6.532785   -4.217083   -4.272712
     31          6           0        5.236755   -3.818820   -3.602795
     32          7           0        7.952131    0.305377   -1.753766
     33          6           0        8.026984   -0.108039   -3.091733
     34          6           0        8.230827    1.103250   -3.907389
     35          6           0        8.277280    2.142107   -2.979777
     36          6           0        8.139152    1.610361   -1.665830
     37          6           0        8.404902    1.137769   -5.319104
     38          6           0        8.436144    3.574957   -2.791208
     39          8           0        8.496919    4.547332   -3.545055
     40          6           0        8.657260    3.854617   -1.239201
     41          6           0        7.745994    4.985515   -0.846807
     42          8           0        6.506463    4.841186   -0.856704
     43          8           0        8.472133    5.971816   -0.298652
     44          6           0        7.624765    7.112813    0.139809
     45          1           0        9.292791   -0.432868    4.185917
     46          1           0        7.546033   -5.183093    0.536505
     47          1           0        7.935502   -1.505987   -4.539557
     48          1           0        9.659497    3.844999    1.740066
     49          1           0        9.293341    2.146599    3.960160
     50          1           0       11.447869    2.367455    1.892526
     51          1           0       11.240924    0.737028    2.603263
     52          1           0       11.605150    2.062850    3.671026
     53          1           0        7.173706    2.971003    3.226096
     54          1           0        6.962419    4.013661    1.762984
     55          1           0        8.899417    5.221101    3.459192
     56          1           0        7.796921    4.459541    4.541958
     57          1           0        8.493640   -1.783312    5.593227
     58          1           0        8.634368   -3.499760    5.597369
     59          1           0        7.010066   -2.789680    5.783770
     60          1           0        7.452298   -5.380955    5.313470
     61          1           0        6.085213   -6.503883    4.767037
     62          1           0        5.838177   -4.763260    5.070569
     63          1           0        6.940698   -5.450564   -1.925709
     64          1           0        8.603004   -4.047105   -3.959185
     65          1           0        8.717184   -6.835111   -2.106039
     66          1           0        9.706542   -5.562854   -1.311516
     67          1           0        9.634916   -5.633185   -2.995825
     68          1           0        6.467536   -5.282779   -4.489465
     69          1           0        6.603610   -3.688954   -5.223666
     70          1           0        4.998944   -4.690982   -2.994839
     71          1           0        4.462000   -3.640163   -4.349151
     72          1           0        5.381439   -2.978099   -2.924015
     73          1           0        7.798888    1.968301   -5.680951
     74          1           0        8.102353    0.197013   -5.778502
     75          1           0        9.479236    1.308622   -5.385970
     76          1           0        9.708196    4.113385   -1.113927
     77          1           0        8.011080    8.006500   -0.350413
     78          1           0        7.621084    7.095148    1.229799
     79          1           0        6.593863    7.112273   -0.215972
     80         12           0       -7.966348    0.969417    0.179383
     81          6           0       -8.200544   -2.606438   -0.014143
     82          6           0       -7.125256    0.943894   -3.126144
     83          6           0       -7.313740    4.064881    0.423624
     84          6           0       -7.697919    0.625844    3.637071
     85          7           0       -7.727323   -0.680772   -1.273884
     86          6           0       -7.902371   -1.993436   -1.248962
     87          6           0       -7.828388   -2.678707   -2.639819
     88          6           0       -6.937074   -1.581292   -3.401465
     89          6           0       -7.307527   -0.350339   -2.576725
     90          6           0       -5.442432   -1.817657   -3.261837
     91          6           0       -9.240756   -2.834120   -3.305458
     92          6           0       -9.281103   -3.766797   -4.517997
     93          1           0      -10.473721   -4.582593   -4.729235
     94          7           0       -7.795862    2.360719   -1.225534
     95          6           0       -7.468898    2.172894   -2.521326
     96          6           0       -7.457402    3.511455   -3.131467
     97          6           0       -7.642729    4.520126   -2.053063
     98          6           0       -7.568854    3.670192   -0.881632
     99          6           0       -7.361958    3.729314   -4.613643
    100          6           0       -7.839423    6.005770   -2.072293
    101          8           0       -7.740788    6.711894   -1.007177
    102          6           0       -8.058438    6.621079   -3.389455
    103          7           0       -7.352304    2.159755    1.769479
    104          6           0       -7.191334    3.486089    1.618326
    105          6           0       -7.016355    4.169973    2.953277
    106          6           0       -7.336297    3.053810    4.053007
    107          6           0       -7.563888    1.841147    3.124008
    108          6           0       -5.633864    4.765048    3.219731
    109          6           0       -8.427523    3.394373    5.104633
    110          6           0       -9.779779    3.484003    4.434731
    111          7           0       -8.132969   -0.650743    1.599022
    112          6           0       -7.958731   -0.579836    2.998550
    113          6           0       -8.057295   -1.958550    3.519955
    114          6           0       -8.260696   -2.744805    2.375879
    115          6           0       -8.266885   -1.917021    1.220789
    116          6           0       -7.912059   -2.345147    4.882146
    117          6           0       -8.460980   -4.088057    1.881643
    118          8           0       -8.632371   -5.189077    2.403279
    119          6           0       -8.304648   -4.073108    0.299954
    120          6           0       -9.460331   -4.835293   -0.288250
    121          8           0      -10.622989   -4.409482   -0.171933
    122          8           0       -8.985266   -5.819778   -1.072772
    123          6           0      -10.093981   -6.597196   -1.687753
    124          1           0       -6.633840    1.031516   -4.095533
    125          1           0       -7.191840    5.139788    0.575890
    126          1           0       -7.722797    0.446330    4.714028
    127          1           0       -7.324223   -3.637623   -2.647524
    128          1           0       -7.256946   -1.459469   -4.433071
    129          1           0       -5.224049   -2.619887   -2.572713
    130          1           0       -5.029676   -0.885094   -2.899881
    131          1           0       -4.993641   -1.984311   -4.245275
    132          1           0       -9.515513   -1.887141   -3.787615
    133          1           0       -9.969636   -3.147967   -2.583757
    134          1           0       -8.376215   -4.381732   -4.595314
    135          1           0       -9.269389   -3.157511   -5.424998
    136          1           0       -7.069962    2.810645   -5.137270
    137          1           0       -6.525376    4.415913   -4.782702
    138          1           0       -8.269479    4.167688   -5.034250
    139          1           0       -7.211517    6.402452   -4.035500
    140          1           0       -8.267007    7.673816   -3.189181
    141          1           0       -8.935609    6.154870   -3.851887
    142          1           0       -7.720242    4.985521    3.065190
    143          1           0       -6.452749    2.819540    4.664807
    144          1           0       -5.661384    5.846696    3.450707
    145          1           0       -5.008922    4.576224    2.356988
    146          1           0       -5.072161    4.287598    4.020819
    147          1           0       -8.234547    4.374941    5.546689
    148          1           0       -8.481172    2.679101    5.918571
    149          1           0       -9.791638    4.503663    4.038191
    150          1           0      -10.577148    3.333110    5.159631
    151          1           0       -9.842823    2.797970    3.582071
    152          1           0       -8.694408   -3.063810    5.086939
    153          1           0       -7.975285   -1.486922    5.547908
    154          1           0       -6.905954   -2.772260    4.857470
    155          1           0       -7.345792   -4.534790    0.061163
    156          1           0       -9.933891   -7.646745   -1.422213
    157          1           0      -10.076983   -6.341642   -2.763926
    158          1           0      -11.094286   -6.432354   -1.304776
 ---------------------------------------------------------------------
 Rotational constants (GHZ):           0.0204167           0.0059395           0.0055014
 Leave Link  202 at Sat Sep  4 12:23:16 2021, MaxMem= 23488102400 cpu:               0.3 elap:               0.0
 (Enter /sw/apps/gaussian-16.0/g16/l301.exe)
 Standard basis: def2SVP (5D, 7F)
 Ernie: Thresh=  0.10000D-02 Tol=  0.10000D-05 Strict=F.
 There are  1658 symmetry adapted cartesian basis functions of A   symmetry.
 There are  1572 symmetry adapted basis functions of A   symmetry.
  1572 basis functions,  2678 primitive gaussians,  1658 cartesian basis functions
   312 alpha electrons      312 beta electrons
       nuclear repulsion energy     13730.2586737921 Hartrees.
 IExCor=20419 DFT=T Ex+Corr=CAM-B3LYP ExCW=0 ScaHFX=  1.000000
 ScaDFX=  1.000000  1.000000  1.000000  0.810000 ScalE2=  1.000000  1.000000
 IRadAn=      5 IRanWt=     -1 IRanGd=            0 ICorTp=0 IEmpDi=  4
 HFx  wShort=  0.000000 wLong=  0.330000 cFull=  0.190000 cShort=  0.000000 cLong=  0.460000
 DFx  wShort=  0.000000 wLong=  0.330000 cFull=  0.190000 cShort=  0.000000 cLong=  0.460000
 NAtoms=  158 NActive=  158 NUniq=  158 SFac= 1.00D+00 NAtFMM=   60 NAOKFM=T Big=T
 Integral buffers will be    131072 words long.
 Raffenetti 1 integral format.
 Two-electron integral symmetry is turned on.
 Leave Link  301 at Sat Sep  4 12:23:16 2021, MaxMem= 23488102400 cpu:               1.7 elap:               0.1
 (Enter /sw/apps/gaussian-16.0/g16/l302.exe)
 NPDir=0 NMtPBC=     1 NCelOv=     1 NCel=       1 NClECP=     1 NCelD=      1
         NCelK=      1 NCelE2=     1 NClLst=     1 CellRange=     0.0.
 One-electron integrals computed using PRISM.
 One-electron integral symmetry used in STVInt
   1 Symmetry operations used in ECPInt.
 ECPInt:  NShTT=  271216 NPrTT=  987664 LenC2=  107344 LenP2D=  244345.
 LDataN:  DoStor=T MaxTD1= 4 Len=   56
 NBasis=  1572 RedAO= T EigKep=  3.36D-04  NBF=  1572
 NBsUse=  1572 1.00D-06 EigRej= -1.00D+00 NBFU=  1572
 Precomputing XC quadrature grid using
 IXCGrd= 4 IRadAn=           5 IRanWt=          -1 IRanGd=           0 AccXCQ= 0.00D+00.
 Generated NRdTot=       0 NPtTot=           0 NUsed=           0 NTot=          32
 NSgBfM=   854   816   827   844   854 MxSgAt=   158 MxSgA2=   148.
 Leave Link  302 at Sat Sep  4 12:23:21 2021, MaxMem= 23488102400 cpu:             105.4 elap:               4.4
 (Enter /sw/apps/gaussian-16.0/g16/l303.exe)
 DipDrv:  MaxL=1.
 Leave Link  303 at Sat Sep  4 12:23:21 2021, MaxMem= 23488102400 cpu:               8.6 elap:               0.4
 (Enter /sw/apps/gaussian-16.0/g16/l308.exe)
 Leave Link  308 at Sat Sep  4 12:23:22 2021, MaxMem= 23488102400 cpu:              12.0 elap:               0.6
 (Enter /sw/apps/gaussian-16.0/g16/l401.exe)
 ExpMin= 3.36D-02 ExpMax= 4.95D+03 ExpMxC= 7.45D+02 IAcc=3 IRadAn=         5 AccDes= 0.00D+00
 Harris functional with IExCor=20419 and IRadAn=       5 diagonalized for initial guess.
 HarFok:  IExCor=20419 AccDes= 0.00D+00 IRadAn=         5 IDoV= 1 UseB2=F ITyADJ=14
 ICtDFT=  3500011 ScaDFX=  1.000000  1.000000  1.000000  1.000000
 FoFCou: FMM=F IPFlag=           0 FMFlag=      100000 FMFlg1=        2001
         NFxFlg=           0 DoJE=T BraDBF=F KetDBF=T FulRan=T
         wScrn=  0.000000 ICntrl=       500 IOpCl=  0 I1Cent=   200000004 NGrid=           0
         NMat0=    1 NMatS0=      1 NMatT0=    0 NMatD0=    1 NMtDS0=    0 NMtDT0=    0
 Petite list used in FoFCou.
 Harris En= -3918.65801484646    
 JPrj=0 DoOrth=F DoCkMO=F.
 Leave Link  401 at Sat Sep  4 12:23:29 2021, MaxMem= 23488102400 cpu:             161.2 elap:               6.8
 (Enter /sw/apps/gaussian-16.0/g16/l502.exe)
 Integral symmetry usage will be decided dynamically.
 Closed shell SCF:
 Using DIIS extrapolation, IDIIS=  1040.
 NGot= 23488102400 LenX= 23482547354 LenY= 23479796732
 Requested convergence on RMS density matrix=1.00D-08 within 128 cycles.
 Requested convergence on MAX density matrix=1.00D-06.
 Requested convergence on             energy=1.00D-06.
 No special actions if energy rises.
 Fock matrices will be formed incrementally for  20 cycles.

 Cycle   1  Pass 1  IDiag  1:
 FoFJK:  IHMeth= 1 ICntrl=       0 DoSepK=T KAlg= 0 I1Cent=           0 FoldK=F
 IRaf=         1 NMat=       1 IRICut=       1 DoRegI=T DoRafI=F ISym2E= 0 IDoP0=0 IntGTp=1.
 FoFCou: FMM=T IPFlag=           0 FMFlag=      100000 FMFlg1=        2001
         NFxFlg=           0 DoJE=T BraDBF=F KetDBF=F FulRan=T
         wScrn=  0.000000 ICntrl=       500 IOpCl=  0 I1Cent=           0 NGrid=           0
         NMat0=    1 NMatS0=      1 NMatT0=    0 NMatD0=    1 NMtDS0=    0 NMtDT0=    0
 Symmetry not used in FoFCou.
 FMM levels:  10  Number of levels for PrismC:   9
 E= -4068.94961610726    
 DIIS: error= 2.04D-02 at cycle   1 NSaved=   1.
 NSaved= 1 IEnMin= 1 EnMin= -4068.94961610726     IErMin= 1 ErrMin= 2.04D-02
 ErrMax= 2.04D-02  0.00D+00 EMaxC= 1.00D-01 BMatC= 1.69D+00 BMatP= 1.69D+00
 IDIUse=3 WtCom= 7.96D-01 WtEn= 2.04D-01
 Coeff-Com:  0.100D+01
 Coeff-En:   0.100D+01
 Coeff:      0.100D+01
 Gap=     0.120 Goal=   None    Shift=    0.000
 GapD=    0.120 DampG=1.000 DampE=0.500 DampFc=0.5000 IDamp=-1.
 Damping current iteration by 5.00D-01
 RMSDP=1.57D-03 MaxDP=1.35D-01              OVMax= 2.00D-01

 Cycle   2  Pass 1  IDiag  1:
 RMSU=  7.69D-04    CP:  9.82D-01
 E= -4069.33862197740     Delta-E=       -0.389005870144 Rises=F Damp=T
 DIIS: error= 1.27D-02 at cycle   2 NSaved=   2.
 NSaved= 2 IEnMin= 2 EnMin= -4069.33862197740     IErMin= 2 ErrMin= 1.27D-02
 ErrMax= 1.27D-02  0.00D+00 EMaxC= 1.00D-01 BMatC= 3.06D-01 BMatP= 1.69D+00
 IDIUse=3 WtCom= 8.73D-01 WtEn= 1.27D-01
 Coeff-Com: -0.213D+00 0.121D+01
 Coeff-En:   0.000D+00 0.100D+01
 Coeff:     -0.186D+00 0.119D+01
 Gap=     0.136 Goal=   None    Shift=    0.000
 RMSDP=7.64D-04 MaxDP=9.44D-02 DE=-3.89D-01 OVMax= 1.86D-01

 Cycle   3  Pass 1  IDiag  1:
 RMSU=  7.31D-04    CP:  9.68D-01  1.24D+00
 E= -4069.62915862014     Delta-E=       -0.290536642737 Rises=F Damp=F
 DIIS: error= 1.57D-02 at cycle   3 NSaved=   3.
 NSaved= 3 IEnMin= 3 EnMin= -4069.62915862014     IErMin= 2 ErrMin= 1.27D-02
 ErrMax= 1.57D-02  0.00D+00 EMaxC= 1.00D-01 BMatC= 2.01D-01 BMatP= 3.06D-01
 IDIUse=3 WtCom= 8.43D-01 WtEn= 1.57D-01
 Coeff-Com: -0.267D+00 0.651D+00 0.616D+00
 Coeff-En:   0.000D+00 0.000D+00 0.100D+01
 Coeff:     -0.225D+00 0.549D+00 0.676D+00
 Gap=     0.123 Goal=   None    Shift=    0.000
 RMSDP=5.05D-04 MaxDP=4.80D-02 DE=-2.91D-01 OVMax= 1.39D-01

 Cycle   4  Pass 1  IDiag  1:
 RMSU=  2.64D-04    CP:  9.65D-01  1.55D+00  5.08D-01
 E= -4069.76593404236     Delta-E=       -0.136775422223 Rises=F Damp=F
 DIIS: error= 7.29D-03 at cycle   4 NSaved=   4.
 NSaved= 4 IEnMin= 4 EnMin= -4069.76593404236     IErMin= 4 ErrMin= 7.29D-03
 ErrMax= 7.29D-03  0.00D+00 EMaxC= 1.00D-01 BMatC= 4.98D-02 BMatP= 2.01D-01
 IDIUse=3 WtCom= 9.27D-01 WtEn= 7.29D-02
 Coeff-Com: -0.108D+00 0.225D+00 0.408D+00 0.475D+00
 Coeff-En:   0.000D+00 0.000D+00 0.218D+00 0.782D+00
 Coeff:     -0.101D+00 0.209D+00 0.394D+00 0.498D+00
 Gap=     0.122 Goal=   None    Shift=    0.000
 RMSDP=1.97D-04 MaxDP=2.02D-02 DE=-1.37D-01 OVMax= 5.90D-02

 Cycle   5  Pass 1  IDiag  1:
 RMSU=  7.47D-05    CP:  9.64D-01  1.49D+00  6.90D-01  5.53D-01
 E= -4069.81065580720     Delta-E=       -0.044721764836 Rises=F Damp=F
 DIIS: error= 8.02D-04 at cycle   5 NSaved=   5.
 NSaved= 5 IEnMin= 5 EnMin= -4069.81065580720     IErMin= 5 ErrMin= 8.02D-04
 ErrMax= 8.02D-04  0.00D+00 EMaxC= 1.00D-01 BMatC= 1.11D-03 BMatP= 4.98D-02
 IDIUse=3 WtCom= 9.92D-01 WtEn= 8.02D-03
 Coeff-Com: -0.351D-01 0.688D-01 0.163D+00 0.247D+00 0.557D+00
 Coeff-En:   0.000D+00 0.000D+00 0.000D+00 0.000D+00 0.100D+01
 Coeff:     -0.348D-01 0.682D-01 0.161D+00 0.245D+00 0.560D+00
 Gap=     0.122 Goal=   None    Shift=    0.000
 RMSDP=3.93D-05 MaxDP=4.16D-03 DE=-4.47D-02 OVMax= 1.52D-02

 Cycle   6  Pass 1  IDiag  1:
 RMSU=  2.95D-05    CP:  9.64D-01  1.49D+00  6.82D-01  6.23D-01  7.71D-01
 E= -4069.81160132651     Delta-E=       -0.000945519310 Rises=F Damp=F
 DIIS: error= 2.31D-04 at cycle   6 NSaved=   6.
 NSaved= 6 IEnMin= 6 EnMin= -4069.81160132651     IErMin= 6 ErrMin= 2.31D-04
 ErrMax= 2.31D-04  0.00D+00 EMaxC= 1.00D-01 BMatC= 1.67D-04 BMatP= 1.11D-03
 IDIUse=3 WtCom= 9.98D-01 WtEn= 2.31D-03
 Coeff-Com:  0.245D-02-0.704D-02 0.100D-01 0.386D-01 0.306D+00 0.649D+00
 Coeff-En:   0.000D+00 0.000D+00 0.000D+00 0.000D+00 0.964D-01 0.904D+00
 Coeff:      0.245D-02-0.702D-02 0.100D-01 0.385D-01 0.306D+00 0.650D+00
 Gap=     0.122 Goal=   None    Shift=    0.000
 RMSDP=1.52D-05 MaxDP=1.27D-03 DE=-9.46D-04 OVMax= 6.87D-03

 Cycle   7  Pass 1  IDiag  1:
 RMSU=  1.03D-05    CP:  9.64D-01  1.50D+00  6.88D-01  6.23D-01  8.67D-01
                    CP:  7.56D-01
 E= -4069.81177844584     Delta-E=       -0.000177119331 Rises=F Damp=F
 DIIS: error= 7.96D-05 at cycle   7 NSaved=   7.
 NSaved= 7 IEnMin= 7 EnMin= -4069.81177844584     IErMin= 7 ErrMin= 7.96D-05
 ErrMax= 7.96D-05  0.00D+00 EMaxC= 1.00D-01 BMatC= 1.88D-05 BMatP= 1.67D-04
 IDIUse=1 WtCom= 1.00D+00 WtEn= 0.00D+00
 Coeff-Com:  0.440D-02-0.959D-02-0.908D-02-0.434D-02 0.984D-01 0.323D+00
 Coeff-Com:  0.597D+00
 Coeff:      0.440D-02-0.959D-02-0.908D-02-0.434D-02 0.984D-01 0.323D+00
 Coeff:      0.597D+00
 Gap=     0.122 Goal=   None    Shift=    0.000
 RMSDP=6.34D-06 MaxDP=1.14D-03 DE=-1.77D-04 OVMax= 3.34D-03

 Cycle   8  Pass 1  IDiag  1:
 RMSU=  4.58D-06    CP:  9.64D-01  1.50D+00  6.88D-01  6.28D-01  8.73D-01
                    CP:  8.82D-01  8.35D-01
 E= -4069.81180177081     Delta-E=       -0.000023324970 Rises=F Damp=F
 DIIS: error= 4.81D-05 at cycle   8 NSaved=   8.
 NSaved= 8 IEnMin= 8 EnMin= -4069.81180177081     IErMin= 8 ErrMin= 4.81D-05
 ErrMax= 4.81D-05  0.00D+00 EMaxC= 1.00D-01 BMatC= 4.62D-06 BMatP= 1.88D-05
 IDIUse=1 WtCom= 1.00D+00 WtEn= 0.00D+00
 Coeff-Com:  0.211D-02-0.417D-02-0.766D-02-0.121D-01-0.132D-01 0.329D-01
 Coeff-Com:  0.353D+00 0.650D+00
 Coeff:      0.211D-02-0.417D-02-0.766D-02-0.121D-01-0.132D-01 0.329D-01
 Coeff:      0.353D+00 0.650D+00
 Gap=     0.122 Goal=   None    Shift=    0.000
 RMSDP=3.20D-06 MaxDP=3.40D-04 DE=-2.33D-05 OVMax= 1.17D-03

 Cycle   9  Pass 1  IDiag  1:
 RMSU=  1.88D-06    CP:  9.64D-01  1.50D+00  6.89D-01  6.29D-01  8.89D-01
                    CP:  9.07D-01  1.03D+00  9.26D-01
 E= -4069.81180914719     Delta-E=       -0.000007376380 Rises=F Damp=F
 DIIS: error= 1.96D-05 at cycle   9 NSaved=   9.
 NSaved= 9 IEnMin= 9 EnMin= -4069.81180914719     IErMin= 9 ErrMin= 1.96D-05
 ErrMax= 1.96D-05  0.00D+00 EMaxC= 1.00D-01 BMatC= 6.57D-07 BMatP= 4.62D-06
 IDIUse=1 WtCom= 1.00D+00 WtEn= 0.00D+00
 Coeff-Com:  0.455D-03-0.755D-03-0.263D-02-0.593D-02-0.217D-01-0.374D-01
 Coeff-Com:  0.108D+00 0.325D+00 0.635D+00
 Coeff:      0.455D-03-0.755D-03-0.263D-02-0.593D-02-0.217D-01-0.374D-01
 Coeff:      0.108D+00 0.325D+00 0.635D+00
 Gap=     0.122 Goal=   None    Shift=    0.000
 RMSDP=1.39D-06 MaxDP=1.54D-04 DE=-7.38D-06 OVMax= 7.56D-04

 Cycle  10  Pass 1  IDiag  1:
 RMSU=  9.24D-07    CP:  9.64D-01  1.50D+00  6.89D-01  6.30D-01  8.92D-01
                    CP:  9.22D-01  1.08D+00  1.09D+00  1.04D+00
 E= -4069.81181066242     Delta-E=       -0.000001515233 Rises=F Damp=F
 DIIS: error= 1.07D-05 at cycle  10 NSaved=  10.
 NSaved=10 IEnMin=10 EnMin= -4069.81181066242     IErMin=10 ErrMin= 1.07D-05
 ErrMax= 1.07D-05  0.00D+00 EMaxC= 1.00D-01 BMatC= 1.67D-07 BMatP= 6.57D-07
 IDIUse=1 WtCom= 1.00D+00 WtEn= 0.00D+00
 Coeff-Com: -0.425D-03 0.889D-03 0.123D-02 0.114D-02-0.385D-02-0.306D-01
 Coeff-Com: -0.486D-01-0.758D-01 0.264D+00 0.892D+00
 Coeff:     -0.425D-03 0.889D-03 0.123D-02 0.114D-02-0.385D-02-0.306D-01
 Coeff:     -0.486D-01-0.758D-01 0.264D+00 0.892D+00
 Gap=     0.122 Goal=   None    Shift=    0.000
 RMSDP=1.20D-06 MaxDP=1.27D-04 DE=-1.52D-06 OVMax= 5.89D-04

 Cycle  11  Pass 1  IDiag  1:
 RMSU=  5.01D-07    CP:  9.64D-01  1.50D+00  6.89D-01  6.30D-01  8.95D-01
                    CP:  9.32D-01  1.13D+00  1.20D+00  1.38D+00  1.36D+00
 E= -4069.81181141903     Delta-E=       -0.000000756612 Rises=F Damp=F
 DIIS: error= 3.75D-06 at cycle  11 NSaved=  11.
 NSaved=11 IEnMin=11 EnMin= -4069.81181141903     IErMin=11 ErrMin= 3.75D-06
 ErrMax= 3.75D-06  0.00D+00 EMaxC= 1.00D-01 BMatC= 5.64D-08 BMatP= 1.67D-07
 IDIUse=1 WtCom= 1.00D+00 WtEn= 0.00D+00
 Coeff-Com: -0.320D-03 0.622D-03 0.130D-02 0.210D-02 0.439D-02-0.815D-02
 Coeff-Com: -0.451D-01-0.131D+00-0.158D-01 0.453D+00 0.739D+00
 Coeff:     -0.320D-03 0.622D-03 0.130D-02 0.210D-02 0.439D-02-0.815D-02
 Coeff:     -0.451D-01-0.131D+00-0.158D-01 0.453D+00 0.739D+00
 Gap=     0.122 Goal=   None    Shift=    0.000
 RMSDP=6.67D-07 MaxDP=5.29D-05 DE=-7.57D-07 OVMax= 3.50D-04

 Cycle  12  Pass 1  IDiag  1:
 RMSU=  2.56D-07    CP:  9.64D-01  1.50D+00  6.89D-01  6.30D-01  8.96D-01
                    CP:  9.34D-01  1.15D+00  1.27D+00  1.55D+00  1.74D+00
                    CP:  1.21D+00
 E= -4069.81181166752     Delta-E=       -0.000000248489 Rises=F Damp=F
 DIIS: error= 2.32D-06 at cycle  12 NSaved=  12.
 NSaved=12 IEnMin=12 EnMin= -4069.81181166752     IErMin=12 ErrMin= 2.32D-06
 ErrMax= 2.32D-06  0.00D+00 EMaxC= 1.00D-01 BMatC= 1.35D-08 BMatP= 5.64D-08
 IDIUse=1 WtCom= 1.00D+00 WtEn= 0.00D+00
 Coeff-Com:  0.697D-05-0.299D-04 0.148D-03 0.464D-03 0.317D-02 0.425D-02
 Coeff-Com:  0.352D-02-0.329D-01-0.656D-01-0.886D-01 0.241D+00 0.934D+00
 Coeff:      0.697D-05-0.299D-04 0.148D-03 0.464D-03 0.317D-02 0.425D-02
 Coeff:      0.352D-02-0.329D-01-0.656D-01-0.886D-01 0.241D+00 0.934D+00
 Gap=     0.122 Goal=   None    Shift=    0.000
 RMSDP=4.33D-07 MaxDP=3.00D-05 DE=-2.48D-07 OVMax= 2.43D-04

 Cycle  13  Pass 1  IDiag  1:
 RMSU=  1.61D-07    CP:  9.64D-01  1.50D+00  6.89D-01  6.30D-01  8.96D-01
                    CP:  9.35D-01  1.16D+00  1.30D+00  1.66D+00  1.97D+00
                    CP:  1.63D+00  1.29D+00
 E= -4069.81181175590     Delta-E=       -0.000000088381 Rises=F Damp=F
 DIIS: error= 1.36D-06 at cycle  13 NSaved=  13.
 NSaved=13 IEnMin=13 EnMin= -4069.81181175590     IErMin=13 ErrMin= 1.36D-06
 ErrMax= 1.36D-06  0.00D+00 EMaxC= 1.00D-01 BMatC= 7.61D-09 BMatP= 1.35D-08
 IDIUse=1 WtCom= 1.00D+00 WtEn= 0.00D+00
 Coeff-Com:  0.119D-03-0.243D-03-0.369D-03-0.460D-03 0.506D-03 0.510D-02
 Coeff-Com:  0.202D-01 0.223D-01-0.350D-01-0.241D+00-0.155D+00 0.609D+00
 Coeff-Com:  0.775D+00
 Coeff:      0.119D-03-0.243D-03-0.369D-03-0.460D-03 0.506D-03 0.510D-02
 Coeff:      0.202D-01 0.223D-01-0.350D-01-0.241D+00-0.155D+00 0.609D+00
 Coeff:      0.775D+00
 Gap=     0.122 Goal=   None    Shift=    0.000
 RMSDP=3.25D-07 MaxDP=2.10D-05 DE=-8.84D-08 OVMax= 1.78D-04

 Cycle  14  Pass 1  IDiag  1:
 RMSU=  7.45D-08    CP:  9.64D-01  1.50D+00  6.89D-01  6.30D-01  8.96D-01
                    CP:  9.35D-01  1.17D+00  1.32D+00  1.73D+00  2.16D+00
                    CP:  1.89D+00  1.80D+00  1.08D+00
 E= -4069.81181178900     Delta-E=       -0.000000033102 Rises=F Damp=F
 DIIS: error= 6.82D-07 at cycle  14 NSaved=  14.
 NSaved=14 IEnMin=14 EnMin= -4069.81181178900     IErMin=14 ErrMin= 6.82D-07
 ErrMax= 6.82D-07  0.00D+00 EMaxC= 1.00D-01 BMatC= 1.17D-09 BMatP= 7.61D-09
 IDIUse=1 WtCom= 1.00D+00 WtEn= 0.00D+00
 Coeff-Com:  0.649D-04-0.128D-03-0.241D-03-0.381D-03-0.500D-03 0.131D-02
 Coeff-Com:  0.110D-01 0.187D-01 0.292D-02-0.976D-01-0.141D+00 0.101D+00
 Coeff-Com:  0.398D+00 0.707D+00
 Coeff:      0.649D-04-0.128D-03-0.241D-03-0.381D-03-0.500D-03 0.131D-02
 Coeff:      0.110D-01 0.187D-01 0.292D-02-0.976D-01-0.141D+00 0.101D+00
 Coeff:      0.398D+00 0.707D+00
 Gap=     0.122 Goal=   None    Shift=    0.000
 RMSDP=9.70D-08 MaxDP=6.27D-06 DE=-3.31D-08 OVMax= 5.80D-05

 Cycle  15  Pass 1  IDiag  1:
 RMSU=  3.81D-08    CP:  9.64D-01  1.50D+00  6.89D-01  6.30D-01  8.96D-01
                    CP:  9.35D-01  1.17D+00  1.32D+00  1.74D+00  2.20D+00
                    CP:  1.99D+00  1.94D+00  1.32D+00  1.01D+00
 E= -4069.81181179272     Delta-E=       -0.000000003718 Rises=F Damp=F
 DIIS: error= 4.24D-07 at cycle  15 NSaved=  15.
 NSaved=15 IEnMin=15 EnMin= -4069.81181179272     IErMin=15 ErrMin= 4.24D-07
 ErrMax= 4.24D-07  0.00D+00 EMaxC= 1.00D-01 BMatC= 2.39D-10 BMatP= 1.17D-09
 IDIUse=1 WtCom= 1.00D+00 WtEn= 0.00D+00
 Coeff-Com:  0.575D-05-0.970D-05-0.340D-04-0.841D-04-0.310D-03-0.490D-03
 Coeff-Com:  0.127D-02 0.270D-02 0.882D-02 0.107D-02-0.333D-01-0.708D-01
 Coeff-Com:  0.280D-01 0.316D+00 0.747D+00
 Coeff:      0.575D-05-0.970D-05-0.340D-04-0.841D-04-0.310D-03-0.490D-03
 Coeff:      0.127D-02 0.270D-02 0.882D-02 0.107D-02-0.333D-01-0.708D-01
 Coeff:      0.280D-01 0.316D+00 0.747D+00
 Gap=     0.122 Goal=   None    Shift=    0.000
 RMSDP=4.12D-08 MaxDP=2.58D-06 DE=-3.72D-09 OVMax= 2.34D-05

 Cycle  16  Pass 1  IDiag  1:
 RMSU=  1.85D-08    CP:  9.64D-01  1.50D+00  6.89D-01  6.30D-01  8.96D-01
                    CP:  9.35D-01  1.17D+00  1.32D+00  1.75D+00  2.22D+00
                    CP:  2.02D+00  2.00D+00  1.39D+00  1.24D+00  1.13D+00
 E= -4069.81181179337     Delta-E=       -0.000000000651 Rises=F Damp=F
 DIIS: error= 2.29D-07 at cycle  16 NSaved=  16.
 NSaved=16 IEnMin=16 EnMin= -4069.81181179337     IErMin=16 ErrMin= 2.29D-07
 ErrMax= 2.29D-07  0.00D+00 EMaxC= 1.00D-01 BMatC= 7.77D-11 BMatP= 2.39D-10
 IDIUse=1 WtCom= 1.00D+00 WtEn= 0.00D+00
 Coeff-Com: -0.139D-04 0.283D-04 0.462D-04 0.528D-04-0.273D-04-0.632D-03
 Coeff-Com: -0.202D-02-0.417D-02 0.490D-02 0.254D-01 0.196D-01-0.649D-01
 Coeff-Com: -0.865D-01-0.209D-01 0.389D+00 0.741D+00
 Coeff:     -0.139D-04 0.283D-04 0.462D-04 0.528D-04-0.273D-04-0.632D-03
 Coeff:     -0.202D-02-0.417D-02 0.490D-02 0.254D-01 0.196D-01-0.649D-01
 Coeff:     -0.865D-01-0.209D-01 0.389D+00 0.741D+00
 Gap=     0.122 Goal=   None    Shift=    0.000
 RMSDP=2.26D-08 MaxDP=1.52D-06 DE=-6.51D-10 OVMax= 1.55D-05

 Cycle  17  Pass 1  IDiag  1:
 RMSU=  1.09D-08    CP:  9.64D-01  1.50D+00  6.89D-01  6.30D-01  8.96D-01
                    CP:  9.35D-01  1.17D+00  1.32D+00  1.75D+00  2.22D+00
                    CP:  2.03D+00  2.03D+00  1.44D+00  1.33D+00  1.43D+00
                    CP:  1.22D+00
 E= -4069.81181179390     Delta-E=       -0.000000000524 Rises=F Damp=F
 DIIS: error= 1.27D-07 at cycle  17 NSaved=  17.
 NSaved=17 IEnMin=17 EnMin= -4069.81181179390     IErMin=17 ErrMin= 1.27D-07
 ErrMax= 1.27D-07  0.00D+00 EMaxC= 1.00D-01 BMatC= 2.09D-11 BMatP= 7.77D-11
 IDIUse=1 WtCom= 1.00D+00 WtEn= 0.00D+00
 Coeff-Com: -0.810D-05 0.158D-04 0.315D-04 0.464D-04 0.826D-04-0.165D-03
 Coeff-Com: -0.116D-02-0.305D-02 0.577D-03 0.110D-01 0.188D-01-0.115D-01
 Coeff-Com: -0.457D-01-0.100D+00-0.228D-01 0.352D+00 0.802D+00
 Coeff:     -0.810D-05 0.158D-04 0.315D-04 0.464D-04 0.826D-04-0.165D-03
 Coeff:     -0.116D-02-0.305D-02 0.577D-03 0.110D-01 0.188D-01-0.115D-01
 Coeff:     -0.457D-01-0.100D+00-0.228D-01 0.352D+00 0.802D+00
 Gap=     0.122 Goal=   None    Shift=    0.000
 RMSDP=1.39D-08 MaxDP=9.56D-07 DE=-5.24D-10 OVMax= 8.19D-06

 Cycle  18  Pass 1  IDiag  1:
 RMSU=  5.30D-09    CP:  9.64D-01  1.50D+00  6.89D-01  6.30D-01  8.96D-01
                    CP:  9.35D-01  1.17D+00  1.32D+00  1.75D+00  2.22D+00
                    CP:  2.03D+00  2.04D+00  1.46D+00  1.41D+00  1.60D+00
                    CP:  1.63D+00  1.31D+00
 E= -4069.81181179382     Delta-E=        0.000000000073 Rises=F Damp=F
 DIIS: error= 6.55D-08 at cycle  18 NSaved=  18.
 NSaved=18 IEnMin=17 EnMin= -4069.81181179390     IErMin=18 ErrMin= 6.55D-08
 ErrMax= 6.55D-08  0.00D+00 EMaxC= 1.00D-01 BMatC= 7.09D-12 BMatP= 2.09D-11
 IDIUse=1 WtCom= 1.00D+00 WtEn= 0.00D+00
 Coeff-Com:  0.852D-06-0.204D-05-0.136D-06 0.442D-05 0.651D-04 0.150D-03
 Coeff-Com:  0.228D-03-0.220D-03-0.116D-02-0.433D-02 0.255D-02 0.181D-01
 Coeff-Com:  0.109D-01-0.438D-01-0.155D+00-0.102D+00 0.382D+00 0.892D+00
 Coeff:      0.852D-06-0.204D-05-0.136D-06 0.442D-05 0.651D-04 0.150D-03
 Coeff:      0.228D-03-0.220D-03-0.116D-02-0.433D-02 0.255D-02 0.181D-01
 Coeff:      0.109D-01-0.438D-01-0.155D+00-0.102D+00 0.382D+00 0.892D+00
 Gap=     0.122 Goal=   None    Shift=    0.000
 RMSDP=1.06D-08 MaxDP=8.49D-07 DE= 7.28D-11 OVMax= 7.29D-06

 Cycle  19  Pass 1  IDiag  1:
 RMSU=  3.27D-09    CP:  9.64D-01  1.50D+00  6.89D-01  6.30D-01  8.96D-01
                    CP:  9.35D-01  1.17D+00  1.32D+00  1.75D+00  2.22D+00
                    CP:  2.04D+00  2.04D+00  1.47D+00  1.45D+00  1.74D+00
                    CP:  1.92D+00  1.81D+00  1.18D+00
 E= -4069.81181179400     Delta-E=       -0.000000000175 Rises=F Damp=F
 DIIS: error= 3.45D-08 at cycle  19 NSaved=  19.
 NSaved=19 IEnMin=19 EnMin= -4069.81181179400     IErMin=19 ErrMin= 3.45D-08
 ErrMax= 3.45D-08  0.00D+00 EMaxC= 1.00D-01 BMatC= 2.91D-12 BMatP= 7.09D-12
 IDIUse=1 WtCom= 1.00D+00 WtEn= 0.00D+00
 Coeff-Com:  0.334D-05-0.677D-05-0.111D-04-0.133D-04 0.182D-04 0.154D-03
 Coeff-Com:  0.574D-03 0.877D-03-0.886D-03-0.706D-02-0.500D-02 0.160D-01
 Coeff-Com:  0.238D-01 0.563D-02-0.987D-01-0.202D+00-0.383D-01 0.591D+00
 Coeff-Com:  0.714D+00
 Coeff:      0.334D-05-0.677D-05-0.111D-04-0.133D-04 0.182D-04 0.154D-03
 Coeff:      0.574D-03 0.877D-03-0.886D-03-0.706D-02-0.500D-02 0.160D-01
 Coeff:      0.238D-01 0.563D-02-0.987D-01-0.202D+00-0.383D-01 0.591D+00
 Coeff:      0.714D+00
 Gap=     0.122 Goal=   None    Shift=    0.000
 RMSDP=6.52D-09 MaxDP=4.22D-07 DE=-1.75D-10 OVMax= 3.69D-06

 SCF Done:  E(RCAM-B3LYP) =  -4069.81181179     A.U. after   19 cycles
            NFock= 19  Conv=0.65D-08     -V/T= 2.0102
 KE= 4.028801872617D+03 PE=-3.694143732178D+04 EE= 1.511256496358D+04
 Leave Link  502 at Sat Sep  4 12:31:54 2021, MaxMem= 23488102400 cpu:           11546.3 elap:             505.5
 (Enter /sw/apps/gaussian-16.0/g16/l801.exe)
 DoSCS=F DFT=T ScalE2(SS,OS)=  1.000000  1.000000
 ExpMin= 3.36D-02 ExpMax= 4.95D+03 ExpMxC= 7.45D+02 IAcc=3 IRadAn=         5 AccDes= 0.00D+00
 HarFok:  IExCor=  205 AccDes= 0.00D+00 IRadAn=         5 IDoV=-2 UseB2=F ITyADJ=14
 ICtDFT= 12500011 ScaDFX=  1.000000  1.000000  1.000000  1.000000
 GSVD:  LWork=       -9588 too small for GESVD, short by       45590 words or       45590 for optimal perf.
 Largest valence mixing into a core orbital is  2.03D-04
 Largest core mixing into a valence orbital is  5.24D-05
 Range of M.O.s used for correlation:    95  1572
 NBasis=  1572 NAE=   312 NBE=   312 NFC=    94 NFV=     0
 NROrb=   1478 NOA=   218 NOB=   218 NVA=  1260 NVB=  1260
 Leave Link  801 at Sat Sep  4 12:31:55 2021, MaxMem= 23488102400 cpu:               7.8 elap:               0.4
 (Enter /sw/apps/gaussian-16.0/g16/l914.exe)
 RHF ground state
 Two-electron integrals replicated using symmetry.
 MDV= 23488102400 DFT=T DoStab=F Mixed=T DoRPA=T DoScal=F NonHer=T
 Making orbital integer symmetry assigments:
 Orbital symmetries:
       Occupied  (A) (A) (A) (A) (A) (A) (A) (A) (A) (A) (A) (A)
                 (A) (A) (A) (A) (A) (A) (A) (A) (A) (A) (A) (A)
                 (A) (A) (A) (A) (A) (A) (A) (A) (A) (A) (A) (A)
                 (A) (A) (A) (A) (A) (A) (A) (A) (A) (A) (A) (A)
                 (A) (A) (A) (A) (A) (A) (A) (A) (A) (A) (A) (A)
                 (A) (A) (A) (A) (A) (A) (A) (A) (A) (A) (A) (A)
                 (A) (A) (A) (A) (A) (A) (A) (A) (A) (A) (A) (A)
                 (A) (A) (A) (A) (A) (A) (A) (A) (A) (A) (A) (A)
                 (A) (A) (A) (A) (A) (A) (A) (A) (A) (A) (A) (A)
                 (A) (A) (A) (A) (A) (A) (A) (A) (A) (A) (A) (A)
                 (A) (A) (A) (A) (A) (A) (A) (A) (A) (A) (A) (A)
                 (A) (A) (A) (A) (A) (A) (A) (A) (A) (A) (A) (A)
                 (A) (A) (A) (A) (A) (A) (A) (A) (A) (A) (A) (A)
                 (A) (A) (A) (A) (A) (A) (A) (A) (A) (A) (A) (A)
                 (A) (A) (A) (A) (A) (A) (A) (A) (A) (A) (A) (A)
                 (A) (A) (A) (A) (A) (A) (A) (A) (A) (A) (A) (A)
                 (A) (A) (A) (A) (A) (A) (A) (A) (A) (A) (A) (A)
                 (A) (A) (A) (A) (A) (A) (A) (A) (A) (A) (A) (A)
                 (A) (A) (A) (A) (A) (A) (A) (A) (A) (A) (A) (A)
                 (A) (A) (A) (A) (A) (A) (A) (A) (A) (A) (A) (A)
                 (A) (A) (A) (A) (A) (A) (A) (A) (A) (A) (A) (A)
                 (A) (A) (A) (A) (A) (A) (A) (A) (A) (A) (A) (A)
                 (A) (A) (A) (A) (A) (A) (A) (A) (A) (A) (A) (A)
                 (A) (A) (A) (A) (A) (A) (A) (A) (A) (A) (A) (A)
                 (A) (A) (A) (A) (A) (A) (A) (A) (A) (A) (A) (A)
                 (A) (A) (A) (A) (A) (A) (A) (A) (A) (A) (A) (A)
       Virtual   (A) (A) (A) (A) (A) (A) (A) (A) (A) (A) (A) (A)
                 (A) (A) (A) (A) (A) (A) (A) (A) (A) (A) (A) (A)
                 (A) (A) (A) (A) (A) (A) (A) (A) (A) (A) (A) (A)
                 (A) (A) (A) (A) (A) (A) (A) (A) (A) (A) (A) (A)
                 (A) (A) (A) (A) (A) (A) (A) (A) (A) (A) (A) (A)
                 (A) (A) (A) (A) (A) (A) (A) (A) (A) (A) (A) (A)
                 (A) (A) (A) (A) (A) (A) (A) (A) (A) (A) (A) (A)
                 (A) (A) (A) (A) (A) (A) (A) (A) (A) (A) (A) (A)
                 (A) (A) (A) (A) (A) (A) (A) (A) (A) (A) (A) (A)
                 (A) (A) (A) (A) (A) (A) (A) (A) (A) (A) (A) (A)
                 (A) (A) (A) (A) (A) (A) (A) (A) (A) (A) (A) (A)
                 (A) (A) (A) (A) (A) (A) (A) (A) (A) (A) (A) (A)
                 (A) (A) (A) (A) (A) (A) (A) (A) (A) (A) (A) (A)
                 (A) (A) (A) (A) (A) (A) (A) (A) (A) (A) (A) (A)
                 (A) (A) (A) (A) (A) (A) (A) (A) (A) (A) (A) (A)
                 (A) (A) (A) (A) (A) (A) (A) (A) (A) (A) (A) (A)
                 (A) (A) (A) (A) (A) (A) (A) (A) (A) (A) (A) (A)
                 (A) (A) (A) (A) (A) (A) (A) (A) (A) (A) (A) (A)
                 (A) (A) (A) (A) (A) (A) (A) (A) (A) (A) (A) (A)
                 (A) (A) (A) (A) (A) (A) (A) (A) (A) (A) (A) (A)
                 (A) (A) (A) (A) (A) (A) (A) (A) (A) (A) (A) (A)
                 (A) (A) (A) (A) (A) (A) (A) (A) (A) (A) (A) (A)
                 (A) (A) (A) (A) (A) (A) (A) (A) (A) (A) (A) (A)
                 (A) (A) (A) (A) (A) (A) (A) (A) (A) (A) (A) (A)
                 (A) (A) (A) (A) (A) (A) (A) (A) (A) (A) (A) (A)
                 (A) (A) (A) (A) (A) (A) (A) (A) (A) (A) (A) (A)
                 (A) (A) (A) (A) (A) (A) (A) (A) (A) (A) (A) (A)
                 (A) (A) (A) (A) (A) (A) (A) (A) (A) (A) (A) (A)
                 (A) (A) (A) (A) (A) (A) (A) (A) (A) (A) (A) (A)
                 (A) (A) (A) (A) (A) (A) (A) (A) (A) (A) (A) (A)
                 (A) (A) (A) (A) (A) (A) (A) (A) (A) (A) (A) (A)
                 (A) (A) (A) (A) (A) (A) (A) (A) (A) (A) (A) (A)
                 (A) (A) (A) (A) (A) (A) (A) (A) (A) (A) (A) (A)
                 (A) (A) (A) (A) (A) (A) (A) (A) (A) (A) (A) (A)
                 (A) (A) (A) (A) (A) (A) (A) (A) (A) (A) (A) (A)
                 (A) (A) (A) (A) (A) (A) (A) (A) (A) (A) (A) (A)
                 (A) (A) (A) (A) (A) (A) (A) (A) (A) (A) (A) (A)
                 (A) (A) (A) (A) (A) (A) (A) (A) (A) (A) (A) (A)
                 (A) (A) (A) (A) (A) (A) (A) (A) (A) (A) (A) (A)
                 (A) (A) (A) (A) (A) (A) (A) (A) (A) (A) (A) (A)
                 (A) (A) (A) (A) (A) (A) (A) (A) (A) (A) (A) (A)
                 (A) (A) (A) (A) (A) (A) (A) (A) (A) (A) (A) (A)
                 (A) (A) (A) (A) (A) (A) (A) (A) (A) (A) (A) (A)
                 (A) (A) (A) (A) (A) (A) (A) (A) (A) (A) (A) (A)
                 (A) (A) (A) (A) (A) (A) (A) (A) (A) (A) (A) (A)
                 (A) (A) (A) (A) (A) (A) (A) (A) (A) (A) (A) (A)
                 (A) (A) (A) (A) (A) (A) (A) (A) (A) (A) (A) (A)
                 (A) (A) (A) (A) (A) (A) (A) (A) (A) (A) (A) (A)
                 (A) (A) (A) (A) (A) (A) (A) (A) (A) (A) (A) (A)
                 (A) (A) (A) (A) (A) (A) (A) (A) (A) (A) (A) (A)
                 (A) (A) (A) (A) (A) (A) (A) (A) (A) (A) (A) (A)
                 (A) (A) (A) (A) (A) (A) (A) (A) (A) (A) (A) (A)
                 (A) (A) (A) (A) (A) (A) (A) (A) (A) (A) (A) (A)
                 (A) (A) (A) (A) (A) (A) (A) (A) (A) (A) (A) (A)
                 (A) (A) (A) (A) (A) (A) (A) (A) (A) (A) (A) (A)
                 (A) (A) (A) (A) (A) (A) (A) (A) (A) (A) (A) (A)
                 (A) (A) (A) (A) (A) (A) (A) (A) (A) (A) (A) (A)
                 (A) (A) (A) (A) (A) (A) (A) (A) (A) (A) (A) (A)
                 (A) (A) (A) (A) (A) (A) (A) (A) (A) (A) (A) (A)
                 (A) (A) (A) (A) (A) (A) (A) (A) (A) (A) (A) (A)
                 (A) (A) (A) (A) (A) (A) (A) (A) (A) (A) (A) (A)
                 (A) (A) (A) (A) (A) (A) (A) (A) (A) (A) (A) (A)
                 (A) (A) (A) (A) (A) (A) (A) (A) (A) (A) (A) (A)
                 (A) (A) (A) (A) (A) (A) (A) (A) (A) (A) (A) (A)
                 (A) (A) (A) (A) (A) (A) (A) (A) (A) (A) (A) (A)
                 (A) (A) (A) (A) (A) (A) (A) (A) (A) (A) (A) (A)
                 (A) (A) (A) (A) (A) (A) (A) (A) (A) (A) (A) (A)
                 (A) (A) (A) (A) (A) (A) (A) (A) (A) (A) (A) (A)
                 (A) (A) (A) (A) (A) (A) (A) (A) (A) (A) (A) (A)
                 (A) (A) (A) (A) (A) (A) (A) (A) (A) (A) (A) (A)
                 (A) (A) (A) (A) (A) (A) (A) (A) (A) (A) (A) (A)
                 (A) (A) (A) (A) (A) (A) (A) (A) (A) (A) (A) (A)
                 (A) (A) (A) (A) (A) (A) (A) (A) (A) (A) (A) (A)
                 (A) (A) (A) (A) (A) (A) (A) (A) (A) (A) (A) (A)
                 (A) (A) (A) (A) (A) (A) (A) (A) (A) (A) (A) (A)
                 (A) (A) (A) (A) (A) (A) (A) (A) (A) (A) (A) (A)
                 (A) (A) (A) (A) (A) (A) (A) (A) (A) (A) (A) (A)
                 (A) (A) (A) (A) (A) (A) (A) (A) (A) (A) (A) (A)
                 (A) (A) (A) (A) (A) (A) (A) (A) (A) (A) (A) (A)
                 (A) (A) (A) (A) (A) (A) (A) (A) (A) (A) (A) (A)
                 (A) (A) (A) (A) (A) (A) (A) (A) (A) (A) (A) (A)
                 (A) (A) (A) (A) (A) (A) (A) (A) (A) (A) (A) (A)
                 (A) (A) (A) (A) (A) (A) (A) (A) (A) (A) (A) (A)
                 (A) (A) (A) (A) (A) (A) (A) (A) (A) (A) (A) (A)
                 (A) (A) (A) (A) (A) (A) (A) (A) (A) (A) (A) (A)
                 (A) (A) (A) (A) (A) (A) (A) (A) (A) (A) (A) (A)
                 (A) (A) (A) (A) (A) (A) (A) (A) (A) (A) (A) (A)
                 (A) (A) (A) (A) (A) (A) (A) (A) (A) (A) (A) (A)
                 (A) (A) (A) (A) (A) (A) (A) (A) (A) (A) (A) (A)
                 (A) (A) (A) (A) (A) (A) (A) (A) (A) (A) (A) (A)
                 (A) (A) (A) (A) (A) (A) (A) (A) (A) (A) (A) (A)
                 (A) (A) (A) (A) (A) (A) (A) (A) (A) (A) (A) (A)
                 (A) (A) (A) (A) (A) (A) (A) (A) (A) (A) (A) (A)
                 (A) (A) (A) (A) (A) (A) (A) (A) (A) (A) (A) (A)
                 (A) (A) (A) (A) (A) (A) (A) (A) (A) (A) (A) (A)
                 (A) (A) (A) (A) (A) (A) (A) (A) (A) (A) (A) (A)
                 (A) (A) (A) (A) (A) (A) (A) (A) (A) (A) (A) (A)
                 (A) (A) (A) (A) (A) (A) (A) (A) (A) (A) (A) (A)
                 (A) (A) (A) (A) (A) (A) (A) (A) (A) (A) (A) (A)
                 (A) (A) (A) (A) (A) (A) (A) (A) (A) (A) (A) (A)
                 (A) (A) (A) (A) (A) (A) (A) (A) (A) (A) (A) (A)
                 (A) (A) (A) (A) (A) (A) (A) (A) (A) (A) (A) (A)
                 (A) (A) (A) (A) (A) (A) (A) (A) (A) (A) (A) (A)
                 (A) (A) (A) (A) (A) (A) (A) (A) (A) (A) (A) (A)
                 (A) (A) (A) (A) (A) (A) (A) (A) (A) (A) (A) (A)
    20 initial guesses have been made.
 Convergence on wavefunction:    0.001000000000000
 Davidson Disk Diagonalization:  ConvIn= 1.00D-03 SkipCon=T Conv= 1.00D-03.
 Max sub-space:  2000 roots to seek:    20 dimension of matrix:       549360
 Iteration     1 Dimension    20 NMult     0 NNew     20
 CISAX will form    20 AO SS matrices at one time.
 NMat=    20 NSing=    20 JSym2X= 0.
 FoFJK:  IHMeth= 1 ICntrl=       0 DoSepK=T KAlg= 0 I1Cent=           0 FoldK=F
 IRaf=         1 NMat=      40 IRICut=       1 DoRegI=T DoRafI=F ISym2E= 0 IDoP0=3 IntGTp=3.
 FoFCou: FMM=T IPFlag=           0 FMFlag=      100000 FMFlg1=        2001
         NFxFlg=           0 DoJE=F BraDBF=F KetDBF=F FulRan=T
         wScrn=  0.000000 ICntrl=       500 IOpCl=  0 I1Cent=           0 NGrid=           0
         NMat0=   20 NMatS0=     20 NMatT0=    0 NMatD0=   20 NMtDS0=    0 NMtDT0=    0
 Symmetry not used in FoFCou.
 FMM levels:  10  Number of levels for PrismC:   9
 New state      1 was old state      7
 New state      2 was old state      6
 New state      3 was old state      2
 New state      4 was old state      3
 New state      5 was old state      1
 Excitation Energies [eV] at current iteration:
 Root      1 :     2.613878926846362
 Root      2 :     2.619850026300578
 Root      3 :     2.668715365966666
 Root      4 :     2.702511907498204
 Root      5 :     2.765435006174464
 Root      6 :     2.825354260732913
 Root      7 :     3.556982581693964
 Root      8 :     3.627068317556514
 Root      9 :     3.630982292054641
 Root     10 :     3.670451874029648
 Root     11 :     3.733863023891364
 Root     12 :     3.758030175196977
 Root     13 :     4.293472703103296
 Root     14 :     4.317852055938216
 Root     15 :     4.673326018653738
 Root     16 :     4.758592918364860
 Root     17 :     4.977963689427990
 Root     18 :     5.010354494489222
 Root     19 :     5.051931508167447
 Root     20 :     5.084073823330894
 Iteration     2 Dimension    30 NMult    20 NNew     10
 CISAX will form    10 AO SS matrices at one time.
 NMat=    10 NSing=    10 JSym2X= 0.
 New state      1 was old state      3
 Root      1 not converged, maximum delta is    0.154819418658724
 New state      2 was old state      4
 Root      2 not converged, maximum delta is    0.158671873705999
 New state      3 was old state      2
 Root      3 not converged, maximum delta is    0.380207714685107
 New state      4 was old state      1
 Root      4 not converged, maximum delta is    0.373666853641848
 Root      5 has converged.
 Excitation Energies [eV] at current iteration:
 Root      1 :     1.795797785300343   Change is   -0.872917580666323
 Root      2 :     1.813025734282806   Change is   -0.889486173215398
 Root      3 :     2.235307207205520   Change is   -0.384542819095058
 Root      4 :     2.239997317324063   Change is   -0.373881609522299
 Root      5 :     2.765354543538977   Change is   -0.000080462635487
 Iteration     3 Dimension    38 NMult    30 NNew      8
 CISAX will form     8 AO SS matrices at one time.
 NMat=     8 NSing=     8 JSym2X= 0.
 Root      1 not converged, maximum delta is    0.056252888486870
 Root      2 not converged, maximum delta is    0.057172243565591
 Root      3 not converged, maximum delta is    0.091109313546109
 Root      4 not converged, maximum delta is    0.090699280009730
 Root      5 has converged.
 Excitation Energies [eV] at current iteration:
 Root      1 :     1.688928431506032   Change is   -0.106869353794310
 Root      2 :     1.704340311055537   Change is   -0.108685423227268
 Root      3 :     2.194204605275049   Change is   -0.041102601930471
 Root      4 :     2.200883123105754   Change is   -0.039114194218309
 Root      5 :     2.765354543539096   Change is    0.000000000000119
 Iteration     4 Dimension    46 NMult    38 NNew      8
 CISAX will form     8 AO SS matrices at one time.
 NMat=     8 NSing=     8 JSym2X= 0.
 Root      1 not converged, maximum delta is    0.010851048839379
 Root      2 not converged, maximum delta is    0.010834560321362
 Root      3 not converged, maximum delta is    0.012133048061951
 Root      4 not converged, maximum delta is    0.012025007016600
 Root      5 has converged.
 Excitation Energies [eV] at current iteration:
 Root      1 :     1.672194840445854   Change is   -0.016733591060178
 Root      2 :     1.687479843710522   Change is   -0.016860467345015
 Root      3 :     2.186956781270140   Change is   -0.007247824004908
 Root      4 :     2.194088843367705   Change is   -0.006794279738049
 Root      5 :     2.765354543539007   Change is   -0.000000000000089
 Iteration     5 Dimension    54 NMult    46 NNew      8
 CISAX will form     8 AO SS matrices at one time.
 NMat=     8 NSing=     8 JSym2X= 0.
 Root      1 not converged, maximum delta is    0.001768846003469
 Root      2 not converged, maximum delta is    0.001796211360563
 Root      3 not converged, maximum delta is    0.002449885287291
 Root      4 not converged, maximum delta is    0.002328006097534
 Root      5 has converged.
 Excitation Energies [eV] at current iteration:
 Root      1 :     1.670435551913903   Change is   -0.001759288531951
 Root      2 :     1.685689027446945   Change is   -0.001790816263577
 Root      3 :     2.186114215395262   Change is   -0.000842565874878
 Root      4 :     2.193311078026841   Change is   -0.000777765340864
 Root      5 :     2.765354543538888   Change is   -0.000000000000119
 Iteration     6 Dimension    62 NMult    54 NNew      8
 CISAX will form     8 AO SS matrices at one time.
 NMat=     8 NSing=     8 JSym2X= 0.
 Root      1 not converged, maximum delta is    0.001101797380022
 Root      2 not converged, maximum delta is    0.001121806851084
 Root      3 not converged, maximum delta is    0.001036557729764
 Root      4 has converged.
 Root      5 has converged.
 Excitation Energies [eV] at current iteration:
 Root      1 :     1.670185072812587   Change is   -0.000250479101316
 Root      2 :     1.685431840289010   Change is   -0.000257187157935
 Root      3 :     2.185986960836130   Change is   -0.000127254559132
 Root      4 :     2.193192838288337   Change is   -0.000118239738504
 Root      5 :     2.765354543538977   Change is    0.000000000000089
 Iteration     7 Dimension    68 NMult    62 NNew      6
 CISAX will form     6 AO SS matrices at one time.
 NMat=     6 NSing=     6 JSym2X= 0.
 Root      1 has converged.
 Root      2 has converged.
 Root      3 has converged.
 Root      4 has converged.
 Root      5 has converged.
 Excitation Energies [eV] at current iteration:
 Root      1 :     1.670160714253338   Change is   -0.000024358559249
 Root      2 :     1.685407389732366   Change is   -0.000024450556643
[...]
 Alpha virt. eigenvalues --    1.84445   1.84543   1.84816   1.84817   1.85090
 Alpha virt. eigenvalues --    1.85139   1.85274   1.85381   1.85503   1.85515
 Alpha virt. eigenvalues --    1.85865   1.85923   1.86357   1.86406   1.86561
 Alpha virt. eigenvalues --    1.86676   1.86780   1.86843   1.87028   1.87053
 Alpha virt. eigenvalues --    1.87441   1.87503   1.87681   1.87789   1.87867
 Alpha virt. eigenvalues --    1.88035   1.88038   1.88202   1.88539   1.88601
 Alpha virt. eigenvalues --    1.88829   1.88967   1.89088   1.89117   1.89634
 Alpha virt. eigenvalues --    1.89690   1.89752   1.89903   1.90121   1.90215
 Alpha virt. eigenvalues --    1.90749   1.90914   1.91348   1.91440   1.91444
 Alpha virt. eigenvalues --    1.91617   1.92151   1.92202   1.92628   1.92677
 Alpha virt. eigenvalues --    1.92980   1.93171   1.93332   1.93520   1.94272
 Alpha virt. eigenvalues --    1.94321   1.94691   1.94839   1.95465   1.95605
 Alpha virt. eigenvalues --    1.95726   1.95829   1.95994   1.96067   1.96143
 Alpha virt. eigenvalues --    1.96190   1.96498   1.96589   1.96901   1.96962
 Alpha virt. eigenvalues --    1.97443   1.97552   1.97815   1.97826   1.98169
 Alpha virt. eigenvalues --    1.98187   1.98361   1.98677   1.99093   1.99138
 Alpha virt. eigenvalues --    1.99825   1.99956   2.00654   2.00741   2.00997
 Alpha virt. eigenvalues --    2.01116   2.01483   2.01522   2.01626   2.01666
 Alpha virt. eigenvalues --    2.01721   2.01841   2.02728   2.02786   2.03156
 Alpha virt. eigenvalues --    2.03231   2.03398   2.03406   2.03484   2.03537
 Alpha virt. eigenvalues --    2.04035   2.04042   2.04960   2.04999   2.05516
 Alpha virt. eigenvalues --    2.05653   2.06083   2.06308   2.06904   2.07047
 Alpha virt. eigenvalues --    2.07178   2.07361   2.08581   2.08593   2.08983
 Alpha virt. eigenvalues --    2.09021   2.09592   2.09631   2.10767   2.11045
 Alpha virt. eigenvalues --    2.11181   2.11425   2.11540   2.11547   2.11730
 Alpha virt. eigenvalues --    2.11892   2.12465   2.12483   2.12806   2.12821
 Alpha virt. eigenvalues --    2.12831   2.12886   2.13651   2.13771   2.14131
 Alpha virt. eigenvalues --    2.14268   2.15336   2.15425   2.15925   2.16099
 Alpha virt. eigenvalues --    2.16518   2.16612   2.16750   2.17185   2.17414
 Alpha virt. eigenvalues --    2.17667   2.17704   2.17953   2.18015   2.18059
 Alpha virt. eigenvalues --    2.18328   2.18688   2.18869   2.19248   2.19641
 Alpha virt. eigenvalues --    2.19836   2.20041   2.20205   2.20253   2.20458
 Alpha virt. eigenvalues --    2.21140   2.21184   2.21671   2.21740   2.21779
 Alpha virt. eigenvalues --    2.21888   2.22677   2.22721   2.23304   2.23352
 Alpha virt. eigenvalues --    2.24392   2.24428   2.24946   2.25022   2.26298
 Alpha virt. eigenvalues --    2.26456   2.26776   2.27023   2.27100   2.27216
 Alpha virt. eigenvalues --    2.28137   2.28335   2.29266   2.29456   2.29734
 Alpha virt. eigenvalues --    2.29896   2.30455   2.30635   2.30834   2.31077
 Alpha virt. eigenvalues --    2.31181   2.31211   2.32118   2.32257   2.33135
 Alpha virt. eigenvalues --    2.33252   2.33454   2.33492   2.34130   2.34150
 Alpha virt. eigenvalues --    2.35306   2.35368   2.35798   2.35930   2.36341
 Alpha virt. eigenvalues --    2.36353   2.36456   2.36624   2.37644   2.37682
 Alpha virt. eigenvalues --    2.38260   2.38402   2.38799   2.38859   2.39610
 Alpha virt. eigenvalues --    2.39681   2.40171   2.40272   2.40484   2.40841
 Alpha virt. eigenvalues --    2.41222   2.41267   2.41676   2.41700   2.42036
 Alpha virt. eigenvalues --    2.42136   2.42831   2.42934   2.43063   2.43534
 Alpha virt. eigenvalues --    2.43993   2.44172   2.44730   2.44820   2.44901
 Alpha virt. eigenvalues --    2.44998   2.45539   2.45581   2.46303   2.46305
 Alpha virt. eigenvalues --    2.46473   2.46507   2.46798   2.46807   2.47243
 Alpha virt. eigenvalues --    2.47379   2.47708   2.47895   2.49307   2.49406
 Alpha virt. eigenvalues --    2.49891   2.50054   2.50469   2.50540   2.51117
 Alpha virt. eigenvalues --    2.51272   2.51624   2.51885   2.52399   2.52437
 Alpha virt. eigenvalues --    2.52806   2.53174   2.53913   2.53980   2.54156
 Alpha virt. eigenvalues --    2.54299   2.54779   2.54807   2.55518   2.55673
 Alpha virt. eigenvalues --    2.57864   2.58089   2.58638   2.58911   2.60202
 Alpha virt. eigenvalues --    2.60302   2.60611   2.60931   2.61708   2.61829
 Alpha virt. eigenvalues --    2.62434   2.62529   2.62948   2.63126   2.63934
 Alpha virt. eigenvalues --    2.64228   2.64228   2.64421   2.65070   2.65099
 Alpha virt. eigenvalues --    2.65786   2.65863   2.66763   2.66816   2.66905
 Alpha virt. eigenvalues --    2.67063   2.67899   2.67981   2.68819   2.68853
 Alpha virt. eigenvalues --    2.69019   2.69028   2.69374   2.69590   2.69986
 Alpha virt. eigenvalues --    2.70132   2.70971   2.71064   2.71888   2.72048
 Alpha virt. eigenvalues --    2.72483   2.72647   2.72728   2.72824   2.73259
 Alpha virt. eigenvalues --    2.73279   2.73453   2.73525   2.74500   2.74501
 Alpha virt. eigenvalues --    2.74968   2.75050   2.76512   2.76579   2.77058
 Alpha virt. eigenvalues --    2.77224   2.77456   2.77608   2.78196   2.78301
 Alpha virt. eigenvalues --    2.78683   2.78722   2.79129   2.79151   2.80270
 Alpha virt. eigenvalues --    2.80346   2.80585   2.80679   2.81106   2.81142
 Alpha virt. eigenvalues --    2.81929   2.81980   2.82324   2.82331   2.83745
 Alpha virt. eigenvalues --    2.83769   2.83848   2.83890   2.84517   2.84535
 Alpha virt. eigenvalues --    2.84870   2.84873   2.85666   2.85688   2.86643
 Alpha virt. eigenvalues --    2.86987   2.87154   2.87601   2.88159   2.88239
 Alpha virt. eigenvalues --    2.88492   2.88596   2.88860   2.88925   2.90487
 Alpha virt. eigenvalues --    2.90644   2.91055   2.91174   2.93150   2.93313
 Alpha virt. eigenvalues --    2.93759   2.94191   2.94551   2.94563   2.95365
 Alpha virt. eigenvalues --    2.95463   2.95816   2.96194   2.96357   2.96425
 Alpha virt. eigenvalues --    2.96848   2.97170   2.97814   2.98029   2.98211
 Alpha virt. eigenvalues --    2.98343   2.98349   2.98563   2.98588   2.98757
 Alpha virt. eigenvalues --    2.98878   2.98909   2.99572   2.99787   2.99997
 Alpha virt. eigenvalues --    3.00030   3.00216   3.00332   3.00456   3.00982
 Alpha virt. eigenvalues --    3.01884   3.01970   3.02038   3.02110   3.02735
 Alpha virt. eigenvalues --    3.02810   3.02972   3.03318   3.03329   3.03697
 Alpha virt. eigenvalues --    3.04038   3.04150   3.04412   3.04431   3.04530
 Alpha virt. eigenvalues --    3.04698   3.05290   3.05348   3.06108   3.06152
 Alpha virt. eigenvalues --    3.06801   3.06926   3.07918   3.08143   3.09346
 Alpha virt. eigenvalues --    3.09401   3.09692   3.10418   3.10439   3.10729
 Alpha virt. eigenvalues --    3.11322   3.11465   3.11869   3.11941   3.12147
 Alpha virt. eigenvalues --    3.12291   3.13279   3.13629   3.13635   3.13675
 Alpha virt. eigenvalues --    3.14089   3.14450   3.15897   3.15959   3.17254
 Alpha virt. eigenvalues --    3.17502   3.17874   3.18081   3.19022   3.19124
 Alpha virt. eigenvalues --    3.22300   3.22573   3.23941   3.24423   3.24666
 Alpha virt. eigenvalues --    3.25172   3.26497   3.26642   3.27380   3.27615
 Alpha virt. eigenvalues --    3.29096   3.29196   3.31365   3.31520   3.33173
 Alpha virt. eigenvalues --    3.33413   3.40231   3.40628   3.42814   3.42823
 Alpha virt. eigenvalues --    3.48652   3.48680   3.50017   3.50269   3.50825
 Alpha virt. eigenvalues --    3.51472   3.56548   3.56993   3.59093   3.59326
 Alpha virt. eigenvalues --    3.62500   3.62832   3.66114   3.66198   3.67183
 Alpha virt. eigenvalues --    3.67515   3.73266   3.73995   3.76050   3.76654
          Condensed to atoms (all electrons):
 Mulliken charges:
               1
     1  Mg   0.838640
     2  C   -0.002933
     3  C   -0.094025
     4  C   -0.045848
     5  C   -0.064083
     6  N   -0.256773
     7  C   -0.052511
     8  C   -0.013995
     9  C   -0.087027
    10  C    0.046354
    11  C    0.104785
    12  C    0.053456
    13  C   -0.071883
    14  H    0.036236
    15  N   -0.433194
    16  C    0.168473
    17  C   -0.177028
    18  C   -0.003875
    19  C    0.148719
    20  C    0.110141
    21  C    0.012385
    22  O   -0.249471
    23  C    0.062416
    24  N   -0.341119
    25  C    0.041214
    26  C   -0.028215
    27  C   -0.023920
    28  C    0.074755
    29  C    0.076131
    30  C    0.035180
    31  C   -0.004448
    32  N   -0.310425
    33  C    0.080277
    34  C   -0.169987
    35  C    0.008319
    36  C    0.082829
    37  C    0.127380
    38  C    0.045976
    39  O   -0.188579
    40  C   -0.005265
    41  C    0.212849
    42  O   -0.257212
    43  O   -0.304761
    44  C    0.157665
    45  H   -0.017447
    46  H   -0.016722
    47  H   -0.041741
    48  H    0.000981
    49  H   -0.003934
    50  H    0.025493
    51  H    0.016467
    52  H    0.016781
    53  H    0.011196
    54  H    0.044068
    55  H    0.017920
    56  H    0.018008
    57  H    0.005929
    58  H    0.027004
    59  H    0.039763
    60  H    0.037382
    61  H    0.036021
    62  H    0.031615
    63  H    0.016565
    64  H    0.009468
    65  H    0.023320
    66  H    0.012677
    67  H    0.004745
    68  H    0.006367
    69  H    0.004479
    70  H    0.008962
    71  H    0.017406
    72  H    0.029054
    73  H    0.047260
    74  H    0.008850
    75  H    0.046070
    76  H    0.035212
    77  H    0.042989
    78  H    0.046500
    79  H    0.053688
    80  Mg   0.837972
    81  C   -0.016818
    82  C   -0.087590
    83  C   -0.045269
    84  C   -0.064964
    85  N   -0.254572
    86  C   -0.049845
    87  C   -0.015116
    88  C   -0.090515
    89  C    0.045756
    90  C    0.114260
    91  C    0.062528
    92  C   -0.077811
    93  H    0.034657
    94  N   -0.423591
    95  C    0.162964
    96  C   -0.174162
    97  C   -0.007627
    98  C    0.152220
    99  C    0.099153
   100  C    0.015752
   101  O   -0.253140
   102  C    0.061166
   103  N   -0.350016
   104  C    0.037632
   105  C   -0.019901
   106  C   -0.034663
   107  C    0.088880
   108  C    0.073579
   109  C    0.034764
   110  C   -0.007627
   111  N   -0.324047
   112  C    0.078351
   113  C   -0.163339
   114  C    0.002158
   115  C    0.096097
   116  C    0.131505
   117  C    0.042265
   118  O   -0.188183
   119  C    0.000946
   120  C    0.211222
   121  O   -0.251126
   122  O   -0.305587
   123  C    0.152083
   124  H   -0.019229
   125  H   -0.015473
   126  H   -0.040825
   127  H   -0.000685
   128  H   -0.004351
   129  H    0.022465
   130  H    0.014975
   131  H    0.016392
   132  H    0.013900
   133  H    0.037566
   134  H    0.020782
   135  H    0.019612
   136  H    0.008901
   137  H    0.026890
   138  H    0.039716
   139  H    0.038727
   140  H    0.036380
   141  H    0.033708
   142  H    0.014277
   143  H    0.012154
   144  H    0.025023
   145  H    0.012368
   146  H    0.005421
   147  H    0.006052
   148  H    0.003374
   149  H    0.010934
   150  H    0.017704
   151  H    0.030222
   152  H    0.045789
   153  H    0.008241
   154  H    0.046729
   155  H    0.035086
   156  H    0.043802
   157  H    0.049502
   158  H    0.053472
 Sum of Mulliken charges =  -0.00000
 Mulliken charges with hydrogens summed into heavy atoms:
               1
     1  Mg   0.838640
     2  C   -0.002933
     3  C   -0.111472
     4  C   -0.062570
     5  C   -0.105824
     6  N   -0.256773
     7  C   -0.052511
     8  C   -0.013014
     9  C   -0.090961
    10  C    0.046354
    11  C    0.163526
    12  C    0.108720
    13  C    0.000281
    15  N   -0.433194
    16  C    0.168473
    17  C   -0.177028
    18  C   -0.003875
    19  C    0.148719
    20  C    0.182836
    21  C    0.012385
    22  O   -0.249471
    23  C    0.167435
    24  N   -0.341119
    25  C    0.041214
    26  C   -0.011650
    27  C   -0.014452
    28  C    0.074755
    29  C    0.116873
    30  C    0.046026
    31  C    0.050974
    32  N   -0.310425
    33  C    0.080277
    34  C   -0.169987
    35  C    0.008319
    36  C    0.082829
    37  C    0.229561
    38  C    0.045976
    39  O   -0.188579
    40  C    0.029946
    41  C    0.212849
    42  O   -0.257212
    43  O   -0.304761
    44  C    0.300842
    80  Mg   0.837972
    81  C   -0.016818
    82  C   -0.106820
    83  C   -0.060742
    84  C   -0.105789
    85  N   -0.254572
    86  C   -0.049845
    87  C   -0.015802
    88  C   -0.094866
    89  C    0.045756
    90  C    0.168091
    91  C    0.113994
    92  C   -0.002761
    94  N   -0.423591
    95  C    0.162964
    96  C   -0.174162
    97  C   -0.007627
    98  C    0.152220
    99  C    0.174660
   100  C    0.015752
   101  O   -0.253140
   102  C    0.169981
   103  N   -0.350016
   104  C    0.037632
   105  C   -0.005624
   106  C   -0.022509
   107  C    0.088880
   108  C    0.116392
   109  C    0.044191
   110  C    0.051232
   111  N   -0.324047
   112  C    0.078351
   113  C   -0.163339
   114  C    0.002158
   115  C    0.096097
   116  C    0.232263
   117  C    0.042265
   118  O   -0.188183
   119  C    0.036032
   120  C    0.211222
   121  O   -0.251126
   122  O   -0.305587
   123  C    0.298859
 Electronic spatial extent (au):  <R**2>=         194036.0644
 Charge=             -0.0000 electrons
 Dipole moment (field-independent basis, Debye):
    X=              4.1143    Y=              0.2618    Z=              0.3209  Tot=              4.1351
 Quadrupole moment (field-independent basis, Debye-Ang):
   XX=           -521.2048   YY=           -549.1909   ZZ=           -448.6066
   XY=            -23.4652   XZ=             68.9231   YZ=             45.0287
 Traceless Quadrupole moment (field-independent basis, Debye-Ang):
   XX=            -14.8707   YY=            -42.8568   ZZ=             57.7275
   XY=            -23.4652   XZ=             68.9231   YZ=             45.0287
 Octapole moment (field-independent basis, Debye-Ang**2):
  XXX=            829.1585  YYY=             69.8110  ZZZ=             77.9732  XYY=             66.8979
  XXY=            116.0354  XXZ=             29.9616  XZZ=            -75.4752  YZZ=            -38.8139
  YYZ=            -93.8765  XYZ=             67.9608
 Hexadecapole moment (field-independent basis, Debye-Ang**3):
 XXXX=        -202221.6494 YYYY=         -42401.3766 ZZZZ=         -24013.4313 XXXY=          -1600.4517
 XXXZ=           5595.0882 YYYX=           3197.2909 YYYZ=           1327.6856 ZZZX=            686.6080
 ZZZY=           -191.0147 XXYY=         -41755.2158 XXZZ=         -33708.3605 YYZZ=         -10760.0846
 XXYZ=           3252.0578 YYXZ=           1788.4040 ZZXY=          -1669.6971
 N-N= 1.373025867379D+04 E-N=-3.694143731865D+04  KE= 4.028801872617D+03
 Leave Link  601 at Sat Sep  4 12:51:01 2021, MaxMem= 23488102400 cpu:              13.1 elap:               0.7
 (Enter /sw/apps/gaussian-16.0/g16/l9999.exe)
 1\1\GINC-BP1-COMPUTE00136\SP\RCAM-B3LYP TD-FC\def2SVP\C68H72Mg2N8O8\OF
 15641\04-Sep-2021\0\\#p cam-b3lyp/Def2SVP td=(nstates=5)\\TDDFT excite
 d states in gaussian\\0,1\Mg,0,0.,0.,0.\C,0,-0.217,-2.218,2.801\C,0,-1
 .255,2.442,2.026\C,0,-0.245,1.85,-2.564\C,0,0.146,-2.824,-2.037\N,0,-0
 .617,-0.009,2.126\C,0,-0.594,-0.908,3.105\C,0,-0.936,-0.309,4.502\C,0,
 -1.773,0.964,4.032\C,0,-1.155,1.168,2.66\C,0,-3.263,0.685,3.863\C,0,0.
 345,0.11,5.299\C,0,0.124,0.397,6.787\H,0,1.168,0.033,7.733\N,0,-0.185,
 1.961,-0.152\C,0,-0.703,2.8,0.777\C,0,-0.62,4.156,0.193\C,0,-0.187,4.0
 15,-1.225\C,0,-0.214,2.583,-1.38\C,0,-0.887,5.406,0.974\C,0,0.181,5.01
 3,-2.277\O,0,0.303,4.69,-3.508\C,0,0.31,6.414,-1.837\N,0,-0.265,-0.413
 ,-2.029\C,0,-0.279,0.569,-2.937\C,0,-0.196,0.024,-4.332\C,0,0.124,-1.5
 33,-4.18\C,0,0.086,-1.632,-2.635\C,0,-1.451,0.205,-5.197\C,0,1.373,-2.
 07,-4.923\C,0,2.626,-1.49,-4.306\N,0,0.15,-2.144,0.303\C,0,0.173,-3.13
 6,-0.688\C,0,0.173,-4.438,0.004\C,0,0.133,-4.111,1.358\C,0,0.083,-2.69
 5,1.502\C,0,0.149,-5.715,-0.623\C,0,0.096,-4.629,2.716\O,0,0.208,-5.74
 7,3.221\C,0,-0.255,-3.428,3.701\C,0,0.717,-3.482,4.848\O,0,1.931,-3.25
 5,4.669\O,0,0.038,-3.556,6.003\C,0,0.943,-3.583,7.183\H,0,-1.859,3.22,
 2.497\H,0,-0.218,2.453,-3.474\H,0,0.276,-3.747,-2.605\H,0,-1.554,-0.94
 9,5.132\H,0,-1.585,1.831,4.665\H,0,-3.484,-0.377,3.969\H,0,-3.511,1.02
 7,2.858\H,0,-3.852,1.301,4.543\H,0,0.669,1.096,4.966\H,0,1.13,-0.639,5
 .189\H,0,-0.844,0.026,7.125\H,0,0.062,1.477,6.921\H,0,-1.344,5.186,1.9
 38\H,0,-1.651,5.963,0.432\H,0,0.007,6.02,1.084\H,0,-0.635,6.744,-1.405
 \H,0,0.665,6.97,-2.704\H,0,1.048,6.466,-1.036\H,0,0.608,0.501,-4.891\H
 ,0,-0.692,-2.156,-4.547\H,0,-1.267,0.74,-6.129\H,0,-2.204,0.714,-4.596
 \H,0,-1.967,-0.72,-5.453\H,0,1.356,-1.759,-5.967\H,0,1.452,-3.157,-4.9
 02\H,0,2.714,-0.522,-4.798\H,0,3.487,-2.121,-4.529\H,0,2.495,-1.303,-3
 .24\H,0,0.867,-6.333,-0.084\H,0,0.404,-5.642,-1.68\H,0,-0.891,-5.999,-
 0.463\H,0,-1.283,-3.581,4.028\H,0,0.698,-4.478,7.755\H,0,0.833,-2.619,
 7.68\H,0,2.,-3.754,6.976\Mg,0,15.77438,1.41448,1.19292\C,0,15.67763,2.
 92793,-2.05964\C,0,15.27869,-1.58562,-0.35249\C,0,15.40491,0.11024,4.0
 617\C,0,15.12013,4.56707,2.52665\N,0,15.52618,0.87011,-0.93647\C,0,15.
 56899,1.52194,-2.0887\C,0,15.57179,0.60923,-3.34429\C,0,14.8746,-0.686
 6,-2.70116\C,0,15.27659,-0.48161,-1.24203\C,0,13.35764,-0.6589,-2.7870
 8\C,0,17.02314,0.29018,-3.84808\C,0,17.0967,-0.33641,-5.24226\H,0,18.2
 195,0.01777,-6.10618\N,0,15.88545,-0.48256,1.76518\C,0,15.67653,-1.576
 14,1.00249\C,0,15.85824,-2.73055,1.89606\C,0,16.02926,-2.22584,3.28557
 \C,0,15.75302,-0.81674,3.09006\C,0,15.93718,-4.14324,1.39457\C,0,16.37
 072,-2.90186,4.57886\O,0,16.23252,-2.30782,5.70617\C,0,16.78274,-4.310
 56,4.49345\N,0,15.11924,2.17478,3.01366\C,0,15.10466,1.40792,4.11803\C
 ,0,14.86101,2.23832,5.35556\C,0,14.95604,3.76121,4.87664\C,0,15.15856,
 3.53795,3.36187\C,0,13.52307,2.00856,6.05807\C,0,15.96148,4.67448,5.63
 01\C,0,17.37764,4.23035,5.34263\N,0,15.63567,3.42957,0.42596\C,0,15.32
 639,4.59971,1.15341\C,0,15.23607,5.70676,0.17939\C,0,15.47828,5.0948,-
 1.05969\C,0,15.68368,3.70102,-0.87345\C,0,14.91475,7.05938,0.48482\C,0
 ,15.5964,5.30917,-2.48405\O,0,15.60521,6.29813,-3.2159\C,0,15.60551,3.
 89465,-3.20893\C,0,16.73568,3.88864,-4.2015\O,0,17.91618,3.95252,-3.81
 555\O,0,16.25002,3.59083,-5.42044\C,0,17.33496,3.56198,-6.43725\H,0,14
 .9003,-2.54273,-0.71255\H,0,15.37335,-0.26926,5.08564\H,0,15.01668,5.5
 9727,2.87402\H,0,14.98005,0.9765,-4.17418\H,0,15.30905,-1.6034,-3.0911
 6\H,0,12.99252,0.28574,-3.16191\H,0,13.00275,-0.82855,-1.77895\H,0,12.
 99811,-1.5051,-3.37955\H,0,17.43692,-0.53221,-3.25042\H,0,17.63999,1.1
 6704,-3.813\H,0,16.14894,-0.24363,-5.7864\H,0,17.23761,-1.4143,-5.1312
 8\H,0,15.61237,-4.21781,0.34942\H,0,15.19329,-4.72253,1.95217\H,0,16.9
 2147,-4.59055,1.54873\H,0,15.98938,-4.89134,4.02899\H,0,17.07123,-4.59
 268,5.50787\H,0,17.65313,-4.38098,3.83157\H,0,15.62579,2.05582,6.10048
 \H,0,13.99574,4.28512,4.99145\H,0,13.632,1.71531,7.1193\H,0,12.97461,1
 .25436,5.50952\H,0,12.83824,2.85455,6.03529\H,0,15.82061,4.58284,6.709
 88\H,0,15.86131,5.72546,5.38031\H,0,17.52946,3.41359,6.05463\H,0,18.07
 784,5.04411,5.52028\H,0,17.46075,3.80839,4.33432\H,0,15.59816,7.6774,-
 0.08218\H,0,14.99261,7.25524,1.55223\H,0,13.87969,7.09777,0.13488\H,0,
 14.63584,3.76778,-3.69186\H,0,17.04694,4.25751,-7.23159\H,0,17.45354,2
 .49843,-6.71751\H,0,18.30193,3.95794,-6.14978\\Version=ES64L-G16RevA.0
 3\State=1-A\HF=-4069.8118118\RMSD=6.521e-09\PG=C01 [X(C68H72Mg2N8O8)]\
 \@


 ...THOSE SCIENCES ARE VAIN AND FULL OF ERRORS WHICH 
 ARE NOT BORN FROM EXPERIMENT, THE MOTHER OF CERTAINTY...

                          -- LEONARDO DA VINCI, 1452-1519
 Job cpu time:       0 days 10 hours 51 minutes 28.7 seconds.
 Elapsed time:       0 days  0 hours 27 minutes 44.5 seconds.
 File lengths (MBytes):  RWF=  13225 Int=      0 D2E=      0 Chk=    574 Scr=      1
 Normal termination of Gaussian 16 at Sat Sep  4 12:51:02 2021.
