 Entering Gaussian System, Link 0=g16
 Initial command:
 /sw/apps/gaussian-16.0/g16/l1.exe "/tmp/Gau-218798.inp" -scrdir="/tmp/"
 Entering Link 1 = /sw/apps/gaussian-16.0/g16/l1.exe PID=    218799.
  
 Copyright (c) 1988,1990,1992,1993,1995,1998,2003,2009,2016,
            Gaussian, Inc.  All Rights Reserved.
  
 This is part of the Gaussian(R) 16 program.  It is based on
 the Gaussian(R) 09 system (copyright 2009, Gaussian, Inc.),
 the Gaussian(R) 03 system (copyright 2003, Gaussian, Inc.),
 the Gaussian(R) 98 system (copyright 1998, Gaussian, Inc.),
 the Gaussian(R) 94 system (copyright 1995, Gaussian, Inc.),
 the Gaussian 92(TM) system (copyright 1992, Gaussian, Inc.),
 the Gaussian 90(TM) system (copyright 1990, Gaussian, Inc.),
 the Gaussian 88(TM) system (copyright 1988, Gaussian, Inc.),
 the Gaussian 86(TM) system (copyright 1986, Carnegie Mellon
 University), and the Gaussian 82(TM) system (copyright 1983,
 Carnegie Mellon University). Gaussian is a federally registered
 trademark of Gaussian, Inc.
  
 This software contains proprietary and confidential information,
 including trade secrets, belonging to Gaussian, Inc.
  
 This software is provided under written license and may be
 used, copied, transmitted, or stored only in accord with that
 written license.
  
 The following legend is applicable only to US Government
 contracts under FAR:
  
                    RESTRICTED RIGHTS LEGEND
  
 Use, reproduction and disclosure by the US Government is
 subject to restrictions as set forth in subparagraphs (a)
 and (c) of the Commercial Computer Software - Restricted
 Rights clause in FAR 52.227-19.
  
 Gaussian, Inc.
 340 Quinnipiac St., Bldg. 40, Wallingford CT 06492
  
  
 ---------------------------------------------------------------
 Warning -- This program may not be used in any manner that
 competes with the business of Gaussian, Inc. or will provide
 assistance to any competitor of Gaussian, Inc.  The licensee
 of this program is prohibited from giving any competitor of
 Gaussian, Inc. access to this program.  By using this program,
 the user acknowledges that Gaussian, Inc. is engaged in the
 business of creating and licensing software in the field of
 computational chemistry and represents and warrants to the
 licensee that it is not a competitor of Gaussian, Inc. and that
 it will not use this program in any manner prohibited above.
 ---------------------------------------------------------------
  

 Cite this work as:
 Gaussian 16, Revision A.03,
 M. J. Frisch, G. W. Trucks, H. B. Schlegel, G. E. Scuseria, 
 M. A. Robb, J. R. Cheeseman, G. Scalmani, V. Barone, 
 G. A. Petersson, H. Nakatsuji, X. Li, M. Caricato, A. V. Marenich, 
 J. Bloino, B. G. Janesko, R. Gomperts, B. Mennucci, H. P. Hratchian, 
 J. V. Ortiz, A. F. Izmaylov, J. L. Sonnenberg, D. Williams-Young, 
 F. Ding, F. Lipparini, F. Egidi, J. Goings, B. Peng, A. Petrone, 
 T. Henderson, D. Ranasinghe, V. G. Zakrzewski, J. Gao, N. Rega, 
 G. Zheng, W. Liang, M. Hada, M. Ehara, K. Toyota, R. Fukuda, 
 J. Hasegawa, M. Ishida, T. Nakajima, Y. Honda, O. Kitao, H. Nakai, 
 T. Vreven, K. Throssell, J. A. Montgomery, Jr., J. E. Peralta, 
 F. Ogliaro, M. J. Bearpark, J. J. Heyd, E. N. Brothers, K. N. Kudin, 
 V. N. Staroverov, T. A. Keith, R. Kobayashi, J. Normand, 
 K. Raghavachari, A. P. Rendell, J. C. Burant, S. S. Iyengar, 
 J. Tomasi, M. Cossi, J. M. Millam, M. Klene, C. Adamo, R. Cammi, 
 J. W. Ochterski, R. L. Martin, K. Morokuma, O. Farkas, 
 J. B. Foresman, and D. J. Fox, Gaussian, Inc., Wallingford CT, 2016.
 
 ******************************************
 Gaussian 16:  ES64L-G16RevA.03 25-Dec-2016
                 9-Sep-2021 
 ******************************************
 %nproc=24
 Will use up to   24 processors via shared memory.
 %mem=175gb
 -----------------------------------
 #p cam-b3lyp/Def2SVP td=(nstates=5)
 -----------------------------------
 1/38=1,172=1/1;
 2/12=2,17=6,18=5,40=1/2;
 3/5=43,7=101,11=9,25=1,30=1,74=-40/1,2,3,8;
 4//1;
 5/5=2,38=5/2;
 8/6=1,10=1,108=5/1;
 9/41=5,42=1,70=2/14;
 6/7=2,8=2,9=2,10=2/1;
 99/5=1,9=1/99;
 Leave Link    1 at Thu Sep  9 02:38:32 2021, MaxMem= 23488102400 cpu:               0.5 elap:               0.0
 (Enter /sw/apps/gaussian-16.0/g16/l101.exe)
 --------------------------------
 TDDFT excited states in gaussian
 --------------------------------
 Symbolic Z-matrix:
 Charge =  0 Multiplicity = 1
 Mg                    0.        0.        0. 
 C                    -0.217    -2.218     2.801 
 C                    -1.255     2.442     2.026 
 C                    -0.245     1.85     -2.564 
 C                     0.146    -2.824    -2.037 
 N                    -0.617    -0.009     2.126 
 C                    -0.594    -0.908     3.105 
 C                    -0.936    -0.309     4.502 
 C                    -1.773     0.964     4.032 
 C                    -1.155     1.168     2.66 
 C                    -3.263     0.685     3.863 
 C                     0.345     0.11      5.299 
 C                     0.124     0.397     6.787 
 H                     1.168     0.033     7.733 
 N                    -0.185     1.961    -0.152 
 C                    -0.703     2.8       0.777 
 C                    -0.62      4.156     0.193 
 C                    -0.187     4.015    -1.225 
 C                    -0.214     2.583    -1.38 
 C                    -0.887     5.406     0.974 
 C                     0.181     5.013    -2.277 
 O                     0.303     4.69     -3.508 
 C                     0.31      6.414    -1.837 
 N                    -0.265    -0.413    -2.029 
 C                    -0.279     0.569    -2.937 
 C                    -0.196     0.024    -4.332 
 C                     0.124    -1.533    -4.18 
 C                     0.086    -1.632    -2.635 
 C                    -1.451     0.205    -5.197 
 C                     1.373    -2.07     -4.923 
 C                     2.626    -1.49     -4.306 
 N                     0.15     -2.144     0.303 
 C                     0.173    -3.136    -0.688 
 C                     0.173    -4.438     0.004 
 C                     0.133    -4.111     1.358 
 C                     0.083    -2.695     1.502 
 C                     0.149    -5.715    -0.623 
 C                     0.096    -4.629     2.716 
 O                     0.208    -5.747     3.221 
 C                    -0.255    -3.428     3.701 
 C                     0.717    -3.482     4.848 
 O                     1.931    -3.255     4.669 
 O                     0.038    -3.556     6.003 
 C                     0.943    -3.583     7.183 
 H                    -1.859     3.22      2.497 
 H                    -0.218     2.453    -3.474 
 H                     0.276    -3.747    -2.605 
 H                    -1.554    -0.949     5.132 
 H                    -1.585     1.831     4.665 
 H                    -3.484    -0.377     3.969 
 H                    -3.511     1.027     2.858 
 H                    -3.852     1.301     4.543 
 H                     0.669     1.096     4.966 
 H                     1.13     -0.639     5.189 
 H                    -0.844     0.026     7.125 
 H                     0.062     1.477     6.921 
 H                    -1.344     5.186     1.938 
 H                    -1.651     5.963     0.432 
 H                     0.007     6.02      1.084 
 H                    -0.635     6.744    -1.405 
 H                     0.665     6.97     -2.704 
 H                     1.048     6.466    -1.036 
 H                     0.608     0.501    -4.891 
 H                    -0.692    -2.156    -4.547 
 H                    -1.267     0.74     -6.129 
 H                    -2.204     0.714    -4.596 
 H                    -1.967    -0.72     -5.453 
 H                     1.356    -1.759    -5.967 
 H                     1.452    -3.157    -4.902 
 H                     2.714    -0.522    -4.798 
 H                     3.487    -2.121    -4.529 
 H                     2.495    -1.303    -3.24 
 H                     0.867    -6.333    -0.084 
 H                     0.404    -5.642    -1.68 
 H                    -0.891    -5.999    -0.463 
 H                    -1.283    -3.581     4.028 
 H                     0.698    -4.478     7.755 
 H                     0.833    -2.619     7.68 
 H                     2.       -3.754     6.976 
 Mg                    7.88971   0.71802   0.5986 
 C                     7.30819   2.13214   3.84531 
 C                     6.83941   3.68455  -0.71713 
 C                     7.96085  -0.64166  -2.26735 
 C                     7.78927  -2.42438   2.10225 
 N                     7.19026   2.59114   1.54434 
 C                     7.07001   3.0336    2.78697 
 C                     6.75014   4.54817   2.9023 
 C                     6.07541   4.76189   1.4608 
 C                     6.76623   3.63348   0.69784 
 C                     4.57883   4.49825   1.45178 
 C                     8.04342   5.42141   3.06632 
 C                     7.7919    6.86931   3.49305 
 H                     8.75563   7.50984   4.38379 
 N                     7.93728   1.53474  -1.20951 
 C                     7.48865   2.75774  -1.56203 
 C                     7.7336    2.8748   -3.00787 
 C                     8.21231   1.55845  -3.51062 
 C                     8.0316    0.74254  -2.32667 
 C                     7.58765   4.16813  -3.75581 
 C                     8.73299   1.1056   -4.84104 
 O                     8.86728  -0.13729  -5.12395 
 C                     8.99263   2.15665  -5.8357 
 N                     7.66656  -1.24969  -0.0344 
 C                     7.79489  -1.57719  -1.33217 
 C                     7.86851  -3.07472  -1.51213 
 C                     8.00659  -3.67836  -0.03764 
 C                     7.89427  -2.37379   0.78142 
 C                     6.67478  -3.71962  -2.21605 
 C                     9.21572  -4.61638   0.22843 
 C                     10.5048  -3.83002   0.15557 
 N                     7.78844  -0.03613   2.62074 
 C                     7.73074  -1.38789   3.02509 
 C                     7.55543  -1.39644   4.49194 
 C                     7.49977  -0.03821   4.83922 
 C                     7.61085   0.76027   3.66892 
 C                     7.42154  -2.5557    5.30699 
 C                     7.36164   0.90151   5.9285 
 O                     7.319     0.80988   7.15469 
 C                     7.10448   2.34694   5.31941 
 C                     8.01838   3.31521   6.01924 
 O                     9.25182   3.22962   5.8854 
 O                     7.28344   4.30852   6.55175 
 C                     8.14643   5.30013   7.24728 
 H                     6.31455   4.48772  -1.23513 
 H                     8.09203  -1.16171  -3.2191 
 H                     7.84735  -3.36333   2.65693 
 H                     6.04586   4.80545   3.68433 
 H                     6.34286   5.72712   1.03869 
 H                     4.23513   4.09482   2.39266 
 H                     4.40984   3.78931   0.65184 
 H                     4.03786   5.40594   1.16933 
 H                     8.48837   5.59156   2.07748 
 H                     8.73188   4.95866   3.74641 
 H                     6.76971   7.0188    3.86146 
 H                     7.85395   7.50759   2.60831 
 H                     7.06328   4.92251  -3.15635 
 H                     6.91533   3.97581  -4.59894 
 H                     8.53894   4.54191  -4.14051 
 H                     8.07603   2.7109   -6.02307 
 H                     9.44354   1.64644  -6.68908 
 H                     9.71019   2.86875  -5.41304 
 H                     8.74225  -3.35244  -2.0888 
 H                     7.13715  -4.29527   0.23316 
 H                     6.95816  -4.29391  -3.11825 
 H                     5.96583  -2.94197  -2.46743 
 H                     6.07718  -4.38527  -1.59559 
 H                     9.27665  -5.3847   -0.54625 
 H                     9.16449  -5.12646   1.18456 
 H                     10.71612  -3.80145  -0.91756 
 H                     11.29635  -4.3407    0.70027 
 H                     10.35493  -2.79678   0.48965 
 H                     8.03644  -2.39361   6.18227 
 H                     7.71973  -3.45472   4.77162 
 H                     6.34634  -2.53269   5.5037 
 H                     6.05285   2.58765   5.47977 
 H                     7.77532   5.38245   8.27353 
 H                     8.11299   6.21395   6.62473 
 H                     9.18218   5.03075   7.4179 
 
 ITRead=  0  0  0  0  0  0  0  0  0  0  0  0  0  0  0  0  0  0  0  0
 ITRead=  0  0  0  0  0  0  0  0  0  0  0  0  0  0  0  0  0  0  0  0
 ITRead=  0  0  0  0  0  0  0  0  0  0  0  0  0  0  0  0  0  0  0  0
 ITRead=  0  0  0  0  0  0  0  0  0  0  0  0  0  0  0  0  0  0  0  0
 ITRead=  0  0  0  0  0  0  0  0  0  0  0  0  0  0  0  0  0  0  0  0
 ITRead=  0  0  0  0  0  0  0  0  0  0  0  0  0  0  0  0  0  0  0  0
 ITRead=  0  0  0  0  0  0  0  0  0  0  0  0  0  0  0  0  0  0  0  0
 ITRead=  0  0  0  0  0  0  0  0  0  0  0  0  0  0  0  0  0  0
 MicOpt= -1 -1 -1 -1 -1 -1 -1 -1 -1 -1 -1 -1 -1 -1 -1 -1 -1 -1 -1 -1
 MicOpt= -1 -1 -1 -1 -1 -1 -1 -1 -1 -1 -1 -1 -1 -1 -1 -1 -1 -1 -1 -1
 MicOpt= -1 -1 -1 -1 -1 -1 -1 -1 -1 -1 -1 -1 -1 -1 -1 -1 -1 -1 -1 -1
 MicOpt= -1 -1 -1 -1 -1 -1 -1 -1 -1 -1 -1 -1 -1 -1 -1 -1 -1 -1 -1 -1
 MicOpt= -1 -1 -1 -1 -1 -1 -1 -1 -1 -1 -1 -1 -1 -1 -1 -1 -1 -1 -1 -1
 MicOpt= -1 -1 -1 -1 -1 -1 -1 -1 -1 -1 -1 -1 -1 -1 -1 -1 -1 -1 -1 -1
 MicOpt= -1 -1 -1 -1 -1 -1 -1 -1 -1 -1 -1 -1 -1 -1 -1 -1 -1 -1 -1 -1
 MicOpt= -1 -1 -1 -1 -1 -1 -1 -1 -1 -1 -1 -1 -1 -1 -1 -1 -1 -1
 NAtoms=    158 NQM=      158 NQMF=       0 NMMI=      0 NMMIF=      0
                NMic=       0 NMicF=      0.
                    Isotopes and Nuclear Properties:
 (Nuclear quadrupole moments (NQMom) in fm**2, nuclear magnetic moments (NMagM)
  in nuclear magnetons)

  Atom         1           2           3           4           5           6           7           8           9          10
 IAtWgt=          24          12          12          12          12          14          12          12          12          12
 AtmWgt=  23.9850450  12.0000000  12.0000000  12.0000000  12.0000000  14.0030740  12.0000000  12.0000000  12.0000000  12.0000000
 NucSpn=           0           0           0           0           0           2           0           0           0           0
 AtZEff=  -0.0000000  -0.0000000  -0.0000000  -0.0000000  -0.0000000  -0.0000000  -0.0000000  -0.0000000  -0.0000000  -0.0000000
 NQMom=    0.0000000   0.0000000   0.0000000   0.0000000   0.0000000   2.0440000   0.0000000   0.0000000   0.0000000   0.0000000
 NMagM=    0.0000000   0.0000000   0.0000000   0.0000000   0.0000000   0.4037610   0.0000000   0.0000000   0.0000000   0.0000000
 AtZNuc=  12.0000000   6.0000000   6.0000000   6.0000000   6.0000000   7.0000000   6.0000000   6.0000000   6.0000000   6.0000000

  Atom        11          12          13          14          15          16          17          18          19          20
 IAtWgt=          12          12          12           1          14          12          12          12          12          12
 AtmWgt=  12.0000000  12.0000000  12.0000000   1.0078250  14.0030740  12.0000000  12.0000000  12.0000000  12.0000000  12.0000000
 NucSpn=           0           0           0           1           2           0           0           0           0           0
 AtZEff=  -0.0000000  -0.0000000  -0.0000000  -0.0000000  -0.0000000  -0.0000000  -0.0000000  -0.0000000  -0.0000000  -0.0000000
 NQMom=    0.0000000   0.0000000   0.0000000   0.0000000   2.0440000   0.0000000   0.0000000   0.0000000   0.0000000   0.0000000
 NMagM=    0.0000000   0.0000000   0.0000000   2.7928460   0.4037610   0.0000000   0.0000000   0.0000000   0.0000000   0.0000000
 AtZNuc=   6.0000000   6.0000000   6.0000000   1.0000000   7.0000000   6.0000000   6.0000000   6.0000000   6.0000000   6.0000000

  Atom        21          22          23          24          25          26          27          28          29          30
 IAtWgt=          12          16          12          14          12          12          12          12          12          12
 AtmWgt=  12.0000000  15.9949146  12.0000000  14.0030740  12.0000000  12.0000000  12.0000000  12.0000000  12.0000000  12.0000000
 NucSpn=           0           0           0           2           0           0           0           0           0           0
 AtZEff=  -0.0000000  -0.0000000  -0.0000000  -0.0000000  -0.0000000  -0.0000000  -0.0000000  -0.0000000  -0.0000000  -0.0000000
 NQMom=    0.0000000   0.0000000   0.0000000   2.0440000   0.0000000   0.0000000   0.0000000   0.0000000   0.0000000   0.0000000
 NMagM=    0.0000000   0.0000000   0.0000000   0.4037610   0.0000000   0.0000000   0.0000000   0.0000000   0.0000000   0.0000000
 AtZNuc=   6.0000000   8.0000000   6.0000000   7.0000000   6.0000000   6.0000000   6.0000000   6.0000000   6.0000000   6.0000000

  Atom        31          32          33          34          35          36          37          38          39          40
 IAtWgt=          12          14          12          12          12          12          12          12          16          12
 AtmWgt=  12.0000000  14.0030740  12.0000000  12.0000000  12.0000000  12.0000000  12.0000000  12.0000000  15.9949146  12.0000000
 NucSpn=           0           2           0           0           0           0           0           0           0           0
 AtZEff=  -0.0000000  -0.0000000  -0.0000000  -0.0000000  -0.0000000  -0.0000000  -0.0000000  -0.0000000  -0.0000000  -0.0000000
 NQMom=    0.0000000   2.0440000   0.0000000   0.0000000   0.0000000   0.0000000   0.0000000   0.0000000   0.0000000   0.0000000
 NMagM=    0.0000000   0.4037610   0.0000000   0.0000000   0.0000000   0.0000000   0.0000000   0.0000000   0.0000000   0.0000000
 AtZNuc=   6.0000000   7.0000000   6.0000000   6.0000000   6.0000000   6.0000000   6.0000000   6.0000000   8.0000000   6.0000000

  Atom        41          42          43          44          45          46          47          48          49          50
 IAtWgt=          12          16          16          12           1           1           1           1           1           1
 AtmWgt=  12.0000000  15.9949146  15.9949146  12.0000000   1.0078250   1.0078250   1.0078250   1.0078250   1.0078250   1.0078250
 NucSpn=           0           0           0           0           1           1           1           1           1           1
 AtZEff=  -0.0000000  -0.0000000  -0.0000000  -0.0000000  -0.0000000  -0.0000000  -0.0000000  -0.0000000  -0.0000000  -0.0000000
 NQMom=    0.0000000   0.0000000   0.0000000   0.0000000   0.0000000   0.0000000   0.0000000   0.0000000   0.0000000   0.0000000
 NMagM=    0.0000000   0.0000000   0.0000000   0.0000000   2.7928460   2.7928460   2.7928460   2.7928460   2.7928460   2.7928460
 AtZNuc=   6.0000000   8.0000000   8.0000000   6.0000000   1.0000000   1.0000000   1.0000000   1.0000000   1.0000000   1.0000000

  Atom        51          52          53          54          55          56          57          58          59          60
 IAtWgt=           1           1           1           1           1           1           1           1           1           1
 AtmWgt=   1.0078250   1.0078250   1.0078250   1.0078250   1.0078250   1.0078250   1.0078250   1.0078250   1.0078250   1.0078250
 NucSpn=           1           1           1           1           1           1           1           1           1           1
 AtZEff=  -0.0000000  -0.0000000  -0.0000000  -0.0000000  -0.0000000  -0.0000000  -0.0000000  -0.0000000  -0.0000000  -0.0000000
 NQMom=    0.0000000   0.0000000   0.0000000   0.0000000   0.0000000   0.0000000   0.0000000   0.0000000   0.0000000   0.0000000
 NMagM=    2.7928460   2.7928460   2.7928460   2.7928460   2.7928460   2.7928460   2.7928460   2.7928460   2.7928460   2.7928460
 AtZNuc=   1.0000000   1.0000000   1.0000000   1.0000000   1.0000000   1.0000000   1.0000000   1.0000000   1.0000000   1.0000000

  Atom        61          62          63          64          65          66          67          68          69          70
 IAtWgt=           1           1           1           1           1           1           1           1           1           1
 AtmWgt=   1.0078250   1.0078250   1.0078250   1.0078250   1.0078250   1.0078250   1.0078250   1.0078250   1.0078250   1.0078250
 NucSpn=           1           1           1           1           1           1           1           1           1           1
 AtZEff=  -0.0000000  -0.0000000  -0.0000000  -0.0000000  -0.0000000  -0.0000000  -0.0000000  -0.0000000  -0.0000000  -0.0000000
 NQMom=    0.0000000   0.0000000   0.0000000   0.0000000   0.0000000   0.0000000   0.0000000   0.0000000   0.0000000   0.0000000
 NMagM=    2.7928460   2.7928460   2.7928460   2.7928460   2.7928460   2.7928460   2.7928460   2.7928460   2.7928460   2.7928460
 AtZNuc=   1.0000000   1.0000000   1.0000000   1.0000000   1.0000000   1.0000000   1.0000000   1.0000000   1.0000000   1.0000000

  Atom        71          72          73          74          75          76          77          78          79          80
 IAtWgt=           1           1           1           1           1           1           1           1           1          24
 AtmWgt=   1.0078250   1.0078250   1.0078250   1.0078250   1.0078250   1.0078250   1.0078250   1.0078250   1.0078250  23.9850450
 NucSpn=           1           1           1           1           1           1           1           1           1           0
 AtZEff=  -0.0000000  -0.0000000  -0.0000000  -0.0000000  -0.0000000  -0.0000000  -0.0000000  -0.0000000  -0.0000000  -0.0000000
 NQMom=    0.0000000   0.0000000   0.0000000   0.0000000   0.0000000   0.0000000   0.0000000   0.0000000   0.0000000   0.0000000
 NMagM=    2.7928460   2.7928460   2.7928460   2.7928460   2.7928460   2.7928460   2.7928460   2.7928460   2.7928460   0.0000000
 AtZNuc=   1.0000000   1.0000000   1.0000000   1.0000000   1.0000000   1.0000000   1.0000000   1.0000000   1.0000000  12.0000000

  Atom        81          82          83          84          85          86          87          88          89          90
 IAtWgt=          12          12          12          12          14          12          12          12          12          12
 AtmWgt=  12.0000000  12.0000000  12.0000000  12.0000000  14.0030740  12.0000000  12.0000000  12.0000000  12.0000000  12.0000000
 NucSpn=           0           0           0           0           2           0           0           0           0           0
 AtZEff=  -0.0000000  -0.0000000  -0.0000000  -0.0000000  -0.0000000  -0.0000000  -0.0000000  -0.0000000  -0.0000000  -0.0000000
 NQMom=    0.0000000   0.0000000   0.0000000   0.0000000   2.0440000   0.0000000   0.0000000   0.0000000   0.0000000   0.0000000
 NMagM=    0.0000000   0.0000000   0.0000000   0.0000000   0.4037610   0.0000000   0.0000000   0.0000000   0.0000000   0.0000000
 AtZNuc=   6.0000000   6.0000000   6.0000000   6.0000000   7.0000000   6.0000000   6.0000000   6.0000000   6.0000000   6.0000000

  Atom        91          92          93          94          95          96          97          98          99         100
 IAtWgt=          12          12           1          14          12          12          12          12          12          12
 AtmWgt=  12.0000000  12.0000000   1.0078250  14.0030740  12.0000000  12.0000000  12.0000000  12.0000000  12.0000000  12.0000000
 NucSpn=           0           0           1           2           0           0           0           0           0           0
 AtZEff=  -0.0000000  -0.0000000  -0.0000000  -0.0000000  -0.0000000  -0.0000000  -0.0000000  -0.0000000  -0.0000000  -0.0000000
 NQMom=    0.0000000   0.0000000   0.0000000   2.0440000   0.0000000   0.0000000   0.0000000   0.0000000   0.0000000   0.0000000
 NMagM=    0.0000000   0.0000000   2.7928460   0.4037610   0.0000000   0.0000000   0.0000000   0.0000000   0.0000000   0.0000000
 AtZNuc=   6.0000000   6.0000000   1.0000000   7.0000000   6.0000000   6.0000000   6.0000000   6.0000000   6.0000000   6.0000000

  Atom       101         102         103         104         105         106         107         108         109         110
 IAtWgt=          16          12          14          12          12          12          12          12          12          12
 AtmWgt=  15.9949146  12.0000000  14.0030740  12.0000000  12.0000000  12.0000000  12.0000000  12.0000000  12.0000000  12.0000000
 NucSpn=           0           0           2           0           0           0           0           0           0           0
 AtZEff=  -0.0000000  -0.0000000  -0.0000000  -0.0000000  -0.0000000  -0.0000000  -0.0000000  -0.0000000  -0.0000000  -0.0000000
 NQMom=    0.0000000   0.0000000   2.0440000   0.0000000   0.0000000   0.0000000   0.0000000   0.0000000   0.0000000   0.0000000
 NMagM=    0.0000000   0.0000000   0.4037610   0.0000000   0.0000000   0.0000000   0.0000000   0.0000000   0.0000000   0.0000000
 AtZNuc=   8.0000000   6.0000000   7.0000000   6.0000000   6.0000000   6.0000000   6.0000000   6.0000000   6.0000000   6.0000000

  Atom       111         112         113         114         115         116         117         118         119         120
 IAtWgt=          14          12          12          12          12          12          12          16          12          12
 AtmWgt=  14.0030740  12.0000000  12.0000000  12.0000000  12.0000000  12.0000000  12.0000000  15.9949146  12.0000000  12.0000000
 NucSpn=           2           0           0           0           0           0           0           0           0           0
 AtZEff=  -0.0000000  -0.0000000  -0.0000000  -0.0000000  -0.0000000  -0.0000000  -0.0000000  -0.0000000  -0.0000000  -0.0000000
 NQMom=    2.0440000   0.0000000   0.0000000   0.0000000   0.0000000   0.0000000   0.0000000   0.0000000   0.0000000   0.0000000
 NMagM=    0.4037610   0.0000000   0.0000000   0.0000000   0.0000000   0.0000000   0.0000000   0.0000000   0.0000000   0.0000000
 AtZNuc=   7.0000000   6.0000000   6.0000000   6.0000000   6.0000000   6.0000000   6.0000000   8.0000000   6.0000000   6.0000000

  Atom       121         122         123         124         125         126         127         128         129         130
 IAtWgt=          16          16          12           1           1           1           1           1           1           1
 AtmWgt=  15.9949146  15.9949146  12.0000000   1.0078250   1.0078250   1.0078250   1.0078250   1.0078250   1.0078250   1.0078250
 NucSpn=           0           0           0           1           1           1           1           1           1           1
 AtZEff=  -0.0000000  -0.0000000  -0.0000000  -0.0000000  -0.0000000  -0.0000000  -0.0000000  -0.0000000  -0.0000000  -0.0000000
 NQMom=    0.0000000   0.0000000   0.0000000   0.0000000   0.0000000   0.0000000   0.0000000   0.0000000   0.0000000   0.0000000
 NMagM=    0.0000000   0.0000000   0.0000000   2.7928460   2.7928460   2.7928460   2.7928460   2.7928460   2.7928460   2.7928460
 AtZNuc=   8.0000000   8.0000000   6.0000000   1.0000000   1.0000000   1.0000000   1.0000000   1.0000000   1.0000000   1.0000000

  Atom       131         132         133         134         135         136         137         138         139         140
 IAtWgt=           1           1           1           1           1           1           1           1           1           1
 AtmWgt=   1.0078250   1.0078250   1.0078250   1.0078250   1.0078250   1.0078250   1.0078250   1.0078250   1.0078250   1.0078250
 NucSpn=           1           1           1           1           1           1           1           1           1           1
 AtZEff=  -0.0000000  -0.0000000  -0.0000000  -0.0000000  -0.0000000  -0.0000000  -0.0000000  -0.0000000  -0.0000000  -0.0000000
 NQMom=    0.0000000   0.0000000   0.0000000   0.0000000   0.0000000   0.0000000   0.0000000   0.0000000   0.0000000   0.0000000
 NMagM=    2.7928460   2.7928460   2.7928460   2.7928460   2.7928460   2.7928460   2.7928460   2.7928460   2.7928460   2.7928460
 AtZNuc=   1.0000000   1.0000000   1.0000000   1.0000000   1.0000000   1.0000000   1.0000000   1.0000000   1.0000000   1.0000000

  Atom       141         142         143         144         145         146         147         148         149         150
 IAtWgt=           1           1           1           1           1           1           1           1           1           1
 AtmWgt=   1.0078250   1.0078250   1.0078250   1.0078250   1.0078250   1.0078250   1.0078250   1.0078250   1.0078250   1.0078250
 NucSpn=           1           1           1           1           1           1           1           1           1           1
 AtZEff=  -0.0000000  -0.0000000  -0.0000000  -0.0000000  -0.0000000  -0.0000000  -0.0000000  -0.0000000  -0.0000000  -0.0000000
 NQMom=    0.0000000   0.0000000   0.0000000   0.0000000   0.0000000   0.0000000   0.0000000   0.0000000   0.0000000   0.0000000
 NMagM=    2.7928460   2.7928460   2.7928460   2.7928460   2.7928460   2.7928460   2.7928460   2.7928460   2.7928460   2.7928460
 AtZNuc=   1.0000000   1.0000000   1.0000000   1.0000000   1.0000000   1.0000000   1.0000000   1.0000000   1.0000000   1.0000000

  Atom       151         152         153         154         155         156         157         158
 IAtWgt=           1           1           1           1           1           1           1           1
 AtmWgt=   1.0078250   1.0078250   1.0078250   1.0078250   1.0078250   1.0078250   1.0078250   1.0078250
 NucSpn=           1           1           1           1           1           1           1           1
 AtZEff=  -0.0000000  -0.0000000  -0.0000000  -0.0000000  -0.0000000  -0.0000000  -0.0000000  -0.0000000
 NQMom=    0.0000000   0.0000000   0.0000000   0.0000000   0.0000000   0.0000000   0.0000000   0.0000000
 NMagM=    2.7928460   2.7928460   2.7928460   2.7928460   2.7928460   2.7928460   2.7928460   2.7928460
 AtZNuc=   1.0000000   1.0000000   1.0000000   1.0000000   1.0000000   1.0000000   1.0000000   1.0000000
 Leave Link  101 at Thu Sep  9 02:38:32 2021, MaxMem= 23488102400 cpu:               3.8 elap:               0.2
 (Enter /sw/apps/gaussian-16.0/g16/l202.exe)
 Stoichiometry    C68H72Mg2N8O8
 Framework group  C1[X(C68H72Mg2N8O8)]
 Deg. of freedom   468
 Full point group                 C1      NOp   1
 Largest Abelian subgroup         C1      NOp   1
 Largest concise Abelian subgroup C1      NOp   1
                         Standard orientation:                         
 ---------------------------------------------------------------------
 Center     Atomic      Atomic             Coordinates (Angstroms)
 Number     Number       Type             X           Y           Z
 ---------------------------------------------------------------------
      1         12           0       -3.845396    0.591773    0.648773
      2          6           0       -4.355440   -2.392547   -1.260653
      3          6           0       -4.168340   -1.325153    3.453086
      4          6           0       -3.851788    3.269954    2.346985
      5          6           0       -4.688081    2.391293   -2.214315
      6          7           0       -4.211480   -1.573174    0.930969
      7          6           0       -4.328725   -2.617962    0.117432
      8          6           0       -4.344681   -3.984623    0.865334
      9          6           0       -4.850562   -3.484782    2.292303
     10          6           0       -4.350311   -2.052006    2.239165
     11          6           0       -6.369612   -3.469903    2.429304
     12          6           0       -2.920697   -4.629445    0.955928
     13          6           0       -2.895740   -6.101917    1.376116
     14          1           0       -1.894775   -6.980527    0.790059
     15          7           0       -3.507205    0.889994    2.572192
     16          6           0       -3.676387   -0.007389    3.572876
     17          6           0       -3.291796    0.692584    4.817387
     18          6           0       -3.066917    2.126178    4.482229
     19          6           0       -3.497302    2.158361    3.107779
     20          6           0       -3.125261   -0.001786    6.134151
     21          6           0       -2.556570    3.285704    5.277954
     22          8           0       -2.658598    4.491434    4.865184
     23          6           0       -2.006627    2.976889    6.610334
     24          7           0       -4.427104    2.548518    0.212428
     25          6           0       -4.271190    3.530524    1.107045
     26          6           0       -4.488165    4.877165    0.483012
     27          6           0       -4.587733    4.624358   -1.090496
     28          6           0       -4.486225    3.079055   -1.088124
     29          6           0       -5.731940    5.641756    0.956758
     30          6           0       -3.617568    5.425864   -1.994258
     31          6           0       -2.195932    4.970712   -1.751596
     32          7           0       -4.250563    0.125355   -1.431934
     33          6           0       -4.602999    1.028468   -2.445271
     34          6           0       -4.882042    0.233003   -3.654998
     35          6           0       -4.687372   -1.087363   -3.254272
     36          6           0       -4.336159   -1.116659   -1.874386
     37          6           0       -5.317868    0.746926   -4.908143
     38          6           0       -4.718378   -2.481859   -3.664486
     39          8           0       -4.860348   -3.066607   -4.739385
     40          6           0       -4.623735   -3.390136   -2.359916
     41          6           0       -3.586224   -4.448711   -2.617398
     42          8           0       -2.382400   -4.146473   -2.747110
     43          8           0       -4.132736   -5.660542   -2.434827
     44          6           0       -3.148488   -6.755457   -2.645945
     45          1           0       -4.485144   -1.780437    4.393454
     46          1           0       -3.759563    4.225927    2.866647
     47          1           0       -4.874367    2.889547   -3.167464
     48          1           0       -5.042169   -4.717140    0.458697
     49          1           0       -4.368302   -4.024561    3.107033
     50          1           0       -6.857509   -3.682863    1.478239
     51          1           0       -6.621320   -2.465299    2.769757
     52          1           0       -6.693686   -4.144860    3.221886
     53          1           0       -2.379054   -4.188510    1.792744
     54          1           0       -2.384397   -4.514366    0.013344
     55          1           0       -3.886295   -6.552594    1.308306
     56          1           0       -2.648120   -6.150331    2.436560
     57          1           0       -3.519315   -1.016860    6.104297
     58          1           0       -3.762997    0.516213    6.850167
     59          1           0       -2.091899    0.017968    6.480710
     60          1           0       -2.775207    2.493316    7.213650
     61          1           0       -1.608766    3.914796    6.996193
     62          1           0       -1.201134    2.250267    6.500100
     63          1           0       -3.649337    5.541798    0.685637
     64          1           0       -5.576309    4.865769   -1.481792
     65          1           0       -5.510289    6.627562    1.366346
     66          1           0       -6.250323    5.022037    1.687866
     67          1           0       -6.503518    5.773909    0.198721
     68          1           0       -3.660843    6.486698   -1.749914
     69          1           0       -3.834300    5.321303   -3.057435
     70          1           0       -1.901888    5.547455   -0.875389
     71          1           0       -1.566995    5.214414   -2.608485
     72          1           0       -2.156954    3.916663   -1.476009
     73          1           0       -4.740988    0.222820   -5.670042
     74          1           0       -5.166807    1.824497   -4.968348
     75          1           0       -6.372703    0.473938   -4.882510
     76          1           0       -5.613791   -3.816946   -2.202615
     77          1           0       -3.564420   -7.419194   -3.404027
     78          1           0       -2.939527   -7.178070   -1.663022
     79          1           0       -2.205692   -6.472250   -3.115274
     80         12           0        3.960799    0.743821   -0.821461
     81          6           0        4.133746   -2.411987    0.878538
     82          6           0        3.619610    2.205807    2.241342
     83          6           0        3.354928    3.481773   -2.306048
     84          6           0        3.173489   -1.019494   -3.722597
     85          7           0        3.900033   -0.099786    1.222278
     86          6           0        4.037345   -1.306953    1.749774
     87          6           0        4.154036   -1.323054    3.297567
     88          6           0        3.412801    0.067052    3.609074
     89          6           0        3.686590    0.790521    2.292153
     90          6           0        1.908671   -0.076176    3.771616
     91          6           0        5.645381   -1.300583    3.784811
     92          6           0        5.842588   -1.625424    5.267162
     93          1           0        7.033070   -2.372446    5.663624
     94          7           0        4.034883    2.610962   -0.152993
     95          6           0        3.899516    3.023803    1.124703
     96          6           0        4.011453    4.490179    1.087710
     97          6           0        4.059135    4.921216   -0.335888
     98          6           0        3.791369    3.662172   -1.001629
     99          6           0        4.142559    5.327755    2.326538
    100          6           0        4.292728    6.249508   -0.989549
    101          8           0        4.054253    6.438462   -2.234649
    102          6           0        4.719897    7.347105   -0.109620
    103          7           0        3.146650    1.188811   -2.681975
    104          6           0        3.042341    2.461001   -3.104569
    105          6           0        2.687799    2.521255   -4.571222
    106          6           0        2.813498    1.019214   -5.105674
    107          6           0        3.146854    0.305066   -3.777425
    108          6           0        1.296013    3.062442   -4.897472
    109          6           0        3.744417    0.782111   -6.326265
    110          6           0        5.182952    1.032131   -5.934470
    111          7           0        3.875112   -1.335250   -1.402986
    112          6           0        3.496724   -1.854326   -2.660550
    113          6           0        3.483052   -3.326457   -2.537670
    114          6           0        3.834864   -3.562859   -1.200198
    115          6           0        4.032750   -2.324876   -0.531056
    116          6           0        3.127716   -4.243829   -3.566398
    117          6           0        4.073469   -4.577909   -0.199485
    118          8           0        4.138552   -5.806514   -0.206656
    119          6           0        4.154198   -3.875172    1.223903
    120          6           0        5.365468   -4.409697    1.937787
    121          8           0        6.508001   -4.176648    1.505443
    122          8           0        4.988297   -4.919493    3.124471
    123          6           0        6.156730   -5.452233    3.874643
    124          1           0        3.279915    2.741302    3.128324
    125          1           0        3.238053    4.394664   -2.894655
    126          1           0        3.033748   -1.643330   -4.608019
    127          1           0        3.633350   -2.139223    3.783909
    128          1           0        3.885217    0.589796    4.436682
    129          1           0        1.570839   -1.073727    3.533076
    130          1           0        1.469632    0.644153    3.093805
    131          1           0        1.606995    0.232793    4.776532
    132          1           0        6.011752   -0.266053    3.768814
    133          1           0        6.251109   -1.954383    3.187923
    134          1           0        4.944471   -2.067629    5.715253
    135          1           0        5.980597   -0.688538    5.812334
    136          1           0        3.909226    4.749906    3.229341
    137          1           0        3.357386    6.090220    2.281593
    138          1           0        5.112904    5.823570    2.399036
    139          1           0        3.973230    7.499550    0.666076
    140          1           0        4.922050    8.190981   -0.772114
    141          1           0        5.644376    7.049300    0.397600
    142          1           0        3.386953    3.146601   -5.112724
    143          1           0        1.843434    0.623328   -5.440467
    144          1           0        1.315328    3.934866   -5.577605
    145          1           0        0.801710    3.315116   -3.968838
    146          1           0        0.610074    2.339034   -5.334912
    147          1           0        3.511937    1.492420   -7.123492
    148          1           0        3.659107   -0.214021   -6.747495
    149          1           0        5.278468    2.118211   -6.026050
    150          1           0        5.859884    0.517709   -6.613570
    151          1           0        5.355167    0.773552   -4.883216
    152          1           0        3.853192   -5.045726   -3.532681
    153          1           0        3.112307   -3.761336   -4.541457
    154          1           0        2.126310   -4.530737   -3.234509
    155          1           0        3.230458   -4.105802    1.755970
    156          1           0        5.933399   -6.496436    4.114334
    157          1           0        6.305998   -4.760972    4.725307
    158          1           0        7.092790   -5.553944    3.338079
 ---------------------------------------------------------------------
 Rotational constants (GHZ):           0.0203526           0.0165608           0.0148617
 Leave Link  202 at Thu Sep  9 02:38:32 2021, MaxMem= 23488102400 cpu:               0.2 elap:               0.0
 (Enter /sw/apps/gaussian-16.0/g16/l301.exe)
 Standard basis: def2SVP (5D, 7F)
 Ernie: Thresh=  0.10000D-02 Tol=  0.10000D-05 Strict=F.
 There are  1658 symmetry adapted cartesian basis functions of A   symmetry.
 There are  1572 symmetry adapted basis functions of A   symmetry.
  1572 basis functions,  2678 primitive gaussians,  1658 cartesian basis functions
   312 alpha electrons      312 beta electrons
       nuclear repulsion energy     15922.2827079721 Hartrees.
 IExCor=20419 DFT=T Ex+Corr=CAM-B3LYP ExCW=0 ScaHFX=  1.000000
 ScaDFX=  1.000000  1.000000  1.000000  0.810000 ScalE2=  1.000000  1.000000
 IRadAn=      5 IRanWt=     -1 IRanGd=            0 ICorTp=0 IEmpDi=  4
 HFx  wShort=  0.000000 wLong=  0.330000 cFull=  0.190000 cShort=  0.000000 cLong=  0.460000
 DFx  wShort=  0.000000 wLong=  0.330000 cFull=  0.190000 cShort=  0.000000 cLong=  0.460000
 NAtoms=  158 NActive=  158 NUniq=  158 SFac= 1.00D+00 NAtFMM=   60 NAOKFM=T Big=T
 Integral buffers will be    131072 words long.
 Raffenetti 1 integral format.
 Two-electron integral symmetry is turned on.
 Leave Link  301 at Thu Sep  9 02:38:32 2021, MaxMem= 23488102400 cpu:               1.3 elap:               0.1
 (Enter /sw/apps/gaussian-16.0/g16/l302.exe)
 NPDir=0 NMtPBC=     1 NCelOv=     1 NCel=       1 NClECP=     1 NCelD=      1
         NCelK=      1 NCelE2=     1 NClLst=     1 CellRange=     0.0.
 One-electron integrals computed using PRISM.
 One-electron integral symmetry used in STVInt
   1 Symmetry operations used in ECPInt.
 ECPInt:  NShTT=  271216 NPrTT=  987664 LenC2=  164086 LenP2D=  343919.
 LDataN:  DoStor=T MaxTD1= 4 Len=   56
 NBasis=  1572 RedAO= T EigKep=  3.36D-04  NBF=  1572
 NBsUse=  1572 1.00D-06 EigRej= -1.00D+00 NBFU=  1572
 Precomputing XC quadrature grid using
 IXCGrd= 4 IRadAn=           5 IRanWt=          -1 IRanGd=           0 AccXCQ= 0.00D+00.
 Generated NRdTot=       0 NPtTot=           0 NUsed=           0 NTot=          32
 NSgBfM=  1191  1185  1187  1187  1191 MxSgAt=   158 MxSgA2=   158.
 Leave Link  302 at Thu Sep  9 02:38:38 2021, MaxMem= 23488102400 cpu:             128.4 elap:               5.4
 (Enter /sw/apps/gaussian-16.0/g16/l303.exe)
 DipDrv:  MaxL=1.
 Leave Link  303 at Thu Sep  9 02:38:38 2021, MaxMem= 23488102400 cpu:              10.1 elap:               0.5
 (Enter /sw/apps/gaussian-16.0/g16/l308.exe)
 Leave Link  308 at Thu Sep  9 02:38:39 2021, MaxMem= 23488102400 cpu:              14.7 elap:               0.7
 (Enter /sw/apps/gaussian-16.0/g16/l401.exe)
 ExpMin= 3.36D-02 ExpMax= 4.95D+03 ExpMxC= 7.45D+02 IAcc=3 IRadAn=         5 AccDes= 0.00D+00
 Harris functional with IExCor=20419 and IRadAn=       5 diagonalized for initial guess.
 HarFok:  IExCor=20419 AccDes= 0.00D+00 IRadAn=         5 IDoV= 1 UseB2=F ITyADJ=14
 ICtDFT=  3500011 ScaDFX=  1.000000  1.000000  1.000000  1.000000
 FoFCou: FMM=F IPFlag=           0 FMFlag=      100000 FMFlg1=        2001
         NFxFlg=           0 DoJE=T BraDBF=F KetDBF=T FulRan=T
         wScrn=  0.000000 ICntrl=       500 IOpCl=  0 I1Cent=   200000004 NGrid=           0
         NMat0=    1 NMatS0=      1 NMatT0=    0 NMatD0=    1 NMtDS0=    0 NMtDT0=    0
 Petite list used in FoFCou.
 Harris En= -3918.65814593695    
 JPrj=0 DoOrth=F DoCkMO=F.
 Leave Link  401 at Thu Sep  9 02:38:48 2021, MaxMem= 23488102400 cpu:             208.4 elap:               8.7
 (Enter /sw/apps/gaussian-16.0/g16/l502.exe)
 Integral symmetry usage will be decided dynamically.
 Closed shell SCF:
 Using DIIS extrapolation, IDIIS=  1040.
 NGot= 23488102400 LenX= 23482547354 LenY= 23479796732
 Requested convergence on RMS density matrix=1.00D-08 within 128 cycles.
 Requested convergence on MAX density matrix=1.00D-06.
 Requested convergence on             energy=1.00D-06.
 No special actions if energy rises.
 Fock matrices will be formed incrementally for  20 cycles.

 Cycle   1  Pass 1  IDiag  1:
 FoFJK:  IHMeth= 1 ICntrl=       0 DoSepK=T KAlg= 0 I1Cent=           0 FoldK=F
 IRaf=         1 NMat=       1 IRICut=       1 DoRegI=T DoRafI=F ISym2E= 0 IDoP0=0 IntGTp=1.
 FoFCou: FMM=T IPFlag=           0 FMFlag=      100000 FMFlg1=        2001
         NFxFlg=           0 DoJE=T BraDBF=F KetDBF=F FulRan=T
         wScrn=  0.000000 ICntrl=       500 IOpCl=  0 I1Cent=           0 NGrid=           0
         NMat0=    1 NMatS0=      1 NMatT0=    0 NMatD0=    1 NMtDS0=    0 NMtDT0=    0
 Symmetry not used in FoFCou.
 FMM levels:  10  Number of levels for PrismC:   9
 E= -4068.94876287921    
 DIIS: error= 2.04D-02 at cycle   1 NSaved=   1.
 NSaved= 1 IEnMin= 1 EnMin= -4068.94876287921     IErMin= 1 ErrMin= 2.04D-02
 ErrMax= 2.04D-02  0.00D+00 EMaxC= 1.00D-01 BMatC= 1.69D+00 BMatP= 1.69D+00
 IDIUse=3 WtCom= 7.96D-01 WtEn= 2.04D-01
 Coeff-Com:  0.100D+01
 Coeff-En:   0.100D+01
 Coeff:      0.100D+01
 Gap=     0.120 Goal=   None    Shift=    0.000
 GapD=    0.120 DampG=1.000 DampE=0.500 DampFc=0.5000 IDamp=-1.
 Damping current iteration by 5.00D-01
 RMSDP=1.58D-03 MaxDP=1.36D-01              OVMax= 2.12D-01

 Cycle   2  Pass 1  IDiag  1:
 RMSU=  7.72D-04    CP:  9.82D-01
 E= -4069.33612151882     Delta-E=       -0.387358639611 Rises=F Damp=T
 DIIS: error= 1.27D-02 at cycle   2 NSaved=   2.
 NSaved= 2 IEnMin= 2 EnMin= -4069.33612151882     IErMin= 2 ErrMin= 1.27D-02
 ErrMax= 1.27D-02  0.00D+00 EMaxC= 1.00D-01 BMatC= 3.08D-01 BMatP= 1.69D+00
 IDIUse=3 WtCom= 8.73D-01 WtEn= 1.27D-01
 Coeff-Com: -0.209D+00 0.121D+01
 Coeff-En:   0.000D+00 0.100D+01
 Coeff:     -0.183D+00 0.118D+01
 Gap=     0.134 Goal=   None    Shift=    0.000
 RMSDP=7.74D-04 MaxDP=9.36D-02 DE=-3.87D-01 OVMax= 2.08D-01

 Cycle   3  Pass 1  IDiag  1:
 RMSU=  7.44D-04    CP:  9.68D-01  1.22D+00
 E= -4069.61884909073     Delta-E=       -0.282727571910 Rises=F Damp=F
 DIIS: error= 1.59D-02 at cycle   3 NSaved=   3.
 NSaved= 3 IEnMin= 3 EnMin= -4069.61884909073     IErMin= 2 ErrMin= 1.27D-02
 ErrMax= 1.59D-02  0.00D+00 EMaxC= 1.00D-01 BMatC= 2.09D-01 BMatP= 3.08D-01
 IDIUse=3 WtCom= 8.41D-01 WtEn= 1.59D-01
 Coeff-Com: -0.268D+00 0.656D+00 0.611D+00
 Coeff-En:   0.000D+00 0.000D+00 0.100D+01
 Coeff:     -0.225D+00 0.552D+00 0.673D+00
 Gap=     0.121 Goal=   None    Shift=    0.000
 RMSDP=5.32D-04 MaxDP=5.20D-02 DE=-2.83D-01 OVMax= 1.67D-01

 Cycle   4  Pass 1  IDiag  1:
 RMSU=  2.76D-04    CP:  9.65D-01  1.54D+00  4.89D-01
 E= -4069.75960163890     Delta-E=       -0.140752548166 Rises=F Damp=F
 DIIS: error= 7.44D-03 at cycle   4 NSaved=   4.
 NSaved= 4 IEnMin= 4 EnMin= -4069.75960163890     IErMin= 4 ErrMin= 7.44D-03
 ErrMax= 7.44D-03  0.00D+00 EMaxC= 1.00D-01 BMatC= 5.48D-02 BMatP= 2.09D-01
 IDIUse=3 WtCom= 9.26D-01 WtEn= 7.44D-02
 Coeff-Com: -0.111D+00 0.230D+00 0.412D+00 0.468D+00
 Coeff-En:   0.000D+00 0.000D+00 0.236D+00 0.764D+00
 Coeff:     -0.102D+00 0.213D+00 0.399D+00 0.490D+00
 Gap=     0.119 Goal=   None    Shift=    0.000
 RMSDP=2.18D-04 MaxDP=2.11D-02 DE=-1.41D-01 OVMax= 8.01D-02

 Cycle   5  Pass 1  IDiag  1:
 RMSU=  8.37D-05    CP:  9.64D-01  1.48D+00  6.84D-01  5.29D-01
 E= -4069.81062643754     Delta-E=       -0.051024798642 Rises=F Damp=F
 DIIS: error= 7.19D-04 at cycle   5 NSaved=   5.
 NSaved= 5 IEnMin= 5 EnMin= -4069.81062643754     IErMin= 5 ErrMin= 7.19D-04
 ErrMax= 7.19D-04  0.00D+00 EMaxC= 1.00D-01 BMatC= 1.56D-03 BMatP= 5.48D-02
 IDIUse=3 WtCom= 9.93D-01 WtEn= 7.19D-03
 Coeff-Com: -0.401D-01 0.792D-01 0.181D+00 0.263D+00 0.516D+00
 Coeff-En:   0.000D+00 0.000D+00 0.000D+00 0.000D+00 0.100D+01
 Coeff:     -0.398D-01 0.787D-01 0.180D+00 0.261D+00 0.520D+00
 Gap=     0.119 Goal=   None    Shift=    0.000
 RMSDP=4.94D-05 MaxDP=4.22D-03 DE=-5.10D-02 OVMax= 2.46D-02

 Cycle   6  Pass 1  IDiag  1:
 RMSU=  3.44D-05    CP:  9.64D-01  1.49D+00  6.74D-01  6.11D-01  6.90D-01
 E= -4069.81212225591     Delta-E=       -0.001495818371 Rises=F Damp=F
 DIIS: error= 2.44D-04 at cycle   6 NSaved=   6.
 NSaved= 6 IEnMin= 6 EnMin= -4069.81212225591     IErMin= 6 ErrMin= 2.44D-04
 ErrMax= 2.44D-04  0.00D+00 EMaxC= 1.00D-01 BMatC= 2.28D-04 BMatP= 1.56D-03
 IDIUse=3 WtCom= 9.98D-01 WtEn= 2.44D-03
 Coeff-Com:  0.167D-02-0.564D-02 0.147D-01 0.445D-01 0.299D+00 0.646D+00
 Coeff-En:   0.000D+00 0.000D+00 0.000D+00 0.000D+00 0.119D+00 0.881D+00
 Coeff:      0.166D-02-0.563D-02 0.147D-01 0.444D-01 0.298D+00 0.647D+00
 Gap=     0.119 Goal=   None    Shift=    0.000
 RMSDP=1.88D-05 MaxDP=1.55D-03 DE=-1.50D-03 OVMax= 9.42D-03

 Cycle   7  Pass 1  IDiag  1:
 RMSU=  1.20D-05    CP:  9.64D-01  1.49D+00  6.80D-01  6.08D-01  8.12D-01
                    CP:  7.39D-01
 E= -4069.81238397999     Delta-E=       -0.000261724079 Rises=F Damp=F
 DIIS: error= 1.15D-04 at cycle   7 NSaved=   7.
 NSaved= 7 IEnMin= 7 EnMin= -4069.81238397999     IErMin= 7 ErrMin= 1.15D-04
 ErrMax= 1.15D-04  0.00D+00 EMaxC= 1.00D-01 BMatC= 3.02D-05 BMatP= 2.28D-04
 IDIUse=3 WtCom= 9.99D-01 WtEn= 1.15D-03
 Coeff-Com:  0.473D-02-0.104D-01-0.888D-02-0.273D-02 0.109D+00 0.347D+00
 Coeff-Com:  0.562D+00
 Coeff-En:   0.000D+00 0.000D+00 0.000D+00 0.000D+00 0.000D+00 0.000D+00
 Coeff-En:   0.100D+01
 Coeff:      0.472D-02-0.104D-01-0.887D-02-0.273D-02 0.108D+00 0.347D+00
 Coeff:      0.562D+00
 Gap=     0.119 Goal=   None    Shift=    0.000
 RMSDP=6.94D-06 MaxDP=1.18D-03 DE=-2.62D-04 OVMax= 3.82D-03

 Cycle   8  Pass 1  IDiag  1:
 RMSU=  5.01D-06    CP:  9.64D-01  1.49D+00  6.81D-01  6.13D-01  8.11D-01
                    CP:  8.53D-01  8.12D-01
 E= -4069.81242026810     Delta-E=       -0.000036288111 Rises=F Damp=F
 DIIS: error= 5.63D-05 at cycle   8 NSaved=   8.
 NSaved= 8 IEnMin= 8 EnMin= -4069.81242026810     IErMin= 8 ErrMin= 5.63D-05
 ErrMax= 5.63D-05  0.00D+00 EMaxC= 1.00D-01 BMatC= 5.00D-06 BMatP= 3.02D-05
 IDIUse=1 WtCom= 1.00D+00 WtEn= 0.00D+00
 Coeff-Com:  0.225D-02-0.447D-02-0.787D-02-0.119D-01-0.620D-02 0.328D-01
 Coeff-Com:  0.299D+00 0.697D+00
 Coeff:      0.225D-02-0.447D-02-0.787D-02-0.119D-01-0.620D-02 0.328D-01
 Coeff:      0.299D+00 0.697D+00
 Gap=     0.119 Goal=   None    Shift=    0.000
 RMSDP=3.51D-06 MaxDP=4.96D-04 DE=-3.63D-05 OVMax= 1.32D-03

 Cycle   9  Pass 1  IDiag  1:
 RMSU=  2.06D-06    CP:  9.64D-01  1.49D+00  6.81D-01  6.15D-01  8.27D-01
                    CP:  8.81D-01  9.95D-01  9.92D-01
 E= -4069.81242850130     Delta-E=       -0.000008233204 Rises=F Damp=F
 DIIS: error= 1.94D-05 at cycle   9 NSaved=   9.
 NSaved= 9 IEnMin= 9 EnMin= -4069.81242850130     IErMin= 9 ErrMin= 1.94D-05
 ErrMax= 1.94D-05  0.00D+00 EMaxC= 1.00D-01 BMatC= 8.71D-07 BMatP= 5.00D-06
 IDIUse=1 WtCom= 1.00D+00 WtEn= 0.00D+00
 Coeff-Com:  0.481D-03-0.794D-03-0.276D-02-0.608D-02-0.187D-01-0.422D-01
 Coeff-Com:  0.824D-01 0.355D+00 0.633D+00
 Coeff:      0.481D-03-0.794D-03-0.276D-02-0.608D-02-0.187D-01-0.422D-01
 Coeff:      0.824D-01 0.355D+00 0.633D+00
 Gap=     0.119 Goal=   None    Shift=    0.000
 RMSDP=1.55D-06 MaxDP=1.79D-04 DE=-8.23D-06 OVMax= 7.74D-04

 Cycle  10  Pass 1  IDiag  1:
 RMSU=  1.01D-06    CP:  9.64D-01  1.49D+00  6.81D-01  6.15D-01  8.31D-01
                    CP:  8.92D-01  1.04D+00  1.16D+00  1.06D+00
 E= -4069.81243042961     Delta-E=       -0.000001928307 Rises=F Damp=F
 DIIS: error= 9.51D-06 at cycle  10 NSaved=  10.
 NSaved=10 IEnMin=10 EnMin= -4069.81243042961     IErMin=10 ErrMin= 9.51D-06
 ErrMax= 9.51D-06  0.00D+00 EMaxC= 1.00D-01 BMatC= 1.89D-07 BMatP= 8.71D-07
 IDIUse=1 WtCom= 1.00D+00 WtEn= 0.00D+00
 Coeff-Com: -0.427D-03 0.902D-03 0.119D-02 0.942D-03-0.366D-02-0.318D-01
 Coeff-Com: -0.431D-01-0.629D-01 0.227D+00 0.912D+00
 Coeff:     -0.427D-03 0.902D-03 0.119D-02 0.942D-03-0.366D-02-0.318D-01
 Coeff:     -0.431D-01-0.629D-01 0.227D+00 0.912D+00
 Gap=     0.119 Goal=   None    Shift=    0.000
 RMSDP=1.31D-06 MaxDP=1.29D-04 DE=-1.93D-06 OVMax= 6.82D-04

 Cycle  11  Pass 1  IDiag  1:
 RMSU=  5.87D-07    CP:  9.64D-01  1.49D+00  6.82D-01  6.15D-01  8.33D-01
                    CP:  9.01D-01  1.09D+00  1.28D+00  1.40D+00  1.35D+00
 E= -4069.81243133820     Delta-E=       -0.000000908592 Rises=F Damp=F
 DIIS: error= 4.36D-06 at cycle  11 NSaved=  11.
 NSaved=11 IEnMin=11 EnMin= -4069.81243133820     IErMin=11 ErrMin= 4.36D-06
 ErrMax= 4.36D-06  0.00D+00 EMaxC= 1.00D-01 BMatC= 8.30D-08 BMatP= 1.89D-07
 IDIUse=1 WtCom= 1.00D+00 WtEn= 0.00D+00
 Coeff-Com: -0.353D-03 0.688D-03 0.140D-02 0.212D-02 0.407D-02-0.899D-02
 Coeff-Com: -0.405D-01-0.132D+00-0.468D-01 0.512D+00 0.708D+00
 Coeff:     -0.353D-03 0.688D-03 0.140D-02 0.212D-02 0.407D-02-0.899D-02
 Coeff:     -0.405D-01-0.132D+00-0.468D-01 0.512D+00 0.708D+00
 Gap=     0.119 Goal=   None    Shift=    0.000
 RMSDP=7.68D-07 MaxDP=7.69D-05 DE=-9.09D-07 OVMax= 4.56D-04

 Cycle  12  Pass 1  IDiag  1:
 RMSU=  2.98D-07    CP:  9.64D-01  1.49D+00  6.82D-01  6.16D-01  8.35D-01
                    CP:  9.04D-01  1.11D+00  1.35D+00  1.56D+00  1.76D+00
                    CP:  1.16D+00
 E= -4069.81243166202     Delta-E=       -0.000000323813 Rises=F Damp=F
 DIIS: error= 2.97D-06 at cycle  12 NSaved=  12.
 NSaved=12 IEnMin=12 EnMin= -4069.81243166202     IErMin=12 ErrMin= 2.97D-06
 ErrMax= 2.97D-06  0.00D+00 EMaxC= 1.00D-01 BMatC= 2.09D-08 BMatP= 8.30D-08
 IDIUse=1 WtCom= 1.00D+00 WtEn= 0.00D+00
 Coeff-Com: -0.369D-04 0.542D-04 0.335D-03 0.727D-03 0.375D-02 0.337D-02
 Coeff-Com: -0.166D-02-0.449D-01-0.829D-01-0.933D-02 0.296D+00 0.834D+00
 Coeff:     -0.369D-04 0.542D-04 0.335D-03 0.727D-03 0.375D-02 0.337D-02
 Coeff:     -0.166D-02-0.449D-01-0.829D-01-0.933D-02 0.296D+00 0.834D+00
 Gap=     0.119 Goal=   None    Shift=    0.000
 RMSDP=4.59D-07 MaxDP=3.50D-05 DE=-3.24D-07 OVMax= 2.66D-04

 Cycle  13  Pass 1  IDiag  1:
 RMSU=  1.82D-07    CP:  9.64D-01  1.49D+00  6.82D-01  6.16D-01  8.35D-01
                    CP:  9.04D-01  1.11D+00  1.37D+00  1.67D+00  1.97D+00
                    CP:  1.55D+00  1.18D+00
 E= -4069.81243177161     Delta-E=       -0.000000109590 Rises=F Damp=F
 DIIS: error= 1.93D-06 at cycle  13 NSaved=  13.
 NSaved=13 IEnMin=13 EnMin= -4069.81243177161     IErMin=13 ErrMin= 1.93D-06
 ErrMax= 1.93D-06  0.00D+00 EMaxC= 1.00D-01 BMatC= 9.99D-09 BMatP= 2.09D-08
 IDIUse=1 WtCom= 1.00D+00 WtEn= 0.00D+00
 Coeff-Com:  0.120D-03-0.247D-03-0.354D-03-0.413D-03 0.932D-03 0.502D-02
 Coeff-Com:  0.175D-01 0.236D-01-0.342D-01-0.234D+00-0.149D+00 0.538D+00
 Coeff-Com:  0.833D+00
 Coeff:      0.120D-03-0.247D-03-0.354D-03-0.413D-03 0.932D-03 0.502D-02
 Coeff:      0.175D-01 0.236D-01-0.342D-01-0.234D+00-0.149D+00 0.538D+00
 Coeff:      0.833D+00
 Gap=     0.119 Goal=   None    Shift=    0.000
 RMSDP=3.93D-07 MaxDP=2.77D-05 DE=-1.10D-07 OVMax= 2.62D-04

 Cycle  14  Pass 1  IDiag  1:
 RMSU=  8.93D-08    CP:  9.64D-01  1.49D+00  6.82D-01  6.16D-01  8.35D-01
                    CP:  9.04D-01  1.12D+00  1.40D+00  1.75D+00  2.18D+00
                    CP:  1.81D+00  1.71D+00  1.14D+00
 E= -4069.81243182035     Delta-E=       -0.000000048745 Rises=F Damp=F
 DIIS: error= 8.52D-07 at cycle  14 NSaved=  14.
 NSaved=14 IEnMin=14 EnMin= -4069.81243182035     IErMin=14 ErrMin= 8.52D-07
 ErrMax= 8.52D-07  0.00D+00 EMaxC= 1.00D-01 BMatC= 1.84D-09 BMatP= 9.99D-09
 IDIUse=1 WtCom= 1.00D+00 WtEn= 0.00D+00
 Coeff-Com:  0.750D-04-0.148D-03-0.272D-03-0.409D-03-0.337D-03 0.144D-02
 Coeff-Com:  0.103D-01 0.221D-01 0.395D-02-0.115D+00-0.149D+00 0.738D-01
 Coeff-Com:  0.449D+00 0.705D+00
 Coeff:      0.750D-04-0.148D-03-0.272D-03-0.409D-03-0.337D-03 0.144D-02
 Coeff:      0.103D-01 0.221D-01 0.395D-02-0.115D+00-0.149D+00 0.738D-01
 Coeff:      0.449D+00 0.705D+00
 Gap=     0.119 Goal=   None    Shift=    0.000
 RMSDP=1.31D-07 MaxDP=8.93D-06 DE=-4.87D-08 OVMax= 7.28D-05

 Cycle  15  Pass 1  IDiag  1:
 RMSU=  4.42D-08    CP:  9.64D-01  1.49D+00  6.82D-01  6.16D-01  8.35D-01
                    CP:  9.04D-01  1.12D+00  1.41D+00  1.77D+00  2.23D+00
                    CP:  1.93D+00  1.86D+00  1.39D+00  1.00D+00
 E= -4069.81243182642     Delta-E=       -0.000000006065 Rises=F Damp=F
 DIIS: error= 4.14D-07 at cycle  15 NSaved=  15.
 NSaved=15 IEnMin=15 EnMin= -4069.81243182642     IErMin=15 ErrMin= 4.14D-07
 ErrMax= 4.14D-07  0.00D+00 EMaxC= 1.00D-01 BMatC= 2.98D-10 BMatP= 1.84D-09
 IDIUse=1 WtCom= 1.00D+00 WtEn= 0.00D+00
 Coeff-Com:  0.120D-04-0.219D-04-0.573D-04-0.117D-03-0.307D-03-0.450D-03
 Coeff-Com:  0.171D-02 0.482D-02 0.933D-02-0.719D-02-0.370D-01-0.726D-01
 Coeff-Com:  0.674D-01 0.312D+00 0.723D+00
 Coeff:      0.120D-04-0.219D-04-0.573D-04-0.117D-03-0.307D-03-0.450D-03
 Coeff:      0.171D-02 0.482D-02 0.933D-02-0.719D-02-0.370D-01-0.726D-01
 Coeff:      0.674D-01 0.312D+00 0.723D+00
 Gap=     0.119 Goal=   None    Shift=    0.000
 RMSDP=4.05D-08 MaxDP=4.13D-06 DE=-6.06D-09 OVMax= 3.36D-05

 Cycle  16  Pass 1  IDiag  1:
 RMSU=  2.34D-08    CP:  9.64D-01  1.49D+00  6.82D-01  6.16D-01  8.35D-01
                    CP:  9.04D-01  1.12D+00  1.41D+00  1.78D+00  2.24D+00
                    CP:  1.95D+00  1.91D+00  1.46D+00  1.21D+00  1.06D+00
 E= -4069.81243182714     Delta-E=       -0.000000000724 Rises=F Damp=F
 DIIS: error= 2.52D-07 at cycle  16 NSaved=  16.
 NSaved=16 IEnMin=16 EnMin= -4069.81243182714     IErMin=16 ErrMin= 2.52D-07
 ErrMax= 2.52D-07  0.00D+00 EMaxC= 1.00D-01 BMatC= 1.37D-10 BMatP= 2.98D-10
 IDIUse=1 WtCom= 1.00D+00 WtEn= 0.00D+00
 Coeff-Com: -0.131D-04 0.269D-04 0.404D-04 0.386D-04-0.789D-04-0.672D-03
 Coeff-Com: -0.162D-02-0.369D-02 0.453D-02 0.242D-01 0.182D-01-0.662D-01
 Coeff-Com: -0.698D-01-0.278D-01 0.430D+00 0.693D+00
 Coeff:     -0.131D-04 0.269D-04 0.404D-04 0.386D-04-0.789D-04-0.672D-03
 Coeff:     -0.162D-02-0.369D-02 0.453D-02 0.242D-01 0.182D-01-0.662D-01
 Coeff:     -0.698D-01-0.278D-01 0.430D+00 0.693D+00
 Gap=     0.119 Goal=   None    Shift=    0.000
 RMSDP=2.74D-08 MaxDP=1.90D-06 DE=-7.24D-10 OVMax= 1.55D-05

 Cycle  17  Pass 1  IDiag  1:
 RMSU=  1.28D-08    CP:  9.64D-01  1.49D+00  6.82D-01  6.16D-01  8.35D-01
                    CP:  9.04D-01  1.12D+00  1.41D+00  1.78D+00  2.25D+00
                    CP:  1.96D+00  1.93D+00  1.51D+00  1.29D+00  1.36D+00
                    CP:  1.09D+00
 E= -4069.81243182776     Delta-E=       -0.000000000622 Rises=F Damp=F
 DIIS: error= 8.70D-08 at cycle  17 NSaved=  17.
 NSaved=17 IEnMin=17 EnMin= -4069.81243182776     IErMin=17 ErrMin= 8.70D-08
 ErrMax= 8.70D-08  0.00D+00 EMaxC= 1.00D-01 BMatC= 2.70D-11 BMatP= 1.37D-10
 IDIUse=1 WtCom= 1.00D+00 WtEn= 0.00D+00
 Coeff-Com: -0.958D-05 0.189D-04 0.357D-04 0.487D-04 0.603D-04-0.223D-03
 Coeff-Com: -0.111D-02-0.338D-02 0.307D-03 0.136D-01 0.203D-01-0.157D-01
 Coeff-Com: -0.443D-01-0.107D+00 0.326D-01 0.299D+00 0.806D+00
 Coeff:     -0.958D-05 0.189D-04 0.357D-04 0.487D-04 0.603D-04-0.223D-03
 Coeff:     -0.111D-02-0.338D-02 0.307D-03 0.136D-01 0.203D-01-0.157D-01
 Coeff:     -0.443D-01-0.107D+00 0.326D-01 0.299D+00 0.806D+00
 Gap=     0.119 Goal=   None    Shift=    0.000
 RMSDP=1.53D-08 MaxDP=1.17D-06 DE=-6.22D-10 OVMax= 1.11D-05

 Cycle  18  Pass 1  IDiag  1:
 RMSU=  6.35D-09    CP:  9.64D-01  1.49D+00  6.82D-01  6.16D-01  8.35D-01
                    CP:  9.04D-01  1.12D+00  1.41D+00  1.78D+00  2.25D+00
                    CP:  1.97D+00  1.94D+00  1.53D+00  1.35D+00  1.51D+00
                    CP:  1.45D+00  1.31D+00
 E= -4069.81243182782     Delta-E=       -0.000000000058 Rises=F Damp=F
 DIIS: error= 1.04D-07 at cycle  18 NSaved=  18.
 NSaved=18 IEnMin=18 EnMin= -4069.81243182782     IErMin=17 ErrMin= 8.70D-08
 ErrMax= 1.04D-07  0.00D+00 EMaxC= 1.00D-01 BMatC= 1.16D-11 BMatP= 2.70D-11
 IDIUse=1 WtCom= 1.00D+00 WtEn= 0.00D+00
 Coeff-Com: -0.685D-06 0.976D-06 0.571D-05 0.124D-04 0.730D-04 0.116D-03
 Coeff-Com:  0.425D-04-0.643D-03-0.118D-02-0.192D-02 0.491D-02 0.129D-01
 Coeff-Com:  0.601D-02-0.524D-01-0.123D+00-0.112D+00 0.440D+00 0.827D+00
 Coeff:     -0.685D-06 0.976D-06 0.571D-05 0.124D-04 0.730D-04 0.116D-03
 Coeff:      0.425D-04-0.643D-03-0.118D-02-0.192D-02 0.491D-02 0.129D-01
 Coeff:      0.601D-02-0.524D-01-0.123D+00-0.112D+00 0.440D+00 0.827D+00
 Gap=     0.119 Goal=   None    Shift=    0.000
 RMSDP=1.11D-08 MaxDP=8.49D-07 DE=-5.82D-11 OVMax= 6.36D-06

 Cycle  19  Pass 1  IDiag  1:
 RMSU=  3.26D-09    CP:  9.64D-01  1.49D+00  6.82D-01  6.16D-01  8.35D-01
                    CP:  9.04D-01  1.12D+00  1.41D+00  1.78D+00  2.25D+00
                    CP:  1.97D+00  1.94D+00  1.54D+00  1.39D+00  1.64D+00
                    CP:  1.65D+00  1.80D+00  1.21D+00
 E= -4069.81243182824     Delta-E=       -0.000000000418 Rises=F Damp=F
 DIIS: error= 3.62D-08 at cycle  19 NSaved=  19.
 NSaved=19 IEnMin=19 EnMin= -4069.81243182824     IErMin=19 ErrMin= 3.62D-08
 ErrMax= 3.62D-08  0.00D+00 EMaxC= 1.00D-01 BMatC= 3.22D-12 BMatP= 1.16D-11
 IDIUse=1 WtCom= 1.00D+00 WtEn= 0.00D+00
 Coeff-Com:  0.326D-05-0.663D-05-0.103D-04-0.116D-04 0.272D-04 0.155D-03
 Coeff-Com:  0.483D-03 0.891D-03-0.736D-03-0.685D-02-0.494D-02 0.132D-01
 Coeff-Com:  0.233D-01 0.905D-02-0.847D-01-0.206D+00-0.504D-01 0.462D+00
 Coeff-Com:  0.845D+00
 Coeff:      0.326D-05-0.663D-05-0.103D-04-0.116D-04 0.272D-04 0.155D-03
 Coeff:      0.483D-03 0.891D-03-0.736D-03-0.685D-02-0.494D-02 0.132D-01
 Coeff:      0.233D-01 0.905D-02-0.847D-01-0.206D+00-0.504D-01 0.462D+00
 Coeff:      0.845D+00
 Gap=     0.119 Goal=   None    Shift=    0.000
 RMSDP=7.97D-09 MaxDP=5.90D-07 DE=-4.18D-10 OVMax= 5.06D-06

 SCF Done:  E(RCAM-B3LYP) =  -4069.81243183     A.U. after   19 cycles
            NFock= 19  Conv=0.80D-08     -V/T= 2.0102
 KE= 4.028797163710D+03 PE=-4.132572720684D+04 EE= 1.730483490332D+04
 Leave Link  502 at Thu Sep  9 02:51:07 2021, MaxMem= 23488102400 cpu:           17113.9 elap:             739.1
 (Enter /sw/apps/gaussian-16.0/g16/l801.exe)
 DoSCS=F DFT=T ScalE2(SS,OS)=  1.000000  1.000000
 ExpMin= 3.36D-02 ExpMax= 4.95D+03 ExpMxC= 7.45D+02 IAcc=3 IRadAn=         5 AccDes= 0.00D+00
 HarFok:  IExCor=  205 AccDes= 0.00D+00 IRadAn=         5 IDoV=-2 UseB2=F ITyADJ=14
 ICtDFT= 12500011 ScaDFX=  1.000000  1.000000  1.000000  1.000000
 GSVD:  LWork=       -9588 too small for GESVD, short by       45590 words or       45590 for optimal perf.
 Largest valence mixing into a core orbital is  2.03D-04
 Largest core mixing into a valence orbital is  5.22D-05
 Range of M.O.s used for correlation:    95  1572
 NBasis=  1572 NAE=   312 NBE=   312 NFC=    94 NFV=     0
 NROrb=   1478 NOA=   218 NOB=   218 NVA=  1260 NVB=  1260
 Leave Link  801 at Thu Sep  9 02:51:07 2021, MaxMem= 23488102400 cpu:               7.7 elap:               0.3
 (Enter /sw/apps/gaussian-16.0/g16/l914.exe)
 RHF ground state
 Two-electron integrals replicated using symmetry.
 MDV= 23488102400 DFT=T DoStab=F Mixed=T DoRPA=T DoScal=F NonHer=T
 Making orbital integer symmetry assigments:
 Orbital symmetries:
       Occupied  (A) (A) (A) (A) (A) (A) (A) (A) (A) (A) (A) (A)
                 (A) (A) (A) (A) (A) (A) (A) (A) (A) (A) (A) (A)
                 (A) (A) (A) (A) (A) (A) (A) (A) (A) (A) (A) (A)
                 (A) (A) (A) (A) (A) (A) (A) (A) (A) (A) (A) (A)
                 (A) (A) (A) (A) (A) (A) (A) (A) (A) (A) (A) (A)
                 (A) (A) (A) (A) (A) (A) (A) (A) (A) (A) (A) (A)
                 (A) (A) (A) (A) (A) (A) (A) (A) (A) (A) (A) (A)
                 (A) (A) (A) (A) (A) (A) (A) (A) (A) (A) (A) (A)
                 (A) (A) (A) (A) (A) (A) (A) (A) (A) (A) (A) (A)
                 (A) (A) (A) (A) (A) (A) (A) (A) (A) (A) (A) (A)
                 (A) (A) (A) (A) (A) (A) (A) (A) (A) (A) (A) (A)
                 (A) (A) (A) (A) (A) (A) (A) (A) (A) (A) (A) (A)
                 (A) (A) (A) (A) (A) (A) (A) (A) (A) (A) (A) (A)
                 (A) (A) (A) (A) (A) (A) (A) (A) (A) (A) (A) (A)
                 (A) (A) (A) (A) (A) (A) (A) (A) (A) (A) (A) (A)
                 (A) (A) (A) (A) (A) (A) (A) (A) (A) (A) (A) (A)
                 (A) (A) (A) (A) (A) (A) (A) (A) (A) (A) (A) (A)
                 (A) (A) (A) (A) (A) (A) (A) (A) (A) (A) (A) (A)
                 (A) (A) (A) (A) (A) (A) (A) (A) (A) (A) (A) (A)
                 (A) (A) (A) (A) (A) (A) (A) (A) (A) (A) (A) (A)
                 (A) (A) (A) (A) (A) (A) (A) (A) (A) (A) (A) (A)
                 (A) (A) (A) (A) (A) (A) (A) (A) (A) (A) (A) (A)
                 (A) (A) (A) (A) (A) (A) (A) (A) (A) (A) (A) (A)
                 (A) (A) (A) (A) (A) (A) (A) (A) (A) (A) (A) (A)
                 (A) (A) (A) (A) (A) (A) (A) (A) (A) (A) (A) (A)
                 (A) (A) (A) (A) (A) (A) (A) (A) (A) (A) (A) (A)
       Virtual   (A) (A) (A) (A) (A) (A) (A) (A) (A) (A) (A) (A)
                 (A) (A) (A) (A) (A) (A) (A) (A) (A) (A) (A) (A)
                 (A) (A) (A) (A) (A) (A) (A) (A) (A) (A) (A) (A)
                 (A) (A) (A) (A) (A) (A) (A) (A) (A) (A) (A) (A)
                 (A) (A) (A) (A) (A) (A) (A) (A) (A) (A) (A) (A)
                 (A) (A) (A) (A) (A) (A) (A) (A) (A) (A) (A) (A)
                 (A) (A) (A) (A) (A) (A) (A) (A) (A) (A) (A) (A)
                 (A) (A) (A) (A) (A) (A) (A) (A) (A) (A) (A) (A)
                 (A) (A) (A) (A) (A) (A) (A) (A) (A) (A) (A) (A)
                 (A) (A) (A) (A) (A) (A) (A) (A) (A) (A) (A) (A)
                 (A) (A) (A) (A) (A) (A) (A) (A) (A) (A) (A) (A)
                 (A) (A) (A) (A) (A) (A) (A) (A) (A) (A) (A) (A)
                 (A) (A) (A) (A) (A) (A) (A) (A) (A) (A) (A) (A)
                 (A) (A) (A) (A) (A) (A) (A) (A) (A) (A) (A) (A)
                 (A) (A) (A) (A) (A) (A) (A) (A) (A) (A) (A) (A)
                 (A) (A) (A) (A) (A) (A) (A) (A) (A) (A) (A) (A)
                 (A) (A) (A) (A) (A) (A) (A) (A) (A) (A) (A) (A)
                 (A) (A) (A) (A) (A) (A) (A) (A) (A) (A) (A) (A)
                 (A) (A) (A) (A) (A) (A) (A) (A) (A) (A) (A) (A)
                 (A) (A) (A) (A) (A) (A) (A) (A) (A) (A) (A) (A)
                 (A) (A) (A) (A) (A) (A) (A) (A) (A) (A) (A) (A)
                 (A) (A) (A) (A) (A) (A) (A) (A) (A) (A) (A) (A)
                 (A) (A) (A) (A) (A) (A) (A) (A) (A) (A) (A) (A)
                 (A) (A) (A) (A) (A) (A) (A) (A) (A) (A) (A) (A)
                 (A) (A) (A) (A) (A) (A) (A) (A) (A) (A) (A) (A)
                 (A) (A) (A) (A) (A) (A) (A) (A) (A) (A) (A) (A)
                 (A) (A) (A) (A) (A) (A) (A) (A) (A) (A) (A) (A)
                 (A) (A) (A) (A) (A) (A) (A) (A) (A) (A) (A) (A)
                 (A) (A) (A) (A) (A) (A) (A) (A) (A) (A) (A) (A)
                 (A) (A) (A) (A) (A) (A) (A) (A) (A) (A) (A) (A)
                 (A) (A) (A) (A) (A) (A) (A) (A) (A) (A) (A) (A)
                 (A) (A) (A) (A) (A) (A) (A) (A) (A) (A) (A) (A)
                 (A) (A) (A) (A) (A) (A) (A) (A) (A) (A) (A) (A)
                 (A) (A) (A) (A) (A) (A) (A) (A) (A) (A) (A) (A)
                 (A) (A) (A) (A) (A) (A) (A) (A) (A) (A) (A) (A)
                 (A) (A) (A) (A) (A) (A) (A) (A) (A) (A) (A) (A)
                 (A) (A) (A) (A) (A) (A) (A) (A) (A) (A) (A) (A)
                 (A) (A) (A) (A) (A) (A) (A) (A) (A) (A) (A) (A)
                 (A) (A) (A) (A) (A) (A) (A) (A) (A) (A) (A) (A)
                 (A) (A) (A) (A) (A) (A) (A) (A) (A) (A) (A) (A)
                 (A) (A) (A) (A) (A) (A) (A) (A) (A) (A) (A) (A)
                 (A) (A) (A) (A) (A) (A) (A) (A) (A) (A) (A) (A)
                 (A) (A) (A) (A) (A) (A) (A) (A) (A) (A) (A) (A)
                 (A) (A) (A) (A) (A) (A) (A) (A) (A) (A) (A) (A)
                 (A) (A) (A) (A) (A) (A) (A) (A) (A) (A) (A) (A)
                 (A) (A) (A) (A) (A) (A) (A) (A) (A) (A) (A) (A)
                 (A) (A) (A) (A) (A) (A) (A) (A) (A) (A) (A) (A)
                 (A) (A) (A) (A) (A) (A) (A) (A) (A) (A) (A) (A)
                 (A) (A) (A) (A) (A) (A) (A) (A) (A) (A) (A) (A)
                 (A) (A) (A) (A) (A) (A) (A) (A) (A) (A) (A) (A)
                 (A) (A) (A) (A) (A) (A) (A) (A) (A) (A) (A) (A)
                 (A) (A) (A) (A) (A) (A) (A) (A) (A) (A) (A) (A)
                 (A) (A) (A) (A) (A) (A) (A) (A) (A) (A) (A) (A)
                 (A) (A) (A) (A) (A) (A) (A) (A) (A) (A) (A) (A)
                 (A) (A) (A) (A) (A) (A) (A) (A) (A) (A) (A) (A)
                 (A) (A) (A) (A) (A) (A) (A) (A) (A) (A) (A) (A)
                 (A) (A) (A) (A) (A) (A) (A) (A) (A) (A) (A) (A)
                 (A) (A) (A) (A) (A) (A) (A) (A) (A) (A) (A) (A)
                 (A) (A) (A) (A) (A) (A) (A) (A) (A) (A) (A) (A)
                 (A) (A) (A) (A) (A) (A) (A) (A) (A) (A) (A) (A)
                 (A) (A) (A) (A) (A) (A) (A) (A) (A) (A) (A) (A)
                 (A) (A) (A) (A) (A) (A) (A) (A) (A) (A) (A) (A)
                 (A) (A) (A) (A) (A) (A) (A) (A) (A) (A) (A) (A)
                 (A) (A) (A) (A) (A) (A) (A) (A) (A) (A) (A) (A)
                 (A) (A) (A) (A) (A) (A) (A) (A) (A) (A) (A) (A)
                 (A) (A) (A) (A) (A) (A) (A) (A) (A) (A) (A) (A)
                 (A) (A) (A) (A) (A) (A) (A) (A) (A) (A) (A) (A)
                 (A) (A) (A) (A) (A) (A) (A) (A) (A) (A) (A) (A)
                 (A) (A) (A) (A) (A) (A) (A) (A) (A) (A) (A) (A)
                 (A) (A) (A) (A) (A) (A) (A) (A) (A) (A) (A) (A)
                 (A) (A) (A) (A) (A) (A) (A) (A) (A) (A) (A) (A)
                 (A) (A) (A) (A) (A) (A) (A) (A) (A) (A) (A) (A)
                 (A) (A) (A) (A) (A) (A) (A) (A) (A) (A) (A) (A)
                 (A) (A) (A) (A) (A) (A) (A) (A) (A) (A) (A) (A)
                 (A) (A) (A) (A) (A) (A) (A) (A) (A) (A) (A) (A)
                 (A) (A) (A) (A) (A) (A) (A) (A) (A) (A) (A) (A)
                 (A) (A) (A) (A) (A) (A) (A) (A) (A) (A) (A) (A)
                 (A) (A) (A) (A) (A) (A) (A) (A) (A) (A) (A) (A)
                 (A) (A) (A) (A) (A) (A) (A) (A) (A) (A) (A) (A)
                 (A) (A) (A) (A) (A) (A) (A) (A) (A) (A) (A) (A)
                 (A) (A) (A) (A) (A) (A) (A) (A) (A) (A) (A) (A)
                 (A) (A) (A) (A) (A) (A) (A) (A) (A) (A) (A) (A)
                 (A) (A) (A) (A) (A) (A) (A) (A) (A) (A) (A) (A)
                 (A) (A) (A) (A) (A) (A) (A) (A) (A) (A) (A) (A)
                 (A) (A) (A) (A) (A) (A) (A) (A) (A) (A) (A) (A)
                 (A) (A) (A) (A) (A) (A) (A) (A) (A) (A) (A) (A)
                 (A) (A) (A) (A) (A) (A) (A) (A) (A) (A) (A) (A)
                 (A) (A) (A) (A) (A) (A) (A) (A) (A) (A) (A) (A)
                 (A) (A) (A) (A) (A) (A) (A) (A) (A) (A) (A) (A)
                 (A) (A) (A) (A) (A) (A) (A) (A) (A) (A) (A) (A)
                 (A) (A) (A) (A) (A) (A) (A) (A) (A) (A) (A) (A)
                 (A) (A) (A) (A) (A) (A) (A) (A) (A) (A) (A) (A)
                 (A) (A) (A) (A) (A) (A) (A) (A) (A) (A) (A) (A)
                 (A) (A) (A) (A) (A) (A) (A) (A) (A) (A) (A) (A)
                 (A) (A) (A) (A) (A) (A) (A) (A) (A) (A) (A) (A)
                 (A) (A) (A) (A) (A) (A) (A) (A) (A) (A) (A) (A)
                 (A) (A) (A) (A) (A) (A) (A) (A) (A) (A) (A) (A)
                 (A) (A) (A) (A) (A) (A) (A) (A) (A) (A) (A) (A)
                 (A) (A) (A) (A) (A) (A) (A) (A) (A) (A) (A) (A)
                 (A) (A) (A) (A) (A) (A) (A) (A) (A) (A) (A) (A)
                 (A) (A) (A) (A) (A) (A) (A) (A) (A) (A) (A) (A)
                 (A) (A) (A) (A) (A) (A) (A) (A) (A) (A) (A) (A)
                 (A) (A) (A) (A) (A) (A) (A) (A) (A) (A) (A) (A)
                 (A) (A) (A) (A) (A) (A) (A) (A) (A) (A) (A) (A)
                 (A) (A) (A) (A) (A) (A) (A) (A) (A) (A) (A) (A)
    20 initial guesses have been made.
 Convergence on wavefunction:    0.001000000000000
 Davidson Disk Diagonalization:  ConvIn= 1.00D-03 SkipCon=T Conv= 1.00D-03.
 Max sub-space:  2000 roots to seek:    20 dimension of matrix:       549360
 Iteration     1 Dimension    20 NMult     0 NNew     20
 CISAX will form    20 AO SS matrices at one time.
 NMat=    20 NSing=    20 JSym2X= 0.
 FoFJK:  IHMeth= 1 ICntrl=       0 DoSepK=T KAlg= 0 I1Cent=           0 FoldK=F
 IRaf=         1 NMat=      40 IRICut=       1 DoRegI=T DoRafI=F ISym2E= 0 IDoP0=3 IntGTp=3.
 FoFCou: FMM=T IPFlag=           0 FMFlag=      100000 FMFlg1=        2001
         NFxFlg=           0 DoJE=F BraDBF=F KetDBF=F FulRan=T
         wScrn=  0.000000 ICntrl=       500 IOpCl=  0 I1Cent=           0 NGrid=           0
         NMat0=   20 NMatS0=     20 NMatT0=    0 NMatD0=   20 NMtDS0=    0 NMtDT0=    0
 Symmetry not used in FoFCou.
 FMM levels:  10  Number of levels for PrismC:   9
 New state      2 was old state      4
 New state      3 was old state      7
 New state      4 was old state      6
 New state      5 was old state      2
 Excitation Energies [eV] at current iteration:
 Root      1 :     2.235283324391572
 Root      2 :     2.453060979097538
 Root      3 :     2.595076337730589
 Root      4 :     2.610877545379118
 Root      5 :     2.655153100913604
 Root      6 :     2.728766614089043
 Root      7 :     3.017791374170205
 Root      8 :     3.242045641244135
 Root      9 :     3.621422298041121
 Root     10 :     3.666172715610418
 Root     11 :     3.741488211669352
 Root     12 :     3.767080853566695
 Root     13 :     4.135647462697237
 Root     14 :     4.273122066891715
 Root     15 :     4.334130305027036
 Root     16 :     4.376753321057755
 Root     17 :     4.468481356972055
 Root     18 :     4.514512068173497
 Root     19 :     4.612841796770615
 Root     20 :     4.779583905234636
 Iteration     2 Dimension    30 NMult    20 NNew     10
 CISAX will form    10 AO SS matrices at one time.
 NMat=    10 NSing=    10 JSym2X= 0.
 New state      1 was old state      5
 Root      1 not converged, maximum delta is    0.336761229795022
 New state      2 was old state      4
 Root      2 not converged, maximum delta is    0.096321680627390
 New state      3 was old state      1
 Root      3 not converged, maximum delta is    0.045459613812015
 New state      4 was old state      3
 Root      4 not converged, maximum delta is    0.273344690704252
 New state      5 was old state      2
 Root      5 not converged, maximum delta is    0.006328292006766
 Excitation Energies [eV] at current iteration:
 Root      1 :     1.775221667681038   Change is   -0.879931433232565
 Root      2 :     2.190909753527895   Change is   -0.419967791851223
 Root      3 :     2.233861688333695   Change is   -0.001421636057877
 Root      4 :     2.239495744977610   Change is   -0.355580592752979
 Root      5 :     2.451484571606175   Change is   -0.001576407491364
 Iteration     3 Dimension    40 NMult    30 NNew     10
 CISAX will form    10 AO SS matrices at one time.
 NMat=    10 NSing=    10 JSym2X= 0.
 Root      1 not converged, maximum delta is    0.051965692094091
 Root      2 not converged, maximum delta is    0.235857018962104
 New state      3 was old state      4
 Root      3 not converged, maximum delta is    0.066008468061243
 New state      4 was old state      3
 Root      4 not converged, maximum delta is    0.052860578992335
 No map to state      5
 Excitation Energies [eV] at current iteration:
 Root      1 :     1.671121796025576   Change is   -0.104099871655463
 Root      2 :     1.965829762752214   Change is   -0.225079990775682
 Root      3 :     2.198265889272397   Change is   -0.041229855705213
 Root      4 :     2.233892561497046   Change is    0.000030873163352
 Root      5 :     2.322730730817240
 Iteration     4 Dimension    50 NMult    40 NNew     10
 CISAX will form    10 AO SS matrices at one time.
 NMat=    10 NSing=    10 JSym2X= 0.
 Root      1 not converged, maximum delta is    0.011779032035275
 Root      2 not converged, maximum delta is    0.249972907400201
 Root      3 not converged, maximum delta is    0.215017781353583
 New state      4 was old state      5
 Root      4 not converged, maximum delta is    0.174575766749994
 New state      5 was old state      4
 Root      5 not converged, maximum delta is    0.002228599661029
 Excitation Energies [eV] at current iteration:
 Root      1 :     1.654538682330367   Change is   -0.016583113695209
 Root      2 :     1.735094172592595   Change is   -0.230735590159619
 Root      3 :     2.190367890183458   Change is   -0.007897999088939
 Root      4 :     2.195032832343677   Change is   -0.127697898473564
 Root      5 :     2.233891179285300   Change is   -0.000001382211746
 Iteration     5 Dimension    60 NMult    50 NNew     10
 CISAX will form    10 AO SS matrices at one time.
 NMat=    10 NSing=    10 JSym2X= 0.
 Root      1 not converged, maximum delta is    0.001556759646260
 Root      2 not converged, maximum delta is    0.026183535503654
 New state      3 was old state      4
 Root      3 not converged, maximum delta is    0.373090693446052
 New state      4 was old state      3
 Root      4 not converged, maximum delta is    0.370427277173845
 Root      5 has converged.
 Excitation Energies [eV] at current iteration:
 Root      1 :     1.652822990889981   Change is   -0.001715691440386
 Root      2 :     1.696508083958976   Change is   -0.038586088633618
 Root      3 :     2.185328975587211   Change is   -0.009703856756466
 Root      4 :     2.190443668088843   Change is    0.000075777905386
 Root      5 :     2.233890784876195   Change is   -0.000000394409105
 Iteration     6 Dimension    68 NMult    60 NNew      8
 CISAX will form     8 AO SS matrices at one time.
 NMat=     8 NSing=     8 JSym2X= 0.
 Root      1 has converged.
 Root      2 not converged, maximum delta is    0.005723893616906
 Root      3 not converged, maximum delta is    0.025028852882518
 Root      4 not converged, maximum delta is    0.025209898631330
 Root      5 has converged.
 Excitation Energies [eV] at current iteration:
 Root      1 :     1.652581383343154   Change is   -0.000241607546827
 Root      2 :     1.690195479862254   Change is   -0.006312604096722
 Root      3 :     2.184140970675923   Change is   -0.001188004911287
 Root      4 :     2.190254954335807   Change is   -0.000188713753037
 Root      5 :     2.233890768338870   Change is   -0.000000016537325
 Iteration     7 Dimension    74 NMult    68 NNew      6
 CISAX will form     6 AO SS matrices at one time.
 NMat=     6 NSing=     6 JSym2X= 0.
 Root      1 has converged.
[...]
 Alpha virt. eigenvalues --    1.82819   1.82987   1.83012   1.83348   1.83376
 Alpha virt. eigenvalues --    1.83616   1.83756   1.84015   1.84117   1.84317
 Alpha virt. eigenvalues --    1.84402   1.84704   1.84740   1.84955   1.85145
 Alpha virt. eigenvalues --    1.85164   1.85278   1.85403   1.85499   1.85676
 Alpha virt. eigenvalues --    1.85912   1.86097   1.86297   1.86471   1.86584
 Alpha virt. eigenvalues --    1.86774   1.86834   1.87010   1.87167   1.87242
 Alpha virt. eigenvalues --    1.87506   1.87627   1.87697   1.87821   1.87908
 Alpha virt. eigenvalues --    1.88030   1.88202   1.88376   1.88467   1.88736
 Alpha virt. eigenvalues --    1.88794   1.89069   1.89112   1.89262   1.89510
 Alpha virt. eigenvalues --    1.89644   1.89823   1.90044   1.90113   1.90369
 Alpha virt. eigenvalues --    1.90725   1.91065   1.91324   1.91409   1.91599
 Alpha virt. eigenvalues --    1.91708   1.92126   1.92335   1.92653   1.92797
 Alpha virt. eigenvalues --    1.92927   1.93283   1.93355   1.93712   1.94282
 Alpha virt. eigenvalues --    1.94496   1.94616   1.95001   1.95466   1.95703
 Alpha virt. eigenvalues --    1.95794   1.95933   1.95992   1.96101   1.96297
 Alpha virt. eigenvalues --    1.96322   1.96569   1.96720   1.96858   1.97121
 Alpha virt. eigenvalues --    1.97431   1.97693   1.97823   1.97954   1.98128
 Alpha virt. eigenvalues --    1.98342   1.98480   1.98709   1.99123   1.99260
 Alpha virt. eigenvalues --    1.99793   2.00087   2.00608   2.00917   2.01018
 Alpha virt. eigenvalues --    2.01246   2.01476   2.01633   2.01693   2.01726
 Alpha virt. eigenvalues --    2.01760   2.01952   2.02757   2.02877   2.03219
 Alpha virt. eigenvalues --    2.03353   2.03417   2.03522   2.03541   2.03702
 Alpha virt. eigenvalues --    2.04024   2.04235   2.04875   2.05184   2.05444
 Alpha virt. eigenvalues --    2.05837   2.05992   2.06450   2.06886   2.07139
 Alpha virt. eigenvalues --    2.07145   2.07583   2.08450   2.08746   2.08915
 Alpha virt. eigenvalues --    2.09175   2.09559   2.09790   2.10746   2.11117
 Alpha virt. eigenvalues --    2.11257   2.11528   2.11610   2.11635   2.11641
 Alpha virt. eigenvalues --    2.12042   2.12437   2.12646   2.12719   2.12776
 Alpha virt. eigenvalues --    2.13032   2.13099   2.13760   2.13828   2.14083
 Alpha virt. eigenvalues --    2.14844   2.15284   2.15582   2.15886   2.16368
 Alpha virt. eigenvalues --    2.16458   2.16673   2.16843   2.17335   2.17479
 Alpha virt. eigenvalues --    2.17654   2.17881   2.18043   2.18152   2.18307
 Alpha virt. eigenvalues --    2.18452   2.18818   2.18852   2.19353   2.19617
 Alpha virt. eigenvalues --    2.19990   2.20018   2.20162   2.20495   2.20625
 Alpha virt. eigenvalues --    2.21185   2.21408   2.21657   2.21686   2.21978
 Alpha virt. eigenvalues --    2.22057   2.22623   2.22928   2.23293   2.23732
 Alpha virt. eigenvalues --    2.24390   2.24681   2.24949   2.25430   2.26252
 Alpha virt. eigenvalues --    2.26583   2.26751   2.27051   2.27176   2.27370
 Alpha virt. eigenvalues --    2.28093   2.28575   2.29204   2.29652   2.29736
 Alpha virt. eigenvalues --    2.30072   2.30433   2.30713   2.30875   2.31077
 Alpha virt. eigenvalues --    2.31188   2.31501   2.32071   2.32438   2.33087
 Alpha virt. eigenvalues --    2.33365   2.33442   2.33640   2.34158   2.34289
 Alpha virt. eigenvalues --    2.35368   2.35402   2.35731   2.36070   2.36330
 Alpha virt. eigenvalues --    2.36515   2.36532   2.36679   2.37638   2.37934
 Alpha virt. eigenvalues --    2.38157   2.38573   2.38846   2.38898   2.39537
 Alpha virt. eigenvalues --    2.39853   2.40250   2.40445   2.40470   2.40927
 Alpha virt. eigenvalues --    2.41311   2.41335   2.41745   2.41896   2.42018
 Alpha virt. eigenvalues --    2.42269   2.42968   2.43033   2.43069   2.43573
 Alpha virt. eigenvalues --    2.44105   2.44159   2.44663   2.44863   2.44979
 Alpha virt. eigenvalues --    2.45177   2.45475   2.45786   2.46166   2.46403
 Alpha virt. eigenvalues --    2.46441   2.46720   2.46737   2.46967   2.47214
 Alpha virt. eigenvalues --    2.47600   2.47667   2.48087   2.49236   2.49589
 Alpha virt. eigenvalues --    2.50032   2.50099   2.50516   2.50635   2.51088
 Alpha virt. eigenvalues --    2.51403   2.51778   2.51839   2.52438   2.52475
 Alpha virt. eigenvalues --    2.52776   2.53294   2.53843   2.53989   2.54142
 Alpha virt. eigenvalues --    2.54454   2.54743   2.55008   2.55409   2.55842
 Alpha virt. eigenvalues --    2.57762   2.58257   2.58587   2.59119   2.60159
 Alpha virt. eigenvalues --    2.60398   2.60594   2.61048   2.61627   2.61998
 Alpha virt. eigenvalues --    2.62494   2.62594   2.62901   2.63309   2.63875
 Alpha virt. eigenvalues --    2.64221   2.64340   2.64695   2.65038   2.65276
 Alpha virt. eigenvalues --    2.65752   2.65956   2.66751   2.66850   2.67016
 Alpha virt. eigenvalues --    2.67212   2.67855   2.68155   2.68788   2.68965
 Alpha virt. eigenvalues --    2.68988   2.69139   2.69368   2.69757   2.69969
 Alpha virt. eigenvalues --    2.70343   2.70950   2.71179   2.72002   2.72004
 Alpha virt. eigenvalues --    2.72590   2.72598   2.72849   2.72855   2.73256
 Alpha virt. eigenvalues --    2.73484   2.73507   2.73519   2.74460   2.74677
 Alpha virt. eigenvalues --    2.74914   2.75232   2.76554   2.76690   2.77157
 Alpha virt. eigenvalues --    2.77229   2.77353   2.77741   2.78029   2.78438
 Alpha virt. eigenvalues --    2.78678   2.78869   2.79064   2.79266   2.80219
 Alpha virt. eigenvalues --    2.80409   2.80536   2.80784   2.81018   2.81312
 Alpha virt. eigenvalues --    2.81859   2.82095   2.82272   2.82515   2.83651
 Alpha virt. eigenvalues --    2.83697   2.84008   2.84024   2.84469   2.84736
 Alpha virt. eigenvalues --    2.84838   2.85085   2.85582   2.85832   2.86774
 Alpha virt. eigenvalues --    2.86963   2.87253   2.87615   2.88015   2.88381
 Alpha virt. eigenvalues --    2.88461   2.88824   2.88883   2.89066   2.90492
 Alpha virt. eigenvalues --    2.90795   2.91128   2.91278   2.93110   2.93440
 Alpha virt. eigenvalues --    2.93929   2.94152   2.94472   2.94761   2.95383
 Alpha virt. eigenvalues --    2.95524   2.95838   2.96214   2.96451   2.96500
 Alpha virt. eigenvalues --    2.96916   2.97190   2.97811   2.98113   2.98192
 Alpha virt. eigenvalues --    2.98300   2.98396   2.98520   2.98707   2.98780
 Alpha virt. eigenvalues --    2.99029   2.99248   2.99608   2.99959   3.00023
 Alpha virt. eigenvalues --    3.00077   3.00211   3.00416   3.00509   3.01095
 Alpha virt. eigenvalues --    3.01906   3.01979   3.02066   3.02243   3.02725
 Alpha virt. eigenvalues --    3.02880   3.02992   3.03245   3.03502   3.03790
 Alpha virt. eigenvalues --    3.04152   3.04230   3.04390   3.04568   3.04575
 Alpha virt. eigenvalues --    3.05038   3.05223   3.05643   3.06077   3.06478
 Alpha virt. eigenvalues --    3.06817   3.07252   3.08041   3.08094   3.09367
 Alpha virt. eigenvalues --    3.09565   3.09700   3.10424   3.10453   3.10890
 Alpha virt. eigenvalues --    3.11272   3.11644   3.11934   3.12092   3.12221
 Alpha virt. eigenvalues --    3.12378   3.13258   3.13558   3.13753   3.13927
 Alpha virt. eigenvalues --    3.14081   3.14488   3.15938   3.16179   3.17172
 Alpha virt. eigenvalues --    3.17699   3.17935   3.18031   3.19008   3.19205
 Alpha virt. eigenvalues --    3.22272   3.22644   3.23854   3.24584   3.24591
 Alpha virt. eigenvalues --    3.25311   3.26418   3.26828   3.27544   3.27552
 Alpha virt. eigenvalues --    3.29065   3.29248   3.31437   3.31533   3.33329
 Alpha virt. eigenvalues --    3.33356   3.40244   3.40631   3.42669   3.42963
 Alpha virt. eigenvalues --    3.48568   3.48841   3.49947   3.50452   3.50984
 Alpha virt. eigenvalues --    3.51385   3.56448   3.57168   3.59024   3.59522
 Alpha virt. eigenvalues --    3.62665   3.62750   3.65993   3.66250   3.67169
 Alpha virt. eigenvalues --    3.67552   3.73223   3.74067   3.75993   3.76746
          Condensed to atoms (all electrons):
 Mulliken charges:
               1
     1  Mg   0.838914
     2  C   -0.002617
     3  C   -0.094406
     4  C   -0.045873
     5  C   -0.064191
     6  N   -0.256905
     7  C   -0.051808
     8  C   -0.014092
     9  C   -0.086886
    10  C    0.046376
    11  C    0.104805
    12  C    0.053681
    13  C   -0.073830
    14  H    0.041677
    15  N   -0.433132
    16  C    0.168091
    17  C   -0.177685
    18  C   -0.005278
    19  C    0.148678
    20  C    0.110039
    21  C    0.010508
    22  O   -0.250014
    23  C    0.063222
    24  N   -0.341430
    25  C    0.041627
    26  C   -0.028085
    27  C   -0.024175
    28  C    0.075846
    29  C    0.076159
    30  C    0.034805
    31  C   -0.007092
    32  N   -0.310630
    33  C    0.080934
    34  C   -0.170478
    35  C    0.008245
    36  C    0.083411
    37  C    0.127402
    38  C    0.045718
    39  O   -0.188254
    40  C   -0.005196
    41  C    0.213110
    42  O   -0.258032
    43  O   -0.304712
    44  C    0.157581
    45  H   -0.017539
    46  H   -0.017279
    47  H   -0.041272
    48  H    0.001275
    49  H   -0.003771
    50  H    0.025572
    51  H    0.016153
    52  H    0.016956
    53  H    0.010220
    54  H    0.044700
    55  H    0.017307
    56  H    0.017783
    57  H    0.006538
    58  H    0.027025
    59  H    0.037197
    60  H    0.038580
    61  H    0.034574
    62  H    0.028054
    63  H    0.016448
    64  H    0.009554
    65  H    0.023093
    66  H    0.012368
    67  H    0.005036
    68  H    0.006842
    69  H    0.004334
    70  H    0.009038
    71  H    0.023801
    72  H    0.028556
    73  H    0.046727
    74  H    0.009314
    75  H    0.046600
    76  H    0.035575
    77  H    0.043104
    78  H    0.047996
    79  H    0.053595
    80  Mg   0.837375
    81  C   -0.017083
    82  C   -0.087956
    83  C   -0.045049
    84  C   -0.059441
    85  N   -0.254498
    86  C   -0.050156
    87  C   -0.014861
    88  C   -0.090981
    89  C    0.045041
    90  C    0.114500
    91  C    0.062791
    92  C   -0.077352
    93  H    0.034512
    94  N   -0.423471
    95  C    0.162021
    96  C   -0.174122
    97  C   -0.008288
    98  C    0.151783
    99  C    0.099325
   100  C    0.015163
   101  O   -0.254344
   102  C    0.061246
   103  N   -0.349887
   104  C    0.037029
   105  C   -0.020530
   106  C   -0.035595
   107  C    0.088595
   108  C    0.072394
   109  C    0.034574
   110  C   -0.007526
   111  N   -0.324830
   112  C    0.078280
   113  C   -0.158106
   114  C    0.001963
   115  C    0.096833
   116  C    0.129856
   117  C    0.042888
   118  O   -0.189540
   119  C    0.000700
   120  C    0.210957
   121  O   -0.250928
   122  O   -0.306251
   123  C    0.152184
   124  H   -0.019724
   125  H   -0.016626
   126  H   -0.037711
   127  H   -0.002547
   128  H   -0.005317
   129  H    0.021921
   130  H    0.018348
   131  H    0.010731
   132  H    0.014303
   133  H    0.037818
   134  H    0.019148
   135  H    0.019295
   136  H    0.008518
   137  H    0.027561
   138  H    0.038661
   139  H    0.038653
   140  H    0.035477
   141  H    0.033625
   142  H    0.013635
   143  H    0.016611
   144  H    0.023028
   145  H    0.012124
   146  H    0.007566
   147  H    0.005675
   148  H    0.004857
   149  H    0.010237
   150  H    0.017478
   151  H    0.029895
   152  H    0.043307
   153  H    0.008728
   154  H    0.056277
   155  H    0.033487
   156  H    0.042985
   157  H    0.048979
   158  H    0.053701
 Sum of Mulliken charges =  -0.00000
 Mulliken charges with hydrogens summed into heavy atoms:
               1
     1  Mg   0.838914
     2  C   -0.002617
     3  C   -0.111945
     4  C   -0.063152
     5  C   -0.105463
     6  N   -0.256905
     7  C   -0.051808
     8  C   -0.012817
     9  C   -0.090657
    10  C    0.046376
    11  C    0.163485
    12  C    0.108601
    13  C    0.002938
    15  N   -0.433132
    16  C    0.168091
    17  C   -0.177685
    18  C   -0.005278
    19  C    0.148678
    20  C    0.180800
    21  C    0.010508
    22  O   -0.250014
    23  C    0.164431
    24  N   -0.341430
    25  C    0.041627
    26  C   -0.011637
    27  C   -0.014622
    28  C    0.075846
    29  C    0.116656
    30  C    0.045982
    31  C    0.054302
    32  N   -0.310630
    33  C    0.080934
    34  C   -0.170478
    35  C    0.008245
    36  C    0.083411
    37  C    0.230044
    38  C    0.045718
    39  O   -0.188254
    40  C    0.030379
    41  C    0.213110
    42  O   -0.258032
    43  O   -0.304712
    44  C    0.302275
    80  Mg   0.837375
    81  C   -0.017083
    82  C   -0.107680
    83  C   -0.061675
    84  C   -0.097152
    85  N   -0.254498
    86  C   -0.050156
    87  C   -0.017408
    88  C   -0.096298
    89  C    0.045041
    90  C    0.165500
    91  C    0.114911
    92  C   -0.004398
    94  N   -0.423471
    95  C    0.162021
    96  C   -0.174122
    97  C   -0.008288
    98  C    0.151783
    99  C    0.174066
   100  C    0.015163
   101  O   -0.254344
   102  C    0.169001
   103  N   -0.349887
   104  C    0.037029
   105  C   -0.006896
   106  C   -0.018984
   107  C    0.088595
   108  C    0.115112
   109  C    0.045107
   110  C    0.050084
   111  N   -0.324830
   112  C    0.078280
   113  C   -0.158106
   114  C    0.001963
   115  C    0.096833
   116  C    0.238168
   117  C    0.042888
   118  O   -0.189540
   119  C    0.034186
   120  C    0.210957
   121  O   -0.250928
   122  O   -0.306251
   123  C    0.297848
 Electronic spatial extent (au):  <R**2>=          87675.4968
 Charge=             -0.0000 electrons
 Dipole moment (field-independent basis, Debye):
    X=             -2.9511    Y=              1.6856    Z=              6.6707  Tot=              7.4865
 Quadrupole moment (field-independent basis, Debye-Ang):
   XX=           -519.5430   YY=           -523.3821   ZZ=           -476.2211
   XY=             16.2616   XZ=              2.7658   YZ=            -23.2817
 Traceless Quadrupole moment (field-independent basis, Debye-Ang):
   XX=            -13.1609   YY=            -17.0000   ZZ=             30.1610
   XY=             16.2616   XZ=              2.7658   YZ=            -23.2817
 Octapole moment (field-independent basis, Debye-Ang**2):
  XXX=           -136.6613  YYY=           -134.0928  ZZZ=            141.8918  XYY=           -150.4893
  XXY=             97.8168  XXZ=            169.1705  XZZ=            166.9332  YZZ=            -81.7335
  YYZ=             74.6814  XYZ=            171.3285
 Hexadecapole moment (field-independent basis, Debye-Ang**3):
 XXXX=         -53129.8785 YYYY=         -37421.5792 ZZZZ=         -28127.6860 XXXY=            281.1699
 XXXZ=            457.1209 YYYX=            610.3246 YYYZ=            323.4709 ZZZX=           -637.4840
 ZZZY=           -614.7804 XXYY=         -14901.6843 XXZZ=         -13242.4293 YYZZ=         -11374.2697
 XXYZ=           -756.5979 YYXZ=           1127.3083 ZZXY=           -614.4009
 N-N= 1.592228270797D+04 E-N=-4.132572719822D+04  KE= 4.028797163710D+03
 Leave Link  601 at Thu Sep  9 03:22:29 2021, MaxMem= 23488102400 cpu:              16.8 elap:               0.8
 (Enter /sw/apps/gaussian-16.0/g16/l9999.exe)
 1\1\GINC-BP1-COMPUTE00106\SP\RCAM-B3LYP TD-FC\def2SVP\C68H72Mg2N8O8\OF
 15641\09-Sep-2021\0\\#p cam-b3lyp/Def2SVP td=(nstates=5)\\TDDFT excite
 d states in gaussian\\0,1\Mg,0,0.,0.,0.\C,0,-0.217,-2.218,2.801\C,0,-1
 .255,2.442,2.026\C,0,-0.245,1.85,-2.564\C,0,0.146,-2.824,-2.037\N,0,-0
 .617,-0.009,2.126\C,0,-0.594,-0.908,3.105\C,0,-0.936,-0.309,4.502\C,0,
 -1.773,0.964,4.032\C,0,-1.155,1.168,2.66\C,0,-3.263,0.685,3.863\C,0,0.
 345,0.11,5.299\C,0,0.124,0.397,6.787\H,0,1.168,0.033,7.733\N,0,-0.185,
 1.961,-0.152\C,0,-0.703,2.8,0.777\C,0,-0.62,4.156,0.193\C,0,-0.187,4.0
 15,-1.225\C,0,-0.214,2.583,-1.38\C,0,-0.887,5.406,0.974\C,0,0.181,5.01
 3,-2.277\O,0,0.303,4.69,-3.508\C,0,0.31,6.414,-1.837\N,0,-0.265,-0.413
 ,-2.029\C,0,-0.279,0.569,-2.937\C,0,-0.196,0.024,-4.332\C,0,0.124,-1.5
 33,-4.18\C,0,0.086,-1.632,-2.635\C,0,-1.451,0.205,-5.197\C,0,1.373,-2.
 07,-4.923\C,0,2.626,-1.49,-4.306\N,0,0.15,-2.144,0.303\C,0,0.173,-3.13
 6,-0.688\C,0,0.173,-4.438,0.004\C,0,0.133,-4.111,1.358\C,0,0.083,-2.69
 5,1.502\C,0,0.149,-5.715,-0.623\C,0,0.096,-4.629,2.716\O,0,0.208,-5.74
 7,3.221\C,0,-0.255,-3.428,3.701\C,0,0.717,-3.482,4.848\O,0,1.931,-3.25
 5,4.669\O,0,0.038,-3.556,6.003\C,0,0.943,-3.583,7.183\H,0,-1.859,3.22,
 2.497\H,0,-0.218,2.453,-3.474\H,0,0.276,-3.747,-2.605\H,0,-1.554,-0.94
 9,5.132\H,0,-1.585,1.831,4.665\H,0,-3.484,-0.377,3.969\H,0,-3.511,1.02
 7,2.858\H,0,-3.852,1.301,4.543\H,0,0.669,1.096,4.966\H,0,1.13,-0.639,5
 .189\H,0,-0.844,0.026,7.125\H,0,0.062,1.477,6.921\H,0,-1.344,5.186,1.9
 38\H,0,-1.651,5.963,0.432\H,0,0.007,6.02,1.084\H,0,-0.635,6.744,-1.405
 \H,0,0.665,6.97,-2.704\H,0,1.048,6.466,-1.036\H,0,0.608,0.501,-4.891\H
 ,0,-0.692,-2.156,-4.547\H,0,-1.267,0.74,-6.129\H,0,-2.204,0.714,-4.596
 \H,0,-1.967,-0.72,-5.453\H,0,1.356,-1.759,-5.967\H,0,1.452,-3.157,-4.9
 02\H,0,2.714,-0.522,-4.798\H,0,3.487,-2.121,-4.529\H,0,2.495,-1.303,-3
 .24\H,0,0.867,-6.333,-0.084\H,0,0.404,-5.642,-1.68\H,0,-0.891,-5.999,-
 0.463\H,0,-1.283,-3.581,4.028\H,0,0.698,-4.478,7.755\H,0,0.833,-2.619,
 7.68\H,0,2.,-3.754,6.976\Mg,0,7.88971,0.71802,0.5986\C,0,7.30819,2.132
 14,3.84531\C,0,6.83941,3.68455,-0.71713\C,0,7.96085,-0.64166,-2.26735\
 C,0,7.78927,-2.42438,2.10225\N,0,7.19026,2.59114,1.54434\C,0,7.07001,3
 .0336,2.78697\C,0,6.75014,4.54817,2.9023\C,0,6.07541,4.76189,1.4608\C,
 0,6.76623,3.63348,0.69784\C,0,4.57883,4.49825,1.45178\C,0,8.04342,5.42
 141,3.06632\C,0,7.7919,6.86931,3.49305\H,0,8.75563,7.50984,4.38379\N,0
 ,7.93728,1.53474,-1.20951\C,0,7.48865,2.75774,-1.56203\C,0,7.7336,2.87
 48,-3.00787\C,0,8.21231,1.55845,-3.51062\C,0,8.0316,0.74254,-2.32667\C
 ,0,7.58765,4.16813,-3.75581\C,0,8.73299,1.1056,-4.84104\O,0,8.86728,-0
 .13729,-5.12395\C,0,8.99263,2.15665,-5.8357\N,0,7.66656,-1.24969,-0.03
 44\C,0,7.79489,-1.57719,-1.33217\C,0,7.86851,-3.07472,-1.51213\C,0,8.0
 0659,-3.67836,-0.03764\C,0,7.89427,-2.37379,0.78142\C,0,6.67478,-3.719
 62,-2.21605\C,0,9.21572,-4.61638,0.22843\C,0,10.5048,-3.83002,0.15557\
 N,0,7.78844,-0.03613,2.62074\C,0,7.73074,-1.38789,3.02509\C,0,7.55543,
 -1.39644,4.49194\C,0,7.49977,-0.03821,4.83922\C,0,7.61085,0.76027,3.66
 892\C,0,7.42154,-2.5557,5.30699\C,0,7.36164,0.90151,5.9285\O,0,7.319,0
 .80988,7.15469\C,0,7.10448,2.34694,5.31941\C,0,8.01838,3.31521,6.01924
 \O,0,9.25182,3.22962,5.8854\O,0,7.28344,4.30852,6.55175\C,0,8.14643,5.
 30013,7.24728\H,0,6.31455,4.48772,-1.23513\H,0,8.09203,-1.16171,-3.219
 1\H,0,7.84735,-3.36333,2.65693\H,0,6.04586,4.80545,3.68433\H,0,6.34286
 ,5.72712,1.03869\H,0,4.23513,4.09482,2.39266\H,0,4.40984,3.78931,0.651
 84\H,0,4.03786,5.40594,1.16933\H,0,8.48837,5.59156,2.07748\H,0,8.73188
 ,4.95866,3.74641\H,0,6.76971,7.0188,3.86146\H,0,7.85395,7.50759,2.6083
 1\H,0,7.06328,4.92251,-3.15635\H,0,6.91533,3.97581,-4.59894\H,0,8.5389
 4,4.54191,-4.14051\H,0,8.07603,2.7109,-6.02307\H,0,9.44354,1.64644,-6.
 68908\H,0,9.71019,2.86875,-5.41304\H,0,8.74225,-3.35244,-2.0888\H,0,7.
 13715,-4.29527,0.23316\H,0,6.95816,-4.29391,-3.11825\H,0,5.96583,-2.94
 197,-2.46743\H,0,6.07718,-4.38527,-1.59559\H,0,9.27665,-5.3847,-0.5462
 5\H,0,9.16449,-5.12646,1.18456\H,0,10.71612,-3.80145,-0.91756\H,0,11.2
 9635,-4.3407,0.70027\H,0,10.35493,-2.79678,0.48965\H,0,8.03644,-2.3936
 1,6.18227\H,0,7.71973,-3.45472,4.77162\H,0,6.34634,-2.53269,5.5037\H,0
 ,6.05285,2.58765,5.47977\H,0,7.77532,5.38245,8.27353\H,0,8.11299,6.213
 95,6.62473\H,0,9.18218,5.03075,7.4179\\Version=ES64L-G16RevA.03\State=
 1-A\HF=-4069.8124318\RMSD=7.972e-09\PG=C01 [X(C68H72Mg2N8O8)]\\@


 A leading authority is anyone who has guessed right more than once.
 -- Frank A. Clark
 Job cpu time:       0 days 17 hours 17 minutes 51.1 seconds.
 Elapsed time:       0 days  0 hours 43 minutes 56.1 seconds.
 File lengths (MBytes):  RWF=  13225 Int=      0 D2E=      0 Chk=    574 Scr=      1
 Normal termination of Gaussian 16 at Thu Sep  9 03:22:30 2021.
