 Entering Gaussian System, Link 0=g16
 Initial command:
 /sw/apps/gaussian-16.0/g16/l1.exe "/tmp/Gau-13989.inp" -scrdir="/tmp/"
 Entering Link 1 = /sw/apps/gaussian-16.0/g16/l1.exe PID=     13990.
  
 Copyright (c) 1988,1990,1992,1993,1995,1998,2003,2009,2016,
            Gaussian, Inc.  All Rights Reserved.
  
 This is part of the Gaussian(R) 16 program.  It is based on
 the Gaussian(R) 09 system (copyright 2009, Gaussian, Inc.),
 the Gaussian(R) 03 system (copyright 2003, Gaussian, Inc.),
 the Gaussian(R) 98 system (copyright 1998, Gaussian, Inc.),
 the Gaussian(R) 94 system (copyright 1995, Gaussian, Inc.),
 the Gaussian 92(TM) system (copyright 1992, Gaussian, Inc.),
 the Gaussian 90(TM) system (copyright 1990, Gaussian, Inc.),
 the Gaussian 88(TM) system (copyright 1988, Gaussian, Inc.),
 the Gaussian 86(TM) system (copyright 1986, Carnegie Mellon
 University), and the Gaussian 82(TM) system (copyright 1983,
 Carnegie Mellon University). Gaussian is a federally registered
 trademark of Gaussian, Inc.
  
 This software contains proprietary and confidential information,
 including trade secrets, belonging to Gaussian, Inc.
  
 This software is provided under written license and may be
 used, copied, transmitted, or stored only in accord with that
 written license.
  
 The following legend is applicable only to US Government
 contracts under FAR:
  
                    RESTRICTED RIGHTS LEGEND
  
 Use, reproduction and disclosure by the US Government is
 subject to restrictions as set forth in subparagraphs (a)
 and (c) of the Commercial Computer Software - Restricted
 Rights clause in FAR 52.227-19.
  
 Gaussian, Inc.
 340 Quinnipiac St., Bldg. 40, Wallingford CT 06492
  
  
 ---------------------------------------------------------------
 Warning -- This program may not be used in any manner that
 competes with the business of Gaussian, Inc. or will provide
 assistance to any competitor of Gaussian, Inc.  The licensee
 of this program is prohibited from giving any competitor of
 Gaussian, Inc. access to this program.  By using this program,
 the user acknowledges that Gaussian, Inc. is engaged in the
 business of creating and licensing software in the field of
 computational chemistry and represents and warrants to the
 licensee that it is not a competitor of Gaussian, Inc. and that
 it will not use this program in any manner prohibited above.
 ---------------------------------------------------------------
  

 Cite this work as:
 Gaussian 16, Revision A.03,
 M. J. Frisch, G. W. Trucks, H. B. Schlegel, G. E. Scuseria, 
 M. A. Robb, J. R. Cheeseman, G. Scalmani, V. Barone, 
 G. A. Petersson, H. Nakatsuji, X. Li, M. Caricato, A. V. Marenich, 
 J. Bloino, B. G. Janesko, R. Gomperts, B. Mennucci, H. P. Hratchian, 
 J. V. Ortiz, A. F. Izmaylov, J. L. Sonnenberg, D. Williams-Young, 
 F. Ding, F. Lipparini, F. Egidi, J. Goings, B. Peng, A. Petrone, 
 T. Henderson, D. Ranasinghe, V. G. Zakrzewski, J. Gao, N. Rega, 
 G. Zheng, W. Liang, M. Hada, M. Ehara, K. Toyota, R. Fukuda, 
 J. Hasegawa, M. Ishida, T. Nakajima, Y. Honda, O. Kitao, H. Nakai, 
 T. Vreven, K. Throssell, J. A. Montgomery, Jr., J. E. Peralta, 
 F. Ogliaro, M. J. Bearpark, J. J. Heyd, E. N. Brothers, K. N. Kudin, 
 V. N. Staroverov, T. A. Keith, R. Kobayashi, J. Normand, 
 K. Raghavachari, A. P. Rendell, J. C. Burant, S. S. Iyengar, 
 J. Tomasi, M. Cossi, J. M. Millam, M. Klene, C. Adamo, R. Cammi, 
 J. W. Ochterski, R. L. Martin, K. Morokuma, O. Farkas, 
 J. B. Foresman, and D. J. Fox, Gaussian, Inc., Wallingford CT, 2016.
 
 ******************************************
 Gaussian 16:  ES64L-G16RevA.03 25-Dec-2016
                10-Sep-2021 
 ******************************************
 %nproc=24
 Will use up to   24 processors via shared memory.
 %mem=175gb
 -----------------------------------
 #p cam-b3lyp/Def2SVP td=(nstates=5)
 -----------------------------------
 1/38=1,172=1/1;
 2/12=2,17=6,18=5,40=1/2;
 3/5=43,7=101,11=9,25=1,30=1,74=-40/1,2,3,8;
 4//1;
 5/5=2,38=5/2;
 8/6=1,10=1,108=5/1;
 9/41=5,42=1,70=2/14;
 6/7=2,8=2,9=2,10=2/1;
 99/5=1,9=1/99;
 Leave Link    1 at Fri Sep 10 00:18:16 2021, MaxMem= 23488102400 cpu:               0.9 elap:               0.0
 (Enter /sw/apps/gaussian-16.0/g16/l101.exe)
 --------------------------------
 TDDFT excited states in gaussian
 --------------------------------
 Symbolic Z-matrix:
 Charge =  0 Multiplicity = 1
 Mg                    0.        0.        0. 
 C                    -0.217    -2.218     2.801 
 C                    -1.255     2.442     2.026 
 C                    -0.245     1.85     -2.564 
 C                     0.146    -2.824    -2.037 
 N                    -0.617    -0.009     2.126 
 C                    -0.594    -0.908     3.105 
 C                    -0.936    -0.309     4.502 
 C                    -1.773     0.964     4.032 
 C                    -1.155     1.168     2.66 
 C                    -3.263     0.685     3.863 
 C                     0.345     0.11      5.299 
 C                     0.124     0.397     6.787 
 H                     1.168     0.033     7.733 
 N                    -0.185     1.961    -0.152 
 C                    -0.703     2.8       0.777 
 C                    -0.62      4.156     0.193 
 C                    -0.187     4.015    -1.225 
 C                    -0.214     2.583    -1.38 
 C                    -0.887     5.406     0.974 
 C                     0.181     5.013    -2.277 
 O                     0.303     4.69     -3.508 
 C                     0.31      6.414    -1.837 
 N                    -0.265    -0.413    -2.029 
 C                    -0.279     0.569    -2.937 
 C                    -0.196     0.024    -4.332 
 C                     0.124    -1.533    -4.18 
 C                     0.086    -1.632    -2.635 
 C                    -1.451     0.205    -5.197 
 C                     1.373    -2.07     -4.923 
 C                     2.626    -1.49     -4.306 
 N                     0.15     -2.144     0.303 
 C                     0.173    -3.136    -0.688 
 C                     0.173    -4.438     0.004 
 C                     0.133    -4.111     1.358 
 C                     0.083    -2.695     1.502 
 C                     0.149    -5.715    -0.623 
 C                     0.096    -4.629     2.716 
 O                     0.208    -5.747     3.221 
 C                    -0.255    -3.428     3.701 
 C                     0.717    -3.482     4.848 
 O                     1.931    -3.255     4.669 
 O                     0.038    -3.556     6.003 
 C                     0.943    -3.583     7.183 
 H                    -1.859     3.22      2.497 
 H                    -0.218     2.453    -3.474 
 H                     0.276    -3.747    -2.605 
 H                    -1.554    -0.949     5.132 
 H                    -1.585     1.831     4.665 
 H                    -3.484    -0.377     3.969 
 H                    -3.511     1.027     2.858 
 H                    -3.852     1.301     4.543 
 H                     0.669     1.096     4.966 
 H                     1.13     -0.639     5.189 
 H                    -0.844     0.026     7.125 
 H                     0.062     1.477     6.921 
 H                    -1.344     5.186     1.938 
 H                    -1.651     5.963     0.432 
 H                     0.007     6.02      1.084 
 H                    -0.635     6.744    -1.405 
 H                     0.665     6.97     -2.704 
 H                     1.048     6.466    -1.036 
 H                     0.608     0.501    -4.891 
 H                    -0.692    -2.156    -4.547 
 H                    -1.267     0.74     -6.129 
 H                    -2.204     0.714    -4.596 
 H                    -1.967    -0.72     -5.453 
 H                     1.356    -1.759    -5.967 
 H                     1.452    -3.157    -4.902 
 H                     2.714    -0.522    -4.798 
 H                     3.487    -2.121    -4.529 
 H                     2.495    -1.303    -3.24 
 H                     0.867    -6.333    -0.084 
 H                     0.404    -5.642    -1.68 
 H                    -0.891    -5.999    -0.463 
 H                    -1.283    -3.581     4.028 
 H                     0.698    -4.478     7.755 
 H                     0.833    -2.619     7.68 
 H                     2.       -3.754     6.976 
 Mg                    8.94332   0.809     0.68145 
 C                     10.01001  -1.32262   3.36425 
 C                     8.92665   3.3764    2.92707 
 C                     7.57633   2.61334  -1.54186 
 C                     7.95717  -2.0652   -1.02506 
 N                     9.4263    0.89137   2.83835 
 C                     9.8797    0.03124   3.73776 
 C                     10.28841   0.67171   5.0914 
 C                     9.37783   1.99239   5.01721 
 C                     9.26003   2.12316   3.50007 
 C                     7.98385   1.79519   5.58928 
 C                     11.81525   1.02908   5.14674 
 C                     12.34574   1.37022   6.541 
 H                     13.70605   0.96656   6.88612 
 N                     8.79954   2.78326   0.53929 
 C                     8.83538   3.67664   1.55016 
 C                     8.66786   4.99795   0.92548 
 C                     8.36528   4.79938  -0.51804 
 C                     8.2114    3.359    -0.5594 
 C                     8.87563   6.28338   1.67242 
 C                     8.22359   5.74992  -1.66808 
 O                     7.7231    5.38094  -2.78888 
 C                     8.60138   7.14778  -1.41362 
 N                     7.72405   0.3636   -0.94253 
 C                     7.31044   1.3292   -1.78186 
 C                     6.67957   0.74108  -3.02143 
 C                     6.97463  -0.82908  -2.95001 
 C                     7.67857  -0.89209  -1.57673 
 C                     5.17606   0.96965  -3.17509 
 C                     7.68487  -1.46813  -4.17469 
 C                     9.10102  -0.94938  -4.27867 
 N                     9.1312   -1.32182   0.98533 
 C                     8.62302  -2.34915   0.16044 
 C                     8.90265  -3.63106   0.83937 
 C                     9.53867  -3.25634   2.0325 
 C                     9.62963  -1.83988   2.10231 
 C                     8.53298  -4.92136   0.36548 
 C                     10.14425  -3.73649   3.25374 
 O                     10.43063  -4.84515   3.70385 
 C                     10.36307  -2.50073   4.22913 
 C                     11.76464  -2.57809   4.76962 
 O                     12.74225  -2.4445    4.01261 
 O                     11.71892  -2.57907   6.11434 
 C                     13.08572  -2.64355   6.69702 
 H                     8.66891   4.19967   3.59391 
 H                     7.18494   3.18363  -2.38748 
 H                     7.76887  -3.01087  -1.53782 
 H                     10.02767   0.08899   5.96675 
 H                     9.89461   2.85245   5.43506 
 H                     7.79542   0.76297   5.84455 
 H                     7.30004   2.12513   4.81818 
 H                     7.8266    2.46605   6.43873 
 H                     11.97621   1.99133   4.64385 
 H                     12.40622   0.24352   4.71748 
 H                     11.6452   1.07595   7.33195 
 H                     12.4106   2.45726   6.63122 
 H                     8.92735   6.11555   2.75527 
 H                     7.97007   6.88384   1.53357 
 H                     9.73465   6.84942   1.30588 
 H                     8.00011   7.54155  -0.5976 
 H                     8.51638   7.65355  -2.37739 
 H                     9.6438    7.17272  -1.07694 
 H                     7.13696   1.14424  -3.91661 
 H                     6.0479   -1.41392  -2.85522 
 H                     4.90613   1.47745  -4.12026 
 H                     4.82886   1.54048  -2.32413 
 H                     4.56396   0.0713   -3.11594 
 H                     7.17953  -1.1784   -5.09927 
 H                     7.70518  -2.55242  -4.14495 
 H                     8.97695   0.00367  -4.80155 
 H                     9.7196   -1.63668  -4.85228 
 H                     9.51362  -0.73006  -3.28706 
 H                     9.38605  -5.56755   0.52429 
 H                     8.24508  -4.89227  -0.68335 
 H                     7.68236  -5.13281   1.01893 
 H                     9.61498  -2.57091   5.01971 
 H                     13.10687  -3.50853   7.36713 
 H                     13.26428  -1.6505    7.15058 
 H                     13.9057  -2.8748    6.02724 
 
 ITRead=  0  0  0  0  0  0  0  0  0  0  0  0  0  0  0  0  0  0  0  0
 ITRead=  0  0  0  0  0  0  0  0  0  0  0  0  0  0  0  0  0  0  0  0
 ITRead=  0  0  0  0  0  0  0  0  0  0  0  0  0  0  0  0  0  0  0  0
 ITRead=  0  0  0  0  0  0  0  0  0  0  0  0  0  0  0  0  0  0  0  0
 ITRead=  0  0  0  0  0  0  0  0  0  0  0  0  0  0  0  0  0  0  0  0
 ITRead=  0  0  0  0  0  0  0  0  0  0  0  0  0  0  0  0  0  0  0  0
 ITRead=  0  0  0  0  0  0  0  0  0  0  0  0  0  0  0  0  0  0  0  0
 ITRead=  0  0  0  0  0  0  0  0  0  0  0  0  0  0  0  0  0  0
 MicOpt= -1 -1 -1 -1 -1 -1 -1 -1 -1 -1 -1 -1 -1 -1 -1 -1 -1 -1 -1 -1
 MicOpt= -1 -1 -1 -1 -1 -1 -1 -1 -1 -1 -1 -1 -1 -1 -1 -1 -1 -1 -1 -1
 MicOpt= -1 -1 -1 -1 -1 -1 -1 -1 -1 -1 -1 -1 -1 -1 -1 -1 -1 -1 -1 -1
 MicOpt= -1 -1 -1 -1 -1 -1 -1 -1 -1 -1 -1 -1 -1 -1 -1 -1 -1 -1 -1 -1
 MicOpt= -1 -1 -1 -1 -1 -1 -1 -1 -1 -1 -1 -1 -1 -1 -1 -1 -1 -1 -1 -1
 MicOpt= -1 -1 -1 -1 -1 -1 -1 -1 -1 -1 -1 -1 -1 -1 -1 -1 -1 -1 -1 -1
 MicOpt= -1 -1 -1 -1 -1 -1 -1 -1 -1 -1 -1 -1 -1 -1 -1 -1 -1 -1 -1 -1
 MicOpt= -1 -1 -1 -1 -1 -1 -1 -1 -1 -1 -1 -1 -1 -1 -1 -1 -1 -1
 NAtoms=    158 NQM=      158 NQMF=       0 NMMI=      0 NMMIF=      0
                NMic=       0 NMicF=      0.
                    Isotopes and Nuclear Properties:
 (Nuclear quadrupole moments (NQMom) in fm**2, nuclear magnetic moments (NMagM)
  in nuclear magnetons)

  Atom         1           2           3           4           5           6           7           8           9          10
 IAtWgt=          24          12          12          12          12          14          12          12          12          12
 AtmWgt=  23.9850450  12.0000000  12.0000000  12.0000000  12.0000000  14.0030740  12.0000000  12.0000000  12.0000000  12.0000000
 NucSpn=           0           0           0           0           0           2           0           0           0           0
 AtZEff=  -0.0000000  -0.0000000  -0.0000000  -0.0000000  -0.0000000  -0.0000000  -0.0000000  -0.0000000  -0.0000000  -0.0000000
 NQMom=    0.0000000   0.0000000   0.0000000   0.0000000   0.0000000   2.0440000   0.0000000   0.0000000   0.0000000   0.0000000
 NMagM=    0.0000000   0.0000000   0.0000000   0.0000000   0.0000000   0.4037610   0.0000000   0.0000000   0.0000000   0.0000000
 AtZNuc=  12.0000000   6.0000000   6.0000000   6.0000000   6.0000000   7.0000000   6.0000000   6.0000000   6.0000000   6.0000000

  Atom        11          12          13          14          15          16          17          18          19          20
 IAtWgt=          12          12          12           1          14          12          12          12          12          12
 AtmWgt=  12.0000000  12.0000000  12.0000000   1.0078250  14.0030740  12.0000000  12.0000000  12.0000000  12.0000000  12.0000000
 NucSpn=           0           0           0           1           2           0           0           0           0           0
 AtZEff=  -0.0000000  -0.0000000  -0.0000000  -0.0000000  -0.0000000  -0.0000000  -0.0000000  -0.0000000  -0.0000000  -0.0000000
 NQMom=    0.0000000   0.0000000   0.0000000   0.0000000   2.0440000   0.0000000   0.0000000   0.0000000   0.0000000   0.0000000
 NMagM=    0.0000000   0.0000000   0.0000000   2.7928460   0.4037610   0.0000000   0.0000000   0.0000000   0.0000000   0.0000000
 AtZNuc=   6.0000000   6.0000000   6.0000000   1.0000000   7.0000000   6.0000000   6.0000000   6.0000000   6.0000000   6.0000000

  Atom        21          22          23          24          25          26          27          28          29          30
 IAtWgt=          12          16          12          14          12          12          12          12          12          12
 AtmWgt=  12.0000000  15.9949146  12.0000000  14.0030740  12.0000000  12.0000000  12.0000000  12.0000000  12.0000000  12.0000000
 NucSpn=           0           0           0           2           0           0           0           0           0           0
 AtZEff=  -0.0000000  -0.0000000  -0.0000000  -0.0000000  -0.0000000  -0.0000000  -0.0000000  -0.0000000  -0.0000000  -0.0000000
 NQMom=    0.0000000   0.0000000   0.0000000   2.0440000   0.0000000   0.0000000   0.0000000   0.0000000   0.0000000   0.0000000
 NMagM=    0.0000000   0.0000000   0.0000000   0.4037610   0.0000000   0.0000000   0.0000000   0.0000000   0.0000000   0.0000000
 AtZNuc=   6.0000000   8.0000000   6.0000000   7.0000000   6.0000000   6.0000000   6.0000000   6.0000000   6.0000000   6.0000000

  Atom        31          32          33          34          35          36          37          38          39          40
 IAtWgt=          12          14          12          12          12          12          12          12          16          12
 AtmWgt=  12.0000000  14.0030740  12.0000000  12.0000000  12.0000000  12.0000000  12.0000000  12.0000000  15.9949146  12.0000000
 NucSpn=           0           2           0           0           0           0           0           0           0           0
 AtZEff=  -0.0000000  -0.0000000  -0.0000000  -0.0000000  -0.0000000  -0.0000000  -0.0000000  -0.0000000  -0.0000000  -0.0000000
 NQMom=    0.0000000   2.0440000   0.0000000   0.0000000   0.0000000   0.0000000   0.0000000   0.0000000   0.0000000   0.0000000
 NMagM=    0.0000000   0.4037610   0.0000000   0.0000000   0.0000000   0.0000000   0.0000000   0.0000000   0.0000000   0.0000000
 AtZNuc=   6.0000000   7.0000000   6.0000000   6.0000000   6.0000000   6.0000000   6.0000000   6.0000000   8.0000000   6.0000000

  Atom        41          42          43          44          45          46          47          48          49          50
 IAtWgt=          12          16          16          12           1           1           1           1           1           1
 AtmWgt=  12.0000000  15.9949146  15.9949146  12.0000000   1.0078250   1.0078250   1.0078250   1.0078250   1.0078250   1.0078250
 NucSpn=           0           0           0           0           1           1           1           1           1           1
 AtZEff=  -0.0000000  -0.0000000  -0.0000000  -0.0000000  -0.0000000  -0.0000000  -0.0000000  -0.0000000  -0.0000000  -0.0000000
 NQMom=    0.0000000   0.0000000   0.0000000   0.0000000   0.0000000   0.0000000   0.0000000   0.0000000   0.0000000   0.0000000
 NMagM=    0.0000000   0.0000000   0.0000000   0.0000000   2.7928460   2.7928460   2.7928460   2.7928460   2.7928460   2.7928460
 AtZNuc=   6.0000000   8.0000000   8.0000000   6.0000000   1.0000000   1.0000000   1.0000000   1.0000000   1.0000000   1.0000000

  Atom        51          52          53          54          55          56          57          58          59          60
 IAtWgt=           1           1           1           1           1           1           1           1           1           1
 AtmWgt=   1.0078250   1.0078250   1.0078250   1.0078250   1.0078250   1.0078250   1.0078250   1.0078250   1.0078250   1.0078250
 NucSpn=           1           1           1           1           1           1           1           1           1           1
 AtZEff=  -0.0000000  -0.0000000  -0.0000000  -0.0000000  -0.0000000  -0.0000000  -0.0000000  -0.0000000  -0.0000000  -0.0000000
 NQMom=    0.0000000   0.0000000   0.0000000   0.0000000   0.0000000   0.0000000   0.0000000   0.0000000   0.0000000   0.0000000
 NMagM=    2.7928460   2.7928460   2.7928460   2.7928460   2.7928460   2.7928460   2.7928460   2.7928460   2.7928460   2.7928460
 AtZNuc=   1.0000000   1.0000000   1.0000000   1.0000000   1.0000000   1.0000000   1.0000000   1.0000000   1.0000000   1.0000000

  Atom        61          62          63          64          65          66          67          68          69          70
 IAtWgt=           1           1           1           1           1           1           1           1           1           1
 AtmWgt=   1.0078250   1.0078250   1.0078250   1.0078250   1.0078250   1.0078250   1.0078250   1.0078250   1.0078250   1.0078250
 NucSpn=           1           1           1           1           1           1           1           1           1           1
 AtZEff=  -0.0000000  -0.0000000  -0.0000000  -0.0000000  -0.0000000  -0.0000000  -0.0000000  -0.0000000  -0.0000000  -0.0000000
 NQMom=    0.0000000   0.0000000   0.0000000   0.0000000   0.0000000   0.0000000   0.0000000   0.0000000   0.0000000   0.0000000
 NMagM=    2.7928460   2.7928460   2.7928460   2.7928460   2.7928460   2.7928460   2.7928460   2.7928460   2.7928460   2.7928460
 AtZNuc=   1.0000000   1.0000000   1.0000000   1.0000000   1.0000000   1.0000000   1.0000000   1.0000000   1.0000000   1.0000000

  Atom        71          72          73          74          75          76          77          78          79          80
 IAtWgt=           1           1           1           1           1           1           1           1           1          24
 AtmWgt=   1.0078250   1.0078250   1.0078250   1.0078250   1.0078250   1.0078250   1.0078250   1.0078250   1.0078250  23.9850450
 NucSpn=           1           1           1           1           1           1           1           1           1           0
 AtZEff=  -0.0000000  -0.0000000  -0.0000000  -0.0000000  -0.0000000  -0.0000000  -0.0000000  -0.0000000  -0.0000000  -0.0000000
 NQMom=    0.0000000   0.0000000   0.0000000   0.0000000   0.0000000   0.0000000   0.0000000   0.0000000   0.0000000   0.0000000
 NMagM=    2.7928460   2.7928460   2.7928460   2.7928460   2.7928460   2.7928460   2.7928460   2.7928460   2.7928460   0.0000000
 AtZNuc=   1.0000000   1.0000000   1.0000000   1.0000000   1.0000000   1.0000000   1.0000000   1.0000000   1.0000000  12.0000000

  Atom        81          82          83          84          85          86          87          88          89          90
 IAtWgt=          12          12          12          12          14          12          12          12          12          12
 AtmWgt=  12.0000000  12.0000000  12.0000000  12.0000000  14.0030740  12.0000000  12.0000000  12.0000000  12.0000000  12.0000000
 NucSpn=           0           0           0           0           2           0           0           0           0           0
 AtZEff=  -0.0000000  -0.0000000  -0.0000000  -0.0000000  -0.0000000  -0.0000000  -0.0000000  -0.0000000  -0.0000000  -0.0000000
 NQMom=    0.0000000   0.0000000   0.0000000   0.0000000   2.0440000   0.0000000   0.0000000   0.0000000   0.0000000   0.0000000
 NMagM=    0.0000000   0.0000000   0.0000000   0.0000000   0.4037610   0.0000000   0.0000000   0.0000000   0.0000000   0.0000000
 AtZNuc=   6.0000000   6.0000000   6.0000000   6.0000000   7.0000000   6.0000000   6.0000000   6.0000000   6.0000000   6.0000000

  Atom        91          92          93          94          95          96          97          98          99         100
 IAtWgt=          12          12           1          14          12          12          12          12          12          12
 AtmWgt=  12.0000000  12.0000000   1.0078250  14.0030740  12.0000000  12.0000000  12.0000000  12.0000000  12.0000000  12.0000000
 NucSpn=           0           0           1           2           0           0           0           0           0           0
 AtZEff=  -0.0000000  -0.0000000  -0.0000000  -0.0000000  -0.0000000  -0.0000000  -0.0000000  -0.0000000  -0.0000000  -0.0000000
 NQMom=    0.0000000   0.0000000   0.0000000   2.0440000   0.0000000   0.0000000   0.0000000   0.0000000   0.0000000   0.0000000
 NMagM=    0.0000000   0.0000000   2.7928460   0.4037610   0.0000000   0.0000000   0.0000000   0.0000000   0.0000000   0.0000000
 AtZNuc=   6.0000000   6.0000000   1.0000000   7.0000000   6.0000000   6.0000000   6.0000000   6.0000000   6.0000000   6.0000000

  Atom       101         102         103         104         105         106         107         108         109         110
 IAtWgt=          16          12          14          12          12          12          12          12          12          12
 AtmWgt=  15.9949146  12.0000000  14.0030740  12.0000000  12.0000000  12.0000000  12.0000000  12.0000000  12.0000000  12.0000000
 NucSpn=           0           0           2           0           0           0           0           0           0           0
 AtZEff=  -0.0000000  -0.0000000  -0.0000000  -0.0000000  -0.0000000  -0.0000000  -0.0000000  -0.0000000  -0.0000000  -0.0000000
 NQMom=    0.0000000   0.0000000   2.0440000   0.0000000   0.0000000   0.0000000   0.0000000   0.0000000   0.0000000   0.0000000
 NMagM=    0.0000000   0.0000000   0.4037610   0.0000000   0.0000000   0.0000000   0.0000000   0.0000000   0.0000000   0.0000000
 AtZNuc=   8.0000000   6.0000000   7.0000000   6.0000000   6.0000000   6.0000000   6.0000000   6.0000000   6.0000000   6.0000000

  Atom       111         112         113         114         115         116         117         118         119         120
 IAtWgt=          14          12          12          12          12          12          12          16          12          12
 AtmWgt=  14.0030740  12.0000000  12.0000000  12.0000000  12.0000000  12.0000000  12.0000000  15.9949146  12.0000000  12.0000000
 NucSpn=           2           0           0           0           0           0           0           0           0           0
 AtZEff=  -0.0000000  -0.0000000  -0.0000000  -0.0000000  -0.0000000  -0.0000000  -0.0000000  -0.0000000  -0.0000000  -0.0000000
 NQMom=    2.0440000   0.0000000   0.0000000   0.0000000   0.0000000   0.0000000   0.0000000   0.0000000   0.0000000   0.0000000
 NMagM=    0.4037610   0.0000000   0.0000000   0.0000000   0.0000000   0.0000000   0.0000000   0.0000000   0.0000000   0.0000000
 AtZNuc=   7.0000000   6.0000000   6.0000000   6.0000000   6.0000000   6.0000000   6.0000000   8.0000000   6.0000000   6.0000000

  Atom       121         122         123         124         125         126         127         128         129         130
 IAtWgt=          16          16          12           1           1           1           1           1           1           1
 AtmWgt=  15.9949146  15.9949146  12.0000000   1.0078250   1.0078250   1.0078250   1.0078250   1.0078250   1.0078250   1.0078250
 NucSpn=           0           0           0           1           1           1           1           1           1           1
 AtZEff=  -0.0000000  -0.0000000  -0.0000000  -0.0000000  -0.0000000  -0.0000000  -0.0000000  -0.0000000  -0.0000000  -0.0000000
 NQMom=    0.0000000   0.0000000   0.0000000   0.0000000   0.0000000   0.0000000   0.0000000   0.0000000   0.0000000   0.0000000
 NMagM=    0.0000000   0.0000000   0.0000000   2.7928460   2.7928460   2.7928460   2.7928460   2.7928460   2.7928460   2.7928460
 AtZNuc=   8.0000000   8.0000000   6.0000000   1.0000000   1.0000000   1.0000000   1.0000000   1.0000000   1.0000000   1.0000000

  Atom       131         132         133         134         135         136         137         138         139         140
 IAtWgt=           1           1           1           1           1           1           1           1           1           1
 AtmWgt=   1.0078250   1.0078250   1.0078250   1.0078250   1.0078250   1.0078250   1.0078250   1.0078250   1.0078250   1.0078250
 NucSpn=           1           1           1           1           1           1           1           1           1           1
 AtZEff=  -0.0000000  -0.0000000  -0.0000000  -0.0000000  -0.0000000  -0.0000000  -0.0000000  -0.0000000  -0.0000000  -0.0000000
 NQMom=    0.0000000   0.0000000   0.0000000   0.0000000   0.0000000   0.0000000   0.0000000   0.0000000   0.0000000   0.0000000
 NMagM=    2.7928460   2.7928460   2.7928460   2.7928460   2.7928460   2.7928460   2.7928460   2.7928460   2.7928460   2.7928460
 AtZNuc=   1.0000000   1.0000000   1.0000000   1.0000000   1.0000000   1.0000000   1.0000000   1.0000000   1.0000000   1.0000000

  Atom       141         142         143         144         145         146         147         148         149         150
 IAtWgt=           1           1           1           1           1           1           1           1           1           1
 AtmWgt=   1.0078250   1.0078250   1.0078250   1.0078250   1.0078250   1.0078250   1.0078250   1.0078250   1.0078250   1.0078250
 NucSpn=           1           1           1           1           1           1           1           1           1           1
 AtZEff=  -0.0000000  -0.0000000  -0.0000000  -0.0000000  -0.0000000  -0.0000000  -0.0000000  -0.0000000  -0.0000000  -0.0000000
 NQMom=    0.0000000   0.0000000   0.0000000   0.0000000   0.0000000   0.0000000   0.0000000   0.0000000   0.0000000   0.0000000
 NMagM=    2.7928460   2.7928460   2.7928460   2.7928460   2.7928460   2.7928460   2.7928460   2.7928460   2.7928460   2.7928460
 AtZNuc=   1.0000000   1.0000000   1.0000000   1.0000000   1.0000000   1.0000000   1.0000000   1.0000000   1.0000000   1.0000000

  Atom       151         152         153         154         155         156         157         158
 IAtWgt=           1           1           1           1           1           1           1           1
 AtmWgt=   1.0078250   1.0078250   1.0078250   1.0078250   1.0078250   1.0078250   1.0078250   1.0078250
 NucSpn=           1           1           1           1           1           1           1           1
 AtZEff=  -0.0000000  -0.0000000  -0.0000000  -0.0000000  -0.0000000  -0.0000000  -0.0000000  -0.0000000
 NQMom=    0.0000000   0.0000000   0.0000000   0.0000000   0.0000000   0.0000000   0.0000000   0.0000000
 NMagM=    2.7928460   2.7928460   2.7928460   2.7928460   2.7928460   2.7928460   2.7928460   2.7928460
 AtZNuc=   1.0000000   1.0000000   1.0000000   1.0000000   1.0000000   1.0000000   1.0000000   1.0000000
 Leave Link  101 at Fri Sep 10 00:18:16 2021, MaxMem= 23488102400 cpu:               3.4 elap:               0.2
 (Enter /sw/apps/gaussian-16.0/g16/l202.exe)
 Stoichiometry    C68H72Mg2N8O8
 Framework group  C1[X(C68H72Mg2N8O8)]
 Deg. of freedom   468
 Full point group                 C1      NOp   1
 Largest Abelian subgroup         C1      NOp   1
 Largest concise Abelian subgroup C1      NOp   1
                         Standard orientation:                         
 ---------------------------------------------------------------------
 Center     Atomic      Atomic             Coordinates (Angstroms)
 Number     Number       Type             X           Y           Z
 ---------------------------------------------------------------------
      1         12           0       -4.638507    0.155829   -0.090711
      2          6           0       -4.130141    3.688214   -0.366457
      3          6           0       -5.343268    0.146905   -3.429319
      4          6           0       -5.532435   -2.871212    0.216755
      5          6           0       -5.008071    0.626027    3.342654
      6          7           0       -4.694430    1.775522   -1.598728
      7          6           0       -4.420830    3.076366   -1.587844
      8          6           0       -4.397808    3.714770   -3.008859
      9          6           0       -5.330142    2.668957   -3.769798
     10          6           0       -5.081976    1.446905   -2.903239
     11          6           0       -6.813391    3.019712   -3.711101
     12          6           0       -2.957315    3.749821   -3.621624
     13          6           0       -2.793313    4.643245   -4.854609
     14          1           0       -1.542085    5.363562   -5.036042
     15          7           0       -4.861194   -1.258839   -1.451584
     16          6           0       -5.128047   -1.081528   -2.767881
     17          6           0       -5.199854   -2.436672   -3.355342
     18          6           0       -5.141404   -3.420379   -2.238652
     19          6           0       -5.203209   -2.544423   -1.096610
     20          6           0       -5.262678   -2.691931   -4.830010
     21          6           0       -5.055691   -4.913604   -2.206005
     22          8           0       -5.249973   -5.582767   -1.134068
     23          6           0       -4.822669   -5.586612   -3.496665
     24          7           0       -5.409800   -0.941598    1.508787
     25          6           0       -5.656853   -2.250907    1.391909
     26          6           0       -5.929988   -2.876385    2.727616
     27          6           0       -5.577794   -1.763498    3.817202
     28          6           0       -5.221308   -0.599968    2.859400
     29          6           0       -7.364196   -3.374882    2.952466
     30          6           0       -4.557463   -2.153268    4.916030
     31          6           0       -3.190252   -2.350005    4.300298
     32          7           0       -4.410784    1.808701    1.297526
     33          6           0       -4.638021    1.785070    2.681173
     34          6           0       -4.458614    3.163819    3.172021
     35          6           0       -4.153754    3.901567    2.029816
     36          6           0       -4.169173    3.043224    0.893462
     37          6           0       -4.637977    3.600538    4.514236
     38          6           0       -3.842773    5.219926    1.501536
     39          8           0       -3.603094    6.320008    2.001401
     40          6           0       -3.934818    5.157671   -0.087011
     41          6           0       -2.702904    5.820919   -0.640001
     42          8           0       -1.574957    5.312200   -0.477809
     43          8           0       -3.065597    6.812506   -1.468102
     44          6           0       -1.890156    7.493067   -2.074178
     45          1           0       -5.809627    0.059341   -4.412570
     46          1           0       -5.739358   -3.930200    0.384579
     47          1           0       -5.024415    0.833203    4.414225
     48          1           0       -4.833569    4.712401   -3.066035
     49          1           0       -4.989578    2.486392   -4.788822
     50          1           0       -6.997392    3.862644   -3.045120
     51          1           0       -7.309751    2.123894   -3.337431
     52          1           0       -7.211661    3.187488   -4.712105
     53          1           0       -2.731242    2.779676   -4.064085
     54          1           0       -2.224163    4.038032   -2.867470
     55          1           0       -3.642535    5.316516   -4.974766
     56          1           0       -2.822005    4.010073   -5.741441
     57          1           0       -5.458874   -1.776552   -5.386906
     58          1           0       -6.140860   -3.312081   -5.008671
     59          1           0       -4.371705   -3.201996   -5.196525
     60          1           0       -5.627564   -5.331203   -4.186200
     61          1           0       -4.701320   -6.644523   -3.266558
     62          1           0       -3.905341   -5.195921   -3.938047
     63          1           0       -5.295861   -3.747236    2.888637
     64          1           0       -6.458678   -1.442963    4.373955
     65          1           0       -7.424702   -4.432215    3.211484
     66          1           0       -7.940888   -3.158841    2.053553
     67          1           0       -7.925928   -2.825581    3.707545
     68          1           0       -4.840261   -3.098584    5.377926
     69          1           0       -4.472887   -1.409269    5.708219
     70          1           0       -3.232812   -3.375695    3.935632
     71          1           0       -2.412649   -2.236407    5.056367
     72          1           0       -3.046288   -1.702338    3.435262
     73          1           0       -3.804886    4.268934    4.731433
     74          1           0       -4.660408    2.758049    5.205113
     75          1           0       -5.602332    4.102315    4.436158
     76          1           0       -4.845432    5.685213   -0.369152
     77          1           0       -1.979274    8.554548   -1.842771
     78          1           0       -1.872635    7.204056   -3.125164
     79          1           0       -0.920129    7.266412   -1.630315
     80         12           0        4.181866   -1.591606    0.408602
     81          6           0        5.901409    1.558104    0.369300
     82          6           0        4.730238   -1.763382   -2.953601
     83          6           0        2.289628   -4.137335    0.330411
     84          6           0        2.801584   -0.642274    3.464626
     85          7           0        5.197363   -0.218558   -0.997021
     86          6           0        5.866861    0.919044   -0.887615
     87          6           0        6.604763    1.358002   -2.180829
     88          6           0        5.701822    0.572228   -3.251395
     89          6           0        5.201664   -0.564256   -2.362048
     90          6           0        4.499716    1.371207   -3.726692
     91          6           0        8.094526    0.866624   -2.215027
     92          6           0        8.961315    1.516285   -3.295941
     93          1           0       10.365716    1.781145   -2.995940
     94          7           0        4.001511   -3.016132   -0.961355
     95          6           0        4.290964   -2.922013   -2.276129
     96          6           0        3.966621   -4.235189   -2.854505
     97          6           0        3.307344   -5.059799   -1.805645
     98          6           0        3.151759   -4.074285   -0.754626
     99          6           0        4.354194   -4.627559   -4.250661
    100          6           0        2.875319   -6.494225   -1.761250
    101          8           0        2.107172   -6.937757   -0.836016
    102          6           0        3.301763   -7.342387   -2.883861
    103          7           0        2.590795   -2.202860    1.599053
    104          6           0        1.974785   -3.377762    1.379809
    105          6           0        1.050908   -3.730593    2.521026
    106          6           0        1.358521   -2.660811    3.669288
    107          6           0        2.388771   -1.781779    2.926800
    108          6           0       -0.442827   -3.713902    2.197185
    109          6           0        1.735561   -3.219302    5.068786
    110          6           0        3.077331   -3.912681    5.003401
    111          7           0        4.446413    0.045774    1.793173
    112          6           0        3.747811    0.262791    3.001045
    113          6           0        4.194273    1.566243    3.534072
    114          6           0        5.111874    2.031446    2.580086
    115          6           0        5.213908    1.094128    1.516822
    116          6           0        3.719588    2.184649    4.725017
    117          6           0        6.009415    3.107263    2.225491
    118          8           0        6.403752    4.129637    2.784944
    119          6           0        6.465912    2.907794    0.716122
    120          6           0        7.959059    3.079262    0.655920
    121          8           0        8.711615    2.271436    1.228378
    122          8           0        8.256881    4.036025   -0.242005
    123          6           0        9.727099    4.234913   -0.345534
    124          1           0        4.648445   -1.808744   -4.039939
    125          1           0        1.694538   -5.050262    0.407367
    126          1           0        2.491519   -0.321082    4.461305
    127          1           0        6.576768    2.422443   -2.380749
    128          1           0        6.305645    0.181274   -4.066206
    129          1           0        4.385103    2.292841   -3.175691
    130          1           0        3.641406    0.730026   -3.574239
    131          1           0        4.561952    1.540025   -4.805568
    132          1           0        8.119771   -0.176460   -2.555719
    133          1           0        8.558920    0.991213   -1.256158
    134          1           0        8.485766    2.406144   -3.726009
    135          1           0        9.044156    0.823702   -4.137052
    136          1           0        4.680079   -3.759357   -4.836690
    137          1           0        3.441539   -4.966886   -4.752444
    138          1           0        5.090253   -5.434037   -4.272567
    139          1           0        2.926803   -6.924367   -3.815060
    140          1           0        2.973101   -8.351752   -2.628824
    141          1           0        4.395466   -7.317328   -2.945504
    142          1           0        1.264509   -4.722914    2.898867
    143          1           0        0.487908   -2.020276    3.873249
    144          1           0       -0.945611   -4.676938    2.406566
    145          1           0       -0.563649   -3.440002    1.157517
    146          1           0       -1.017408   -2.942790    2.707519
    147          1           0        1.010917   -3.974513    5.382964
    148          1           0        1.765593   -2.460015    5.843100
    149          1           0        2.821861   -4.910205    4.633560
    150          1           0        3.531455   -3.962227    5.991008
    151          1           0        3.728009   -3.441296    4.257717
    152          1           0        4.586677    2.579165    5.237877
    153          1           0        3.174307    1.479583    5.348979
    154          1           0        3.063707    2.949025    4.299798
    155          1           0        5.943700    3.652915    0.114733
    156          1           0        9.920254    5.295165   -0.155158
    157          1           0       10.012563    3.841402   -1.339218
    158          1           0       10.350349    3.767768    0.407980
 ---------------------------------------------------------------------
 Rotational constants (GHZ):           0.0219935           0.0136675           0.0117433
 Leave Link  202 at Fri Sep 10 00:18:16 2021, MaxMem= 23488102400 cpu:               0.2 elap:               0.0
 (Enter /sw/apps/gaussian-16.0/g16/l301.exe)
 Standard basis: def2SVP (5D, 7F)
 Ernie: Thresh=  0.10000D-02 Tol=  0.10000D-05 Strict=F.
 There are  1658 symmetry adapted cartesian basis functions of A   symmetry.
 There are  1572 symmetry adapted basis functions of A   symmetry.
  1572 basis functions,  2678 primitive gaussians,  1658 cartesian basis functions
   312 alpha electrons      312 beta electrons
       nuclear repulsion energy     15480.4085330591 Hartrees.
 IExCor=20419 DFT=T Ex+Corr=CAM-B3LYP ExCW=0 ScaHFX=  1.000000
 ScaDFX=  1.000000  1.000000  1.000000  0.810000 ScalE2=  1.000000  1.000000
 IRadAn=      5 IRanWt=     -1 IRanGd=            0 ICorTp=0 IEmpDi=  4
 HFx  wShort=  0.000000 wLong=  0.330000 cFull=  0.190000 cShort=  0.000000 cLong=  0.460000
 DFx  wShort=  0.000000 wLong=  0.330000 cFull=  0.190000 cShort=  0.000000 cLong=  0.460000
 NAtoms=  158 NActive=  158 NUniq=  158 SFac= 1.00D+00 NAtFMM=   60 NAOKFM=T Big=T
 Integral buffers will be    131072 words long.
 Raffenetti 1 integral format.
 Two-electron integral symmetry is turned on.
 Leave Link  301 at Fri Sep 10 00:18:16 2021, MaxMem= 23488102400 cpu:               1.3 elap:               0.1
 (Enter /sw/apps/gaussian-16.0/g16/l302.exe)
 NPDir=0 NMtPBC=     1 NCelOv=     1 NCel=       1 NClECP=     1 NCelD=      1
         NCelK=      1 NCelE2=     1 NClLst=     1 CellRange=     0.0.
 One-electron integrals computed using PRISM.
 One-electron integral symmetry used in STVInt
   1 Symmetry operations used in ECPInt.
 ECPInt:  NShTT=  271216 NPrTT=  987664 LenC2=  152324 LenP2D=  318953.
 LDataN:  DoStor=T MaxTD1= 4 Len=   56
 NBasis=  1572 RedAO= T EigKep=  3.36D-04  NBF=  1572
 NBsUse=  1572 1.00D-06 EigRej= -1.00D+00 NBFU=  1572
 Precomputing XC quadrature grid using
 IXCGrd= 4 IRadAn=           5 IRanWt=          -1 IRanGd=           0 AccXCQ= 0.00D+00.
 Generated NRdTot=       0 NPtTot=           0 NUsed=           0 NTot=          32
 NSgBfM=  1212  1193  1198  1206  1212 MxSgAt=   158 MxSgA2=   157.
 Leave Link  302 at Fri Sep 10 00:18:22 2021, MaxMem= 23488102400 cpu:             128.5 elap:               5.4
 (Enter /sw/apps/gaussian-16.0/g16/l303.exe)
 DipDrv:  MaxL=1.
 Leave Link  303 at Fri Sep 10 00:18:22 2021, MaxMem= 23488102400 cpu:              10.2 elap:               0.5
 (Enter /sw/apps/gaussian-16.0/g16/l308.exe)
 Leave Link  308 at Fri Sep 10 00:18:23 2021, MaxMem= 23488102400 cpu:              16.1 elap:               0.8
 (Enter /sw/apps/gaussian-16.0/g16/l401.exe)
 ExpMin= 3.36D-02 ExpMax= 4.95D+03 ExpMxC= 7.45D+02 IAcc=3 IRadAn=         5 AccDes= 0.00D+00
 Harris functional with IExCor=20419 and IRadAn=       5 diagonalized for initial guess.
 HarFok:  IExCor=20419 AccDes= 0.00D+00 IRadAn=         5 IDoV= 1 UseB2=F ITyADJ=14
 ICtDFT=  3500011 ScaDFX=  1.000000  1.000000  1.000000  1.000000
 FoFCou: FMM=F IPFlag=           0 FMFlag=      100000 FMFlg1=        2001
         NFxFlg=           0 DoJE=T BraDBF=F KetDBF=T FulRan=T
         wScrn=  0.000000 ICntrl=       500 IOpCl=  0 I1Cent=   200000004 NGrid=           0
         NMat0=    1 NMatS0=      1 NMatT0=    0 NMatD0=    1 NMtDS0=    0 NMtDT0=    0
 Petite list used in FoFCou.
 Harris En= -3918.65725754861    
 JPrj=0 DoOrth=F DoCkMO=F.
 Leave Link  401 at Fri Sep 10 00:18:31 2021, MaxMem= 23488102400 cpu:             194.0 elap:               8.1
 (Enter /sw/apps/gaussian-16.0/g16/l502.exe)
 Integral symmetry usage will be decided dynamically.
 Closed shell SCF:
 Using DIIS extrapolation, IDIIS=  1040.
 NGot= 23488102400 LenX= 23482547354 LenY= 23479796732
 Requested convergence on RMS density matrix=1.00D-08 within 128 cycles.
 Requested convergence on MAX density matrix=1.00D-06.
 Requested convergence on             energy=1.00D-06.
 No special actions if energy rises.
 Fock matrices will be formed incrementally for  20 cycles.

 Cycle   1  Pass 1  IDiag  1:
 FoFJK:  IHMeth= 1 ICntrl=       0 DoSepK=T KAlg= 0 I1Cent=           0 FoldK=F
 IRaf=         1 NMat=       1 IRICut=       1 DoRegI=T DoRafI=F ISym2E= 0 IDoP0=0 IntGTp=1.
 FoFCou: FMM=T IPFlag=           0 FMFlag=      100000 FMFlg1=        2001
         NFxFlg=           0 DoJE=T BraDBF=F KetDBF=F FulRan=T
         wScrn=  0.000000 ICntrl=       500 IOpCl=  0 I1Cent=           0 NGrid=           0
         NMat0=    1 NMatS0=      1 NMatT0=    0 NMatD0=    1 NMtDS0=    0 NMtDT0=    0
 Symmetry not used in FoFCou.
 FMM levels:  10  Number of levels for PrismC:   9
 E= -4068.94863223821    
 DIIS: error= 2.15D-02 at cycle   1 NSaved=   1.
 NSaved= 1 IEnMin= 1 EnMin= -4068.94863223821     IErMin= 1 ErrMin= 2.15D-02
 ErrMax= 2.15D-02  0.00D+00 EMaxC= 1.00D-01 BMatC= 1.69D+00 BMatP= 1.69D+00
 IDIUse=3 WtCom= 7.85D-01 WtEn= 2.15D-01
 Coeff-Com:  0.100D+01
 Coeff-En:   0.100D+01
 Coeff:      0.100D+01
 Gap=     0.120 Goal=   None    Shift=    0.000
 GapD=    0.120 DampG=1.000 DampE=0.500 DampFc=0.5000 IDamp=-1.
 Damping current iteration by 5.00D-01
 RMSDP=1.57D-03 MaxDP=1.36D-01              OVMax= 2.04D-01

 Cycle   2  Pass 1  IDiag  1:
 RMSU=  7.71D-04    CP:  9.82D-01
 E= -4069.33656922285     Delta-E=       -0.387936984636 Rises=F Damp=T
 DIIS: error= 1.27D-02 at cycle   2 NSaved=   2.
 NSaved= 2 IEnMin= 2 EnMin= -4069.33656922285     IErMin= 2 ErrMin= 1.27D-02
 ErrMax= 1.27D-02  0.00D+00 EMaxC= 1.00D-01 BMatC= 3.07D-01 BMatP= 1.69D+00
 IDIUse=3 WtCom= 8.73D-01 WtEn= 1.27D-01
 Coeff-Com: -0.212D+00 0.121D+01
 Coeff-En:   0.000D+00 0.100D+01
 Coeff:     -0.185D+00 0.118D+01
 Gap=     0.134 Goal=   None    Shift=    0.000
 RMSDP=7.71D-04 MaxDP=9.43D-02 DE=-3.88D-01 OVMax= 1.93D-01

 Cycle   3  Pass 1  IDiag  1:
 RMSU=  7.40D-04    CP:  9.68D-01  1.23D+00
 E= -4069.62175048339     Delta-E=       -0.285181260540 Rises=F Damp=F
 DIIS: error= 1.57D-02 at cycle   3 NSaved=   3.
 NSaved= 3 IEnMin= 3 EnMin= -4069.62175048339     IErMin= 2 ErrMin= 1.27D-02
 ErrMax= 1.57D-02  0.00D+00 EMaxC= 1.00D-01 BMatC= 2.06D-01 BMatP= 3.07D-01
 IDIUse=3 WtCom= 8.43D-01 WtEn= 1.57D-01
 Coeff-Com: -0.268D+00 0.655D+00 0.613D+00
 Coeff-En:   0.000D+00 0.000D+00 0.100D+01
 Coeff:     -0.226D+00 0.552D+00 0.674D+00
 Gap=     0.121 Goal=   None    Shift=    0.000
 RMSDP=5.23D-04 MaxDP=4.75D-02 DE=-2.85D-01 OVMax= 1.54D-01

 Cycle   4  Pass 1  IDiag  1:
 RMSU=  2.72D-04    CP:  9.65D-01  1.55D+00  4.95D-01
 E= -4069.76109343083     Delta-E=       -0.139342947445 Rises=F Damp=F
 DIIS: error= 7.17D-03 at cycle   4 NSaved=   4.
 NSaved= 4 IEnMin= 4 EnMin= -4069.76109343083     IErMin= 4 ErrMin= 7.17D-03
 ErrMax= 7.17D-03  0.00D+00 EMaxC= 1.00D-01 BMatC= 5.24D-02 BMatP= 2.06D-01
 IDIUse=3 WtCom= 9.28D-01 WtEn= 7.17D-02
 Coeff-Com: -0.110D+00 0.229D+00 0.410D+00 0.471D+00
 Coeff-En:   0.000D+00 0.000D+00 0.230D+00 0.770D+00
 Coeff:     -0.102D+00 0.213D+00 0.397D+00 0.492D+00
 Gap=     0.120 Goal=   None    Shift=    0.000
 RMSDP=2.12D-04 MaxDP=1.89D-02 DE=-1.39D-01 OVMax= 7.20D-02

 Cycle   5  Pass 1  IDiag  1:
 RMSU=  8.16D-05    CP:  9.64D-01  1.49D+00  6.86D-01  5.35D-01
 E= -4069.80965530437     Delta-E=       -0.048561873537 Rises=F Damp=F
 DIIS: error= 6.87D-04 at cycle   5 NSaved=   5.
 NSaved= 5 IEnMin= 5 EnMin= -4069.80965530437     IErMin= 5 ErrMin= 6.87D-04
 ErrMax= 6.87D-04  0.00D+00 EMaxC= 1.00D-01 BMatC= 1.45D-03 BMatP= 5.24D-02
 IDIUse=3 WtCom= 9.93D-01 WtEn= 6.87D-03
 Coeff-Com: -0.395D-01 0.780D-01 0.178D+00 0.261D+00 0.522D+00
 Coeff-En:   0.000D+00 0.000D+00 0.000D+00 0.000D+00 0.100D+01
 Coeff:     -0.393D-01 0.775D-01 0.177D+00 0.259D+00 0.526D+00
 Gap=     0.120 Goal=   None    Shift=    0.000
 RMSDP=4.81D-05 MaxDP=4.53D-03 DE=-4.86D-02 OVMax= 2.17D-02

 Cycle   6  Pass 1  IDiag  1:
 RMSU=  3.39D-05    CP:  9.64D-01  1.49D+00  6.76D-01  6.16D-01  7.01D-01
 E= -4069.81101900095     Delta-E=       -0.001363696578 Rises=F Damp=F
 DIIS: error= 2.06D-04 at cycle   6 NSaved=   6.
 NSaved= 6 IEnMin= 6 EnMin= -4069.81101900095     IErMin= 6 ErrMin= 2.06D-04
 ErrMax= 2.06D-04  0.00D+00 EMaxC= 1.00D-01 BMatC= 2.19D-04 BMatP= 1.45D-03
 IDIUse=3 WtCom= 9.98D-01 WtEn= 2.06D-03
 Coeff-Com:  0.151D-02-0.529D-02 0.150D-01 0.451D-01 0.303D+00 0.641D+00
 Coeff-En:   0.000D+00 0.000D+00 0.000D+00 0.000D+00 0.125D+00 0.875D+00
 Coeff:      0.151D-02-0.528D-02 0.150D-01 0.450D-01 0.302D+00 0.642D+00
 Gap=     0.120 Goal=   None    Shift=    0.000
 RMSDP=1.86D-05 MaxDP=1.32D-03 DE=-1.36D-03 OVMax= 8.62D-03

 Cycle   7  Pass 1  IDiag  1:
 RMSU=  1.19D-05    CP:  9.64D-01  1.49D+00  6.82D-01  6.13D-01  8.21D-01
                    CP:  7.30D-01
 E= -4069.81126972348     Delta-E=       -0.000250722529 Rises=F Damp=F
 DIIS: error= 1.18D-04 at cycle   7 NSaved=   7.
 NSaved= 7 IEnMin= 7 EnMin= -4069.81126972348     IErMin= 7 ErrMin= 1.18D-04
 ErrMax= 1.18D-04  0.00D+00 EMaxC= 1.00D-01 BMatC= 2.98D-05 BMatP= 2.19D-04
 IDIUse=3 WtCom= 9.99D-01 WtEn= 1.18D-03
 Coeff-Com:  0.467D-02-0.103D-01-0.870D-02-0.248D-02 0.110D+00 0.347D+00
 Coeff-Com:  0.560D+00
 Coeff-En:   0.000D+00 0.000D+00 0.000D+00 0.000D+00 0.000D+00 0.000D+00
 Coeff-En:   0.100D+01
 Coeff:      0.467D-02-0.103D-01-0.869D-02-0.248D-02 0.110D+00 0.347D+00
 Coeff:      0.560D+00
 Gap=     0.120 Goal=   None    Shift=    0.000
 RMSDP=7.01D-06 MaxDP=1.07D-03 DE=-2.51D-04 OVMax= 3.49D-03

 Cycle   8  Pass 1  IDiag  1:
 RMSU=  4.96D-06    CP:  9.64D-01  1.49D+00  6.83D-01  6.18D-01  8.20D-01
                    CP:  8.48D-01  8.02D-01
 E= -4069.81130576358     Delta-E=       -0.000036040103 Rises=F Damp=F
 DIIS: error= 4.88D-05 at cycle   8 NSaved=   8.
 NSaved= 8 IEnMin= 8 EnMin= -4069.81130576358     IErMin= 8 ErrMin= 4.88D-05
 ErrMax= 4.88D-05  0.00D+00 EMaxC= 1.00D-01 BMatC= 4.96D-06 BMatP= 2.98D-05
 IDIUse=1 WtCom= 1.00D+00 WtEn= 0.00D+00
 Coeff-Com:  0.227D-02-0.453D-02-0.794D-02-0.120D-01-0.699D-02 0.350D-01
 Coeff-Com:  0.302D+00 0.692D+00
 Coeff:      0.227D-02-0.453D-02-0.794D-02-0.120D-01-0.699D-02 0.350D-01
 Coeff:      0.302D+00 0.692D+00
 Gap=     0.120 Goal=   None    Shift=    0.000
 RMSDP=3.46D-06 MaxDP=4.24D-04 DE=-3.60D-05 OVMax= 1.16D-03

 Cycle   9  Pass 1  IDiag  1:
 RMSU=  2.03D-06    CP:  9.64D-01  1.49D+00  6.83D-01  6.20D-01  8.36D-01
                    CP:  8.77D-01  9.85D-01  9.83D-01
 E= -4069.81131380093     Delta-E=       -0.000008037350 Rises=F Damp=F
 DIIS: error= 1.68D-05 at cycle   9 NSaved=   9.
 NSaved= 9 IEnMin= 9 EnMin= -4069.81131380093     IErMin= 9 ErrMin= 1.68D-05
 ErrMax= 1.68D-05  0.00D+00 EMaxC= 1.00D-01 BMatC= 8.40D-07 BMatP= 4.96D-06
 IDIUse=1 WtCom= 1.00D+00 WtEn= 0.00D+00
 Coeff-Com:  0.518D-03-0.871D-03-0.286D-02-0.621D-02-0.194D-01-0.402D-01
 Coeff-Com:  0.859D-01 0.354D+00 0.629D+00
 Coeff:      0.518D-03-0.871D-03-0.286D-02-0.621D-02-0.194D-01-0.402D-01
 Coeff:      0.859D-01 0.354D+00 0.629D+00
 Gap=     0.120 Goal=   None    Shift=    0.000
 RMSDP=1.49D-06 MaxDP=1.45D-04 DE=-8.04D-06 OVMax= 7.85D-04

 Cycle  10  Pass 1  IDiag  1:
 RMSU=  9.90D-07    CP:  9.64D-01  1.49D+00  6.83D-01  6.20D-01  8.40D-01
                    CP:  8.88D-01  1.03D+00  1.15D+00  1.05D+00
 E= -4069.81131560787     Delta-E=       -0.000001806944 Rises=F Damp=F
 DIIS: error= 8.53D-06 at cycle  10 NSaved=  10.
 NSaved=10 IEnMin=10 EnMin= -4069.81131560787     IErMin=10 ErrMin= 8.53D-06
 ErrMax= 8.53D-06  0.00D+00 EMaxC= 1.00D-01 BMatC= 1.77D-07 BMatP= 8.40D-07
 IDIUse=1 WtCom= 1.00D+00 WtEn= 0.00D+00
 Coeff-Com: -0.414D-03 0.876D-03 0.114D-02 0.883D-03-0.385D-02-0.314D-01
 Coeff-Com: -0.413D-01-0.593D-01 0.225D+00 0.908D+00
 Coeff:     -0.414D-03 0.876D-03 0.114D-02 0.883D-03-0.385D-02-0.314D-01
 Coeff:     -0.413D-01-0.593D-01 0.225D+00 0.908D+00
 Gap=     0.120 Goal=   None    Shift=    0.000
 RMSDP=1.25D-06 MaxDP=1.25D-04 DE=-1.81D-06 OVMax= 6.70D-04

 Cycle  11  Pass 1  IDiag  1:
 RMSU=  5.67D-07    CP:  9.64D-01  1.49D+00  6.83D-01  6.20D-01  8.42D-01
                    CP:  8.97D-01  1.07D+00  1.26D+00  1.38D+00  1.34D+00
 E= -4069.81131643788     Delta-E=       -0.000000830001 Rises=F Damp=F
 DIIS: error= 4.42D-06 at cycle  11 NSaved=  11.
 NSaved=11 IEnMin=11 EnMin= -4069.81131643788     IErMin=11 ErrMin= 4.42D-06
 ErrMax= 4.42D-06  0.00D+00 EMaxC= 1.00D-01 BMatC= 7.83D-08 BMatP= 1.77D-07
 IDIUse=1 WtCom= 1.00D+00 WtEn= 0.00D+00
 Coeff-Com: -0.353D-03 0.690D-03 0.138D-02 0.210D-02 0.404D-02-0.936D-02
 Coeff-Com: -0.399D-01-0.129D+00-0.436D-01 0.512D+00 0.702D+00
 Coeff:     -0.353D-03 0.690D-03 0.138D-02 0.210D-02 0.404D-02-0.936D-02
 Coeff:     -0.399D-01-0.129D+00-0.436D-01 0.512D+00 0.702D+00
 Gap=     0.120 Goal=   None    Shift=    0.000
 RMSDP=7.22D-07 MaxDP=7.13D-05 DE=-8.30D-07 OVMax= 4.17D-04

 Cycle  12  Pass 1  IDiag  1:
 RMSU=  2.84D-07    CP:  9.64D-01  1.49D+00  6.83D-01  6.21D-01  8.43D-01
                    CP:  8.99D-01  1.09D+00  1.32D+00  1.53D+00  1.74D+00
                    CP:  1.16D+00
 E= -4069.81131673356     Delta-E=       -0.000000295680 Rises=F Damp=F
 DIIS: error= 2.60D-06 at cycle  12 NSaved=  12.
 NSaved=12 IEnMin=12 EnMin= -4069.81131673356     IErMin=12 ErrMin= 2.60D-06
 ErrMax= 2.60D-06  0.00D+00 EMaxC= 1.00D-01 BMatC= 1.84D-08 BMatP= 7.83D-08
 IDIUse=1 WtCom= 1.00D+00 WtEn= 0.00D+00
 Coeff-Com: -0.330D-04 0.477D-04 0.306D-03 0.681D-03 0.363D-02 0.307D-02
 Coeff-Com: -0.698D-03-0.415D-01-0.782D-01-0.145D-01 0.264D+00 0.863D+00
 Coeff:     -0.330D-04 0.477D-04 0.306D-03 0.681D-03 0.363D-02 0.307D-02
 Coeff:     -0.698D-03-0.415D-01-0.782D-01-0.145D-01 0.264D+00 0.863D+00
 Gap=     0.120 Goal=   None    Shift=    0.000
 RMSDP=4.41D-07 MaxDP=2.95D-05 DE=-2.96D-07 OVMax= 2.67D-04

 Cycle  13  Pass 1  IDiag  1:
 RMSU=  1.74D-07    CP:  9.64D-01  1.49D+00  6.83D-01  6.21D-01  8.43D-01
                    CP:  8.99D-01  1.10D+00  1.35D+00  1.64D+00  1.95D+00
                    CP:  1.55D+00  1.22D+00
 E= -4069.81131683441     Delta-E=       -0.000000100856 Rises=F Damp=F
 DIIS: error= 1.50D-06 at cycle  13 NSaved=  13.
 NSaved=13 IEnMin=13 EnMin= -4069.81131683441     IErMin=13 ErrMin= 1.50D-06
 ErrMax= 1.50D-06  0.00D+00 EMaxC= 1.00D-01 BMatC= 9.84D-09 BMatP= 1.84D-08
 IDIUse=1 WtCom= 1.00D+00 WtEn= 0.00D+00
 Coeff-Com:  0.118D-03-0.242D-03-0.349D-03-0.412D-03 0.873D-03 0.481D-02
 Coeff-Com:  0.173D-01 0.228D-01-0.330D-01-0.231D+00-0.172D+00 0.563D+00
 Coeff-Com:  0.828D+00
 Coeff:      0.118D-03-0.242D-03-0.349D-03-0.412D-03 0.873D-03 0.481D-02
 Coeff:      0.173D-01 0.228D-01-0.330D-01-0.231D+00-0.172D+00 0.563D+00
 Coeff:      0.828D+00
 Gap=     0.120 Goal=   None    Shift=    0.000
 RMSDP=3.77D-07 MaxDP=2.45D-05 DE=-1.01D-07 OVMax= 2.41D-04

 Cycle  14  Pass 1  IDiag  1:
 RMSU=  8.22D-08    CP:  9.64D-01  1.49D+00  6.83D-01  6.21D-01  8.44D-01
                    CP:  9.00D-01  1.10D+00  1.37D+00  1.71D+00  2.16D+00
                    CP:  1.81D+00  1.75D+00  1.16D+00
 E= -4069.81131687982     Delta-E=       -0.000000045413 Rises=F Damp=F
 DIIS: error= 6.94D-07 at cycle  14 NSaved=  14.
 NSaved=14 IEnMin=14 EnMin= -4069.81131687982     IErMin=14 ErrMin= 6.94D-07
 ErrMax= 6.94D-07  0.00D+00 EMaxC= 1.00D-01 BMatC= 1.50D-09 BMatP= 9.84D-09
 IDIUse=1 WtCom= 1.00D+00 WtEn= 0.00D+00
 Coeff-Com:  0.713D-04-0.141D-03-0.260D-03-0.398D-03-0.374D-03 0.123D-02
 Coeff-Com:  0.984D-02 0.209D-01 0.546D-02-0.104D+00-0.153D+00 0.726D-01
 Coeff-Com:  0.417D+00 0.732D+00
 Coeff:      0.713D-04-0.141D-03-0.260D-03-0.398D-03-0.374D-03 0.123D-02
 Coeff:      0.984D-02 0.209D-01 0.546D-02-0.104D+00-0.153D+00 0.726D-01
 Coeff:      0.417D+00 0.732D+00
 Gap=     0.120 Goal=   None    Shift=    0.000
 RMSDP=1.20D-07 MaxDP=8.09D-06 DE=-4.54D-08 OVMax= 6.99D-05

 Cycle  15  Pass 1  IDiag  1:
 RMSU=  4.06D-08    CP:  9.64D-01  1.49D+00  6.83D-01  6.21D-01  8.44D-01
                    CP:  9.00D-01  1.11D+00  1.38D+00  1.73D+00  2.20D+00
                    CP:  1.92D+00  1.91D+00  1.40D+00  1.04D+00
 E= -4069.81131688472     Delta-E=       -0.000000004893 Rises=F Damp=F
 DIIS: error= 3.43D-07 at cycle  15 NSaved=  15.
 NSaved=15 IEnMin=15 EnMin= -4069.81131688472     IErMin=15 ErrMin= 3.43D-07
 ErrMax= 3.43D-07  0.00D+00 EMaxC= 1.00D-01 BMatC= 2.50D-10 BMatP= 1.50D-09
 IDIUse=1 WtCom= 1.00D+00 WtEn= 0.00D+00
 Coeff-Com:  0.905D-05-0.162D-04-0.462D-04-0.101D-03-0.291D-03-0.490D-03
 Coeff-Com:  0.135D-02 0.378D-02 0.874D-02-0.301D-02-0.337D-01-0.702D-01
 Coeff-Com:  0.407D-01 0.307D+00 0.747D+00
 Coeff:      0.905D-05-0.162D-04-0.462D-04-0.101D-03-0.291D-03-0.490D-03
 Coeff:      0.135D-02 0.378D-02 0.874D-02-0.301D-02-0.337D-01-0.702D-01
 Coeff:      0.407D-01 0.307D+00 0.747D+00
 Gap=     0.120 Goal=   None    Shift=    0.000
 RMSDP=3.94D-08 MaxDP=2.83D-06 DE=-4.89D-09 OVMax= 3.03D-05

 Cycle  16  Pass 1  IDiag  1:
 RMSU=  1.94D-08    CP:  9.64D-01  1.49D+00  6.83D-01  6.21D-01  8.44D-01
                    CP:  9.00D-01  1.11D+00  1.38D+00  1.74D+00  2.22D+00
                    CP:  1.95D+00  1.96D+00  1.48D+00  1.24D+00  1.13D+00
 E= -4069.81131688540     Delta-E=       -0.000000000684 Rises=F Damp=F
 DIIS: error= 2.00D-07 at cycle  16 NSaved=  16.
 NSaved=16 IEnMin=16 EnMin= -4069.81131688540     IErMin=16 ErrMin= 2.00D-07
 ErrMax= 2.00D-07  0.00D+00 EMaxC= 1.00D-01 BMatC= 9.50D-11 BMatP= 2.50D-10
 IDIUse=1 WtCom= 1.00D+00 WtEn= 0.00D+00
 Coeff-Com: -0.133D-04 0.272D-04 0.425D-04 0.450D-04-0.466D-04-0.619D-03
 Coeff-Com: -0.162D-02-0.390D-02 0.377D-02 0.240D-01 0.215D-01-0.596D-01
 Coeff-Com: -0.787D-01-0.383D-01 0.392D+00 0.742D+00
 Coeff:     -0.133D-04 0.272D-04 0.425D-04 0.450D-04-0.466D-04-0.619D-03
 Coeff:     -0.162D-02-0.390D-02 0.377D-02 0.240D-01 0.215D-01-0.596D-01
 Coeff:     -0.787D-01-0.383D-01 0.392D+00 0.742D+00
 Gap=     0.120 Goal=   None    Shift=    0.000
 RMSDP=2.42D-08 MaxDP=1.52D-06 DE=-6.84D-10 OVMax= 1.45D-05

 Cycle  17  Pass 1  IDiag  1:
 RMSU=  1.08D-08    CP:  9.64D-01  1.49D+00  6.83D-01  6.21D-01  8.44D-01
                    CP:  9.00D-01  1.11D+00  1.38D+00  1.74D+00  2.22D+00
                    CP:  1.96D+00  1.98D+00  1.53D+00  1.33D+00  1.42D+00
                    CP:  1.23D+00
 E= -4069.81131688588     Delta-E=       -0.000000000480 Rises=F Damp=F
 DIIS: error= 8.59D-08 at cycle  17 NSaved=  17.
 NSaved=17 IEnMin=17 EnMin= -4069.81131688588     IErMin=17 ErrMin= 8.59D-08
 ErrMax= 8.59D-08  0.00D+00 EMaxC= 1.00D-01 BMatC= 1.87D-11 BMatP= 9.50D-11
 IDIUse=1 WtCom= 1.00D+00 WtEn= 0.00D+00
 Coeff-Com: -0.762D-05 0.149D-04 0.293D-04 0.420D-04 0.726D-04-0.138D-03
 Coeff-Com: -0.840D-03-0.282D-02-0.244D-03 0.975D-02 0.179D-01-0.700D-02
 Coeff-Com: -0.351D-01-0.985D-01-0.194D-01 0.276D+00 0.860D+00
 Coeff:     -0.762D-05 0.149D-04 0.293D-04 0.420D-04 0.726D-04-0.138D-03
 Coeff:     -0.840D-03-0.282D-02-0.244D-03 0.975D-02 0.179D-01-0.700D-02
 Coeff:     -0.351D-01-0.985D-01-0.194D-01 0.276D+00 0.860D+00
 Gap=     0.120 Goal=   None    Shift=    0.000
 RMSDP=1.36D-08 MaxDP=8.72D-07 DE=-4.80D-10 OVMax= 1.03D-05

 Cycle  18  Pass 1  IDiag  1:
 RMSU=  5.20D-09    CP:  9.64D-01  1.49D+00  6.83D-01  6.21D-01  8.44D-01
                    CP:  9.00D-01  1.11D+00  1.38D+00  1.74D+00  2.22D+00
                    CP:  1.96D+00  1.99D+00  1.54D+00  1.39D+00  1.58D+00
                    CP:  1.61D+00  1.40D+00
 E= -4069.81131688606     Delta-E=       -0.000000000178 Rises=F Damp=F
 DIIS: error= 6.79D-08 at cycle  18 NSaved=  18.
 NSaved=18 IEnMin=18 EnMin= -4069.81131688606     IErMin=18 ErrMin= 6.79D-08
 ErrMax= 6.79D-08  0.00D+00 EMaxC= 1.00D-01 BMatC= 8.20D-12 BMatP= 1.87D-11
 IDIUse=1 WtCom= 1.00D+00 WtEn= 0.00D+00
 Coeff-Com:  0.114D-05-0.260D-05-0.117D-05 0.287D-05 0.631D-04 0.152D-03
 Coeff-Com:  0.268D-03-0.110D-04-0.116D-02-0.452D-02 0.691D-03 0.162D-01
 Coeff-Com:  0.153D-01-0.345D-01-0.146D+00-0.176D+00 0.391D+00 0.939D+00
 Coeff:      0.114D-05-0.260D-05-0.117D-05 0.287D-05 0.631D-04 0.152D-03
 Coeff:      0.268D-03-0.110D-04-0.116D-02-0.452D-02 0.691D-03 0.162D-01
 Coeff:      0.153D-01-0.345D-01-0.146D+00-0.176D+00 0.391D+00 0.939D+00
 Gap=     0.120 Goal=   None    Shift=    0.000
 RMSDP=1.12D-08 MaxDP=7.22D-07 DE=-1.78D-10 OVMax= 6.79D-06

 Cycle  19  Pass 1  IDiag  1:
 RMSU=  2.97D-09    CP:  9.64D-01  1.49D+00  6.83D-01  6.21D-01  8.44D-01
                    CP:  9.00D-01  1.11D+00  1.38D+00  1.74D+00  2.22D+00
                    CP:  1.97D+00  1.99D+00  1.55D+00  1.43D+00  1.71D+00
                    CP:  1.90D+00  1.93D+00  1.31D+00
 E= -4069.81131688601     Delta-E=        0.000000000047 Rises=F Damp=F
 DIIS: error= 2.80D-08 at cycle  19 NSaved=  19.
 NSaved=19 IEnMin=18 EnMin= -4069.81131688606     IErMin=19 ErrMin= 2.80D-08
 ErrMax= 2.80D-08  0.00D+00 EMaxC= 1.00D-01 BMatC= 1.84D-12 BMatP= 8.20D-12
 IDIUse=1 WtCom= 1.00D+00 WtEn= 0.00D+00
 Coeff-Com:  0.292D-05-0.591D-05-0.962D-05-0.115D-04 0.181D-04 0.122D-03
 Coeff-Com:  0.430D-03 0.811D-03-0.532D-03-0.594D-02-0.526D-02 0.112D-01
 Coeff-Com:  0.213D-01 0.118D-01-0.715D-01-0.192D+00-0.257D-01 0.493D+00
 Coeff-Com:  0.762D+00
 Coeff:      0.292D-05-0.591D-05-0.962D-05-0.115D-04 0.181D-04 0.122D-03
 Coeff:      0.430D-03 0.811D-03-0.532D-03-0.594D-02-0.526D-02 0.112D-01
 Coeff:      0.213D-01 0.118D-01-0.715D-01-0.192D+00-0.257D-01 0.493D+00
 Coeff:      0.762D+00
 Gap=     0.120 Goal=   None    Shift=    0.000
 RMSDP=5.31D-09 MaxDP=4.06D-07 DE= 4.73D-11 OVMax= 4.04D-06

 SCF Done:  E(RCAM-B3LYP) =  -4069.81131689     A.U. after   19 cycles
            NFock= 19  Conv=0.53D-08     -V/T= 2.0102
 KE= 4.028805259587D+03 PE=-4.044207668616D+04 EE= 1.686305157663D+04
 Leave Link  502 at Fri Sep 10 00:29:58 2021, MaxMem= 23488102400 cpu:           15861.0 elap:             687.0
 (Enter /sw/apps/gaussian-16.0/g16/l801.exe)
 DoSCS=F DFT=T ScalE2(SS,OS)=  1.000000  1.000000
 ExpMin= 3.36D-02 ExpMax= 4.95D+03 ExpMxC= 7.45D+02 IAcc=3 IRadAn=         5 AccDes= 0.00D+00
 HarFok:  IExCor=  205 AccDes= 0.00D+00 IRadAn=         5 IDoV=-2 UseB2=F ITyADJ=14
 ICtDFT= 12500011 ScaDFX=  1.000000  1.000000  1.000000  1.000000
 GSVD:  LWork=       -9588 too small for GESVD, short by       45590 words or       45590 for optimal perf.
 Largest valence mixing into a core orbital is  2.03D-04
 Largest core mixing into a valence orbital is  5.24D-05
 Range of M.O.s used for correlation:    95  1572
 NBasis=  1572 NAE=   312 NBE=   312 NFC=    94 NFV=     0
 NROrb=   1478 NOA=   218 NOB=   218 NVA=  1260 NVB=  1260
 Leave Link  801 at Fri Sep 10 00:29:58 2021, MaxMem= 23488102400 cpu:               9.0 elap:               0.4
 (Enter /sw/apps/gaussian-16.0/g16/l914.exe)
 RHF ground state
 Two-electron integrals replicated using symmetry.
 MDV= 23488102400 DFT=T DoStab=F Mixed=T DoRPA=T DoScal=F NonHer=T
 Making orbital integer symmetry assigments:
 Orbital symmetries:
       Occupied  (A) (A) (A) (A) (A) (A) (A) (A) (A) (A) (A) (A)
                 (A) (A) (A) (A) (A) (A) (A) (A) (A) (A) (A) (A)
                 (A) (A) (A) (A) (A) (A) (A) (A) (A) (A) (A) (A)
                 (A) (A) (A) (A) (A) (A) (A) (A) (A) (A) (A) (A)
                 (A) (A) (A) (A) (A) (A) (A) (A) (A) (A) (A) (A)
                 (A) (A) (A) (A) (A) (A) (A) (A) (A) (A) (A) (A)
                 (A) (A) (A) (A) (A) (A) (A) (A) (A) (A) (A) (A)
                 (A) (A) (A) (A) (A) (A) (A) (A) (A) (A) (A) (A)
                 (A) (A) (A) (A) (A) (A) (A) (A) (A) (A) (A) (A)
                 (A) (A) (A) (A) (A) (A) (A) (A) (A) (A) (A) (A)
                 (A) (A) (A) (A) (A) (A) (A) (A) (A) (A) (A) (A)
                 (A) (A) (A) (A) (A) (A) (A) (A) (A) (A) (A) (A)
                 (A) (A) (A) (A) (A) (A) (A) (A) (A) (A) (A) (A)
                 (A) (A) (A) (A) (A) (A) (A) (A) (A) (A) (A) (A)
                 (A) (A) (A) (A) (A) (A) (A) (A) (A) (A) (A) (A)
                 (A) (A) (A) (A) (A) (A) (A) (A) (A) (A) (A) (A)
                 (A) (A) (A) (A) (A) (A) (A) (A) (A) (A) (A) (A)
                 (A) (A) (A) (A) (A) (A) (A) (A) (A) (A) (A) (A)
                 (A) (A) (A) (A) (A) (A) (A) (A) (A) (A) (A) (A)
                 (A) (A) (A) (A) (A) (A) (A) (A) (A) (A) (A) (A)
                 (A) (A) (A) (A) (A) (A) (A) (A) (A) (A) (A) (A)
                 (A) (A) (A) (A) (A) (A) (A) (A) (A) (A) (A) (A)
                 (A) (A) (A) (A) (A) (A) (A) (A) (A) (A) (A) (A)
                 (A) (A) (A) (A) (A) (A) (A) (A) (A) (A) (A) (A)
                 (A) (A) (A) (A) (A) (A) (A) (A) (A) (A) (A) (A)
                 (A) (A) (A) (A) (A) (A) (A) (A) (A) (A) (A) (A)
       Virtual   (A) (A) (A) (A) (A) (A) (A) (A) (A) (A) (A) (A)
                 (A) (A) (A) (A) (A) (A) (A) (A) (A) (A) (A) (A)
                 (A) (A) (A) (A) (A) (A) (A) (A) (A) (A) (A) (A)
                 (A) (A) (A) (A) (A) (A) (A) (A) (A) (A) (A) (A)
                 (A) (A) (A) (A) (A) (A) (A) (A) (A) (A) (A) (A)
                 (A) (A) (A) (A) (A) (A) (A) (A) (A) (A) (A) (A)
                 (A) (A) (A) (A) (A) (A) (A) (A) (A) (A) (A) (A)
                 (A) (A) (A) (A) (A) (A) (A) (A) (A) (A) (A) (A)
                 (A) (A) (A) (A) (A) (A) (A) (A) (A) (A) (A) (A)
                 (A) (A) (A) (A) (A) (A) (A) (A) (A) (A) (A) (A)
                 (A) (A) (A) (A) (A) (A) (A) (A) (A) (A) (A) (A)
                 (A) (A) (A) (A) (A) (A) (A) (A) (A) (A) (A) (A)
                 (A) (A) (A) (A) (A) (A) (A) (A) (A) (A) (A) (A)
                 (A) (A) (A) (A) (A) (A) (A) (A) (A) (A) (A) (A)
                 (A) (A) (A) (A) (A) (A) (A) (A) (A) (A) (A) (A)
                 (A) (A) (A) (A) (A) (A) (A) (A) (A) (A) (A) (A)
                 (A) (A) (A) (A) (A) (A) (A) (A) (A) (A) (A) (A)
                 (A) (A) (A) (A) (A) (A) (A) (A) (A) (A) (A) (A)
                 (A) (A) (A) (A) (A) (A) (A) (A) (A) (A) (A) (A)
                 (A) (A) (A) (A) (A) (A) (A) (A) (A) (A) (A) (A)
                 (A) (A) (A) (A) (A) (A) (A) (A) (A) (A) (A) (A)
                 (A) (A) (A) (A) (A) (A) (A) (A) (A) (A) (A) (A)
                 (A) (A) (A) (A) (A) (A) (A) (A) (A) (A) (A) (A)
                 (A) (A) (A) (A) (A) (A) (A) (A) (A) (A) (A) (A)
                 (A) (A) (A) (A) (A) (A) (A) (A) (A) (A) (A) (A)
                 (A) (A) (A) (A) (A) (A) (A) (A) (A) (A) (A) (A)
                 (A) (A) (A) (A) (A) (A) (A) (A) (A) (A) (A) (A)
                 (A) (A) (A) (A) (A) (A) (A) (A) (A) (A) (A) (A)
                 (A) (A) (A) (A) (A) (A) (A) (A) (A) (A) (A) (A)
                 (A) (A) (A) (A) (A) (A) (A) (A) (A) (A) (A) (A)
                 (A) (A) (A) (A) (A) (A) (A) (A) (A) (A) (A) (A)
                 (A) (A) (A) (A) (A) (A) (A) (A) (A) (A) (A) (A)
                 (A) (A) (A) (A) (A) (A) (A) (A) (A) (A) (A) (A)
                 (A) (A) (A) (A) (A) (A) (A) (A) (A) (A) (A) (A)
                 (A) (A) (A) (A) (A) (A) (A) (A) (A) (A) (A) (A)
                 (A) (A) (A) (A) (A) (A) (A) (A) (A) (A) (A) (A)
                 (A) (A) (A) (A) (A) (A) (A) (A) (A) (A) (A) (A)
                 (A) (A) (A) (A) (A) (A) (A) (A) (A) (A) (A) (A)
                 (A) (A) (A) (A) (A) (A) (A) (A) (A) (A) (A) (A)
                 (A) (A) (A) (A) (A) (A) (A) (A) (A) (A) (A) (A)
                 (A) (A) (A) (A) (A) (A) (A) (A) (A) (A) (A) (A)
                 (A) (A) (A) (A) (A) (A) (A) (A) (A) (A) (A) (A)
                 (A) (A) (A) (A) (A) (A) (A) (A) (A) (A) (A) (A)
                 (A) (A) (A) (A) (A) (A) (A) (A) (A) (A) (A) (A)
                 (A) (A) (A) (A) (A) (A) (A) (A) (A) (A) (A) (A)
                 (A) (A) (A) (A) (A) (A) (A) (A) (A) (A) (A) (A)
                 (A) (A) (A) (A) (A) (A) (A) (A) (A) (A) (A) (A)
                 (A) (A) (A) (A) (A) (A) (A) (A) (A) (A) (A) (A)
                 (A) (A) (A) (A) (A) (A) (A) (A) (A) (A) (A) (A)
                 (A) (A) (A) (A) (A) (A) (A) (A) (A) (A) (A) (A)
                 (A) (A) (A) (A) (A) (A) (A) (A) (A) (A) (A) (A)
                 (A) (A) (A) (A) (A) (A) (A) (A) (A) (A) (A) (A)
                 (A) (A) (A) (A) (A) (A) (A) (A) (A) (A) (A) (A)
                 (A) (A) (A) (A) (A) (A) (A) (A) (A) (A) (A) (A)
                 (A) (A) (A) (A) (A) (A) (A) (A) (A) (A) (A) (A)
                 (A) (A) (A) (A) (A) (A) (A) (A) (A) (A) (A) (A)
                 (A) (A) (A) (A) (A) (A) (A) (A) (A) (A) (A) (A)
                 (A) (A) (A) (A) (A) (A) (A) (A) (A) (A) (A) (A)
                 (A) (A) (A) (A) (A) (A) (A) (A) (A) (A) (A) (A)
                 (A) (A) (A) (A) (A) (A) (A) (A) (A) (A) (A) (A)
                 (A) (A) (A) (A) (A) (A) (A) (A) (A) (A) (A) (A)
                 (A) (A) (A) (A) (A) (A) (A) (A) (A) (A) (A) (A)
                 (A) (A) (A) (A) (A) (A) (A) (A) (A) (A) (A) (A)
                 (A) (A) (A) (A) (A) (A) (A) (A) (A) (A) (A) (A)
                 (A) (A) (A) (A) (A) (A) (A) (A) (A) (A) (A) (A)
                 (A) (A) (A) (A) (A) (A) (A) (A) (A) (A) (A) (A)
                 (A) (A) (A) (A) (A) (A) (A) (A) (A) (A) (A) (A)
                 (A) (A) (A) (A) (A) (A) (A) (A) (A) (A) (A) (A)
                 (A) (A) (A) (A) (A) (A) (A) (A) (A) (A) (A) (A)
                 (A) (A) (A) (A) (A) (A) (A) (A) (A) (A) (A) (A)
                 (A) (A) (A) (A) (A) (A) (A) (A) (A) (A) (A) (A)
                 (A) (A) (A) (A) (A) (A) (A) (A) (A) (A) (A) (A)
                 (A) (A) (A) (A) (A) (A) (A) (A) (A) (A) (A) (A)
                 (A) (A) (A) (A) (A) (A) (A) (A) (A) (A) (A) (A)
                 (A) (A) (A) (A) (A) (A) (A) (A) (A) (A) (A) (A)
                 (A) (A) (A) (A) (A) (A) (A) (A) (A) (A) (A) (A)
                 (A) (A) (A) (A) (A) (A) (A) (A) (A) (A) (A) (A)
                 (A) (A) (A) (A) (A) (A) (A) (A) (A) (A) (A) (A)
                 (A) (A) (A) (A) (A) (A) (A) (A) (A) (A) (A) (A)
                 (A) (A) (A) (A) (A) (A) (A) (A) (A) (A) (A) (A)
                 (A) (A) (A) (A) (A) (A) (A) (A) (A) (A) (A) (A)
                 (A) (A) (A) (A) (A) (A) (A) (A) (A) (A) (A) (A)
                 (A) (A) (A) (A) (A) (A) (A) (A) (A) (A) (A) (A)
                 (A) (A) (A) (A) (A) (A) (A) (A) (A) (A) (A) (A)
                 (A) (A) (A) (A) (A) (A) (A) (A) (A) (A) (A) (A)
                 (A) (A) (A) (A) (A) (A) (A) (A) (A) (A) (A) (A)
                 (A) (A) (A) (A) (A) (A) (A) (A) (A) (A) (A) (A)
                 (A) (A) (A) (A) (A) (A) (A) (A) (A) (A) (A) (A)
                 (A) (A) (A) (A) (A) (A) (A) (A) (A) (A) (A) (A)
                 (A) (A) (A) (A) (A) (A) (A) (A) (A) (A) (A) (A)
                 (A) (A) (A) (A) (A) (A) (A) (A) (A) (A) (A) (A)
                 (A) (A) (A) (A) (A) (A) (A) (A) (A) (A) (A) (A)
                 (A) (A) (A) (A) (A) (A) (A) (A) (A) (A) (A) (A)
                 (A) (A) (A) (A) (A) (A) (A) (A) (A) (A) (A) (A)
                 (A) (A) (A) (A) (A) (A) (A) (A) (A) (A) (A) (A)
                 (A) (A) (A) (A) (A) (A) (A) (A) (A) (A) (A) (A)
                 (A) (A) (A) (A) (A) (A) (A) (A) (A) (A) (A) (A)
                 (A) (A) (A) (A) (A) (A) (A) (A) (A) (A) (A) (A)
                 (A) (A) (A) (A) (A) (A) (A) (A) (A) (A) (A) (A)
                 (A) (A) (A) (A) (A) (A) (A) (A) (A) (A) (A) (A)
                 (A) (A) (A) (A) (A) (A) (A) (A) (A) (A) (A) (A)
                 (A) (A) (A) (A) (A) (A) (A) (A) (A) (A) (A) (A)
                 (A) (A) (A) (A) (A) (A) (A) (A) (A) (A) (A) (A)
                 (A) (A) (A) (A) (A) (A) (A) (A) (A) (A) (A) (A)
                 (A) (A) (A) (A) (A) (A) (A) (A) (A) (A) (A) (A)
    20 initial guesses have been made.
 Convergence on wavefunction:    0.001000000000000
 Davidson Disk Diagonalization:  ConvIn= 1.00D-03 SkipCon=T Conv= 1.00D-03.
 Max sub-space:  2000 roots to seek:    20 dimension of matrix:       549360
 Iteration     1 Dimension    20 NMult     0 NNew     20
 CISAX will form    20 AO SS matrices at one time.
 NMat=    20 NSing=    20 JSym2X= 0.
 FoFJK:  IHMeth= 1 ICntrl=       0 DoSepK=T KAlg= 0 I1Cent=           0 FoldK=F
 IRaf=         1 NMat=      40 IRICut=       1 DoRegI=T DoRafI=F ISym2E= 0 IDoP0=3 IntGTp=3.
 FoFCou: FMM=T IPFlag=           0 FMFlag=      100000 FMFlg1=        2001
         NFxFlg=           0 DoJE=F BraDBF=F KetDBF=F FulRan=T
         wScrn=  0.000000 ICntrl=       500 IOpCl=  0 I1Cent=           0 NGrid=           0
         NMat0=   20 NMatS0=     20 NMatT0=    0 NMatD0=   20 NMtDS0=    0 NMtDT0=    0
 Symmetry not used in FoFCou.
 FMM levels:  10  Number of levels for PrismC:   9
 New state      2 was old state      4
 New state      3 was old state      7
 New state      4 was old state      6
 New state      5 was old state     10
 Excitation Energies [eV] at current iteration:
 Root      1 :     2.353770808908575
 Root      2 :     2.525738230288022
 Root      3 :     2.599538796856924
 Root      4 :     2.621172971900110
 Root      5 :     2.624560415634136
 Root      6 :     2.757764692690837
 Root      7 :     3.141326121481895
 Root      8 :     3.321830612750500
 Root      9 :     3.617565284775599
 Root     10 :     3.669111268322176
 Root     11 :     3.743637776997196
 Root     12 :     3.754102690854452
 Root     13 :     4.246693782076636
 Root     14 :     4.250987721681058
 Root     15 :     4.363131349549520
 Root     16 :     4.425725241168057
 Root     17 :     4.587875896637259
 Root     18 :     4.619030856031038
 Root     19 :     4.744645386939110
 Root     20 :     4.749797446006758
 Iteration     2 Dimension    30 NMult    20 NNew     10
 CISAX will form    10 AO SS matrices at one time.
 NMat=    10 NSing=    10 JSym2X= 0.
 New state      1 was old state      3
 Root      1 not converged, maximum delta is    0.333510170960701
 New state      2 was old state      4
 Root      2 not converged, maximum delta is    0.425495086355749
 New state      3 was old state      5
 Root      3 not converged, maximum delta is    0.317661698697304
 New state      4 was old state      1
 Root      4 not converged, maximum delta is    0.013674217484238
 New state      5 was old state      2
 Root      5 not converged, maximum delta is    0.045251950044999
 Excitation Energies [eV] at current iteration:
 Root      1 :     1.769591874042329   Change is   -0.829946922814595
 Root      2 :     2.229162482237739   Change is   -0.392010489662371
 Root      3 :     2.241292004325019   Change is   -0.383268411309117
 Root      4 :     2.351431978240611   Change is   -0.002338830667965
 Root      5 :     2.523567995207894   Change is   -0.002170235080128
 Iteration     3 Dimension    40 NMult    30 NNew     10
 CISAX will form    10 AO SS matrices at one time.
 NMat=    10 NSing=    10 JSym2X= 0.
 Root      1 not converged, maximum delta is    0.054097600411542
 New state      2 was old state      3
 Root      2 not converged, maximum delta is    0.511157025650953
 New state      3 was old state      2
 Root      3 not converged, maximum delta is    0.039562777805555
 No map to state      4
 New state      5 was old state      4
 Root      5 not converged, maximum delta is    0.008356258790602
 Excitation Energies [eV] at current iteration:
 Root      1 :     1.665505283164904   Change is   -0.104086590877425
 Root      2 :     1.784706132990995   Change is   -0.456585871334023
 Root      3 :     2.188895788133691   Change is   -0.040266694104048
 Root      4 :     2.205586149608274
 Root      5 :     2.351482080686563   Change is    0.000050102445952
 Iteration     4 Dimension    50 NMult    40 NNew     10
 CISAX will form    10 AO SS matrices at one time.
 NMat=    10 NSing=    10 JSym2X= 0.
 Root      1 not converged, maximum delta is    0.010988276054286
 Root      2 not converged, maximum delta is    0.038932051767823
 Root      3 not converged, maximum delta is    0.022198199038093
 Root      4 not converged, maximum delta is    0.021700368003188
 Root      5 has converged.
 Excitation Energies [eV] at current iteration:
 Root      1 :     1.649053793808998   Change is   -0.016451489355906
 Root      2 :     1.716844319735803   Change is   -0.067861813255192
 Root      3 :     2.181825115218709   Change is   -0.007070672914982
 Root      4 :     2.197703070131404   Change is   -0.007883079476870
 Root      5 :     2.351479540547811   Change is   -0.000002540138752
 Iteration     5 Dimension    58 NMult    50 NNew      8
 CISAX will form     8 AO SS matrices at one time.
 NMat=     8 NSing=     8 JSym2X= 0.
 Root      1 not converged, maximum delta is    0.001596885490238
 Root      2 not converged, maximum delta is    0.011622880197512
 Root      3 not converged, maximum delta is    0.003075243681252
 Root      4 not converged, maximum delta is    0.002957367755912
 Root      5 has converged.
 Excitation Energies [eV] at current iteration:
 Root      1 :     1.647346994021760   Change is   -0.001706799787238
 Root      2 :     1.706107604313305   Change is   -0.010736715422498
 Root      3 :     2.180995863152827   Change is   -0.000829252065882
 Root      4 :     2.196835133764877   Change is   -0.000867936366528
 Root      5 :     2.351479408410390   Change is   -0.000000132137421
 Iteration     6 Dimension    66 NMult    58 NNew      8
 CISAX will form     8 AO SS matrices at one time.
 NMat=     8 NSing=     8 JSym2X= 0.
 Root      1 has converged.
 Root      2 has converged.
 Root      3 has converged.
 Root      4 has converged.
 Root      5 has converged.
 Excitation Energies [eV] at current iteration:
 Root      1 :     1.647105658432614   Change is   -0.000241335589146
 Root      2 :     1.704949789935912   Change is   -0.001157814377393
 Root      3 :     2.180871006143151   Change is   -0.000124857009676
 Root      4 :     2.196706552951863   Change is   -0.000128580813013
 Root      5 :     2.351479385511577   Change is   -0.000000022898813
 Convergence achieved on expansion vectors.
 ***********************************************************************
 Excited states from <AA,BB:AA,BB> singles matrix:
 ***********************************************************************
 
 1PDM for each excited state written to RWF  633
 Ground to excited state transition densities written to RWF  633
 Ground to excited state transition electric dipole moments (Au):
[...]
 Alpha virt. eigenvalues --    1.82937   1.83039   1.83267   1.83349   1.83401
 Alpha virt. eigenvalues --    1.83670   1.83846   1.84033   1.84344   1.84383
 Alpha virt. eigenvalues --    1.84640   1.84767   1.84923   1.84999   1.85055
 Alpha virt. eigenvalues --    1.85280   1.85300   1.85464   1.85603   1.85652
 Alpha virt. eigenvalues --    1.85932   1.86089   1.86367   1.86421   1.86633
 Alpha virt. eigenvalues --    1.86704   1.86881   1.87135   1.87265   1.87272
 Alpha virt. eigenvalues --    1.87620   1.87667   1.87797   1.87908   1.87931
 Alpha virt. eigenvalues --    1.88272   1.88382   1.88445   1.88744   1.88783
 Alpha virt. eigenvalues --    1.88809   1.89169   1.89400   1.89615   1.89696
 Alpha virt. eigenvalues --    1.89772   1.89999   1.90061   1.90408   1.90642
 Alpha virt. eigenvalues --    1.90798   1.91227   1.91363   1.91734   1.91806
 Alpha virt. eigenvalues --    1.92072   1.92290   1.92439   1.92610   1.92867
 Alpha virt. eigenvalues --    1.93229   1.93395   1.93445   1.93922   1.94213
 Alpha virt. eigenvalues --    1.94632   1.94704   1.95230   1.95519   1.95702
 Alpha virt. eigenvalues --    1.95940   1.96012   1.96115   1.96282   1.96299
 Alpha virt. eigenvalues --    1.96437   1.96631   1.96813   1.97037   1.97289
 Alpha virt. eigenvalues --    1.97585   1.97814   1.97908   1.98114   1.98239
 Alpha virt. eigenvalues --    1.98451   1.98581   1.98693   1.99121   1.99396
 Alpha virt. eigenvalues --    1.99818   2.00138   2.00695   2.00915   2.01052
 Alpha virt. eigenvalues --    2.01371   2.01473   2.01687   2.01762   2.01811
 Alpha virt. eigenvalues --    2.01988   2.02558   2.02786   2.02929   2.03317
 Alpha virt. eigenvalues --    2.03421   2.03543   2.03634   2.03917   2.04024
 Alpha virt. eigenvalues --    2.04497   2.04610   2.04965   2.05205   2.05681
 Alpha virt. eigenvalues --    2.06023   2.06257   2.06628   2.06922   2.07221
 Alpha virt. eigenvalues --    2.07439   2.07689   2.08631   2.08919   2.08967
 Alpha virt. eigenvalues --    2.09189   2.09594   2.09781   2.10934   2.11148
 Alpha virt. eigenvalues --    2.11340   2.11590   2.11614   2.11678   2.11790
 Alpha virt. eigenvalues --    2.12036   2.12481   2.12631   2.12805   2.12822
 Alpha virt. eigenvalues --    2.12999   2.13163   2.13736   2.13786   2.14099
 Alpha virt. eigenvalues --    2.15098   2.15399   2.15580   2.15894   2.16506
 Alpha virt. eigenvalues --    2.16689   2.16806   2.16831   2.17392   2.17531
 Alpha virt. eigenvalues --    2.17661   2.17941   2.18072   2.18315   2.18418
 Alpha virt. eigenvalues --    2.18564   2.18836   2.18916   2.19455   2.19655
 Alpha virt. eigenvalues --    2.19982   2.20062   2.20209   2.20455   2.20608
 Alpha virt. eigenvalues --    2.21477   2.21691   2.21730   2.21970   2.22154
 Alpha virt. eigenvalues --    2.22429   2.22843   2.23279   2.23386   2.24345
 Alpha virt. eigenvalues --    2.24524   2.24899   2.25269   2.25355   2.26279
 Alpha virt. eigenvalues --    2.26628   2.26922   2.27078   2.27367   2.27571
 Alpha virt. eigenvalues --    2.28177   2.28485   2.29239   2.29672   2.29815
 Alpha virt. eigenvalues --    2.30059   2.30467   2.30796   2.30990   2.31048
 Alpha virt. eigenvalues --    2.31165   2.31756   2.32286   2.32456   2.33115
 Alpha virt. eigenvalues --    2.33390   2.33490   2.33749   2.34100   2.34578
 Alpha virt. eigenvalues --    2.35411   2.35557   2.35764   2.36069   2.36527
 Alpha virt. eigenvalues --    2.36583   2.36616   2.36804   2.37770   2.38227
 Alpha virt. eigenvalues --    2.38467   2.38593   2.38830   2.38919   2.39673
 Alpha virt. eigenvalues --    2.39860   2.40148   2.40460   2.40697   2.40990
 Alpha virt. eigenvalues --    2.41281   2.41374   2.41702   2.41954   2.42035
 Alpha virt. eigenvalues --    2.42343   2.42930   2.43130   2.43209   2.43556
 Alpha virt. eigenvalues --    2.44171   2.44182   2.44706   2.44879   2.45028
 Alpha virt. eigenvalues --    2.45236   2.45660   2.45852   2.46317   2.46441
 Alpha virt. eigenvalues --    2.46450   2.46719   2.46793   2.46975   2.47241
 Alpha virt. eigenvalues --    2.47628   2.47774   2.48115   2.49367   2.49674
 Alpha virt. eigenvalues --    2.50068   2.50195   2.50574   2.50774   2.51134
 Alpha virt. eigenvalues --    2.51473   2.51771   2.51874   2.52408   2.52542
 Alpha virt. eigenvalues --    2.52775   2.53314   2.53891   2.54129   2.54185
 Alpha virt. eigenvalues --    2.54441   2.54855   2.55077   2.55554   2.55885
 Alpha virt. eigenvalues --    2.57855   2.58306   2.58608   2.59226   2.60181
 Alpha virt. eigenvalues --    2.60456   2.60565   2.61082   2.61680   2.61993
 Alpha virt. eigenvalues --    2.62483   2.62648   2.62915   2.63379   2.63893
 Alpha virt. eigenvalues --    2.64230   2.64372   2.64839   2.65038   2.65616
 Alpha virt. eigenvalues --    2.65769   2.66024   2.66752   2.66884   2.66979
 Alpha virt. eigenvalues --    2.67246   2.67885   2.68207   2.68816   2.68973
 Alpha virt. eigenvalues --    2.69002   2.69173   2.69305   2.69743   2.69945
 Alpha virt. eigenvalues --    2.70373   2.70920   2.71237   2.72018   2.72077
 Alpha virt. eigenvalues --    2.72626   2.72657   2.72819   2.72891   2.73211
 Alpha virt. eigenvalues --    2.73516   2.73562   2.73634   2.74499   2.74754
 Alpha virt. eigenvalues --    2.74966   2.75277   2.76549   2.76777   2.77206
 Alpha virt. eigenvalues --    2.77259   2.77439   2.77757   2.78212   2.78473
 Alpha virt. eigenvalues --    2.78687   2.78951   2.79101   2.79303   2.80339
 Alpha virt. eigenvalues --    2.80374   2.80566   2.80857   2.81098   2.81334
 Alpha virt. eigenvalues --    2.81900   2.82147   2.82289   2.82638   2.83733
 Alpha virt. eigenvalues --    2.83757   2.83986   2.84095   2.84506   2.84679
 Alpha virt. eigenvalues --    2.84860   2.85201   2.85649   2.85875   2.86824
 Alpha virt. eigenvalues --    2.87014   2.87319   2.87605   2.88165   2.88364
 Alpha virt. eigenvalues --    2.88461   2.88783   2.88935   2.89066   2.90466
 Alpha virt. eigenvalues --    2.90819   2.91116   2.91449   2.93123   2.93472
 Alpha virt. eigenvalues --    2.93963   2.94163   2.94620   2.94841   2.95320
 Alpha virt. eigenvalues --    2.95587   2.95951   2.96214   2.96455   2.96538
 Alpha virt. eigenvalues --    2.97025   2.97170   2.97778   2.98187   2.98204
 Alpha virt. eigenvalues --    2.98322   2.98494   2.98569   2.98765   2.98861
 Alpha virt. eigenvalues --    2.98991   2.99134   2.99783   2.99931   3.00062
 Alpha virt. eigenvalues --    3.00176   3.00346   3.00473   3.00520   3.01168
 Alpha virt. eigenvalues --    3.01965   3.02034   3.02136   3.02296   3.02735
 Alpha virt. eigenvalues --    3.02926   3.02964   3.03374   3.03431   3.03838
 Alpha virt. eigenvalues --    3.04042   3.04294   3.04425   3.04470   3.04829
 Alpha virt. eigenvalues --    3.04936   3.05266   3.05570   3.06085   3.06620
 Alpha virt. eigenvalues --    3.06768   3.07254   3.08134   3.08212   3.09366
 Alpha virt. eigenvalues --    3.09646   3.10000   3.10423   3.10523   3.10896
 Alpha virt. eigenvalues --    3.11286   3.11904   3.11949   3.12294   3.12395
 Alpha virt. eigenvalues --    3.13244   3.13603   3.13732   3.13777   3.14086
 Alpha virt. eigenvalues --    3.14600   3.14762   3.15883   3.16287   3.17260
 Alpha virt. eigenvalues --    3.17740   3.18016   3.18137   3.19137   3.19178
 Alpha virt. eigenvalues --    3.22301   3.22731   3.23922   3.24600   3.24668
 Alpha virt. eigenvalues --    3.25357   3.26480   3.26818   3.27563   3.27591
 Alpha virt. eigenvalues --    3.29099   3.29354   3.31501   3.31570   3.33348
 Alpha virt. eigenvalues --    3.33385   3.40376   3.40634   3.42831   3.42942
 Alpha virt. eigenvalues --    3.48643   3.48869   3.49984   3.50447   3.50990
 Alpha virt. eigenvalues --    3.51448   3.56534   3.57163   3.59064   3.59508
 Alpha virt. eigenvalues --    3.62680   3.62834   3.66229   3.66236   3.67188
 Alpha virt. eigenvalues --    3.67667   3.73273   3.74166   3.76058   3.76835
          Condensed to atoms (all electrons):
 Mulliken charges:
               1
     1  Mg   0.837884
     2  C   -0.002632
     3  C   -0.094333
     4  C   -0.046028
     5  C   -0.064519
     6  N   -0.256632
     7  C   -0.052624
     8  C   -0.013950
     9  C   -0.087022
    10  C    0.046422
    11  C    0.104784
    12  C    0.053640
    13  C   -0.071518
    14  H    0.035451
    15  N   -0.433529
    16  C    0.168901
    17  C   -0.177162
    18  C   -0.003291
    19  C    0.149351
    20  C    0.110332
    21  C    0.014123
    22  O   -0.248539
    23  C    0.062117
    24  N   -0.341090
    25  C    0.041272
    26  C   -0.028930
    27  C   -0.024485
    28  C    0.073219
    29  C    0.076083
    30  C    0.065662
    31  C   -0.051683
    32  N   -0.310410
    33  C    0.079497
    34  C   -0.170128
    35  C    0.008547
    36  C    0.082950
    37  C    0.127326
    38  C    0.046304
    39  O   -0.187766
    40  C   -0.005491
    41  C    0.213027
    42  O   -0.256847
    43  O   -0.304875
    44  C    0.157442
    45  H   -0.017562
    46  H   -0.016388
    47  H   -0.042076
    48  H    0.001157
    49  H   -0.004335
    50  H    0.025694
    51  H    0.016561
    52  H    0.016687
    53  H    0.010650
    54  H    0.044259
    55  H    0.018267
    56  H    0.017443
    57  H    0.005486
    58  H    0.027109
    59  H    0.039394
    60  H    0.036516
    61  H    0.037216
    62  H    0.031879
    63  H    0.016557
    64  H    0.010302
    65  H    0.023659
    66  H    0.013031
    67  H    0.004883
    68  H    0.005796
    69  H    0.002136
    70  H    0.015266
    71  H    0.019278
    72  H    0.046992
    73  H    0.047756
    74  H    0.008414
    75  H    0.046331
    76  H    0.035284
    77  H    0.043459
    78  H    0.045855
    79  H    0.054231
    80  Mg   0.838223
    81  C   -0.016347
    82  C   -0.088396
    83  C   -0.046940
    84  C   -0.063040
    85  N   -0.254470
    86  C   -0.048987
    87  C   -0.015159
    88  C   -0.090693
    89  C    0.045987
    90  C    0.114534
    91  C    0.062656
    92  C   -0.077472
    93  H    0.034346
    94  N   -0.423256
    95  C    0.162720
    96  C   -0.176014
    97  C   -0.008276
    98  C    0.151530
    99  C    0.100059
   100  C    0.014682
   101  O   -0.252683
   102  C    0.061491
   103  N   -0.349897
   104  C    0.038465
   105  C   -0.025795
   106  C   -0.033811
   107  C    0.087373
   108  C    0.082904
   109  C    0.034447
   110  C   -0.007007
   111  N   -0.324653
   112  C    0.079298
   113  C   -0.161090
   114  C    0.003447
   115  C    0.096613
   116  C    0.130740
   117  C    0.043689
   118  O   -0.187303
   119  C    0.000421
   120  C    0.211009
   121  O   -0.251498
   122  O   -0.305426
   123  C    0.152214
   124  H   -0.021189
   125  H   -0.014936
   126  H   -0.040581
   127  H   -0.000563
   128  H   -0.005299
   129  H    0.024275
   130  H    0.014387
   131  H    0.014394
   132  H    0.013662
   133  H    0.037662
   134  H    0.020556
   135  H    0.019057
   136  H    0.007985
   137  H    0.024074
   138  H    0.039175
   139  H    0.036838
   140  H    0.036075
   141  H    0.033682
   142  H    0.013457
   143  H    0.013982
   144  H    0.027723
   145  H    0.009086
   146  H   -0.003841
   147  H    0.005363
   148  H    0.002563
   149  H    0.010906
   150  H    0.017251
   151  H    0.030304
   152  H    0.045243
   153  H    0.007312
   154  H    0.051976
   155  H    0.036714
   156  H    0.043736
   157  H    0.049013
   158  H    0.053293
 Sum of Mulliken charges =  -0.00000
 Mulliken charges with hydrogens summed into heavy atoms:
               1
     1  Mg   0.837884
     2  C   -0.002632
     3  C   -0.111896
     4  C   -0.062416
     5  C   -0.106596
     6  N   -0.256632
     7  C   -0.052624
     8  C   -0.012792
     9  C   -0.091357
    10  C    0.046422
    11  C    0.163725
    12  C    0.108548
    13  C   -0.000357
    15  N   -0.433529
    16  C    0.168901
    17  C   -0.177162
    18  C   -0.003291
    19  C    0.149351
    20  C    0.182321
    21  C    0.014123
    22  O   -0.248539
    23  C    0.167729
    24  N   -0.341090
    25  C    0.041272
    26  C   -0.012374
    27  C   -0.014183
    28  C    0.073219
    29  C    0.117656
    30  C    0.073595
    31  C    0.029853
    32  N   -0.310410
    33  C    0.079497
    34  C   -0.170128
    35  C    0.008547
    36  C    0.082950
    37  C    0.229827
    38  C    0.046304
    39  O   -0.187766
    40  C    0.029793
    41  C    0.213027
    42  O   -0.256847
    43  O   -0.304875
    44  C    0.300987
    80  Mg   0.838223
    81  C   -0.016347
    82  C   -0.109585
    83  C   -0.061876
    84  C   -0.103621
    85  N   -0.254470
    86  C   -0.048987
    87  C   -0.015722
    88  C   -0.095993
    89  C    0.045987
    90  C    0.167590
    91  C    0.113979
    92  C   -0.003514
    94  N   -0.423256
    95  C    0.162720
    96  C   -0.176014
    97  C   -0.008276
    98  C    0.151530
    99  C    0.171293
   100  C    0.014682
   101  O   -0.252683
   102  C    0.168085
   103  N   -0.349897
   104  C    0.038465
   105  C   -0.012338
   106  C   -0.019829
   107  C    0.087373
   108  C    0.115872
   109  C    0.042373
   110  C    0.051453
   111  N   -0.324653
   112  C    0.079298
   113  C   -0.161090
   114  C    0.003447
   115  C    0.096613
   116  C    0.235271
   117  C    0.043689
   118  O   -0.187303
   119  C    0.037135
   120  C    0.211009
   121  O   -0.251498
   122  O   -0.305426
   123  C    0.298255
 Electronic spatial extent (au):  <R**2>=         100605.1466
 Charge=             -0.0000 electrons
 Dipole moment (field-independent basis, Debye):
    X=             -3.2453    Y=             -2.1649    Z=             -7.9091  Tot=              8.8188
 Quadrupole moment (field-independent basis, Debye-Ang):
   XX=           -503.6616   YY=           -556.8846   ZZ=           -447.2716
   XY=            -12.4019   XZ=            -28.6104   YZ=            -25.7103
 Traceless Quadrupole moment (field-independent basis, Debye-Ang):
   XX=             -1.0557   YY=            -54.2787   ZZ=             55.3343
   XY=            -12.4019   XZ=            -28.6104   YZ=            -25.7103
 Octapole moment (field-independent basis, Debye-Ang**2):
  XXX=            -53.6850  YYY=            171.9549  ZZZ=            -41.0862  XYY=            158.6687
  XXY=             36.7463  XXZ=           -351.1067  XZZ=           -145.9662  YZZ=           -135.6400
  YYZ=           -275.8761  XYZ=              7.7127
 Hexadecapole moment (field-independent basis, Debye-Ang**3):
 XXXX=         -73824.8661 YYYY=         -39879.6813 ZZZZ=         -22862.2521 XXXY=            548.0783
 XXXZ=          -1860.7523 YYYX=             20.0258 YYYZ=           -790.3814 ZZZX=             59.5146
 ZZZY=            162.8923 XXYY=         -18939.4081 XXZZ=         -15534.2389 YYZZ=          -9762.0339
 XXYZ=           -645.4391 YYXZ=           -192.9398 ZZXY=           -137.4778
 N-N= 1.548040853306D+04 E-N=-4.044207668004D+04  KE= 4.028805259587D+03
 Leave Link  601 at Fri Sep 10 00:52:24 2021, MaxMem= 23488102400 cpu:              15.9 elap:               0.8
 (Enter /sw/apps/gaussian-16.0/g16/l9999.exe)
 1\1\GINC-BP1-COMPUTE00091\SP\RCAM-B3LYP TD-FC\def2SVP\C68H72Mg2N8O8\OF
 15641\10-Sep-2021\0\\#p cam-b3lyp/Def2SVP td=(nstates=5)\\TDDFT excite
 d states in gaussian\\0,1\Mg,0,0.,0.,0.\C,0,-0.217,-2.218,2.801\C,0,-1
 .255,2.442,2.026\C,0,-0.245,1.85,-2.564\C,0,0.146,-2.824,-2.037\N,0,-0
 .617,-0.009,2.126\C,0,-0.594,-0.908,3.105\C,0,-0.936,-0.309,4.502\C,0,
 -1.773,0.964,4.032\C,0,-1.155,1.168,2.66\C,0,-3.263,0.685,3.863\C,0,0.
 345,0.11,5.299\C,0,0.124,0.397,6.787\H,0,1.168,0.033,7.733\N,0,-0.185,
 1.961,-0.152\C,0,-0.703,2.8,0.777\C,0,-0.62,4.156,0.193\C,0,-0.187,4.0
 15,-1.225\C,0,-0.214,2.583,-1.38\C,0,-0.887,5.406,0.974\C,0,0.181,5.01
 3,-2.277\O,0,0.303,4.69,-3.508\C,0,0.31,6.414,-1.837\N,0,-0.265,-0.413
 ,-2.029\C,0,-0.279,0.569,-2.937\C,0,-0.196,0.024,-4.332\C,0,0.124,-1.5
 33,-4.18\C,0,0.086,-1.632,-2.635\C,0,-1.451,0.205,-5.197\C,0,1.373,-2.
 07,-4.923\C,0,2.626,-1.49,-4.306\N,0,0.15,-2.144,0.303\C,0,0.173,-3.13
 6,-0.688\C,0,0.173,-4.438,0.004\C,0,0.133,-4.111,1.358\C,0,0.083,-2.69
 5,1.502\C,0,0.149,-5.715,-0.623\C,0,0.096,-4.629,2.716\O,0,0.208,-5.74
 7,3.221\C,0,-0.255,-3.428,3.701\C,0,0.717,-3.482,4.848\O,0,1.931,-3.25
 5,4.669\O,0,0.038,-3.556,6.003\C,0,0.943,-3.583,7.183\H,0,-1.859,3.22,
 2.497\H,0,-0.218,2.453,-3.474\H,0,0.276,-3.747,-2.605\H,0,-1.554,-0.94
 9,5.132\H,0,-1.585,1.831,4.665\H,0,-3.484,-0.377,3.969\H,0,-3.511,1.02
 7,2.858\H,0,-3.852,1.301,4.543\H,0,0.669,1.096,4.966\H,0,1.13,-0.639,5
 .189\H,0,-0.844,0.026,7.125\H,0,0.062,1.477,6.921\H,0,-1.344,5.186,1.9
 38\H,0,-1.651,5.963,0.432\H,0,0.007,6.02,1.084\H,0,-0.635,6.744,-1.405
 \H,0,0.665,6.97,-2.704\H,0,1.048,6.466,-1.036\H,0,0.608,0.501,-4.891\H
 ,0,-0.692,-2.156,-4.547\H,0,-1.267,0.74,-6.129\H,0,-2.204,0.714,-4.596
 \H,0,-1.967,-0.72,-5.453\H,0,1.356,-1.759,-5.967\H,0,1.452,-3.157,-4.9
 02\H,0,2.714,-0.522,-4.798\H,0,3.487,-2.121,-4.529\H,0,2.495,-1.303,-3
 .24\H,0,0.867,-6.333,-0.084\H,0,0.404,-5.642,-1.68\H,0,-0.891,-5.999,-
 0.463\H,0,-1.283,-3.581,4.028\H,0,0.698,-4.478,7.755\H,0,0.833,-2.619,
 7.68\H,0,2.,-3.754,6.976\Mg,0,8.94332,0.809,0.68145\C,0,10.01001,-1.32
 262,3.36425\C,0,8.92665,3.3764,2.92707\C,0,7.57633,2.61334,-1.54186\C,
 0,7.95717,-2.0652,-1.02506\N,0,9.4263,0.89137,2.83835\C,0,9.8797,0.031
 24,3.73776\C,0,10.28841,0.67171,5.0914\C,0,9.37783,1.99239,5.01721\C,0
 ,9.26003,2.12316,3.50007\C,0,7.98385,1.79519,5.58928\C,0,11.81525,1.02
 908,5.14674\C,0,12.34574,1.37022,6.541\H,0,13.70605,0.96656,6.88612\N,
 0,8.79954,2.78326,0.53929\C,0,8.83538,3.67664,1.55016\C,0,8.66786,4.99
 795,0.92548\C,0,8.36528,4.79938,-0.51804\C,0,8.2114,3.359,-0.5594\C,0,
 8.87563,6.28338,1.67242\C,0,8.22359,5.74992,-1.66808\O,0,7.7231,5.3809
 4,-2.78888\C,0,8.60138,7.14778,-1.41362\N,0,7.72405,0.3636,-0.94253\C,
 0,7.31044,1.3292,-1.78186\C,0,6.67957,0.74108,-3.02143\C,0,6.97463,-0.
 82908,-2.95001\C,0,7.67857,-0.89209,-1.57673\C,0,5.17606,0.96965,-3.17
 509\C,0,7.68487,-1.46813,-4.17469\C,0,9.10102,-0.94938,-4.27867\N,0,9.
 1312,-1.32182,0.98533\C,0,8.62302,-2.34915,0.16044\C,0,8.90265,-3.6310
 6,0.83937\C,0,9.53867,-3.25634,2.0325\C,0,9.62963,-1.83988,2.10231\C,0
 ,8.53298,-4.92136,0.36548\C,0,10.14425,-3.73649,3.25374\O,0,10.43063,-
 4.84515,3.70385\C,0,10.36307,-2.50073,4.22913\C,0,11.76464,-2.57809,4.
 76962\O,0,12.74225,-2.4445,4.01261\O,0,11.71892,-2.57907,6.11434\C,0,1
 3.08572,-2.64355,6.69702\H,0,8.66891,4.19967,3.59391\H,0,7.18494,3.183
 63,-2.38748\H,0,7.76887,-3.01087,-1.53782\H,0,10.02767,0.08899,5.96675
 \H,0,9.89461,2.85245,5.43506\H,0,7.79542,0.76297,5.84455\H,0,7.30004,2
 .12513,4.81818\H,0,7.8266,2.46605,6.43873\H,0,11.97621,1.99133,4.64385
 \H,0,12.40622,0.24352,4.71748\H,0,11.6452,1.07595,7.33195\H,0,12.4106,
 2.45726,6.63122\H,0,8.92735,6.11555,2.75527\H,0,7.97007,6.88384,1.5335
 7\H,0,9.73465,6.84942,1.30588\H,0,8.00011,7.54155,-0.5976\H,0,8.51638,
 7.65355,-2.37739\H,0,9.6438,7.17272,-1.07694\H,0,7.13696,1.14424,-3.91
 661\H,0,6.0479,-1.41392,-2.85522\H,0,4.90613,1.47745,-4.12026\H,0,4.82
 886,1.54048,-2.32413\H,0,4.56396,0.0713,-3.11594\H,0,7.17953,-1.1784,-
 5.09927\H,0,7.70518,-2.55242,-4.14495\H,0,8.97695,0.00367,-4.80155\H,0
 ,9.7196,-1.63668,-4.85228\H,0,9.51362,-0.73006,-3.28706\H,0,9.38605,-5
 .56755,0.52429\H,0,8.24508,-4.89227,-0.68335\H,0,7.68236,-5.13281,1.01
 893\H,0,9.61498,-2.57091,5.01971\H,0,13.10687,-3.50853,7.36713\H,0,13.
 26428,-1.6505,7.15058\H,0,13.9057,-2.8748,6.02724\\Version=ES64L-G16Re
 vA.03\State=1-A\HF=-4069.8113169\RMSD=5.308e-09\PG=C01 [X(C68H72Mg2N8O
 8)]\\@


 SACRED COWS MAKE GREAT HAMBURGERS -- ROBERT REISNER
 Job cpu time:       0 days 13 hours 23 minutes 49.5 seconds.
 Elapsed time:       0 days  0 hours 34 minutes  7.5 seconds.
 File lengths (MBytes):  RWF=  13225 Int=      0 D2E=      0 Chk=    574 Scr=      1
 Normal termination of Gaussian 16 at Fri Sep 10 00:52:25 2021.
