 Entering Gaussian System, Link 0=g16
 Initial command:
 /sw/apps/gaussian-16.0/g16/l1.exe "/tmp/Gau-100389.inp" -scrdir="/tmp/"
 Entering Link 1 = /sw/apps/gaussian-16.0/g16/l1.exe PID=    100390.
  
 Copyright (c) 1988,1990,1992,1993,1995,1998,2003,2009,2016,
            Gaussian, Inc.  All Rights Reserved.
  
 This is part of the Gaussian(R) 16 program.  It is based on
 the Gaussian(R) 09 system (copyright 2009, Gaussian, Inc.),
 the Gaussian(R) 03 system (copyright 2003, Gaussian, Inc.),
 the Gaussian(R) 98 system (copyright 1998, Gaussian, Inc.),
 the Gaussian(R) 94 system (copyright 1995, Gaussian, Inc.),
 the Gaussian 92(TM) system (copyright 1992, Gaussian, Inc.),
 the Gaussian 90(TM) system (copyright 1990, Gaussian, Inc.),
 the Gaussian 88(TM) system (copyright 1988, Gaussian, Inc.),
 the Gaussian 86(TM) system (copyright 1986, Carnegie Mellon
 University), and the Gaussian 82(TM) system (copyright 1983,
 Carnegie Mellon University). Gaussian is a federally registered
 trademark of Gaussian, Inc.
  
 This software contains proprietary and confidential information,
 including trade secrets, belonging to Gaussian, Inc.
  
 This software is provided under written license and may be
 used, copied, transmitted, or stored only in accord with that
 written license.
  
 The following legend is applicable only to US Government
 contracts under FAR:
  
                    RESTRICTED RIGHTS LEGEND
  
 Use, reproduction and disclosure by the US Government is
 subject to restrictions as set forth in subparagraphs (a)
 and (c) of the Commercial Computer Software - Restricted
 Rights clause in FAR 52.227-19.
  
 Gaussian, Inc.
 340 Quinnipiac St., Bldg. 40, Wallingford CT 06492
  
  
 ---------------------------------------------------------------
 Warning -- This program may not be used in any manner that
 competes with the business of Gaussian, Inc. or will provide
 assistance to any competitor of Gaussian, Inc.  The licensee
 of this program is prohibited from giving any competitor of
 Gaussian, Inc. access to this program.  By using this program,
 the user acknowledges that Gaussian, Inc. is engaged in the
 business of creating and licensing software in the field of
 computational chemistry and represents and warrants to the
 licensee that it is not a competitor of Gaussian, Inc. and that
 it will not use this program in any manner prohibited above.
 ---------------------------------------------------------------
  

 Cite this work as:
 Gaussian 16, Revision A.03,
 M. J. Frisch, G. W. Trucks, H. B. Schlegel, G. E. Scuseria, 
 M. A. Robb, J. R. Cheeseman, G. Scalmani, V. Barone, 
 G. A. Petersson, H. Nakatsuji, X. Li, M. Caricato, A. V. Marenich, 
 J. Bloino, B. G. Janesko, R. Gomperts, B. Mennucci, H. P. Hratchian, 
 J. V. Ortiz, A. F. Izmaylov, J. L. Sonnenberg, D. Williams-Young, 
 F. Ding, F. Lipparini, F. Egidi, J. Goings, B. Peng, A. Petrone, 
 T. Henderson, D. Ranasinghe, V. G. Zakrzewski, J. Gao, N. Rega, 
 G. Zheng, W. Liang, M. Hada, M. Ehara, K. Toyota, R. Fukuda, 
 J. Hasegawa, M. Ishida, T. Nakajima, Y. Honda, O. Kitao, H. Nakai, 
 T. Vreven, K. Throssell, J. A. Montgomery, Jr., J. E. Peralta, 
 F. Ogliaro, M. J. Bearpark, J. J. Heyd, E. N. Brothers, K. N. Kudin, 
 V. N. Staroverov, T. A. Keith, R. Kobayashi, J. Normand, 
 K. Raghavachari, A. P. Rendell, J. C. Burant, S. S. Iyengar, 
 J. Tomasi, M. Cossi, J. M. Millam, M. Klene, C. Adamo, R. Cammi, 
 J. W. Ochterski, R. L. Martin, K. Morokuma, O. Farkas, 
 J. B. Foresman, and D. J. Fox, Gaussian, Inc., Wallingford CT, 2016.
 
 ******************************************
 Gaussian 16:  ES64L-G16RevA.03 25-Dec-2016
                12-Sep-2021 
 ******************************************
 %nproc=24
 Will use up to   24 processors via shared memory.
 %mem=175gb
 -----------------------------------
 #p cam-b3lyp/Def2SVP td=(nstates=5)
 -----------------------------------
 1/38=1,172=1/1;
 2/12=2,17=6,18=5,40=1/2;
 3/5=43,7=101,11=9,25=1,30=1,74=-40/1,2,3,8;
 4//1;
 5/5=2,38=5/2;
 8/6=1,10=1,108=5/1;
 9/41=5,42=1,70=2/14;
 6/7=2,8=2,9=2,10=2/1;
 99/5=1,9=1/99;
 Leave Link    1 at Sun Sep 12 16:21:56 2021, MaxMem= 23488102400 cpu:               0.6 elap:               0.0
 (Enter /sw/apps/gaussian-16.0/g16/l101.exe)
 --------------------------------
 TDDFT excited states in gaussian
 --------------------------------
 Symbolic Z-matrix:
 Charge =  0 Multiplicity = 1
 Mg                    0.        0.        0. 
 C                    -0.217    -2.218     2.801 
 C                    -1.255     2.442     2.026 
 C                    -0.245     1.85     -2.564 
 C                     0.146    -2.824    -2.037 
 N                    -0.617    -0.009     2.126 
 C                    -0.594    -0.908     3.105 
 C                    -0.936    -0.309     4.502 
 C                    -1.773     0.964     4.032 
 C                    -1.155     1.168     2.66 
 C                    -3.263     0.685     3.863 
 C                     0.345     0.11      5.299 
 C                     0.124     0.397     6.787 
 H                     1.168     0.033     7.733 
 N                    -0.185     1.961    -0.152 
 C                    -0.703     2.8       0.777 
 C                    -0.62      4.156     0.193 
 C                    -0.187     4.015    -1.225 
 C                    -0.214     2.583    -1.38 
 C                    -0.887     5.406     0.974 
 C                     0.181     5.013    -2.277 
 O                     0.303     4.69     -3.508 
 C                     0.31      6.414    -1.837 
 N                    -0.265    -0.413    -2.029 
 C                    -0.279     0.569    -2.937 
 C                    -0.196     0.024    -4.332 
 C                     0.124    -1.533    -4.18 
 C                     0.086    -1.632    -2.635 
 C                    -1.451     0.205    -5.197 
 C                     1.373    -2.07     -4.923 
 C                     2.626    -1.49     -4.306 
 N                     0.15     -2.144     0.303 
 C                     0.173    -3.136    -0.688 
 C                     0.173    -4.438     0.004 
 C                     0.133    -4.111     1.358 
 C                     0.083    -2.695     1.502 
 C                     0.149    -5.715    -0.623 
 C                     0.096    -4.629     2.716 
 O                     0.208    -5.747     3.221 
 C                    -0.255    -3.428     3.701 
 C                     0.717    -3.482     4.848 
 O                     1.931    -3.255     4.669 
 O                     0.038    -3.556     6.003 
 C                     0.943    -3.583     7.183 
 H                    -1.859     3.22      2.497 
 H                    -0.218     2.453    -3.474 
 H                     0.276    -3.747    -2.605 
 H                    -1.554    -0.949     5.132 
 H                    -1.585     1.831     4.665 
 H                    -3.484    -0.377     3.969 
 H                    -3.511     1.027     2.858 
 H                    -3.852     1.301     4.543 
 H                     0.669     1.096     4.966 
 H                     1.13     -0.639     5.189 
 H                    -0.844     0.026     7.125 
 H                     0.062     1.477     6.921 
 H                    -1.344     5.186     1.938 
 H                    -1.651     5.963     0.432 
 H                     0.007     6.02      1.084 
 H                    -0.635     6.744    -1.405 
 H                     0.665     6.97     -2.704 
 H                     1.048     6.466    -1.036 
 H                     0.608     0.501    -4.891 
 H                    -0.692    -2.156    -4.547 
 H                    -1.267     0.74     -6.129 
 H                    -2.204     0.714    -4.596 
 H                    -1.967    -0.72     -5.453 
 H                     1.356    -1.759    -5.967 
 H                     1.452    -3.157    -4.902 
 H                     2.714    -0.522    -4.798 
 H                     3.487    -2.121    -4.529 
 H                     2.495    -1.303    -3.24 
 H                     0.867    -6.333    -0.084 
 H                     0.404    -5.642    -1.68 
 H                    -0.891    -5.999    -0.463 
 H                    -1.283    -3.581     4.028 
 H                     0.698    -4.478     7.755 
 H                     0.833    -2.619     7.68 
 H                     2.       -3.754     6.976 
 Mg                    31.53732   2.83344   2.40313 
 C                     28.88141   2.63714   4.80869 
 C                     33.34866   4.50452   4.76134 
 C                     33.71644   3.41785   0.17214 
 C                     29.16209   2.19209  -0.0652 
 N                     31.06734   3.43249   4.47979 
 C                     30.04989   3.24947   5.30783 
 C                     30.32821   3.67845   6.77346 
 C                     31.49741   4.74334   6.49443 
 C                     32.03426   4.17833   5.18095 
 C                     30.98172   6.14897   6.2344 
 C                     30.83597   2.48674   7.6589 
 C                     30.83246   2.75756   9.16502 
 H                     30.51418   1.65617   10.06952 
 N                     33.43985   3.37114   2.5758 
 C                     34.01064   4.02254   3.61077 
 C                     35.42426   4.19986   3.24417 
 C                     35.60468   3.74641   1.83827 
 C                     34.22639   3.50845   1.45911 
 C                     36.46314   4.67845   4.21633 
 C                     36.81604   3.56997   0.97358 
 O                     36.71977   3.39245  -0.29214 
 C                     38.12079   3.7043    1.63771 
 N                     31.42356   3.01995   0.33562 
 C                     32.52931   3.22226  -0.40215 
 C                     32.24214   3.0482   -1.87443 
 C                     30.76239   2.44708  -1.9554 
 C                     30.40076   2.4618   -0.45393 
 C                     32.32273   4.31732  -2.72251 
 C                     30.58331   1.12201  -2.74585 
 C                     31.27624  -0.00915  -2.02079 
 N                     29.44553   2.29435   2.36004 
 C                     28.6383   2.09929   1.21793 
 C                     27.2604   1.86073   1.69426 
 C                     27.35805   1.95714   3.09057 
 C                     28.69803   2.25609   3.45742 
 C                     26.12071   1.64476   0.86929 
 C                     26.63017   1.88451   4.33701 
 O                     25.48236   1.57715   4.65604 
 C                     27.55887   2.44661   5.49803 
 C                     27.50131   1.47915   6.64835 
 O                     27.95849   0.32867   6.5301 
 O                     27.11689   2.13614   7.75783 
 C                     27.05555   1.22091   8.92848 
 H                     33.9142   5.23146   5.34495 
 H                     34.45022   3.50213  -0.63281 
 H                     28.38322   1.88717  -0.76738 
 H                     29.49606   4.1618    7.27112 
 H                     32.26082   4.70325   7.26707 
 H                     29.90454   6.17616   6.16314 
 H                     31.43066   6.4588    5.29978 
 H                     31.36286   6.83695   6.9945 
 H                     31.91285   2.35214   7.49472 
 H                     30.2795   1.59356   7.45106 
 H                     30.24596   3.64792   9.42236 
 H                     31.84992   3.00806   9.47493 
 H                     36.00515   5.09124   5.12366 
 H                     36.96535   5.53413   3.75214 
 H                     37.20811   3.91395   4.447 
 H                     38.19426   4.68876   2.09368 
 H                     38.86309   3.45688   0.87636 
 H                     38.17487   2.9748    2.45351 
 H                     32.93248   2.34409  -2.3225 
 H                     30.06779   3.13991  -2.45274 
 H                     33.03956   4.2369   -3.56141 
 H                     32.58542   5.14391  -2.07577 
 H                     31.37735   4.64879  -3.14864 
 H                     31.0585   1.19908  -3.72687 
 H                     29.54496   0.85459  -2.91109 
 H                     32.31581   0.08828  -2.34776 
 H                     30.85723  -0.96836  -2.31809 
 H                     31.25579   0.14764  -0.93606 
 H                     25.56306   0.83196   1.31526 
 H                     26.40872   1.41559  -0.15458 
 H                     25.63372   2.62024   0.95016 
 H                     27.18013   3.43192   5.77244 
 H                     26.04612   1.30049   9.3437 
 H                     27.89501   1.51847   9.58463 
 H                     27.12194   0.15641   8.73645 
 
 ITRead=  0  0  0  0  0  0  0  0  0  0  0  0  0  0  0  0  0  0  0  0
 ITRead=  0  0  0  0  0  0  0  0  0  0  0  0  0  0  0  0  0  0  0  0
 ITRead=  0  0  0  0  0  0  0  0  0  0  0  0  0  0  0  0  0  0  0  0
 ITRead=  0  0  0  0  0  0  0  0  0  0  0  0  0  0  0  0  0  0  0  0
 ITRead=  0  0  0  0  0  0  0  0  0  0  0  0  0  0  0  0  0  0  0  0
 ITRead=  0  0  0  0  0  0  0  0  0  0  0  0  0  0  0  0  0  0  0  0
 ITRead=  0  0  0  0  0  0  0  0  0  0  0  0  0  0  0  0  0  0  0  0
 ITRead=  0  0  0  0  0  0  0  0  0  0  0  0  0  0  0  0  0  0
 MicOpt= -1 -1 -1 -1 -1 -1 -1 -1 -1 -1 -1 -1 -1 -1 -1 -1 -1 -1 -1 -1
 MicOpt= -1 -1 -1 -1 -1 -1 -1 -1 -1 -1 -1 -1 -1 -1 -1 -1 -1 -1 -1 -1
 MicOpt= -1 -1 -1 -1 -1 -1 -1 -1 -1 -1 -1 -1 -1 -1 -1 -1 -1 -1 -1 -1
 MicOpt= -1 -1 -1 -1 -1 -1 -1 -1 -1 -1 -1 -1 -1 -1 -1 -1 -1 -1 -1 -1
 MicOpt= -1 -1 -1 -1 -1 -1 -1 -1 -1 -1 -1 -1 -1 -1 -1 -1 -1 -1 -1 -1
 MicOpt= -1 -1 -1 -1 -1 -1 -1 -1 -1 -1 -1 -1 -1 -1 -1 -1 -1 -1 -1 -1
 MicOpt= -1 -1 -1 -1 -1 -1 -1 -1 -1 -1 -1 -1 -1 -1 -1 -1 -1 -1 -1 -1
 MicOpt= -1 -1 -1 -1 -1 -1 -1 -1 -1 -1 -1 -1 -1 -1 -1 -1 -1 -1
 NAtoms=    158 NQM=      158 NQMF=       0 NMMI=      0 NMMIF=      0
                NMic=       0 NMicF=      0.
                    Isotopes and Nuclear Properties:
 (Nuclear quadrupole moments (NQMom) in fm**2, nuclear magnetic moments (NMagM)
  in nuclear magnetons)

  Atom         1           2           3           4           5           6           7           8           9          10
 IAtWgt=          24          12          12          12          12          14          12          12          12          12
 AtmWgt=  23.9850450  12.0000000  12.0000000  12.0000000  12.0000000  14.0030740  12.0000000  12.0000000  12.0000000  12.0000000
 NucSpn=           0           0           0           0           0           2           0           0           0           0
 AtZEff=  -0.0000000  -0.0000000  -0.0000000  -0.0000000  -0.0000000  -0.0000000  -0.0000000  -0.0000000  -0.0000000  -0.0000000
 NQMom=    0.0000000   0.0000000   0.0000000   0.0000000   0.0000000   2.0440000   0.0000000   0.0000000   0.0000000   0.0000000
 NMagM=    0.0000000   0.0000000   0.0000000   0.0000000   0.0000000   0.4037610   0.0000000   0.0000000   0.0000000   0.0000000
 AtZNuc=  12.0000000   6.0000000   6.0000000   6.0000000   6.0000000   7.0000000   6.0000000   6.0000000   6.0000000   6.0000000

  Atom        11          12          13          14          15          16          17          18          19          20
 IAtWgt=          12          12          12           1          14          12          12          12          12          12
 AtmWgt=  12.0000000  12.0000000  12.0000000   1.0078250  14.0030740  12.0000000  12.0000000  12.0000000  12.0000000  12.0000000
 NucSpn=           0           0           0           1           2           0           0           0           0           0
 AtZEff=  -0.0000000  -0.0000000  -0.0000000  -0.0000000  -0.0000000  -0.0000000  -0.0000000  -0.0000000  -0.0000000  -0.0000000
 NQMom=    0.0000000   0.0000000   0.0000000   0.0000000   2.0440000   0.0000000   0.0000000   0.0000000   0.0000000   0.0000000
 NMagM=    0.0000000   0.0000000   0.0000000   2.7928460   0.4037610   0.0000000   0.0000000   0.0000000   0.0000000   0.0000000
 AtZNuc=   6.0000000   6.0000000   6.0000000   1.0000000   7.0000000   6.0000000   6.0000000   6.0000000   6.0000000   6.0000000

  Atom        21          22          23          24          25          26          27          28          29          30
 IAtWgt=          12          16          12          14          12          12          12          12          12          12
 AtmWgt=  12.0000000  15.9949146  12.0000000  14.0030740  12.0000000  12.0000000  12.0000000  12.0000000  12.0000000  12.0000000
 NucSpn=           0           0           0           2           0           0           0           0           0           0
 AtZEff=  -0.0000000  -0.0000000  -0.0000000  -0.0000000  -0.0000000  -0.0000000  -0.0000000  -0.0000000  -0.0000000  -0.0000000
 NQMom=    0.0000000   0.0000000   0.0000000   2.0440000   0.0000000   0.0000000   0.0000000   0.0000000   0.0000000   0.0000000
 NMagM=    0.0000000   0.0000000   0.0000000   0.4037610   0.0000000   0.0000000   0.0000000   0.0000000   0.0000000   0.0000000
 AtZNuc=   6.0000000   8.0000000   6.0000000   7.0000000   6.0000000   6.0000000   6.0000000   6.0000000   6.0000000   6.0000000

  Atom        31          32          33          34          35          36          37          38          39          40
 IAtWgt=          12          14          12          12          12          12          12          12          16          12
 AtmWgt=  12.0000000  14.0030740  12.0000000  12.0000000  12.0000000  12.0000000  12.0000000  12.0000000  15.9949146  12.0000000
 NucSpn=           0           2           0           0           0           0           0           0           0           0
 AtZEff=  -0.0000000  -0.0000000  -0.0000000  -0.0000000  -0.0000000  -0.0000000  -0.0000000  -0.0000000  -0.0000000  -0.0000000
 NQMom=    0.0000000   2.0440000   0.0000000   0.0000000   0.0000000   0.0000000   0.0000000   0.0000000   0.0000000   0.0000000
 NMagM=    0.0000000   0.4037610   0.0000000   0.0000000   0.0000000   0.0000000   0.0000000   0.0000000   0.0000000   0.0000000
 AtZNuc=   6.0000000   7.0000000   6.0000000   6.0000000   6.0000000   6.0000000   6.0000000   6.0000000   8.0000000   6.0000000

  Atom        41          42          43          44          45          46          47          48          49          50
 IAtWgt=          12          16          16          12           1           1           1           1           1           1
 AtmWgt=  12.0000000  15.9949146  15.9949146  12.0000000   1.0078250   1.0078250   1.0078250   1.0078250   1.0078250   1.0078250
 NucSpn=           0           0           0           0           1           1           1           1           1           1
 AtZEff=  -0.0000000  -0.0000000  -0.0000000  -0.0000000  -0.0000000  -0.0000000  -0.0000000  -0.0000000  -0.0000000  -0.0000000
 NQMom=    0.0000000   0.0000000   0.0000000   0.0000000   0.0000000   0.0000000   0.0000000   0.0000000   0.0000000   0.0000000
 NMagM=    0.0000000   0.0000000   0.0000000   0.0000000   2.7928460   2.7928460   2.7928460   2.7928460   2.7928460   2.7928460
 AtZNuc=   6.0000000   8.0000000   8.0000000   6.0000000   1.0000000   1.0000000   1.0000000   1.0000000   1.0000000   1.0000000

  Atom        51          52          53          54          55          56          57          58          59          60
 IAtWgt=           1           1           1           1           1           1           1           1           1           1
 AtmWgt=   1.0078250   1.0078250   1.0078250   1.0078250   1.0078250   1.0078250   1.0078250   1.0078250   1.0078250   1.0078250
 NucSpn=           1           1           1           1           1           1           1           1           1           1
 AtZEff=  -0.0000000  -0.0000000  -0.0000000  -0.0000000  -0.0000000  -0.0000000  -0.0000000  -0.0000000  -0.0000000  -0.0000000
 NQMom=    0.0000000   0.0000000   0.0000000   0.0000000   0.0000000   0.0000000   0.0000000   0.0000000   0.0000000   0.0000000
 NMagM=    2.7928460   2.7928460   2.7928460   2.7928460   2.7928460   2.7928460   2.7928460   2.7928460   2.7928460   2.7928460
 AtZNuc=   1.0000000   1.0000000   1.0000000   1.0000000   1.0000000   1.0000000   1.0000000   1.0000000   1.0000000   1.0000000

  Atom        61          62          63          64          65          66          67          68          69          70
 IAtWgt=           1           1           1           1           1           1           1           1           1           1
 AtmWgt=   1.0078250   1.0078250   1.0078250   1.0078250   1.0078250   1.0078250   1.0078250   1.0078250   1.0078250   1.0078250
 NucSpn=           1           1           1           1           1           1           1           1           1           1
 AtZEff=  -0.0000000  -0.0000000  -0.0000000  -0.0000000  -0.0000000  -0.0000000  -0.0000000  -0.0000000  -0.0000000  -0.0000000
 NQMom=    0.0000000   0.0000000   0.0000000   0.0000000   0.0000000   0.0000000   0.0000000   0.0000000   0.0000000   0.0000000
 NMagM=    2.7928460   2.7928460   2.7928460   2.7928460   2.7928460   2.7928460   2.7928460   2.7928460   2.7928460   2.7928460
 AtZNuc=   1.0000000   1.0000000   1.0000000   1.0000000   1.0000000   1.0000000   1.0000000   1.0000000   1.0000000   1.0000000

  Atom        71          72          73          74          75          76          77          78          79          80
 IAtWgt=           1           1           1           1           1           1           1           1           1          24
 AtmWgt=   1.0078250   1.0078250   1.0078250   1.0078250   1.0078250   1.0078250   1.0078250   1.0078250   1.0078250  23.9850450
 NucSpn=           1           1           1           1           1           1           1           1           1           0
 AtZEff=  -0.0000000  -0.0000000  -0.0000000  -0.0000000  -0.0000000  -0.0000000  -0.0000000  -0.0000000  -0.0000000  -0.0000000
 NQMom=    0.0000000   0.0000000   0.0000000   0.0000000   0.0000000   0.0000000   0.0000000   0.0000000   0.0000000   0.0000000
 NMagM=    2.7928460   2.7928460   2.7928460   2.7928460   2.7928460   2.7928460   2.7928460   2.7928460   2.7928460   0.0000000
 AtZNuc=   1.0000000   1.0000000   1.0000000   1.0000000   1.0000000   1.0000000   1.0000000   1.0000000   1.0000000  12.0000000

  Atom        81          82          83          84          85          86          87          88          89          90
 IAtWgt=          12          12          12          12          14          12          12          12          12          12
 AtmWgt=  12.0000000  12.0000000  12.0000000  12.0000000  14.0030740  12.0000000  12.0000000  12.0000000  12.0000000  12.0000000
 NucSpn=           0           0           0           0           2           0           0           0           0           0
 AtZEff=  -0.0000000  -0.0000000  -0.0000000  -0.0000000  -0.0000000  -0.0000000  -0.0000000  -0.0000000  -0.0000000  -0.0000000
 NQMom=    0.0000000   0.0000000   0.0000000   0.0000000   2.0440000   0.0000000   0.0000000   0.0000000   0.0000000   0.0000000
 NMagM=    0.0000000   0.0000000   0.0000000   0.0000000   0.4037610   0.0000000   0.0000000   0.0000000   0.0000000   0.0000000
 AtZNuc=   6.0000000   6.0000000   6.0000000   6.0000000   7.0000000   6.0000000   6.0000000   6.0000000   6.0000000   6.0000000

  Atom        91          92          93          94          95          96          97          98          99         100
 IAtWgt=          12          12           1          14          12          12          12          12          12          12
 AtmWgt=  12.0000000  12.0000000   1.0078250  14.0030740  12.0000000  12.0000000  12.0000000  12.0000000  12.0000000  12.0000000
 NucSpn=           0           0           1           2           0           0           0           0           0           0
 AtZEff=  -0.0000000  -0.0000000  -0.0000000  -0.0000000  -0.0000000  -0.0000000  -0.0000000  -0.0000000  -0.0000000  -0.0000000
 NQMom=    0.0000000   0.0000000   0.0000000   2.0440000   0.0000000   0.0000000   0.0000000   0.0000000   0.0000000   0.0000000
 NMagM=    0.0000000   0.0000000   2.7928460   0.4037610   0.0000000   0.0000000   0.0000000   0.0000000   0.0000000   0.0000000
 AtZNuc=   6.0000000   6.0000000   1.0000000   7.0000000   6.0000000   6.0000000   6.0000000   6.0000000   6.0000000   6.0000000

  Atom       101         102         103         104         105         106         107         108         109         110
 IAtWgt=          16          12          14          12          12          12          12          12          12          12
 AtmWgt=  15.9949146  12.0000000  14.0030740  12.0000000  12.0000000  12.0000000  12.0000000  12.0000000  12.0000000  12.0000000
 NucSpn=           0           0           2           0           0           0           0           0           0           0
 AtZEff=  -0.0000000  -0.0000000  -0.0000000  -0.0000000  -0.0000000  -0.0000000  -0.0000000  -0.0000000  -0.0000000  -0.0000000
 NQMom=    0.0000000   0.0000000   2.0440000   0.0000000   0.0000000   0.0000000   0.0000000   0.0000000   0.0000000   0.0000000
 NMagM=    0.0000000   0.0000000   0.4037610   0.0000000   0.0000000   0.0000000   0.0000000   0.0000000   0.0000000   0.0000000
 AtZNuc=   8.0000000   6.0000000   7.0000000   6.0000000   6.0000000   6.0000000   6.0000000   6.0000000   6.0000000   6.0000000

  Atom       111         112         113         114         115         116         117         118         119         120
 IAtWgt=          14          12          12          12          12          12          12          16          12          12
 AtmWgt=  14.0030740  12.0000000  12.0000000  12.0000000  12.0000000  12.0000000  12.0000000  15.9949146  12.0000000  12.0000000
 NucSpn=           2           0           0           0           0           0           0           0           0           0
 AtZEff=  -0.0000000  -0.0000000  -0.0000000  -0.0000000  -0.0000000  -0.0000000  -0.0000000  -0.0000000  -0.0000000  -0.0000000
 NQMom=    2.0440000   0.0000000   0.0000000   0.0000000   0.0000000   0.0000000   0.0000000   0.0000000   0.0000000   0.0000000
 NMagM=    0.4037610   0.0000000   0.0000000   0.0000000   0.0000000   0.0000000   0.0000000   0.0000000   0.0000000   0.0000000
 AtZNuc=   7.0000000   6.0000000   6.0000000   6.0000000   6.0000000   6.0000000   6.0000000   8.0000000   6.0000000   6.0000000

  Atom       121         122         123         124         125         126         127         128         129         130
 IAtWgt=          16          16          12           1           1           1           1           1           1           1
 AtmWgt=  15.9949146  15.9949146  12.0000000   1.0078250   1.0078250   1.0078250   1.0078250   1.0078250   1.0078250   1.0078250
 NucSpn=           0           0           0           1           1           1           1           1           1           1
 AtZEff=  -0.0000000  -0.0000000  -0.0000000  -0.0000000  -0.0000000  -0.0000000  -0.0000000  -0.0000000  -0.0000000  -0.0000000
 NQMom=    0.0000000   0.0000000   0.0000000   0.0000000   0.0000000   0.0000000   0.0000000   0.0000000   0.0000000   0.0000000
 NMagM=    0.0000000   0.0000000   0.0000000   2.7928460   2.7928460   2.7928460   2.7928460   2.7928460   2.7928460   2.7928460
 AtZNuc=   8.0000000   8.0000000   6.0000000   1.0000000   1.0000000   1.0000000   1.0000000   1.0000000   1.0000000   1.0000000

  Atom       131         132         133         134         135         136         137         138         139         140
 IAtWgt=           1           1           1           1           1           1           1           1           1           1
 AtmWgt=   1.0078250   1.0078250   1.0078250   1.0078250   1.0078250   1.0078250   1.0078250   1.0078250   1.0078250   1.0078250
 NucSpn=           1           1           1           1           1           1           1           1           1           1
 AtZEff=  -0.0000000  -0.0000000  -0.0000000  -0.0000000  -0.0000000  -0.0000000  -0.0000000  -0.0000000  -0.0000000  -0.0000000
 NQMom=    0.0000000   0.0000000   0.0000000   0.0000000   0.0000000   0.0000000   0.0000000   0.0000000   0.0000000   0.0000000
 NMagM=    2.7928460   2.7928460   2.7928460   2.7928460   2.7928460   2.7928460   2.7928460   2.7928460   2.7928460   2.7928460
 AtZNuc=   1.0000000   1.0000000   1.0000000   1.0000000   1.0000000   1.0000000   1.0000000   1.0000000   1.0000000   1.0000000

  Atom       141         142         143         144         145         146         147         148         149         150
 IAtWgt=           1           1           1           1           1           1           1           1           1           1
 AtmWgt=   1.0078250   1.0078250   1.0078250   1.0078250   1.0078250   1.0078250   1.0078250   1.0078250   1.0078250   1.0078250
 NucSpn=           1           1           1           1           1           1           1           1           1           1
 AtZEff=  -0.0000000  -0.0000000  -0.0000000  -0.0000000  -0.0000000  -0.0000000  -0.0000000  -0.0000000  -0.0000000  -0.0000000
 NQMom=    0.0000000   0.0000000   0.0000000   0.0000000   0.0000000   0.0000000   0.0000000   0.0000000   0.0000000   0.0000000
 NMagM=    2.7928460   2.7928460   2.7928460   2.7928460   2.7928460   2.7928460   2.7928460   2.7928460   2.7928460   2.7928460
 AtZNuc=   1.0000000   1.0000000   1.0000000   1.0000000   1.0000000   1.0000000   1.0000000   1.0000000   1.0000000   1.0000000

  Atom       151         152         153         154         155         156         157         158
 IAtWgt=           1           1           1           1           1           1           1           1
 AtmWgt=   1.0078250   1.0078250   1.0078250   1.0078250   1.0078250   1.0078250   1.0078250   1.0078250
 NucSpn=           1           1           1           1           1           1           1           1
 AtZEff=  -0.0000000  -0.0000000  -0.0000000  -0.0000000  -0.0000000  -0.0000000  -0.0000000  -0.0000000
 NQMom=    0.0000000   0.0000000   0.0000000   0.0000000   0.0000000   0.0000000   0.0000000   0.0000000
 NMagM=    2.7928460   2.7928460   2.7928460   2.7928460   2.7928460   2.7928460   2.7928460   2.7928460
 AtZNuc=   1.0000000   1.0000000   1.0000000   1.0000000   1.0000000   1.0000000   1.0000000   1.0000000
 Leave Link  101 at Sun Sep 12 16:21:56 2021, MaxMem= 23488102400 cpu:               3.9 elap:               0.2
 (Enter /sw/apps/gaussian-16.0/g16/l202.exe)
 Stoichiometry    C68H72Mg2N8O8
 Framework group  C1[X(C68H72Mg2N8O8)]
 Deg. of freedom   468
 Full point group                 C1      NOp   1
 Largest Abelian subgroup         C1      NOp   1
 Largest concise Abelian subgroup C1      NOp   1
                         Standard orientation:                         
 ---------------------------------------------------------------------
 Center     Atomic      Atomic             Coordinates (Angstroms)
 Number     Number       Type             X           Y           Z
 ---------------------------------------------------------------------
      1         12           0       15.597707   -0.843010    0.280102
      2          6           0       15.858428    2.311453   -1.391306
      3          6           0       16.445507    0.780601    3.159024
      4          6           0       15.818307   -3.677349    1.685263
      5          6           0       15.891396   -2.356499   -2.845399
      6          7           0       16.066309    1.278847    0.702928
      7          6           0       16.072535    2.398352   -0.013898
      8          6           0       16.253237    3.683215    0.848569
      9          6           0       16.980182    3.037906    2.112343
     10          6           0       16.438641    1.623078    2.007843
     11          6           0       18.499414    2.993047    1.984193
     12          6           0       14.883793    4.331068    1.244348
     13          6           0       14.971440    5.754384    1.802780
     14          1           0       13.910201    6.697877    1.485071
     15          7           0       15.583134   -1.328216    2.195099
     16          6           0       15.944715   -0.537160    3.233740
     17          6           0       15.757932   -1.353766    4.452325
     18          6           0       15.439706   -2.744202    4.023940
     19          6           0       15.629217   -2.643561    2.599393
     20          6           0       15.836890   -0.792652    5.838927
     21          6           0       15.040040   -3.971850    4.779772
     22          8           0       15.036970   -5.131344    4.241129
     23          6           0       14.733278   -3.791768    6.210334
     24          7           0       16.042322   -2.752534   -0.436606
     25          6           0       16.013523   -3.817257    0.372418
     26          6           0       16.083877   -5.097084   -0.406704
     27          6           0       15.921590   -4.689445   -1.942036
     28          6           0       15.864852   -3.151105   -1.773035
     29          6           0       17.368378   -5.918533   -0.229814
     30          6           0       14.790115   -5.386160   -2.738761
     31          6           0       13.443564   -4.942233   -2.212617
     32          7           0       15.656192   -0.175468   -1.784362
     33          6           0       15.806130   -0.976581   -2.925594
     34          6           0       15.897501   -0.067304   -4.082717
     35          6           0       15.810445    1.208448   -3.528892
     36          6           0       15.699767    1.103538   -2.112899
     37          6           0       16.099626   -0.458141   -5.435797
     38          6           0       15.809951    2.636532   -3.801718
     39          8           0       15.783363    3.324167   -4.823454
     40          6           0       15.963587    3.410912   -2.418766
     41          6           0       14.927171    4.501032   -2.390687
     42          8           0       13.710901    4.226253   -2.340182
     43          8           0       15.530149    5.682604   -2.188580
     44          6           0       14.555086    6.803674   -2.120690
     45          1           0       16.929998    1.136230    4.070472
     46          1           0       15.789254   -4.679402    2.118257
     47          1           0       15.899120   -2.759024   -3.859976
     48          1           0       16.891524    4.445129    0.400796
     49          1           0       16.658534    3.498763    3.046086
     50          1           0       18.824320    3.294679    0.988514
     51          1           0       18.777357    1.956806    2.177698
     52          1           0       18.972045    3.581923    2.770719
     53          1           0       14.480208    3.814608    2.115238
     54          1           0       14.192142    4.316510    0.401299
     55          1           0       15.948178    6.198881    1.609609
     56          1           0       14.909056    5.699289    2.889643
     57          1           0       16.248134    0.216021    5.839974
     58          1           0       16.572408   -1.386428    6.381286
     59          1           0       14.877300   -0.835790    6.354348
     60          1           0       15.606309   -3.379192    6.716444
     61          1           0       14.380918   -4.759187    6.566414
     62          1           0       13.941231   -3.049131    6.310846
     63          1           0       15.273577   -5.769556   -0.128098
     64          1           0       16.822218   -4.901199   -2.518841
     65          1           0       17.192300   -6.937878    0.114625
     66          1           0       18.020438   -5.380570    0.457721
     67          1           0       17.995959   -5.982609   -1.118326
     68          1           0       14.844847   -6.466501   -2.609093
     69          1           0       14.825849   -5.178259   -3.808224
     70          1           0       13.286808   -5.600417   -1.358770
     71          1           0       12.671655   -5.092326   -2.968156
     72          1           0       13.481226   -3.920627   -1.833948
     73          1           0       15.416428    0.145639   -6.033007
     74          1           0       15.910710   -1.522617   -5.572926
     75          1           0       17.150634   -0.200461   -5.565563
     76          1           0       16.977423    3.809181   -2.393461
     77          1           0       14.854395    7.535298   -2.871273
     78          1           0       14.527988    7.128212   -1.080332
     79          1           0       13.538765    6.578943   -2.446155
     80         12           0      -16.152111   -0.507763   -0.212493
     81          6           0      -13.659969    2.020774    0.311755
     82          6           0      -18.286791    1.429297    1.611117
     83          6           0      -18.224380   -2.909761   -0.271846
     84          6           0      -13.560007   -2.706767   -0.981309
     85          7           0      -15.890628    1.451561    0.779946
     86          6           0      -14.918104    2.347234    0.859436
     87          6           0      -15.339359    3.699379    1.494891
     88          6           0      -16.593445    3.181126    2.353704
     89          6           0      -16.976727    1.962958    1.515948
     90          6           0      -16.213603    2.703368    3.745400
     91          6           0      -15.776556    4.754839    0.419317
     92          6           0      -15.904173    6.188267    0.939655
     93          1           0      -15.532822    7.286652    0.051887
     94          7           0      -18.108323   -0.524780    0.121425
     95          6           0      -18.814095    0.350643    0.867619
     96          6           0      -20.210366   -0.109539    0.814511
     97          6           0      -20.245644   -1.420902    0.111798
     98          6           0      -18.827314   -1.685029   -0.024761
     99          6           0      -21.357856    0.711804    1.326445
    100          6           0      -21.369834   -2.298825   -0.348267
    101          8           0      -21.169481   -3.507446   -0.724992
    102          6           0      -22.723556   -1.732723   -0.256338
    103          7           0      -15.918630   -2.567875   -0.366605
    104          6           0      -16.986931   -3.382465   -0.422221
    105          6           0      -16.583538   -4.785533   -0.808288
    106          6           0      -15.046218   -4.687708   -1.237985
    107          6           0      -14.791041   -3.196464   -0.927371
    108          6           0      -16.740757   -5.846401    0.280859
    109          6           0      -14.674038   -5.223283   -2.647713
    110          6           0      -15.290466   -4.345138   -3.712731
    111          7           0      -14.016805   -0.353916   -0.503804
    112          6           0      -13.117704   -1.403436   -0.793991
    113          6           0      -11.757814   -0.826331   -0.786406
    114          6           0      -11.959787    0.524882   -0.467121
    115          6           0      -13.345758    0.768041   -0.268495
    116          6           0      -10.548230   -1.544230   -1.004673
    117          6           0      -11.314676    1.798490   -0.242507
    118          8           0      -10.165040    2.221868   -0.355667
    119          6           0      -12.374571    2.796190    0.395948
    120          6           0      -12.292792    4.100084   -0.349505
    121          8           0      -12.616011    4.163889   -1.548696
    122          8           0      -12.056640    5.094111    0.525997
    123          6           0      -11.978042    6.408996   -0.164459
    124          1           0      -18.964722    1.847904    2.355467
    125          1           0      -18.906573   -3.751616   -0.411031
    126          1           0      -12.707248   -3.305797   -1.307864
    127          1           0      -14.599036    4.144083    2.149051
    128          1           0      -17.398984    3.910834    2.356332
    129          1           0      -15.143076    2.680764    3.885380
    130          1           0      -16.628395    1.708181    3.838178
    131          1           0      -16.716456    3.311297    4.502960
    132          1           0      -16.819376    4.564847    0.134408
    133          1           0      -15.115482    4.734485   -0.425191
    134          1           0      -15.434470    6.313219    1.922871
    135          1           0      -16.961183    6.399600    1.118784
    136          1           0      -21.009035    1.553567    1.937311
    137          1           0      -21.915465    0.080620    2.026841
    138          1           0      -22.031293    1.036870    0.530540
    139          1           0      -22.932046   -1.461021    0.775737
    140          1           0      -23.381910   -2.473812   -0.713762
    141          1           0      -22.755091   -0.804985   -0.838517
    142          1           0      -17.163090   -5.135793   -1.653595
    143          1           0      -14.397016   -5.264816   -0.563215
    144          1           0      -17.386325   -6.691862   -0.023285
    145          1           0      -17.133137   -5.368553    1.168681
    146          1           0      -15.809209   -6.277806    0.643227
    147          1           0      -15.086980   -6.224448   -2.793640
    148          1           0      -13.604334   -5.288385   -2.816485
    149          1           0      -16.309876   -4.734170   -3.793764
    150          1           0      -14.752659   -4.448511   -4.653007
    151          1           0      -15.360533   -3.305168   -3.373332
    152          1           0       -9.938944   -0.935810   -1.659731
    153          1           0      -10.740028   -2.524614   -1.435765
    154          1           0      -10.174301   -1.612579    0.020396
    155          1           0      -12.122220    2.911157    1.450785
    156          1           0      -11.013340    6.852219    0.101233
    157          1           0      -12.886997    6.961123    0.140048
    158          1           0      -11.917719    6.404096   -1.246486
 ---------------------------------------------------------------------
 Rotational constants (GHZ):           0.0258372           0.0016747           0.0016350
 Leave Link  202 at Sun Sep 12 16:21:56 2021, MaxMem= 23488102400 cpu:               0.2 elap:               0.0
 (Enter /sw/apps/gaussian-16.0/g16/l301.exe)
 Standard basis: def2SVP (5D, 7F)
 Ernie: Thresh=  0.10000D-02 Tol=  0.10000D-05 Strict=F.
 There are  1658 symmetry adapted cartesian basis functions of A   symmetry.
 There are  1572 symmetry adapted basis functions of A   symmetry.
  1572 basis functions,  2678 primitive gaussians,  1658 cartesian basis functions
   312 alpha electrons      312 beta electrons
       nuclear repulsion energy     12344.9949172180 Hartrees.
 IExCor=20419 DFT=T Ex+Corr=CAM-B3LYP ExCW=0 ScaHFX=  1.000000
 ScaDFX=  1.000000  1.000000  1.000000  0.810000 ScalE2=  1.000000  1.000000
 IRadAn=      5 IRanWt=     -1 IRanGd=            0 ICorTp=0 IEmpDi=  4
 HFx  wShort=  0.000000 wLong=  0.330000 cFull=  0.190000 cShort=  0.000000 cLong=  0.460000
 DFx  wShort=  0.000000 wLong=  0.330000 cFull=  0.190000 cShort=  0.000000 cLong=  0.460000
 NAtoms=  158 NActive=  158 NUniq=  158 SFac= 1.00D+00 NAtFMM=   60 NAOKFM=T Big=T
 Integral buffers will be    131072 words long.
 Raffenetti 1 integral format.
 Two-electron integral symmetry is turned on.
 Leave Link  301 at Sun Sep 12 16:21:56 2021, MaxMem= 23488102400 cpu:               1.4 elap:               0.1
 (Enter /sw/apps/gaussian-16.0/g16/l302.exe)
 NPDir=0 NMtPBC=     1 NCelOv=     1 NCel=       1 NClECP=     1 NCelD=      1
         NCelK=      1 NCelE2=     1 NClLst=     1 CellRange=     0.0.
 One-electron integrals computed using PRISM.
 One-electron integral symmetry used in STVInt
   1 Symmetry operations used in ECPInt.
 ECPInt:  NShTT=  271216 NPrTT=  987664 LenC2=  103957 LenP2D=  239866.
 LDataN:  DoStor=T MaxTD1= 4 Len=   56
 NBasis=  1572 RedAO= T EigKep=  3.36D-04  NBF=  1572
 NBsUse=  1572 1.00D-06 EigRej= -1.00D+00 NBFU=  1572
 Precomputing XC quadrature grid using
 IXCGrd= 4 IRadAn=           5 IRanWt=          -1 IRanGd=           0 AccXCQ= 0.00D+00.
 Generated NRdTot=       0 NPtTot=           0 NUsed=           0 NTot=          32
 NSgBfM=   812   812   812   812   812 MxSgAt=   158 MxSgA2=    79.
 Leave Link  302 at Sun Sep 12 16:22:00 2021, MaxMem= 23488102400 cpu:              96.2 elap:               4.0
 (Enter /sw/apps/gaussian-16.0/g16/l303.exe)
 DipDrv:  MaxL=1.
 Leave Link  303 at Sun Sep 12 16:22:01 2021, MaxMem= 23488102400 cpu:               8.4 elap:               0.4
 (Enter /sw/apps/gaussian-16.0/g16/l308.exe)
 Leave Link  308 at Sun Sep 12 16:22:01 2021, MaxMem= 23488102400 cpu:              13.0 elap:               0.6
 (Enter /sw/apps/gaussian-16.0/g16/l401.exe)
 ExpMin= 3.36D-02 ExpMax= 4.95D+03 ExpMxC= 7.45D+02 IAcc=3 IRadAn=         5 AccDes= 0.00D+00
 Harris functional with IExCor=20419 and IRadAn=       5 diagonalized for initial guess.
 HarFok:  IExCor=20419 AccDes= 0.00D+00 IRadAn=         5 IDoV= 1 UseB2=F ITyADJ=14
 ICtDFT=  3500011 ScaDFX=  1.000000  1.000000  1.000000  1.000000
 FoFCou: FMM=F IPFlag=           0 FMFlag=      100000 FMFlg1=        2001
         NFxFlg=           0 DoJE=T BraDBF=F KetDBF=T FulRan=T
         wScrn=  0.000000 ICntrl=       500 IOpCl=  0 I1Cent=   200000004 NGrid=           0
         NMat0=    1 NMatS0=      1 NMatT0=    0 NMatD0=    1 NMtDS0=    0 NMtDT0=    0
 Petite list used in FoFCou.
 Harris En= -3918.65800401164    
 JPrj=0 DoOrth=F DoCkMO=F.
 Leave Link  401 at Sun Sep 12 16:22:08 2021, MaxMem= 23488102400 cpu:             153.6 elap:               6.4
 (Enter /sw/apps/gaussian-16.0/g16/l502.exe)
 Integral symmetry usage will be decided dynamically.
 Closed shell SCF:
 Using DIIS extrapolation, IDIIS=  1040.
 NGot= 23488102400 LenX= 23482547354 LenY= 23479796732
 Requested convergence on RMS density matrix=1.00D-08 within 128 cycles.
 Requested convergence on MAX density matrix=1.00D-06.
 Requested convergence on             energy=1.00D-06.
 No special actions if energy rises.
 Fock matrices will be formed incrementally for  20 cycles.

 Cycle   1  Pass 1  IDiag  1:
 FoFJK:  IHMeth= 1 ICntrl=       0 DoSepK=T KAlg= 0 I1Cent=           0 FoldK=F
 IRaf=         1 NMat=       1 IRICut=       1 DoRegI=T DoRafI=F ISym2E= 0 IDoP0=0 IntGTp=1.
 FoFCou: FMM=T IPFlag=           0 FMFlag=      100000 FMFlg1=        2001
         NFxFlg=           0 DoJE=T BraDBF=F KetDBF=F FulRan=T
         wScrn=  0.000000 ICntrl=       500 IOpCl=  0 I1Cent=           0 NGrid=           0
         NMat0=    1 NMatS0=      1 NMatT0=    0 NMatD0=    1 NMtDS0=    0 NMtDT0=    0
 Symmetry not used in FoFCou.
 FMM levels:  10  Number of levels for PrismC:   9
 E= -4068.94920655870    
 DIIS: error= 2.04D-02 at cycle   1 NSaved=   1.
 NSaved= 1 IEnMin= 1 EnMin= -4068.94920655870     IErMin= 1 ErrMin= 2.04D-02
 ErrMax= 2.04D-02  0.00D+00 EMaxC= 1.00D-01 BMatC= 1.69D+00 BMatP= 1.69D+00
 IDIUse=3 WtCom= 7.96D-01 WtEn= 2.04D-01
 Coeff-Com:  0.100D+01
 Coeff-En:   0.100D+01
 Coeff:      0.100D+01
 Gap=     0.120 Goal=   None    Shift=    0.000
 GapD=    0.120 DampG=1.000 DampE=0.500 DampFc=0.5000 IDamp=-1.
 Damping current iteration by 5.00D-01
 RMSDP=1.57D-03 MaxDP=1.35D-01              OVMax= 2.03D-01

 Cycle   2  Pass 1  IDiag  1:
 RMSU=  7.69D-04    CP:  9.82D-01
 E= -4069.33810570894     Delta-E=       -0.388899150235 Rises=F Damp=T
 DIIS: error= 1.27D-02 at cycle   2 NSaved=   2.
 NSaved= 2 IEnMin= 2 EnMin= -4069.33810570894     IErMin= 2 ErrMin= 1.27D-02
 ErrMax= 1.27D-02  0.00D+00 EMaxC= 1.00D-01 BMatC= 3.07D-01 BMatP= 1.69D+00
 IDIUse=3 WtCom= 8.73D-01 WtEn= 1.27D-01
 Coeff-Com: -0.213D+00 0.121D+01
 Coeff-En:   0.000D+00 0.100D+01
 Coeff:     -0.186D+00 0.119D+01
 Gap=     0.138 Goal=   None    Shift=    0.000
 RMSDP=7.65D-04 MaxDP=9.43D-02 DE=-3.89D-01 OVMax= 1.88D-01

 Cycle   3  Pass 1  IDiag  1:
 RMSU=  7.32D-04    CP:  9.68D-01  1.24D+00
 E= -4069.62778624043     Delta-E=       -0.289680531492 Rises=F Damp=F
 DIIS: error= 1.58D-02 at cycle   3 NSaved=   3.
 NSaved= 3 IEnMin= 3 EnMin= -4069.62778624043     IErMin= 2 ErrMin= 1.27D-02
 ErrMax= 1.58D-02  0.00D+00 EMaxC= 1.00D-01 BMatC= 2.02D-01 BMatP= 3.07D-01
 IDIUse=3 WtCom= 8.42D-01 WtEn= 1.58D-01
 Coeff-Com: -0.267D+00 0.652D+00 0.616D+00
 Coeff-En:   0.000D+00 0.000D+00 0.100D+01
 Coeff:     -0.225D+00 0.549D+00 0.676D+00
 Gap=     0.125 Goal=   None    Shift=    0.000
 RMSDP=5.08D-04 MaxDP=4.78D-02 DE=-2.90D-01 OVMax= 1.43D-01

 Cycle   4  Pass 1  IDiag  1:
 RMSU=  2.66D-04    CP:  9.65D-01  1.55D+00  5.06D-01
 E= -4069.76493279975     Delta-E=       -0.137146559322 Rises=F Damp=F
 DIIS: error= 7.33D-03 at cycle   4 NSaved=   4.
 NSaved= 4 IEnMin= 4 EnMin= -4069.76493279975     IErMin= 4 ErrMin= 7.33D-03
 ErrMax= 7.33D-03  0.00D+00 EMaxC= 1.00D-01 BMatC= 5.05D-02 BMatP= 2.02D-01
 IDIUse=3 WtCom= 9.27D-01 WtEn= 7.33D-02
 Coeff-Com: -0.109D+00 0.226D+00 0.409D+00 0.474D+00
 Coeff-En:   0.000D+00 0.000D+00 0.221D+00 0.779D+00
 Coeff:     -0.101D+00 0.209D+00 0.395D+00 0.496D+00
 Gap=     0.123 Goal=   None    Shift=    0.000
 RMSDP=2.00D-04 MaxDP=2.09D-02 DE=-1.37D-01 OVMax= 6.19D-02

 Cycle   5  Pass 1  IDiag  1:
 RMSU=  7.59D-05    CP:  9.64D-01  1.49D+00  6.89D-01  5.49D-01
 E= -4069.81049651419     Delta-E=       -0.045563714437 Rises=F Damp=F
 DIIS: error= 7.87D-04 at cycle   5 NSaved=   5.
 NSaved= 5 IEnMin= 5 EnMin= -4069.81049651419     IErMin= 5 ErrMin= 7.87D-04
 ErrMax= 7.87D-04  0.00D+00 EMaxC= 1.00D-01 BMatC= 1.17D-03 BMatP= 5.05D-02
 IDIUse=3 WtCom= 9.92D-01 WtEn= 7.87D-03
 Coeff-Com: -0.358D-01 0.702D-01 0.165D+00 0.249D+00 0.551D+00
 Coeff-En:   0.000D+00 0.000D+00 0.000D+00 0.000D+00 0.100D+01
 Coeff:     -0.355D-01 0.696D-01 0.164D+00 0.247D+00 0.555D+00
 Gap=     0.122 Goal=   None    Shift=    0.000
 RMSDP=4.08D-05 MaxDP=4.17D-03 DE=-4.56D-02 OVMax= 1.64D-02

 Cycle   6  Pass 1  IDiag  1:
 RMSU=  3.02D-05    CP:  9.64D-01  1.49D+00  6.81D-01  6.21D-01  7.59D-01
 E= -4069.81150793467     Delta-E=       -0.001011420478 Rises=F Damp=F
 DIIS: error= 2.19D-04 at cycle   6 NSaved=   6.
 NSaved= 6 IEnMin= 6 EnMin= -4069.81150793467     IErMin= 6 ErrMin= 2.19D-04
 ErrMax= 2.19D-04  0.00D+00 EMaxC= 1.00D-01 BMatC= 1.76D-04 BMatP= 1.17D-03
 IDIUse=3 WtCom= 9.98D-01 WtEn= 2.19D-03
 Coeff-Com:  0.231D-02-0.678D-02 0.109D-01 0.398D-01 0.306D+00 0.648D+00
 Coeff-En:   0.000D+00 0.000D+00 0.000D+00 0.000D+00 0.102D+00 0.898D+00
 Coeff:      0.231D-02-0.677D-02 0.108D-01 0.397D-01 0.306D+00 0.648D+00
 Gap=     0.123 Goal=   None    Shift=    0.000
 RMSDP=1.58D-05 MaxDP=1.23D-03 DE=-1.01D-03 OVMax= 7.24D-03

 Cycle   7  Pass 1  IDiag  1:
 RMSU=  1.07D-05    CP:  9.64D-01  1.50D+00  6.87D-01  6.21D-01  8.59D-01
                    CP:  7.50D-01
 E= -4069.81169688178     Delta-E=       -0.000188947110 Rises=F Damp=F
 DIIS: error= 8.33D-05 at cycle   7 NSaved=   7.
 NSaved= 7 IEnMin= 7 EnMin= -4069.81169688178     IErMin= 7 ErrMin= 8.33D-05
 ErrMax= 8.33D-05  0.00D+00 EMaxC= 1.00D-01 BMatC= 2.07D-05 BMatP= 1.76D-04
 IDIUse=1 WtCom= 1.00D+00 WtEn= 0.00D+00
 Coeff-Com:  0.446D-02-0.975D-02-0.899D-02-0.382D-02 0.102D+00 0.329D+00
 Coeff-Com:  0.587D+00
 Coeff:      0.446D-02-0.975D-02-0.899D-02-0.382D-02 0.102D+00 0.329D+00
 Coeff:      0.587D+00
 Gap=     0.123 Goal=   None    Shift=    0.000
 RMSDP=6.50D-06 MaxDP=1.11D-03 DE=-1.89D-04 OVMax= 3.40D-03

 Cycle   8  Pass 1  IDiag  1:
 RMSU=  4.67D-06    CP:  9.64D-01  1.50D+00  6.87D-01  6.26D-01  8.63D-01
                    CP:  8.76D-01  8.23D-01
 E= -4069.81172262491     Delta-E=       -0.000025743131 Rises=F Damp=F
 DIIS: error= 5.03D-05 at cycle   8 NSaved=   8.
 NSaved= 8 IEnMin= 8 EnMin= -4069.81172262491     IErMin= 8 ErrMin= 5.03D-05
 ErrMax= 5.03D-05  0.00D+00 EMaxC= 1.00D-01 BMatC= 4.82D-06 BMatP= 2.07D-05
 IDIUse=1 WtCom= 1.00D+00 WtEn= 0.00D+00
 Coeff-Com:  0.215D-02-0.426D-02-0.774D-02-0.121D-01-0.116D-01 0.334D-01
 Coeff-Com:  0.344D+00 0.656D+00
 Coeff:      0.215D-02-0.426D-02-0.774D-02-0.121D-01-0.116D-01 0.334D-01
 Coeff:      0.344D+00 0.656D+00
 Gap=     0.123 Goal=   None    Shift=    0.000
 RMSDP=3.27D-06 MaxDP=3.54D-04 DE=-2.57D-05 OVMax= 1.11D-03

 Cycle   9  Pass 1  IDiag  1:
 RMSU=  1.91D-06    CP:  9.64D-01  1.50D+00  6.88D-01  6.27D-01  8.80D-01
                    CP:  9.01D-01  1.02D+00  9.41D-01
 E= -4069.81173031984     Delta-E=       -0.000007694933 Rises=F Damp=F
 DIIS: error= 1.94D-05 at cycle   9 NSaved=   9.
 NSaved= 9 IEnMin= 9 EnMin= -4069.81173031984     IErMin= 9 ErrMin= 1.94D-05
 ErrMax= 1.94D-05  0.00D+00 EMaxC= 1.00D-01 BMatC= 6.87D-07 BMatP= 4.82D-06
 IDIUse=1 WtCom= 1.00D+00 WtEn= 0.00D+00
 Coeff-Com:  0.461D-03-0.764D-03-0.266D-02-0.598D-02-0.212D-01-0.386D-01
 Coeff-Com:  0.104D+00 0.326D+00 0.639D+00
 Coeff:      0.461D-03-0.764D-03-0.266D-02-0.598D-02-0.212D-01-0.386D-01
 Coeff:      0.104D+00 0.326D+00 0.639D+00
 Gap=     0.123 Goal=   None    Shift=    0.000
 RMSDP=1.42D-06 MaxDP=1.50D-04 DE=-7.69D-06 OVMax= 7.45D-04

 Cycle  10  Pass 1  IDiag  1:
 RMSU=  9.37D-07    CP:  9.64D-01  1.50D+00  6.88D-01  6.27D-01  8.84D-01
                    CP:  9.15D-01  1.07D+00  1.11D+00  1.05D+00
 E= -4069.81173190586     Delta-E=       -0.000001586017 Rises=F Damp=F
 DIIS: error= 1.03D-05 at cycle  10 NSaved=  10.
 NSaved=10 IEnMin=10 EnMin= -4069.81173190586     IErMin=10 ErrMin= 1.03D-05
 ErrMax= 1.03D-05  0.00D+00 EMaxC= 1.00D-01 BMatC= 1.72D-07 BMatP= 6.87D-07
 IDIUse=1 WtCom= 1.00D+00 WtEn= 0.00D+00
 Coeff-Com: -0.427D-03 0.894D-03 0.123D-02 0.112D-02-0.375D-02-0.310D-01
 Coeff-Com: -0.465D-01-0.765D-01 0.255D+00 0.900D+00
 Coeff:     -0.427D-03 0.894D-03 0.123D-02 0.112D-02-0.375D-02-0.310D-01
 Coeff:     -0.465D-01-0.765D-01 0.255D+00 0.900D+00
 Gap=     0.123 Goal=   None    Shift=    0.000
 RMSDP=1.22D-06 MaxDP=1.25D-04 DE=-1.59D-06 OVMax= 6.08D-04

 Cycle  11  Pass 1  IDiag  1:
 RMSU=  5.15D-07    CP:  9.64D-01  1.50D+00  6.88D-01  6.28D-01  8.86D-01
                    CP:  9.25D-01  1.11D+00  1.22D+00  1.39D+00  1.37D+00
 E= -4069.81173269392     Delta-E=       -0.000000788059 Rises=F Damp=F
 DIIS: error= 3.96D-06 at cycle  11 NSaved=  11.
 NSaved=11 IEnMin=11 EnMin= -4069.81173269392     IErMin=11 ErrMin= 3.96D-06
 ErrMax= 3.96D-06  0.00D+00 EMaxC= 1.00D-01 BMatC= 6.13D-08 BMatP= 1.72D-07
 IDIUse=1 WtCom= 1.00D+00 WtEn= 0.00D+00
 Coeff-Com: -0.327D-03 0.635D-03 0.133D-02 0.212D-02 0.441D-02-0.835D-02
 Coeff-Com: -0.435D-01-0.132D+00-0.234D-01 0.465D+00 0.734D+00
 Coeff:     -0.327D-03 0.635D-03 0.133D-02 0.212D-02 0.441D-02-0.835D-02
 Coeff:     -0.435D-01-0.132D+00-0.234D-01 0.465D+00 0.734D+00
 Gap=     0.123 Goal=   None    Shift=    0.000
 RMSDP=6.87D-07 MaxDP=5.83D-05 DE=-7.88D-07 OVMax= 3.72D-04

 Cycle  12  Pass 1  IDiag  1:
 RMSU=  2.63D-07    CP:  9.64D-01  1.50D+00  6.88D-01  6.28D-01  8.87D-01
                    CP:  9.28D-01  1.14D+00  1.28D+00  1.56D+00  1.76D+00
                    CP:  1.20D+00
 E= -4069.81173295736     Delta-E=       -0.000000263441 Rises=F Damp=F
 DIIS: error= 2.35D-06 at cycle  12 NSaved=  12.
 NSaved=12 IEnMin=12 EnMin= -4069.81173295736     IErMin=12 ErrMin= 2.35D-06
 ErrMax= 2.35D-06  0.00D+00 EMaxC= 1.00D-01 BMatC= 1.48D-08 BMatP= 6.13D-08
 IDIUse=1 WtCom= 1.00D+00 WtEn= 0.00D+00
 Coeff-Com:  0.411D-06-0.174D-04 0.178D-03 0.509D-03 0.330D-02 0.407D-02
 Coeff-Com:  0.285D-02-0.348D-01-0.681D-01-0.758D-01 0.250D+00 0.918D+00
 Coeff:      0.411D-06-0.174D-04 0.178D-03 0.509D-03 0.330D-02 0.407D-02
 Coeff:      0.285D-02-0.348D-01-0.681D-01-0.758D-01 0.250D+00 0.918D+00
 Gap=     0.123 Goal=   None    Shift=    0.000
 RMSDP=4.38D-07 MaxDP=3.02D-05 DE=-2.63D-07 OVMax= 2.49D-04

 Cycle  13  Pass 1  IDiag  1:
 RMSU=  1.65D-07    CP:  9.64D-01  1.50D+00  6.88D-01  6.28D-01  8.87D-01
                    CP:  9.28D-01  1.14D+00  1.31D+00  1.67D+00  1.99D+00
                    CP:  1.61D+00  1.27D+00
 E= -4069.81173304920     Delta-E=       -0.000000091837 Rises=F Damp=F
 DIIS: error= 1.23D-06 at cycle  13 NSaved=  13.
 NSaved=13 IEnMin=13 EnMin= -4069.81173304920     IErMin=13 ErrMin= 1.23D-06
 ErrMax= 1.23D-06  0.00D+00 EMaxC= 1.00D-01 BMatC= 8.14D-09 BMatP= 1.48D-08
 IDIUse=1 WtCom= 1.00D+00 WtEn= 0.00D+00
 Coeff-Com:  0.120D-03-0.245D-03-0.370D-03-0.457D-03 0.571D-03 0.509D-02
 Coeff-Com:  0.197D-01 0.228D-01-0.340D-01-0.241D+00-0.156D+00 0.599D+00
 Coeff-Com:  0.786D+00
 Coeff:      0.120D-03-0.245D-03-0.370D-03-0.457D-03 0.571D-03 0.509D-02
 Coeff:      0.197D-01 0.228D-01-0.340D-01-0.241D+00-0.156D+00 0.599D+00
 Coeff:      0.786D+00
 Gap=     0.123 Goal=   None    Shift=    0.000
 RMSDP=3.40D-07 MaxDP=2.12D-05 DE=-9.18D-08 OVMax= 1.97D-04

 Cycle  14  Pass 1  IDiag  1:
 RMSU=  7.62D-08    CP:  9.64D-01  1.50D+00  6.88D-01  6.28D-01  8.87D-01
                    CP:  9.29D-01  1.15D+00  1.33D+00  1.74D+00  2.18D+00
                    CP:  1.88D+00  1.79D+00  1.09D+00
 E= -4069.81173308533     Delta-E=       -0.000000036136 Rises=F Damp=F
 DIIS: error= 6.31D-07 at cycle  14 NSaved=  14.
 NSaved=14 IEnMin=14 EnMin= -4069.81173308533     IErMin=14 ErrMin= 6.31D-07
 ErrMax= 6.31D-07  0.00D+00 EMaxC= 1.00D-01 BMatC= 1.25D-09 BMatP= 8.14D-09
 IDIUse=1 WtCom= 1.00D+00 WtEn= 0.00D+00
 Coeff-Com:  0.663D-04-0.131D-03-0.246D-03-0.387D-03-0.483D-03 0.129D-02
 Coeff-Com:  0.107D-01 0.192D-01 0.368D-02-0.996D-01-0.142D+00 0.938D-01
 Coeff-Com:  0.404D+00 0.710D+00
 Coeff:      0.663D-04-0.131D-03-0.246D-03-0.387D-03-0.483D-03 0.129D-02
 Coeff:      0.107D-01 0.192D-01 0.368D-02-0.996D-01-0.142D+00 0.938D-01
 Coeff:      0.404D+00 0.710D+00
 Gap=     0.123 Goal=   None    Shift=    0.000
 RMSDP=1.01D-07 MaxDP=6.41D-06 DE=-3.61D-08 OVMax= 5.48D-05

 Cycle  15  Pass 1  IDiag  1:
 RMSU=  3.83D-08    CP:  9.64D-01  1.50D+00  6.88D-01  6.28D-01  8.87D-01
                    CP:  9.28D-01  1.15D+00  1.34D+00  1.76D+00  2.22D+00
                    CP:  1.98D+00  1.92D+00  1.33D+00  1.03D+00
 E= -4069.81173308973     Delta-E=       -0.000000004398 Rises=F Damp=F
 DIIS: error= 3.45D-07 at cycle  15 NSaved=  15.
 NSaved=15 IEnMin=15 EnMin= -4069.81173308973     IErMin=15 ErrMin= 3.45D-07
 ErrMax= 3.45D-07  0.00D+00 EMaxC= 1.00D-01 BMatC= 2.26D-10 BMatP= 1.25D-09
 IDIUse=1 WtCom= 1.00D+00 WtEn= 0.00D+00
 Coeff-Com:  0.515D-05-0.850D-05-0.319D-04-0.808D-04-0.299D-03-0.517D-03
 Coeff-Com:  0.111D-02 0.250D-02 0.877D-02 0.192D-02-0.306D-01-0.731D-01
 Coeff-Com:  0.286D-01 0.297D+00 0.765D+00
 Coeff:      0.515D-05-0.850D-05-0.319D-04-0.808D-04-0.299D-03-0.517D-03
 Coeff:      0.111D-02 0.250D-02 0.877D-02 0.192D-02-0.306D-01-0.731D-01
 Coeff:      0.286D-01 0.297D+00 0.765D+00
 Gap=     0.123 Goal=   None    Shift=    0.000
 RMSDP=4.07D-08 MaxDP=2.44D-06 DE=-4.40D-09 OVMax= 2.68D-05

 Cycle  16  Pass 1  IDiag  1:
 RMSU=  1.87D-08    CP:  9.64D-01  1.50D+00  6.88D-01  6.28D-01  8.87D-01
                    CP:  9.29D-01  1.15D+00  1.34D+00  1.77D+00  2.24D+00
                    CP:  2.01D+00  1.99D+00  1.40D+00  1.24D+00  1.15D+00
 E= -4069.81173309046     Delta-E=       -0.000000000731 Rises=F Damp=F
 DIIS: error= 1.70D-07 at cycle  16 NSaved=  16.
 NSaved=16 IEnMin=16 EnMin= -4069.81173309046     IErMin=16 ErrMin= 1.70D-07
 ErrMax= 1.70D-07  0.00D+00 EMaxC= 1.00D-01 BMatC= 8.17D-11 BMatP= 2.26D-10
 IDIUse=1 WtCom= 1.00D+00 WtEn= 0.00D+00
 Coeff-Com: -0.142D-04 0.288D-04 0.471D-04 0.539D-04-0.267D-04-0.635D-03
 Coeff-Com: -0.199D-02-0.427D-02 0.454D-02 0.256D-01 0.207D-01-0.647D-01
 Coeff-Com: -0.833D-01-0.375D-01 0.398D+00 0.744D+00
 Coeff:     -0.142D-04 0.288D-04 0.471D-04 0.539D-04-0.267D-04-0.635D-03
 Coeff:     -0.199D-02-0.427D-02 0.454D-02 0.256D-01 0.207D-01-0.647D-01
 Coeff:     -0.833D-01-0.375D-01 0.398D+00 0.744D+00
 Gap=     0.123 Goal=   None    Shift=    0.000
 RMSDP=2.30D-08 MaxDP=1.63D-06 DE=-7.31D-10 OVMax= 1.32D-05

 Cycle  17  Pass 1  IDiag  1:
 RMSU=  1.04D-08    CP:  9.64D-01  1.50D+00  6.88D-01  6.28D-01  8.87D-01
                    CP:  9.29D-01  1.15D+00  1.34D+00  1.77D+00  2.24D+00
                    CP:  2.02D+00  2.01D+00  1.45D+00  1.34D+00  1.44D+00
                    CP:  1.25D+00
 E= -4069.81173309055     Delta-E=       -0.000000000091 Rises=F Damp=F
 DIIS: error= 9.71D-08 at cycle  17 NSaved=  17.
 NSaved=17 IEnMin=17 EnMin= -4069.81173309055     IErMin=17 ErrMin= 9.71D-08
 ErrMax= 9.71D-08  0.00D+00 EMaxC= 1.00D-01 BMatC= 1.78D-11 BMatP= 8.17D-11
 IDIUse=1 WtCom= 1.00D+00 WtEn= 0.00D+00
 Coeff-Com: -0.720D-05 0.140D-04 0.286D-04 0.426D-04 0.841D-04-0.122D-03
 Coeff-Com: -0.963D-03-0.280D-02 0.132D-03 0.923D-02 0.175D-01-0.725D-02
 Coeff-Com: -0.369D-01-0.102D+00-0.319D-01 0.295D+00 0.860D+00
 Coeff:     -0.720D-05 0.140D-04 0.286D-04 0.426D-04 0.841D-04-0.122D-03
 Coeff:     -0.963D-03-0.280D-02 0.132D-03 0.923D-02 0.175D-01-0.725D-02
 Coeff:     -0.369D-01-0.102D+00-0.319D-01 0.295D+00 0.860D+00
 Gap=     0.123 Goal=   None    Shift=    0.000
 RMSDP=1.38D-08 MaxDP=9.77D-07 DE=-9.09D-11 OVMax= 8.84D-06

 Cycle  18  Pass 1  IDiag  1:
 RMSU=  4.87D-09    CP:  9.64D-01  1.50D+00  6.88D-01  6.28D-01  8.87D-01
                    CP:  9.29D-01  1.15D+00  1.34D+00  1.77D+00  2.24D+00
                    CP:  2.02D+00  2.02D+00  1.47D+00  1.41D+00  1.62D+00
                    CP:  1.66D+00  1.39D+00
 E= -4069.81173309076     Delta-E=       -0.000000000207 Rises=F Damp=F
 DIIS: error= 5.05D-08 at cycle  18 NSaved=  18.
 NSaved=18 IEnMin=18 EnMin= -4069.81173309076     IErMin=18 ErrMin= 5.05D-08
 ErrMax= 5.05D-08  0.00D+00 EMaxC= 1.00D-01 BMatC= 6.88D-12 BMatP= 1.78D-11
 IDIUse=1 WtCom= 1.00D+00 WtEn= 0.00D+00
 Coeff-Com:  0.207D-05-0.445D-05-0.464D-05-0.179D-05 0.591D-04 0.184D-03
 Coeff-Com:  0.407D-03 0.232D-03-0.129D-02-0.622D-02-0.151D-03 0.203D-01
 Coeff-Com:  0.186D-01-0.325D-01-0.163D+00-0.192D+00 0.348D+00 0.101D+01
 Coeff:      0.207D-05-0.445D-05-0.464D-05-0.179D-05 0.591D-04 0.184D-03
 Coeff:      0.407D-03 0.232D-03-0.129D-02-0.622D-02-0.151D-03 0.203D-01
 Coeff:      0.186D-01-0.325D-01-0.163D+00-0.192D+00 0.348D+00 0.101D+01
 Gap=     0.123 Goal=   None    Shift=    0.000
 RMSDP=1.18D-08 MaxDP=7.68D-07 DE=-2.07D-10 OVMax= 6.92D-06

 Cycle  19  Pass 1  IDiag  1:
 RMSU=  2.79D-09    CP:  9.64D-01  1.50D+00  6.88D-01  6.28D-01  8.87D-01
                    CP:  9.29D-01  1.15D+00  1.34D+00  1.77D+00  2.24D+00
                    CP:  2.03D+00  2.02D+00  1.48D+00  1.46D+00  1.77D+00
                    CP:  1.99D+00  1.94D+00  1.38D+00
 E= -4069.81173309088     Delta-E=       -0.000000000120 Rises=F Damp=F
 DIIS: error= 3.72D-08 at cycle  19 NSaved=  19.
 NSaved=19 IEnMin=19 EnMin= -4069.81173309088     IErMin=19 ErrMin= 3.72D-08
 ErrMax= 3.72D-08  0.00D+00 EMaxC= 1.00D-01 BMatC= 1.43D-12 BMatP= 6.88D-12
 IDIUse=1 WtCom= 1.00D+00 WtEn= 0.00D+00
 Coeff-Com:  0.288D-05-0.580D-05-0.986D-05-0.123D-04 0.108D-04 0.119D-03
 Coeff-Com:  0.474D-03 0.795D-03-0.597D-03-0.593D-02-0.481D-02 0.120D-01
 Coeff-Com:  0.200D-01 0.113D-01-0.686D-01-0.177D+00-0.344D-01 0.491D+00
 Coeff-Com:  0.755D+00
 Coeff:      0.288D-05-0.580D-05-0.986D-05-0.123D-04 0.108D-04 0.119D-03
 Coeff:      0.474D-03 0.795D-03-0.597D-03-0.593D-02-0.481D-02 0.120D-01
 Coeff:      0.200D-01 0.113D-01-0.686D-01-0.177D+00-0.344D-01 0.491D+00
 Coeff:      0.755D+00
 Gap=     0.123 Goal=   None    Shift=    0.000
 RMSDP=4.55D-09 MaxDP=2.91D-07 DE=-1.20D-10 OVMax= 2.84D-06

 SCF Done:  E(RCAM-B3LYP) =  -4069.81173309     A.U. after   19 cycles
            NFock= 19  Conv=0.46D-08     -V/T= 2.0102
 KE= 4.028802089059D+03 PE=-3.417102339515D+04 EE= 1.372741465579D+04
 Leave Link  502 at Sun Sep 12 16:30:30 2021, MaxMem= 23488102400 cpu:           11457.6 elap:             501.9
 (Enter /sw/apps/gaussian-16.0/g16/l801.exe)
 DoSCS=F DFT=T ScalE2(SS,OS)=  1.000000  1.000000
 ExpMin= 3.36D-02 ExpMax= 4.95D+03 ExpMxC= 7.45D+02 IAcc=3 IRadAn=         5 AccDes= 0.00D+00
 HarFok:  IExCor=  205 AccDes= 0.00D+00 IRadAn=         5 IDoV=-2 UseB2=F ITyADJ=14
 ICtDFT= 12500011 ScaDFX=  1.000000  1.000000  1.000000  1.000000
 GSVD:  LWork=       -9588 too small for GESVD, short by       45590 words or       45590 for optimal perf.
 Largest valence mixing into a core orbital is  2.03D-04
 Largest core mixing into a valence orbital is  5.24D-05
 Range of M.O.s used for correlation:    95  1572
 NBasis=  1572 NAE=   312 NBE=   312 NFC=    94 NFV=     0
 NROrb=   1478 NOA=   218 NOB=   218 NVA=  1260 NVB=  1260
 Leave Link  801 at Sun Sep 12 16:30:30 2021, MaxMem= 23488102400 cpu:               9.0 elap:               0.4
 (Enter /sw/apps/gaussian-16.0/g16/l914.exe)
 RHF ground state
 Two-electron integrals replicated using symmetry.
 MDV= 23488102400 DFT=T DoStab=F Mixed=T DoRPA=T DoScal=F NonHer=T
 Making orbital integer symmetry assigments:
 Orbital symmetries:
       Occupied  (A) (A) (A) (A) (A) (A) (A) (A) (A) (A) (A) (A)
                 (A) (A) (A) (A) (A) (A) (A) (A) (A) (A) (A) (A)
                 (A) (A) (A) (A) (A) (A) (A) (A) (A) (A) (A) (A)
                 (A) (A) (A) (A) (A) (A) (A) (A) (A) (A) (A) (A)
                 (A) (A) (A) (A) (A) (A) (A) (A) (A) (A) (A) (A)
                 (A) (A) (A) (A) (A) (A) (A) (A) (A) (A) (A) (A)
                 (A) (A) (A) (A) (A) (A) (A) (A) (A) (A) (A) (A)
                 (A) (A) (A) (A) (A) (A) (A) (A) (A) (A) (A) (A)
                 (A) (A) (A) (A) (A) (A) (A) (A) (A) (A) (A) (A)
                 (A) (A) (A) (A) (A) (A) (A) (A) (A) (A) (A) (A)
                 (A) (A) (A) (A) (A) (A) (A) (A) (A) (A) (A) (A)
                 (A) (A) (A) (A) (A) (A) (A) (A) (A) (A) (A) (A)
                 (A) (A) (A) (A) (A) (A) (A) (A) (A) (A) (A) (A)
                 (A) (A) (A) (A) (A) (A) (A) (A) (A) (A) (A) (A)
                 (A) (A) (A) (A) (A) (A) (A) (A) (A) (A) (A) (A)
                 (A) (A) (A) (A) (A) (A) (A) (A) (A) (A) (A) (A)
                 (A) (A) (A) (A) (A) (A) (A) (A) (A) (A) (A) (A)
                 (A) (A) (A) (A) (A) (A) (A) (A) (A) (A) (A) (A)
                 (A) (A) (A) (A) (A) (A) (A) (A) (A) (A) (A) (A)
                 (A) (A) (A) (A) (A) (A) (A) (A) (A) (A) (A) (A)
                 (A) (A) (A) (A) (A) (A) (A) (A) (A) (A) (A) (A)
                 (A) (A) (A) (A) (A) (A) (A) (A) (A) (A) (A) (A)
                 (A) (A) (A) (A) (A) (A) (A) (A) (A) (A) (A) (A)
                 (A) (A) (A) (A) (A) (A) (A) (A) (A) (A) (A) (A)
                 (A) (A) (A) (A) (A) (A) (A) (A) (A) (A) (A) (A)
                 (A) (A) (A) (A) (A) (A) (A) (A) (A) (A) (A) (A)
       Virtual   (A) (A) (A) (A) (A) (A) (A) (A) (A) (A) (A) (A)
                 (A) (A) (A) (A) (A) (A) (A) (A) (A) (A) (A) (A)
                 (A) (A) (A) (A) (A) (A) (A) (A) (A) (A) (A) (A)
                 (A) (A) (A) (A) (A) (A) (A) (A) (A) (A) (A) (A)
                 (A) (A) (A) (A) (A) (A) (A) (A) (A) (A) (A) (A)
                 (A) (A) (A) (A) (A) (A) (A) (A) (A) (A) (A) (A)
                 (A) (A) (A) (A) (A) (A) (A) (A) (A) (A) (A) (A)
                 (A) (A) (A) (A) (A) (A) (A) (A) (A) (A) (A) (A)
                 (A) (A) (A) (A) (A) (A) (A) (A) (A) (A) (A) (A)
                 (A) (A) (A) (A) (A) (A) (A) (A) (A) (A) (A) (A)
                 (A) (A) (A) (A) (A) (A) (A) (A) (A) (A) (A) (A)
                 (A) (A) (A) (A) (A) (A) (A) (A) (A) (A) (A) (A)
                 (A) (A) (A) (A) (A) (A) (A) (A) (A) (A) (A) (A)
                 (A) (A) (A) (A) (A) (A) (A) (A) (A) (A) (A) (A)
                 (A) (A) (A) (A) (A) (A) (A) (A) (A) (A) (A) (A)
                 (A) (A) (A) (A) (A) (A) (A) (A) (A) (A) (A) (A)
                 (A) (A) (A) (A) (A) (A) (A) (A) (A) (A) (A) (A)
                 (A) (A) (A) (A) (A) (A) (A) (A) (A) (A) (A) (A)
                 (A) (A) (A) (A) (A) (A) (A) (A) (A) (A) (A) (A)
                 (A) (A) (A) (A) (A) (A) (A) (A) (A) (A) (A) (A)
                 (A) (A) (A) (A) (A) (A) (A) (A) (A) (A) (A) (A)
                 (A) (A) (A) (A) (A) (A) (A) (A) (A) (A) (A) (A)
                 (A) (A) (A) (A) (A) (A) (A) (A) (A) (A) (A) (A)
                 (A) (A) (A) (A) (A) (A) (A) (A) (A) (A) (A) (A)
                 (A) (A) (A) (A) (A) (A) (A) (A) (A) (A) (A) (A)
                 (A) (A) (A) (A) (A) (A) (A) (A) (A) (A) (A) (A)
                 (A) (A) (A) (A) (A) (A) (A) (A) (A) (A) (A) (A)
                 (A) (A) (A) (A) (A) (A) (A) (A) (A) (A) (A) (A)
                 (A) (A) (A) (A) (A) (A) (A) (A) (A) (A) (A) (A)
                 (A) (A) (A) (A) (A) (A) (A) (A) (A) (A) (A) (A)
                 (A) (A) (A) (A) (A) (A) (A) (A) (A) (A) (A) (A)
                 (A) (A) (A) (A) (A) (A) (A) (A) (A) (A) (A) (A)
                 (A) (A) (A) (A) (A) (A) (A) (A) (A) (A) (A) (A)
                 (A) (A) (A) (A) (A) (A) (A) (A) (A) (A) (A) (A)
                 (A) (A) (A) (A) (A) (A) (A) (A) (A) (A) (A) (A)
                 (A) (A) (A) (A) (A) (A) (A) (A) (A) (A) (A) (A)
                 (A) (A) (A) (A) (A) (A) (A) (A) (A) (A) (A) (A)
                 (A) (A) (A) (A) (A) (A) (A) (A) (A) (A) (A) (A)
                 (A) (A) (A) (A) (A) (A) (A) (A) (A) (A) (A) (A)
                 (A) (A) (A) (A) (A) (A) (A) (A) (A) (A) (A) (A)
                 (A) (A) (A) (A) (A) (A) (A) (A) (A) (A) (A) (A)
                 (A) (A) (A) (A) (A) (A) (A) (A) (A) (A) (A) (A)
                 (A) (A) (A) (A) (A) (A) (A) (A) (A) (A) (A) (A)
                 (A) (A) (A) (A) (A) (A) (A) (A) (A) (A) (A) (A)
                 (A) (A) (A) (A) (A) (A) (A) (A) (A) (A) (A) (A)
                 (A) (A) (A) (A) (A) (A) (A) (A) (A) (A) (A) (A)
                 (A) (A) (A) (A) (A) (A) (A) (A) (A) (A) (A) (A)
                 (A) (A) (A) (A) (A) (A) (A) (A) (A) (A) (A) (A)
                 (A) (A) (A) (A) (A) (A) (A) (A) (A) (A) (A) (A)
                 (A) (A) (A) (A) (A) (A) (A) (A) (A) (A) (A) (A)
                 (A) (A) (A) (A) (A) (A) (A) (A) (A) (A) (A) (A)
                 (A) (A) (A) (A) (A) (A) (A) (A) (A) (A) (A) (A)
                 (A) (A) (A) (A) (A) (A) (A) (A) (A) (A) (A) (A)
                 (A) (A) (A) (A) (A) (A) (A) (A) (A) (A) (A) (A)
                 (A) (A) (A) (A) (A) (A) (A) (A) (A) (A) (A) (A)
                 (A) (A) (A) (A) (A) (A) (A) (A) (A) (A) (A) (A)
                 (A) (A) (A) (A) (A) (A) (A) (A) (A) (A) (A) (A)
                 (A) (A) (A) (A) (A) (A) (A) (A) (A) (A) (A) (A)
                 (A) (A) (A) (A) (A) (A) (A) (A) (A) (A) (A) (A)
                 (A) (A) (A) (A) (A) (A) (A) (A) (A) (A) (A) (A)
                 (A) (A) (A) (A) (A) (A) (A) (A) (A) (A) (A) (A)
                 (A) (A) (A) (A) (A) (A) (A) (A) (A) (A) (A) (A)
                 (A) (A) (A) (A) (A) (A) (A) (A) (A) (A) (A) (A)
                 (A) (A) (A) (A) (A) (A) (A) (A) (A) (A) (A) (A)
                 (A) (A) (A) (A) (A) (A) (A) (A) (A) (A) (A) (A)
                 (A) (A) (A) (A) (A) (A) (A) (A) (A) (A) (A) (A)
                 (A) (A) (A) (A) (A) (A) (A) (A) (A) (A) (A) (A)
                 (A) (A) (A) (A) (A) (A) (A) (A) (A) (A) (A) (A)
                 (A) (A) (A) (A) (A) (A) (A) (A) (A) (A) (A) (A)
                 (A) (A) (A) (A) (A) (A) (A) (A) (A) (A) (A) (A)
                 (A) (A) (A) (A) (A) (A) (A) (A) (A) (A) (A) (A)
                 (A) (A) (A) (A) (A) (A) (A) (A) (A) (A) (A) (A)
                 (A) (A) (A) (A) (A) (A) (A) (A) (A) (A) (A) (A)
                 (A) (A) (A) (A) (A) (A) (A) (A) (A) (A) (A) (A)
                 (A) (A) (A) (A) (A) (A) (A) (A) (A) (A) (A) (A)
                 (A) (A) (A) (A) (A) (A) (A) (A) (A) (A) (A) (A)
                 (A) (A) (A) (A) (A) (A) (A) (A) (A) (A) (A) (A)
                 (A) (A) (A) (A) (A) (A) (A) (A) (A) (A) (A) (A)
                 (A) (A) (A) (A) (A) (A) (A) (A) (A) (A) (A) (A)
                 (A) (A) (A) (A) (A) (A) (A) (A) (A) (A) (A) (A)
                 (A) (A) (A) (A) (A) (A) (A) (A) (A) (A) (A) (A)
                 (A) (A) (A) (A) (A) (A) (A) (A) (A) (A) (A) (A)
                 (A) (A) (A) (A) (A) (A) (A) (A) (A) (A) (A) (A)
                 (A) (A) (A) (A) (A) (A) (A) (A) (A) (A) (A) (A)
                 (A) (A) (A) (A) (A) (A) (A) (A) (A) (A) (A) (A)
                 (A) (A) (A) (A) (A) (A) (A) (A) (A) (A) (A) (A)
                 (A) (A) (A) (A) (A) (A) (A) (A) (A) (A) (A) (A)
                 (A) (A) (A) (A) (A) (A) (A) (A) (A) (A) (A) (A)
                 (A) (A) (A) (A) (A) (A) (A) (A) (A) (A) (A) (A)
                 (A) (A) (A) (A) (A) (A) (A) (A) (A) (A) (A) (A)
                 (A) (A) (A) (A) (A) (A) (A) (A) (A) (A) (A) (A)
                 (A) (A) (A) (A) (A) (A) (A) (A) (A) (A) (A) (A)
                 (A) (A) (A) (A) (A) (A) (A) (A) (A) (A) (A) (A)
                 (A) (A) (A) (A) (A) (A) (A) (A) (A) (A) (A) (A)
                 (A) (A) (A) (A) (A) (A) (A) (A) (A) (A) (A) (A)
                 (A) (A) (A) (A) (A) (A) (A) (A) (A) (A) (A) (A)
                 (A) (A) (A) (A) (A) (A) (A) (A) (A) (A) (A) (A)
                 (A) (A) (A) (A) (A) (A) (A) (A) (A) (A) (A) (A)
                 (A) (A) (A) (A) (A) (A) (A) (A) (A) (A) (A) (A)
                 (A) (A) (A) (A) (A) (A) (A) (A) (A) (A) (A) (A)
                 (A) (A) (A) (A) (A) (A) (A) (A) (A) (A) (A) (A)
                 (A) (A) (A) (A) (A) (A) (A) (A) (A) (A) (A) (A)
                 (A) (A) (A) (A) (A) (A) (A) (A) (A) (A) (A) (A)
                 (A) (A) (A) (A) (A) (A) (A) (A) (A) (A) (A) (A)
                 (A) (A) (A) (A) (A) (A) (A) (A) (A) (A) (A) (A)
    20 initial guesses have been made.
 Convergence on wavefunction:    0.001000000000000
 Davidson Disk Diagonalization:  ConvIn= 1.00D-03 SkipCon=T Conv= 1.00D-03.
 Max sub-space:  2000 roots to seek:    20 dimension of matrix:       549360
 Iteration     1 Dimension    20 NMult     0 NNew     20
 CISAX will form    20 AO SS matrices at one time.
 NMat=    20 NSing=    20 JSym2X= 0.
 FoFJK:  IHMeth= 1 ICntrl=       0 DoSepK=T KAlg= 0 I1Cent=           0 FoldK=F
 IRaf=         1 NMat=      40 IRICut=       1 DoRegI=T DoRafI=F ISym2E= 0 IDoP0=3 IntGTp=3.
 FoFCou: FMM=T IPFlag=           0 FMFlag=      100000 FMFlg1=        2001
         NFxFlg=           0 DoJE=F BraDBF=F KetDBF=F FulRan=T
         wScrn=  0.000000 ICntrl=       500 IOpCl=  0 I1Cent=           0 NGrid=           0
         NMat0=   20 NMatS0=     20 NMatT0=    0 NMatD0=   20 NMtDS0=    0 NMtDT0=    0
 Symmetry not used in FoFCou.
 FMM levels:  10  Number of levels for PrismC:   9
 New state      1 was old state      7
 New state      2 was old state      6
 New state      3 was old state      2
 New state      4 was old state      3
 New state      5 was old state      1
 Excitation Energies [eV] at current iteration:
 Root      1 :     2.614401355171534
 Root      2 :     2.619283977680500
 Root      3 :     2.680937786150986
 Root      4 :     2.689741287134114
 Root      5 :     3.046620776078824
 Root      6 :     3.082831057067574
 Root      7 :     3.628347103129536
 Root      8 :     3.669001306873112
 Root      9 :     3.735945495503836
 Root     10 :     3.759258718853242
 Root     11 :     3.849836603240333
 Root     12 :     3.875584775695109
 Root     13 :     4.303161707388875
 Root     14 :     4.306749752529853
 Root     15 :     4.986454145265779
 Root     16 :     4.993631793414044
 Root     17 :     5.255272165205827
 Root     18 :     5.275105853782450
 Root     19 :     5.309212198497472
 Root     20 :     5.342289672994998
 Iteration     2 Dimension    30 NMult    20 NNew     10
 CISAX will form    10 AO SS matrices at one time.
 NMat=    10 NSing=    10 JSym2X= 0.
 New state      1 was old state      3
 Root      1 not converged, maximum delta is    0.190918894891177
 New state      2 was old state      4
 Root      2 not converged, maximum delta is    0.192148684857960
 New state      3 was old state      2
 Root      3 not converged, maximum delta is    0.071539333198337
 New state      4 was old state      1
 Root      4 not converged, maximum delta is    0.089534686575290
 Root      5 not converged, maximum delta is    0.004939615318039
 Excitation Energies [eV] at current iteration:
 Root      1 :     1.801582666523676   Change is   -0.879355119627310
 Root      2 :     1.807219716212770   Change is   -0.882521570921345
 Root      3 :     2.235854589352181   Change is   -0.383429388328320
 Root      4 :     2.239069972632308   Change is   -0.375331382539227
 Root      5 :     3.046468416701060   Change is   -0.000152359377764
 Iteration     3 Dimension    40 NMult    30 NNew     10
 CISAX will form    10 AO SS matrices at one time.
 NMat=    10 NSing=    10 JSym2X= 0.
 Root      1 not converged, maximum delta is    0.072096604210236
 Root      2 not converged, maximum delta is    0.073276548157300
 Root      3 not converged, maximum delta is    0.044029947885909
 Root      4 not converged, maximum delta is    0.042608042275222
 Root      5 has converged.
 Excitation Energies [eV] at current iteration:
 Root      1 :     1.694345365426585   Change is   -0.107237301097091
 Root      2 :     1.698821801754216   Change is   -0.108397914458553
 Root      3 :     2.194399904235861   Change is   -0.041454685116320
 Root      4 :     2.200169811629158   Change is   -0.038900161003150
 Root      5 :     3.046468369456438   Change is   -0.000000047244622
 Iteration     4 Dimension    48 NMult    40 NNew      8
 CISAX will form     8 AO SS matrices at one time.
 NMat=     8 NSing=     8 JSym2X= 0.
 Root      1 not converged, maximum delta is    0.013406328374495
 Root      2 not converged, maximum delta is    0.013692722075750
 Root      3 not converged, maximum delta is    0.009743620312135
 Root      4 not converged, maximum delta is    0.008906822453750
 Root      5 has converged.
 Excitation Energies [eV] at current iteration:
 Root      1 :     1.677640780918778   Change is   -0.016704584507807
 Root      2 :     1.681933732942009   Change is   -0.016888068812208
 Root      3 :     2.187097042773935   Change is   -0.007302861461926
 Root      4 :     2.193392344243831   Change is   -0.006777467385327
 Root      5 :     3.046468369456330   Change is   -0.000000000000108
 Iteration     5 Dimension    56 NMult    48 NNew      8
 CISAX will form     8 AO SS matrices at one time.
 NMat=     8 NSing=     8 JSym2X= 0.
 Root      1 not converged, maximum delta is    0.002229719602867
 Root      2 not converged, maximum delta is    0.002229198302382
 Root      3 not converged, maximum delta is    0.002497403259617
 Root      4 not converged, maximum delta is    0.002386989012027
 Root      5 has converged.
 Excitation Energies [eV] at current iteration:
 Root      1 :     1.675861555664746   Change is   -0.001779225254031
 Root      2 :     1.680161793474813   Change is   -0.001771939467196
 Root      3 :     2.186251215683754   Change is   -0.000845827090180
 Root      4 :     2.192615754730143   Change is   -0.000776589513689
 Root      5 :     3.046468369456330   Change is    0.000000000000000
 Iteration     6 Dimension    64 NMult    56 NNew      8
 CISAX will form     8 AO SS matrices at one time.
 NMat=     8 NSing=     8 JSym2X= 0.
 Root      1 not converged, maximum delta is    0.001401973439678
 Root      2 not converged, maximum delta is    0.001425528170992
 Root      3 not converged, maximum delta is    0.001068878309202
 Root      4 not converged, maximum delta is    0.001014195803697
 Root      5 has converged.
 Excitation Energies [eV] at current iteration:
 Root      1 :     1.675607873629798   Change is   -0.000253682034948
 Root      2 :     1.679906970303566   Change is   -0.000254823171247
 Root      3 :     2.186122988078914   Change is   -0.000128227604840
 Root      4 :     2.192497965400122   Change is   -0.000117789330021
 Root      5 :     3.046468369456222   Change is   -0.000000000000108
 Iteration     7 Dimension    72 NMult    64 NNew      8
 CISAX will form     8 AO SS matrices at one time.
 NMat=     8 NSing=     8 JSym2X= 0.
 Root      1 has converged.
 Root      2 has converged.
 Root      3 has converged.
 Root      4 has converged.
 Root      5 has converged.
 Excitation Energies [eV] at current iteration:
 Root      1 :     1.675583708112426   Change is   -0.000024165517372
[...]
 Alpha virt. eigenvalues --    2.67004   2.67913   2.68003   2.68752   2.68953
 Alpha virt. eigenvalues --    2.68965   2.69120   2.69486   2.69525   2.70070
 Alpha virt. eigenvalues --    2.70094   2.70999   2.71076   2.71826   2.72150
 Alpha virt. eigenvalues --    2.72425   2.72666   2.72749   2.72927   2.73217
 Alpha virt. eigenvalues --    2.73370   2.73402   2.73632   2.74437   2.74606
 Alpha virt. eigenvalues --    2.74984   2.75070   2.76449   2.76686   2.76995
 Alpha virt. eigenvalues --    2.77328   2.77532   2.77551   2.78223   2.78284
 Alpha virt. eigenvalues --    2.78617   2.78826   2.79083   2.79229   2.80192
 Alpha virt. eigenvalues --    2.80440   2.80617   2.80686   2.81078   2.81211
 Alpha virt. eigenvalues --    2.81916   2.82029   2.82260   2.82436   2.83773
 Alpha virt. eigenvalues --    2.83831   2.83847   2.83862   2.84452   2.84639
 Alpha virt. eigenvalues --    2.84810   2.84977   2.85617   2.85762   2.86585
 Alpha virt. eigenvalues --    2.87092   2.87101   2.87705   2.88162   2.88249
 Alpha virt. eigenvalues --    2.88541   2.88602   2.88795   2.89029   2.90582
 Alpha virt. eigenvalues --    2.90592   2.90991   2.91281   2.93243   2.93249
 Alpha virt. eigenvalues --    2.93693   2.94294   2.94495   2.94651   2.95394
 Alpha virt. eigenvalues --    2.95463   2.95765   2.96297   2.96300   2.96536
 Alpha virt. eigenvalues --    2.96796   2.97274   2.97913   2.97954   2.98279
 Alpha virt. eigenvalues --    2.98302   2.98459   2.98494   2.98695   2.98702
 Alpha virt. eigenvalues --    2.98844   2.98976   2.99680   2.99723   2.99940
 Alpha virt. eigenvalues --    3.00127   3.00258   3.00315   3.00556   3.00912
 Alpha virt. eigenvalues --    3.01823   3.02036   3.02083   3.02127   3.02745
 Alpha virt. eigenvalues --    3.02831   3.03074   3.03236   3.03421   3.03628
 Alpha virt. eigenvalues --    3.03973   3.04265   3.04353   3.04544   3.04642
 Alpha virt. eigenvalues --    3.04650   3.05272   3.05387   3.06083   3.06207
 Alpha virt. eigenvalues --    3.06855   3.06899   3.07842   3.08239   3.09277
 Alpha virt. eigenvalues --    3.09497   3.09789   3.10352   3.10537   3.10657
 Alpha virt. eigenvalues --    3.11399   3.11422   3.11820   3.12040   3.12222
 Alpha virt. eigenvalues --    3.12270   3.13379   3.13568   3.13608   3.13735
 Alpha virt. eigenvalues --    3.14191   3.14397   3.15910   3.16016   3.17359
 Alpha virt. eigenvalues --    3.17439   3.17799   3.18173   3.18952   3.19223
 Alpha virt. eigenvalues --    3.22406   3.22519   3.24044   3.24358   3.24772
 Alpha virt. eigenvalues --    3.25114   3.26575   3.26601   3.27313   3.27718
 Alpha virt. eigenvalues --    3.29145   3.29202   3.31297   3.31622   3.33103
 Alpha virt. eigenvalues --    3.33515   3.40184   3.40733   3.42736   3.42914
 Alpha virt. eigenvalues --    3.48617   3.48757   3.50120   3.50199   3.50754
 Alpha virt. eigenvalues --    3.51572   3.56648   3.56924   3.59197   3.59257
 Alpha virt. eigenvalues --    3.62434   3.62936   3.66034   3.66283   3.67288
 Alpha virt. eigenvalues --    3.67466   3.73373   3.73944   3.76157   3.76602
          Condensed to atoms (all electrons):
 Mulliken charges:
               1
     1  Mg   0.838893
     2  C   -0.002915
     3  C   -0.094117
     4  C   -0.045895
     5  C   -0.063967
     6  N   -0.256778
     7  C   -0.052471
     8  C   -0.014018
     9  C   -0.087022
    10  C    0.046363
    11  C    0.104834
    12  C    0.053470
    13  C   -0.071839
    14  H    0.036263
    15  N   -0.433154
    16  C    0.168438
    17  C   -0.177159
    18  C   -0.004013
    19  C    0.148723
    20  C    0.110194
    21  C    0.012297
    22  O   -0.249666
    23  C    0.062465
    24  N   -0.341167
    25  C    0.041264
    26  C   -0.028161
    27  C   -0.023966
    28  C    0.074856
    29  C    0.076193
    30  C    0.035127
    31  C   -0.004505
    32  N   -0.310485
    33  C    0.080452
    34  C   -0.169693
    35  C    0.008359
    36  C    0.083032
    37  C    0.127299
    38  C    0.046147
    39  O   -0.188421
    40  C   -0.005352
    41  C    0.212873
    42  O   -0.256978
    43  O   -0.304850
    44  C    0.157663
    45  H   -0.017660
    46  H   -0.016880
    47  H   -0.041509
    48  H    0.000902
    49  H   -0.004029
    50  H    0.025440
    51  H    0.016403
    52  H    0.016596
    53  H    0.011259
    54  H    0.044216
    55  H    0.017789
    56  H    0.017936
    57  H    0.005851
    58  H    0.026740
    59  H    0.039594
    60  H    0.037282
    61  H    0.035613
    62  H    0.031581
    63  H    0.016564
    64  H    0.009394
    65  H    0.023160
    66  H    0.012502
    67  H    0.004692
    68  H    0.006305
    69  H    0.004722
    70  H    0.008775
    71  H    0.018223
    72  H    0.029046
    73  H    0.047635
    74  H    0.009109
    75  H    0.045936
    76  H    0.035084
    77  H    0.042909
    78  H    0.046390
    79  H    0.053814
    80  Mg   0.837895
    81  C   -0.016821
    82  C   -0.087800
    83  C   -0.045531
    84  C   -0.064877
    85  N   -0.254567
    86  C   -0.049835
    87  C   -0.015090
    88  C   -0.090494
    89  C    0.045740
    90  C    0.114386
    91  C    0.062522
    92  C   -0.077908
    93  H    0.034956
    94  N   -0.423489
    95  C    0.162908
    96  C   -0.174643
    97  C   -0.007817
    98  C    0.152114
    99  C    0.099376
   100  C    0.015577
   101  O   -0.253188
   102  C    0.061190
   103  N   -0.350092
   104  C    0.037538
   105  C   -0.019853
   106  C   -0.034821
   107  C    0.088920
   108  C    0.073671
   109  C    0.034748
   110  C   -0.007694
   111  N   -0.324127
   112  C    0.078452
   113  C   -0.163090
   114  C    0.002267
   115  C    0.096211
   116  C    0.131479
   117  C    0.042410
   118  O   -0.187742
   119  C    0.000894
   120  C    0.211286
   121  O   -0.250969
   122  O   -0.305657
   123  C    0.151994
   124  H   -0.019688
   125  H   -0.015576
   126  H   -0.040407
   127  H   -0.000660
   128  H   -0.004322
   129  H    0.022442
   130  H    0.014406
   131  H    0.016252
   132  H    0.013926
   133  H    0.037719
   134  H    0.020758
   135  H    0.019579
   136  H    0.008748
   137  H    0.026119
   138  H    0.039804
   139  H    0.038234
   140  H    0.036402
   141  H    0.033915
   142  H    0.014417
   143  H    0.012417
   144  H    0.025138
   145  H    0.011604
   146  H    0.005663
   147  H    0.006263
   148  H    0.003698
   149  H    0.010924
   150  H    0.017998
   151  H    0.030102
   152  H    0.046132
   153  H    0.008554
   154  H    0.046939
   155  H    0.035000
   156  H    0.043954
   157  H    0.049461
   158  H    0.053650
 Sum of Mulliken charges =  -0.00000
 Mulliken charges with hydrogens summed into heavy atoms:
               1
     1  Mg   0.838893
     2  C   -0.002915
     3  C   -0.111777
     4  C   -0.062775
     5  C   -0.105475
     6  N   -0.256778
     7  C   -0.052471
     8  C   -0.013116
     9  C   -0.091051
    10  C    0.046363
    11  C    0.163273
    12  C    0.108945
    13  C    0.000148
    15  N   -0.433154
    16  C    0.168438
    17  C   -0.177159
    18  C   -0.004013
    19  C    0.148723
    20  C    0.182379
    21  C    0.012297
    22  O   -0.249666
    23  C    0.166941
    24  N   -0.341167
    25  C    0.041264
    26  C   -0.011597
    27  C   -0.014572
    28  C    0.074856
    29  C    0.116548
    30  C    0.046154
    31  C    0.051540
    32  N   -0.310485
    33  C    0.080452
    34  C   -0.169693
    35  C    0.008359
    36  C    0.083032
    37  C    0.229980
    38  C    0.046147
    39  O   -0.188421
    40  C    0.029732
    41  C    0.212873
    42  O   -0.256978
    43  O   -0.304850
    44  C    0.300775
    80  Mg   0.837895
    81  C   -0.016821
    82  C   -0.107488
    83  C   -0.061106
    84  C   -0.105284
    85  N   -0.254567
    86  C   -0.049835
    87  C   -0.015750
    88  C   -0.094815
    89  C    0.045740
    90  C    0.167486
    91  C    0.114167
    92  C   -0.002614
    94  N   -0.423489
    95  C    0.162908
    96  C   -0.174643
    97  C   -0.007817
    98  C    0.152114
    99  C    0.174046
   100  C    0.015577
   101  O   -0.253188
   102  C    0.169741
   103  N   -0.350092
   104  C    0.037538
   105  C   -0.005436
   106  C   -0.022403
   107  C    0.088920
   108  C    0.116077
   109  C    0.044709
   110  C    0.051331
   111  N   -0.324127
   112  C    0.078452
   113  C   -0.163090
   114  C    0.002267
   115  C    0.096211
   116  C    0.233104
   117  C    0.042410
   118  O   -0.187742
   119  C    0.035894
   120  C    0.211286
   121  O   -0.250969
   122  O   -0.305657
   123  C    0.299059
 Electronic spatial extent (au):  <R**2>=         600978.9728
 Charge=             -0.0000 electrons
 Dipole moment (field-independent basis, Debye):
    X=             -1.3389    Y=              1.3132    Z=              7.0032  Tot=              7.2499
 Quadrupole moment (field-independent basis, Debye-Ang):
   XX=           -363.0186   YY=           -483.9235   ZZ=           -505.0640
   XY=            -34.0090   XZ=             14.8368   YZ=             49.1413
 Traceless Quadrupole moment (field-independent basis, Debye-Ang):
   XX=             87.6501   YY=            -33.2548   ZZ=            -54.3953
   XY=            -34.0090   XZ=             14.8368   YZ=             49.1413
 Octapole moment (field-independent basis, Debye-Ang**2):
  XXX=           -698.6800  YYY=            348.5038  ZZZ=            195.5320  XYY=            -85.9385
  XXY=           1349.3173  XXZ=           1878.7119  XZZ=             55.4178  YZZ=            -68.3003
  YYZ=            -89.7127  XYZ=            365.0454
 Hexadecapole moment (field-independent basis, Debye-Ang**3):
 XXXX=        -705029.5683 YYYY=         -34252.4686 ZZZZ=         -16489.2737 XXXY=         -23964.5831
 XXXZ=          -1066.1852 YYYX=           1292.7557 YYYZ=            416.1525 ZZZX=           2766.9185
 ZZZY=            330.5818 XXYY=        -132574.4932 XXZZ=        -129708.0217 YYZZ=          -9294.8372
 XXYZ=          11222.1255 YYXZ=          -1529.8671 ZZXY=          -1051.1282
 N-N= 1.234499491722D+04 E-N=-3.417102338532D+04  KE= 4.028802089059D+03
 Leave Link  601 at Sun Sep 12 16:49:28 2021, MaxMem= 23488102400 cpu:              13.1 elap:               0.7
 (Enter /sw/apps/gaussian-16.0/g16/l9999.exe)
 1\1\GINC-BP1-COMPUTE00082\SP\RCAM-B3LYP TD-FC\def2SVP\C68H72Mg2N8O8\OF
 15641\12-Sep-2021\0\\#p cam-b3lyp/Def2SVP td=(nstates=5)\\TDDFT excite
 d states in gaussian\\0,1\Mg,0,0.,0.,0.\C,0,-0.217,-2.218,2.801\C,0,-1
 .255,2.442,2.026\C,0,-0.245,1.85,-2.564\C,0,0.146,-2.824,-2.037\N,0,-0
 .617,-0.009,2.126\C,0,-0.594,-0.908,3.105\C,0,-0.936,-0.309,4.502\C,0,
 -1.773,0.964,4.032\C,0,-1.155,1.168,2.66\C,0,-3.263,0.685,3.863\C,0,0.
 345,0.11,5.299\C,0,0.124,0.397,6.787\H,0,1.168,0.033,7.733\N,0,-0.185,
 1.961,-0.152\C,0,-0.703,2.8,0.777\C,0,-0.62,4.156,0.193\C,0,-0.187,4.0
 15,-1.225\C,0,-0.214,2.583,-1.38\C,0,-0.887,5.406,0.974\C,0,0.181,5.01
 3,-2.277\O,0,0.303,4.69,-3.508\C,0,0.31,6.414,-1.837\N,0,-0.265,-0.413
 ,-2.029\C,0,-0.279,0.569,-2.937\C,0,-0.196,0.024,-4.332\C,0,0.124,-1.5
 33,-4.18\C,0,0.086,-1.632,-2.635\C,0,-1.451,0.205,-5.197\C,0,1.373,-2.
 07,-4.923\C,0,2.626,-1.49,-4.306\N,0,0.15,-2.144,0.303\C,0,0.173,-3.13
 6,-0.688\C,0,0.173,-4.438,0.004\C,0,0.133,-4.111,1.358\C,0,0.083,-2.69
 5,1.502\C,0,0.149,-5.715,-0.623\C,0,0.096,-4.629,2.716\O,0,0.208,-5.74
 7,3.221\C,0,-0.255,-3.428,3.701\C,0,0.717,-3.482,4.848\O,0,1.931,-3.25
 5,4.669\O,0,0.038,-3.556,6.003\C,0,0.943,-3.583,7.183\H,0,-1.859,3.22,
 2.497\H,0,-0.218,2.453,-3.474\H,0,0.276,-3.747,-2.605\H,0,-1.554,-0.94
 9,5.132\H,0,-1.585,1.831,4.665\H,0,-3.484,-0.377,3.969\H,0,-3.511,1.02
 7,2.858\H,0,-3.852,1.301,4.543\H,0,0.669,1.096,4.966\H,0,1.13,-0.639,5
 .189\H,0,-0.844,0.026,7.125\H,0,0.062,1.477,6.921\H,0,-1.344,5.186,1.9
 38\H,0,-1.651,5.963,0.432\H,0,0.007,6.02,1.084\H,0,-0.635,6.744,-1.405
 \H,0,0.665,6.97,-2.704\H,0,1.048,6.466,-1.036\H,0,0.608,0.501,-4.891\H
 ,0,-0.692,-2.156,-4.547\H,0,-1.267,0.74,-6.129\H,0,-2.204,0.714,-4.596
 \H,0,-1.967,-0.72,-5.453\H,0,1.356,-1.759,-5.967\H,0,1.452,-3.157,-4.9
 02\H,0,2.714,-0.522,-4.798\H,0,3.487,-2.121,-4.529\H,0,2.495,-1.303,-3
 .24\H,0,0.867,-6.333,-0.084\H,0,0.404,-5.642,-1.68\H,0,-0.891,-5.999,-
 0.463\H,0,-1.283,-3.581,4.028\H,0,0.698,-4.478,7.755\H,0,0.833,-2.619,
 7.68\H,0,2.,-3.754,6.976\Mg,0,31.53732,2.83344,2.40313\C,0,28.88141,2.
 63714,4.80869\C,0,33.34866,4.50452,4.76134\C,0,33.71644,3.41785,0.1721
 4\C,0,29.16209,2.19209,-0.0652\N,0,31.06734,3.43249,4.47979\C,0,30.049
 89,3.24947,5.30783\C,0,30.32821,3.67845,6.77346\C,0,31.49741,4.74334,6
 .49443\C,0,32.03426,4.17833,5.18095\C,0,30.98172,6.14897,6.2344\C,0,30
 .83597,2.48674,7.6589\C,0,30.83246,2.75756,9.16502\H,0,30.51418,1.6561
 7,10.06952\N,0,33.43985,3.37114,2.5758\C,0,34.01064,4.02254,3.61077\C,
 0,35.42426,4.19986,3.24417\C,0,35.60468,3.74641,1.83827\C,0,34.22639,3
 .50845,1.45911\C,0,36.46314,4.67845,4.21633\C,0,36.81604,3.56997,0.973
 58\O,0,36.71977,3.39245,-0.29214\C,0,38.12079,3.7043,1.63771\N,0,31.42
 356,3.01995,0.33562\C,0,32.52931,3.22226,-0.40215\C,0,32.24214,3.0482,
 -1.87443\C,0,30.76239,2.44708,-1.9554\C,0,30.40076,2.4618,-0.45393\C,0
 ,32.32273,4.31732,-2.72251\C,0,30.58331,1.12201,-2.74585\C,0,31.27624,
 -0.00915,-2.02079\N,0,29.44553,2.29435,2.36004\C,0,28.6383,2.09929,1.2
 1793\C,0,27.2604,1.86073,1.69426\C,0,27.35805,1.95714,3.09057\C,0,28.6
 9803,2.25609,3.45742\C,0,26.12071,1.64476,0.86929\C,0,26.63017,1.88451
 ,4.33701\O,0,25.48236,1.57715,4.65604\C,0,27.55887,2.44661,5.49803\C,0
 ,27.50131,1.47915,6.64835\O,0,27.95849,0.32867,6.5301\O,0,27.11689,2.1
 3614,7.75783\C,0,27.05555,1.22091,8.92848\H,0,33.9142,5.23146,5.34495\
 H,0,34.45022,3.50213,-0.63281\H,0,28.38322,1.88717,-0.76738\H,0,29.496
 06,4.1618,7.27112\H,0,32.26082,4.70325,7.26707\H,0,29.90454,6.17616,6.
 16314\H,0,31.43066,6.4588,5.29978\H,0,31.36286,6.83695,6.9945\H,0,31.9
 1285,2.35214,7.49472\H,0,30.2795,1.59356,7.45106\H,0,30.24596,3.64792,
 9.42236\H,0,31.84992,3.00806,9.47493\H,0,36.00515,5.09124,5.12366\H,0,
 36.96535,5.53413,3.75214\H,0,37.20811,3.91395,4.447\H,0,38.19426,4.688
 76,2.09368\H,0,38.86309,3.45688,0.87636\H,0,38.17487,2.9748,2.45351\H,
 0,32.93248,2.34409,-2.3225\H,0,30.06779,3.13991,-2.45274\H,0,33.03956,
 4.2369,-3.56141\H,0,32.58542,5.14391,-2.07577\H,0,31.37735,4.64879,-3.
 14864\H,0,31.0585,1.19908,-3.72687\H,0,29.54496,0.85459,-2.91109\H,0,3
 2.31581,0.08828,-2.34776\H,0,30.85723,-0.96836,-2.31809\H,0,31.25579,0
 .14764,-0.93606\H,0,25.56306,0.83196,1.31526\H,0,26.40872,1.41559,-0.1
 5458\H,0,25.63372,2.62024,0.95016\H,0,27.18013,3.43192,5.77244\H,0,26.
 04612,1.30049,9.3437\H,0,27.89501,1.51847,9.58463\H,0,27.12194,0.15641
 ,8.73645\\Version=ES64L-G16RevA.03\State=1-A\HF=-4069.8117331\RMSD=4.5
 52e-09\PG=C01 [X(C68H72Mg2N8O8)]\\@


                                                                                    A
                                                                                  AA
                                                                                 AAA
                                                                                AAAA
                                                                               AAAAA
                                                                              AAAAAA   KKKKKKKK
                                                                             AAAAAAA   KKKKKKKK
                                                                            AAAAAAAA   KKKKKKKK
                                       ZZZZZZZZZZZZZZZZZZZZ                AAAA  AAA   KKKKKKKK
                                       ZZZZZZZZZZZZZZZZZZZ                AAAA   AAA   KKKKKKKK          K
                                       ZZZZZZZZZZZZZZZZZZ                AAAA    AAA   KKKKKKKK         KKK
                                       ZZZZZZZZZZZZZZZZZ                AAAA     AAA   KKKKKKKK        KKKKK
                                       ZZZZZZZZZZZZZZZZ                AAAA      AAA   KKKKKKKK       KKKKKKK
                                                ZZZZZZ                AAAA       AAA   KKKKKKKK      KKKKKKK
                                               ZZZZZZ                AAAA        AAA   KKKKKKKK     KKKKKKK
                                              ZZZZZZ                AAAA         AAA   KKKKKKKK    KKKKKKK
                                             ZZZZZZ                AAAA          AAA   KKKKKKKK   KKKKKKK
                                            ZZZZZZ                AAAAAAAAAAAAAAAAAA   KKKKKKKK  KKKKKKK
                                           ZZZZZZ                AAAAAAAAAAAAAAAAAAA   KKKKKKKK KKKKKKK
                                          ZZZZZZ                AAAAAAAAAAAAAAAAAAAA   KKKKKKKKKKKKKKK
                                         ZZZZZZ                AAAAAAAAAAAAAAAAAAAAA   KKKKKKKKKKKKKK
                                        ZZZZZZ                AAAAAA        AAAAAAAA   KKKKKKKKKKKKK
                                       ZZZZZZ                AAAAAA         AAAAAAAA   KKKKKKKKKKKK
                                      ZZZZZZ                AAAAAA          AAAAAAAA   KKKKKKKKKKK
                                     ZZZZZZ                AAAAAA           AAAAAAAA   KKKKKKKKKKKK
                                    ZZZZZZ                AAAAAA            AAAAAAAA   KKKKKKKKKKKKK
                                   ZZZZZZ                AAAAAA             AAAAAAAA   KKKKKKKKKKKKKK
                                  ZZZZZZ                AAAAAA              AAAAAAAA   KKKKKKKKKKKKKKK
                                 ZZZZZZ                AAAAAA               AAAAAAAA   KKKKK KKKKKKKKKK
                                ZZZZZZ                AAAAAA                AAAAAAAA   KKKKK  KKKKKKKKKK
                               ZZZZZZ                AAAAAA                            KKKKK   KKKKKKKKKK
                              ZZZZZZ                AAAAAA                             KKKKK    KKKKKKKKKK
                             ZZZZZZ                                                    KKKKK     KKKKKKKKKK
                            ZZZZZZ                                                     KKKKK      KKKKKKKKKK
                           ZZZZZZ                                                      KKKKK       KKKKKKKKKK
                          ZZZZZZ                                                       KKKKK        KKKKKKKKKK
                         ZZZZZZZZZZZZZZZZZZZZZZZZZZZZZZZZZZZZZZZZ                      KKKKK         KKKKKKKKKK
                        ZZZZZZZZZZZZZZZZZZZZZZZZZZZZZZZZZZZZZZZZZ                      KKKKK          KKKKKKKKKK
                       ZZZZZZZZZZZZZZZZZZZZZZZZZZZZZZZZZZZZZZZZZZ                      KKKKK           KKKKKKKKKK
                       ZZZZZZZZZZZZZZZZZZZZZZZZZZZZZZZZZZZZZZZZZZ                      KKKKK            KKKKKKKKKK
                       ZZZZZZZZZZZZZZZZZZZZZZZZZZZZZZZZZZZZZZZZZZ                      KKKKK             KKKKKKKKKK
                       ZZZZZZZZZZZZZZZZZZZZZZZZZZZZZZZZZZZZZZZZZZ                      KKKKK              KKKKKKKKKK
                       ZZZZZZZZZZZZZZZZZZZZZZZZZZZZZZZZZZZZZZZZZZ                      KKKKK               KKKKKKKKKK
                       ZZZZZZZZZZZZZZZZZZZZZZZZZZZZZZZZZZZZZZZZZZ                      KKKKK                KKKKKKKKKK
                       ZZZZZZZZZZZZZZZZZZZZZZZZZZZZZZZZZZZZZZZZZZ                      KKKKK
                                                                                       KKKKK
                                                                                          (J.P.)
 Job cpu time:       0 days 10 hours 46 minutes  6.9 seconds.
 Elapsed time:       0 days  0 hours 27 minutes 31.5 seconds.
 File lengths (MBytes):  RWF=  13225 Int=      0 D2E=      0 Chk=    574 Scr=      1
 Normal termination of Gaussian 16 at Sun Sep 12 16:49:29 2021.
