 Entering Gaussian System, Link 0=g16
 Initial command:
 /sw/apps/gaussian-16.0/g16/l1.exe "/tmp/Gau-85693.inp" -scrdir="/tmp/"
 Entering Link 1 = /sw/apps/gaussian-16.0/g16/l1.exe PID=     85694.
  
 Copyright (c) 1988,1990,1992,1993,1995,1998,2003,2009,2016,
            Gaussian, Inc.  All Rights Reserved.
  
 This is part of the Gaussian(R) 16 program.  It is based on
 the Gaussian(R) 09 system (copyright 2009, Gaussian, Inc.),
 the Gaussian(R) 03 system (copyright 2003, Gaussian, Inc.),
 the Gaussian(R) 98 system (copyright 1998, Gaussian, Inc.),
 the Gaussian(R) 94 system (copyright 1995, Gaussian, Inc.),
 the Gaussian 92(TM) system (copyright 1992, Gaussian, Inc.),
 the Gaussian 90(TM) system (copyright 1990, Gaussian, Inc.),
 the Gaussian 88(TM) system (copyright 1988, Gaussian, Inc.),
 the Gaussian 86(TM) system (copyright 1986, Carnegie Mellon
 University), and the Gaussian 82(TM) system (copyright 1983,
 Carnegie Mellon University). Gaussian is a federally registered
 trademark of Gaussian, Inc.
  
 This software contains proprietary and confidential information,
 including trade secrets, belonging to Gaussian, Inc.
  
 This software is provided under written license and may be
 used, copied, transmitted, or stored only in accord with that
 written license.
  
 The following legend is applicable only to US Government
 contracts under FAR:
  
                    RESTRICTED RIGHTS LEGEND
  
 Use, reproduction and disclosure by the US Government is
 subject to restrictions as set forth in subparagraphs (a)
 and (c) of the Commercial Computer Software - Restricted
 Rights clause in FAR 52.227-19.
  
 Gaussian, Inc.
 340 Quinnipiac St., Bldg. 40, Wallingford CT 06492
  
  
 ---------------------------------------------------------------
 Warning -- This program may not be used in any manner that
 competes with the business of Gaussian, Inc. or will provide
 assistance to any competitor of Gaussian, Inc.  The licensee
 of this program is prohibited from giving any competitor of
 Gaussian, Inc. access to this program.  By using this program,
 the user acknowledges that Gaussian, Inc. is engaged in the
 business of creating and licensing software in the field of
 computational chemistry and represents and warrants to the
 licensee that it is not a competitor of Gaussian, Inc. and that
 it will not use this program in any manner prohibited above.
 ---------------------------------------------------------------
  

 Cite this work as:
 Gaussian 16, Revision A.03,
 M. J. Frisch, G. W. Trucks, H. B. Schlegel, G. E. Scuseria, 
 M. A. Robb, J. R. Cheeseman, G. Scalmani, V. Barone, 
 G. A. Petersson, H. Nakatsuji, X. Li, M. Caricato, A. V. Marenich, 
 J. Bloino, B. G. Janesko, R. Gomperts, B. Mennucci, H. P. Hratchian, 
 J. V. Ortiz, A. F. Izmaylov, J. L. Sonnenberg, D. Williams-Young, 
 F. Ding, F. Lipparini, F. Egidi, J. Goings, B. Peng, A. Petrone, 
 T. Henderson, D. Ranasinghe, V. G. Zakrzewski, J. Gao, N. Rega, 
 G. Zheng, W. Liang, M. Hada, M. Ehara, K. Toyota, R. Fukuda, 
 J. Hasegawa, M. Ishida, T. Nakajima, Y. Honda, O. Kitao, H. Nakai, 
 T. Vreven, K. Throssell, J. A. Montgomery, Jr., J. E. Peralta, 
 F. Ogliaro, M. J. Bearpark, J. J. Heyd, E. N. Brothers, K. N. Kudin, 
 V. N. Staroverov, T. A. Keith, R. Kobayashi, J. Normand, 
 K. Raghavachari, A. P. Rendell, J. C. Burant, S. S. Iyengar, 
 J. Tomasi, M. Cossi, J. M. Millam, M. Klene, C. Adamo, R. Cammi, 
 J. W. Ochterski, R. L. Martin, K. Morokuma, O. Farkas, 
 J. B. Foresman, and D. J. Fox, Gaussian, Inc., Wallingford CT, 2016.
 
 ******************************************
 Gaussian 16:  ES64L-G16RevA.03 25-Dec-2016
                 4-Sep-2021 
 ******************************************
 %nproc=24
 Will use up to   24 processors via shared memory.
 %mem=175gb
 -----------------------------------
 #p cam-b3lyp/Def2SVP td=(nstates=5)
 -----------------------------------
 1/38=1,172=1/1;
 2/12=2,17=6,18=5,40=1/2;
 3/5=43,7=101,11=9,25=1,30=1,74=-40/1,2,3,8;
 4//1;
 5/5=2,38=5/2;
 8/6=1,10=1,108=5/1;
 9/41=5,42=1,70=2/14;
 6/7=2,8=2,9=2,10=2/1;
 99/5=1,9=1/99;
 Leave Link    1 at Sat Sep  4 20:12:05 2021, MaxMem= 23488102400 cpu:               0.6 elap:               0.0
 (Enter /sw/apps/gaussian-16.0/g16/l101.exe)
 --------------------------------
 TDDFT excited states in gaussian
 --------------------------------
 Symbolic Z-matrix:
 Charge =  0 Multiplicity = 1
 Mg                    0.        0.        0. 
 C                    -0.217    -2.218     2.801 
 C                    -1.255     2.442     2.026 
 C                    -0.245     1.85     -2.564 
 C                     0.146    -2.824    -2.037 
 N                    -0.617    -0.009     2.126 
 C                    -0.594    -0.908     3.105 
 C                    -0.936    -0.309     4.502 
 C                    -1.773     0.964     4.032 
 C                    -1.155     1.168     2.66 
 C                    -3.263     0.685     3.863 
 C                     0.345     0.11      5.299 
 C                     0.124     0.397     6.787 
 H                     1.168     0.033     7.733 
 N                    -0.185     1.961    -0.152 
 C                    -0.703     2.8       0.777 
 C                    -0.62      4.156     0.193 
 C                    -0.187     4.015    -1.225 
 C                    -0.214     2.583    -1.38 
 C                    -0.887     5.406     0.974 
 C                     0.181     5.013    -2.277 
 O                     0.303     4.69     -3.508 
 C                     0.31      6.414    -1.837 
 N                    -0.265    -0.413    -2.029 
 C                    -0.279     0.569    -2.937 
 C                    -0.196     0.024    -4.332 
 C                     0.124    -1.533    -4.18 
 C                     0.086    -1.632    -2.635 
 C                    -1.451     0.205    -5.197 
 C                     1.373    -2.07     -4.923 
 C                     2.626    -1.49     -4.306 
 N                     0.15     -2.144     0.303 
 C                     0.173    -3.136    -0.688 
 C                     0.173    -4.438     0.004 
 C                     0.133    -4.111     1.358 
 C                     0.083    -2.695     1.502 
 C                     0.149    -5.715    -0.623 
 C                     0.096    -4.629     2.716 
 O                     0.208    -5.747     3.221 
 C                    -0.255    -3.428     3.701 
 C                     0.717    -3.482     4.848 
 O                     1.931    -3.255     4.669 
 O                     0.038    -3.556     6.003 
 C                     0.943    -3.583     7.183 
 H                    -1.859     3.22      2.497 
 H                    -0.218     2.453    -3.474 
 H                     0.276    -3.747    -2.605 
 H                    -1.554    -0.949     5.132 
 H                    -1.585     1.831     4.665 
 H                    -3.484    -0.377     3.969 
 H                    -3.511     1.027     2.858 
 H                    -3.852     1.301     4.543 
 H                     0.669     1.096     4.966 
 H                     1.13     -0.639     5.189 
 H                    -0.844     0.026     7.125 
 H                     0.062     1.477     6.921 
 H                    -1.344     5.186     1.938 
 H                    -1.651     5.963     0.432 
 H                     0.007     6.02      1.084 
 H                    -0.635     6.744    -1.405 
 H                     0.665     6.97     -2.704 
 H                     1.048     6.466    -1.036 
 H                     0.608     0.501    -4.891 
 H                    -0.692    -2.156    -4.547 
 H                    -1.267     0.74     -6.129 
 H                    -2.204     0.714    -4.596 
 H                    -1.967    -0.72     -5.453 
 H                     1.356    -1.759    -5.967 
 H                     1.452    -3.157    -4.902 
 H                     2.714    -0.522    -4.798 
 H                     3.487    -2.121    -4.529 
 H                     2.495    -1.303    -3.24 
 H                     0.867    -6.333    -0.084 
 H                     0.404    -5.642    -1.68 
 H                    -0.891    -5.999    -0.463 
 H                    -1.283    -3.581     4.028 
 H                     0.698    -4.478     7.755 
 H                     0.833    -2.619     7.68 
 H                     2.       -3.754     6.976 
 Mg                    31.53974   2.83459   2.40189 
 C                     31.73016  -0.51804   1.13592 
 C                     30.55101   1.49501   5.37889 
 C                     30.92893   5.78008   3.41107 
 C                     31.42334   3.92856  -0.90498 
 N                     31.21969   0.74429   3.05033 
 C                     31.38289  -0.44996   2.50128 
 C                     31.23992  -1.63763   3.4905 
 C                     30.32608  -0.91912   4.59842 
 C                     30.74512   0.52988   4.35863 
 C                     28.83696  -1.03805   4.3196 
 C                     32.61942  -2.0876    4.08759 
 C                     32.59625  -3.43223   4.81778 
 H                     33.77019  -4.29565   4.72374 
 N                     31.31997   3.54156   4.24321 
 C                     30.9334   2.85385   5.33815 
 C                     30.90759   3.83028   6.43819 
 C                     31.15092   5.18391   5.86968 
 C                     31.12139   4.88372   4.45225 
 C                     30.74789   3.43155   7.87656 
 C                     31.36103   6.52848   6.49752 
 O                     31.31715   7.60793   5.80783 
 C                     31.52673   6.55128   7.95818 
 N                     31.00926   4.58318   1.41024 
 C                     30.8546   5.73842   2.08064 
 C                     30.74636   6.90892   1.13269 
 C                     31.10441   6.32571  -0.31273 
 C                     31.27827   4.83499   0.05184 
 C                     29.38307   7.59815   1.07968 
 C                     32.24497   7.03337  -1.0944 
 C                     33.56663   6.80725  -0.39619 
 N                     31.75407   1.92453   0.45409 
 C                     31.64348   2.56099  -0.8016 
 C                     31.75189   1.50957  -1.83368 
 C                     31.89611   0.32206  -1.10053 
 C                     31.85854   0.61046   0.29048 
 C                     31.66414   1.71202  -3.23989 
 C                     32.06092  -1.11114  -1.18698 
 O                     32.2448  -1.91067  -2.10387 
 C                     31.83395  -1.73397   0.25765 
 C                     32.95461  -2.70011   0.52824 
 O                     34.1254  -2.29537   0.63792 
 O                     32.43526  -3.90473   0.82747 
 C                     33.50764  -4.89437   1.11457 
 H                     30.01749   1.19571   6.28148 
 H                     30.82446   6.8274    3.70379 
 H                     31.49474   4.2001   -1.96037 
 H                     30.7266  -2.50342   3.08965 
 H                     30.60053  -1.23435   5.60175 
 H                     28.64191  -1.48611   3.35662 
 H                     28.44997  -0.028     4.35229 
 H                     28.34292  -1.57658   5.13339 
 H                     32.8815  -1.42494   4.92242 
 H                     33.37685  -2.10181   3.32816 
 H                     31.68286  -4.00099   4.60527 
 H                     32.54981  -3.24251   5.8929 
 H                     30.42376   2.3878    7.97104 
 H                     29.9113   4.01321   8.27863 
 H                     31.63985   3.63718   8.47219 
 H                     30.64958   6.11273   8.42802 
 H                     31.75431   7.58884   8.2103 
 H                     32.37769   5.91413   8.22373 
 H                     31.46247   7.68049   1.38758 
 H                     30.24695   6.3834   -0.99923 
 H                     29.43147   8.67946   1.30881 
 H                     28.71825   7.09304   1.76773 
 H                     28.85324   7.50157   0.13356 
 H                     32.08159   8.11379  -1.10723 
 H                     32.32811   6.70797  -2.12599 
 H                     33.57062   7.57814   0.38022 
 H                     34.3942   6.9414   -1.08986 
 H                     33.58468   5.83319   0.10633 
 H                     32.44786   1.11701  -3.68961 
 H                     31.76553   2.7643   -3.49716 
 H                     30.65383   1.33896  -3.42798 
 H                     30.8609  -2.22664   0.25281 
 H                     33.34941  -5.74162   0.44017 
 H                     33.44488  -5.09631   2.20041 
 H                     34.52568  -4.6157    0.86882 
 
 ITRead=  0  0  0  0  0  0  0  0  0  0  0  0  0  0  0  0  0  0  0  0
 ITRead=  0  0  0  0  0  0  0  0  0  0  0  0  0  0  0  0  0  0  0  0
 ITRead=  0  0  0  0  0  0  0  0  0  0  0  0  0  0  0  0  0  0  0  0
 ITRead=  0  0  0  0  0  0  0  0  0  0  0  0  0  0  0  0  0  0  0  0
 ITRead=  0  0  0  0  0  0  0  0  0  0  0  0  0  0  0  0  0  0  0  0
 ITRead=  0  0  0  0  0  0  0  0  0  0  0  0  0  0  0  0  0  0  0  0
 ITRead=  0  0  0  0  0  0  0  0  0  0  0  0  0  0  0  0  0  0  0  0
 ITRead=  0  0  0  0  0  0  0  0  0  0  0  0  0  0  0  0  0  0
 MicOpt= -1 -1 -1 -1 -1 -1 -1 -1 -1 -1 -1 -1 -1 -1 -1 -1 -1 -1 -1 -1
 MicOpt= -1 -1 -1 -1 -1 -1 -1 -1 -1 -1 -1 -1 -1 -1 -1 -1 -1 -1 -1 -1
 MicOpt= -1 -1 -1 -1 -1 -1 -1 -1 -1 -1 -1 -1 -1 -1 -1 -1 -1 -1 -1 -1
 MicOpt= -1 -1 -1 -1 -1 -1 -1 -1 -1 -1 -1 -1 -1 -1 -1 -1 -1 -1 -1 -1
 MicOpt= -1 -1 -1 -1 -1 -1 -1 -1 -1 -1 -1 -1 -1 -1 -1 -1 -1 -1 -1 -1
 MicOpt= -1 -1 -1 -1 -1 -1 -1 -1 -1 -1 -1 -1 -1 -1 -1 -1 -1 -1 -1 -1
 MicOpt= -1 -1 -1 -1 -1 -1 -1 -1 -1 -1 -1 -1 -1 -1 -1 -1 -1 -1 -1 -1
 MicOpt= -1 -1 -1 -1 -1 -1 -1 -1 -1 -1 -1 -1 -1 -1 -1 -1 -1 -1
 NAtoms=    158 NQM=      158 NQMF=       0 NMMI=      0 NMMIF=      0
                NMic=       0 NMicF=      0.
                    Isotopes and Nuclear Properties:
 (Nuclear quadrupole moments (NQMom) in fm**2, nuclear magnetic moments (NMagM)
  in nuclear magnetons)

  Atom         1           2           3           4           5           6           7           8           9          10
 IAtWgt=          24          12          12          12          12          14          12          12          12          12
 AtmWgt=  23.9850450  12.0000000  12.0000000  12.0000000  12.0000000  14.0030740  12.0000000  12.0000000  12.0000000  12.0000000
 NucSpn=           0           0           0           0           0           2           0           0           0           0
 AtZEff=  -0.0000000  -0.0000000  -0.0000000  -0.0000000  -0.0000000  -0.0000000  -0.0000000  -0.0000000  -0.0000000  -0.0000000
 NQMom=    0.0000000   0.0000000   0.0000000   0.0000000   0.0000000   2.0440000   0.0000000   0.0000000   0.0000000   0.0000000
 NMagM=    0.0000000   0.0000000   0.0000000   0.0000000   0.0000000   0.4037610   0.0000000   0.0000000   0.0000000   0.0000000
 AtZNuc=  12.0000000   6.0000000   6.0000000   6.0000000   6.0000000   7.0000000   6.0000000   6.0000000   6.0000000   6.0000000

  Atom        11          12          13          14          15          16          17          18          19          20
 IAtWgt=          12          12          12           1          14          12          12          12          12          12
 AtmWgt=  12.0000000  12.0000000  12.0000000   1.0078250  14.0030740  12.0000000  12.0000000  12.0000000  12.0000000  12.0000000
 NucSpn=           0           0           0           1           2           0           0           0           0           0
 AtZEff=  -0.0000000  -0.0000000  -0.0000000  -0.0000000  -0.0000000  -0.0000000  -0.0000000  -0.0000000  -0.0000000  -0.0000000
 NQMom=    0.0000000   0.0000000   0.0000000   0.0000000   2.0440000   0.0000000   0.0000000   0.0000000   0.0000000   0.0000000
 NMagM=    0.0000000   0.0000000   0.0000000   2.7928460   0.4037610   0.0000000   0.0000000   0.0000000   0.0000000   0.0000000
 AtZNuc=   6.0000000   6.0000000   6.0000000   1.0000000   7.0000000   6.0000000   6.0000000   6.0000000   6.0000000   6.0000000

  Atom        21          22          23          24          25          26          27          28          29          30
 IAtWgt=          12          16          12          14          12          12          12          12          12          12
 AtmWgt=  12.0000000  15.9949146  12.0000000  14.0030740  12.0000000  12.0000000  12.0000000  12.0000000  12.0000000  12.0000000
 NucSpn=           0           0           0           2           0           0           0           0           0           0
 AtZEff=  -0.0000000  -0.0000000  -0.0000000  -0.0000000  -0.0000000  -0.0000000  -0.0000000  -0.0000000  -0.0000000  -0.0000000
 NQMom=    0.0000000   0.0000000   0.0000000   2.0440000   0.0000000   0.0000000   0.0000000   0.0000000   0.0000000   0.0000000
 NMagM=    0.0000000   0.0000000   0.0000000   0.4037610   0.0000000   0.0000000   0.0000000   0.0000000   0.0000000   0.0000000
 AtZNuc=   6.0000000   8.0000000   6.0000000   7.0000000   6.0000000   6.0000000   6.0000000   6.0000000   6.0000000   6.0000000

  Atom        31          32          33          34          35          36          37          38          39          40
 IAtWgt=          12          14          12          12          12          12          12          12          16          12
 AtmWgt=  12.0000000  14.0030740  12.0000000  12.0000000  12.0000000  12.0000000  12.0000000  12.0000000  15.9949146  12.0000000
 NucSpn=           0           2           0           0           0           0           0           0           0           0
 AtZEff=  -0.0000000  -0.0000000  -0.0000000  -0.0000000  -0.0000000  -0.0000000  -0.0000000  -0.0000000  -0.0000000  -0.0000000
 NQMom=    0.0000000   2.0440000   0.0000000   0.0000000   0.0000000   0.0000000   0.0000000   0.0000000   0.0000000   0.0000000
 NMagM=    0.0000000   0.4037610   0.0000000   0.0000000   0.0000000   0.0000000   0.0000000   0.0000000   0.0000000   0.0000000
 AtZNuc=   6.0000000   7.0000000   6.0000000   6.0000000   6.0000000   6.0000000   6.0000000   6.0000000   8.0000000   6.0000000

  Atom        41          42          43          44          45          46          47          48          49          50
 IAtWgt=          12          16          16          12           1           1           1           1           1           1
 AtmWgt=  12.0000000  15.9949146  15.9949146  12.0000000   1.0078250   1.0078250   1.0078250   1.0078250   1.0078250   1.0078250
 NucSpn=           0           0           0           0           1           1           1           1           1           1
 AtZEff=  -0.0000000  -0.0000000  -0.0000000  -0.0000000  -0.0000000  -0.0000000  -0.0000000  -0.0000000  -0.0000000  -0.0000000
 NQMom=    0.0000000   0.0000000   0.0000000   0.0000000   0.0000000   0.0000000   0.0000000   0.0000000   0.0000000   0.0000000
 NMagM=    0.0000000   0.0000000   0.0000000   0.0000000   2.7928460   2.7928460   2.7928460   2.7928460   2.7928460   2.7928460
 AtZNuc=   6.0000000   8.0000000   8.0000000   6.0000000   1.0000000   1.0000000   1.0000000   1.0000000   1.0000000   1.0000000

  Atom        51          52          53          54          55          56          57          58          59          60
 IAtWgt=           1           1           1           1           1           1           1           1           1           1
 AtmWgt=   1.0078250   1.0078250   1.0078250   1.0078250   1.0078250   1.0078250   1.0078250   1.0078250   1.0078250   1.0078250
 NucSpn=           1           1           1           1           1           1           1           1           1           1
 AtZEff=  -0.0000000  -0.0000000  -0.0000000  -0.0000000  -0.0000000  -0.0000000  -0.0000000  -0.0000000  -0.0000000  -0.0000000
 NQMom=    0.0000000   0.0000000   0.0000000   0.0000000   0.0000000   0.0000000   0.0000000   0.0000000   0.0000000   0.0000000
 NMagM=    2.7928460   2.7928460   2.7928460   2.7928460   2.7928460   2.7928460   2.7928460   2.7928460   2.7928460   2.7928460
 AtZNuc=   1.0000000   1.0000000   1.0000000   1.0000000   1.0000000   1.0000000   1.0000000   1.0000000   1.0000000   1.0000000

  Atom        61          62          63          64          65          66          67          68          69          70
 IAtWgt=           1           1           1           1           1           1           1           1           1           1
 AtmWgt=   1.0078250   1.0078250   1.0078250   1.0078250   1.0078250   1.0078250   1.0078250   1.0078250   1.0078250   1.0078250
 NucSpn=           1           1           1           1           1           1           1           1           1           1
 AtZEff=  -0.0000000  -0.0000000  -0.0000000  -0.0000000  -0.0000000  -0.0000000  -0.0000000  -0.0000000  -0.0000000  -0.0000000
 NQMom=    0.0000000   0.0000000   0.0000000   0.0000000   0.0000000   0.0000000   0.0000000   0.0000000   0.0000000   0.0000000
 NMagM=    2.7928460   2.7928460   2.7928460   2.7928460   2.7928460   2.7928460   2.7928460   2.7928460   2.7928460   2.7928460
 AtZNuc=   1.0000000   1.0000000   1.0000000   1.0000000   1.0000000   1.0000000   1.0000000   1.0000000   1.0000000   1.0000000

  Atom        71          72          73          74          75          76          77          78          79          80
 IAtWgt=           1           1           1           1           1           1           1           1           1          24
 AtmWgt=   1.0078250   1.0078250   1.0078250   1.0078250   1.0078250   1.0078250   1.0078250   1.0078250   1.0078250  23.9850450
 NucSpn=           1           1           1           1           1           1           1           1           1           0
 AtZEff=  -0.0000000  -0.0000000  -0.0000000  -0.0000000  -0.0000000  -0.0000000  -0.0000000  -0.0000000  -0.0000000  -0.0000000
 NQMom=    0.0000000   0.0000000   0.0000000   0.0000000   0.0000000   0.0000000   0.0000000   0.0000000   0.0000000   0.0000000
 NMagM=    2.7928460   2.7928460   2.7928460   2.7928460   2.7928460   2.7928460   2.7928460   2.7928460   2.7928460   0.0000000
 AtZNuc=   1.0000000   1.0000000   1.0000000   1.0000000   1.0000000   1.0000000   1.0000000   1.0000000   1.0000000  12.0000000

  Atom        81          82          83          84          85          86          87          88          89          90
 IAtWgt=          12          12          12          12          14          12          12          12          12          12
 AtmWgt=  12.0000000  12.0000000  12.0000000  12.0000000  14.0030740  12.0000000  12.0000000  12.0000000  12.0000000  12.0000000
 NucSpn=           0           0           0           0           2           0           0           0           0           0
 AtZEff=  -0.0000000  -0.0000000  -0.0000000  -0.0000000  -0.0000000  -0.0000000  -0.0000000  -0.0000000  -0.0000000  -0.0000000
 NQMom=    0.0000000   0.0000000   0.0000000   0.0000000   2.0440000   0.0000000   0.0000000   0.0000000   0.0000000   0.0000000
 NMagM=    0.0000000   0.0000000   0.0000000   0.0000000   0.4037610   0.0000000   0.0000000   0.0000000   0.0000000   0.0000000
 AtZNuc=   6.0000000   6.0000000   6.0000000   6.0000000   7.0000000   6.0000000   6.0000000   6.0000000   6.0000000   6.0000000

  Atom        91          92          93          94          95          96          97          98          99         100
 IAtWgt=          12          12           1          14          12          12          12          12          12          12
 AtmWgt=  12.0000000  12.0000000   1.0078250  14.0030740  12.0000000  12.0000000  12.0000000  12.0000000  12.0000000  12.0000000
 NucSpn=           0           0           1           2           0           0           0           0           0           0
 AtZEff=  -0.0000000  -0.0000000  -0.0000000  -0.0000000  -0.0000000  -0.0000000  -0.0000000  -0.0000000  -0.0000000  -0.0000000
 NQMom=    0.0000000   0.0000000   0.0000000   2.0440000   0.0000000   0.0000000   0.0000000   0.0000000   0.0000000   0.0000000
 NMagM=    0.0000000   0.0000000   2.7928460   0.4037610   0.0000000   0.0000000   0.0000000   0.0000000   0.0000000   0.0000000
 AtZNuc=   6.0000000   6.0000000   1.0000000   7.0000000   6.0000000   6.0000000   6.0000000   6.0000000   6.0000000   6.0000000

  Atom       101         102         103         104         105         106         107         108         109         110
 IAtWgt=          16          12          14          12          12          12          12          12          12          12
 AtmWgt=  15.9949146  12.0000000  14.0030740  12.0000000  12.0000000  12.0000000  12.0000000  12.0000000  12.0000000  12.0000000
 NucSpn=           0           0           2           0           0           0           0           0           0           0
 AtZEff=  -0.0000000  -0.0000000  -0.0000000  -0.0000000  -0.0000000  -0.0000000  -0.0000000  -0.0000000  -0.0000000  -0.0000000
 NQMom=    0.0000000   0.0000000   2.0440000   0.0000000   0.0000000   0.0000000   0.0000000   0.0000000   0.0000000   0.0000000
 NMagM=    0.0000000   0.0000000   0.4037610   0.0000000   0.0000000   0.0000000   0.0000000   0.0000000   0.0000000   0.0000000
 AtZNuc=   8.0000000   6.0000000   7.0000000   6.0000000   6.0000000   6.0000000   6.0000000   6.0000000   6.0000000   6.0000000

  Atom       111         112         113         114         115         116         117         118         119         120
 IAtWgt=          14          12          12          12          12          12          12          16          12          12
 AtmWgt=  14.0030740  12.0000000  12.0000000  12.0000000  12.0000000  12.0000000  12.0000000  15.9949146  12.0000000  12.0000000
 NucSpn=           2           0           0           0           0           0           0           0           0           0
 AtZEff=  -0.0000000  -0.0000000  -0.0000000  -0.0000000  -0.0000000  -0.0000000  -0.0000000  -0.0000000  -0.0000000  -0.0000000
 NQMom=    2.0440000   0.0000000   0.0000000   0.0000000   0.0000000   0.0000000   0.0000000   0.0000000   0.0000000   0.0000000
 NMagM=    0.4037610   0.0000000   0.0000000   0.0000000   0.0000000   0.0000000   0.0000000   0.0000000   0.0000000   0.0000000
 AtZNuc=   7.0000000   6.0000000   6.0000000   6.0000000   6.0000000   6.0000000   6.0000000   8.0000000   6.0000000   6.0000000

  Atom       121         122         123         124         125         126         127         128         129         130
 IAtWgt=          16          16          12           1           1           1           1           1           1           1
 AtmWgt=  15.9949146  15.9949146  12.0000000   1.0078250   1.0078250   1.0078250   1.0078250   1.0078250   1.0078250   1.0078250
 NucSpn=           0           0           0           1           1           1           1           1           1           1
 AtZEff=  -0.0000000  -0.0000000  -0.0000000  -0.0000000  -0.0000000  -0.0000000  -0.0000000  -0.0000000  -0.0000000  -0.0000000
 NQMom=    0.0000000   0.0000000   0.0000000   0.0000000   0.0000000   0.0000000   0.0000000   0.0000000   0.0000000   0.0000000
 NMagM=    0.0000000   0.0000000   0.0000000   2.7928460   2.7928460   2.7928460   2.7928460   2.7928460   2.7928460   2.7928460
 AtZNuc=   8.0000000   8.0000000   6.0000000   1.0000000   1.0000000   1.0000000   1.0000000   1.0000000   1.0000000   1.0000000

  Atom       131         132         133         134         135         136         137         138         139         140
 IAtWgt=           1           1           1           1           1           1           1           1           1           1
 AtmWgt=   1.0078250   1.0078250   1.0078250   1.0078250   1.0078250   1.0078250   1.0078250   1.0078250   1.0078250   1.0078250
 NucSpn=           1           1           1           1           1           1           1           1           1           1
 AtZEff=  -0.0000000  -0.0000000  -0.0000000  -0.0000000  -0.0000000  -0.0000000  -0.0000000  -0.0000000  -0.0000000  -0.0000000
 NQMom=    0.0000000   0.0000000   0.0000000   0.0000000   0.0000000   0.0000000   0.0000000   0.0000000   0.0000000   0.0000000
 NMagM=    2.7928460   2.7928460   2.7928460   2.7928460   2.7928460   2.7928460   2.7928460   2.7928460   2.7928460   2.7928460
 AtZNuc=   1.0000000   1.0000000   1.0000000   1.0000000   1.0000000   1.0000000   1.0000000   1.0000000   1.0000000   1.0000000

  Atom       141         142         143         144         145         146         147         148         149         150
 IAtWgt=           1           1           1           1           1           1           1           1           1           1
 AtmWgt=   1.0078250   1.0078250   1.0078250   1.0078250   1.0078250   1.0078250   1.0078250   1.0078250   1.0078250   1.0078250
 NucSpn=           1           1           1           1           1           1           1           1           1           1
 AtZEff=  -0.0000000  -0.0000000  -0.0000000  -0.0000000  -0.0000000  -0.0000000  -0.0000000  -0.0000000  -0.0000000  -0.0000000
 NQMom=    0.0000000   0.0000000   0.0000000   0.0000000   0.0000000   0.0000000   0.0000000   0.0000000   0.0000000   0.0000000
 NMagM=    2.7928460   2.7928460   2.7928460   2.7928460   2.7928460   2.7928460   2.7928460   2.7928460   2.7928460   2.7928460
 AtZNuc=   1.0000000   1.0000000   1.0000000   1.0000000   1.0000000   1.0000000   1.0000000   1.0000000   1.0000000   1.0000000

  Atom       151         152         153         154         155         156         157         158
 IAtWgt=           1           1           1           1           1           1           1           1
 AtmWgt=   1.0078250   1.0078250   1.0078250   1.0078250   1.0078250   1.0078250   1.0078250   1.0078250
 NucSpn=           1           1           1           1           1           1           1           1
 AtZEff=  -0.0000000  -0.0000000  -0.0000000  -0.0000000  -0.0000000  -0.0000000  -0.0000000  -0.0000000
 NQMom=    0.0000000   0.0000000   0.0000000   0.0000000   0.0000000   0.0000000   0.0000000   0.0000000
 NMagM=    2.7928460   2.7928460   2.7928460   2.7928460   2.7928460   2.7928460   2.7928460   2.7928460
 AtZNuc=   1.0000000   1.0000000   1.0000000   1.0000000   1.0000000   1.0000000   1.0000000   1.0000000
 Leave Link  101 at Sat Sep  4 20:12:05 2021, MaxMem= 23488102400 cpu:               3.2 elap:               0.2
 (Enter /sw/apps/gaussian-16.0/g16/l202.exe)
 Stoichiometry    C68H72Mg2N8O8
 Framework group  C1[X(C68H72Mg2N8O8)]
 Deg. of freedom   468
 Full point group                 C1      NOp   1
 Largest Abelian subgroup         C1      NOp   1
 Largest concise Abelian subgroup C1      NOp   1
                         Standard orientation:                         
 ---------------------------------------------------------------------
 Center     Atomic      Atomic             Coordinates (Angstroms)
 Number     Number       Type             X           Y           Z
 ---------------------------------------------------------------------
      1         12           0      -15.786502    0.568768   -0.547645
      2          6           0      -16.036556   -2.440631    1.374126
      3          6           0      -16.755429    2.261011    2.252455
      4          6           0      -16.013090    3.178395   -2.335138
      5          6           0      -15.951516   -1.417887   -3.406252
      6          7           0      -16.300319   -0.114416    1.494387
      7          6           0      -16.298614   -1.288215    2.118377
      8          6           0      -16.527381   -1.171342    3.655056
      9          6           0      -17.287309    0.229817    3.690578
     10          6           0      -16.721808    0.845054    2.422660
     11          6           0      -18.800485    0.106131    3.543935
     12          6           0      -15.181845   -1.113719    4.453770
     13          6           0      -15.309319   -1.327527    5.964859
     14          1           0      -14.251864   -2.043372    6.662501
     15          7           0      -15.829910    2.475279   -0.031719
     16          6           0      -16.238167    2.983827    1.155712
     17          6           0      -16.080942    4.450147    1.046778
     18          6           0      -15.727951    4.766278   -0.365155
     19          6           0      -15.870386    3.471741   -0.981000
     20          6           0      -16.215222    5.380949    2.212679
     21          6           0      -15.336223    6.035931   -1.052659
     22          8           0      -15.297815    6.135649   -2.326690
     23          6           0      -15.080945    7.200611   -0.185828
     24          7           0      -16.178404    0.871307   -2.575580
     25          6           0      -16.161489    2.099048   -3.106004
     26          6           0      -16.186514    2.046677   -4.604860
     27          6           0      -15.978134    0.512909   -4.997142
     28          6           0      -15.949772   -0.093325   -3.572380
     29          6           0      -17.464082    2.574973   -5.271743
     30          6           0      -14.810119    0.186071   -5.961163
     31          6           0      -13.488897    0.456788   -5.276925
     32          7           0      -15.784573   -1.558383   -0.979236
     33          6           0      -15.883848   -2.162831   -2.240767
     34          6           0      -15.949176   -3.618938   -2.018169
     35          6           0      -15.899743   -3.760447   -0.632753
     36          6           0      -15.835734   -2.473035   -0.027141
     37          6           0      -16.099428   -4.610380   -3.027575
     38          6           0      -15.910949   -4.698721    0.477820
     39          8           0      -15.859747   -5.925510    0.577120
     40          6           0      -16.122864   -3.877404    1.825543
     41          6           0      -15.104123   -4.364528    2.819619
     42          8           0      -13.886369   -4.158454    2.640804
     43          8           0      -15.730912   -4.781681    3.930322
     44          6           0      -14.775290   -5.250686    4.969059
     45          1           0      -17.275794    2.869629    2.994577
     46          1           0      -15.984058    4.047838   -2.995185
     47          1           0      -15.918834   -2.104369   -4.254266
     48          1           0      -17.161199   -1.949505    4.080686
     49          1           0      -17.004392    0.824305    4.559061
     50          1           0      -19.095752   -0.916464    3.309334
     51          1           0      -19.069596    0.776848    2.727718
     52          1           0      -19.308176    0.491764    4.428420
     53          1           0      -14.800556   -0.092665    4.442380
     54          1           0      -14.461797   -1.825442    4.048424
     55          1           0      -16.285348   -1.735770    6.228703
     56          1           0      -15.283114   -0.352340    6.451196
     57          1           0      -16.641034    4.877778    3.079886
     58          1           0      -16.959951    6.128214    1.939397
     59          1           0      -15.273177    5.872607    2.455902
     60          1           0      -15.976641    7.419492    0.395866
     61          1           0      -14.726723    7.993313   -0.843856
     62          1           0      -14.303765    6.941582    0.533786
     63          1           0      -15.376363    2.637456   -5.030375
     64          1           0      -16.855427    0.094154   -5.490777
     65          1           0      -17.284863    3.379058   -5.985910
     66          1           0      -18.146967    2.895331   -4.485403
     67          1           0      -18.060089    1.818362   -5.781384
     68          1           0      -14.853355    0.827819   -6.840501
     69          1           0      -14.812527   -0.848330   -6.305055
     70          1           0      -13.351607    1.526991   -5.427418
     71          1           0      -12.689629   -0.110412   -5.755116
     72          1           0      -13.554409    0.284591   -4.202429
     73          1           0      -15.405265   -5.411506   -2.773991
     74          1           0      -15.890346   -4.203357   -4.016625
     75          1           0      -17.149089   -4.873402   -2.897621
     76          1           0      -17.142714   -4.073486    2.155057
     77          1           0      -15.059624   -6.270164    5.229929
     78          1           0      -14.788342   -4.503051    5.762329
     79          1           0      -13.745302   -5.401154    4.643754
     80         12           0       15.955800    0.688426    0.437829
     81          6           0       15.831877   -2.055299   -1.872081
     82          6           0       15.011836   -1.510189    2.868800
     83          6           0       15.618017    3.157887    2.401273
     84          6           0       15.764770    2.827100   -2.307219
     85          7           0       15.510088   -1.477330    0.382121
     86          6           0       15.556256   -2.427254   -0.539744
     87          6           0       15.371339   -3.866946    0.010392
     88          6           0       14.568257   -3.509528    1.354325
     89          6           0       15.083620   -2.089070    1.576581
     90          6           0       13.062810   -3.445995    1.156956
     91          6           0       16.739819   -4.565946    0.327680
     92          6           0       16.650016   -6.073626    0.573815
     93          1           0       17.749569   -6.919903    0.118547
     94          7           0       15.878120    0.751990    2.419871
     95          6           0       15.493379   -0.238926    3.251337
     96          6           0       15.593880    0.314666    4.610604
     97          6           0       15.911354    1.764709    4.504240
     98          6           0       15.791669    1.956451    3.072806
     99          6           0       15.473306   -0.531360    5.844744
    100          6           0       16.252115    2.809154    5.523659
    101          8           0       16.257041    4.057471    5.232987
    102          6           0       16.488539    2.334389    6.894865
    103          7           0       15.512205    2.694141    0.117398
    104          6           0       15.477385    3.566416    1.140071
    105          6           0       15.412767    4.990103    0.640739
    106          6           0       15.656402    4.903346   -0.937453
    107          6           0       15.734370    3.369173   -1.097510
    108          6           0       14.104451    5.731965    0.913428
    109          6           0       16.808568    5.766812   -1.520213
    110          6           0       18.141168    5.247973   -1.029910
    111          7           0       16.007645    0.469532   -1.711000
    112          6           0       15.885676    1.493356   -2.675872
    113          6           0       15.865022    0.841951   -4.001644
    114          6           0       15.953947   -0.528116   -3.712686
    115          6           0       16.004651   -0.718428   -2.305310
    116          6           0       15.725846    1.506234   -5.252832
    117          6           0       16.005735   -1.857265   -4.277822
    118          8           0       16.084767   -2.314194   -5.417434
    119          6           0       15.801533   -2.912561   -3.106908
    120          6           0       16.857652   -3.974143   -3.248963
    121          8           0       18.059561   -3.694655   -3.094381
    122          8           0       16.263672   -5.178866   -3.327709
    123          6           0       17.270717   -6.265396   -3.458579
    124          1           0       14.500892   -2.063277    3.657420
    125          1           0       15.607023    4.051747    3.029264
    126          1           0       15.806057    3.430612   -3.216476
    127          1           0       14.775566   -4.519682   -0.616315
    128          1           0       14.865655   -4.155958    2.175937
    129          1           0       12.788772   -3.535782    0.116295
    130          1           0       12.755208   -2.484856    1.547628
    131          1           0       12.568885   -4.196810    1.780381
    132          1           0       17.090714   -4.235173    1.313686
    133          1           0       17.456928   -4.368055   -0.445126
    134          1           0       15.687187   -6.487451    0.250337
    135          1           0       16.669366   -6.250988    1.651870
    136          1           0       15.076150   -1.527224    5.612535
    137          1           0       14.703165   -0.071657    6.473574
    138          1           0       16.405638   -0.585851    6.410817
    139          1           0       15.604182    1.813579    7.254223
    140          1           0       16.805594    3.214207    7.458146
    141          1           0       17.300642    1.599055    6.875352
    142          1           0       16.196443    5.591600    1.084762
    143          1           0       14.773985    5.234048   -1.504748
    144          1           0       14.245250    6.670549    1.482032
    145          1           0       13.436956    5.063990    1.441438
    146          1           0       13.524321    5.985895    0.027900
    147          1           0       16.726826    6.796970   -1.164885
    148          1           0       16.817600    5.799932   -2.604555
    149          1           0       18.240392    5.714383   -0.045168
    150          1           0       18.942477    5.559680   -1.696834
    151          1           0       18.109548    4.162684   -0.878939
    152          1           0       16.440047    1.052784   -5.927222
    153          1           0       15.894032    2.576747   -5.155483
    154          1           0       14.682429    1.273816   -5.482050
    155          1           0       14.794934   -3.320715   -3.205602
    156          1           0       17.016968   -6.829141   -4.361622
    157          1           0       17.244745   -6.814036   -2.498326
    158          1           0       18.294014   -5.977581   -3.669489
 ---------------------------------------------------------------------
 Rotational constants (GHZ):           0.0202809           0.0016339           0.0016227
 Leave Link  202 at Sat Sep  4 20:12:05 2021, MaxMem= 23488102400 cpu:               0.2 elap:               0.0
 (Enter /sw/apps/gaussian-16.0/g16/l301.exe)
 Standard basis: def2SVP (5D, 7F)
 Ernie: Thresh=  0.10000D-02 Tol=  0.10000D-05 Strict=F.
 There are  1658 symmetry adapted cartesian basis functions of A   symmetry.
 There are  1572 symmetry adapted basis functions of A   symmetry.
  1572 basis functions,  2678 primitive gaussians,  1658 cartesian basis functions
   312 alpha electrons      312 beta electrons
       nuclear repulsion energy     12306.2611428343 Hartrees.
 IExCor=20419 DFT=T Ex+Corr=CAM-B3LYP ExCW=0 ScaHFX=  1.000000
 ScaDFX=  1.000000  1.000000  1.000000  0.810000 ScalE2=  1.000000  1.000000
 IRadAn=      5 IRanWt=     -1 IRanGd=            0 ICorTp=0 IEmpDi=  4
 HFx  wShort=  0.000000 wLong=  0.330000 cFull=  0.190000 cShort=  0.000000 cLong=  0.460000
 DFx  wShort=  0.000000 wLong=  0.330000 cFull=  0.190000 cShort=  0.000000 cLong=  0.460000
 NAtoms=  158 NActive=  158 NUniq=  158 SFac= 1.00D+00 NAtFMM=   60 NAOKFM=T Big=T
 Integral buffers will be    131072 words long.
 Raffenetti 1 integral format.
 Two-electron integral symmetry is turned on.
 Leave Link  301 at Sat Sep  4 20:12:05 2021, MaxMem= 23488102400 cpu:               1.3 elap:               0.1
 (Enter /sw/apps/gaussian-16.0/g16/l302.exe)
 NPDir=0 NMtPBC=     1 NCelOv=     1 NCel=       1 NClECP=     1 NCelD=      1
         NCelK=      1 NCelE2=     1 NClLst=     1 CellRange=     0.0.
 One-electron integrals computed using PRISM.
 One-electron integral symmetry used in STVInt
   1 Symmetry operations used in ECPInt.
 ECPInt:  NShTT=  271216 NPrTT=  987664 LenC2=  103957 LenP2D=  239866.
 LDataN:  DoStor=T MaxTD1= 4 Len=   56
 NBasis=  1572 RedAO= T EigKep=  3.36D-04  NBF=  1572
 NBsUse=  1572 1.00D-06 EigRej= -1.00D+00 NBFU=  1572
 Precomputing XC quadrature grid using
 IXCGrd= 4 IRadAn=           5 IRanWt=          -1 IRanGd=           0 AccXCQ= 0.00D+00.
 Generated NRdTot=       0 NPtTot=           0 NUsed=           0 NTot=          32
 NSgBfM=   812   812   812   812   812 MxSgAt=   158 MxSgA2=    79.
 Leave Link  302 at Sat Sep  4 20:12:09 2021, MaxMem= 23488102400 cpu:              98.2 elap:               4.1
 (Enter /sw/apps/gaussian-16.0/g16/l303.exe)
 DipDrv:  MaxL=1.
 Leave Link  303 at Sat Sep  4 20:12:10 2021, MaxMem= 23488102400 cpu:               8.2 elap:               0.4
 (Enter /sw/apps/gaussian-16.0/g16/l308.exe)
 Leave Link  308 at Sat Sep  4 20:12:10 2021, MaxMem= 23488102400 cpu:              13.9 elap:               0.7
 (Enter /sw/apps/gaussian-16.0/g16/l401.exe)
 ExpMin= 3.36D-02 ExpMax= 4.95D+03 ExpMxC= 7.45D+02 IAcc=3 IRadAn=         5 AccDes= 0.00D+00
 Harris functional with IExCor=20419 and IRadAn=       5 diagonalized for initial guess.
 HarFok:  IExCor=20419 AccDes= 0.00D+00 IRadAn=         5 IDoV= 1 UseB2=F ITyADJ=14
 ICtDFT=  3500011 ScaDFX=  1.000000  1.000000  1.000000  1.000000
 FoFCou: FMM=F IPFlag=           0 FMFlag=      100000 FMFlg1=        2001
         NFxFlg=           0 DoJE=T BraDBF=F KetDBF=T FulRan=T
         wScrn=  0.000000 ICntrl=       500 IOpCl=  0 I1Cent=   200000004 NGrid=           0
         NMat0=    1 NMatS0=      1 NMatT0=    0 NMatD0=    1 NMtDS0=    0 NMtDT0=    0
 Petite list used in FoFCou.
 Harris En= -3918.65802034982    
 JPrj=0 DoOrth=F DoCkMO=F.
 Leave Link  401 at Sat Sep  4 20:12:17 2021, MaxMem= 23488102400 cpu:             157.6 elap:               6.6
 (Enter /sw/apps/gaussian-16.0/g16/l502.exe)
 Integral symmetry usage will be decided dynamically.
 Closed shell SCF:
 Using DIIS extrapolation, IDIIS=  1040.
 NGot= 23488102400 LenX= 23482547354 LenY= 23479796732
 Requested convergence on RMS density matrix=1.00D-08 within 128 cycles.
 Requested convergence on MAX density matrix=1.00D-06.
 Requested convergence on             energy=1.00D-06.
 No special actions if energy rises.
 Fock matrices will be formed incrementally for  20 cycles.

 Cycle   1  Pass 1  IDiag  1:
 FoFJK:  IHMeth= 1 ICntrl=       0 DoSepK=T KAlg= 0 I1Cent=           0 FoldK=F
 IRaf=         1 NMat=       1 IRICut=       1 DoRegI=T DoRafI=F ISym2E= 0 IDoP0=0 IntGTp=1.
 FoFCou: FMM=T IPFlag=           0 FMFlag=      100000 FMFlg1=        2001
         NFxFlg=           0 DoJE=T BraDBF=F KetDBF=F FulRan=T
         wScrn=  0.000000 ICntrl=       500 IOpCl=  0 I1Cent=           0 NGrid=           0
         NMat0=    1 NMatS0=      1 NMatT0=    0 NMatD0=    1 NMtDS0=    0 NMtDT0=    0
 Symmetry not used in FoFCou.
 FMM levels:  10  Number of levels for PrismC:   9
 E= -4068.94932503239    
 DIIS: error= 2.04D-02 at cycle   1 NSaved=   1.
 NSaved= 1 IEnMin= 1 EnMin= -4068.94932503239     IErMin= 1 ErrMin= 2.04D-02
 ErrMax= 2.04D-02  0.00D+00 EMaxC= 1.00D-01 BMatC= 1.69D+00 BMatP= 1.69D+00
 IDIUse=3 WtCom= 7.96D-01 WtEn= 2.04D-01
 Coeff-Com:  0.100D+01
 Coeff-En:   0.100D+01
 Coeff:      0.100D+01
 Gap=     0.120 Goal=   None    Shift=    0.000
 GapD=    0.120 DampG=1.000 DampE=0.500 DampFc=0.5000 IDamp=-1.
 Damping current iteration by 5.00D-01
 RMSDP=1.57D-03 MaxDP=1.35D-01              OVMax= 2.02D-01

 Cycle   2  Pass 1  IDiag  1:
 RMSU=  7.69D-04    CP:  9.82D-01
 E= -4069.33824484561     Delta-E=       -0.388919813222 Rises=F Damp=T
 DIIS: error= 1.27D-02 at cycle   2 NSaved=   2.
 NSaved= 2 IEnMin= 2 EnMin= -4069.33824484561     IErMin= 2 ErrMin= 1.27D-02
 ErrMax= 1.27D-02  0.00D+00 EMaxC= 1.00D-01 BMatC= 3.07D-01 BMatP= 1.69D+00
 IDIUse=3 WtCom= 8.73D-01 WtEn= 1.27D-01
 Coeff-Com: -0.213D+00 0.121D+01
 Coeff-En:   0.000D+00 0.100D+01
 Coeff:     -0.186D+00 0.119D+01
 Gap=     0.138 Goal=   None    Shift=    0.000
 RMSDP=7.65D-04 MaxDP=9.44D-02 DE=-3.89D-01 OVMax= 1.88D-01

 Cycle   3  Pass 1  IDiag  1:
 RMSU=  7.32D-04    CP:  9.68D-01  1.24D+00
 E= -4069.62807332106     Delta-E=       -0.289828475443 Rises=F Damp=F
 DIIS: error= 1.58D-02 at cycle   3 NSaved=   3.
 NSaved= 3 IEnMin= 3 EnMin= -4069.62807332106     IErMin= 2 ErrMin= 1.27D-02
 ErrMax= 1.58D-02  0.00D+00 EMaxC= 1.00D-01 BMatC= 2.02D-01 BMatP= 3.07D-01
 IDIUse=3 WtCom= 8.42D-01 WtEn= 1.58D-01
 Coeff-Com: -0.267D+00 0.652D+00 0.616D+00
 Coeff-En:   0.000D+00 0.000D+00 0.100D+01
 Coeff:     -0.225D+00 0.549D+00 0.676D+00
 Gap=     0.125 Goal=   None    Shift=    0.000
 RMSDP=5.08D-04 MaxDP=4.82D-02 DE=-2.90D-01 OVMax= 1.42D-01

 Cycle   4  Pass 1  IDiag  1:
 RMSU=  2.65D-04    CP:  9.65D-01  1.55D+00  5.06D-01
 E= -4069.76515594048     Delta-E=       -0.137082619425 Rises=F Damp=F
 DIIS: error= 7.31D-03 at cycle   4 NSaved=   4.
 NSaved= 4 IEnMin= 4 EnMin= -4069.76515594048     IErMin= 4 ErrMin= 7.31D-03
 ErrMax= 7.31D-03  0.00D+00 EMaxC= 1.00D-01 BMatC= 5.03D-02 BMatP= 2.02D-01
 IDIUse=3 WtCom= 9.27D-01 WtEn= 7.31D-02
 Coeff-Com: -0.109D+00 0.226D+00 0.409D+00 0.474D+00
 Coeff-En:   0.000D+00 0.000D+00 0.221D+00 0.779D+00
 Coeff:     -0.101D+00 0.209D+00 0.395D+00 0.497D+00
 Gap=     0.123 Goal=   None    Shift=    0.000
 RMSDP=2.00D-04 MaxDP=2.05D-02 DE=-1.37D-01 OVMax= 6.14D-02

 Cycle   5  Pass 1  IDiag  1:
 RMSU=  7.57D-05    CP:  9.64D-01  1.49D+00  6.89D-01  5.50D-01
 E= -4069.81056186174     Delta-E=       -0.045405921262 Rises=F Damp=F
 DIIS: error= 7.86D-04 at cycle   5 NSaved=   5.
 NSaved= 5 IEnMin= 5 EnMin= -4069.81056186174     IErMin= 5 ErrMin= 7.86D-04
 ErrMax= 7.86D-04  0.00D+00 EMaxC= 1.00D-01 BMatC= 1.16D-03 BMatP= 5.03D-02
 IDIUse=3 WtCom= 9.92D-01 WtEn= 7.86D-03
 Coeff-Com: -0.357D-01 0.701D-01 0.165D+00 0.249D+00 0.552D+00
 Coeff-En:   0.000D+00 0.000D+00 0.000D+00 0.000D+00 0.100D+01
 Coeff:     -0.354D-01 0.695D-01 0.164D+00 0.247D+00 0.555D+00
 Gap=     0.123 Goal=   None    Shift=    0.000
 RMSDP=4.06D-05 MaxDP=4.16D-03 DE=-4.54D-02 OVMax= 1.62D-02

 Cycle   6  Pass 1  IDiag  1:
 RMSU=  3.01D-05    CP:  9.64D-01  1.49D+00  6.81D-01  6.21D-01  7.60D-01
 E= -4069.81156431374     Delta-E=       -0.001002452000 Rises=F Damp=F
 DIIS: error= 2.20D-04 at cycle   6 NSaved=   6.
 NSaved= 6 IEnMin= 6 EnMin= -4069.81156431374     IErMin= 6 ErrMin= 2.20D-04
 ErrMax= 2.20D-04  0.00D+00 EMaxC= 1.00D-01 BMatC= 1.75D-04 BMatP= 1.16D-03
 IDIUse=3 WtCom= 9.98D-01 WtEn= 2.20D-03
 Coeff-Com:  0.232D-02-0.679D-02 0.108D-01 0.397D-01 0.306D+00 0.648D+00
 Coeff-En:   0.000D+00 0.000D+00 0.000D+00 0.000D+00 0.102D+00 0.898D+00
 Coeff:      0.231D-02-0.678D-02 0.108D-01 0.396D-01 0.306D+00 0.648D+00
 Gap=     0.123 Goal=   None    Shift=    0.000
 RMSDP=1.58D-05 MaxDP=1.23D-03 DE=-1.00D-03 OVMax= 7.18D-03

 Cycle   7  Pass 1  IDiag  1:
 RMSU=  1.06D-05    CP:  9.64D-01  1.50D+00  6.87D-01  6.21D-01  8.60D-01
                    CP:  7.50D-01
 E= -4069.81175215734     Delta-E=       -0.000187843596 Rises=F Damp=F
 DIIS: error= 8.24D-05 at cycle   7 NSaved=   7.
 NSaved= 7 IEnMin= 7 EnMin= -4069.81175215734     IErMin= 7 ErrMin= 8.24D-05
 ErrMax= 8.24D-05  0.00D+00 EMaxC= 1.00D-01 BMatC= 2.06D-05 BMatP= 1.75D-04
 IDIUse=1 WtCom= 1.00D+00 WtEn= 0.00D+00
 Coeff-Com:  0.445D-02-0.973D-02-0.899D-02-0.385D-02 0.102D+00 0.329D+00
 Coeff-Com:  0.588D+00
 Coeff:      0.445D-02-0.973D-02-0.899D-02-0.385D-02 0.102D+00 0.329D+00
 Coeff:      0.588D+00
 Gap=     0.123 Goal=   None    Shift=    0.000
 RMSDP=6.49D-06 MaxDP=1.11D-03 DE=-1.88D-04 OVMax= 3.37D-03

 Cycle   8  Pass 1  IDiag  1:
 RMSU=  4.66D-06    CP:  9.64D-01  1.50D+00  6.88D-01  6.26D-01  8.64D-01
                    CP:  8.76D-01  8.24D-01
 E= -4069.81177770824     Delta-E=       -0.000025550898 Rises=F Damp=F
 DIIS: error= 4.98D-05 at cycle   8 NSaved=   8.
 NSaved= 8 IEnMin= 8 EnMin= -4069.81177770824     IErMin= 8 ErrMin= 4.98D-05
 ErrMax= 4.98D-05  0.00D+00 EMaxC= 1.00D-01 BMatC= 4.81D-06 BMatP= 2.06D-05
 IDIUse=1 WtCom= 1.00D+00 WtEn= 0.00D+00
 Coeff-Com:  0.215D-02-0.425D-02-0.774D-02-0.121D-01-0.118D-01 0.334D-01
 Coeff-Com:  0.345D+00 0.656D+00
 Coeff:      0.215D-02-0.425D-02-0.774D-02-0.121D-01-0.118D-01 0.334D-01
 Coeff:      0.345D+00 0.656D+00
 Gap=     0.123 Goal=   None    Shift=    0.000
 RMSDP=3.26D-06 MaxDP=3.49D-04 DE=-2.56D-05 OVMax= 1.11D-03

 Cycle   9  Pass 1  IDiag  1:
 RMSU=  1.90D-06    CP:  9.64D-01  1.50D+00  6.88D-01  6.27D-01  8.81D-01
                    CP:  9.02D-01  1.02D+00  9.39D-01
 E= -4069.81178538552     Delta-E=       -0.000007677287 Rises=F Damp=F
 DIIS: error= 1.95D-05 at cycle   9 NSaved=   9.
 NSaved= 9 IEnMin= 9 EnMin= -4069.81178538552     IErMin= 9 ErrMin= 1.95D-05
 ErrMax= 1.95D-05  0.00D+00 EMaxC= 1.00D-01 BMatC= 6.85D-07 BMatP= 4.81D-06
 IDIUse=1 WtCom= 1.00D+00 WtEn= 0.00D+00
 Coeff-Com:  0.462D-03-0.767D-03-0.266D-02-0.598D-02-0.213D-01-0.385D-01
 Coeff-Com:  0.105D+00 0.326D+00 0.639D+00
 Coeff:      0.462D-03-0.767D-03-0.266D-02-0.598D-02-0.213D-01-0.385D-01
 Coeff:      0.105D+00 0.326D+00 0.639D+00
 Gap=     0.123 Goal=   None    Shift=    0.000
 RMSDP=1.41D-06 MaxDP=1.49D-04 DE=-7.68D-06 OVMax= 7.42D-04

 Cycle  10  Pass 1  IDiag  1:
 RMSU=  9.36D-07    CP:  9.64D-01  1.50D+00  6.88D-01  6.28D-01  8.85D-01
                    CP:  9.15D-01  1.07D+00  1.10D+00  1.05D+00
 E= -4069.81178696450     Delta-E=       -0.000001578979 Rises=F Damp=F
 DIIS: error= 1.02D-05 at cycle  10 NSaved=  10.
 NSaved=10 IEnMin=10 EnMin= -4069.81178696450     IErMin=10 ErrMin= 1.02D-05
 ErrMax= 1.02D-05  0.00D+00 EMaxC= 1.00D-01 BMatC= 1.71D-07 BMatP= 6.85D-07
 IDIUse=1 WtCom= 1.00D+00 WtEn= 0.00D+00
 Coeff-Com: -0.427D-03 0.893D-03 0.123D-02 0.112D-02-0.376D-02-0.309D-01
 Coeff-Com: -0.465D-01-0.765D-01 0.255D+00 0.899D+00
 Coeff:     -0.427D-03 0.893D-03 0.123D-02 0.112D-02-0.376D-02-0.309D-01
 Coeff:     -0.465D-01-0.765D-01 0.255D+00 0.899D+00
 Gap=     0.123 Goal=   None    Shift=    0.000
 RMSDP=1.22D-06 MaxDP=1.24D-04 DE=-1.58D-06 OVMax= 6.08D-04

 Cycle  11  Pass 1  IDiag  1:
 RMSU=  5.14D-07    CP:  9.64D-01  1.50D+00  6.88D-01  6.28D-01  8.87D-01
                    CP:  9.26D-01  1.12D+00  1.22D+00  1.39D+00  1.37D+00
 E= -4069.81178774895     Delta-E=       -0.000000784448 Rises=F Damp=F
 DIIS: error= 3.94D-06 at cycle  11 NSaved=  11.
 NSaved=11 IEnMin=11 EnMin= -4069.81178774895     IErMin=11 ErrMin= 3.94D-06
 ErrMax= 3.94D-06  0.00D+00 EMaxC= 1.00D-01 BMatC= 6.08D-08 BMatP= 1.71D-07
 IDIUse=1 WtCom= 1.00D+00 WtEn= 0.00D+00
 Coeff-Com: -0.326D-03 0.634D-03 0.132D-02 0.212D-02 0.442D-02-0.834D-02
 Coeff-Com: -0.436D-01-0.132D+00-0.228D-01 0.464D+00 0.735D+00
 Coeff:     -0.326D-03 0.634D-03 0.132D-02 0.212D-02 0.442D-02-0.834D-02
 Coeff:     -0.436D-01-0.132D+00-0.228D-01 0.464D+00 0.735D+00
 Gap=     0.123 Goal=   None    Shift=    0.000
 RMSDP=6.85D-07 MaxDP=5.83D-05 DE=-7.84D-07 OVMax= 3.71D-04

 Cycle  12  Pass 1  IDiag  1:
 RMSU=  2.62D-07    CP:  9.64D-01  1.50D+00  6.88D-01  6.28D-01  8.88D-01
                    CP:  9.28D-01  1.14D+00  1.28D+00  1.56D+00  1.76D+00
                    CP:  1.20D+00
 E= -4069.81178801028     Delta-E=       -0.000000261327 Rises=F Damp=F
 DIIS: error= 2.33D-06 at cycle  12 NSaved=  12.
 NSaved=12 IEnMin=12 EnMin= -4069.81178801028     IErMin=12 ErrMin= 2.33D-06
 ErrMax= 2.33D-06  0.00D+00 EMaxC= 1.00D-01 BMatC= 1.47D-08 BMatP= 6.08D-08
 IDIUse=1 WtCom= 1.00D+00 WtEn= 0.00D+00
 Coeff-Com:  0.598D-06-0.177D-04 0.177D-03 0.507D-03 0.329D-02 0.406D-02
 Coeff-Com:  0.287D-02-0.347D-01-0.677D-01-0.765D-01 0.250D+00 0.918D+00
 Coeff:      0.598D-06-0.177D-04 0.177D-03 0.507D-03 0.329D-02 0.406D-02
 Coeff:      0.287D-02-0.347D-01-0.677D-01-0.765D-01 0.250D+00 0.918D+00
 Gap=     0.123 Goal=   None    Shift=    0.000
 RMSDP=4.37D-07 MaxDP=3.08D-05 DE=-2.61D-07 OVMax= 2.49D-04

 Cycle  13  Pass 1  IDiag  1:
 RMSU=  1.65D-07    CP:  9.64D-01  1.50D+00  6.88D-01  6.28D-01  8.88D-01
                    CP:  9.28D-01  1.14D+00  1.31D+00  1.67D+00  1.99D+00
                    CP:  1.61D+00  1.27D+00
 E= -4069.81178810202     Delta-E=       -0.000000091741 Rises=F Damp=F
 DIIS: error= 1.23D-06 at cycle  13 NSaved=  13.
 NSaved=13 IEnMin=13 EnMin= -4069.81178810202     IErMin=13 ErrMin= 1.23D-06
 ErrMax= 1.23D-06  0.00D+00 EMaxC= 1.00D-01 BMatC= 8.09D-09 BMatP= 1.47D-08
 IDIUse=1 WtCom= 1.00D+00 WtEn= 0.00D+00
 Coeff-Com:  0.120D-03-0.245D-03-0.370D-03-0.457D-03 0.567D-03 0.508D-02
 Coeff-Com:  0.197D-01 0.227D-01-0.340D-01-0.241D+00-0.156D+00 0.599D+00
 Coeff-Com:  0.785D+00
 Coeff:      0.120D-03-0.245D-03-0.370D-03-0.457D-03 0.567D-03 0.508D-02
 Coeff:      0.197D-01 0.227D-01-0.340D-01-0.241D+00-0.156D+00 0.599D+00
 Coeff:      0.785D+00
 Gap=     0.123 Goal=   None    Shift=    0.000
 RMSDP=3.38D-07 MaxDP=2.26D-05 DE=-9.17D-08 OVMax= 1.96D-04

 Cycle  14  Pass 1  IDiag  1:
 RMSU=  7.59D-08    CP:  9.64D-01  1.50D+00  6.88D-01  6.28D-01  8.88D-01
                    CP:  9.29D-01  1.15D+00  1.33D+00  1.74D+00  2.18D+00
                    CP:  1.88D+00  1.79D+00  1.09D+00
 E= -4069.81178813751     Delta-E=       -0.000000035496 Rises=F Damp=F
 DIIS: error= 6.34D-07 at cycle  14 NSaved=  14.
 NSaved=14 IEnMin=14 EnMin= -4069.81178813751     IErMin=14 ErrMin= 6.34D-07
 ErrMax= 6.34D-07  0.00D+00 EMaxC= 1.00D-01 BMatC= 1.25D-09 BMatP= 8.09D-09
 IDIUse=1 WtCom= 1.00D+00 WtEn= 0.00D+00
 Coeff-Com:  0.662D-04-0.130D-03-0.246D-03-0.386D-03-0.485D-03 0.129D-02
 Coeff-Com:  0.108D-01 0.191D-01 0.366D-02-0.995D-01-0.142D+00 0.937D-01
 Coeff-Com:  0.404D+00 0.710D+00
 Coeff:      0.662D-04-0.130D-03-0.246D-03-0.386D-03-0.485D-03 0.129D-02
 Coeff:      0.108D-01 0.191D-01 0.366D-02-0.995D-01-0.142D+00 0.937D-01
 Coeff:      0.404D+00 0.710D+00
 Gap=     0.123 Goal=   None    Shift=    0.000
 RMSDP=1.01D-07 MaxDP=6.59D-06 DE=-3.55D-08 OVMax= 5.43D-05

 Cycle  15  Pass 1  IDiag  1:
 RMSU=  3.82D-08    CP:  9.64D-01  1.50D+00  6.88D-01  6.28D-01  8.88D-01
                    CP:  9.29D-01  1.15D+00  1.34D+00  1.76D+00  2.22D+00
                    CP:  1.98D+00  1.92D+00  1.33D+00  1.03D+00
 E= -4069.81178814151     Delta-E=       -0.000000003998 Rises=F Damp=F
 DIIS: error= 3.41D-07 at cycle  15 NSaved=  15.
 NSaved=15 IEnMin=15 EnMin= -4069.81178814151     IErMin=15 ErrMin= 3.41D-07
 ErrMax= 3.41D-07  0.00D+00 EMaxC= 1.00D-01 BMatC= 2.25D-10 BMatP= 1.25D-09
 IDIUse=1 WtCom= 1.00D+00 WtEn= 0.00D+00
 Coeff-Com:  0.515D-05-0.851D-05-0.319D-04-0.807D-04-0.299D-03-0.515D-03
 Coeff-Com:  0.112D-02 0.248D-02 0.876D-02 0.189D-02-0.306D-01-0.731D-01
 Coeff-Com:  0.285D-01 0.297D+00 0.765D+00
 Coeff:      0.515D-05-0.851D-05-0.319D-04-0.807D-04-0.299D-03-0.515D-03
 Coeff:      0.112D-02 0.248D-02 0.876D-02 0.189D-02-0.306D-01-0.731D-01
 Coeff:      0.285D-01 0.297D+00 0.765D+00
 Gap=     0.123 Goal=   None    Shift=    0.000
 RMSDP=4.06D-08 MaxDP=2.67D-06 DE=-4.00D-09 OVMax= 2.68D-05

 Cycle  16  Pass 1  IDiag  1:
 RMSU=  1.86D-08    CP:  9.64D-01  1.50D+00  6.88D-01  6.28D-01  8.88D-01
                    CP:  9.29D-01  1.15D+00  1.34D+00  1.76D+00  2.23D+00
                    CP:  2.01D+00  1.99D+00  1.40D+00  1.24D+00  1.15D+00
 E= -4069.81178814240     Delta-E=       -0.000000000888 Rises=F Damp=F
 DIIS: error= 1.67D-07 at cycle  16 NSaved=  16.
 NSaved=16 IEnMin=16 EnMin= -4069.81178814240     IErMin=16 ErrMin= 1.67D-07
 ErrMax= 1.67D-07  0.00D+00 EMaxC= 1.00D-01 BMatC= 8.13D-11 BMatP= 2.25D-10
 IDIUse=1 WtCom= 1.00D+00 WtEn= 0.00D+00
 Coeff-Com: -0.142D-04 0.288D-04 0.471D-04 0.539D-04-0.262D-04-0.633D-03
 Coeff-Com: -0.199D-02-0.426D-02 0.456D-02 0.256D-01 0.206D-01-0.647D-01
 Coeff-Com: -0.833D-01-0.372D-01 0.398D+00 0.744D+00
 Coeff:     -0.142D-04 0.288D-04 0.471D-04 0.539D-04-0.262D-04-0.633D-03
 Coeff:     -0.199D-02-0.426D-02 0.456D-02 0.256D-01 0.206D-01-0.647D-01
 Coeff:     -0.833D-01-0.372D-01 0.398D+00 0.744D+00
 Gap=     0.123 Goal=   None    Shift=    0.000
 RMSDP=2.29D-08 MaxDP=1.59D-06 DE=-8.88D-10 OVMax= 1.31D-05

 Cycle  17  Pass 1  IDiag  1:
 RMSU=  1.04D-08    CP:  9.64D-01  1.50D+00  6.88D-01  6.28D-01  8.88D-01
                    CP:  9.29D-01  1.15D+00  1.34D+00  1.77D+00  2.24D+00
                    CP:  2.02D+00  2.01D+00  1.45D+00  1.34D+00  1.44D+00
                    CP:  1.25D+00
 E= -4069.81178814264     Delta-E=       -0.000000000235 Rises=F Damp=F
 DIIS: error= 9.63D-08 at cycle  17 NSaved=  17.
 NSaved=17 IEnMin=17 EnMin= -4069.81178814264     IErMin=17 ErrMin= 9.63D-08
 ErrMax= 9.63D-08  0.00D+00 EMaxC= 1.00D-01 BMatC= 1.78D-11 BMatP= 8.13D-11
 IDIUse=1 WtCom= 1.00D+00 WtEn= 0.00D+00
 Coeff-Com: -0.718D-05 0.140D-04 0.285D-04 0.425D-04 0.842D-04-0.122D-03
 Coeff-Com: -0.964D-03-0.280D-02 0.149D-03 0.920D-02 0.175D-01-0.723D-02
 Coeff-Com: -0.369D-01-0.102D+00-0.318D-01 0.295D+00 0.860D+00
 Coeff:     -0.718D-05 0.140D-04 0.285D-04 0.425D-04 0.842D-04-0.122D-03
 Coeff:     -0.964D-03-0.280D-02 0.149D-03 0.920D-02 0.175D-01-0.723D-02
 Coeff:     -0.369D-01-0.102D+00-0.318D-01 0.295D+00 0.860D+00
 Gap=     0.123 Goal=   None    Shift=    0.000
 RMSDP=1.38D-08 MaxDP=1.06D-06 DE=-2.35D-10 OVMax= 8.84D-06

 Cycle  18  Pass 1  IDiag  1:
 RMSU=  4.86D-09    CP:  9.64D-01  1.50D+00  6.88D-01  6.28D-01  8.88D-01
                    CP:  9.29D-01  1.15D+00  1.34D+00  1.77D+00  2.24D+00
                    CP:  2.02D+00  2.02D+00  1.47D+00  1.41D+00  1.62D+00
                    CP:  1.66D+00  1.39D+00
 E= -4069.81178814297     Delta-E=       -0.000000000335 Rises=F Damp=F
 DIIS: error= 5.05D-08 at cycle  18 NSaved=  18.
 NSaved=18 IEnMin=18 EnMin= -4069.81178814297     IErMin=18 ErrMin= 5.05D-08
 ErrMax= 5.05D-08  0.00D+00 EMaxC= 1.00D-01 BMatC= 6.87D-12 BMatP= 1.78D-11
 IDIUse=1 WtCom= 1.00D+00 WtEn= 0.00D+00
 Coeff-Com:  0.208D-05-0.446D-05-0.468D-05-0.186D-05 0.590D-04 0.184D-03
 Coeff-Com:  0.409D-03 0.233D-03-0.129D-02-0.623D-02-0.158D-03 0.203D-01
 Coeff-Com:  0.186D-01-0.324D-01-0.163D+00-0.192D+00 0.347D+00 0.101D+01
 Coeff:      0.208D-05-0.446D-05-0.468D-05-0.186D-05 0.590D-04 0.184D-03
 Coeff:      0.409D-03 0.233D-03-0.129D-02-0.623D-02-0.158D-03 0.203D-01
 Coeff:      0.186D-01-0.324D-01-0.163D+00-0.192D+00 0.347D+00 0.101D+01
 Gap=     0.123 Goal=   None    Shift=    0.000
 RMSDP=1.18D-08 MaxDP=7.94D-07 DE=-3.35D-10 OVMax= 6.89D-06

 Cycle  19  Pass 1  IDiag  1:
 RMSU=  2.78D-09    CP:  9.64D-01  1.50D+00  6.88D-01  6.28D-01  8.88D-01
                    CP:  9.29D-01  1.15D+00  1.34D+00  1.77D+00  2.24D+00
                    CP:  2.03D+00  2.02D+00  1.48D+00  1.46D+00  1.77D+00
                    CP:  1.99D+00  1.94D+00  1.38D+00
 E= -4069.81178814293     Delta-E=        0.000000000044 Rises=F Damp=F
 DIIS: error= 3.63D-08 at cycle  19 NSaved=  19.
 NSaved=19 IEnMin=18 EnMin= -4069.81178814297     IErMin=19 ErrMin= 3.63D-08
 ErrMax= 3.63D-08  0.00D+00 EMaxC= 1.00D-01 BMatC= 1.41D-12 BMatP= 6.87D-12
 IDIUse=1 WtCom= 1.00D+00 WtEn= 0.00D+00
 Coeff-Com:  0.287D-05-0.579D-05-0.985D-05-0.123D-04 0.107D-04 0.118D-03
 Coeff-Com:  0.475D-03 0.792D-03-0.595D-03-0.592D-02-0.480D-02 0.120D-01
 Coeff-Com:  0.200D-01 0.114D-01-0.684D-01-0.177D+00-0.347D-01 0.490D+00
 Coeff-Com:  0.756D+00
 Coeff:      0.287D-05-0.579D-05-0.985D-05-0.123D-04 0.107D-04 0.118D-03
 Coeff:      0.475D-03 0.792D-03-0.595D-03-0.592D-02-0.480D-02 0.120D-01
 Coeff:      0.200D-01 0.114D-01-0.684D-01-0.177D+00-0.347D-01 0.490D+00
 Coeff:      0.756D+00
 Gap=     0.123 Goal=   None    Shift=    0.000
 RMSDP=4.53D-09 MaxDP=3.21D-07 DE= 4.37D-11 OVMax= 2.86D-06

 SCF Done:  E(RCAM-B3LYP) =  -4069.81178814     A.U. after   19 cycles
            NFock= 19  Conv=0.45D-08     -V/T= 2.0102
 KE= 4.028802019153D+03 PE=-3.409334977623D+04 EE= 1.368847482610D+04
 Leave Link  502 at Sat Sep  4 20:20:31 2021, MaxMem= 23488102400 cpu:           11298.8 elap:             494.6
 (Enter /sw/apps/gaussian-16.0/g16/l801.exe)
 DoSCS=F DFT=T ScalE2(SS,OS)=  1.000000  1.000000
 ExpMin= 3.36D-02 ExpMax= 4.95D+03 ExpMxC= 7.45D+02 IAcc=3 IRadAn=         5 AccDes= 0.00D+00
 HarFok:  IExCor=  205 AccDes= 0.00D+00 IRadAn=         5 IDoV=-2 UseB2=F ITyADJ=14
 ICtDFT= 12500011 ScaDFX=  1.000000  1.000000  1.000000  1.000000
 GSVD:  LWork=       -9588 too small for GESVD, short by       45590 words or       45590 for optimal perf.
 Largest valence mixing into a core orbital is  2.03D-04
 Largest core mixing into a valence orbital is  5.24D-05
 Range of M.O.s used for correlation:    95  1572
 NBasis=  1572 NAE=   312 NBE=   312 NFC=    94 NFV=     0
 NROrb=   1478 NOA=   218 NOB=   218 NVA=  1260 NVB=  1260
 Leave Link  801 at Sat Sep  4 20:20:32 2021, MaxMem= 23488102400 cpu:               9.0 elap:               0.4
 (Enter /sw/apps/gaussian-16.0/g16/l914.exe)
 RHF ground state
 Two-electron integrals replicated using symmetry.
 MDV= 23488102400 DFT=T DoStab=F Mixed=T DoRPA=T DoScal=F NonHer=T
 Making orbital integer symmetry assigments:
 Orbital symmetries:
       Occupied  (A) (A) (A) (A) (A) (A) (A) (A) (A) (A) (A) (A)
                 (A) (A) (A) (A) (A) (A) (A) (A) (A) (A) (A) (A)
                 (A) (A) (A) (A) (A) (A) (A) (A) (A) (A) (A) (A)
                 (A) (A) (A) (A) (A) (A) (A) (A) (A) (A) (A) (A)
                 (A) (A) (A) (A) (A) (A) (A) (A) (A) (A) (A) (A)
                 (A) (A) (A) (A) (A) (A) (A) (A) (A) (A) (A) (A)
                 (A) (A) (A) (A) (A) (A) (A) (A) (A) (A) (A) (A)
                 (A) (A) (A) (A) (A) (A) (A) (A) (A) (A) (A) (A)
                 (A) (A) (A) (A) (A) (A) (A) (A) (A) (A) (A) (A)
                 (A) (A) (A) (A) (A) (A) (A) (A) (A) (A) (A) (A)
                 (A) (A) (A) (A) (A) (A) (A) (A) (A) (A) (A) (A)
                 (A) (A) (A) (A) (A) (A) (A) (A) (A) (A) (A) (A)
                 (A) (A) (A) (A) (A) (A) (A) (A) (A) (A) (A) (A)
                 (A) (A) (A) (A) (A) (A) (A) (A) (A) (A) (A) (A)
                 (A) (A) (A) (A) (A) (A) (A) (A) (A) (A) (A) (A)
                 (A) (A) (A) (A) (A) (A) (A) (A) (A) (A) (A) (A)
                 (A) (A) (A) (A) (A) (A) (A) (A) (A) (A) (A) (A)
                 (A) (A) (A) (A) (A) (A) (A) (A) (A) (A) (A) (A)
                 (A) (A) (A) (A) (A) (A) (A) (A) (A) (A) (A) (A)
                 (A) (A) (A) (A) (A) (A) (A) (A) (A) (A) (A) (A)
                 (A) (A) (A) (A) (A) (A) (A) (A) (A) (A) (A) (A)
                 (A) (A) (A) (A) (A) (A) (A) (A) (A) (A) (A) (A)
                 (A) (A) (A) (A) (A) (A) (A) (A) (A) (A) (A) (A)
                 (A) (A) (A) (A) (A) (A) (A) (A) (A) (A) (A) (A)
                 (A) (A) (A) (A) (A) (A) (A) (A) (A) (A) (A) (A)
                 (A) (A) (A) (A) (A) (A) (A) (A) (A) (A) (A) (A)
       Virtual   (A) (A) (A) (A) (A) (A) (A) (A) (A) (A) (A) (A)
                 (A) (A) (A) (A) (A) (A) (A) (A) (A) (A) (A) (A)
                 (A) (A) (A) (A) (A) (A) (A) (A) (A) (A) (A) (A)
                 (A) (A) (A) (A) (A) (A) (A) (A) (A) (A) (A) (A)
                 (A) (A) (A) (A) (A) (A) (A) (A) (A) (A) (A) (A)
                 (A) (A) (A) (A) (A) (A) (A) (A) (A) (A) (A) (A)
                 (A) (A) (A) (A) (A) (A) (A) (A) (A) (A) (A) (A)
                 (A) (A) (A) (A) (A) (A) (A) (A) (A) (A) (A) (A)
                 (A) (A) (A) (A) (A) (A) (A) (A) (A) (A) (A) (A)
                 (A) (A) (A) (A) (A) (A) (A) (A) (A) (A) (A) (A)
                 (A) (A) (A) (A) (A) (A) (A) (A) (A) (A) (A) (A)
                 (A) (A) (A) (A) (A) (A) (A) (A) (A) (A) (A) (A)
                 (A) (A) (A) (A) (A) (A) (A) (A) (A) (A) (A) (A)
                 (A) (A) (A) (A) (A) (A) (A) (A) (A) (A) (A) (A)
                 (A) (A) (A) (A) (A) (A) (A) (A) (A) (A) (A) (A)
                 (A) (A) (A) (A) (A) (A) (A) (A) (A) (A) (A) (A)
                 (A) (A) (A) (A) (A) (A) (A) (A) (A) (A) (A) (A)
                 (A) (A) (A) (A) (A) (A) (A) (A) (A) (A) (A) (A)
                 (A) (A) (A) (A) (A) (A) (A) (A) (A) (A) (A) (A)
                 (A) (A) (A) (A) (A) (A) (A) (A) (A) (A) (A) (A)
                 (A) (A) (A) (A) (A) (A) (A) (A) (A) (A) (A) (A)
                 (A) (A) (A) (A) (A) (A) (A) (A) (A) (A) (A) (A)
                 (A) (A) (A) (A) (A) (A) (A) (A) (A) (A) (A) (A)
                 (A) (A) (A) (A) (A) (A) (A) (A) (A) (A) (A) (A)
                 (A) (A) (A) (A) (A) (A) (A) (A) (A) (A) (A) (A)
                 (A) (A) (A) (A) (A) (A) (A) (A) (A) (A) (A) (A)
                 (A) (A) (A) (A) (A) (A) (A) (A) (A) (A) (A) (A)
                 (A) (A) (A) (A) (A) (A) (A) (A) (A) (A) (A) (A)
                 (A) (A) (A) (A) (A) (A) (A) (A) (A) (A) (A) (A)
                 (A) (A) (A) (A) (A) (A) (A) (A) (A) (A) (A) (A)
                 (A) (A) (A) (A) (A) (A) (A) (A) (A) (A) (A) (A)
                 (A) (A) (A) (A) (A) (A) (A) (A) (A) (A) (A) (A)
                 (A) (A) (A) (A) (A) (A) (A) (A) (A) (A) (A) (A)
                 (A) (A) (A) (A) (A) (A) (A) (A) (A) (A) (A) (A)
                 (A) (A) (A) (A) (A) (A) (A) (A) (A) (A) (A) (A)
                 (A) (A) (A) (A) (A) (A) (A) (A) (A) (A) (A) (A)
                 (A) (A) (A) (A) (A) (A) (A) (A) (A) (A) (A) (A)
                 (A) (A) (A) (A) (A) (A) (A) (A) (A) (A) (A) (A)
                 (A) (A) (A) (A) (A) (A) (A) (A) (A) (A) (A) (A)
                 (A) (A) (A) (A) (A) (A) (A) (A) (A) (A) (A) (A)
                 (A) (A) (A) (A) (A) (A) (A) (A) (A) (A) (A) (A)
                 (A) (A) (A) (A) (A) (A) (A) (A) (A) (A) (A) (A)
                 (A) (A) (A) (A) (A) (A) (A) (A) (A) (A) (A) (A)
                 (A) (A) (A) (A) (A) (A) (A) (A) (A) (A) (A) (A)
                 (A) (A) (A) (A) (A) (A) (A) (A) (A) (A) (A) (A)
                 (A) (A) (A) (A) (A) (A) (A) (A) (A) (A) (A) (A)
                 (A) (A) (A) (A) (A) (A) (A) (A) (A) (A) (A) (A)
                 (A) (A) (A) (A) (A) (A) (A) (A) (A) (A) (A) (A)
                 (A) (A) (A) (A) (A) (A) (A) (A) (A) (A) (A) (A)
                 (A) (A) (A) (A) (A) (A) (A) (A) (A) (A) (A) (A)
                 (A) (A) (A) (A) (A) (A) (A) (A) (A) (A) (A) (A)
                 (A) (A) (A) (A) (A) (A) (A) (A) (A) (A) (A) (A)
                 (A) (A) (A) (A) (A) (A) (A) (A) (A) (A) (A) (A)
                 (A) (A) (A) (A) (A) (A) (A) (A) (A) (A) (A) (A)
                 (A) (A) (A) (A) (A) (A) (A) (A) (A) (A) (A) (A)
                 (A) (A) (A) (A) (A) (A) (A) (A) (A) (A) (A) (A)
                 (A) (A) (A) (A) (A) (A) (A) (A) (A) (A) (A) (A)
                 (A) (A) (A) (A) (A) (A) (A) (A) (A) (A) (A) (A)
                 (A) (A) (A) (A) (A) (A) (A) (A) (A) (A) (A) (A)
                 (A) (A) (A) (A) (A) (A) (A) (A) (A) (A) (A) (A)
                 (A) (A) (A) (A) (A) (A) (A) (A) (A) (A) (A) (A)
                 (A) (A) (A) (A) (A) (A) (A) (A) (A) (A) (A) (A)
                 (A) (A) (A) (A) (A) (A) (A) (A) (A) (A) (A) (A)
                 (A) (A) (A) (A) (A) (A) (A) (A) (A) (A) (A) (A)
                 (A) (A) (A) (A) (A) (A) (A) (A) (A) (A) (A) (A)
                 (A) (A) (A) (A) (A) (A) (A) (A) (A) (A) (A) (A)
                 (A) (A) (A) (A) (A) (A) (A) (A) (A) (A) (A) (A)
                 (A) (A) (A) (A) (A) (A) (A) (A) (A) (A) (A) (A)
                 (A) (A) (A) (A) (A) (A) (A) (A) (A) (A) (A) (A)
                 (A) (A) (A) (A) (A) (A) (A) (A) (A) (A) (A) (A)
                 (A) (A) (A) (A) (A) (A) (A) (A) (A) (A) (A) (A)
                 (A) (A) (A) (A) (A) (A) (A) (A) (A) (A) (A) (A)
                 (A) (A) (A) (A) (A) (A) (A) (A) (A) (A) (A) (A)
                 (A) (A) (A) (A) (A) (A) (A) (A) (A) (A) (A) (A)
                 (A) (A) (A) (A) (A) (A) (A) (A) (A) (A) (A) (A)
                 (A) (A) (A) (A) (A) (A) (A) (A) (A) (A) (A) (A)
                 (A) (A) (A) (A) (A) (A) (A) (A) (A) (A) (A) (A)
                 (A) (A) (A) (A) (A) (A) (A) (A) (A) (A) (A) (A)
                 (A) (A) (A) (A) (A) (A) (A) (A) (A) (A) (A) (A)
                 (A) (A) (A) (A) (A) (A) (A) (A) (A) (A) (A) (A)
                 (A) (A) (A) (A) (A) (A) (A) (A) (A) (A) (A) (A)
                 (A) (A) (A) (A) (A) (A) (A) (A) (A) (A) (A) (A)
                 (A) (A) (A) (A) (A) (A) (A) (A) (A) (A) (A) (A)
                 (A) (A) (A) (A) (A) (A) (A) (A) (A) (A) (A) (A)
                 (A) (A) (A) (A) (A) (A) (A) (A) (A) (A) (A) (A)
                 (A) (A) (A) (A) (A) (A) (A) (A) (A) (A) (A) (A)
                 (A) (A) (A) (A) (A) (A) (A) (A) (A) (A) (A) (A)
                 (A) (A) (A) (A) (A) (A) (A) (A) (A) (A) (A) (A)
                 (A) (A) (A) (A) (A) (A) (A) (A) (A) (A) (A) (A)
                 (A) (A) (A) (A) (A) (A) (A) (A) (A) (A) (A) (A)
                 (A) (A) (A) (A) (A) (A) (A) (A) (A) (A) (A) (A)
                 (A) (A) (A) (A) (A) (A) (A) (A) (A) (A) (A) (A)
                 (A) (A) (A) (A) (A) (A) (A) (A) (A) (A) (A) (A)
                 (A) (A) (A) (A) (A) (A) (A) (A) (A) (A) (A) (A)
                 (A) (A) (A) (A) (A) (A) (A) (A) (A) (A) (A) (A)
                 (A) (A) (A) (A) (A) (A) (A) (A) (A) (A) (A) (A)
                 (A) (A) (A) (A) (A) (A) (A) (A) (A) (A) (A) (A)
                 (A) (A) (A) (A) (A) (A) (A) (A) (A) (A) (A) (A)
                 (A) (A) (A) (A) (A) (A) (A) (A) (A) (A) (A) (A)
                 (A) (A) (A) (A) (A) (A) (A) (A) (A) (A) (A) (A)
                 (A) (A) (A) (A) (A) (A) (A) (A) (A) (A) (A) (A)
                 (A) (A) (A) (A) (A) (A) (A) (A) (A) (A) (A) (A)
                 (A) (A) (A) (A) (A) (A) (A) (A) (A) (A) (A) (A)
                 (A) (A) (A) (A) (A) (A) (A) (A) (A) (A) (A) (A)
                 (A) (A) (A) (A) (A) (A) (A) (A) (A) (A) (A) (A)
    20 initial guesses have been made.
 Convergence on wavefunction:    0.001000000000000
 Davidson Disk Diagonalization:  ConvIn= 1.00D-03 SkipCon=T Conv= 1.00D-03.
 Max sub-space:  2000 roots to seek:    20 dimension of matrix:       549360
 Iteration     1 Dimension    20 NMult     0 NNew     20
 CISAX will form    20 AO SS matrices at one time.
 NMat=    20 NSing=    20 JSym2X= 0.
 FoFJK:  IHMeth= 1 ICntrl=       0 DoSepK=T KAlg= 0 I1Cent=           0 FoldK=F
 IRaf=         1 NMat=      40 IRICut=       1 DoRegI=T DoRafI=F ISym2E= 0 IDoP0=3 IntGTp=3.
 FoFCou: FMM=T IPFlag=           0 FMFlag=      100000 FMFlg1=        2001
         NFxFlg=           0 DoJE=F BraDBF=F KetDBF=F FulRan=T
         wScrn=  0.000000 ICntrl=       500 IOpCl=  0 I1Cent=           0 NGrid=           0
         NMat0=   20 NMatS0=     20 NMatT0=    0 NMatD0=   20 NMtDS0=    0 NMtDT0=    0
 Symmetry not used in FoFCou.
 FMM levels:  10  Number of levels for PrismC:   9
 New state      1 was old state      8
 New state      2 was old state      5
 New state      3 was old state      1
 New state      5 was old state      2
 Excitation Energies [eV] at current iteration:
 Root      1 :     2.614335533773794
 Root      2 :     2.619416324240790
 Root      3 :     2.680859973560647
 Root      4 :     2.689738467351032
 Root      5 :     3.066029774688088
 Root      6 :     3.067084856796318
 Root      7 :     3.628680636793913
 Root      8 :     3.669371597232834
 Root      9 :     3.735816747661754
 Root     10 :     3.759164164477872
 Root     11 :     3.860892632081779
 Root     12 :     3.869392369570849
 Root     13 :     4.304049338950685
 Root     14 :     4.305903299867741
 Root     15 :     4.978026919196670
 Root     16 :     5.000253429672535
 Root     17 :     5.272028502050031
 Root     18 :     5.294624512849624
 Root     19 :     5.304109251032802
 Root     20 :     5.328743546197754
 Iteration     2 Dimension    30 NMult    20 NNew     10
 CISAX will form    10 AO SS matrices at one time.
 NMat=    10 NSing=    10 JSym2X= 0.
 New state      1 was old state      3
 Root      1 not converged, maximum delta is    0.190834677661553
 New state      2 was old state      4
 Root      2 not converged, maximum delta is    0.192148788215728
 New state      3 was old state      2
 Root      3 not converged, maximum delta is    0.067414056391015
 New state      4 was old state      1
 Root      4 not converged, maximum delta is    0.089351510777201
 Root      5 has converged.
 Excitation Energies [eV] at current iteration:
 Root      1 :     1.801552285421144   Change is   -0.879307688139503
 Root      2 :     1.807197110973956   Change is   -0.882541356377076
 Root      3 :     2.235893859280540   Change is   -0.383522464960250
 Root      4 :     2.239082580123071   Change is   -0.375252953650723
 Root      5 :     3.066023560170359   Change is   -0.000006214517729
 Iteration     3 Dimension    38 NMult    30 NNew      8
 CISAX will form     8 AO SS matrices at one time.
 NMat=     8 NSing=     8 JSym2X= 0.
 Root      1 not converged, maximum delta is    0.072031334389442
 Root      2 not converged, maximum delta is    0.073229559532210
 Root      3 not converged, maximum delta is    0.044043963330515
 Root      4 not converged, maximum delta is    0.042469646942370
 Root      5 has converged.
 Excitation Energies [eV] at current iteration:
 Root      1 :     1.694312228451755   Change is   -0.107240056969389
 Root      2 :     1.698805915156869   Change is   -0.108391195817087
 Root      3 :     2.194372858844180   Change is   -0.041521000436360
 Root      4 :     2.200247190177900   Change is   -0.038835389945171
 Root      5 :     3.066023560170413   Change is    0.000000000000054
 Iteration     4 Dimension    46 NMult    38 NNew      8
 CISAX will form     8 AO SS matrices at one time.
 NMat=     8 NSing=     8 JSym2X= 0.
 Root      1 not converged, maximum delta is    0.013407317191588
 Root      2 not converged, maximum delta is    0.013683414243185
 Root      3 not converged, maximum delta is    0.009748688602305
 Root      4 not converged, maximum delta is    0.008879863472501
 Root      5 has converged.
 Excitation Energies [eV] at current iteration:
 Root      1 :     1.677606389249769   Change is   -0.016705839201986
 Root      2 :     1.681918481159344   Change is   -0.016887433997526
 Root      3 :     2.187063291290969   Change is   -0.007309567553211
 Root      4 :     2.193477552552385   Change is   -0.006769637625515
 Root      5 :     3.066023560170359   Change is   -0.000000000000054
 Iteration     5 Dimension    54 NMult    46 NNew      8
 CISAX will form     8 AO SS matrices at one time.
 NMat=     8 NSing=     8 JSym2X= 0.
 Root      1 not converged, maximum delta is    0.002226880237663
 Root      2 not converged, maximum delta is    0.002231694661524
 Root      3 not converged, maximum delta is    0.002504575119698
 Root      4 not converged, maximum delta is    0.002385465788524
 Root      5 has converged.
 Excitation Energies [eV] at current iteration:
 Root      1 :     1.675827107987747   Change is   -0.001779281262022
 Root      2 :     1.680146874825891   Change is   -0.001771606333452
 Root      3 :     2.186216016666026   Change is   -0.000847274624943
 Root      4 :     2.192702396657496   Change is   -0.000775155894889
 Root      5 :     3.066023560170359   Change is    0.000000000000000
 Iteration     6 Dimension    62 NMult    54 NNew      8
 CISAX will form     8 AO SS matrices at one time.
 NMat=     8 NSing=     8 JSym2X= 0.
 Root      1 not converged, maximum delta is    0.001400998560252
 Root      2 not converged, maximum delta is    0.001424547524518
 Root      3 not converged, maximum delta is    0.001071134101925
 Root      4 not converged, maximum delta is    0.001013222206011
 Root      5 has converged.
 Excitation Energies [eV] at current iteration:
 Root      1 :     1.675573419937504   Change is   -0.000253688050243
 Root      2 :     1.679892003980462   Change is   -0.000254870845430
 Root      3 :     2.186087565146462   Change is   -0.000128451519564
 Root      4 :     2.192584737290910   Change is   -0.000117659366586
 Root      5 :     3.066023560170413   Change is    0.000000000000054
 Iteration     7 Dimension    70 NMult    62 NNew      8
 CISAX will form     8 AO SS matrices at one time.
 NMat=     8 NSing=     8 JSym2X= 0.
 Root      1 has converged.
 Root      2 has converged.
 Root      3 has converged.
 Root      4 has converged.
 Root      5 has converged.
 Excitation Energies [eV] at current iteration:
 Root      1 :     1.675549257019298   Change is   -0.000024162918206
 Root      2 :     1.679868359178110   Change is   -0.000023644802352
[...]
 Alpha virt. eigenvalues --    1.83477   1.83796   1.83846   1.84061   1.84161
 Alpha virt. eigenvalues --    1.84480   1.84487   1.84743   1.84848   1.85079
 Alpha virt. eigenvalues --    1.85139   1.85302   1.85311   1.85443   1.85523
 Alpha virt. eigenvalues --    1.85856   1.85904   1.86337   1.86398   1.86594
 Alpha virt. eigenvalues --    1.86607   1.86778   1.86820   1.86998   1.87074
 Alpha virt. eigenvalues --    1.87438   1.87482   1.87716   1.87727   1.87905
 Alpha virt. eigenvalues --    1.87967   1.88077   1.88133   1.88529   1.88573
 Alpha virt. eigenvalues --    1.88859   1.88894   1.89027   1.89163   1.89614
 Alpha virt. eigenvalues --    1.89664   1.89784   1.89831   1.90144   1.90155
 Alpha virt. eigenvalues --    1.90788   1.90849   1.91379   1.91385   1.91477
 Alpha virt. eigenvalues --    1.91547   1.92138   1.92190   1.92616   1.92660
 Alpha virt. eigenvalues --    1.93019   1.93104   1.93375   1.93454   1.94261
 Alpha virt. eigenvalues --    1.94320   1.94726   1.94768   1.95513   1.95543
 Alpha virt. eigenvalues --    1.95763   1.95768   1.96002   1.96030   1.96127
 Alpha virt. eigenvalues --    1.96190   1.96435   1.96631   1.96890   1.96936
 Alpha virt. eigenvalues --    1.97486   1.97495   1.97755   1.97872   1.98121
 Alpha virt. eigenvalues --    1.98205   1.98304   1.98708   1.99024   1.99171
 Alpha virt. eigenvalues --    1.99856   1.99886   2.00678   2.00697   2.01032
 Alpha virt. eigenvalues --    2.01049   2.01458   2.01514   2.01561   2.01710
 Alpha virt. eigenvalues --    2.01754   2.01778   2.02663   2.02822   2.03092
 Alpha virt. eigenvalues --    2.03272   2.03332   2.03439   2.03473   2.03519
 Alpha virt. eigenvalues --    2.03978   2.04071   2.04928   2.04996   2.05551
 Alpha virt. eigenvalues --    2.05581   2.06116   2.06238   2.06936   2.06986
 Alpha virt. eigenvalues --    2.07219   2.07298   2.08503   2.08624   2.08957
 Alpha virt. eigenvalues --    2.09017   2.09564   2.09624   2.10816   2.10983
 Alpha virt. eigenvalues --    2.11219   2.11358   2.11485   2.11573   2.11763
 Alpha virt. eigenvalues --    2.11817   2.12418   2.12500   2.12751   2.12821
 Alpha virt. eigenvalues --    2.12841   2.12870   2.13584   2.13800   2.14174
 Alpha virt. eigenvalues --    2.14201   2.15356   2.15372   2.15960   2.16032
 Alpha virt. eigenvalues --    2.16542   2.16559   2.16789   2.17122   2.17452
 Alpha virt. eigenvalues --    2.17597   2.17740   2.17884   2.17952   2.18106
 Alpha virt. eigenvalues --    2.18358   2.18624   2.18901   2.19186   2.19675
 Alpha virt. eigenvalues --    2.19770   2.20073   2.20192   2.20246   2.20389
 Alpha virt. eigenvalues --    2.21120   2.21188   2.21705   2.21713   2.21778
 Alpha virt. eigenvalues --    2.21825   2.22651   2.22715   2.23289   2.23349
 Alpha virt. eigenvalues --    2.24366   2.24430   2.24952   2.24996   2.26332
 Alpha virt. eigenvalues --    2.26389   2.26814   2.26957   2.27135   2.27152
 Alpha virt. eigenvalues --    2.28171   2.28264   2.29303   2.29385   2.29769
 Alpha virt. eigenvalues --    2.29827   2.30488   2.30571   2.30776   2.31116
 Alpha virt. eigenvalues --    2.31147   2.31212   2.32156   2.32186   2.33168
 Alpha virt. eigenvalues --    2.33183   2.33430   2.33495   2.34087   2.34174
 Alpha virt. eigenvalues --    2.35247   2.35402   2.35830   2.35858   2.36280
 Alpha virt. eigenvalues --    2.36388   2.36393   2.36658   2.37622   2.37694
 Alpha virt. eigenvalues --    2.38293   2.38327   2.38731   2.38889   2.39614
 Alpha virt. eigenvalues --    2.39644   2.40211   2.40216   2.40518   2.40776
 Alpha virt. eigenvalues --    2.41160   2.41300   2.41638   2.41721   2.42070
 Alpha virt. eigenvalues --    2.42074   2.42765   2.42979   2.43018   2.43561
 Alpha virt. eigenvalues --    2.43921   2.44201   2.44749   2.44764   2.44933
 Alpha virt. eigenvalues --    2.44936   2.45514   2.45580   2.46228   2.46335
 Alpha virt. eigenvalues --    2.46438   2.46510   2.46742   2.46831   2.47286
 Alpha virt. eigenvalues --    2.47319   2.47746   2.47827   2.49333   2.49344
 Alpha virt. eigenvalues --    2.49832   2.50103   2.50396   2.50583   2.51151
 Alpha virt. eigenvalues --    2.51208   2.51551   2.51917   2.52339   2.52470
 Alpha virt. eigenvalues --    2.52840   2.53104   2.53908   2.53951   2.54184
 Alpha virt. eigenvalues --    2.54221   2.54744   2.54820   2.55552   2.55604
 Alpha virt. eigenvalues --    2.57897   2.58015   2.58676   2.58840   2.60236
 Alpha virt. eigenvalues --    2.60238   2.60643   2.60861   2.61743   2.61756
 Alpha virt. eigenvalues --    2.62367   2.62564   2.62987   2.63061   2.63967
 Alpha virt. eigenvalues --    2.64155   2.64278   2.64358   2.65032   2.65111
 Alpha virt. eigenvalues --    2.65796   2.65817   2.66752   2.66810   2.66941
 Alpha virt. eigenvalues --    2.66990   2.67913   2.67940   2.68751   2.68888
 Alpha virt. eigenvalues --    2.68965   2.69053   2.69422   2.69525   2.70029
 Alpha virt. eigenvalues --    2.70068   2.70999   2.71010   2.71825   2.72083
 Alpha virt. eigenvalues --    2.72424   2.72667   2.72682   2.72854   2.73215
 Alpha virt. eigenvalues --    2.73308   2.73400   2.73558   2.74436   2.74541
 Alpha virt. eigenvalues --    2.74984   2.75005   2.76448   2.76622   2.76993
 Alpha virt. eigenvalues --    2.77261   2.77487   2.77533   2.78222   2.78222
 Alpha virt. eigenvalues --    2.78616   2.78759   2.79083   2.79164   2.80191
 Alpha virt. eigenvalues --    2.80376   2.80617   2.80617   2.81076   2.81144
 Alpha virt. eigenvalues --    2.81916   2.81963   2.82259   2.82372   2.83772
 Alpha virt. eigenvalues --    2.83780   2.83798   2.83830   2.84450   2.84575
 Alpha virt. eigenvalues --    2.84807   2.84914   2.85616   2.85699   2.86583
 Alpha virt. eigenvalues --    2.87025   2.87100   2.87633   2.88161   2.88186
 Alpha virt. eigenvalues --    2.88538   2.88539   2.88794   2.88964   2.90526
 Alpha virt. eigenvalues --    2.90582   2.90990   2.91219   2.93184   2.93244
 Alpha virt. eigenvalues --    2.93692   2.94230   2.94493   2.94589   2.95395
 Alpha virt. eigenvalues --    2.95397   2.95766   2.96228   2.96295   2.96471
 Alpha virt. eigenvalues --    2.96796   2.97203   2.97844   2.97953   2.98238
 Alpha virt. eigenvalues --    2.98281   2.98395   2.98495   2.98630   2.98700
 Alpha virt. eigenvalues --    2.98842   2.98913   2.99618   2.99720   2.99940
 Alpha virt. eigenvalues --    3.00059   3.00249   3.00258   3.00490   3.00914
 Alpha virt. eigenvalues --    3.01821   3.02020   3.02038   3.02063   3.02745
 Alpha virt. eigenvalues --    3.02760   3.03006   3.03237   3.03359   3.03631
 Alpha virt. eigenvalues --    3.03973   3.04201   3.04351   3.04479   3.04578
 Alpha virt. eigenvalues --    3.04646   3.05271   3.05328   3.06083   3.06144
 Alpha virt. eigenvalues --    3.06833   3.06856   3.07841   3.08177   3.09275
 Alpha virt. eigenvalues --    3.09431   3.09723   3.10356   3.10472   3.10659
 Alpha virt. eigenvalues --    3.11363   3.11397   3.11815   3.11972   3.12209
 Alpha virt. eigenvalues --    3.12225   3.13312   3.13570   3.13606   3.13673
 Alpha virt. eigenvalues --    3.14119   3.14396   3.15904   3.15954   3.17294
 Alpha virt. eigenvalues --    3.17437   3.17797   3.18112   3.18950   3.19160
 Alpha virt. eigenvalues --    3.22332   3.22518   3.23978   3.24356   3.24704
 Alpha virt. eigenvalues --    3.25111   3.26536   3.26574   3.27312   3.27653
 Alpha virt. eigenvalues --    3.29128   3.29144   3.31296   3.31557   3.33102
 Alpha virt. eigenvalues --    3.33451   3.40183   3.40657   3.42736   3.42851
 Alpha virt. eigenvalues --    3.48614   3.48691   3.50055   3.50199   3.50754
 Alpha virt. eigenvalues --    3.51508   3.56584   3.56922   3.59133   3.59256
 Alpha virt. eigenvalues --    3.62432   3.62870   3.66033   3.66221   3.67214
 Alpha virt. eigenvalues --    3.67465   3.73300   3.73941   3.76086   3.76599
          Condensed to atoms (all electrons):
 Mulliken charges:
               1
     1  Mg   0.838689
     2  C   -0.002974
     3  C   -0.094121
     4  C   -0.045860
     5  C   -0.063945
     6  N   -0.256778
     7  C   -0.052475
     8  C   -0.014035
     9  C   -0.086979
    10  C    0.046311
    11  C    0.104808
    12  C    0.053470
    13  C   -0.071783
    14  H    0.036066
    15  N   -0.433134
    16  C    0.168420
    17  C   -0.177142
    18  C   -0.003990
    19  C    0.148725
    20  C    0.110173
    21  C    0.012298
    22  O   -0.249596
    23  C    0.062471
    24  N   -0.341114
    25  C    0.041246
    26  C   -0.028202
    27  C   -0.023942
    28  C    0.074819
    29  C    0.076166
    30  C    0.035109
    31  C   -0.004499
    32  N   -0.310454
    33  C    0.080408
    34  C   -0.169722
    35  C    0.008342
    36  C    0.082978
    37  C    0.127315
    38  C    0.046107
    39  O   -0.188484
    40  C   -0.005327
    41  C    0.212863
    42  O   -0.257124
    43  O   -0.304788
    44  C    0.157714
    45  H   -0.017599
    46  H   -0.016813
    47  H   -0.041481
    48  H    0.000925
    49  H   -0.004037
    50  H    0.025469
    51  H    0.016462
    52  H    0.016658
    53  H    0.011214
    54  H    0.044102
    55  H    0.017870
    56  H    0.017959
    57  H    0.005871
    58  H    0.026843
    59  H    0.039568
    60  H    0.037349
    61  H    0.035681
    62  H    0.031506
    63  H    0.016579
    64  H    0.009466
    65  H    0.023239
    66  H    0.012543
    67  H    0.004762
    68  H    0.006396
    69  H    0.004734
    70  H    0.008797
    71  H    0.018161
    72  H    0.028957
    73  H    0.047546
    74  H    0.009127
    75  H    0.046005
    76  H    0.035145
    77  H    0.042918
    78  H    0.046398
    79  H    0.053649
    80  Mg   0.837836
    81  C   -0.016805
    82  C   -0.087750
    83  C   -0.045498
    84  C   -0.064888
    85  N   -0.254547
    86  C   -0.049833
    87  C   -0.015109
    88  C   -0.090513
    89  C    0.045731
    90  C    0.114368
    91  C    0.062518
    92  C   -0.077918
    93  H    0.034915
    94  N   -0.423505
    95  C    0.162918
    96  C   -0.174604
    97  C   -0.007813
    98  C    0.152104
    99  C    0.099356
   100  C    0.015554
   101  O   -0.253199
   102  C    0.061193
   103  N   -0.350061
   104  C    0.037533
   105  C   -0.019841
   106  C   -0.034813
   107  C    0.088910
   108  C    0.073661
   109  C    0.034740
   110  C   -0.007679
   111  N   -0.324098
   112  C    0.078452
   113  C   -0.163141
   114  C    0.002267
   115  C    0.096186
   116  C    0.131491
   117  C    0.042393
   118  O   -0.187848
   119  C    0.000930
   120  C    0.211242
   121  O   -0.251024
   122  O   -0.305604
   123  C    0.152015
   124  H   -0.019605
   125  H   -0.015596
   126  H   -0.040465
   127  H   -0.000589
   128  H   -0.004295
   129  H    0.022502
   130  H    0.014425
   131  H    0.016373
   132  H    0.013904
   133  H    0.037664
   134  H    0.020846
   135  H    0.019610
   136  H    0.008804
   137  H    0.026156
   138  H    0.039794
   139  H    0.038265
   140  H    0.036373
   141  H    0.033905
   142  H    0.014382
   143  H    0.012426
   144  H    0.025107
   145  H    0.011658
   146  H    0.005677
   147  H    0.006242
   148  H    0.003647
   149  H    0.010922
   150  H    0.017923
   151  H    0.030120
   152  H    0.046006
   153  H    0.008491
   154  H    0.046979
   155  H    0.035091
   156  H    0.043948
   157  H    0.049522
   158  H    0.053566
 Sum of Mulliken charges =  -0.00000
 Mulliken charges with hydrogens summed into heavy atoms:
               1
     1  Mg   0.838689
     2  C   -0.002974
     3  C   -0.111721
     4  C   -0.062673
     5  C   -0.105426
     6  N   -0.256778
     7  C   -0.052475
     8  C   -0.013110
     9  C   -0.091016
    10  C    0.046311
    11  C    0.163397
    12  C    0.108786
    13  C    0.000113
    15  N   -0.433134
    16  C    0.168420
    17  C   -0.177142
    18  C   -0.003990
    19  C    0.148725
    20  C    0.182455
    21  C    0.012298
    22  O   -0.249596
    23  C    0.167008
    24  N   -0.341114
    25  C    0.041246
    26  C   -0.011624
    27  C   -0.014476
    28  C    0.074819
    29  C    0.116710
    30  C    0.046239
    31  C    0.051417
    32  N   -0.310454
    33  C    0.080408
    34  C   -0.169722
    35  C    0.008342
    36  C    0.082978
    37  C    0.229993
    38  C    0.046107
    39  O   -0.188484
    40  C    0.029817
    41  C    0.212863
    42  O   -0.257124
    43  O   -0.304788
    44  C    0.300678
    80  Mg   0.837836
    81  C   -0.016805
    82  C   -0.107355
    83  C   -0.061094
    84  C   -0.105354
    85  N   -0.254547
    86  C   -0.049833
    87  C   -0.015698
    88  C   -0.094808
    89  C    0.045731
    90  C    0.167669
    91  C    0.114086
    92  C   -0.002547
    94  N   -0.423505
    95  C    0.162918
    96  C   -0.174604
    97  C   -0.007813
    98  C    0.152104
    99  C    0.174110
   100  C    0.015554
   101  O   -0.253199
   102  C    0.169736
   103  N   -0.350061
   104  C    0.037533
   105  C   -0.005459
   106  C   -0.022387
   107  C    0.088910
   108  C    0.116104
   109  C    0.044628
   110  C    0.051287
   111  N   -0.324098
   112  C    0.078452
   113  C   -0.163141
   114  C    0.002267
   115  C    0.096186
   116  C    0.232967
   117  C    0.042393
   118  O   -0.187848
   119  C    0.036021
   120  C    0.211242
   121  O   -0.251024
   122  O   -0.305604
   123  C    0.299051
 Electronic spatial extent (au):  <R**2>=         614512.4097
 Charge=             -0.0000 electrons
 Dipole moment (field-independent basis, Debye):
    X=             -4.1988    Y=              1.9934    Z=              6.0473  Tot=              7.6271
 Quadrupole moment (field-independent basis, Debye-Ang):
   XX=           -516.9535   YY=           -515.0074   ZZ=           -483.9618
   XY=            -70.3384   XZ=             20.7729   YZ=            -14.7344
 Traceless Quadrupole moment (field-independent basis, Debye-Ang):
   XX=            -11.6459   YY=             -9.6998   ZZ=             21.3458
   XY=            -70.3384   XZ=             20.7729   YZ=            -14.7344
 Octapole moment (field-independent basis, Debye-Ang**2):
  XXX=          -3196.8784  YYY=            -22.3421  ZZZ=            216.5774  XYY=            746.5146
  XXY=            529.4411  XXZ=           1700.6219  XZZ=           -743.8700  YZZ=           -131.4791
  YYZ=             15.8345  XYZ=           -783.7431
 Hexadecapole moment (field-independent basis, Debye-Ang**3):
 XXXX=        -787427.5049 YYYY=         -35896.5888 ZZZZ=         -30101.8176 XXXY=         -15590.3521
 XXXZ=           4821.1359 YYYX=          -4571.1100 YYYZ=            527.5559 ZZZX=           2823.1056
 ZZZY=          -1011.9863 XXYY=        -135829.3264 XXZZ=        -128366.4382 YYZZ=         -11177.0118
 XXYZ=          -3325.2079 YYXZ=          -4659.1097 ZZXY=           1126.0630
 N-N= 1.230626114283D+04 E-N=-3.409334976786D+04  KE= 4.028802019153D+03
 Leave Link  601 at Sat Sep  4 20:38:19 2021, MaxMem= 23488102400 cpu:              14.9 elap:               0.7
 (Enter /sw/apps/gaussian-16.0/g16/l9999.exe)
 1\1\GINC-BP1-COMPUTE00098\SP\RCAM-B3LYP TD-FC\def2SVP\C68H72Mg2N8O8\OF
 15641\04-Sep-2021\0\\#p cam-b3lyp/Def2SVP td=(nstates=5)\\TDDFT excite
 d states in gaussian\\0,1\Mg,0,0.,0.,0.\C,0,-0.217,-2.218,2.801\C,0,-1
 .255,2.442,2.026\C,0,-0.245,1.85,-2.564\C,0,0.146,-2.824,-2.037\N,0,-0
 .617,-0.009,2.126\C,0,-0.594,-0.908,3.105\C,0,-0.936,-0.309,4.502\C,0,
 -1.773,0.964,4.032\C,0,-1.155,1.168,2.66\C,0,-3.263,0.685,3.863\C,0,0.
 345,0.11,5.299\C,0,0.124,0.397,6.787\H,0,1.168,0.033,7.733\N,0,-0.185,
 1.961,-0.152\C,0,-0.703,2.8,0.777\C,0,-0.62,4.156,0.193\C,0,-0.187,4.0
 15,-1.225\C,0,-0.214,2.583,-1.38\C,0,-0.887,5.406,0.974\C,0,0.181,5.01
 3,-2.277\O,0,0.303,4.69,-3.508\C,0,0.31,6.414,-1.837\N,0,-0.265,-0.413
 ,-2.029\C,0,-0.279,0.569,-2.937\C,0,-0.196,0.024,-4.332\C,0,0.124,-1.5
 33,-4.18\C,0,0.086,-1.632,-2.635\C,0,-1.451,0.205,-5.197\C,0,1.373,-2.
 07,-4.923\C,0,2.626,-1.49,-4.306\N,0,0.15,-2.144,0.303\C,0,0.173,-3.13
 6,-0.688\C,0,0.173,-4.438,0.004\C,0,0.133,-4.111,1.358\C,0,0.083,-2.69
 5,1.502\C,0,0.149,-5.715,-0.623\C,0,0.096,-4.629,2.716\O,0,0.208,-5.74
 7,3.221\C,0,-0.255,-3.428,3.701\C,0,0.717,-3.482,4.848\O,0,1.931,-3.25
 5,4.669\O,0,0.038,-3.556,6.003\C,0,0.943,-3.583,7.183\H,0,-1.859,3.22,
 2.497\H,0,-0.218,2.453,-3.474\H,0,0.276,-3.747,-2.605\H,0,-1.554,-0.94
 9,5.132\H,0,-1.585,1.831,4.665\H,0,-3.484,-0.377,3.969\H,0,-3.511,1.02
 7,2.858\H,0,-3.852,1.301,4.543\H,0,0.669,1.096,4.966\H,0,1.13,-0.639,5
 .189\H,0,-0.844,0.026,7.125\H,0,0.062,1.477,6.921\H,0,-1.344,5.186,1.9
 38\H,0,-1.651,5.963,0.432\H,0,0.007,6.02,1.084\H,0,-0.635,6.744,-1.405
 \H,0,0.665,6.97,-2.704\H,0,1.048,6.466,-1.036\H,0,0.608,0.501,-4.891\H
 ,0,-0.692,-2.156,-4.547\H,0,-1.267,0.74,-6.129\H,0,-2.204,0.714,-4.596
 \H,0,-1.967,-0.72,-5.453\H,0,1.356,-1.759,-5.967\H,0,1.452,-3.157,-4.9
 02\H,0,2.714,-0.522,-4.798\H,0,3.487,-2.121,-4.529\H,0,2.495,-1.303,-3
 .24\H,0,0.867,-6.333,-0.084\H,0,0.404,-5.642,-1.68\H,0,-0.891,-5.999,-
 0.463\H,0,-1.283,-3.581,4.028\H,0,0.698,-4.478,7.755\H,0,0.833,-2.619,
 7.68\H,0,2.,-3.754,6.976\Mg,0,31.53974,2.83459,2.40189\C,0,31.73016,-0
 .51804,1.13592\C,0,30.55101,1.49501,5.37889\C,0,30.92893,5.78008,3.411
 07\C,0,31.42334,3.92856,-0.90498\N,0,31.21969,0.74429,3.05033\C,0,31.3
 8289,-0.44996,2.50128\C,0,31.23992,-1.63763,3.4905\C,0,30.32608,-0.919
 12,4.59842\C,0,30.74512,0.52988,4.35863\C,0,28.83696,-1.03805,4.3196\C
 ,0,32.61942,-2.0876,4.08759\C,0,32.59625,-3.43223,4.81778\H,0,33.77019
 ,-4.29565,4.72374\N,0,31.31997,3.54156,4.24321\C,0,30.9334,2.85385,5.3
 3815\C,0,30.90759,3.83028,6.43819\C,0,31.15092,5.18391,5.86968\C,0,31.
 12139,4.88372,4.45225\C,0,30.74789,3.43155,7.87656\C,0,31.36103,6.5284
 8,6.49752\O,0,31.31715,7.60793,5.80783\C,0,31.52673,6.55128,7.95818\N,
 0,31.00926,4.58318,1.41024\C,0,30.8546,5.73842,2.08064\C,0,30.74636,6.
 90892,1.13269\C,0,31.10441,6.32571,-0.31273\C,0,31.27827,4.83499,0.051
 84\C,0,29.38307,7.59815,1.07968\C,0,32.24497,7.03337,-1.0944\C,0,33.56
 663,6.80725,-0.39619\N,0,31.75407,1.92453,0.45409\C,0,31.64348,2.56099
 ,-0.8016\C,0,31.75189,1.50957,-1.83368\C,0,31.89611,0.32206,-1.10053\C
 ,0,31.85854,0.61046,0.29048\C,0,31.66414,1.71202,-3.23989\C,0,32.06092
 ,-1.11114,-1.18698\O,0,32.2448,-1.91067,-2.10387\C,0,31.83395,-1.73397
 ,0.25765\C,0,32.95461,-2.70011,0.52824\O,0,34.1254,-2.29537,0.63792\O,
 0,32.43526,-3.90473,0.82747\C,0,33.50764,-4.89437,1.11457\H,0,30.01749
 ,1.19571,6.28148\H,0,30.82446,6.8274,3.70379\H,0,31.49474,4.2001,-1.96
 037\H,0,30.7266,-2.50342,3.08965\H,0,30.60053,-1.23435,5.60175\H,0,28.
 64191,-1.48611,3.35662\H,0,28.44997,-0.028,4.35229\H,0,28.34292,-1.576
 58,5.13339\H,0,32.8815,-1.42494,4.92242\H,0,33.37685,-2.10181,3.32816\
 H,0,31.68286,-4.00099,4.60527\H,0,32.54981,-3.24251,5.8929\H,0,30.4237
 6,2.3878,7.97104\H,0,29.9113,4.01321,8.27863\H,0,31.63985,3.63718,8.47
 219\H,0,30.64958,6.11273,8.42802\H,0,31.75431,7.58884,8.2103\H,0,32.37
 769,5.91413,8.22373\H,0,31.46247,7.68049,1.38758\H,0,30.24695,6.3834,-
 0.99923\H,0,29.43147,8.67946,1.30881\H,0,28.71825,7.09304,1.76773\H,0,
 28.85324,7.50157,0.13356\H,0,32.08159,8.11379,-1.10723\H,0,32.32811,6.
 70797,-2.12599\H,0,33.57062,7.57814,0.38022\H,0,34.3942,6.9414,-1.0898
 6\H,0,33.58468,5.83319,0.10633\H,0,32.44786,1.11701,-3.68961\H,0,31.76
 553,2.7643,-3.49716\H,0,30.65383,1.33896,-3.42798\H,0,30.8609,-2.22664
 ,0.25281\H,0,33.34941,-5.74162,0.44017\H,0,33.44488,-5.09631,2.20041\H
 ,0,34.52568,-4.6157,0.86882\\Version=ES64L-G16RevA.03\State=1-A\HF=-40
 69.8117881\RMSD=4.533e-09\PG=C01 [X(C68H72Mg2N8O8)]\\@


 YOU CAN WIPE THE SLATE CLEAN, BUT YOU'LL STILL
 HAVE TO EAT A LITTLE CHALK DUST.
 Job cpu time:       0 days 10 hours 15 minutes 20.4 seconds.
 Elapsed time:       0 days  0 hours 26 minutes 13.2 seconds.
 File lengths (MBytes):  RWF=  13225 Int=      0 D2E=      0 Chk=    574 Scr=      1
 Normal termination of Gaussian 16 at Sat Sep  4 20:38:19 2021.
