 Entering Gaussian System, Link 0=g16
 Initial command:
 /sw/apps/gaussian-16.0/g16/l1.exe "/tmp/Gau-4050.inp" -scrdir="/tmp/"
 Entering Link 1 = /sw/apps/gaussian-16.0/g16/l1.exe PID=      4051.
  
 Copyright (c) 1988,1990,1992,1993,1995,1998,2003,2009,2016,
            Gaussian, Inc.  All Rights Reserved.
  
 This is part of the Gaussian(R) 16 program.  It is based on
 the Gaussian(R) 09 system (copyright 2009, Gaussian, Inc.),
 the Gaussian(R) 03 system (copyright 2003, Gaussian, Inc.),
 the Gaussian(R) 98 system (copyright 1998, Gaussian, Inc.),
 the Gaussian(R) 94 system (copyright 1995, Gaussian, Inc.),
 the Gaussian 92(TM) system (copyright 1992, Gaussian, Inc.),
 the Gaussian 90(TM) system (copyright 1990, Gaussian, Inc.),
 the Gaussian 88(TM) system (copyright 1988, Gaussian, Inc.),
 the Gaussian 86(TM) system (copyright 1986, Carnegie Mellon
 University), and the Gaussian 82(TM) system (copyright 1983,
 Carnegie Mellon University). Gaussian is a federally registered
 trademark of Gaussian, Inc.
  
 This software contains proprietary and confidential information,
 including trade secrets, belonging to Gaussian, Inc.
  
 This software is provided under written license and may be
 used, copied, transmitted, or stored only in accord with that
 written license.
  
 The following legend is applicable only to US Government
 contracts under FAR:
  
                    RESTRICTED RIGHTS LEGEND
  
 Use, reproduction and disclosure by the US Government is
 subject to restrictions as set forth in subparagraphs (a)
 and (c) of the Commercial Computer Software - Restricted
 Rights clause in FAR 52.227-19.
  
 Gaussian, Inc.
 340 Quinnipiac St., Bldg. 40, Wallingford CT 06492
  
  
 ---------------------------------------------------------------
 Warning -- This program may not be used in any manner that
 competes with the business of Gaussian, Inc. or will provide
 assistance to any competitor of Gaussian, Inc.  The licensee
 of this program is prohibited from giving any competitor of
 Gaussian, Inc. access to this program.  By using this program,
 the user acknowledges that Gaussian, Inc. is engaged in the
 business of creating and licensing software in the field of
 computational chemistry and represents and warrants to the
 licensee that it is not a competitor of Gaussian, Inc. and that
 it will not use this program in any manner prohibited above.
 ---------------------------------------------------------------
  

 Cite this work as:
 Gaussian 16, Revision A.03,
 M. J. Frisch, G. W. Trucks, H. B. Schlegel, G. E. Scuseria, 
 M. A. Robb, J. R. Cheeseman, G. Scalmani, V. Barone, 
 G. A. Petersson, H. Nakatsuji, X. Li, M. Caricato, A. V. Marenich, 
 J. Bloino, B. G. Janesko, R. Gomperts, B. Mennucci, H. P. Hratchian, 
 J. V. Ortiz, A. F. Izmaylov, J. L. Sonnenberg, D. Williams-Young, 
 F. Ding, F. Lipparini, F. Egidi, J. Goings, B. Peng, A. Petrone, 
 T. Henderson, D. Ranasinghe, V. G. Zakrzewski, J. Gao, N. Rega, 
 G. Zheng, W. Liang, M. Hada, M. Ehara, K. Toyota, R. Fukuda, 
 J. Hasegawa, M. Ishida, T. Nakajima, Y. Honda, O. Kitao, H. Nakai, 
 T. Vreven, K. Throssell, J. A. Montgomery, Jr., J. E. Peralta, 
 F. Ogliaro, M. J. Bearpark, J. J. Heyd, E. N. Brothers, K. N. Kudin, 
 V. N. Staroverov, T. A. Keith, R. Kobayashi, J. Normand, 
 K. Raghavachari, A. P. Rendell, J. C. Burant, S. S. Iyengar, 
 J. Tomasi, M. Cossi, J. M. Millam, M. Klene, C. Adamo, R. Cammi, 
 J. W. Ochterski, R. L. Martin, K. Morokuma, O. Farkas, 
 J. B. Foresman, and D. J. Fox, Gaussian, Inc., Wallingford CT, 2016.
 
 ******************************************
 Gaussian 16:  ES64L-G16RevA.03 25-Dec-2016
                11-Sep-2021 
 ******************************************
 %nproc=24
 Will use up to   24 processors via shared memory.
 %mem=175gb
 -----------------------------------
 #p cam-b3lyp/Def2SVP td=(nstates=5)
 -----------------------------------
 1/38=1,172=1/1;
 2/12=2,17=6,18=5,40=1/2;
 3/5=43,7=101,11=9,25=1,30=1,74=-40/1,2,3,8;
 4//1;
 5/5=2,38=5/2;
 8/6=1,10=1,108=5/1;
 9/41=5,42=1,70=2/14;
 6/7=2,8=2,9=2,10=2/1;
 99/5=1,9=1/99;
 Leave Link    1 at Sat Sep 11 06:53:41 2021, MaxMem= 23488102400 cpu:               1.0 elap:               0.0
 (Enter /sw/apps/gaussian-16.0/g16/l101.exe)
 --------------------------------
 TDDFT excited states in gaussian
 --------------------------------
 Symbolic Z-matrix:
 Charge =  0 Multiplicity = 1
 Mg                    0.        0.        0. 
 C                    -0.217    -2.218     2.801 
 C                    -1.255     2.442     2.026 
 C                    -0.245     1.85     -2.564 
 C                     0.146    -2.824    -2.037 
 N                    -0.617    -0.009     2.126 
 C                    -0.594    -0.908     3.105 
 C                    -0.936    -0.309     4.502 
 C                    -1.773     0.964     4.032 
 C                    -1.155     1.168     2.66 
 C                    -3.263     0.685     3.863 
 C                     0.345     0.11      5.299 
 C                     0.124     0.397     6.787 
 H                     1.168     0.033     7.733 
 N                    -0.185     1.961    -0.152 
 C                    -0.703     2.8       0.777 
 C                    -0.62      4.156     0.193 
 C                    -0.187     4.015    -1.225 
 C                    -0.214     2.583    -1.38 
 C                    -0.887     5.406     0.974 
 C                     0.181     5.013    -2.277 
 O                     0.303     4.69     -3.508 
 C                     0.31      6.414    -1.837 
 N                    -0.265    -0.413    -2.029 
 C                    -0.279     0.569    -2.937 
 C                    -0.196     0.024    -4.332 
 C                     0.124    -1.533    -4.18 
 C                     0.086    -1.632    -2.635 
 C                    -1.451     0.205    -5.197 
 C                     1.373    -2.07     -4.923 
 C                     2.626    -1.49     -4.306 
 N                     0.15     -2.144     0.303 
 C                     0.173    -3.136    -0.688 
 C                     0.173    -4.438     0.004 
 C                     0.133    -4.111     1.358 
 C                     0.083    -2.695     1.502 
 C                     0.149    -5.715    -0.623 
 C                     0.096    -4.629     2.716 
 O                     0.208    -5.747     3.221 
 C                    -0.255    -3.428     3.701 
 C                     0.717    -3.482     4.848 
 O                     1.931    -3.255     4.669 
 O                     0.038    -3.556     6.003 
 C                     0.943    -3.583     7.183 
 H                    -1.859     3.22      2.497 
 H                    -0.218     2.453    -3.474 
 H                     0.276    -3.747    -2.605 
 H                    -1.554    -0.949     5.132 
 H                    -1.585     1.831     4.665 
 H                    -3.484    -0.377     3.969 
 H                    -3.511     1.027     2.858 
 H                    -3.852     1.301     4.543 
 H                     0.669     1.096     4.966 
 H                     1.13     -0.639     5.189 
 H                    -0.844     0.026     7.125 
 H                     0.062     1.477     6.921 
 H                    -1.344     5.186     1.938 
 H                    -1.651     5.963     0.432 
 H                     0.007     6.02      1.084 
 H                    -0.635     6.744    -1.405 
 H                     0.665     6.97     -2.704 
 H                     1.048     6.466    -1.036 
 H                     0.608     0.501    -4.891 
 H                    -0.692    -2.156    -4.547 
 H                    -1.267     0.74     -6.129 
 H                    -2.204     0.714    -4.596 
 H                    -1.967    -0.72     -5.453 
 H                     1.356    -1.759    -5.967 
 H                     1.452    -3.157    -4.902 
 H                     2.714    -0.522    -4.798 
 H                     3.487    -2.121    -4.529 
 H                     2.495    -1.303    -3.24 
 H                     0.867    -6.333    -0.084 
 H                     0.404    -5.642    -1.68 
 H                    -0.891    -5.999    -0.463 
 H                    -1.283    -3.581     4.028 
 H                     0.698    -4.478     7.755 
 H                     0.833    -2.619     7.68 
 H                     2.       -3.754     6.976 
 Mg                    13.14502   1.18553   1.00602 
 C                     13.05567  -1.80278   2.99124 
 C                     11.90655   2.84467   3.71675 
 C                     12.78682   3.738    -0.84439 
 C                     13.2741  -0.85799  -1.8141 
 N                     12.59359   0.50017   3.03542 
 C                     12.66064  -0.64625   3.69539 
 C                     12.36029  -0.53263   5.21409 
 C                     11.47682   0.80807   5.18485 
 C                     12.04645   1.44864   3.92079 
 C                     9.99605   0.54832   4.96303 
 C                     13.66274  -0.34376   6.06848 
 C                     13.47672  -0.53489   7.57533 
 H                     14.56254  -1.14333   8.33905 
 N                     12.92015   3.09811   1.48564 
 C                     12.4226   3.59512   2.63747 
 C                     12.44785   5.05844   2.48834 
 C                     12.84696   5.38076   1.09137 
 C                     12.84659   4.05564   0.50471 
 C                     12.19019   5.99736   3.6309 
 C                     13.16265   6.66981   0.39504 
 O                     13.25414   6.74074  -0.88145 
 C                     13.26923   7.8649    1.24469 
 N                     12.83127   1.41347  -1.03652 
 C                     12.76384   2.63542  -1.59347 
 C                     12.81101   2.55137  -3.10049 
 C                     13.16921   1.02905  -3.43487 
 C                     13.17979   0.4511   -2.00265 
 C                     11.52581   2.94339  -3.82917 
 C                     14.40543   0.77978  -4.34168 
 C                     15.66828   1.18274  -3.61488 
 N                     13.34883  -0.93184   0.62753 
 C                     13.35367  -1.57724  -0.62846 
 C                     13.40033  -3.03113  -0.37068 
 C                     13.39613  -3.13225   1.02869 
 C                     13.32972  -1.83384   1.60247 
 C                     13.39124  -4.05248  -1.36208 
 C                     13.42205  -4.04256   2.1509 
 O                     13.56386  -5.2578    2.28058 
 C                     13.07513  -3.22767   3.47075 
 C                     14.08275  -3.59874   4.52408 
 O                     15.28225  -3.30186   4.38379 
 O                     13.43506  -4.04607   5.61531 
 C                     14.39169  -4.41627   6.69217 
 H                     11.30921   3.41568   4.42809 
 H                     12.77426   4.58918  -1.52909 
 H                     13.41556  -1.55807  -2.64026 
 H                     11.78101  -1.35076   5.62504 
 H                     11.67706   1.43204   6.05199 
 H                     9.79771  -0.49014   4.74301 
 H                     9.70966   1.17349   4.12746 
 H                     9.41801   0.90672   5.81962 
 H                     13.9542   0.71424   6.04785 
 H                     14.44582  -0.98687   5.7166 
 H                     12.5212  -1.01716   7.8148 
 H                     13.4048   0.44971   8.04375 
 H                     11.76096   5.47295   4.49355 
 H                     11.39921   6.68333   3.30893 
 H                     13.0727   6.57932   3.90508 
 H                     12.33439   8.01166   1.78041 
 H                     13.58753   8.6694    0.57885 
 H                     14.0414   7.68819   2.00175 
 H                     13.58865   3.19113  -3.49934 
 H                     12.35077   0.52611  -3.97065 
 H                     11.67122   3.75908  -4.56237 
 H                     10.78647   3.22333  -3.09056 
 H                     11.02863   2.13176  -4.35764 
 H                     14.3502   1.40364  -5.23717 
 H                     14.49863  -0.24954  -4.67153 
 H                     15.71625   2.26268  -3.7837 
 H                     16.53303   0.67787  -4.04074 
 H                     15.56925   1.02197  -2.53507 
 H                     14.13031  -4.78365  -1.06262 
 H                     13.6066  -3.64987  -2.34966 
 H                     12.35769  -4.39841  -1.27626 
 H                     12.05922  -3.49552   3.76361 
 H                     14.1786  -5.45423   6.96588 
 H                     14.26443  -3.65107   7.48086 
 H                     15.44156  -4.4778    6.43056 
 
 ITRead=  0  0  0  0  0  0  0  0  0  0  0  0  0  0  0  0  0  0  0  0
 ITRead=  0  0  0  0  0  0  0  0  0  0  0  0  0  0  0  0  0  0  0  0
 ITRead=  0  0  0  0  0  0  0  0  0  0  0  0  0  0  0  0  0  0  0  0
 ITRead=  0  0  0  0  0  0  0  0  0  0  0  0  0  0  0  0  0  0  0  0
 ITRead=  0  0  0  0  0  0  0  0  0  0  0  0  0  0  0  0  0  0  0  0
 ITRead=  0  0  0  0  0  0  0  0  0  0  0  0  0  0  0  0  0  0  0  0
 ITRead=  0  0  0  0  0  0  0  0  0  0  0  0  0  0  0  0  0  0  0  0
 ITRead=  0  0  0  0  0  0  0  0  0  0  0  0  0  0  0  0  0  0
 MicOpt= -1 -1 -1 -1 -1 -1 -1 -1 -1 -1 -1 -1 -1 -1 -1 -1 -1 -1 -1 -1
 MicOpt= -1 -1 -1 -1 -1 -1 -1 -1 -1 -1 -1 -1 -1 -1 -1 -1 -1 -1 -1 -1
 MicOpt= -1 -1 -1 -1 -1 -1 -1 -1 -1 -1 -1 -1 -1 -1 -1 -1 -1 -1 -1 -1
 MicOpt= -1 -1 -1 -1 -1 -1 -1 -1 -1 -1 -1 -1 -1 -1 -1 -1 -1 -1 -1 -1
 MicOpt= -1 -1 -1 -1 -1 -1 -1 -1 -1 -1 -1 -1 -1 -1 -1 -1 -1 -1 -1 -1
 MicOpt= -1 -1 -1 -1 -1 -1 -1 -1 -1 -1 -1 -1 -1 -1 -1 -1 -1 -1 -1 -1
 MicOpt= -1 -1 -1 -1 -1 -1 -1 -1 -1 -1 -1 -1 -1 -1 -1 -1 -1 -1 -1 -1
 MicOpt= -1 -1 -1 -1 -1 -1 -1 -1 -1 -1 -1 -1 -1 -1 -1 -1 -1 -1
 NAtoms=    158 NQM=      158 NQMF=       0 NMMI=      0 NMMIF=      0
                NMic=       0 NMicF=      0.
                    Isotopes and Nuclear Properties:
 (Nuclear quadrupole moments (NQMom) in fm**2, nuclear magnetic moments (NMagM)
  in nuclear magnetons)

  Atom         1           2           3           4           5           6           7           8           9          10
 IAtWgt=          24          12          12          12          12          14          12          12          12          12
 AtmWgt=  23.9850450  12.0000000  12.0000000  12.0000000  12.0000000  14.0030740  12.0000000  12.0000000  12.0000000  12.0000000
 NucSpn=           0           0           0           0           0           2           0           0           0           0
 AtZEff=  -0.0000000  -0.0000000  -0.0000000  -0.0000000  -0.0000000  -0.0000000  -0.0000000  -0.0000000  -0.0000000  -0.0000000
 NQMom=    0.0000000   0.0000000   0.0000000   0.0000000   0.0000000   2.0440000   0.0000000   0.0000000   0.0000000   0.0000000
 NMagM=    0.0000000   0.0000000   0.0000000   0.0000000   0.0000000   0.4037610   0.0000000   0.0000000   0.0000000   0.0000000
 AtZNuc=  12.0000000   6.0000000   6.0000000   6.0000000   6.0000000   7.0000000   6.0000000   6.0000000   6.0000000   6.0000000

  Atom        11          12          13          14          15          16          17          18          19          20
 IAtWgt=          12          12          12           1          14          12          12          12          12          12
 AtmWgt=  12.0000000  12.0000000  12.0000000   1.0078250  14.0030740  12.0000000  12.0000000  12.0000000  12.0000000  12.0000000
 NucSpn=           0           0           0           1           2           0           0           0           0           0
 AtZEff=  -0.0000000  -0.0000000  -0.0000000  -0.0000000  -0.0000000  -0.0000000  -0.0000000  -0.0000000  -0.0000000  -0.0000000
 NQMom=    0.0000000   0.0000000   0.0000000   0.0000000   2.0440000   0.0000000   0.0000000   0.0000000   0.0000000   0.0000000
 NMagM=    0.0000000   0.0000000   0.0000000   2.7928460   0.4037610   0.0000000   0.0000000   0.0000000   0.0000000   0.0000000
 AtZNuc=   6.0000000   6.0000000   6.0000000   1.0000000   7.0000000   6.0000000   6.0000000   6.0000000   6.0000000   6.0000000

  Atom        21          22          23          24          25          26          27          28          29          30
 IAtWgt=          12          16          12          14          12          12          12          12          12          12
 AtmWgt=  12.0000000  15.9949146  12.0000000  14.0030740  12.0000000  12.0000000  12.0000000  12.0000000  12.0000000  12.0000000
 NucSpn=           0           0           0           2           0           0           0           0           0           0
 AtZEff=  -0.0000000  -0.0000000  -0.0000000  -0.0000000  -0.0000000  -0.0000000  -0.0000000  -0.0000000  -0.0000000  -0.0000000
 NQMom=    0.0000000   0.0000000   0.0000000   2.0440000   0.0000000   0.0000000   0.0000000   0.0000000   0.0000000   0.0000000
 NMagM=    0.0000000   0.0000000   0.0000000   0.4037610   0.0000000   0.0000000   0.0000000   0.0000000   0.0000000   0.0000000
 AtZNuc=   6.0000000   8.0000000   6.0000000   7.0000000   6.0000000   6.0000000   6.0000000   6.0000000   6.0000000   6.0000000

  Atom        31          32          33          34          35          36          37          38          39          40
 IAtWgt=          12          14          12          12          12          12          12          12          16          12
 AtmWgt=  12.0000000  14.0030740  12.0000000  12.0000000  12.0000000  12.0000000  12.0000000  12.0000000  15.9949146  12.0000000
 NucSpn=           0           2           0           0           0           0           0           0           0           0
 AtZEff=  -0.0000000  -0.0000000  -0.0000000  -0.0000000  -0.0000000  -0.0000000  -0.0000000  -0.0000000  -0.0000000  -0.0000000
 NQMom=    0.0000000   2.0440000   0.0000000   0.0000000   0.0000000   0.0000000   0.0000000   0.0000000   0.0000000   0.0000000
 NMagM=    0.0000000   0.4037610   0.0000000   0.0000000   0.0000000   0.0000000   0.0000000   0.0000000   0.0000000   0.0000000
 AtZNuc=   6.0000000   7.0000000   6.0000000   6.0000000   6.0000000   6.0000000   6.0000000   6.0000000   8.0000000   6.0000000

  Atom        41          42          43          44          45          46          47          48          49          50
 IAtWgt=          12          16          16          12           1           1           1           1           1           1
 AtmWgt=  12.0000000  15.9949146  15.9949146  12.0000000   1.0078250   1.0078250   1.0078250   1.0078250   1.0078250   1.0078250
 NucSpn=           0           0           0           0           1           1           1           1           1           1
 AtZEff=  -0.0000000  -0.0000000  -0.0000000  -0.0000000  -0.0000000  -0.0000000  -0.0000000  -0.0000000  -0.0000000  -0.0000000
 NQMom=    0.0000000   0.0000000   0.0000000   0.0000000   0.0000000   0.0000000   0.0000000   0.0000000   0.0000000   0.0000000
 NMagM=    0.0000000   0.0000000   0.0000000   0.0000000   2.7928460   2.7928460   2.7928460   2.7928460   2.7928460   2.7928460
 AtZNuc=   6.0000000   8.0000000   8.0000000   6.0000000   1.0000000   1.0000000   1.0000000   1.0000000   1.0000000   1.0000000

  Atom        51          52          53          54          55          56          57          58          59          60
 IAtWgt=           1           1           1           1           1           1           1           1           1           1
 AtmWgt=   1.0078250   1.0078250   1.0078250   1.0078250   1.0078250   1.0078250   1.0078250   1.0078250   1.0078250   1.0078250
 NucSpn=           1           1           1           1           1           1           1           1           1           1
 AtZEff=  -0.0000000  -0.0000000  -0.0000000  -0.0000000  -0.0000000  -0.0000000  -0.0000000  -0.0000000  -0.0000000  -0.0000000
 NQMom=    0.0000000   0.0000000   0.0000000   0.0000000   0.0000000   0.0000000   0.0000000   0.0000000   0.0000000   0.0000000
 NMagM=    2.7928460   2.7928460   2.7928460   2.7928460   2.7928460   2.7928460   2.7928460   2.7928460   2.7928460   2.7928460
 AtZNuc=   1.0000000   1.0000000   1.0000000   1.0000000   1.0000000   1.0000000   1.0000000   1.0000000   1.0000000   1.0000000

  Atom        61          62          63          64          65          66          67          68          69          70
 IAtWgt=           1           1           1           1           1           1           1           1           1           1
 AtmWgt=   1.0078250   1.0078250   1.0078250   1.0078250   1.0078250   1.0078250   1.0078250   1.0078250   1.0078250   1.0078250
 NucSpn=           1           1           1           1           1           1           1           1           1           1
 AtZEff=  -0.0000000  -0.0000000  -0.0000000  -0.0000000  -0.0000000  -0.0000000  -0.0000000  -0.0000000  -0.0000000  -0.0000000
 NQMom=    0.0000000   0.0000000   0.0000000   0.0000000   0.0000000   0.0000000   0.0000000   0.0000000   0.0000000   0.0000000
 NMagM=    2.7928460   2.7928460   2.7928460   2.7928460   2.7928460   2.7928460   2.7928460   2.7928460   2.7928460   2.7928460
 AtZNuc=   1.0000000   1.0000000   1.0000000   1.0000000   1.0000000   1.0000000   1.0000000   1.0000000   1.0000000   1.0000000

  Atom        71          72          73          74          75          76          77          78          79          80
 IAtWgt=           1           1           1           1           1           1           1           1           1          24
 AtmWgt=   1.0078250   1.0078250   1.0078250   1.0078250   1.0078250   1.0078250   1.0078250   1.0078250   1.0078250  23.9850450
 NucSpn=           1           1           1           1           1           1           1           1           1           0
 AtZEff=  -0.0000000  -0.0000000  -0.0000000  -0.0000000  -0.0000000  -0.0000000  -0.0000000  -0.0000000  -0.0000000  -0.0000000
 NQMom=    0.0000000   0.0000000   0.0000000   0.0000000   0.0000000   0.0000000   0.0000000   0.0000000   0.0000000   0.0000000
 NMagM=    2.7928460   2.7928460   2.7928460   2.7928460   2.7928460   2.7928460   2.7928460   2.7928460   2.7928460   0.0000000
 AtZNuc=   1.0000000   1.0000000   1.0000000   1.0000000   1.0000000   1.0000000   1.0000000   1.0000000   1.0000000  12.0000000

  Atom        81          82          83          84          85          86          87          88          89          90
 IAtWgt=          12          12          12          12          14          12          12          12          12          12
 AtmWgt=  12.0000000  12.0000000  12.0000000  12.0000000  14.0030740  12.0000000  12.0000000  12.0000000  12.0000000  12.0000000
 NucSpn=           0           0           0           0           2           0           0           0           0           0
 AtZEff=  -0.0000000  -0.0000000  -0.0000000  -0.0000000  -0.0000000  -0.0000000  -0.0000000  -0.0000000  -0.0000000  -0.0000000
 NQMom=    0.0000000   0.0000000   0.0000000   0.0000000   2.0440000   0.0000000   0.0000000   0.0000000   0.0000000   0.0000000
 NMagM=    0.0000000   0.0000000   0.0000000   0.0000000   0.4037610   0.0000000   0.0000000   0.0000000   0.0000000   0.0000000
 AtZNuc=   6.0000000   6.0000000   6.0000000   6.0000000   7.0000000   6.0000000   6.0000000   6.0000000   6.0000000   6.0000000

  Atom        91          92          93          94          95          96          97          98          99         100
 IAtWgt=          12          12           1          14          12          12          12          12          12          12
 AtmWgt=  12.0000000  12.0000000   1.0078250  14.0030740  12.0000000  12.0000000  12.0000000  12.0000000  12.0000000  12.0000000
 NucSpn=           0           0           1           2           0           0           0           0           0           0
 AtZEff=  -0.0000000  -0.0000000  -0.0000000  -0.0000000  -0.0000000  -0.0000000  -0.0000000  -0.0000000  -0.0000000  -0.0000000
 NQMom=    0.0000000   0.0000000   0.0000000   2.0440000   0.0000000   0.0000000   0.0000000   0.0000000   0.0000000   0.0000000
 NMagM=    0.0000000   0.0000000   2.7928460   0.4037610   0.0000000   0.0000000   0.0000000   0.0000000   0.0000000   0.0000000
 AtZNuc=   6.0000000   6.0000000   1.0000000   7.0000000   6.0000000   6.0000000   6.0000000   6.0000000   6.0000000   6.0000000

  Atom       101         102         103         104         105         106         107         108         109         110
 IAtWgt=          16          12          14          12          12          12          12          12          12          12
 AtmWgt=  15.9949146  12.0000000  14.0030740  12.0000000  12.0000000  12.0000000  12.0000000  12.0000000  12.0000000  12.0000000
 NucSpn=           0           0           2           0           0           0           0           0           0           0
 AtZEff=  -0.0000000  -0.0000000  -0.0000000  -0.0000000  -0.0000000  -0.0000000  -0.0000000  -0.0000000  -0.0000000  -0.0000000
 NQMom=    0.0000000   0.0000000   2.0440000   0.0000000   0.0000000   0.0000000   0.0000000   0.0000000   0.0000000   0.0000000
 NMagM=    0.0000000   0.0000000   0.4037610   0.0000000   0.0000000   0.0000000   0.0000000   0.0000000   0.0000000   0.0000000
 AtZNuc=   8.0000000   6.0000000   7.0000000   6.0000000   6.0000000   6.0000000   6.0000000   6.0000000   6.0000000   6.0000000

  Atom       111         112         113         114         115         116         117         118         119         120
 IAtWgt=          14          12          12          12          12          12          12          16          12          12
 AtmWgt=  14.0030740  12.0000000  12.0000000  12.0000000  12.0000000  12.0000000  12.0000000  15.9949146  12.0000000  12.0000000
 NucSpn=           2           0           0           0           0           0           0           0           0           0
 AtZEff=  -0.0000000  -0.0000000  -0.0000000  -0.0000000  -0.0000000  -0.0000000  -0.0000000  -0.0000000  -0.0000000  -0.0000000
 NQMom=    2.0440000   0.0000000   0.0000000   0.0000000   0.0000000   0.0000000   0.0000000   0.0000000   0.0000000   0.0000000
 NMagM=    0.4037610   0.0000000   0.0000000   0.0000000   0.0000000   0.0000000   0.0000000   0.0000000   0.0000000   0.0000000
 AtZNuc=   7.0000000   6.0000000   6.0000000   6.0000000   6.0000000   6.0000000   6.0000000   8.0000000   6.0000000   6.0000000

  Atom       121         122         123         124         125         126         127         128         129         130
 IAtWgt=          16          16          12           1           1           1           1           1           1           1
 AtmWgt=  15.9949146  15.9949146  12.0000000   1.0078250   1.0078250   1.0078250   1.0078250   1.0078250   1.0078250   1.0078250
 NucSpn=           0           0           0           1           1           1           1           1           1           1
 AtZEff=  -0.0000000  -0.0000000  -0.0000000  -0.0000000  -0.0000000  -0.0000000  -0.0000000  -0.0000000  -0.0000000  -0.0000000
 NQMom=    0.0000000   0.0000000   0.0000000   0.0000000   0.0000000   0.0000000   0.0000000   0.0000000   0.0000000   0.0000000
 NMagM=    0.0000000   0.0000000   0.0000000   2.7928460   2.7928460   2.7928460   2.7928460   2.7928460   2.7928460   2.7928460
 AtZNuc=   8.0000000   8.0000000   6.0000000   1.0000000   1.0000000   1.0000000   1.0000000   1.0000000   1.0000000   1.0000000

  Atom       131         132         133         134         135         136         137         138         139         140
 IAtWgt=           1           1           1           1           1           1           1           1           1           1
 AtmWgt=   1.0078250   1.0078250   1.0078250   1.0078250   1.0078250   1.0078250   1.0078250   1.0078250   1.0078250   1.0078250
 NucSpn=           1           1           1           1           1           1           1           1           1           1
 AtZEff=  -0.0000000  -0.0000000  -0.0000000  -0.0000000  -0.0000000  -0.0000000  -0.0000000  -0.0000000  -0.0000000  -0.0000000
 NQMom=    0.0000000   0.0000000   0.0000000   0.0000000   0.0000000   0.0000000   0.0000000   0.0000000   0.0000000   0.0000000
 NMagM=    2.7928460   2.7928460   2.7928460   2.7928460   2.7928460   2.7928460   2.7928460   2.7928460   2.7928460   2.7928460
 AtZNuc=   1.0000000   1.0000000   1.0000000   1.0000000   1.0000000   1.0000000   1.0000000   1.0000000   1.0000000   1.0000000

  Atom       141         142         143         144         145         146         147         148         149         150
 IAtWgt=           1           1           1           1           1           1           1           1           1           1
 AtmWgt=   1.0078250   1.0078250   1.0078250   1.0078250   1.0078250   1.0078250   1.0078250   1.0078250   1.0078250   1.0078250
 NucSpn=           1           1           1           1           1           1           1           1           1           1
 AtZEff=  -0.0000000  -0.0000000  -0.0000000  -0.0000000  -0.0000000  -0.0000000  -0.0000000  -0.0000000  -0.0000000  -0.0000000
 NQMom=    0.0000000   0.0000000   0.0000000   0.0000000   0.0000000   0.0000000   0.0000000   0.0000000   0.0000000   0.0000000
 NMagM=    2.7928460   2.7928460   2.7928460   2.7928460   2.7928460   2.7928460   2.7928460   2.7928460   2.7928460   2.7928460
 AtZNuc=   1.0000000   1.0000000   1.0000000   1.0000000   1.0000000   1.0000000   1.0000000   1.0000000   1.0000000   1.0000000

  Atom       151         152         153         154         155         156         157         158
 IAtWgt=           1           1           1           1           1           1           1           1
 AtmWgt=   1.0078250   1.0078250   1.0078250   1.0078250   1.0078250   1.0078250   1.0078250   1.0078250
 NucSpn=           1           1           1           1           1           1           1           1
 AtZEff=  -0.0000000  -0.0000000  -0.0000000  -0.0000000  -0.0000000  -0.0000000  -0.0000000  -0.0000000
 NQMom=    0.0000000   0.0000000   0.0000000   0.0000000   0.0000000   0.0000000   0.0000000   0.0000000
 NMagM=    2.7928460   2.7928460   2.7928460   2.7928460   2.7928460   2.7928460   2.7928460   2.7928460
 AtZNuc=   1.0000000   1.0000000   1.0000000   1.0000000   1.0000000   1.0000000   1.0000000   1.0000000
 Leave Link  101 at Sat Sep 11 06:53:42 2021, MaxMem= 23488102400 cpu:               5.2 elap:               0.2
 (Enter /sw/apps/gaussian-16.0/g16/l202.exe)
 Stoichiometry    C68H72Mg2N8O8
 Framework group  C1[X(C68H72Mg2N8O8)]
 Deg. of freedom   468
 Full point group                 C1      NOp   1
 Largest Abelian subgroup         C1      NOp   1
 Largest concise Abelian subgroup C1      NOp   1
                         Standard orientation:                         
 ---------------------------------------------------------------------
 Center     Atomic      Atomic             Coordinates (Angstroms)
 Number     Number       Type             X           Y           Z
 ---------------------------------------------------------------------
      1         12           0       -6.537029   -0.690102    0.265852
      2          6           0       -6.705281    2.869191   -0.073766
      3          6           0       -7.510272   -0.898400   -2.997961
      4          6           0       -6.835726   -3.821506    0.667977
      5          6           0       -6.692061   -0.220391    3.715635
      6          7           0       -7.015028    0.859836   -1.240752
      7          6           0       -6.982783    2.188635   -1.261402
      8          6           0       -7.197477    2.789832   -2.682614
      9          6           0       -7.985339    1.576523   -3.352802
     10          6           0       -7.446031    0.438473   -2.504325
     11          6           0       -9.497162    1.654564   -3.166248
     12          6           0       -5.844951    3.071450   -3.419563
     13          6           0       -5.951922    3.952952   -4.667306
     14          1           0       -4.872739    4.883492   -4.961939
     15          7           0       -6.613719   -2.150783   -1.062070
     16          6           0       -7.019553   -2.053111   -2.350885
     17          6           0       -6.893370   -3.411280   -2.921967
     18          6           0       -6.561964   -4.343858   -1.809060
     19          6           0       -6.684587   -3.469040   -0.671064
     20          6           0       -7.034120   -3.705489   -4.383946
     21          6           0       -6.203509   -5.795930   -1.775456
     22          8           0       -6.180730   -6.465872   -0.686773
     23          6           0       -5.962754   -6.443453   -3.077682
     24          7           0       -6.956613   -1.874058    1.933135
     25          6           0       -6.970345   -3.208670    1.845923
     26          6           0       -7.010283   -3.844212    3.204020
     27          6           0       -6.774931   -2.662720    4.252084
     28          6           0       -6.719044   -1.474885    3.260018
     29          6           0       -8.305378   -4.588776    3.556674
     30          6           0       -5.610855   -2.837796    5.259405
     31          6           0       -4.288193   -2.797404    4.527264
     32          7           0       -6.496417    1.006305    1.619219
     33          6           0       -6.596822    0.971884    3.017578
     34          6           0       -6.630127    2.370628    3.482847
     35          6           0       -6.563051    3.126479    2.314072
     36          6           0       -6.518798    2.255143    1.188414
     37          6           0       -6.770930    2.796623    4.833083
     38          6           0       -6.543315    4.467608    1.752965
     39          8           0       -6.466103    5.603432    2.223534
     40          6           0       -6.757513    4.355436    0.179001
     41          6           0       -5.718526    5.218342   -0.483728
     42          8           0       -4.507194    4.925522   -0.418172
     43          8           0       -6.324814    6.109905   -1.282522
     44          6           0       -5.348822    6.978479   -1.993277
     45          1           0       -8.034969   -1.090045   -3.935994
     46          1           0       -6.831435   -4.896577    0.859403
     47          1           0       -6.654463    0.003518    4.783297
     48          1           0       -7.810753    3.690786   -2.707092
     49          1           0       -7.705331    1.436556   -4.396702
     50          1           0       -9.774045    2.464537   -2.491562
     51          1           0       -9.788557    0.692064   -2.745326
     52          1           0      -10.003134    1.725918   -4.129409
     53          1           0       -5.484661    2.148825   -3.874552
     54          1           0       -5.114932    3.503666   -2.734297
     55          1           0       -6.916573    4.458867   -4.716387
     56          1           0       -5.940382    3.306016   -5.544541
     57          1           0       -7.440331   -2.852904   -4.926749
     58          1           0       -7.796774   -4.477880   -4.481312
     59          1           0       -6.099735   -4.053891   -4.824256
     60          1           0       -6.856463   -6.352706   -3.695418
     61          1           0       -5.631775   -7.456778   -2.853017
     62          1           0       -5.172833   -5.903005   -3.600071
     63          1           0       -6.216907   -4.582403    3.313811
     64          1           0       -7.648736   -2.494746    4.882103
     65          1           0       -8.150186   -5.633782    3.826088
     66          1           0       -8.986215   -4.500012    2.710581
     67          1           0       -8.891266   -4.133884    4.354938
     68          1           0       -5.676518   -3.808457    5.749764
     69          1           0       -5.595881   -2.073827    6.036823
     70          1           0       -4.174322   -3.821525    4.173651
     71          1           0       -3.482695   -2.528806    5.211543
     72          1           0       -4.338723   -2.153224    3.649218
     73          1           0       -6.057943    3.609136    4.972514
     74          1           0       -6.580735    1.979084    5.528107
     75          1           0       -7.813575    3.114006    4.837006
     76          1           0       -7.769589    4.703460   -0.025212
     77          1           0       -5.609552    8.011112   -1.761063
     78          1           0       -5.368623    6.674760   -3.040066
     79          1           0       -4.319513    6.940548   -1.634913
     80         12           0        6.692856   -0.850588   -0.125936
     81          6           0        6.553019    2.647866    0.661681
     82          6           0        5.733383   -0.023306   -3.292895
     83          6           0        6.369485   -3.948516   -0.730668
     84          6           0        6.517176   -1.486102    3.296193
     85          7           0        6.233450    1.095165   -1.072113
     86          6           0        6.274182    2.363103   -0.691314
     87          6           0        6.079769    3.386783   -1.841903
     88          6           0        5.278103    2.446411   -2.867516
     89          6           0        5.802328    1.085937   -2.412593
     90          6           0        3.773219    2.472864   -2.657805
     91          6           0        7.443588    3.868475   -2.450180
     92          6           0        7.344052    5.092982   -3.362544
     93          1           0        8.438501    6.059699   -3.351915
     94          7           0        6.614297   -1.820053   -1.855829
     95          6           0        6.222734   -1.325339   -3.048819
     96          6           0        6.325869   -2.442084   -4.000883
     97          6           0        6.652610   -3.678570   -3.239933
     98          6           0        6.535067   -3.190312   -1.880558
     99          6           0        6.199124   -2.259980   -5.485530
    100          6           0        6.999326   -5.073262   -3.665151
    101          8           0        7.012363   -6.047502   -2.832376
    102          6           0        7.231848   -5.281940   -5.101776
    103          7           0        6.262208   -2.485839    1.083553
    104          6           0        6.232265   -3.731192    0.577489
    105          6           0        6.177004   -4.765397    1.676472
    106          6           0        6.421108   -3.960412    3.036614
    107          6           0        6.489438   -2.524451    2.472043
    108          6           0        4.873253   -5.556468    1.780556
    109          6           0        7.579112   -4.452413    3.947462
    110          6           0        8.908070   -4.210502    3.268673
    111          7           0        6.744701    0.333411    1.680582
    112          6           0        6.629862   -0.131787    3.008919
    113          6           0        6.605932    1.056783    3.885932
    114          6           0        6.685966    2.140380    2.998301
    115          6           0        6.734558    1.661567    1.661185
    116          6           0        6.471779    1.042478    5.302940
    117          6           0        6.729681    3.580717    2.887799
    118          8           0        6.806555    4.511468    3.688753
    119          6           0        6.518033    3.977247    1.363210
    120          6           0        7.567478    4.990623    0.996835
    121          8           0        8.771047    4.677766    0.984096
    122          8           0        6.965915    6.093120    0.514122
    123          6           0        7.966138    7.123224    0.126493
    124          1           0        5.218433    0.101809   -4.245808
    125          1           0        6.363761   -5.031185   -0.876526
    126          1           0        6.562881   -1.602941    4.381054
    127          1           0        5.480268    4.251588   -1.584040
    128          1           0        5.570859    2.643519   -3.895528
    129          1           0        3.499287    3.030278   -1.774404
    130          1           0        3.471465    1.438164   -2.560990
    131          1           0        3.274136    2.849646   -3.555178
    132          1           0        7.795924    3.122725   -3.174372
    133          1           0        8.162429    4.052471   -1.675560
    134          1           0        6.378816    5.604130   -3.262569
    135          1           0        7.361572    4.754148   -4.401250
    136          1           0        5.795813   -1.271171   -5.736541
    137          1           0        5.431509   -2.961695   -5.829381
    138          1           0        7.130736   -2.467284   -6.016378
    139          1           0        6.343979   -4.989808   -5.657482
    140          1           0        7.554122   -6.320591   -5.197809
    141          1           0        8.039279   -4.615883   -5.425866
    142          1           0        6.964197   -5.499589    1.556525
    143          1           0        5.541173   -3.997459    3.695548
    144          1           0        5.019633   -6.650684    1.707482
    145          1           0        4.201188   -5.210202    1.006629
    146          1           0        4.295322   -5.377229    2.685587
    147          1           0        7.503677   -5.530895    4.106645
    148          1           0        7.589051   -3.982477    4.925239
    149          1           0        9.009615   -5.077402    2.608943
    150          1           0        9.711768   -4.175834    4.001415
    151          1           0        8.869457   -3.316800    2.635073
    152          1           0        7.183527    1.759322    5.690316
    153          1           0        6.646699    0.048277    5.708843
    154          1           0        5.427066    1.348763    5.403051
    155          1           0        5.508922    4.379627    1.266416
    156          1           0        7.709393    8.038094    0.669430
    157          1           0        7.936058    7.167955   -0.978429
    158          1           0        8.991374    6.970316    0.442660
 ---------------------------------------------------------------------
 Rotational constants (GHZ):           0.0202787           0.0082034           0.0073884
 Leave Link  202 at Sat Sep 11 06:53:42 2021, MaxMem= 23488102400 cpu:               0.2 elap:               0.0
 (Enter /sw/apps/gaussian-16.0/g16/l301.exe)
 Standard basis: def2SVP (5D, 7F)
 Ernie: Thresh=  0.10000D-02 Tol=  0.10000D-05 Strict=F.
 There are  1658 symmetry adapted cartesian basis functions of A   symmetry.
 There are  1572 symmetry adapted basis functions of A   symmetry.
  1572 basis functions,  2678 primitive gaussians,  1658 cartesian basis functions
   312 alpha electrons      312 beta electrons
       nuclear repulsion energy     14252.8974084168 Hartrees.
 IExCor=20419 DFT=T Ex+Corr=CAM-B3LYP ExCW=0 ScaHFX=  1.000000
 ScaDFX=  1.000000  1.000000  1.000000  0.810000 ScalE2=  1.000000  1.000000
 IRadAn=      5 IRanWt=     -1 IRanGd=            0 ICorTp=0 IEmpDi=  4
 HFx  wShort=  0.000000 wLong=  0.330000 cFull=  0.190000 cShort=  0.000000 cLong=  0.460000
 DFx  wShort=  0.000000 wLong=  0.330000 cFull=  0.190000 cShort=  0.000000 cLong=  0.460000
 NAtoms=  158 NActive=  158 NUniq=  158 SFac= 1.00D+00 NAtFMM=   60 NAOKFM=T Big=T
 Integral buffers will be    131072 words long.
 Raffenetti 1 integral format.
 Two-electron integral symmetry is turned on.
 Leave Link  301 at Sat Sep 11 06:53:42 2021, MaxMem= 23488102400 cpu:               1.4 elap:               0.1
 (Enter /sw/apps/gaussian-16.0/g16/l302.exe)
 NPDir=0 NMtPBC=     1 NCelOv=     1 NCel=       1 NClECP=     1 NCelD=      1
         NCelK=      1 NCelE2=     1 NClLst=     1 CellRange=     0.0.
 One-electron integrals computed using PRISM.
 One-electron integral symmetry used in STVInt
   1 Symmetry operations used in ECPInt.
 ECPInt:  NShTT=  271216 NPrTT=  987664 LenC2=  116568 LenP2D=  255176.
 LDataN:  DoStor=T MaxTD1= 4 Len=   56
 NBasis=  1572 RedAO= T EigKep=  3.36D-04  NBF=  1572
 NBsUse=  1572 1.00D-06 EigRej= -1.00D+00 NBFU=  1572
 Precomputing XC quadrature grid using
 IXCGrd= 4 IRadAn=           5 IRanWt=          -1 IRanGd=           0 AccXCQ= 0.00D+00.
 Generated NRdTot=       0 NPtTot=           0 NUsed=           0 NTot=          32
 NSgBfM=  1017  1003  1010  1010  1017 MxSgAt=   158 MxSgA2=   155.
 Leave Link  302 at Sat Sep 11 06:53:47 2021, MaxMem= 23488102400 cpu:             113.5 elap:               4.8
 (Enter /sw/apps/gaussian-16.0/g16/l303.exe)
 DipDrv:  MaxL=1.
 Leave Link  303 at Sat Sep 11 06:53:47 2021, MaxMem= 23488102400 cpu:               9.6 elap:               0.4
 (Enter /sw/apps/gaussian-16.0/g16/l308.exe)
 Leave Link  308 at Sat Sep 11 06:53:48 2021, MaxMem= 23488102400 cpu:              12.8 elap:               0.6
 (Enter /sw/apps/gaussian-16.0/g16/l401.exe)
 ExpMin= 3.36D-02 ExpMax= 4.95D+03 ExpMxC= 7.45D+02 IAcc=3 IRadAn=         5 AccDes= 0.00D+00
 Harris functional with IExCor=20419 and IRadAn=       5 diagonalized for initial guess.
 HarFok:  IExCor=20419 AccDes= 0.00D+00 IRadAn=         5 IDoV= 1 UseB2=F ITyADJ=14
 ICtDFT=  3500011 ScaDFX=  1.000000  1.000000  1.000000  1.000000
 FoFCou: FMM=F IPFlag=           0 FMFlag=      100000 FMFlg1=        2001
         NFxFlg=           0 DoJE=T BraDBF=F KetDBF=T FulRan=T
         wScrn=  0.000000 ICntrl=       500 IOpCl=  0 I1Cent=   200000004 NGrid=           0
         NMat0=    1 NMatS0=      1 NMatT0=    0 NMatD0=    1 NMtDS0=    0 NMtDT0=    0
 Petite list used in FoFCou.
 Harris En= -3918.65801692473    
 JPrj=0 DoOrth=F DoCkMO=F.
 Leave Link  401 at Sat Sep 11 06:53:55 2021, MaxMem= 23488102400 cpu:             172.6 elap:               7.2
 (Enter /sw/apps/gaussian-16.0/g16/l502.exe)
 Integral symmetry usage will be decided dynamically.
 Closed shell SCF:
 Using DIIS extrapolation, IDIIS=  1040.
 NGot= 23488102400 LenX= 23482547354 LenY= 23479796732
 Requested convergence on RMS density matrix=1.00D-08 within 128 cycles.
 Requested convergence on MAX density matrix=1.00D-06.
 Requested convergence on             energy=1.00D-06.
 No special actions if energy rises.
 Fock matrices will be formed incrementally for  20 cycles.

 Cycle   1  Pass 1  IDiag  1:
 FoFJK:  IHMeth= 1 ICntrl=       0 DoSepK=T KAlg= 0 I1Cent=           0 FoldK=F
 IRaf=         1 NMat=       1 IRICut=       1 DoRegI=T DoRafI=F ISym2E= 0 IDoP0=0 IntGTp=1.
 FoFCou: FMM=T IPFlag=           0 FMFlag=      100000 FMFlg1=        2001
         NFxFlg=           0 DoJE=T BraDBF=F KetDBF=F FulRan=T
         wScrn=  0.000000 ICntrl=       500 IOpCl=  0 I1Cent=           0 NGrid=           0
         NMat0=    1 NMatS0=      1 NMatT0=    0 NMatD0=    1 NMtDS0=    0 NMtDT0=    0
 Symmetry not used in FoFCou.
 FMM levels:  10  Number of levels for PrismC:   9
 E= -4068.94895735573    
 DIIS: error= 2.04D-02 at cycle   1 NSaved=   1.
 NSaved= 1 IEnMin= 1 EnMin= -4068.94895735573     IErMin= 1 ErrMin= 2.04D-02
 ErrMax= 2.04D-02  0.00D+00 EMaxC= 1.00D-01 BMatC= 1.69D+00 BMatP= 1.69D+00
 IDIUse=3 WtCom= 7.96D-01 WtEn= 2.04D-01
 Coeff-Com:  0.100D+01
 Coeff-En:   0.100D+01
 Coeff:      0.100D+01
 Gap=     0.120 Goal=   None    Shift=    0.000
 GapD=    0.120 DampG=1.000 DampE=0.500 DampFc=0.5000 IDamp=-1.
 Damping current iteration by 5.00D-01
 RMSDP=1.57D-03 MaxDP=1.35D-01              OVMax= 2.05D-01

 Cycle   2  Pass 1  IDiag  1:
 RMSU=  7.70D-04    CP:  9.82D-01
 E= -4069.33779013950     Delta-E=       -0.388832783767 Rises=F Damp=T
 DIIS: error= 1.27D-02 at cycle   2 NSaved=   2.
 NSaved= 2 IEnMin= 2 EnMin= -4069.33779013950     IErMin= 2 ErrMin= 1.27D-02
 ErrMax= 1.27D-02  0.00D+00 EMaxC= 1.00D-01 BMatC= 3.07D-01 BMatP= 1.69D+00
 IDIUse=3 WtCom= 8.73D-01 WtEn= 1.27D-01
 Coeff-Com: -0.213D+00 0.121D+01
 Coeff-En:   0.000D+00 0.100D+01
 Coeff:     -0.186D+00 0.119D+01
 Gap=     0.135 Goal=   None    Shift=    0.000
 RMSDP=7.66D-04 MaxDP=9.45D-02 DE=-3.89D-01 OVMax= 1.89D-01

 Cycle   3  Pass 1  IDiag  1:
 RMSU=  7.34D-04    CP:  9.68D-01  1.24D+00
 E= -4069.62673921417     Delta-E=       -0.288949074675 Rises=F Damp=F
 DIIS: error= 1.57D-02 at cycle   3 NSaved=   3.
 NSaved= 3 IEnMin= 3 EnMin= -4069.62673921417     IErMin= 2 ErrMin= 1.27D-02
 ErrMax= 1.57D-02  0.00D+00 EMaxC= 1.00D-01 BMatC= 2.02D-01 BMatP= 3.07D-01
 IDIUse=3 WtCom= 8.43D-01 WtEn= 1.57D-01
 Coeff-Com: -0.267D+00 0.652D+00 0.615D+00
 Coeff-En:   0.000D+00 0.000D+00 0.100D+01
 Coeff:     -0.225D+00 0.550D+00 0.676D+00
 Gap=     0.123 Goal=   None    Shift=    0.000
 RMSDP=5.11D-04 MaxDP=4.80D-02 DE=-2.89D-01 OVMax= 1.46D-01

 Cycle   4  Pass 1  IDiag  1:
 RMSU=  2.67D-04    CP:  9.65D-01  1.55D+00  5.04D-01
 E= -4069.76441758799     Delta-E=       -0.137678373816 Rises=F Damp=F
 DIIS: error= 7.18D-03 at cycle   4 NSaved=   4.
 NSaved= 4 IEnMin= 4 EnMin= -4069.76441758799     IErMin= 4 ErrMin= 7.18D-03
 ErrMax= 7.18D-03  0.00D+00 EMaxC= 1.00D-01 BMatC= 5.04D-02 BMatP= 2.02D-01
 IDIUse=3 WtCom= 9.28D-01 WtEn= 7.18D-02
 Coeff-Com: -0.109D+00 0.227D+00 0.409D+00 0.474D+00
 Coeff-En:   0.000D+00 0.000D+00 0.222D+00 0.778D+00
 Coeff:     -0.101D+00 0.210D+00 0.395D+00 0.496D+00
 Gap=     0.122 Goal=   None    Shift=    0.000
 RMSDP=2.02D-04 MaxDP=1.97D-02 DE=-1.38D-01 OVMax= 6.42D-02

 Cycle   5  Pass 1  IDiag  1:
 RMSU=  7.70D-05    CP:  9.64D-01  1.49D+00  6.89D-01  5.47D-01
 E= -4069.81034315005     Delta-E=       -0.045925562063 Rises=F Damp=F
 DIIS: error= 7.50D-04 at cycle   5 NSaved=   5.
 NSaved= 5 IEnMin= 5 EnMin= -4069.81034315005     IErMin= 5 ErrMin= 7.50D-04
 ErrMax= 7.50D-04  0.00D+00 EMaxC= 1.00D-01 BMatC= 1.21D-03 BMatP= 5.04D-02
 IDIUse=3 WtCom= 9.92D-01 WtEn= 7.50D-03
 Coeff-Com: -0.367D-01 0.721D-01 0.168D+00 0.252D+00 0.545D+00
 Coeff-En:   0.000D+00 0.000D+00 0.000D+00 0.000D+00 0.100D+01
 Coeff:     -0.364D-01 0.715D-01 0.167D+00 0.250D+00 0.548D+00
 Gap=     0.121 Goal=   None    Shift=    0.000
 RMSDP=4.26D-05 MaxDP=4.14D-03 DE=-4.59D-02 OVMax= 1.74D-02

 Cycle   6  Pass 1  IDiag  1:
 RMSU=  3.12D-05    CP:  9.64D-01  1.49D+00  6.80D-01  6.21D-01  7.44D-01
 E= -4069.81141876253     Delta-E=       -0.001075612479 Rises=F Damp=F
 DIIS: error= 1.97D-04 at cycle   6 NSaved=   6.
 NSaved= 6 IEnMin= 6 EnMin= -4069.81141876253     IErMin= 6 ErrMin= 1.97D-04
 ErrMax= 1.97D-04  0.00D+00 EMaxC= 1.00D-01 BMatC= 1.88D-04 BMatP= 1.21D-03
 IDIUse=3 WtCom= 9.98D-01 WtEn= 1.97D-03
 Coeff-Com:  0.205D-02-0.629D-02 0.121D-01 0.414D-01 0.308D+00 0.643D+00
 Coeff-En:   0.000D+00 0.000D+00 0.000D+00 0.000D+00 0.115D+00 0.885D+00
 Coeff:      0.205D-02-0.628D-02 0.121D-01 0.413D-01 0.307D+00 0.643D+00
 Gap=     0.122 Goal=   None    Shift=    0.000
 RMSDP=1.67D-05 MaxDP=1.13D-03 DE=-1.08D-03 OVMax= 7.52D-03

 Cycle   7  Pass 1  IDiag  1:
 RMSU=  1.10D-05    CP:  9.64D-01  1.50D+00  6.86D-01  6.20D-01  8.51D-01
                    CP:  7.39D-01
 E= -4069.81162562947     Delta-E=       -0.000206866942 Rises=F Damp=F
 DIIS: error= 8.90D-05 at cycle   7 NSaved=   7.
 NSaved= 7 IEnMin= 7 EnMin= -4069.81162562947     IErMin= 7 ErrMin= 8.90D-05
 ErrMax= 8.90D-05  0.00D+00 EMaxC= 1.00D-01 BMatC= 2.34D-05 BMatP= 1.88D-04
 IDIUse=1 WtCom= 1.00D+00 WtEn= 0.00D+00
 Coeff-Com:  0.452D-02-0.991D-02-0.885D-02-0.329D-02 0.107D+00 0.335D+00
 Coeff-Com:  0.576D+00
 Coeff:      0.452D-02-0.991D-02-0.885D-02-0.329D-02 0.107D+00 0.335D+00
 Coeff:      0.576D+00
 Gap=     0.122 Goal=   None    Shift=    0.000
 RMSDP=6.68D-06 MaxDP=1.08D-03 DE=-2.07D-04 OVMax= 3.30D-03

 Cycle   8  Pass 1  IDiag  1:
 RMSU=  4.77D-06    CP:  9.64D-01  1.50D+00  6.87D-01  6.25D-01  8.53D-01
                    CP:  8.64D-01  8.13D-01
 E= -4069.81165456972     Delta-E=       -0.000028940252 Rises=F Damp=F
 DIIS: error= 5.34D-05 at cycle   8 NSaved=   8.
 NSaved= 8 IEnMin= 8 EnMin= -4069.81165456972     IErMin= 8 ErrMin= 5.34D-05
 ErrMax= 5.34D-05  0.00D+00 EMaxC= 1.00D-01 BMatC= 4.95D-06 BMatP= 2.34D-05
 IDIUse=1 WtCom= 1.00D+00 WtEn= 0.00D+00
 Coeff-Com:  0.220D-02-0.436D-02-0.783D-02-0.122D-01-0.101D-01 0.335D-01
 Coeff-Com:  0.331D+00 0.668D+00
 Coeff:      0.220D-02-0.436D-02-0.783D-02-0.122D-01-0.101D-01 0.335D-01
 Coeff:      0.331D+00 0.668D+00
 Gap=     0.122 Goal=   None    Shift=    0.000
 RMSDP=3.34D-06 MaxDP=3.56D-04 DE=-2.89D-05 OVMax= 1.08D-03

 Cycle   9  Pass 1  IDiag  1:
 RMSU=  1.94D-06    CP:  9.64D-01  1.50D+00  6.87D-01  6.26D-01  8.70D-01
                    CP:  8.91D-01  1.01D+00  9.56D-01
 E= -4069.81166250965     Delta-E=       -0.000007939925 Rises=F Damp=F
 DIIS: error= 2.04D-05 at cycle   9 NSaved=   9.
 NSaved= 9 IEnMin= 9 EnMin= -4069.81166250965     IErMin= 9 ErrMin= 2.04D-05
 ErrMax= 2.04D-05  0.00D+00 EMaxC= 1.00D-01 BMatC= 7.31D-07 BMatP= 4.95D-06
 IDIUse=1 WtCom= 1.00D+00 WtEn= 0.00D+00
 Coeff-Com:  0.481D-03-0.802D-03-0.273D-02-0.608D-02-0.208D-01-0.396D-01
 Coeff-Com:  0.994D-01 0.332D+00 0.638D+00
 Coeff:      0.481D-03-0.802D-03-0.273D-02-0.608D-02-0.208D-01-0.396D-01
 Coeff:      0.994D-01 0.332D+00 0.638D+00
 Gap=     0.122 Goal=   None    Shift=    0.000
 RMSDP=1.44D-06 MaxDP=1.44D-04 DE=-7.94D-06 OVMax= 7.64D-04

 Cycle  10  Pass 1  IDiag  1:
 RMSU=  9.55D-07    CP:  9.64D-01  1.50D+00  6.87D-01  6.27D-01  8.74D-01
                    CP:  9.03D-01  1.05D+00  1.12D+00  1.06D+00
 E= -4069.81166417183     Delta-E=       -0.000001662178 Rises=F Damp=F
 DIIS: error= 1.06D-05 at cycle  10 NSaved=  10.
 NSaved=10 IEnMin=10 EnMin= -4069.81166417183     IErMin=10 ErrMin= 1.06D-05
 ErrMax= 1.06D-05  0.00D+00 EMaxC= 1.00D-01 BMatC= 1.76D-07 BMatP= 7.31D-07
 IDIUse=1 WtCom= 1.00D+00 WtEn= 0.00D+00
 Coeff-Com: -0.427D-03 0.897D-03 0.122D-02 0.108D-02-0.373D-02-0.313D-01
 Coeff-Com: -0.442D-01-0.744D-01 0.244D+00 0.907D+00
 Coeff:     -0.427D-03 0.897D-03 0.122D-02 0.108D-02-0.373D-02-0.313D-01
 Coeff:     -0.442D-01-0.744D-01 0.244D+00 0.907D+00
 Gap=     0.122 Goal=   None    Shift=    0.000
 RMSDP=1.24D-06 MaxDP=1.22D-04 DE=-1.66D-06 OVMax= 6.33D-04

 Cycle  11  Pass 1  IDiag  1:
 RMSU=  5.33D-07    CP:  9.64D-01  1.50D+00  6.87D-01  6.27D-01  8.76D-01
                    CP:  9.13D-01  1.10D+00  1.23D+00  1.40D+00  1.37D+00
 E= -4069.81166498593     Delta-E=       -0.000000814107 Rises=F Damp=F
 DIIS: error= 4.21D-06 at cycle  11 NSaved=  11.
 NSaved=11 IEnMin=11 EnMin= -4069.81166498593     IErMin=11 ErrMin= 4.21D-06
 ErrMax= 4.21D-06  0.00D+00 EMaxC= 1.00D-01 BMatC= 6.76D-08 BMatP= 1.76D-07
 IDIUse=1 WtCom= 1.00D+00 WtEn= 0.00D+00
 Coeff-Com: -0.338D-03 0.658D-03 0.135D-02 0.214D-02 0.440D-02-0.879D-02
 Coeff-Com: -0.420D-01-0.133D+00-0.308D-01 0.483D+00 0.723D+00
 Coeff:     -0.338D-03 0.658D-03 0.135D-02 0.214D-02 0.440D-02-0.879D-02
 Coeff:     -0.420D-01-0.133D+00-0.308D-01 0.483D+00 0.723D+00
 Gap=     0.122 Goal=   None    Shift=    0.000
 RMSDP=7.03D-07 MaxDP=6.34D-05 DE=-8.14D-07 OVMax= 3.89D-04

 Cycle  12  Pass 1  IDiag  1:
 RMSU=  2.71D-07    CP:  9.64D-01  1.50D+00  6.87D-01  6.27D-01  8.77D-01
                    CP:  9.16D-01  1.12D+00  1.30D+00  1.56D+00  1.76D+00
                    CP:  1.19D+00
 E= -4069.81166526290     Delta-E=       -0.000000276967 Rises=F Damp=F
 DIIS: error= 2.62D-06 at cycle  12 NSaved=  12.
 NSaved=12 IEnMin=12 EnMin= -4069.81166526290     IErMin=12 ErrMin= 2.62D-06
 ErrMax= 2.62D-06  0.00D+00 EMaxC= 1.00D-01 BMatC= 1.65D-08 BMatP= 6.76D-08
 IDIUse=1 WtCom= 1.00D+00 WtEn= 0.00D+00
 Coeff-Com: -0.119D-04 0.648D-05 0.227D-03 0.579D-03 0.350D-02 0.366D-02
 Coeff-Com:  0.164D-02-0.380D-01-0.716D-01-0.532D-01 0.260D+00 0.893D+00
 Coeff:     -0.119D-04 0.648D-05 0.227D-03 0.579D-03 0.350D-02 0.366D-02
 Coeff:      0.164D-02-0.380D-01-0.716D-01-0.532D-01 0.260D+00 0.893D+00
 Gap=     0.122 Goal=   None    Shift=    0.000
 RMSDP=4.40D-07 MaxDP=3.16D-05 DE=-2.77D-07 OVMax= 2.55D-04

 Cycle  13  Pass 1  IDiag  1:
 RMSU=  1.70D-07    CP:  9.64D-01  1.50D+00  6.87D-01  6.27D-01  8.77D-01
                    CP:  9.16D-01  1.13D+00  1.33D+00  1.67D+00  1.98D+00
                    CP:  1.59D+00  1.24D+00
 E= -4069.81166535877     Delta-E=       -0.000000095868 Rises=F Damp=F
 DIIS: error= 1.32D-06 at cycle  13 NSaved=  13.
 NSaved=13 IEnMin=13 EnMin= -4069.81166535877     IErMin=13 ErrMin= 1.32D-06
 ErrMax= 1.32D-06  0.00D+00 EMaxC= 1.00D-01 BMatC= 8.92D-09 BMatP= 1.65D-08
 IDIUse=1 WtCom= 1.00D+00 WtEn= 0.00D+00
 Coeff-Com:  0.120D-03-0.246D-03-0.365D-03-0.446D-03 0.691D-03 0.500D-02
 Coeff-Com:  0.190D-01 0.228D-01-0.338D-01-0.239D+00-0.159D+00 0.587D+00
 Coeff-Com:  0.797D+00
 Coeff:      0.120D-03-0.246D-03-0.365D-03-0.446D-03 0.691D-03 0.500D-02
 Coeff:      0.190D-01 0.228D-01-0.338D-01-0.239D+00-0.159D+00 0.587D+00
 Coeff:      0.797D+00
 Gap=     0.122 Goal=   None    Shift=    0.000
 RMSDP=3.55D-07 MaxDP=2.41D-05 DE=-9.59D-08 OVMax= 2.12D-04

 Cycle  14  Pass 1  IDiag  1:
 RMSU=  7.83D-08    CP:  9.64D-01  1.50D+00  6.87D-01  6.27D-01  8.78D-01
                    CP:  9.16D-01  1.14D+00  1.35D+00  1.75D+00  2.18D+00
                    CP:  1.85D+00  1.76D+00  1.11D+00
 E= -4069.81166539852     Delta-E=       -0.000000039752 Rises=F Damp=F
 DIIS: error= 7.28D-07 at cycle  14 NSaved=  14.
 NSaved=14 IEnMin=14 EnMin= -4069.81166539852     IErMin=14 ErrMin= 7.28D-07
 ErrMax= 7.28D-07  0.00D+00 EMaxC= 1.00D-01 BMatC= 1.36D-09 BMatP= 8.92D-09
 IDIUse=1 WtCom= 1.00D+00 WtEn= 0.00D+00
 Coeff-Com:  0.685D-04-0.135D-03-0.253D-03-0.395D-03-0.456D-03 0.128D-02
 Coeff-Com:  0.105D-01 0.198D-01 0.427D-02-0.102D+00-0.146D+00 0.866D-01
 Coeff-Com:  0.408D+00 0.718D+00
 Coeff:      0.685D-04-0.135D-03-0.253D-03-0.395D-03-0.456D-03 0.128D-02
 Coeff:      0.105D-01 0.198D-01 0.427D-02-0.102D+00-0.146D+00 0.866D-01
 Coeff:      0.408D+00 0.718D+00
 Gap=     0.122 Goal=   None    Shift=    0.000
 RMSDP=1.09D-07 MaxDP=7.25D-06 DE=-3.98D-08 OVMax= 5.94D-05

 Cycle  15  Pass 1  IDiag  1:
 RMSU=  3.89D-08    CP:  9.64D-01  1.50D+00  6.87D-01  6.27D-01  8.78D-01
                    CP:  9.16D-01  1.14D+00  1.36D+00  1.77D+00  2.22D+00
                    CP:  1.96D+00  1.91D+00  1.34D+00  1.04D+00
 E= -4069.81166540287     Delta-E=       -0.000000004351 Rises=F Damp=F
 DIIS: error= 3.35D-07 at cycle  15 NSaved=  15.
 NSaved=15 IEnMin=15 EnMin= -4069.81166540287     IErMin=15 ErrMin= 3.35D-07
 ErrMax= 3.35D-07  0.00D+00 EMaxC= 1.00D-01 BMatC= 2.30D-10 BMatP= 1.36D-09
 IDIUse=1 WtCom= 1.00D+00 WtEn= 0.00D+00
 Coeff-Com:  0.637D-05-0.109D-04-0.363D-04-0.871D-04-0.299D-03-0.510D-03
 Coeff-Com:  0.121D-02 0.285D-02 0.877D-02 0.264D-03-0.310D-01-0.719D-01
 Coeff-Com:  0.339D-01 0.295D+00 0.762D+00
 Coeff:      0.637D-05-0.109D-04-0.363D-04-0.871D-04-0.299D-03-0.510D-03
 Coeff:      0.121D-02 0.285D-02 0.877D-02 0.264D-03-0.310D-01-0.719D-01
 Coeff:      0.339D-01 0.295D+00 0.762D+00
 Gap=     0.122 Goal=   None    Shift=    0.000
 RMSDP=3.95D-08 MaxDP=2.68D-06 DE=-4.35D-09 OVMax= 2.79D-05

 Cycle  16  Pass 1  IDiag  1:
 RMSU=  1.88D-08    CP:  9.64D-01  1.50D+00  6.87D-01  6.27D-01  8.78D-01
                    CP:  9.16D-01  1.14D+00  1.36D+00  1.77D+00  2.24D+00
                    CP:  1.99D+00  1.96D+00  1.42D+00  1.24D+00  1.15D+00
 E= -4069.81166540322     Delta-E=       -0.000000000346 Rises=F Damp=F
 DIIS: error= 1.85D-07 at cycle  16 NSaved=  16.
 NSaved=16 IEnMin=16 EnMin= -4069.81166540322     IErMin=16 ErrMin= 1.85D-07
 ErrMax= 1.85D-07  0.00D+00 EMaxC= 1.00D-01 BMatC= 8.74D-11 BMatP= 2.30D-10
 IDIUse=1 WtCom= 1.00D+00 WtEn= 0.00D+00
 Coeff-Com: -0.140D-04 0.285D-04 0.460D-04 0.517D-04-0.330D-04-0.629D-03
 Coeff-Com: -0.186D-02-0.419D-02 0.429D-02 0.250D-01 0.210D-01-0.633D-01
 Coeff-Com: -0.799D-01-0.414D-01 0.398D+00 0.743D+00
 Coeff:     -0.140D-04 0.285D-04 0.460D-04 0.517D-04-0.330D-04-0.629D-03
 Coeff:     -0.186D-02-0.419D-02 0.429D-02 0.250D-01 0.210D-01-0.633D-01
 Coeff:     -0.799D-01-0.414D-01 0.398D+00 0.743D+00
 Gap=     0.122 Goal=   None    Shift=    0.000
 RMSDP=2.35D-08 MaxDP=1.67D-06 DE=-3.46D-10 OVMax= 1.26D-05

 Cycle  17  Pass 1  IDiag  1:
 RMSU=  1.05D-08    CP:  9.64D-01  1.50D+00  6.87D-01  6.27D-01  8.78D-01
                    CP:  9.16D-01  1.14D+00  1.36D+00  1.77D+00  2.24D+00
                    CP:  2.00D+00  1.99D+00  1.47D+00  1.34D+00  1.44D+00
                    CP:  1.25D+00
 E= -4069.81166540361     Delta-E=       -0.000000000393 Rises=F Damp=F
 DIIS: error= 9.06D-08 at cycle  17 NSaved=  17.
 NSaved=17 IEnMin=17 EnMin= -4069.81166540361     IErMin=17 ErrMin= 9.06D-08
 ErrMax= 9.06D-08  0.00D+00 EMaxC= 1.00D-01 BMatC= 1.84D-11 BMatP= 8.74D-11
 IDIUse=1 WtCom= 1.00D+00 WtEn= 0.00D+00
 Coeff-Com: -0.740D-05 0.144D-04 0.290D-04 0.428D-04 0.816D-04-0.130D-03
 Coeff-Com: -0.919D-03-0.284D-02 0.397D-04 0.946D-02 0.177D-01-0.763D-02
 Coeff-Com: -0.353D-01-0.101D+00-0.259D-01 0.289D+00 0.858D+00
 Coeff:     -0.740D-05 0.144D-04 0.290D-04 0.428D-04 0.816D-04-0.130D-03
 Coeff:     -0.919D-03-0.284D-02 0.397D-04 0.946D-02 0.177D-01-0.763D-02
 Coeff:     -0.353D-01-0.101D+00-0.259D-01 0.289D+00 0.858D+00
 Gap=     0.122 Goal=   None    Shift=    0.000
 RMSDP=1.36D-08 MaxDP=1.06D-06 DE=-3.93D-10 OVMax= 9.36D-06

 Cycle  18  Pass 1  IDiag  1:
 RMSU=  5.01D-09    CP:  9.64D-01  1.50D+00  6.87D-01  6.27D-01  8.78D-01
                    CP:  9.16D-01  1.14D+00  1.36D+00  1.77D+00  2.24D+00
                    CP:  2.01D+00  1.99D+00  1.48D+00  1.40D+00  1.61D+00
                    CP:  1.65D+00  1.38D+00
 E= -4069.81166540394     Delta-E=       -0.000000000331 Rises=F Damp=F
 DIIS: error= 6.18D-08 at cycle  18 NSaved=  18.
 NSaved=18 IEnMin=18 EnMin= -4069.81166540394     IErMin=18 ErrMin= 6.18D-08
 ErrMax= 6.18D-08  0.00D+00 EMaxC= 1.00D-01 BMatC= 7.54D-12 BMatP= 1.84D-11
 IDIUse=1 WtCom= 1.00D+00 WtEn= 0.00D+00
 Coeff-Com:  0.163D-05-0.359D-05-0.302D-05 0.408D-06 0.618D-04 0.169D-03
 Coeff-Com:  0.339D-03 0.104D-03-0.123D-02-0.545D-02 0.433D-03 0.183D-01
 Coeff-Com:  0.166D-01-0.340D-01-0.156D+00-0.180D+00 0.373D+00 0.968D+00
 Coeff:      0.163D-05-0.359D-05-0.302D-05 0.408D-06 0.618D-04 0.169D-03
 Coeff:      0.339D-03 0.104D-03-0.123D-02-0.545D-02 0.433D-03 0.183D-01
 Coeff:      0.166D-01-0.340D-01-0.156D+00-0.180D+00 0.373D+00 0.968D+00
 Gap=     0.122 Goal=   None    Shift=    0.000
 RMSDP=1.15D-08 MaxDP=7.83D-07 DE=-3.31D-10 OVMax= 6.21D-06

 Cycle  19  Pass 1  IDiag  1:
 RMSU=  2.94D-09    CP:  9.64D-01  1.50D+00  6.87D-01  6.27D-01  8.78D-01
                    CP:  9.16D-01  1.14D+00  1.36D+00  1.77D+00  2.24D+00
                    CP:  2.01D+00  2.00D+00  1.50D+00  1.45D+00  1.75D+00
                    CP:  1.96D+00  1.92D+00  1.32D+00
 E= -4069.81166540381     Delta-E=        0.000000000135 Rises=F Damp=F
 DIIS: error= 3.17D-08 at cycle  19 NSaved=  19.
 NSaved=19 IEnMin=18 EnMin= -4069.81166540394     IErMin=19 ErrMin= 3.17D-08
 ErrMax= 3.17D-08  0.00D+00 EMaxC= 1.00D-01 BMatC= 1.71D-12 BMatP= 7.54D-12
 IDIUse=1 WtCom= 1.00D+00 WtEn= 0.00D+00
 Coeff-Com:  0.295D-05-0.596D-05-0.990D-05-0.121D-04 0.148D-04 0.124D-03
 Coeff-Com:  0.468D-03 0.805D-03-0.601D-03-0.605D-02-0.488D-02 0.122D-01
 Coeff-Com:  0.206D-01 0.109D-01-0.738D-01-0.186D+00-0.217D-01 0.512D+00
 Coeff-Com:  0.736D+00
 Coeff:      0.295D-05-0.596D-05-0.990D-05-0.121D-04 0.148D-04 0.124D-03
 Coeff:      0.468D-03 0.805D-03-0.601D-03-0.605D-02-0.488D-02 0.122D-01
 Coeff:      0.206D-01 0.109D-01-0.738D-01-0.186D+00-0.217D-01 0.512D+00
 Coeff:      0.736D+00
 Gap=     0.122 Goal=   None    Shift=    0.000
 RMSDP=4.84D-09 MaxDP=3.52D-07 DE= 1.35D-10 OVMax= 3.46D-06

 SCF Done:  E(RCAM-B3LYP) =  -4069.81166540     A.U. after   19 cycles
            NFock= 19  Conv=0.48D-08     -V/T= 2.0102
 KE= 4.028802029543D+03 PE=-3.798678543033D+04 EE= 1.563527432697D+04
 Leave Link  502 at Sat Sep 11 07:02:48 2021, MaxMem= 23488102400 cpu:           12226.1 elap:             532.8
 (Enter /sw/apps/gaussian-16.0/g16/l801.exe)
 DoSCS=F DFT=T ScalE2(SS,OS)=  1.000000  1.000000
 ExpMin= 3.36D-02 ExpMax= 4.95D+03 ExpMxC= 7.45D+02 IAcc=3 IRadAn=         5 AccDes= 0.00D+00
 HarFok:  IExCor=  205 AccDes= 0.00D+00 IRadAn=         5 IDoV=-2 UseB2=F ITyADJ=14
 ICtDFT= 12500011 ScaDFX=  1.000000  1.000000  1.000000  1.000000
 GSVD:  LWork=       -9588 too small for GESVD, short by       45590 words or       45590 for optimal perf.
 Largest valence mixing into a core orbital is  2.03D-04
 Largest core mixing into a valence orbital is  5.24D-05
 Range of M.O.s used for correlation:    95  1572
 NBasis=  1572 NAE=   312 NBE=   312 NFC=    94 NFV=     0
 NROrb=   1478 NOA=   218 NOB=   218 NVA=  1260 NVB=  1260
 Leave Link  801 at Sat Sep 11 07:02:48 2021, MaxMem= 23488102400 cpu:               8.8 elap:               0.4
 (Enter /sw/apps/gaussian-16.0/g16/l914.exe)
 RHF ground state
 Two-electron integrals replicated using symmetry.
 MDV= 23488102400 DFT=T DoStab=F Mixed=T DoRPA=T DoScal=F NonHer=T
 Making orbital integer symmetry assigments:
 Orbital symmetries:
       Occupied  (A) (A) (A) (A) (A) (A) (A) (A) (A) (A) (A) (A)
                 (A) (A) (A) (A) (A) (A) (A) (A) (A) (A) (A) (A)
                 (A) (A) (A) (A) (A) (A) (A) (A) (A) (A) (A) (A)
                 (A) (A) (A) (A) (A) (A) (A) (A) (A) (A) (A) (A)
                 (A) (A) (A) (A) (A) (A) (A) (A) (A) (A) (A) (A)
                 (A) (A) (A) (A) (A) (A) (A) (A) (A) (A) (A) (A)
                 (A) (A) (A) (A) (A) (A) (A) (A) (A) (A) (A) (A)
                 (A) (A) (A) (A) (A) (A) (A) (A) (A) (A) (A) (A)
                 (A) (A) (A) (A) (A) (A) (A) (A) (A) (A) (A) (A)
                 (A) (A) (A) (A) (A) (A) (A) (A) (A) (A) (A) (A)
                 (A) (A) (A) (A) (A) (A) (A) (A) (A) (A) (A) (A)
                 (A) (A) (A) (A) (A) (A) (A) (A) (A) (A) (A) (A)
                 (A) (A) (A) (A) (A) (A) (A) (A) (A) (A) (A) (A)
                 (A) (A) (A) (A) (A) (A) (A) (A) (A) (A) (A) (A)
                 (A) (A) (A) (A) (A) (A) (A) (A) (A) (A) (A) (A)
                 (A) (A) (A) (A) (A) (A) (A) (A) (A) (A) (A) (A)
                 (A) (A) (A) (A) (A) (A) (A) (A) (A) (A) (A) (A)
                 (A) (A) (A) (A) (A) (A) (A) (A) (A) (A) (A) (A)
                 (A) (A) (A) (A) (A) (A) (A) (A) (A) (A) (A) (A)
                 (A) (A) (A) (A) (A) (A) (A) (A) (A) (A) (A) (A)
                 (A) (A) (A) (A) (A) (A) (A) (A) (A) (A) (A) (A)
                 (A) (A) (A) (A) (A) (A) (A) (A) (A) (A) (A) (A)
                 (A) (A) (A) (A) (A) (A) (A) (A) (A) (A) (A) (A)
                 (A) (A) (A) (A) (A) (A) (A) (A) (A) (A) (A) (A)
                 (A) (A) (A) (A) (A) (A) (A) (A) (A) (A) (A) (A)
                 (A) (A) (A) (A) (A) (A) (A) (A) (A) (A) (A) (A)
       Virtual   (A) (A) (A) (A) (A) (A) (A) (A) (A) (A) (A) (A)
                 (A) (A) (A) (A) (A) (A) (A) (A) (A) (A) (A) (A)
                 (A) (A) (A) (A) (A) (A) (A) (A) (A) (A) (A) (A)
                 (A) (A) (A) (A) (A) (A) (A) (A) (A) (A) (A) (A)
                 (A) (A) (A) (A) (A) (A) (A) (A) (A) (A) (A) (A)
                 (A) (A) (A) (A) (A) (A) (A) (A) (A) (A) (A) (A)
                 (A) (A) (A) (A) (A) (A) (A) (A) (A) (A) (A) (A)
                 (A) (A) (A) (A) (A) (A) (A) (A) (A) (A) (A) (A)
                 (A) (A) (A) (A) (A) (A) (A) (A) (A) (A) (A) (A)
                 (A) (A) (A) (A) (A) (A) (A) (A) (A) (A) (A) (A)
                 (A) (A) (A) (A) (A) (A) (A) (A) (A) (A) (A) (A)
                 (A) (A) (A) (A) (A) (A) (A) (A) (A) (A) (A) (A)
                 (A) (A) (A) (A) (A) (A) (A) (A) (A) (A) (A) (A)
                 (A) (A) (A) (A) (A) (A) (A) (A) (A) (A) (A) (A)
                 (A) (A) (A) (A) (A) (A) (A) (A) (A) (A) (A) (A)
                 (A) (A) (A) (A) (A) (A) (A) (A) (A) (A) (A) (A)
                 (A) (A) (A) (A) (A) (A) (A) (A) (A) (A) (A) (A)
                 (A) (A) (A) (A) (A) (A) (A) (A) (A) (A) (A) (A)
                 (A) (A) (A) (A) (A) (A) (A) (A) (A) (A) (A) (A)
                 (A) (A) (A) (A) (A) (A) (A) (A) (A) (A) (A) (A)
                 (A) (A) (A) (A) (A) (A) (A) (A) (A) (A) (A) (A)
                 (A) (A) (A) (A) (A) (A) (A) (A) (A) (A) (A) (A)
                 (A) (A) (A) (A) (A) (A) (A) (A) (A) (A) (A) (A)
                 (A) (A) (A) (A) (A) (A) (A) (A) (A) (A) (A) (A)
                 (A) (A) (A) (A) (A) (A) (A) (A) (A) (A) (A) (A)
                 (A) (A) (A) (A) (A) (A) (A) (A) (A) (A) (A) (A)
                 (A) (A) (A) (A) (A) (A) (A) (A) (A) (A) (A) (A)
                 (A) (A) (A) (A) (A) (A) (A) (A) (A) (A) (A) (A)
                 (A) (A) (A) (A) (A) (A) (A) (A) (A) (A) (A) (A)
                 (A) (A) (A) (A) (A) (A) (A) (A) (A) (A) (A) (A)
                 (A) (A) (A) (A) (A) (A) (A) (A) (A) (A) (A) (A)
                 (A) (A) (A) (A) (A) (A) (A) (A) (A) (A) (A) (A)
                 (A) (A) (A) (A) (A) (A) (A) (A) (A) (A) (A) (A)
                 (A) (A) (A) (A) (A) (A) (A) (A) (A) (A) (A) (A)
                 (A) (A) (A) (A) (A) (A) (A) (A) (A) (A) (A) (A)
                 (A) (A) (A) (A) (A) (A) (A) (A) (A) (A) (A) (A)
                 (A) (A) (A) (A) (A) (A) (A) (A) (A) (A) (A) (A)
                 (A) (A) (A) (A) (A) (A) (A) (A) (A) (A) (A) (A)
                 (A) (A) (A) (A) (A) (A) (A) (A) (A) (A) (A) (A)
                 (A) (A) (A) (A) (A) (A) (A) (A) (A) (A) (A) (A)
                 (A) (A) (A) (A) (A) (A) (A) (A) (A) (A) (A) (A)
                 (A) (A) (A) (A) (A) (A) (A) (A) (A) (A) (A) (A)
                 (A) (A) (A) (A) (A) (A) (A) (A) (A) (A) (A) (A)
                 (A) (A) (A) (A) (A) (A) (A) (A) (A) (A) (A) (A)
                 (A) (A) (A) (A) (A) (A) (A) (A) (A) (A) (A) (A)
                 (A) (A) (A) (A) (A) (A) (A) (A) (A) (A) (A) (A)
                 (A) (A) (A) (A) (A) (A) (A) (A) (A) (A) (A) (A)
                 (A) (A) (A) (A) (A) (A) (A) (A) (A) (A) (A) (A)
                 (A) (A) (A) (A) (A) (A) (A) (A) (A) (A) (A) (A)
                 (A) (A) (A) (A) (A) (A) (A) (A) (A) (A) (A) (A)
                 (A) (A) (A) (A) (A) (A) (A) (A) (A) (A) (A) (A)
                 (A) (A) (A) (A) (A) (A) (A) (A) (A) (A) (A) (A)
                 (A) (A) (A) (A) (A) (A) (A) (A) (A) (A) (A) (A)
                 (A) (A) (A) (A) (A) (A) (A) (A) (A) (A) (A) (A)
                 (A) (A) (A) (A) (A) (A) (A) (A) (A) (A) (A) (A)
                 (A) (A) (A) (A) (A) (A) (A) (A) (A) (A) (A) (A)
                 (A) (A) (A) (A) (A) (A) (A) (A) (A) (A) (A) (A)
                 (A) (A) (A) (A) (A) (A) (A) (A) (A) (A) (A) (A)
                 (A) (A) (A) (A) (A) (A) (A) (A) (A) (A) (A) (A)
                 (A) (A) (A) (A) (A) (A) (A) (A) (A) (A) (A) (A)
                 (A) (A) (A) (A) (A) (A) (A) (A) (A) (A) (A) (A)
                 (A) (A) (A) (A) (A) (A) (A) (A) (A) (A) (A) (A)
                 (A) (A) (A) (A) (A) (A) (A) (A) (A) (A) (A) (A)
                 (A) (A) (A) (A) (A) (A) (A) (A) (A) (A) (A) (A)
                 (A) (A) (A) (A) (A) (A) (A) (A) (A) (A) (A) (A)
                 (A) (A) (A) (A) (A) (A) (A) (A) (A) (A) (A) (A)
                 (A) (A) (A) (A) (A) (A) (A) (A) (A) (A) (A) (A)
                 (A) (A) (A) (A) (A) (A) (A) (A) (A) (A) (A) (A)
                 (A) (A) (A) (A) (A) (A) (A) (A) (A) (A) (A) (A)
                 (A) (A) (A) (A) (A) (A) (A) (A) (A) (A) (A) (A)
                 (A) (A) (A) (A) (A) (A) (A) (A) (A) (A) (A) (A)
                 (A) (A) (A) (A) (A) (A) (A) (A) (A) (A) (A) (A)
                 (A) (A) (A) (A) (A) (A) (A) (A) (A) (A) (A) (A)
                 (A) (A) (A) (A) (A) (A) (A) (A) (A) (A) (A) (A)
                 (A) (A) (A) (A) (A) (A) (A) (A) (A) (A) (A) (A)
                 (A) (A) (A) (A) (A) (A) (A) (A) (A) (A) (A) (A)
                 (A) (A) (A) (A) (A) (A) (A) (A) (A) (A) (A) (A)
                 (A) (A) (A) (A) (A) (A) (A) (A) (A) (A) (A) (A)
                 (A) (A) (A) (A) (A) (A) (A) (A) (A) (A) (A) (A)
                 (A) (A) (A) (A) (A) (A) (A) (A) (A) (A) (A) (A)
                 (A) (A) (A) (A) (A) (A) (A) (A) (A) (A) (A) (A)
                 (A) (A) (A) (A) (A) (A) (A) (A) (A) (A) (A) (A)
                 (A) (A) (A) (A) (A) (A) (A) (A) (A) (A) (A) (A)
                 (A) (A) (A) (A) (A) (A) (A) (A) (A) (A) (A) (A)
                 (A) (A) (A) (A) (A) (A) (A) (A) (A) (A) (A) (A)
                 (A) (A) (A) (A) (A) (A) (A) (A) (A) (A) (A) (A)
                 (A) (A) (A) (A) (A) (A) (A) (A) (A) (A) (A) (A)
                 (A) (A) (A) (A) (A) (A) (A) (A) (A) (A) (A) (A)
                 (A) (A) (A) (A) (A) (A) (A) (A) (A) (A) (A) (A)
                 (A) (A) (A) (A) (A) (A) (A) (A) (A) (A) (A) (A)
                 (A) (A) (A) (A) (A) (A) (A) (A) (A) (A) (A) (A)
                 (A) (A) (A) (A) (A) (A) (A) (A) (A) (A) (A) (A)
                 (A) (A) (A) (A) (A) (A) (A) (A) (A) (A) (A) (A)
                 (A) (A) (A) (A) (A) (A) (A) (A) (A) (A) (A) (A)
                 (A) (A) (A) (A) (A) (A) (A) (A) (A) (A) (A) (A)
                 (A) (A) (A) (A) (A) (A) (A) (A) (A) (A) (A) (A)
                 (A) (A) (A) (A) (A) (A) (A) (A) (A) (A) (A) (A)
                 (A) (A) (A) (A) (A) (A) (A) (A) (A) (A) (A) (A)
                 (A) (A) (A) (A) (A) (A) (A) (A) (A) (A) (A) (A)
                 (A) (A) (A) (A) (A) (A) (A) (A) (A) (A) (A) (A)
                 (A) (A) (A) (A) (A) (A) (A) (A) (A) (A) (A) (A)
                 (A) (A) (A) (A) (A) (A) (A) (A) (A) (A) (A) (A)
                 (A) (A) (A) (A) (A) (A) (A) (A) (A) (A) (A) (A)
                 (A) (A) (A) (A) (A) (A) (A) (A) (A) (A) (A) (A)
                 (A) (A) (A) (A) (A) (A) (A) (A) (A) (A) (A) (A)
    20 initial guesses have been made.
 Convergence on wavefunction:    0.001000000000000
 Davidson Disk Diagonalization:  ConvIn= 1.00D-03 SkipCon=T Conv= 1.00D-03.
 Max sub-space:  2000 roots to seek:    20 dimension of matrix:       549360
 Iteration     1 Dimension    20 NMult     0 NNew     20
 CISAX will form    20 AO SS matrices at one time.
 NMat=    20 NSing=    20 JSym2X= 0.
 FoFJK:  IHMeth= 1 ICntrl=       0 DoSepK=T KAlg= 0 I1Cent=           0 FoldK=F
 IRaf=         1 NMat=      40 IRICut=       1 DoRegI=T DoRafI=F ISym2E= 0 IDoP0=3 IntGTp=3.
 FoFCou: FMM=T IPFlag=           0 FMFlag=      100000 FMFlg1=        2001
         NFxFlg=           0 DoJE=F BraDBF=F KetDBF=F FulRan=T
         wScrn=  0.000000 ICntrl=       500 IOpCl=  0 I1Cent=           0 NGrid=           0
         NMat0=   20 NMatS0=     20 NMatT0=    0 NMatD0=   20 NMtDS0=    0 NMtDT0=    0
 Symmetry not used in FoFCou.
 FMM levels:  10  Number of levels for PrismC:   9
 New state      1 was old state      7
 New state      2 was old state      6
 New state      3 was old state      1
 New state      4 was old state      2
 New state      5 was old state      3
 Excitation Energies [eV] at current iteration:
 Root      1 :     2.612297704882883
 Root      2 :     2.620656949702610
 Root      3 :     2.648662866720291
 Root      4 :     2.659167757274774
 Root      5 :     2.711769720245686
 Root      6 :     2.740398323777253
 Root      7 :     3.437514434271205
 Root      8 :     3.541258253321520
 Root      9 :     3.625369979430213
 Root     10 :     3.668127784504370
 Root     11 :     3.739084694774441
 Root     12 :     3.759432961993016
 Root     13 :     4.283653670376648
 Root     14 :     4.324695545172534
 Root     15 :     4.555507592381261
 Root     16 :     4.673632208310175
 Root     17 :     4.864032438317476
 Root     18 :     4.901140814757342
 Root     19 :     4.964646594095511
 Root     20 :     4.998677060938478
 Iteration     2 Dimension    30 NMult    20 NNew     10
 CISAX will form    10 AO SS matrices at one time.
 NMat=    10 NSing=    10 JSym2X= 0.
 New state      1 was old state      4
 Root      1 not converged, maximum delta is    0.147179484766743
 New state      2 was old state      5
 Root      2 not converged, maximum delta is    0.153253024527786
 New state      3 was old state      1
 Root      3 not converged, maximum delta is    0.331495742278371
 New state      4 was old state      2
 Root      4 not converged, maximum delta is    0.317308395819750
 New state      5 was old state      3
 Root      5 not converged, maximum delta is    0.001213501546016
 Excitation Energies [eV] at current iteration:
 Root      1 :     1.791177673687166   Change is   -0.867990083587607
 Root      2 :     1.816532668265242   Change is   -0.895237051980444
 Root      3 :     2.233799658524281   Change is   -0.378498046358602
 Root      4 :     2.240684962407106   Change is   -0.379971987295504
 Root      5 :     2.648494694493348   Change is   -0.000168172226943
 Iteration     3 Dimension    40 NMult    30 NNew     10
 CISAX will form    10 AO SS matrices at one time.
 NMat=    10 NSing=    10 JSym2X= 0.
 Root      1 not converged, maximum delta is    0.054599957395149
 Root      2 not converged, maximum delta is    0.055489582265153
 Root      3 not converged, maximum delta is    0.102399290615186
 Root      4 not converged, maximum delta is    0.101887532780811
 Root      5 has converged.
 Excitation Energies [eV] at current iteration:
 Root      1 :     1.684690463757123   Change is   -0.106487209930043
 Root      2 :     1.707571377722661   Change is   -0.108961290542582
 Root      3 :     2.192633918587446   Change is   -0.041165739936835
 Root      4 :     2.201333231638951   Change is   -0.039351730768155
 Root      5 :     2.648493924313238   Change is   -0.000000770180110
 Iteration     4 Dimension    48 NMult    40 NNew      8
 CISAX will form     8 AO SS matrices at one time.
 NMat=     8 NSing=     8 JSym2X= 0.
 Root      1 not converged, maximum delta is    0.010539010546114
 Root      2 not converged, maximum delta is    0.010375076548272
 Root      3 not converged, maximum delta is    0.014281911794562
 Root      4 not converged, maximum delta is    0.014127642632134
 Root      5 has converged.
 Excitation Energies [eV] at current iteration:
 Root      1 :     1.667987323752696   Change is   -0.016703140004427
 Root      2 :     1.690691146618516   Change is   -0.016880231104144
 Root      3 :     2.185352388938421   Change is   -0.007281529649026
 Root      4 :     2.194507730391897   Change is   -0.006825501247054
 Root      5 :     2.648493924310972   Change is   -0.000000000002266
 Iteration     5 Dimension    56 NMult    48 NNew      8
 CISAX will form     8 AO SS matrices at one time.
 NMat=     8 NSing=     8 JSym2X= 0.
 Root      1 not converged, maximum delta is    0.001688250451681
 Root      2 not converged, maximum delta is    0.001740911278030
 Root      3 not converged, maximum delta is    0.002427345170880
 Root      4 not converged, maximum delta is    0.002264928904293
 Root      5 has converged.
 Excitation Energies [eV] at current iteration:
 Root      1 :     1.666236795851876   Change is   -0.001750527900820
 Root      2 :     1.688892273563781   Change is   -0.001798873054735
 Root      3 :     2.184505670666090   Change is   -0.000846718272330
 Root      4 :     2.193729947955060   Change is   -0.000777782436837
 Root      5 :     2.648493924309947   Change is   -0.000000000001025
 Iteration     6 Dimension    64 NMult    56 NNew      8
 CISAX will form     8 AO SS matrices at one time.
 NMat=     8 NSing=     8 JSym2X= 0.
 Root      1 not converged, maximum delta is    0.001059268966588
 Root      2 not converged, maximum delta is    0.001073554516773
 Root      3 not converged, maximum delta is    0.001031201758740
 Root      4 has converged.
 Root      5 has converged.
 Excitation Energies [eV] at current iteration:
 Root      1 :     1.665987674010596   Change is   -0.000249121841280
 Root      2 :     1.688633900158015   Change is   -0.000258373405767
 Root      3 :     2.184377299500619   Change is   -0.000128371165471
 Root      4 :     2.193611275384598   Change is   -0.000118672570461
 Root      5 :     2.648493924309389   Change is   -0.000000000000559
 Iteration     7 Dimension    70 NMult    64 NNew      6
 CISAX will form     6 AO SS matrices at one time.
 NMat=     6 NSing=     6 JSym2X= 0.
 Root      1 has converged.
 Root      2 has converged.
 Root      3 has converged.
 Root      4 has converged.
 Root      5 has converged.
 Excitation Energies [eV] at current iteration:
 Root      1 :     1.665963368362404   Change is   -0.000024305648192
[...]
 Alpha virt. eigenvalues --    1.85178   1.85253   1.85382   1.85472   1.85546
 Alpha virt. eigenvalues --    1.85847   1.85963   1.86341   1.86436   1.86538
 Alpha virt. eigenvalues --    1.86709   1.86763   1.86874   1.87016   1.87104
 Alpha virt. eigenvalues --    1.87418   1.87546   1.87656   1.87838   1.87846
 Alpha virt. eigenvalues --    1.88017   1.88071   1.88238   1.88511   1.88636
 Alpha virt. eigenvalues --    1.88792   1.89016   1.89108   1.89141   1.89608
 Alpha virt. eigenvalues --    1.89714   1.89728   1.89925   1.90097   1.90254
 Alpha virt. eigenvalues --    1.90727   1.90965   1.91323   1.91420   1.91484
 Alpha virt. eigenvalues --    1.91677   1.92132   1.92256   1.92578   1.92724
 Alpha virt. eigenvalues --    1.92964   1.93213   1.93323   1.93556   1.94260
 Alpha virt. eigenvalues --    1.94361   1.94671   1.94870   1.95462   1.95645
 Alpha virt. eigenvalues --    1.95697   1.95884   1.95963   1.96110   1.96133
 Alpha virt. eigenvalues --    1.96246   1.96545   1.96573   1.96874   1.96996
 Alpha virt. eigenvalues --    1.97428   1.97602   1.97815   1.97871   1.98141
 Alpha virt. eigenvalues --    1.98241   1.98424   1.98638   1.99108   1.99136
 Alpha virt. eigenvalues --    1.99786   2.00000   2.00641   2.00787   2.00970
 Alpha virt. eigenvalues --    2.01163   2.01436   2.01557   2.01655   2.01672
 Alpha virt. eigenvalues --    2.01690   2.01894   2.02757   2.02773   2.03198
 Alpha virt. eigenvalues --    2.03213   2.03376   2.03444   2.03452   2.03588
 Alpha virt. eigenvalues --    2.04009   2.04088   2.04938   2.05028   2.05495
 Alpha virt. eigenvalues --    2.05679   2.06060   2.06340   2.06871   2.07111
 Alpha virt. eigenvalues --    2.07167   2.07413   2.08574   2.08586   2.08956
 Alpha virt. eigenvalues --    2.09067   2.09557   2.09672   2.10766   2.11082
 Alpha virt. eigenvalues --    2.11162   2.11466   2.11494   2.11599   2.11702
 Alpha virt. eigenvalues --    2.11926   2.12433   2.12533   2.12783   2.12812
 Alpha virt. eigenvalues --    2.12855   2.12939   2.13709   2.13717   2.14126
 Alpha virt. eigenvalues --    2.14309   2.15313   2.15458   2.15899   2.16157
 Alpha virt. eigenvalues --    2.16506   2.16651   2.16740   2.17239   2.17393
 Alpha virt. eigenvalues --    2.17684   2.17700   2.18011   2.18056   2.18056
 Alpha virt. eigenvalues --    2.18294   2.18743   2.18831   2.19311   2.19610
 Alpha virt. eigenvalues --    2.19883   2.20004   2.20192   2.20307   2.20498
 Alpha virt. eigenvalues --    2.21139   2.21216   2.21650   2.21722   2.21825
 Alpha virt. eigenvalues --    2.21937   2.22656   2.22763   2.23297   2.23400
 Alpha virt. eigenvalues --    2.24377   2.24467   2.24946   2.25045   2.26267
 Alpha virt. eigenvalues --    2.26508   2.26758   2.27067   2.27074   2.27269
 Alpha virt. eigenvalues --    2.28107   2.28389   2.29245   2.29497   2.29704
 Alpha virt. eigenvalues --    2.29947   2.30416   2.30695   2.30897   2.31052
 Alpha virt. eigenvalues --    2.31147   2.31257   2.32102   2.32289   2.33104
 Alpha virt. eigenvalues --    2.33297   2.33434   2.33542   2.34115   2.34198
 Alpha virt. eigenvalues --    2.35335   2.35371   2.35764   2.35975   2.36338
 Alpha virt. eigenvalues --    2.36387   2.36491   2.36600   2.37645   2.37727
 Alpha virt. eigenvalues --    2.38241   2.38419   2.38811   2.38846   2.39584
 Alpha virt. eigenvalues --    2.39725   2.40158   2.40314   2.40448   2.40893
 Alpha virt. eigenvalues --    2.41221   2.41272   2.41664   2.41738   2.42006
 Alpha virt. eigenvalues --    2.42194   2.42859   2.42926   2.43140   2.43486
 Alpha virt. eigenvalues --    2.44022   2.44136   2.44703   2.44857   2.44874
 Alpha virt. eigenvalues --    2.45052   2.45530   2.45622   2.46285   2.46331
 Alpha virt. eigenvalues --    2.46455   2.46545   2.46772   2.46858   2.47235
 Alpha virt. eigenvalues --    2.47429   2.47690   2.47934   2.49292   2.49425
 Alpha virt. eigenvalues --    2.49930   2.50049   2.50489   2.50529   2.51082
 Alpha virt. eigenvalues --    2.51331   2.51650   2.51849   2.52393   2.52450
 Alpha virt. eigenvalues --    2.52775   2.53224   2.53895   2.54010   2.54135
 Alpha virt. eigenvalues --    2.54309   2.54768   2.54858   2.55500   2.55714
 Alpha virt. eigenvalues --    2.57840   2.58120   2.58620   2.58952   2.60170
 Alpha virt. eigenvalues --    2.60364   2.60569   2.60977   2.61686   2.61863
 Alpha virt. eigenvalues --    2.62474   2.62494   2.62928   2.63176   2.63902
 Alpha virt. eigenvalues --    2.64227   2.64273   2.64460   2.65051   2.65144
 Alpha virt. eigenvalues --    2.65742   2.65911   2.66755   2.66853   2.66880
 Alpha virt. eigenvalues --    2.67108   2.67883   2.68027   2.68825   2.68853
 Alpha virt. eigenvalues --    2.68988   2.69086   2.69364   2.69638   2.69968
 Alpha virt. eigenvalues --    2.70177   2.70950   2.71118   2.71936   2.72022
 Alpha virt. eigenvalues --    2.72541   2.72624   2.72783   2.72791   2.73256
 Alpha virt. eigenvalues --    2.73314   2.73490   2.73524   2.74485   2.74550
 Alpha virt. eigenvalues --    2.74946   2.75098   2.76558   2.76568   2.77113
 Alpha virt. eigenvalues --    2.77206   2.77428   2.77636   2.78170   2.78314
 Alpha virt. eigenvalues --    2.78696   2.78725   2.79105   2.79197   2.80278
 Alpha virt. eigenvalues --    2.80319   2.80549   2.80734   2.81096   2.81190
 Alpha virt. eigenvalues --    2.81903   2.82037   2.82318   2.82373   2.83724
 Alpha virt. eigenvalues --    2.83744   2.83864   2.83956   2.84526   2.84556
 Alpha virt. eigenvalues --    2.84864   2.84916   2.85644   2.85712   2.86693
 Alpha virt. eigenvalues --    2.86968   2.87222   2.87564   2.88133   2.88253
 Alpha virt. eigenvalues --    2.88486   2.88653   2.88902   2.88911   2.90457
 Alpha virt. eigenvalues --    2.90696   2.91102   2.91169   2.93118   2.93362
 Alpha virt. eigenvalues --    2.93802   2.94171   2.94538   2.94588   2.95314
 Alpha virt. eigenvalues --    2.95517   2.95895   2.96158   2.96398   2.96411
 Alpha virt. eigenvalues --    2.96920   2.97132   2.97767   2.98040   2.98177
 Alpha virt. eigenvalues --    2.98347   2.98405   2.98584   2.98612   2.98823
 Alpha virt. eigenvalues --    2.98862   2.98950   2.99563   2.99805   2.99992
 Alpha virt. eigenvalues --    3.00065   3.00184   3.00349   3.00425   3.01037
 Alpha virt. eigenvalues --    3.01933   3.01965   3.02003   3.02155   3.02691
 Alpha virt. eigenvalues --    3.02851   3.02934   3.03301   3.03341   3.03763
 Alpha virt. eigenvalues --    3.04095   3.04147   3.04438   3.04456   3.04521
 Alpha virt. eigenvalues --    3.04761   3.05279   3.05367   3.06081   3.06194
 Alpha virt. eigenvalues --    3.06755   3.06975   3.07930   3.08122   3.09353
 Alpha virt. eigenvalues --    3.09369   3.09648   3.10402   3.10470   3.10779
 Alpha virt. eigenvalues --    3.11315   3.11498   3.11895   3.11910   3.12161
 Alpha virt. eigenvalues --    3.12347   3.13241   3.13621   3.13684   3.13705
 Alpha virt. eigenvalues --    3.14050   3.14529   3.15906   3.15993   3.17245
 Alpha virt. eigenvalues --    3.17554   3.17884   3.18062   3.19049   3.19108
 Alpha virt. eigenvalues --    3.22266   3.22644   3.23925   3.24476   3.24654
 Alpha virt. eigenvalues --    3.25237   3.26483   3.26689   3.27429   3.27596
 Alpha virt. eigenvalues --    3.29060   3.29271   3.31411   3.31502   3.33214
 Alpha virt. eigenvalues --    3.33396   3.40314   3.40585   3.42799   3.42830
 Alpha virt. eigenvalues --    3.48641   3.48736   3.49997   3.50311   3.50868
 Alpha virt. eigenvalues --    3.51452   3.56531   3.57031   3.59081   3.59366
 Alpha virt. eigenvalues --    3.62549   3.62817   3.66117   3.66173   3.67145
 Alpha virt. eigenvalues --    3.67594   3.73239   3.74072   3.76031   3.76730
          Condensed to atoms (all electrons):
 Mulliken charges:
               1
     1  Mg   0.838509
     2  C   -0.003130
     3  C   -0.094451
     4  C   -0.045764
     5  C   -0.063767
     6  N   -0.256747
     7  C   -0.052601
     8  C   -0.013957
     9  C   -0.086945
    10  C    0.046176
    11  C    0.104795
    12  C    0.053596
    13  C   -0.071451
    14  H    0.035132
    15  N   -0.433149
    16  C    0.168334
    17  C   -0.177308
    18  C   -0.003954
    19  C    0.148643
    20  C    0.110216
    21  C    0.012344
    22  O   -0.249442
    23  C    0.062488
    24  N   -0.341100
    25  C    0.041215
    26  C   -0.028216
    27  C   -0.023975
    28  C    0.074771
    29  C    0.076123
    30  C    0.035095
    31  C   -0.004512
    32  N   -0.310521
    33  C    0.080420
    34  C   -0.169435
    35  C    0.008502
    36  C    0.083008
    37  C    0.127242
    38  C    0.046265
    39  O   -0.188047
    40  C   -0.005448
    41  C    0.213021
    42  O   -0.257389
    43  O   -0.304688
    44  C    0.157711
    45  H   -0.017676
    46  H   -0.016708
    47  H   -0.041230
    48  H    0.001044
    49  H   -0.004347
    50  H    0.025588
    51  H    0.016615
    52  H    0.016632
    53  H    0.010755
    54  H    0.043839
    55  H    0.018261
    56  H    0.017700
    57  H    0.005667
    58  H    0.026958
    59  H    0.039211
    60  H    0.037317
    61  H    0.035936
    62  H    0.031293
    63  H    0.016586
    64  H    0.009617
    65  H    0.023310
    66  H    0.012568
    67  H    0.004868
    68  H    0.006422
    69  H    0.004942
    70  H    0.008704
    71  H    0.018124
    72  H    0.028951
    73  H    0.048019
    74  H    0.009290
    75  H    0.046116
    76  H    0.035254
    77  H    0.043263
    78  H    0.046045
    79  H    0.053460
    80  Mg   0.837975
    81  C   -0.016669
    82  C   -0.087803
    83  C   -0.045662
    84  C   -0.064858
    85  N   -0.254581
    86  C   -0.049316
    87  C   -0.015190
    88  C   -0.090645
    89  C    0.045941
    90  C    0.114376
    91  C    0.062564
    92  C   -0.077714
    93  H    0.034499
    94  N   -0.423437
    95  C    0.162865
    96  C   -0.174942
    97  C   -0.008060
    98  C    0.152097
    99  C    0.099566
   100  C    0.015325
   101  O   -0.253389
   102  C    0.061305
   103  N   -0.350012
   104  C    0.037580
   105  C   -0.019843
   106  C   -0.034795
   107  C    0.089046
   108  C    0.073675
   109  C    0.034764
   110  C   -0.007612
   111  N   -0.324219
   112  C    0.078707
   113  C   -0.162995
   114  C    0.002661
   115  C    0.096198
   116  C    0.131371
   117  C    0.042757
   118  O   -0.187410
   119  C    0.000747
   120  C    0.211152
   121  O   -0.251402
   122  O   -0.305201
   123  C    0.152143
   124  H   -0.020083
   125  H   -0.015819
   126  H   -0.040598
   127  H    0.000160
   128  H   -0.004937
   129  H    0.024420
   130  H    0.014408
   131  H    0.015917
   132  H    0.013588
   133  H    0.037572
   134  H    0.021142
   135  H    0.019182
   136  H    0.008484
   137  H    0.025434
   138  H    0.039425
   139  H    0.037836
   140  H    0.036070
   141  H    0.033795
   142  H    0.014145
   143  H    0.012422
   144  H    0.024929
   145  H    0.011882
   146  H    0.005707
   147  H    0.006078
   148  H    0.003542
   149  H    0.010815
   150  H    0.017729
   151  H    0.030198
   152  H    0.045912
   153  H    0.008188
   154  H    0.047666
   155  H    0.036554
   156  H    0.044112
   157  H    0.049296
   158  H    0.053268
 Sum of Mulliken charges =  -0.00000
 Mulliken charges with hydrogens summed into heavy atoms:
               1
     1  Mg   0.838509
     2  C   -0.003130
     3  C   -0.112128
     4  C   -0.062472
     5  C   -0.104997
     6  N   -0.256747
     7  C   -0.052601
     8  C   -0.012914
     9  C   -0.091292
    10  C    0.046176
    11  C    0.163630
    12  C    0.108191
    13  C   -0.000358
    15  N   -0.433149
    16  C    0.168334
    17  C   -0.177308
    18  C   -0.003954
    19  C    0.148643
    20  C    0.182053
    21  C    0.012344
    22  O   -0.249442
    23  C    0.167033
    24  N   -0.341100
    25  C    0.041215
    26  C   -0.011630
    27  C   -0.014359
    28  C    0.074771
    29  C    0.116869
    30  C    0.046460
    31  C    0.051266
    32  N   -0.310521
    33  C    0.080420
    34  C   -0.169435
    35  C    0.008502
    36  C    0.083008
    37  C    0.230668
    38  C    0.046265
    39  O   -0.188047
    40  C    0.029805
    41  C    0.213021
    42  O   -0.257389
    43  O   -0.304688
    44  C    0.300478
    80  Mg   0.837975
    81  C   -0.016669
    82  C   -0.107886
    83  C   -0.061482
    84  C   -0.105456
    85  N   -0.254581
    86  C   -0.049316
    87  C   -0.015031
    88  C   -0.095582
    89  C    0.045941
    90  C    0.169121
    91  C    0.113725
    92  C   -0.002892
    94  N   -0.423437
    95  C    0.162865
    96  C   -0.174942
    97  C   -0.008060
    98  C    0.152097
    99  C    0.172909
   100  C    0.015325
   101  O   -0.253389
   102  C    0.169006
   103  N   -0.350012
   104  C    0.037580
   105  C   -0.005698
   106  C   -0.022373
   107  C    0.089046
   108  C    0.116193
   109  C    0.044384
   110  C    0.051130
   111  N   -0.324219
   112  C    0.078707
   113  C   -0.162995
   114  C    0.002661
   115  C    0.096198
   116  C    0.233138
   117  C    0.042757
   118  O   -0.187410
   119  C    0.037301
   120  C    0.211152
   121  O   -0.251402
   122  O   -0.305201
   123  C    0.298819
 Electronic spatial extent (au):  <R**2>=         149788.7947
 Charge=             -0.0000 electrons
 Dipole moment (field-independent basis, Debye):
    X=             -4.3339    Y=             -2.2425    Z=             -7.3415  Tot=              8.8152
 Quadrupole moment (field-independent basis, Debye-Ang):
   XX=           -517.7918   YY=           -549.0518   ZZ=           -450.2425
   XY=              2.1967   XZ=             -0.6780   YZ=            -46.2559
 Traceless Quadrupole moment (field-independent basis, Debye-Ang):
   XX=            -12.0964   YY=            -43.3564   ZZ=             55.4528
   XY=              2.1967   XZ=             -0.6780   YZ=            -46.2559
 Octapole moment (field-independent basis, Debye-Ang**2):
  XXX=           -577.5657  YYY=            384.7088  ZZZ=            -87.7784  XYY=            110.4580
  XXY=            -94.2634  XXZ=           -357.0105  XZZ=           -111.7300  YZZ=           -190.8028
  YYZ=           -193.3025  XYZ=           -122.9882
 Hexadecapole moment (field-independent basis, Debye-Ang**3):
 XXXX=        -139686.0096 YYYY=         -42392.5384 ZZZZ=         -24176.3422 XXXY=           -551.1200
 XXXZ=             38.4365 YYYX=           1495.8343 YYYZ=          -1483.2226 ZZZX=           -587.3282
 ZZZY=            117.6725 XXYY=         -31430.5547 XXZZ=         -24576.6179 YYZZ=         -10919.6600
 XXYZ=          -1944.2744 YYXZ=            751.4080 ZZXY=           -353.5036
 N-N= 1.425289740842D+04 E-N=-3.798678542326D+04  KE= 4.028802029543D+03
 Leave Link  601 at Sat Sep 11 07:24:40 2021, MaxMem= 23488102400 cpu:              17.1 elap:               0.8
 (Enter /sw/apps/gaussian-16.0/g16/l9999.exe)
 1\1\GINC-BP1-COMPUTE00099\SP\RCAM-B3LYP TD-FC\def2SVP\C68H72Mg2N8O8\OF
 15641\11-Sep-2021\0\\#p cam-b3lyp/Def2SVP td=(nstates=5)\\TDDFT excite
 d states in gaussian\\0,1\Mg,0,0.,0.,0.\C,0,-0.217,-2.218,2.801\C,0,-1
 .255,2.442,2.026\C,0,-0.245,1.85,-2.564\C,0,0.146,-2.824,-2.037\N,0,-0
 .617,-0.009,2.126\C,0,-0.594,-0.908,3.105\C,0,-0.936,-0.309,4.502\C,0,
 -1.773,0.964,4.032\C,0,-1.155,1.168,2.66\C,0,-3.263,0.685,3.863\C,0,0.
 345,0.11,5.299\C,0,0.124,0.397,6.787\H,0,1.168,0.033,7.733\N,0,-0.185,
 1.961,-0.152\C,0,-0.703,2.8,0.777\C,0,-0.62,4.156,0.193\C,0,-0.187,4.0
 15,-1.225\C,0,-0.214,2.583,-1.38\C,0,-0.887,5.406,0.974\C,0,0.181,5.01
 3,-2.277\O,0,0.303,4.69,-3.508\C,0,0.31,6.414,-1.837\N,0,-0.265,-0.413
 ,-2.029\C,0,-0.279,0.569,-2.937\C,0,-0.196,0.024,-4.332\C,0,0.124,-1.5
 33,-4.18\C,0,0.086,-1.632,-2.635\C,0,-1.451,0.205,-5.197\C,0,1.373,-2.
 07,-4.923\C,0,2.626,-1.49,-4.306\N,0,0.15,-2.144,0.303\C,0,0.173,-3.13
 6,-0.688\C,0,0.173,-4.438,0.004\C,0,0.133,-4.111,1.358\C,0,0.083,-2.69
 5,1.502\C,0,0.149,-5.715,-0.623\C,0,0.096,-4.629,2.716\O,0,0.208,-5.74
 7,3.221\C,0,-0.255,-3.428,3.701\C,0,0.717,-3.482,4.848\O,0,1.931,-3.25
 5,4.669\O,0,0.038,-3.556,6.003\C,0,0.943,-3.583,7.183\H,0,-1.859,3.22,
 2.497\H,0,-0.218,2.453,-3.474\H,0,0.276,-3.747,-2.605\H,0,-1.554,-0.94
 9,5.132\H,0,-1.585,1.831,4.665\H,0,-3.484,-0.377,3.969\H,0,-3.511,1.02
 7,2.858\H,0,-3.852,1.301,4.543\H,0,0.669,1.096,4.966\H,0,1.13,-0.639,5
 .189\H,0,-0.844,0.026,7.125\H,0,0.062,1.477,6.921\H,0,-1.344,5.186,1.9
 38\H,0,-1.651,5.963,0.432\H,0,0.007,6.02,1.084\H,0,-0.635,6.744,-1.405
 \H,0,0.665,6.97,-2.704\H,0,1.048,6.466,-1.036\H,0,0.608,0.501,-4.891\H
 ,0,-0.692,-2.156,-4.547\H,0,-1.267,0.74,-6.129\H,0,-2.204,0.714,-4.596
 \H,0,-1.967,-0.72,-5.453\H,0,1.356,-1.759,-5.967\H,0,1.452,-3.157,-4.9
 02\H,0,2.714,-0.522,-4.798\H,0,3.487,-2.121,-4.529\H,0,2.495,-1.303,-3
 .24\H,0,0.867,-6.333,-0.084\H,0,0.404,-5.642,-1.68\H,0,-0.891,-5.999,-
 0.463\H,0,-1.283,-3.581,4.028\H,0,0.698,-4.478,7.755\H,0,0.833,-2.619,
 7.68\H,0,2.,-3.754,6.976\Mg,0,13.14502,1.18553,1.00602\C,0,13.05567,-1
 .80278,2.99124\C,0,11.90655,2.84467,3.71675\C,0,12.78682,3.738,-0.8443
 9\C,0,13.2741,-0.85799,-1.8141\N,0,12.59359,0.50017,3.03542\C,0,12.660
 64,-0.64625,3.69539\C,0,12.36029,-0.53263,5.21409\C,0,11.47682,0.80807
 ,5.18485\C,0,12.04645,1.44864,3.92079\C,0,9.99605,0.54832,4.96303\C,0,
 13.66274,-0.34376,6.06848\C,0,13.47672,-0.53489,7.57533\H,0,14.56254,-
 1.14333,8.33905\N,0,12.92015,3.09811,1.48564\C,0,12.4226,3.59512,2.637
 47\C,0,12.44785,5.05844,2.48834\C,0,12.84696,5.38076,1.09137\C,0,12.84
 659,4.05564,0.50471\C,0,12.19019,5.99736,3.6309\C,0,13.16265,6.66981,0
 .39504\O,0,13.25414,6.74074,-0.88145\C,0,13.26923,7.8649,1.24469\N,0,1
 2.83127,1.41347,-1.03652\C,0,12.76384,2.63542,-1.59347\C,0,12.81101,2.
 55137,-3.10049\C,0,13.16921,1.02905,-3.43487\C,0,13.17979,0.4511,-2.00
 265\C,0,11.52581,2.94339,-3.82917\C,0,14.40543,0.77978,-4.34168\C,0,15
 .66828,1.18274,-3.61488\N,0,13.34883,-0.93184,0.62753\C,0,13.35367,-1.
 57724,-0.62846\C,0,13.40033,-3.03113,-0.37068\C,0,13.39613,-3.13225,1.
 02869\C,0,13.32972,-1.83384,1.60247\C,0,13.39124,-4.05248,-1.36208\C,0
 ,13.42205,-4.04256,2.1509\O,0,13.56386,-5.2578,2.28058\C,0,13.07513,-3
 .22767,3.47075\C,0,14.08275,-3.59874,4.52408\O,0,15.28225,-3.30186,4.3
 8379\O,0,13.43506,-4.04607,5.61531\C,0,14.39169,-4.41627,6.69217\H,0,1
 1.30921,3.41568,4.42809\H,0,12.77426,4.58918,-1.52909\H,0,13.41556,-1.
 55807,-2.64026\H,0,11.78101,-1.35076,5.62504\H,0,11.67706,1.43204,6.05
 199\H,0,9.79771,-0.49014,4.74301\H,0,9.70966,1.17349,4.12746\H,0,9.418
 01,0.90672,5.81962\H,0,13.9542,0.71424,6.04785\H,0,14.44582,-0.98687,5
 .7166\H,0,12.5212,-1.01716,7.8148\H,0,13.4048,0.44971,8.04375\H,0,11.7
 6096,5.47295,4.49355\H,0,11.39921,6.68333,3.30893\H,0,13.0727,6.57932,
 3.90508\H,0,12.33439,8.01166,1.78041\H,0,13.58753,8.6694,0.57885\H,0,1
 4.0414,7.68819,2.00175\H,0,13.58865,3.19113,-3.49934\H,0,12.35077,0.52
 611,-3.97065\H,0,11.67122,3.75908,-4.56237\H,0,10.78647,3.22333,-3.090
 56\H,0,11.02863,2.13176,-4.35764\H,0,14.3502,1.40364,-5.23717\H,0,14.4
 9863,-0.24954,-4.67153\H,0,15.71625,2.26268,-3.7837\H,0,16.53303,0.677
 87,-4.04074\H,0,15.56925,1.02197,-2.53507\H,0,14.13031,-4.78365,-1.062
 62\H,0,13.6066,-3.64987,-2.34966\H,0,12.35769,-4.39841,-1.27626\H,0,12
 .05922,-3.49552,3.76361\H,0,14.1786,-5.45423,6.96588\H,0,14.26443,-3.6
 5107,7.48086\H,0,15.44156,-4.4778,6.43056\\Version=ES64L-G16RevA.03\St
 ate=1-A\HF=-4069.8116654\RMSD=4.837e-09\PG=C01 [X(C68H72Mg2N8O8)]\\@


 LET US PLACE AT THE END OF EVERY CHAPTER.....THE
 TWO LETTERS USED BY THE ROMAN JUDGES WHEN THEY DID
 NOT UNDERSTAND A PLEADING.
 N. L. -NON LIQUET- IT IS NOT CLEAR.
                                              -- VOLTAIRE
 Job cpu time:       0 days 12 hours  8 minutes 33.3 seconds.
 Elapsed time:       0 days  0 hours 30 minutes 56.1 seconds.
 File lengths (MBytes):  RWF=  13225 Int=      0 D2E=      0 Chk=    574 Scr=      1
 Normal termination of Gaussian 16 at Sat Sep 11 07:24:41 2021.
